# vtk DataFile Version 5.1
vtk output
ASCII
DATASET STRUCTURED_POINTS
DIMENSIONS 50 50 50
SPACING 0.002 0.002 0.002
ORIGIN 0.1742 -0.052672 0.02732
POINT_DATA 125000
FIELD FieldData 1
potential 1 125000 double
0.00045840530167 0.00045613147747 0.00045387355497 0.00045163146889 0.00044940566597 0.0004471968623 0.00044500381005 0.00044282702982 0.00044066684255 
0.00043852272501 0.00043639474617 0.00043428367348 0.00043218879158 0.0004301121301 0.00042805375459 0.00042601501349 0.00042399612819 0.00042199737056 
0.00042001951953 0.00041806289119 0.00041612636756 0.00041420954778 0.00041231120978 0.00041043204619 0.00040857089068 0.00040672724716 0.00040490291806 
0.00040309835112 0.0004013149067 0.00039955335074 0.0003978143869 0.00039610080933 0.00039441174122 0.00039274656724 0.0003911055428 0.00038948591917 
0.00038788762942 0.00038630452571 0.00038473545187 0.00038317783981 0.00038162850454 0.00038008538636 0.00037854697598 0.00037701277379 0.00037548229691 
0.00037395591709 0.00037243456432 0.0003709196318 0.00036941212828 0.0003679139026 0.00046088785733 0.00045859714048 0.00045632184119 0.00045406248341 
0.00045181978506 0.00044959390609 0.0004473832249 0.00044518935976 0.00044301155924 0.00044084964066 0.00043870337348 0.00043657336988 0.00043446040018 
0.00043236454975 0.00043028697902 0.00042822833119 0.00042618986292 0.00042417052364 0.00042217236003 0.00042019460201 0.00041823687875 0.00041629883599 
0.00041437995952 0.00041247982896 0.00041059902161 0.00040873688573 0.00040689359721 0.00040507141066 0.00040327091865 0.00040149341778 0.00039973881763 
0.00039801030411 0.00039630669872 0.00039462794662 0.00039297240118 0.00039133957407 0.00038972645107 0.00038813181706 0.00038654966469 0.00038497901689 
0.00038341684246 0.00038186118663 0.000380310744 0.00037876409901 0.00037722174063 0.0003756836595 0.00037415111971 0.0003726252405 0.00037110716853 
0.00036959887478 0.00046315103417 0.0004608455598 0.00045855504871 0.00045628068235 0.00045402258425 0.00045178148637 0.00044955621117 0.00044734626157 
0.00044515286627 0.00044297533693 0.00044081270939 0.00043866618398 0.000436535979 0.00043442300648 0.00043232729726 0.00043025051118 0.00042819295698 
0.00042615454168 0.0004241364611 0.00042213863846 0.00042016093799 0.0004182026305 0.00041626395025 0.00041434400049 0.00041244381208 0.00041056316554 
0.00040870273387 0.00040686406214 0.0004050479093 0.00040325571281 0.00040148713312 0.00039974470475 0.00039802781948 0.00039633591552 0.00039466777024 
0.00039302207967 0.00039139626923 0.00038978738599 0.00038819461285 0.00038661135292 0.00038503711725 0.00038346942866 0.00038190691862 0.00038034910478 
0.0003787955136 0.00037724687871 0.00037570386037 0.00037416819342 0.00037264073258 0.00037112335702 0.00046514812204 0.00046282954208 0.00046052647827 
0.00045823910447 0.00045596845084 0.00045371443069 0.00045147551844 0.0004492524338 0.00044704532234 0.0004448537226 0.00044267703578 0.00044051573266 
0.00043837074227 0.0004362418169 0.00043413036322 0.00043203714015 0.00042996204938 0.00042790591245 0.00042586919464 0.00042385218738 0.00042185579688 
0.00041987864954 0.00041792051897 0.0004159821942 0.0004140639359 0.0004121666109 0.00041029059345 0.00040843646641 0.00040660595995 0.00040479922167 
0.0004030186991 0.00040126403856 0.00039953543596 0.00039783175661 0.00039615238935 0.00039449463419 0.00039285721247 0.00039123677684 0.00038963073125 
0.0003880375905 0.00038645186487 0.0003848728471 0.00038329953742 0.00038173091335 0.00038016727953 0.0003786088069 0.00037705652717 0.00037551188311 
0.00037397653856 0.00037245170306 0.00046684276988 0.00046451334144 0.0004621997866 0.00045990219587 0.00045762046305 0.0004553551608 0.00045310570203 
0.00045087142119 0.00044865294018 0.00044644930511 0.00044426041004 0.00044208647981 0.00043992804434 0.00043778560704 0.00043565993268 0.00043355198537 
0.00043146113099 0.00042938903052 0.00042733541939 0.0004253010547 0.00042328673559 0.00042129130266 0.00041931637991 0.00041736110154 0.00041542693289 
0.00041351398422 0.00041162361977 0.00040975610627 0.00040791291847 0.00040609454578 0.0004043027311 0.00040253710518 0.00040079781595 0.00039908416087 
0.00039739465986 0.00039572694455 0.00039407879162 0.00039244841315 0.00039083160847 0.0003892263487 0.0003876319077 0.00038604275788 0.00038445940625 
0.00038288129832 0.00038130827025 0.00037974113378 0.00037818072017 0.00037662851235 0.00037508625187 0.00037355491178 0.00046821203044 0.00046587356696 
0.00046355165492 0.00046124532873 0.00045895510418 0.00045668086507 0.0004544223691 0.00045217920997 0.0004499509601 0.00044773831285 0.0004455387478 
0.00044335452983 0.00044118500563 0.00043903080515 0.00043689246287 0.00043477176624 0.00043266712742 0.00043057994061 0.00042851143779 0.0004264614968 
0.00042443090793 0.00042241986595 0.00042042922608 0.0004184597119 0.00041651119582 0.00041458460989 0.00041268128745 0.00041080210747 0.00040894716289 
0.00040711937903 0.00040531779965 0.00040354326725 0.00040179510347 0.00040007291125 0.00039837458774 0.00039669795738 0.00039504127871 0.00039340149843 
0.00039177561162 0.00039016119652 0.00038855569966 0.00038695977373 0.00038536725362 0.00038378072656 0.00038219952643 0.00038062475928 0.00037905738765 
0.00037749852971 0.00037595031514 0.00037441400541 0.00046924696173 0.00046690177308 0.00046457294928 0.0004622597662 0.00045996311353 0.00045768196983 
0.00045541676581 0.00045316630051 0.00045093074153 0.00044870967937 0.00044650248071 0.00044430919408 0.00044213011978 0.0004399666642 0.00043781818244 
0.00043568580747 0.00043356898673 0.0004314692503 0.00042938743483 0.00042732392497 0.00042527991111 0.00042325504191 0.00042125130042 0.00041926856265 
0.00041730773499 0.00041536967855 0.00041345535329 0.00041156613663 0.00040970205823 0.00040786572206 0.00040605633663 0.00040427443565 0.00040251936486 
0.00040079002235 0.00039908443933 0.00039740126619 0.00039573681185 0.00039408926366 0.00039245557021 0.00039083329579 0.00038921990987 0.000387615912 
0.00038601600122 0.0003844218716 0.00038283375059 0.00038125256065 0.00037967932895 0.00037811518914 0.00037656242971 0.00037502183247 0.0004699549421 
0.00046760461277 0.00046527034072 0.00046295234822 0.000460650809 0.00045836431524 0.00045609369014 0.00045383838707 0.00045159686066 0.00044936968011 
0.00044715611333 0.00044495550418 0.0004427689351 0.00044059702016 0.00043843982765 0.00043629754335 0.00043417105812 0.00043206106867 0.00042996844729 
0.00042789388455 0.0004258376418 0.00042380193493 0.00042178699496 0.00041979303603 0.00041782206796 0.00041587448022 0.00041395138871 0.00041205293564 
0.00041018233759 0.00040833945388 0.00040652424693 0.00040473649228 0.00040297582487 0.00040124076677 0.00039953040106 0.00039784124187 0.00039617066098 
0.00039451693912 0.0003928767943 0.00039124770521 0.00038962768962 0.00038801510945 0.00038641052308 0.00038480995975 0.00038321603346 0.00038162975897 
0.00038005162434 0.00037848337831 0.00037692715219 0.00037538370332 0.00047036096134 0.00046800259917 0.00046566460345 0.00046334244119 0.00046103732527 
0.00045874759958 0.00045647300149 0.0004542136135 0.0004519682574 0.00044973628417 0.00044751799766 0.00044531223074 0.00044311991008 0.0004409410231 
0.00043877692247 0.00043662750898 0.00043449246321 0.00043237426284 0.00043027297864 0.00042818900608 0.00042612405586 0.00042407865959 0.00042205458869 
0.00042005230245 0.00041807282238 0.00041611788089 0.00041418811316 0.00041228363925 0.00041040715138 0.00040855923676 0.00040673950005 0.00040494770248 
0.00040318277456 0.00040144380092 0.00039972895633 0.00039803542924 0.00039636038576 0.00039470149015 0.00039305639039 0.0003914215608 0.00038979593254 
0.00038817791518 0.00038656663008 0.00038496266804 0.0003833640383 0.00038177320233 0.0003801916903 0.00037861999252 0.00037706090452 0.00037551517278 
0.00047049249271 0.00046813110017 0.00046578991207 0.00046346520295 0.00046115738196 0.00045886525976 0.00045658808744 0.00045432500292 0.00045207654269 
0.00044984106965 0.00044761901403 0.00044540928397 0.00044321261752 0.00044102869128 0.00043885938242 0.00043670345938 0.00043456294798 0.00043243844768 
0.00043032991192 0.00042823952206 0.00042616792924 0.00042411653348 0.00042208594563 0.00042007739178 0.0004180922308 0.00041613161862 0.00041419673117 
0.00041228776806 0.00041040771712 0.00040855533734 0.00040673215764 0.00040493739439 0.0004031696283 0.00040142809099 0.00039970987094 0.00039801298924 
0.00039633441152 0.00039467122477 0.00039302158412 0.00039138257267 0.00038975293878 0.00038813031793 0.00038651486309 0.00038490569994 0.000383304951 
0.00038171064757 0.00038012610415 0.00037855242173 0.00037699164294 0.00037544466356 0.00047039838017 0.00046803836223 0.0004656915698 0.00046336487069 
0.00046105499391 0.00045876036901 0.00045648045559 0.00045421543464 0.0004519645584 0.00044972628172 0.00044750082081 0.00044528812338 0.00044308827715 
0.00044090162532 0.00043872819467 0.00043656855845 0.00043442389117 0.00043229419551 0.00043018168865 0.00042808677148 0.00042601049456 0.00042395404044 
0.00042191881488 0.00041990629325 0.00041791718184 0.00041595297861 0.00041401417586 0.00041210358058 0.00041022106331 0.00040836761559 0.00040654225284 
0.00040474551698 0.00040297617383 0.00040123204814 0.00039951133872 0.00039781168976 0.00039613005602 0.00039446366797 0.00039281044643 0.00039116816937 
0.00038953460097 0.00038790847717 0.00038628928538 0.00038467705807 0.00038307172021 0.00038147686095 0.00037989040003 0.00037831521875 0.00037675344686 
0.00037520573892 0.00047013180044 0.00046776993627 0.00046542488631 0.00046309196989 0.00046078027646 0.00045848363423 0.00045620203266 0.00045393489411 
0.00045168133861 0.00044944083678 0.00044721309881 0.00044499821435 0.00044279625052 0.00044060698059 0.00043843155009 0.00043626918461 0.00043412145938 
0.00043198972539 0.00042987503743 0.00042777723624 0.00042569817222 0.00042363903069 0.00042160119611 0.00041958612395 0.00041759502278 0.00041562949127 
0.00041368899246 0.00041177704852 0.00040989327887 0.00040803871706 0.00040621261782 0.00040441530451 0.00040264394544 0.00040089824815 0.00039917595488 
0.0003974739976 0.00039579001604 0.00039412082772 0.00039246494648 0.00039081953447 0.0003891825821 0.00038755361265 0.00038593134678 0.00038431688338 
0.00038270941839 0.00038111122096 0.00037952523031 0.00037794907388 0.00037638667313 0.00037483906793 0.0004697468131 0.00046738325098 0.00046503641521 
0.00046270661625 0.00046038742908 0.00045808871229 0.00045580563806 0.00045353624948 0.00045128052186 0.00044903793153 0.00044680823889 0.00044459122075 
0.00044238776163 0.00044019741934 0.00043802042545 0.00043585688936 0.00043370827003 0.00043157545441 0.0004294590778 0.00042736069221 0.00042528073004 
0.00042322096833 0.00042118265886 0.0004191669638 0.00041717529834 0.00041520786796 0.00041326851485 0.00041135627826 0.00040947248499 0.00040761777037 
0.00040579090681 0.00040399261592 0.00040222054381 0.00040047350754 0.00039874951458 0.00039704546707 0.00039535862424 0.00039368695857 0.00039202819905 
0.00039038009412 0.0003887406995 0.00038710923532 0.00038548563082 0.00038386915491 0.00038226068888 0.0003806614186 0.00037907458185 0.00037749785831 
0.00037593511313 0.00037438757603 0.00046929999988 0.00046693419447 0.00046458489771 0.00046225259478 0.00045993143082 0.00045763000658 0.00045534410608 
0.00045307280377 0.00045081448166 0.00044856961509 0.00044633818792 0.00044412010433 0.00044191543925 0.00043972463948 0.00043754635592 0.00043538310335 
0.0004332349342 0.000431101918 0.00042898572076 0.00042688781779 0.00042480833904 0.00042274965576 0.00042071177207 0.00041869679749 0.00041670594353 
0.00041473922243 0.00041280022856 0.00041088839152 0.00040900455395 0.00040715010096 0.00040532385763 0.00040352498608 0.00040175185833 0.0004000034006 
0.0003982769914 0.00039657068217 0.00039488145388 0.00039320708488 0.00039154550319 0.00038989471557 0.00038825286771 0.0003866194577 0.00038499386934 
0.00038337624177 0.00038176690391 0.00038016678117 0.00037857839221 0.00037700387518 0.00037544134697 0.00037389388944 0.00046884148491 0.00046647273971 
0.00046412073506 0.0004617858589 0.00045946603424 0.00045715730664 0.00045486800933 0.00045259402116 0.00045033351523 0.00044808641894 0.00044585333824 
0.00044363368343 0.00044142853565 0.00043923666594 0.00043705887747 0.00043489627988 0.00043274876369 0.00043061761827 0.0004285023449 0.0004264056287 
0.00042432797075 0.00042227059241 0.00042023434278 0.0004182208045 0.00041623033339 0.00041426625859 0.0004123285214 0.00041041791585 0.00040853491382 
0.00040668107963 0.00040485419298 0.00040305417971 0.0004012800661 0.00039953011952 0.00039780133722 0.00039609196513 0.00039440004302 0.00039272280341 
0.000391057958 0.00038940431998 0.00038776015028 0.00038612453035 0.00038449759426 0.00038287858318 0.0003812685795 0.00037966855599 0.00037808006575 
0.00037650407013 0.0003749434924 0.00037339588742 0.00046841769008 0.00046604520533 0.00046368939982 0.00046135086315 0.00045902740209 0.0004567199397 
0.00045442289899 0.00045214524086 0.00044988152008 0.00044763241835 0.0004453974561 0.0004431764666 0.00044096998154 0.00043877875913 0.00043660170393 
0.00043443984301 0.00043229366263 0.00043016389076 0.0004280512683 0.0004259556903 0.00042388043898 0.00042182513744 0.00041979117841 0.0004177797814 
0.00041579148477 0.0004138293843 0.00041189315276 0.0004099837593 0.00040810158667 0.0004062468948 0.00040441953497 0.00040261839794 0.00040084279482 
0.00039909059491 0.00039735902645 0.00039564654084 0.00039395126104 0.00039227032319 0.00039060230453 0.0003889456047 0.00038729880184 0.00038566108972 
0.00038403238382 0.0003824121472 0.00038080148841 0.00037920147311 0.00037761296305 0.00037603693279 0.00037447468686 0.00037292881411 0.0004680657989 
0.00046568895534 0.00046332875979 0.00046098576335 0.00045865816055 0.00045634642636 0.00045404946986 0.00045176389246 0.00044949746894 0.00044724588935 
0.00044500886553 0.0004427860406 0.00044057894081 0.0004383872416 0.00043621060774 0.00043404939275 0.00043190488457 0.00042977706675 0.00042766650941 
0.000425574126 0.00042350043882 0.00042144806441 0.00041941686706 0.00041740701941 0.0004154217936 0.0004134610156 0.00041152626056 0.00040961765467 
0.00040773618585 0.00040588130424 0.00040405266027 0.00040224968102 0.00040047125034 0.00039871600753 0.00039698130104 0.00039526515345 0.00039356583382 
0.00039188109892 0.00039020913657 0.00038854895418 0.00038689931254 0.00038525882861 0.00038362842434 0.00038200713523 0.00038039577439 0.00037879518724 
0.00037720617116 0.00037562996756 0.00037406739611 0.00037252031725 0.00046781640506 0.00046543418959 0.000463069258 0.00046072082063 0.00045838843964 
0.00045607169292 0.00045377094544 0.00045148098607 0.00044921086681 0.00044695586647 0.00044471602045 0.00044249178462 0.00044028406986 0.00043809216185 
0.00043591527768 0.00043375526795 0.00043161227099 0.00042948645361 0.00042737801417 0.00042528810735 0.00042321707535 0.00042116723607 0.00041913820159 
0.0004171305164 0.0004151471104 0.0004131883923 0.00041125432874 0.0004093466848 0.00040746430918 0.0004056085566 0.00040377828279 0.00040197307212 
0.00040019151966 0.0003984321015 0.00039669318733 0.00039497286763 0.00039326850567 0.00039157928585 0.00038990331814 0.00038823911056 0.0003865856857 
0.00038494283819 0.00038330980503 0.00038168698405 0.00038007505215 0.00037847318289 0.00037688337217 0.00037530637762 0.00037374230887 0.00037219311139 
0.00046769126034 0.00046530327681 0.00046293228156 0.00046057804701 0.00045824028871 0.00045591836674 0.00045361256267 0.00045132262596 0.00044904426081 
0.00044678553926 0.00044454327171 0.00044231717757 0.00044010867677 0.0004379161667 0.00043574029082 0.00043358086661 0.00043143886987 0.00042931453397 
0.00042720795909 0.00042512009734 0.00042305181739 0.00042100322335 0.0004189759067 0.00041697093222 0.00041498901461 0.00041303094235 0.00041109770157 
0.00040918928869 0.00040730595149 0.00040544836892 0.0004036158672 0.00040180674287 0.00040002169298 0.00039825765944 0.00039651348257 0.00039478797698 
0.00039307890983 0.0003913841287 0.00038970300667 0.00038803437688 0.00038637749035 0.00038473095255 0.00038309541676 0.00038147041449 0.00037985663136 
0.00037825358752 0.00037666204328 0.00037508353551 0.0003735182106 0.00037196723261 0.00046770590323 0.00046531117577 0.00046293371752 0.00046057350857 
0.00045822967482 0.00045590275108 0.00045359142662 0.0004512967673 0.0004490177375 0.00044675195243 0.00044450719674 0.00044227915414 0.00044006891343 
0.00043787625347 0.00043569964652 0.00043354092373 0.0004313998812 0.00042927662536 0.00042717183878 0.00042508576448 0.00042301912761 0.00042097275809 
0.00041894599709 0.00041694242805 0.00041496125054 0.00041300363099 0.00041106987937 0.0004091603922 0.00040727537668 0.00040541497512 0.00040357864927 
0.00040176607755 0.00039997547304 0.00039820621669 0.00039645639459 0.00039472448828 0.00039300956056 0.00039130911693 0.00038962258216 0.00038794895318 
0.00038628746227 0.00038463723831 0.00038299821899 0.00038137013583 0.00037975366116 0.00037814839216 0.00037655508124 0.00037497367847 0.00037340678968 
0.00037185312998 0.00046787072015 0.0004654684057 0.00046308420395 0.00046071670821 0.00045836695388 0.00045603393542 0.00045371740829 0.0004514172514 
0.00044913506814 0.00044686603773 0.0004446183284 0.00044238825899 0.00044017645664 0.00043798237982 0.00043580608432 0.00043364688627 0.00043150614823 
0.00042938383422 0.00042727975644 0.00042519475874 0.00042312951343 0.00042108323934 0.00041905881304 0.00041705521501 0.00041507397644 0.00041311597634 
0.00041118080224 0.00040926936939 0.00040738167667 0.00040551798409 0.00040367756897 0.00040186003982 0.00040006324018 0.00039828770822 0.00039653117872 
0.0003947927917 0.00039307073711 0.00039136365612 0.0003896714103 0.00038799204524 0.00038632501239 0.00038467027207 0.00038302743557 0.00038139522253 
0.00037977507706 0.00037816698178 0.00037657066457 0.00037498666491 0.00037341629663 0.00037185939932 0.0004681914126 0.00046578126955 0.00046338965287 
0.00046101486638 0.00045865852815 0.0004563191466 0.00045399630329 0.00045169188844 0.00044940535487 0.00044713695477 0.00044488211804 0.00044265010113 
0.00044043586744 0.00043824036758 0.00043606358632 0.00043390435419 0.00043176385095 0.00042964167076 0.00042753825014 0.00042545387314 0.00042338900871 
0.00042134316073 0.00041931874328 0.00041731575983 0.00041533348701 0.00041337394372 0.00041143660742 0.00040952271133 0.00040763133324 0.00040576361177 
0.00040391824391 0.00040209420524 0.00040029106414 0.00039850818996 0.00039674435104 0.00039499814321 0.00039326860244 0.00039155428342 0.00038985518886 
0.00038816953465 0.0003864964934 0.00038483588802 0.00038318793489 0.00038155140292 0.00037992660618 0.00037831396441 0.00037671394498 0.00037512625682 
0.00037355159893 0.00037199055453 0.00046867089902 0.00046625237502 0.00046385225637 0.00046147002607 0.0004591064344 0.00045676012897 0.00045443238354 
0.00045212298059 0.00044983193312 0.00044755969829 0.00044530610445 0.00044306721577 0.00044085135925 0.00043865423033 0.00043647637847 0.0004343163374 
0.00043217555525 0.00043005330041 0.00042795022 0.00042586560811 0.00042379966187 0.0004217547092 0.00041973010546 0.00041772618221 0.00041574358109 
0.0004137813474 0.00041184170483 0.00040992436217 0.00040802900808 0.00040615590143 0.00040430430725 0.00040247373203 0.0004006635048 0.00039887218893 
0.00039710018293 0.00039534547329 0.00039360765739 0.0003918852692 0.00039017792651 0.00038848467524 0.00038680486643 0.00038513790828 0.00038348339663 
0.000381841217 0.00038021109527 0.00037859381394 0.00037698833806 0.00037539562927 0.00037381647358 0.00037225041096 0.0004693093625 0.00046688189189 
0.00046447334422 0.00046208250876 0.00045971165674 0.00045735923106 0.00045502552165 0.00045271096085 0.00045041563636 0.00044813970364 0.00044588264316 
0.00044364120018 0.00044142332337 0.00043922438838 0.00043704492591 0.00043488423737 0.00043274276785 0.00043062018015 0.00042851673429 0.00042643210597 
0.00042436593827 0.00042232026596 0.00042029409168 0.00041828911396 0.00041630488236 0.00041433998788 0.00041239724677 0.00041047600159 0.00040857611567 
0.00040669711152 0.00040483818122 0.00040300042908 0.00040118189543 0.0003993818495 0.00039760023518 0.0003958363117 0.00039408908767 0.00039235770549 
0.00039064178546 0.00038893980227 0.00038725193434 0.00038557765895 0.0003839160932 0.00038226682871 0.00038063052197 0.00037900610442 0.00037739483731 
0.00037579675693 0.00037421177134 0.00037263978608 0.00047010746462 0.00046767057763 0.00046525238176 0.00046285393056 0.00046047543545 0.00045811599677 
0.00045577618372 0.00045345628054 0.00045115635353 0.00044887620694 0.00044661593411 0.00044437591467 0.00044215115065 0.00043995071716 0.00043776934902 
0.00043560764894 0.00043346524177 0.00043134196675 0.00042923782628 0.00042715172965 0.00042508601454 0.00042303870992 0.00042101217056 0.00041900496992 
0.00041701818898 0.00041505172675 0.0004131050826 0.00041117884684 0.00040927323337 0.00040738725737 0.00040552125684 0.00040367468095 0.00040184708669 
0.00040003752953 0.00039824589315 0.0003964717702 0.00039471418696 0.00039297270511 0.00039124665847 0.00038953508031 0.00038783828011 0.00038615504832 
0.00038448612338 0.00038282929778 0.00038118452129 0.0003795533574 0.00037793497597 0.00037632968286 0.00037473810528 0.00037315921277 0.0004710637574 
0.00046861671172 0.00046618962033 0.00046378210045 0.00046139564003 0.00045902909029 0.00045668294671 0.00045435780583 0.00045205281661 0.00044976886088 
0.00044750531547 0.00044526209453 0.00044303405807 0.00044083156815 0.00043864896689 0.00043648566153 0.00043434235996 0.00043221811613 0.00043011188525 
0.00042802618093 0.00042595943933 0.00042391182548 0.00042188370212 0.00041987504645 0.00041788560045 0.00041591594728 0.00041396537049 0.00041203362363 
0.00041012165682 0.00040822838212 0.0004063546963 0.00040449951758 0.00040266209768 0.00040084236851 0.00039903976466 0.00039725449958 0.00039548555736 
0.00039373308046 0.00039199591346 0.00039027380322 0.00038856644278 0.00038687331674 0.00038519396854 0.00038352820881 0.00038187495997 0.00038023507008 
0.00037860884576 0.00037699520762 0.00037539531993 0.00037380885769 0.00047217802541 0.00046972083222 0.00046728355342 0.00046486717859 0.00046247252162 
0.00046009809266 0.000457745322 0.000455414194 0.0004531042657 0.00045081589467 0.00044854869414 0.00044630248268 0.00044407683671 0.00044186757116 
0.00043968311835 0.00043751816132 0.00043537366486 0.00043324821551 0.00043114113375 0.00042905434351 0.00042698698661 0.00042493855271 0.00042290857106 
0.00042089799235 0.00041890615908 0.00041693297145 0.00041497823989 0.00041304159379 0.00041112191132 0.00040922138859 0.00040733870179 0.0004054731991 
0.00040362503528 0.00040179401175 0.00039997990407 0.00039818274863 0.0003964014682 0.00039463630294 0.00039288750616 0.00039115358335 0.00038943456753 
0.00038773041781 0.00038604000688 0.00038436370389 0.00038270106065 0.00038105181813 0.00037941601815 0.00037779341214 0.00037618411837 0.00037458891882 
0.00047345124963 0.00047098272996 0.00046853525004 0.0004661095303 0.00046370622019 0.00046132427524 0.00045896465944 0.0004566274096 0.00045431198383 
0.00045201868434 0.00044974748969 0.00044749790299 0.00044526946499 0.00044306196542 0.00044087062671 0.00043870416243 0.00043655784597 0.00043443066429 
0.00043232366561 0.00043023582459 0.00042816710956 0.00042611767091 0.00042408613908 0.00042207319711 0.00042007780497 0.00041810071153 0.00041614146133 
0.00041419898024 0.0004122733892 0.00041036398166 0.00040847153643 0.00040659608053 0.00040473706357 0.00040289416569 0.00040106727877 0.00039925711503 
0.00039746247315 0.0003956845189 0.00039392172107 0.00039217513093 0.00039044369548 0.00038872694003 0.00038702498748 0.0003853367606 0.0003836632303 
0.0003820031089 0.000380356846 0.00037872417225 0.00037710441645 0.00037549884693 0.00047488542658 0.0004724055357 0.00046994738947 0.00046751137313 
0.00046509863389 0.00046270885033 0.00046034180545 0.00045799774781 0.00045567641523 0.00045337809234 0.00045110235901 0.00044884894597 0.00044661701178 
0.00044440661602 0.0004422127864 0.00044004394068 0.00043789591673 0.00043576688634 0.00043365892312 0.0004315699135 0.00042950022504 0.00042744883203 
0.00042541570153 0.00042340031716 0.00042140172766 0.0004194209876 0.00041745600565 0.00041550746258 0.00041357472733 0.00041165640725 0.00040975441808 
0.00040786782921 0.00040599694893 0.00040414146522 0.0004023013732 0.00040047700531 0.0003986684804 0.00039687645451 0.0003950995395 0.00039333899803 
0.00039159372789 0.00038986370631 0.00038814831878 0.00038644757153 0.00038476192007 0.00038309003587 0.00038143192765 0.00037978769468 0.00037815696122 
0.00037654018837 0.00047648358053 0.00047399073589 0.00047152125339 0.00046907455362 0.00046665196461 0.00046425311806 0.00046187871227 0.00045952747575 
0.00045719978023 0.00045489571206 0.00045261441748 0.00045035591395 0.0004481200646 0.00044590603122 0.00044371384165 0.00044153815078 0.00043938688242 
0.00043725688988 0.00043514700679 0.00043305697464 0.00043098545224 0.00042893273745 0.00042689753403 0.00042487957386 0.00042287822401 0.0004208922612 
0.00041892193218 0.00041696699668 0.00041502578805 0.00041309960714 0.00041118629732 0.00040928817822 0.00040740478189 0.00040553557208 0.0004036815043 
0.00040184245153 0.00040001959255 0.00039821233768 0.00039642093457 0.00039464488055 0.00039288469076 0.00039114089331 0.00038941132642 0.00038769702067 
0.00038599717875 0.00038431208135 0.00038264096686 0.00038098407128 0.0003793410679 0.00037771202667 0.00047824778648 0.0004757422731 0.00047326084436 
0.00047080294727 0.00046836975889 0.00046596118213 0.00046357717514 0.00046121815744 0.00045888301393 0.00045657227902 0.0004542852969 0.00045202137437 
0.00044978023913 0.00044756219943 0.00044536574521 0.00044319145926 0.00044103292772 0.00043890067631 0.00043678847923 0.00043469701342 0.00043262397352 
0.00043056925898 0.00042853154827 0.00042651054645 0.00042450540427 0.00042251466531 0.00042053884487 0.00041857605045 0.0004166267018 0.00041469047798 
0.0004127672834 0.0004108563212 0.00040895727284 0.0004070743007 0.00040520551522 0.00040335124642 0.00040151300256 0.00039968994945 0.00039788275751 
0.00039609136366 0.00039431541836 0.00039255518585 0.00039081079781 0.00038908155392 0.00038736700973 0.00038566709166 0.00038398210156 0.00038231133688 
0.0003806547961 0.00037901195885 0.00048018236767 0.00047766318972 0.00047516898917 0.00047269884836 0.00047025435959 0.00046783505648 0.00046544131998 
0.0004630729958 0.00046072988639 0.00045841115623 0.00045611659032 0.00045384651532 0.00045159919484 0.00044937542597 0.00044717471466 0.00044499488515 
0.00044283369194 0.00044069866694 0.00043858414316 0.00043649025692 0.00043441486395 0.00043235513446 0.00043031461271 0.00042829047276 0.00042628085801 
0.00042428521896 0.00042230241089 0.00042033207755 0.00041837368179 0.00041642694035 0.00041449219151 0.00041256931799 0.00041065838189 0.00040876062827 
0.00040687658202 0.00040500667374 0.0004031518096 0.00040131259104 0.00039948880416 0.00039768084139 0.00039588910956 0.00039411210942 0.00039235136403 
0.00039060595133 0.00038887611527 0.00038716042735 0.00038546002981 0.00038377399078 0.00038210191347 0.00038044424697 0.00048228884918 0.00047975525367 
0.00047724766267 0.00047476499162 0.00047230821022 0.00046987732642 0.00046747284888 0.00046509373404 0.00046274075699 0.00046041309594 0.00045811057605 
0.0004558322134 0.00045357782846 0.00045134538817 0.0004491374841 0.00044695331196 0.00044479151747 0.00044264776993 0.00044053059564 0.000438432886 
0.00043635462587 0.00043429410582 0.00043225019434 0.00043022158103 0.00042820689114 0.00042620504381 0.0004242154883 0.00042223663715 0.00042026823717 
0.00041831097631 0.00041636395082 0.00041442775931 0.00041250223221 0.00041058980306 0.00040869007878 0.00040680392329 0.00040493255293 0.00040307644333 
0.00040123590818 0.00039941078063 0.00039760201286 0.00039580805361 0.00039403009185 0.00039226760873 0.0003905204892 0.00038878828444 0.00038707075662 
0.00038536816107 0.00038367972263 0.00038200610308 0.00048456902877 0.00048202090567 0.000479498312 0.00047700208441 0.00047453173336 0.00047208778689 
0.00046967106794 0.00046727867395 0.00046491487972 0.00046257657982 0.00046026378703 0.00045797625404 0.00045571289908 0.00045347437916 0.00045125875986 
0.00044906814683 0.00044690100707 0.00044475230007 0.00044262976639 0.00044052789128 0.00043844565008 0.00043638130658 0.00043433255124 0.00043229867425 
0.00043027784907 0.00042827001498 0.00042627216351 0.00042428422775 0.00042230546301 0.0004203360316 0.00041837601308 0.00041642581992 0.00041448670582 
0.00041255792459 0.00041064207852 0.00040873988913 0.00040685167244 0.00040497865077 0.00040312085272 0.00040127824006 0.00039945130517 0.00039764003255 
0.00039584400851 0.00039406355316 0.00039229848617 0.00039054830204 0.00038881289153 0.00038709219619 0.00038538639612 0.00038369522916 0.00048702222181 
0.00048445832636 0.00048191831544 0.00047940671316 0.0004769220537 0.000474463809 0.00047203314815 0.00046962996327 0.00046725293423 0.00046490251811 
0.00046257831895 0.00046027965765 0.00045800591099 0.00045575630979 0.000453532605 0.00045133421746 0.00044915990516 0.00044700873337 0.0004448756917 
0.0004427683661 0.00044068041392 0.00043861103255 0.00043655689175 0.00043451688471 0.00043248968095 0.00043047310253 0.00042846639723 0.00042646869704 
0.0004244784468 0.00042249659352 0.00042052301002 0.00041855844341 0.0004166043288 0.00041466080393 0.00041272795799 0.00041080914627 0.00040890420184 
0.00040701375606 0.00040513843494 0.00040327828145 0.00040143285564 0.00039960316487 0.0003977889255 0.00039598987969 0.00039420577263 0.0003924359504 