# vtk DataFile Version 5.1
vtk output
ASCII
DATASET STRUCTURED_POINTS
DIMENSIONS 50 50 50
SPACING 0.002 0.002 0.002
ORIGIN 0.1742 -0.052672 0.02732
POINT_DATA 125000
FIELD FieldData 1
potential 1 125000 double
0.0018267936211 0.0018438883311 0.0018612245711 0.0018787947643 0.0018960843528 0.0019141394935 0.0019324479164 0.0019510138251 0.0019698449062 
0.0019889429951 0.002008313016 0.0020279618126 0.0020478923201 0.0020681159988 0.002088637617 0.0021094634829 0.0021305968807 0.0021520422773 
0.0021738054057 0.0021958766432 0.0022182678567 0.0022409891588 0.0022639465244 0.002287310178 0.0023110052899 0.0023350321649 0.0023594086192 
0.0023842197364 0.002409332806 0.0024348369447 0.0024607910958 0.0024871275605 0.0025138989717 0.0025408520648 0.0025685245703 0.0025966523003 
0.0026252429047 0.0026542970452 0.0026838172349 0.0027138112326 0.0027442810001 0.0027752222513 0.0028066857935 0.0028386273468 0.0028710854922 
0.0029040825493 0.0029377781385 0.0029719239111 0.0030066692816 0.0030420456226 0.0018240987138 0.0018411264346 0.0018583871348 0.0018758856222 
0.0018931114476 0.0019110927314 0.0019293240273 0.0019478128938 0.0019665615529 0.0019855722484 0.0020048532558 0.0020244076794 0.0020442431806 
0.0020643643804 0.0020847799665 0.0021054966976 0.0021265157582 0.0021478424009 0.0021694841865 0.0021914379532 0.002213693185 0.0022362677556 
0.002259177042 0.0022823141243 0.0023058717522 0.0023297645854 0.0023540019907 0.0023785983392 0.0024036503956 0.0024290174883 0.0024548325524 
0.0024810275813 0.0025076535535 0.0025347238807 0.0025619782752 0.0025899487031 0.0026183738261 0.0026472555356 0.0026765953951 0.0027064014186 
0.0027366678306 0.0027674155164 0.0027986716533 0.0028303971298 0.0028626340209 0.002895403624 0.0029288690938 0.002962776693 0.0029972807733 
0.0030324094057 0.0018206137205 0.0018375707302 0.0018547579368 0.0018721824604 0.0018898478251 0.0019072280198 0.0019253865139 0.0019437907816 
0.00196245248 0.0019813762255 0.0020005622338 0.0020200193186 0.0020397517779 0.0020597667653 0.0020800691506 0.0021006657095 0.0021215602443 
0.0021427590721 0.0021642659803 0.0021860846819 0.0022082153111 0.0022306379811 0.0022533878827 0.0022764691057 0.0022997871751 0.0023235281812 
0.0023476177509 0.0023720678676 0.0023969785844 0.0024221980197 0.0024478652144 0.0024739079419 0.002500378684 0.0025272891329 0.0025543819544 
0.002582179513 0.0026104266292 0.0026391225395 0.0026682717624 0.0026978761292 0.0027279365483 0.0027584693174 0.0027895041934 0.0028210056491 
0.0028530092818 0.0028855442507 0.0029186283692 0.0029524292857 0.00298668204 0.0030215530399 0.0018161685549 0.0018330483834 0.0018501579963 
0.0018675019515 0.0018850859023 0.0019023825326 0.0019204481577 0.0019387626313 0.0019573373659 0.0019761637351 0.0019952483775 0.0020145997223 
0.0020342224334 0.0020541217772 0.0020743029688 0.0020947741781 0.0021155356006 0.0021365968943 0.0021579597834 0.0021796260528 0.0022016046838 
0.002223891051 0.0022464772201 0.0022693797605 0.0022926305413 0.0023161251946 0.0023400554277 0.0023643437789 0.0023890102161 0.0024141549108 
0.0024396176297 0.0024655427064 0.0024918490446 0.002518584905 0.0025457623083 0.0025731131929 0.0026011678887 0.002629664366 0.0026586053702 
0.0026879925356 0.0027178343698 0.0027481319774 0.0027789393531 0.0028101994212 0.002841958054 0.0028742430424 0.0029070713743 0.0029404676785 
0.0029746038459 0.0030092077606 0.0018106326924 0.0018274267863 0.0018444514666 0.0018617089315 0.0018792028626 0.0018969372845 0.0019143788368 
0.0019325949921 0.0019510636748 0.001969784825 0.0019887651026 0.0020080018817 0.0020275044899 0.0020472785787 0.0020673292073 0.0020876610106 
0.002108280219 0.0021291912862 0.0021503985547 0.0021719036474 0.0021937148858 0.0022158289314 0.0022382645519 0.0022609991104 0.002284059179 
0.0023073803327 0.0023311383598 0.0023552574848 0.0023797519804 0.0024047268938 0.0024300139343 0.0024557604967 0.0024818817131 0.0025084304941 
0.0025354136135 0.002562829188 0.0025904127903 0.0026186965352 0.0026474116153 0.0026765678133 0.0027061719636 0.0027362247853 0.0027667429616 
0.0027977851522 0.0028292815119 0.0028612991094 0.00289385629 0.0029269798252 0.0029606872664 0.0029951558567 0.0018039229379 0.0018206222685 
0.0018375513924 0.0018547116432 0.0018721079517 0.0018897406552 0.001907077885 0.0019251881913 0.0019435446484 0.0019621518481 0.001981007095 
0.0020001199373 0.0020194976379 0.0020391356397 0.0020590427884 0.0020792273962 0.002099689775 0.0021204364557 0.0021414755191 0.0021628080698 
0.0021844394938 0.0022063723143 0.0022286253919 0.002251191962 0.0022740704617 0.0022972773075 0.0023207641338 0.0023446960703 0.0023690034662 
0.0023936983942 0.0024188879045 0.0024444427744 0.0024703645893 0.0024967098818 0.0025234802086 0.0025506758876 0.0025780395136 0.0026060871217 
0.0026345620824 0.0026634694904 0.0026928162997 0.0027226125159 0.0027528608374 0.0027836289092 0.00281484582 0.002846579107 0.0028788478446 
0.0029116743189 0.0029450824929 0.0029792512125 0.0017960005569 0.0018125957278 0.0018294241551 0.0018464772338 0.0018637634473 0.0018812859366 
0.0018985102585 0.0019165020912 0.0019347373496 0.0019532168664 0.0019719420457 0.0019909191858 0.0020101498899 0.0020296419106 0.0020494011615 
0.0020694226461 0.0020897169743 0.0021102910805 0.0021311480079 0.0021522955753 0.0021737384536 0.0021954797985 0.0022175391022 0.0022399076658 
0.0022626004117 0.002285615006 0.002308969466 0.0023326189144 0.0023567253381 0.0023812160218 0.0024062001906 0.0024314953722 0.0024572532993 
0.0024833769517 0.002509918499 0.0025368818687 0.0025642618074 0.0025917996909 0.0026200158496 0.0026486579546 0.0026777294798 0.0027072441427 
0.002737206166 0.0027676735646 0.0027986014828 0.0028300319415 0.0028619928821 0.0028945058732 0.0029275979281 0.0029612831968 0.0017868998826 
0.0018033810696 0.0018200861356 0.0018370268438 0.0018541936464 0.0018715927503 0.0018892282101 0.0019065564138 0.0019246580922 0.001942999851 
0.0019615857375 0.0019804136112 0.0019994913732 0.0020188232456 0.0020384120947 0.0020582606559 0.0020783814234 0.0020987726396 0.0021194408554 
0.0021403934019 0.0021616346212 0.0021831742579 0.0022050261385 0.0022271866891 0.0022496704439 0.0022724906847 0.0022956360308 0.00231913609 
0.0023429440098 0.0023672168685 0.0023918825642 0.0024170530738 0.0024425784072 0.0024684629146 0.0024947647496 0.0025214733429 0.002548592609 
0.0025761246333 0.0026038058071 0.002632163768 0.0026609446736 0.0026901596066 0.0027198214719 0.0027499727726 0.0027805825966 0.0028116918639 
0.0028433260639 0.0028755076261 0.0029082629489 0.0029416078993 0.0017766937576 0.0017930482338 0.0018096274361 0.001826431769 0.0018434721976 
0.0018607393705 0.0018782380659 0.0018954267341 0.0019133842421 0.0019315771789 0.0019500090739 0.0019686782894 0.0019875925564 0.0020067533744 
0.0020261665932 0.0020458348551 0.0020657623701 0.0020859601421 0.0021064342141 0.0021271816173 0.0021482156983 0.0021695441554 0.0021911812632 
0.0022131243342 0.0022353870668 0.0022579823933 0.0022809254577 0.002304201628 0.0023277640926 0.0023518038931 0.0023762339201 0.0024010576316 
0.0024263912486 0.0024520792662 0.0024781158818 0.0025045559629 0.0025313995019 0.0025586468728 0.0025863014817 0.0026140969039 0.0026425695042 
0.0026714680607 0.0027008132842 0.0027306376849 0.0027609076084 0.0027916828086 0.0028229744065 0.0028548054114 0.0028872026621 0.0029201822332 
0.0017655068624 0.0017817242529 0.0017981634887 0.0018148292673 0.0018317217758 0.0018488451728 0.0018662021529 0.001883781956 0.001901040477 
0.0019190737738 0.0019373422116 0.0019558431744 0.0019745827183 0.0019935651797 0.0020127927485 0.0020322699082 0.0020520048608 0.0020720008059 
0.0020922639425 0.0021128025287 0.0021336224723 0.0021547375504 0.0021761532581 0.002197872066 0.0022199090388 0.0022422739728 0.0022649847795 
0.0022880405133 0.0023114438788 0.0023351434885 0.0023593210432 0.0023838896421 0.0024089636937 0.0024343873704 0.0024601475793 0.0024863047059 
0.0025128565004 0.0025398038641 0.0025671501234 0.0025946355237 0.0026227878769 0.0026513577569 0.0026803699472 0.0027098529476 0.0027397755551 
0.0027701961927 0.0028011270798 0.0028325928996 0.0028646185174 0.0028972188068 0.0017534970841 0.001769568569 0.0017858623833 0.001802377042 
0.0018191199888 0.0018360857117 0.0018532771238 0.0018707015095 0.0018877969618 0.0019056606312 0.0019237540048 0.001942076939 0.0019606353534 
0.0019794323957 0.0019984695012 0.0020177508338 0.0020372852567 0.0020570747805 0.0020771279176 0.0020974540457 0.0021180547923 0.0021389423637 
0.0021601314015 0.0021816255126 0.0022034272296 0.002225557402 0.0022480216275 0.0022708402279 0.0022940136051 0.0023175372444 0.0023413606023 
0.0023656624872 0.0023903516562 0.0024156065267 0.002441077994 0.0024669379328 0.0024931879628 0.0025198239059 0.0025468505915 0.0025742694967 
0.0026018321386 0.002630062951 0.0026587260084 0.0026878609814 0.0027174242213 0.0027474734795 0.0027780389223 0.0028091261947 0.0028407658764 
0.0028729738141 0.0017408564254 0.0017567742111 0.0017729108641 0.0017892664253 0.0018058473186 0.0018226499129 0.001839674225 0.0018569233054 
0.001874394603 0.001891535699 0.0019094474362 0.001927586831 0.0019459565931 0.0019645608091 0.001983401944 0.0020024837207 0.0020218133317 
0.0020413952674 0.0020612380979 0.0020813459606 0.002101728285 0.0021223898442 0.0021433533097 0.0021646086701 0.0021861748959 0.0022080646823 
0.0022302885028 0.0022528582005 0.0022757740613 0.0022990553181 0.0023226863459 0.0023466394707 0.0023710246938 0.0023959319122 0.0024211632498 
0.0024467169088 0.0024726507864 0.0024989655777 0.0025256642025 0.0025527500862 0.002580229454 0.002607856764 0.0026361656359 0.0026649408709 
0.0026941377818 0.0027238135629 0.0027539972122 0.0027846961776 0.0028159394723 0.0028477400321 0.0017277764772 0.0017435351588 0.001759509195 
0.0017757012284 0.0017921107806 0.0018087420364 0.0018255940036 0.0018426637311 0.0018599537969 0.0018769077085 0.0018946373715 0.0019125866112 
0.0019307634522 0.0019491723363 0.0019678137896 0.0019866941301 0.002005818556 0.0020251910862 0.0020448199161 0.00206471234 0.0020848738324 
0.0021053129052 0.002126049117 0.002147072661 0.002168401117 0.0021900463188 0.0022120201475 0.0022343309148 0.0022569978486 0.0022800119369 
0.0023033868692 0.0023271128031 0.0023511536719 0.0023756237071 0.0024006730234 0.0024259108962 0.0024515215984 0.0024775064136 0.0025038703199 
0.0025306163016 0.0025577488336 0.0025850266845 0.0026129801751 0.0026413572057 0.0026702169666 0.0026995160297 0.0027293067387 0.0027596193058 
0.0027904573867 0.0028218439866 0.0017144576664 0.001730052425 0.0017458583214 0.0017618792773 0.0017781167126 0.0017945699262 0.0018112399399 
0.001828128569 0.0018452316961 0.0018625537665 0.0018795324578 0.001897289397 0.0019152756632 0.0019334869514 0.0019519273826 0.0019706064692 
0.0019895254791 0.0020086902471 0.0020281068858 0.0020477856404 0.0020677284031 0.0020879472298 0.0021084500728 0.0021292482708 0.0021503419163 
0.0021717452999 0.0021934705634 0.0022155262156 0.0022379271833 0.0022606714442 0.0022837735389 0.002307236686 0.002331033635 0.0023551470426 
0.0023797377528 0.0024047850131 0.0024300695117 0.0024557223253 0.0024817471096 0.0025081476559 0.002534932128 0.0025621140694 0.0025894530469 
0.0026174667514 0.0026459552843 0.0026748749049 0.0027042815245 0.0027341887967 0.0027646259181 0.0027955953394 0.0017010821822 0.0017165085449 
0.0017321440701 0.0017479930126 0.0017640529917 0.001780324446 0.001796811001 0.0018135127401 0.0018304293672 0.0018475596917 0.001864348515 
0.0018819093516 0.0018996963026 0.0019177132903 0.0019359546832 0.001954433326 0.0019731485879 0.0019921079599 0.0020113165051 0.0020307831399 
0.0020505099076 0.0020705114324 0.0020907897976 0.0021113587712 0.002132217 0.0021533826373 0.0021748613675 0.0021966647941 0.0022187995876 
0.0022412828487 0.0022641002199 0.002287270165 0.0023107949948 0.0023346535896 0.0023588181722 0.0023836081952 0.002408546807 0.0024338661977 
0.0024595505713 0.002485607116 0.0025120426288 0.0025388699102 0.0025661099424 0.0025935061368 0.0026216220702 0.0026501697756 0.0026791892242 
0.0027087014809 0.0027387337058 0.0027692815181 0.0016878132076 0.0017030705041 0.0017185337862 0.001734207604 0.0017500886892 0.0017661800753 
0.0017824817095 0.001798995669 0.0018157214534 0.001832662837 0.0018498194971 0.0018666276115 0.0018842191333 0.0019020355169 0.0019200804547 
0.0019383641322 0.0019568789764 0.0019756352494 0.0019946394898 0.0020138956823 0.0020334126293 0.0020531970597 0.0020732568768 0.0020936006357 
0.00211422876 0.0021351591035 0.0021563945525 0.0021779460894 0.0021998220488 0.0022220318173 0.0022445742076 0.0022674545256 0.0022906836172 
0.0023142602079 0.0023380888615 0.0023624248604 0.0023871914648 0.0024121612394 0.0024375089525 0.0024632240315 0.0024893146912 0.002515790938 
0.0025426748317 0.0025699663042 0.0025974642932 0.0026256391985 0.0026542765541 0.0026833970588 0.0027130200086 0.0027431581208 0.0016747877938 
0.0016898764673 0.0017051674636 0.0017206662614 0.0017363694026 0.0017522796907 0.0017683975525 0.0017847250031 0.0018012636093 0.0018180152371 
0.0018349825602 0.0018516012616 0.0018689981406 0.0018866205695 0.001904472242 0.0019225528703 0.0019408708631 0.0019594320403 0.0019782345113 
0.0019972875922 0.0020165968064 0.0020361690307 0.0020560153792 0.0020761390805 0.0020965422917 0.0021172361288 0.002138231487 0.002159534159 
0.0021811545346 0.0022030983886 0.002225364852 0.0022479604588 0.0022708931134 0.0022941657357 0.002317779437 0.0023416432619 0.0023661546725 
0.0023908125948 0.0024158081345 0.0024411868609 0.0024669403051 0.0024930701087 0.0025196044688 0.0025465423679 0.002573935838 0.00260148702 
0.002629747501 0.0026584815027 0.0026877042817 0.0027174228615 0.0016621126279 0.0016770343945 0.0016921572334 0.0017074842487 0.0017230116415 
0.0017387417186 0.0017546791321 0.0017708224432 0.00178717503 0.0018037391803 0.0018205172078 0.0018375132671 0.0018541595693 0.0018715906906 
0.0018892488259 0.0019071382594 0.0019252632515 0.0019436261765 0.0019622350155 0.0019810884027 0.0020001945526 0.0020195599041 0.0020391930497 
0.0020590991879 0.0020792797829 0.0020997472064 0.0021205046485 0.0021415659913 0.0021629290134 0.0021846060792 0.0022066062396 0.0022289247741 
0.0022515665291 0.0022745399862 0.0022978480309 0.0023214934267 0.002345454664 0.002369934363 0.0023946218036 0.0024196689892 0.0024450665053 
0.0024708622836 0.0024970518079 0.0025236416019 0.0025506841272 0.0025778743334 0.0026057620285 0.0026341152383 0.0026629358827 0.0026922499802 
0.0016498711317 0.0016646300964 0.0016795838357 0.0016947403874 0.0017100963076 0.0017256528964 0.0017414126286 0.0017573764351 0.0017735469175 
0.0017899276598 0.001806521239 0.0018233319424 0.0018397965667 0.0018570443341 0.0018745171731 0.0018922167729 0.0019101516865 0.001928323344 
0.0019467336191 0.001965389953 0.0019843021894 0.0020034629257 0.0020228892452 0.0020425827716 0.0020625448347 0.0020827854983 0.0021033140327 
0.0021241312592 0.0021452462177 0.002166666055 0.0021884002209 0.0022104407177 0.0022328035897 0.002255484879 0.0022784942044 0.0023018336874 
0.0023255092246 0.0023495050886 0.0023740209153 0.0023987451231 0.0024238355124 0.0024492808758 0.0024751357738 0.0025013872189 0.0025280502333 
0.0025551657519 0.0025824409019 0.0026104186945 0.0026388538694 0.0026677678051 0.0016381089675 0.0016527094071 0.0016675063784 0.0016824989799 
0.0016976874247 0.001713077764 0.0017286637165 0.0017444538333 0.0017604438862 0.0017766472147 0.0017930638423 0.0018096954504 0.0018265469501 
0.0018430484809 0.0018603365788 0.0018778534812 0.0018956023647 0.0019135857593 0.0019318079522 0.0019502716486 0.0019689833521 0.0019879442564 
0.0020071685026 0.0020266541771 0.0020464011331 0.0020664219048 0.0020867198876 0.0021073015995 0.0021281734454 0.0021493413254 0.0021708091083 
0.002192588571 0.0022146740542 0.0022370728716 0.0022597896327 0.0022828324261 0.002306206119 0.0023299850169 0.0023541048493 0.0023785136583 
0.0024032847673 0.0024284260288 0.0024539384387 0.0024798526613 0.0025061749809 0.0025329427086 0.0025601096525 0.0025874662825 0.0026155306311 
0.0026440514662 0.0016268747795 0.0016413207789 0.0016559614746 0.0016707944632 0.0016858224601 0.0017010456317 0.0017164662507 0.0017320863749 
0.0017479115172 0.0017639472861 0.0017801895683 0.0017966464075 0.0018133223989 0.0018296500896 0.0018467620784 0.0018640971087 0.0018816619088 
0.0018994614513 0.001917495873 0.0019357705449 0.001954289894 0.001973053568 0.0019920734465 0.0020113570106 0.0020308921644 0.0020506976216 
0.0020707692466 0.0020911193457 0.0021117532528 0.0021326759419 0.0021538906276 0.0021754100417 0.0021972241913 0.0022193485308 0.0022417846954 
0.0022645387933 0.0022876178625 0.0023111003052 0.002334853524 0.0023590540716 0.0023834841745 0.0024083116759 0.002433522814 0.0024591106813 
0.0024850808239 0.0025115089126 0.0025383270444 0.0025655734872 0.002593019556 0.0026211600959 0.0016155266882 0.0016304836479 0.001644974462 
0.0016596535484 0.0016745259365 0.0016895912637 0.0017048497321 0.0017203087744 0.0017359699282 0.0017518372628 0.0017679131358 0.0017842018138 
0.0018007063402 0.0018174326258 0.0018338015624 0.0018509650193 0.0018683547546 0.0018859737163 0.0019038259835 0.0019219150356 0.0019402437268 
0.0019588144564 0.0019776351671 0.0019967127911 0.0020160420087 0.0020356356013 0.0020554869034 0.0020756128108 0.0020960108938 0.0021166939807 
0.0021376636708 0.0021589219086 0.0021804826909 0.0022023375729 0.0022245026081 0.0022469756254 0.0022697718607 0.0022928924764 0.0023164272946 
0.002340230004 0.0023644925886 0.0023889818587 0.0024138801065 0.0024391533293 0.0024648153763 0.0024908889804 0.0025173630978 0.0025442626949 
0.0025715905283 0.0025991163714 0.0016053952517 0.0016202052042 0.0016345519791 0.0016490834915 0.0016638056159 0.0016787176958 0.0016938251889 
0.0017091286862 0.001724631669 0.0017403389803 0.0017562530287 0.0017723780497 0.0017887175268 0.0018052753565 0.0018214794225 0.0018384678413 
0.0018556825991 0.0018731244407 0.0018907988629 0.0019087032608 0.0019268453523 0.0019452268997 0.0019638571235 0.0019827290639 0.0020018606026 
0.0020212408281 0.0020408795029 0.0020607876374 0.0020809614702 0.0021014105253 0.0021221399066 0.0021431524935 0.0021644601662 0.0021860558671 
0.002207955939 0.0022301615275 0.0022526810524 0.0022755234649 0.0022987730905 0.0023222879635 0.0023463146389 0.0023704825167 0.0023950440591 
0.0024200059183 0.0024453494563 0.0024711209605 0.0024972588113 0.0025237948369 0.0025507717505 0.0025779354485 0.0015958174631 0.0016104887454 
0.0016246959369 0.0016390852575 0.001653663986 0.0016684314609 0.0016833901689 0.0016985438133 0.001713895948 0.0017294494636 0.0017452070022 
0.0017611738933 0.0017773530046 0.0017937473788 0.0018103599317 0.0018266104446 0.0018436556006 0.0018609254309 0.0018784223242 0.0018961478693 
0.001914107349 0.0019323022031 0.0019507369935 0.001969417277 0.0019883475433 0.00200752047 0.0020269506884 0.0020466392118 0.0020665933315 
0.0020868194564 0.0021073131948 0.0021280910802 0.0021491489594 0.0021704986254 0.0021921424442 0.0022140860077 0.0022363424361 0.0022589124624 
0.0022818124659 0.0023051229553 0.0023286979866 0.0023527976988 0.0023770424714 0.002401669499 0.0024267074451 0.0024521483482 0.002477966507 
0.0025041884901 0.0025308039318 0.0025578559949 0.0015867921238 0.0016006735693 0.0016154015498 0.0016296569179 0.0016440984696 0.0016587253033 
0.0016735420717 0.0016885518479 0.0017037569777 0.0017191626305 0.001734769967 0.001750582907 0.0017666068648 0.0017828423578 0.001799292515 
0.0018153843707 0.0018322635449 0.0018493638983 0.0018666887366 0.0018842381389 0.0019020194371 0.0019200306136 0.0019382817807 0.001956767987 
0.0019755007484 0.0019944775755 0.0020137047171 0.0020331810728 0.0020529182917 0.0020729186653 0.0020931870299 0.0021137309888 0.0021345517049 
0.0021556599443 0.0021770555589 0.0021987476435 0.0022207454561 0.0022430547496 0.0022656859779 0.0022887242784 0.0023120255117 0.0023356696926 
0.0023598542694 0.0023841697095 0.0024088664609 0.0024339774448 0.0024595050714 0.0024853988927 0.0025116993783 0.0025384071853 0.0015783133373 
0.0015920702499 0.0016066661075 0.0016207908996 0.0016351003518 0.0016495921342 0.0016642722433 0.0016791438155 0.0016942075718 0.001709468908 
0.0017249301421 0.001740595142 0.0017564673328 0.0017725485982 0.0017888436699 0.0018053519206 0.0018214971091 0.0018384328355 0.0018555874346 
0.0018729671808 0.0018905718018 0.0019084055592 0.0019264740176 0.0019447750495 0.0019633167497 0.0019820989403 0.0020011240706 0.0020203986036 
0.0020399250317 0.0020597077813 0.0020797564021 0.0021000749394 0.0021206654407 0.0021415383565 0.0021626996943 0.0021841489382 0.002205893854 
0.0022279529592 0.0022503253707 0.0022730192429 0.0022961294807 0.0023195003813 0.0023434007871 0.0023674802199 0.0023918690797 0.0024166471024 
0.0024418635118 0.0024674395557 0.0024934131571 0.0025197858062 0.001570370038 0.0015840078415 0.0015984762841 0.0016124763101 0.0016266591093 
0.0016410236075 0.0016555724511 0.0016703097484 0.001685238006 0.0017003608897 0.0017156806246 0.0017312018871 0.0017469279255 0.001762860598 
0.0017790034813 0.0017953561815 0.001811348438 0.0018281229317 0.0018451135834 0.0018623266834 0.0018797612522 0.001897423441 0.0019153111903 
0.0019334302159 0.0019517864857 0.0019703761549 0.0019892090798 0.002008283084 0.0020276041841 0.0020471801588 0.0020670151956 0.0020871112544 
0.002107478099 0.0021281198856 0.0021490433378 0.0021702664988 0.0021917721924 0.0022135801814 0.0022357052061 0.0022581454028 0.0022809937214 
0.0023040972795 0.0023275468356 0.0023515200161 0.0023756760134 0.0024001503156 0.0024250661164 0.0024502981998 0.0024759540325 0.0025020020576 
0.001562960028 0.001576482071 0.0015901763656 0.0016047093905 0.0016187700511 0.0016330092875 0.0016474328597 0.0016620408409 0.0016768371116 
0.0016918253393 0.0017070086545 0.001722390561 0.0017379749222 0.0017537618163 0.0017697558903 0.0017859584333 0.0018023719087 0.0018184194707 
0.0018352516879 0.0018523028753 0.0018695704435 0.0018870662847 0.001904779998 0.0019227214236 0.0019408953918 0.0019592992781 0.0019779426249 
0.0019968237711 0.002015947817 0.0020353204776 0.0020549456203 0.0020748319395 0.0020949836037 0.0021154038552 0.0021361023039 0.0021570933165 
0.0021783650429 0.0021999412994 0.0022218197387 0.0022440149307 0.0022665293548 0.002289455086 0.0023126406759 0.0023361588208 0.0023602210588 
0.002384453669 0.0024090352003 0.0024340033953 0.0024593104468 0.0024850434776 0.0015560783153 0.0015694894092 0.0015830708292 0.0015974822011 
0.0016114242443 0.0016255453039 0.001639846133 0.0016543289797 0.0016689979167 0.0016838559383 0.001698907462 0.0017141547734 0.0017295992126 
0.0017452461037 0.0017610956705 0.0017771520836 0.0017934166056 0.0018098916021 0.0018259955874 0.001842888069 0.0018599978213 0.0018773266935 
0.0018948729462 0.001912643772 0.0019306379275 0.0019488669235 0.0019673233972 0.0019860181826 0.002004949697 0.002024124305 0.0020435490441 
0.0020632290982 0.0020831718513 0.0021033802736 0.0021238612151 0.0021446252627 0.0021656766493 0.0021870204173 0.0022086629973 0.0022306214479 
0.0022528906473 0.0022755670312 0.0022984904584 0.0023217494436 0.0023453554063 0.002369500243 0.0023938132008 0.0024184737051 0.0024435181962 
0.0024689050913 0.0015497212288 0.0015630234831 0.0015764967916 0.0015907907286 0.0016046182208 0.0016186225965 0.0016328052703 0.0016471680428 
0.0016617140749 0.0016764454225 0.0016913665828 0.0017064824899 0.0017217935164 0.0017373029033 0.0017530149724 0.0017689297786 0.001785049379 
0.001801377509 0.0018173348861 0.0018340781197 0.0018510309853 0.0018682014452 0.00188558674 0.0019031915222 0.0019210180559 0.0019390712738 
0.0019573487395 0.0019758616857 0.0019946049406 0.0020135909958 0.0020328197228 0.0020523007073 0.0020720404741 0.0020920412987 0.0021123128193 
0.0021328621068 0.0021536977329 0.002174819822 0.0021962386165 0.0022179587563 0.0022399894795 0.0022623433726 0.002285103863 0.0023081073019 
0.002331446741 0.0023553263873 0.0023793621097 0.0024037786769 0.002428496175 0.0024536200798 0.0015438832413 0.0015570827364 0.0015704492367 
0.0015839839087 0.0015983468321 0.0016122375505 0.0016263049413 0.0016405509204 0.0016549766936 0.0016695857386 0.001684382173 0.0016993696226 
0.0017145495573 0.0017299271972 0.0017455025782 0.0017612820191 0.0017772616362 0.0017934476699 0.0018098395261 0.0018258629436 0.0018426673672 
0.0018596856025 0.0018769143734 0.0018943584569 0.0019120215997 0.0019299072124 0.0019480143385 0.0019663460723 0.0019849115935 0.0020037117211 
0.0020227526388 0.0020420422772 0.0020615830303 0.0020813855495 0.0021014546209 0.0021217974112 0.0021424190812 0.0021633301865 0.0021845305995 
0.0022060301888 0.0022278304631 0.0022499404311 0.0022724658115 0.0022952244962 0.0023183097109 0.0023417308775 0.0023656942584 0.0023898358886 
0.0024143082652 0.0024391048167 0.0015385622214 0.0015516603167 0.0015649250473 0.0015783536506 0.0015926044185 0.0016063852638 0.0016203398829 
0.0016344714378 0.0016487807354 0.0016632707579 0.0016779441974 0.0016928086121 0.001707861912 0.0017231095665 0.001738554925 0.0017541996246 
0.0017700458599 0.0017860950934 0.0018023524021 0.0018182375731 0.001834899193 0.0018517682473 0.0018688476503 0.0018861391602 0.0019036445874 
0.00192136922 0.001939308495 0.0019574709576 0.0019758624853 0.0019944830624 0.0020133434181 0.0020324467497 0.0020518013012 0.0020714105044 
0.0020912844512 0.002111429462 0.0021318485563 0.0021525554859 0.0021735439898 0.0021948261392 0.0022164095743 0.0022382891462 0.0022604913915 
0.0022830961143 0.0023059388836 0.0023291083249 0.0023526112896 0.0023766836439 0.0024008784841 0.0024254296409 0.0015337498679 0.0015467503211 
0.0015599154962 0.001573242244 0.001586840471 0.0016010573307 0.0016149036066 0.0016289207859 0.0016431157484 0.0016574899724 0.0016720476824 
0.0016867889999 0.0017017193106 0.0017168412083 0.0017321589219 0.0017476760429 0.0017633915644 0.0017793093148 0.0017954352742 0.0018117627202 
0.0018277148527 0.0018444468622 0.0018613825831 0.0018785263426 0.0018958805501 0.0019134484302 0.001931229112 0.001949228216 0.0019674490518 
0.0019859008 0.0020045860593 0.0020235100132 0.0020426830426 0.0020621090397 0.0020817951897 0.0021017477026 0.002121975918 0.0021424799851 
0.0021632716232 0.0021843454503 0.0022057166339 0.0022273775782 0.002249352836 0.0022717236121 0.0022943249622 0.0023172484848 0.0023404965937 
0.0023642845737 0.0023882359816 0.0024125152634 0.0015294360914 0.001542342964 0.0015554098681 0.0015686389887 0.0015820307047 0.0015962386203 
0.0016099783719 0.0016238862354 0.0016379704785 0.0016522311698 0.0016666728736 0.0016812976989 0.0016961080586 0.0017111103791 0.001726304852 
0.001741697863 0.001757290459 0.0017730865089 0.0017890815063 0.0018052800263 0.0018211065969 0.0018377054963 0.0018545027071 0.0018715058362 
0.0018887143591 0.0019061351135 0.0019237621054 0.0019416029204 0.0019596623717 0.0019779491365 0.0019964652231 0.0020152187594 0.0020342169657 
0.0020534675931 0.0020729736819 0.0020927457824 0.0021127878648 0.0021331036848 0.0021537005192 0.0021745761109 0.0021957358703 0.0022171903779 
0.0022389469158 0.0022610022411 0.0022834609682 0.0023061429109 0.002329146451 0.0023524749758 0.0023763714729 0.0024003839794 0.0015256063094 
0.0015384215206 0.0015513914461 0.0015645223871 0.0015778151706 0.0015919151146 0.0016055483371 0.0016193529006 0.0016333268682 0.0016474773408 
0.0016618065847 0.0016763173391 0.0016910124896 0.0017058954011 0.0017209720073 0.0017362462966 0.0017517219103 0.001767395548 0.0017832687381 
0.0017993443059 0.0018156206709 0.0018315223679 0.0018481900458 0.0018650576004 0.0018821287669 0.0018994027513 0.0019168849996 0.0019345759529 
0.0019524800545 0.0019706070324 0.0019889629851 0.002007552369 0.0020263856648 0.0020454676214 0.0020648042012 0.002084401391 0.0021042672271 
0.0021244017086 0.0021448099072 0.0021654971972 0.0021864570262 0.0022077086622 0.0022292557637 0.0022510944725 0.0022732335199 0.0022957716767 
0.0023185328012 0.0023416169916 0.0023650523481 0.0023890135364 0.001522227318 0.0015349545726 0.00154783348 0.0015608691663 0.0015740652074 
0.0015874221272 0.0016015903339 0.0016152878431 0.0016291567919 0.0016431998927 0.0016574187638 0.0016718175602 0.0016864009346 0.0017011717289 
0.001716134242 0.0017312919345 0.0017466524752 0.0017622105272 0.0017779668429 0.0017939260954 0.0018100823819 0.0018264393782 0.0018424100485 
0.0018591499316 0.0018760885033 0.0018932260186 0.0019105672925 0.0019281137842 0.0019458703099 0.0019638429617 0.0019820447074 0.0020004796374 
0.0020191539561 0.0020380746123 0.0020572500301 0.0020766827253 0.0020963790703 0.0021163398454 0.0021365714198 0.0021570691873 0.0021778444795 
0.0021988999136 0.0022202444035 0.0022418700049 0.0022637893208 0.0022861018426 0.0023086298924 0.0023314730236 0.0023546622458 0.0023781603018 
0.0015192620229 0.0015319024143 0.0015446927904 0.0015576370628 0.001570736969 0.0015839965568 0.0015980586542 0.0016116544576 0.0016254191773 
0.001639355342 0.0016534677169 0.0016677595816 0.0016822319109 0.0016968940786 0.0017117453577 0.001726794688 0.0017420412152 0.0017574882977 
0.0017731334624 0.0017889782802 0.0018050203776 0.0018212593727 0.0018371170278 0.0018537348982 0.00187054657 0.001887554154 0.001904760867 
0.0019221682782 0.0019397837106 0.0019576131394 0.0019756638568 0.0019939479315 0.0020124738655 0.0020312436095 0.0020502630738 0.002069538861 
0.0020890733209 0.002108870737 0.0021289312263 0.0021492509309 0.0021698479877 0.0021907138941 0.0022118605225 0.0022332810439 0.002254989449 
0.0022769861313 0.0022993812969 0.002321990593 0.0023449162542 0.0023681930596 0.0015166507693 0.0015292058346 0.0015419097374 0.0015547659122 