# vtk DataFile Version 5.1
vtk output
ASCII
DATASET STRUCTURED_POINTS
DIMENSIONS 50 50 50
SPACING 0.002 0.002 0.002
ORIGIN 0.1742 -0.052672 0.02732
POINT_DATA 125000
FIELD FieldData 1
potential 1 125000 double
<<<<<<< HEAD
0.02074012346 0.021145985538 0.02155621773 0.021970220568 0.022388063767 0.022809096933 0.023232923641 0.02365895913 0.024086635203 
0.024516017814 0.024946069915 0.025376286229 0.025806106212 0.02623507689 0.0266620856 0.027086828019 0.027508502884 0.02792632072 
0.028339949814 0.02874807469 0.029150005363 0.029545148321 0.029932653802 0.030311989597 0.030682108421 0.031042633832 0.031392649021 
0.031731766342 0.032059400102 0.03237503913 0.032678166986 0.032968299338 0.033244939491 0.033507587923 0.03375587834 0.033989064168 
0.034206816027 0.034408630628 0.034594112464 0.03476272399 0.0349142357 0.035048335231 0.035164824676 0.035263525432 0.035344346303 
0.035407202635 0.035452063663 0.035478917095 0.035487718784 0.035478472721 0.020187897473 0.020573778226 0.020963487665 0.021356692318 
0.021752914262 0.022152110355 0.022553618669 0.022957063843 0.023361870883 0.023767690454 0.024173704561 0.024579880262 0.024985481754 
0.025389792132 0.025792437228 0.02619222007 0.026589113553 0.026982338924 0.027370907515 0.027754630095 0.028132217574 0.028503102837 
0.028866745527 0.029222309491 0.029569508726 0.029907425188 0.030235436463 0.030553293659 0.030860216094 0.031155863661 0.031439768558 
0.031711505194 0.031970593497 0.032216615006 0.032449073599 0.032667614316 0.032871728967 0.033060839612 0.033234623422 0.033392693888 
0.033534731732 0.033660465506 0.033769708352 0.033862268527 0.033938107489 0.033997135931 0.034039322974 0.034064645482 0.034073094251 
0.034064699346 0.019651492366 0.020018590542 0.020389155132 0.020762719078 0.021139011164 0.021517725445 0.021898270326 0.022280494287 
0.022663856835 0.023047871139 0.023431903835 0.023815457848 0.024198380846 0.024579925602 0.024959525393 0.025336769627 0.025710407508 
0.026080483739 0.026446168798 0.026806802174 0.027161892932 0.027510488392 0.027851922405 0.028185694408 0.028511352637 0.028828407514 
0.02913603533 0.029433952373 0.029721760023 0.029998914992 0.030265182712 0.030519897861 0.03076276592 0.030993390627 0.03121142677 
0.031416308256 0.031607707883 0.031785098343 0.031948174724 0.032096507667 0.032229825263 0.032347893442 0.032450478293 0.032537458928 
0.03260873637 0.032664266494 0.032704011636 0.03272796984 0.032736121855 0.03272866784 0.01912811012 0.019477517993 0.019829902496 
0.020185054166 0.020542502586 0.020901966581 0.021263131617 0.02162535472 0.021988581089 0.02235216679 0.022715607815 0.023078445678 
0.023440296306 0.023800335868 0.024158581557 0.024514229729 0.024866777234 0.025215195668 0.025559493958 0.025898910454 0.026232751581 
0.026560342285 0.026881428774 0.02719493413 0.027500742848 0.02779823667 0.028087084444 0.028366623181 0.028636576635 0.028896545504 
0.029146210602 0.029385143141 0.029613271873 0.029829640813 0.030034190794 0.030226457523 0.030406133882 0.030572683622 0.030725780612 
0.030865132262 0.030990464901 0.031101443064 0.031197916921 0.031279748546 0.031346858271 0.031399320572 0.031436842222 0.03145956842 
0.031467479314 0.031460591613 0.018614953416 0.018947765453 0.019283060326 0.019620717476 0.019960477809 0.020301851766 0.020644642679 
0.020988349231 0.021332495688 0.021676914642 0.022021035523 0.022364371828 0.022706511747 0.023046858453 0.023385124529 0.023720732222 
0.024052904759 0.024381545552 0.024705760813 0.025025256099 0.025339383842 0.025647602999 0.025949328793 0.026244109274 0.026531392525 
0.026810766371 0.027081906468 0.027344461919 0.027597886058 0.027842023309 0.028076374588 0.02830065775 0.028514578126 0.028717698001 
0.028909738814 0.029090528705 0.029259298974 0.029415868264 0.029559801015 0.029690846328 0.029808716451 0.029913158844 0.030003992375 
0.030081137296 0.030144401491 0.030193798261 0.030229295927 0.030250915497 0.030258608785 0.030252407671 0.018110578464 0.018427248589 
0.018746499618 0.019067640288 0.019390553226 0.019714850471 0.020040322163 0.020366480273 0.020692924502 0.021019316673 0.021345069163 
0.021670037998 0.021993665044 0.022315478357 0.022634994395 0.022951732682 0.023265353365 0.023575258219 0.023880694579 0.024181504714 
0.024477203111 0.024767180757 0.025051022666 0.025328181587 0.025598229882 0.025860705239 0.026115499817 0.026362032247 0.026600137667 
0.026829346634 0.02704941508 0.027260087456 0.027461012931 0.027651895417 0.027832344166 0.028002063752 0.028160699318 0.028307862778 
0.028443310592 0.028566720732 0.028677790341 0.028776178664 0.028861784851 0.028934479061 0.028994190843 0.029040864394 0.029074465753 
0.0290950577 0.029102547074 0.029096988203 0.017613297899 0.017914854584 0.018218526196 0.018523995516 0.018831112947 0.019139262597 
0.019448247914 0.019757796654 0.020067448721 0.020376804179 0.020685493782 0.020993028268 0.021299191761 0.021603474667 0.021905443116 
0.02220457445 0.02250051069 0.022792745246 0.023080921541 0.023364457798 0.023642788813 0.023915548493 0.024182717203 0.024443400711 
0.024697344451 0.02494415136 0.025183475061 0.025415165666 0.025638776807 0.025854164062 0.026060949363 0.02625886529 0.026447704382 
0.026627107567 0.026796738844 0.026956336872 0.027105552476 0.027244042713 0.027371512643 0.027487704648 0.027592261549 0.027684984375 
0.027765700825 0.02783430891 0.02789078158 0.027934939448 0.02796676933 0.027986311014 0.027993601035 0.027988624747 0.017122538157 
0.017409684212 0.01769861725 0.017989172752 0.01828097406 0.018573888524 0.018867300445 0.019161037382 0.019454742456 0.019748047238 
0.020040513822 0.020331766698 0.020621461128 0.020909116361 0.021194476594 0.021477031546 0.021756369517 0.022032228302 0.022303901903 
0.022571039797 0.022833412281 0.023090304604 0.023341620565 0.023586916224 0.02382578718 0.024057743216 0.024282854792 0.024500722621 
0.024710754796 0.024913189615 0.025107493803 0.025293590448 0.025471101602 0.025639771827 0.02579932672 0.025949456375 0.026089859775 
0.026220235487 0.026340266724 0.026449697439 0.026548281272 0.026635725329 0.02671188529 0.026776638185 0.026829892653 0.026871617202 
0.026901789649 0.026920371436 0.026927287632 0.026922920374 0.016638096053 0.016911522506 0.017186518665 0.017462765968 0.017740151268 
0.018018301839 0.018296909237 0.018575803142 0.018854346289 0.01913234903 0.019409424898 0.019685247354 0.019959381175 0.020231486996 
0.020501211494 0.02076806053 0.021031754388 0.021291924388 0.021548208884 0.021800084658 0.022047242459 0.022289349185 0.022525773669 
0.022756644975 0.022981434704 0.023199820671 0.023411510426 0.023616333603 0.023813997921 0.024004392271 0.024187078033 0.024362059556 
0.024528939453 0.024687442879 0.024837536092 0.024978805047 0.025110966295 0.025233729494 0.025346812592 0.025449910193 0.025542814849 
0.025625221536 0.025697067354 0.025758173728 0.025808454739 0.025847878527 0.025876436504 0.025894122611 0.025900972296 0.025896994249 
0.016160407286 0.016420641855 0.016682236061 0.016944979025 0.01720852241 0.017472749781 0.017737271826 0.01800174239 0.018266027981 
0.018529582162 0.018792088594 0.019053186734 0.019312591318 0.019569984811 0.019824901345 0.020077014543 0.020326043623 0.020571496271 
0.020813185773 0.021050731525 0.021283706561 0.021511819655 0.021734705168 0.021952181653 0.022163619884 0.022369138633 0.022568367135 
0.022761053291 0.022947009917 0.023126055956 0.02329800989 0.023462614469 0.023619666046 0.023768795448 0.023910034666 0.024043003927 
0.024167418968 0.024282796429 0.024389309285 0.024486466311 0.024574036805 0.024651781583 0.02471957793 0.024777232117 0.024824707652 
0.024861947246 0.024888963941 0.024905750878 0.024912378795 0.024908798118 0.015690419139 0.01593803482 0.016186847805 0.016436612121 
0.016687111299 0.016937939743 0.017189003348 0.017439933773 0.01769040644 0.017940116698 0.018188875212 0.018436071335 0.018681538816 
0.018924938056 0.019165931586 0.01940419786 0.019639411652 0.019871193459 0.020099204659 0.020323252326 0.020542910973 0.020757895726 
0.02096791833 0.021172716895 0.02137199473 0.021565508299 0.021753079294 0.02193440674 0.022109448575 0.022277938903 0.022439720274 
0.022594618065 0.022742425736 0.022882906962 0.023015856136 0.02314093907 0.023257993952 0.023366850923 0.023467194041 0.023558738868 
0.023641286452 0.023714609435 0.023778255917 0.023832647355 0.023877427474 0.023912592128 0.023938140056 0.02395405693 0.023960392228 
0.023957193259 0.015229281525 0.015464829716 0.015701400747 0.015938764652 0.016176709555 0.016414941923 0.016653114597 0.01689113368 
0.017128592748 0.017365210916 0.01760068033 0.017834725854 0.018067088067 0.018297306842 0.018525145734 0.018750288116 0.018972426512 
0.019191355514 0.019406625695 0.019617948302 0.019825173305 0.020027902849 0.02022590162 0.020418907362 0.020606708872 0.020789063933 
0.020965574308 0.021136561941 0.021301355736 0.021460002465 0.021612315763 0.021758122657 0.021897233654 0.022029402051 0.022154650551 
0.022272495997 0.022382804212 0.022485197372 0.022579691599 0.022665839532 0.022743590418 0.022812686063 0.022872941349 0.022924258618 
0.022966502904 0.022999660444 0.023023781097 0.023038855835 0.023044910233 0.023041974345 0.014778217034 0.0150022458 0.015227132546 
0.015452667473 0.015678622025 0.015904778914 0.016130852864 0.016356473354 0.016581549861 0.016805732562 0.017028744776 0.017250302178 
0.017470104035 0.017687873694 0.01790338097 0.018116190997 0.018326102675 0.018532830542 0.018736145291 0.018935681758 0.019131151662 
0.019322454552 0.019509238764 0.019691257844 0.019868332393 0.020040216252 0.020206762979 0.020367776467 0.020522894258 0.020672508797 
0.020815978863 0.020953299288 0.021084316211 0.021208836419 0.021326685353 0.02143756011 0.021541498864 0.021638023711 0.021726861625 
0.021808092353 0.021881315813 0.02194637413 0.022003159541 0.022051393231 0.022091214005 0.022122504126 0.0221452291 0.022159443079 
0.022165202637 0.022162518919 0.014338563351 0.014551588051 0.014765324313 0.014979566817 0.015194125421 0.015408759275 0.015623220359 
0.015837260232 0.016050502205 0.016262892202 0.016474087292 0.016683835039 0.016891843349 0.017097876479 0.017301619846 0.017502834343 
0.01770130367 0.017896651173 0.018088654278 0.01827717915 0.01846180539 0.018642328137 0.018818647594 0.01899041184 0.019157467714 
0.019319593703 0.019476714768 0.019628517021 0.019774965101 0.019915849508 0.020050916581 0.020180341304 0.020303941469 0.020421229067 
0.02053220065 0.020636682188 0.020734387709 0.020825258139 0.02090903588 0.020985551589 0.021054302636 0.021115570609 0.021168986139 
0.021214509678 0.021251999953 0.021281467014 0.02130289948 0.021316296908 0.021321746362 0.021319193543 0.013911493693 0.014114030177 
0.014317153624 0.014520676801 0.014724383536 0.014928062973 0.015131496261 0.015334439599 0.015536651697 0.015737771213 0.015937799159 
0.016136361224 0.016333257801 0.016528212849 0.016720963799 0.016911297675 0.017098907003 0.017283592109 0.017465103506 0.017643165739 
0.017817586752 0.017988246533 0.018154677376 0.018316926851 0.018474641752 0.018627717338 0.018775951158 0.018919205408 0.019057370348 
0.019190297594 0.019317883603 0.019439733817 0.019556086272 0.019666600889 0.019771303453 0.019869705454 0.019961764758 0.020047334097 
0.020126109463 0.02019807371 0.020262958746 0.020320666239 0.020370757009 0.020413582153 0.020448879307 0.020476640522 0.020496842829 
0.020509503565 0.020514662373 0.020512324079 0.01349804846 0.013690615493 0.013883643158 0.014076960866 0.014270365651 0.014463658332 
0.014656630299 0.014849057774 0.01504072152 0.015231401213 0.015420757165 0.015608796705 0.015795236647 0.015979761019 0.016162196852 
0.016342259777 0.016519738102 0.01669440355 0.01686603614 0.017034399207 0.017199297903 0.017360520522 0.017517947375 0.017671166926 
0.01782022791 0.017964843398 0.018104865204 0.018240150026 0.018370588877 0.018496045458 0.018616387547 0.018731400906 0.018841119934 
0.018945182466 0.019043710162 0.019136490892 0.019223212116 0.019303764514 0.019378150733 0.019445888082 0.019506872623 0.019561126047 
0.019608467351 0.019648773844 0.019682065483 0.019707933048 0.019726977412 0.019738908139 0.019743817357 0.019741600894 0.013098936827 
0.013282088898 0.013465526606 0.013649170475 0.013832810868 0.014016262188 0.014199331141 0.014381815849 0.014563544466 0.014744260405 
0.014923797009 0.015101931545 0.015278346051 0.015453073556 0.015625776106 0.015796218407 0.015964190103 0.016129477391 0.01629186941 
0.016451155566 0.016607141772 0.016759633271 0.016908453551 0.017053485924 0.017194296026 0.017331018742 0.017463357052 0.01759118544 
0.017714413332 0.017832894694 0.017946527468 0.018055125675 0.018158644074 0.018256920122 0.018349821949 0.018437052105 0.018518773218 
0.01859457224 0.018664453305 0.018728201173 0.018785604775 0.018836566617 0.018881259334 0.018919189962 0.01895046966 0.018975102695 
0.018993059206 0.019004134982 0.019008695784 0.019006570962 0.012714778024 0.012888894697 0.013063274959 0.013237821432 0.013412222634 
0.013586372057 0.013760093298 0.013933193654 0.014105489792 0.014276810558 0.014446962892 0.014615755836 0.014783032443 0.01494842026 
0.015111976306 0.015273400583 0.015432480163 0.015588974077 0.015742716987 0.015893503183 0.016041146611 0.016185463999 0.01632627687 
0.016463412737 0.016596700871 0.016726105098 0.016851242691 0.016972133865 0.01708851965 0.017200485032 0.017307827121 0.017410431876 
0.017508129675 0.017600867444 0.017688488481 0.01777088284 0.017847867811 0.017919267585 0.017985087299 0.018045111617 0.018099114303 
0.018147184974 0.018189096203 0.018224726351 0.01825424823 0.018277395032 0.018294262764 0.018304839573 0.018309279789 0.018307288425 
0.012345696551 0.012511326617 0.012677134085 0.012842961838 0.013008648351 0.01317401959 0.013338983682 0.013503235345 0.013666685422 
0.013829160859 0.013990490864 0.014150510249 0.014309063677 0.014465954096 0.014620952322 0.014773785309 0.01492449687 0.015072764599 
0.015218371503 0.015361188507 0.01550101951 0.015637677992 0.015771006522 0.015900832219 0.016027001968 0.016149364471 0.01626787935 
0.016382226336 0.01649239818 0.016598277084 0.01669972902 0.016796667806 0.016889010131 0.016976435446 0.017059137061 0.017136854033 
0.017209476635 0.017276839513 0.017338868593 0.017395421057 0.017446293746 0.017491584867 0.01753106926 0.017564718738 0.017592345469 
0.017614071422 0.017629939012 0.017639859098 0.017643856682 0.017641905411 0.011991974116 0.01214959558 0.012307427724 0.01246510895 
0.012622580824 0.012779291934 0.012935874759 0.013091819487 0.013246947669 0.013401179874 0.013554243744 0.013706031924 0.013856384815 
0.014005159613 0.014152103828 0.014297113104 0.014439861857 0.014580395289 0.014718428764 0.014853747373 0.014986240713 0.015115715095 
0.015242013779 0.015364991443 0.01548447856 0.015600335779 0.015712439915 0.015820676313 0.015925026993 0.016025180687 0.016121144497 
0.016212794685 0.016300060481 0.016382802838 0.01646088488 0.016534256648 0.016602772645 0.016666318726 0.016724828512 0.016778134497 
0.016826196932 0.016868854064 0.016905992964 0.016937679541 0.016963818673 0.016984363741 0.016999294288 0.017008622402 0.017012131142 
0.017010217261 0.011652929582 0.011802983347 0.011953069291 0.012103162516 0.012252900972 0.012402242583 0.012551049386 0.012699187156 
0.012846515568 0.012992473663 0.013137755869 0.013281807835 0.013424476175 0.013565675277 0.01370511107 0.013842622846 0.013978123755 
0.014111400023 0.01424216662 0.014370491366 0.014496106834 0.014618804317 0.014738514229 0.01485503973 0.014968247381 0.015078021524 
0.01518420121 0.015286686845 0.015385391743 0.015480236937 0.015571107298 0.0156578286 0.015740320285 0.01581855251 0.015892356029 
0.015961640546 0.016026334014 0.016086331792 0.016141514795 0.016191800541 0.016237077093 0.016277344086 0.016312432079 0.016342281721 
0.016366897757 0.016386251391 0.016400263553 0.016409027004 0.016412481746 0.016410614581 0.011328488818 0.011471426686 0.011614336117 
0.01175707066 0.011899528313 0.012041671048 0.012183141959 0.012323942552 0.012463938022 0.01260300809 0.012741008954 0.012877809503 
0.013013275471 0.013147255751 0.013279597028 0.013409676496 0.013538236505 0.013664691237 0.013788864315 0.013910641984 0.01402966959 
0.014146056115 0.014259527714 0.014370012435 0.014477329858 0.014581363196 0.014681985276 0.014779089825 0.014872586422 0.01496237526 
0.015048371268 0.015130429061 0.01520862095 0.015282579822 0.015352378882 0.015417851607 0.015478995608 0.015535648912 0.01558777472 
0.015635246254 0.015677987487 0.015715923988 0.015749010935 0.015777234949 0.015800443015 0.015818664364 0.015831908109 0.015840121113 
0.01584326212 0.015841422531 0.011018245292 0.011154460291 0.011290607895 0.011426531769 0.011562144767 0.011697301001 0.011832010687 
0.011965929427 0.012099039987 0.012231234709 0.01236238549 0.012492373379 0.012621067267 0.012748324447 0.012874006902 0.012997956203 
0.01312002548 0.013240049598 0.013357921444 0.013473448852 0.013586510645 0.013696955939 0.013804055246 0.013908845246 0.014010599056 
0.014109257056 0.014204664035 0.014296730814 0.014385346363 0.014470425396 0.014551882048 0.014629609287 0.014703566941 0.014773517209 
0.014839654837 0.014901621754 0.014959403755 0.015012971491 0.015062222948 0.015107076201 0.015147450593 0.015183274651 0.015214502384 
0.015241089641 0.015262977113 0.015280238345 0.015292694384 0.01530035911 0.015303311467 0.015301502254 0.010721668348 0.010851578828 
0.010981364814 0.01111088541 0.011240054693 0.011368766028 0.011496896447 0.011624338526 0.011751098103 0.011876846222 0.01200156664 
0.01212515605 0.012247489195 0.012368428126 0.012487853899 0.012605602796 0.012721563668 0.01283556817 0.012947486425 0.013057181918 
0.013164515546 0.013269351699 0.01337155861 0.013471019032 0.013567613971 0.013661068578 0.013751580117 0.013838888256 0.013922940303 
0.014003613262 0.014080805992 0.014153954996 0.01422397789 0.014290282636 0.014352833541 0.014411430283 0.014466243824 0.014516890841 
0.014563474378 0.014605879469 0.014644034512 0.014677903043 0.01470741164 0.014732507466 0.014753200767 0.014769361991 0.0147810935 
0.014788389242 0.014791124253 0.01478935885 0.010438251841 0.010562197437 0.010686005564 0.010809508583 0.010932651709 0.011055277841 
0.011177334238 0.011298702646 0.011419278988 0.01153907475 0.011657762867 0.01177533613 0.011891688925 0.012006696066 0.012120221723 
0.012232152284 0.012342358407 0.012450703771 0.012557048515 0.012661240563 0.012763194035 0.012862755855 0.012959812785 0.013054243266 
0.013145934176 0.013234789107 0.013320701094 0.013403417288 0.013483149598 0.013559661805 0.013632878683 0.013702697878 0.013769087143 
0.013831940396 0.013891180078 0.013946766617 0.013998579837 0.014046476111 0.014090538821 0.014130770815 0.014166886285 0.01419891276 
0.014227110393 0.014250856226 0.014270339484 0.014285637278 0.014296703196 0.014303505114 0.014306052089 0.01430437533 0.010167647821 
0.010285982134 0.010404105172 0.010521934017 0.010639405605 0.010756190968 0.010872526792 0.010988194147 0.011103063607 0.011217054507 
0.011330060341 0.011442078903 0.011552810454 0.011662236322 0.011770245178 0.011876708555 0.011981502089 0.012084509159 0.012185592283 
0.0122846399 0.01238150883 0.012476110079 0.01256831789 0.012658030129 0.012745118182 0.012829510012 0.012911077314 0.012989746769 
0.013065428677 0.013137971387 0.013207444355 0.013273883265 0.013336861751 0.013396471861 0.013452638794 0.013505307118 0.01355439395 
0.013599892806 0.013641631571 0.013679535017 0.013713720551 0.013744046689 0.013770429712 0.013792997666 0.013811463822 0.013825908208 
0.013836335518 0.013842731323 0.01384508771 0.013843390728 0.0099089701949 0.010022018598 0.010134848783 0.010247283283 0.010359407452 
0.010470967495 0.010581925859 0.010692246148 0.010801757754 0.010910397984 0.011018070515 0.011124690013 0.011230139207 0.01133442274 
0.011437236764 0.011538548162 0.011638263556 0.011736241979 0.011832380398 0.011926580828 0.01201870867 0.012108657102 0.01219628768 
0.012281555221 0.012364322323 0.012444494056 0.012522007877 0.012596736069 0.012668611257 0.012737572851 0.012803546218 0.012866387879 
0.012926145994 0.012982703648 0.013035987529 0.013085945935 0.013132459811 0.013175541444 0.013215142943 0.013251155221 0.013283486532 
0.013312200184 0.013337167314 0.013358428818 0.013375905821 0.01338958025 0.013399429866 0.013405436463 0.013407633937 0.013406061985 
0.0096619083019 0.0097699616769 0.0098777498668 0.0099852214126 0.010092267569 0.01019873019 0.010304699282 0.010409895014 0.010514344331 
0.010617941896 0.010720627068 0.01082224112 0.010922729704 0.011021972569 0.011119886 0.01121635823 0.011311361453 0.011404624373 
0.011496111856 0.011585741994 0.011673380805 0.011758944757 0.011842311576 0.011923369839 0.012002065569 0.012078282496 0.01215197147 
0.012223005899 0.012291318866 0.012356844692 0.012419515347 0.012479267827 0.012536035551 0.012589666818 0.012640253877 0.012687666682 
0.012731826871 0.01277271001 0.012810215013 0.012844384899 0.012875092261 0.012902303787 0.012925973445 0.01294609228 0.012962673535 
0.01297557817 0.01298488729 0.012990560549 0.012992554143 0.012990951618 0.0094259350639 0.0095293185105 0.0096323764089 0.0097350763181 
0.0098373595364 0.0099391329886 0.010040284045 0.01014069661 0.01024042289 0.010339273153 0.010437179693 0.010534080541 0.010629873627 
0.010724481036 0.010817813354 0.010909715776 0.011000124376 0.011088943365 0.011176157127 0.011261478107 0.011344904474 0.011426332468 
0.011505659828 0.011582812126 0.011657662419 0.011730184465 0.011800256386 0.011867822887 0.011932784257 0.011995085805 0.012054661487 
0.012111455709 0.012165397289 0.012216427709 0.012264476862 0.012309500982 0.012351355778 0.012390172567 0.012425801183 0.012458217489 
0.012487361645 0.012513181831 0.012535626658 0.012554695142 0.012570399268 0.012582634863 0.012591438672 0.01259678865 0.012598677324 
0.01259708966 0.0092006667605 0.0092995605648 0.0093981791801 0.0094964147344 0.0095941917249 0.0096914629364 0.0097881177414 0.0098841082135 
0.0099793208819 0.010073635447 0.01016709826 0.010259602114 0.010350993138 0.010441208645 0.010530153753 0.010617765581 0.010703930141 
0.010788565564 0.010871574225 0.010952888157 0.011032346523 0.01110996538 0.011185506259 0.011258959078 0.011330246363 0.011399264536 
0.011465931918 0.011530228024 0.011592034574 0.011651315769 0.011707974557 0.011761980101 0.01181327498 0.011861757744 0.011907435146 
0.011950223158 0.011990084789 0.012026975125 0.012060822957 0.012091522954 0.012119177658 0.012143704888 0.012165029114 0.012183116178 
0.012197971765 0.012209593616 0.01221793614 0.01222304498 0.012224821997 0.012223299706 0.0089856281443 0.0090803606273 0.0091747219377 
0.0092687211895 0.0093622801466 0.0094552893692 0.0095477204551 0.0096394598419 0.0097304437861 0.0098205940825 0.0099098612129 0.0099980966706 
0.010085322977 0.01017142009 0.010256290972 0.010339899247 0.01042207437 0.010502746401 0.01058187353 0.010659359736 0.010735088049 
0.010808989584 0.010880968575 0.010950947137 0.01101885184 0.011084673097 0.011148180168 0.011209372896 0.011268224974 0.01132463619 
0.011378553997 0.011429945374 0.011478731107 0.011524878464 0.011568334026 0.011609025106 0.011646928263 0.01168197878 0.011714150913 
0.011743398367 0.011769666139 0.011792951811 0.011813214994 0.01183041075 0.011844510613 0.011855490678 0.01186341165 0.011868183009 
0.011869877807 0.011868412856 0.0087804769447 0.0088711746225 0.0089616049381 0.0090515945994 0.0091411487121 0.0092301574414 0.0093185613386 
0.0094063129606 0.0094933099826 0.0095794884578 0.0096647697798 0.0097491005178 0.0098324173033 0.0099145774318 0.009995602 0.010075367273 
0.010153793945 0.010230791029 0.01030628419 0.010380206794 0.010452432802 0.010522897292 0.010591497568 0.010658215607 0.010722932668 
0.010785586555 0.010846093012 0.010904397279 0.010960462741 0.011014176142 0.011065530634 0.01111448349 0.011160935721 0.011204852194 
0.011246202065 0.011284927305 0.011320987897 0.011354337839 0.011384931401 0.011412740216 0.011437775204 0.011459888351 0.01147912645 
0.011495469682 0.011508882704 0.011519345499 0.011526916937 0.01153146336 0.011533005682 0.011531608141 0.008584747912 0.0086717282592 
0.0087583742766 0.0088445876956 0.008930369318 0.0090156123428 0.009100257218 0.0091841565843 0.00926738832 0.0093498110295 0.0094313656419 
0.0095119736694 0.009591572631 0.0096701144654 0.0097475069458 0.0098236895054 0.0098985387905 0.0099720526841 0.010044123808 0.010114671983 
0.010183607156 0.010250849933 0.010316328267 0.010379973163 0.010441696586 0.01050143917 0.010559127737 0.010614715746 0.010668133451 
0.010719315388 0.010768249816 0.010814845912 0.01085909765 0.010900935381 0.010940316429 0.010977194293 0.011011531634 0.011043288316 
0.011072421073 0.01109887849 0.011122659132 0.011143704038 0.011162012122 0.011177536069 0.011190273525 0.011200226864 0.01120733335 
0.011211639463 0.011213138077 0.011211815562 0.0083981021695 0.0084815336793 0.0085646119748 0.0086472843941 0.0087294519357 0.0088110849778 
0.00889217631 0.0089725526405 0.0090522379357 0.0091311055985 0.0092091287632 0.0092862345511 0.0093623469602 0.0094374173213 0.0095113874957 
0.0095841874995 0.0096557436842 0.0097259823628 0.0097948245233 0.0098621694809 0.0099280125313 0.0099922271989 0.010054734011 0.010115473533 
0.010174375477 0.010231386713 0.010286425906 0.010339428894 0.010390363369 0.01043918573 0.010485826595 0.010530251131 0.010572417321 
0.010612275222 0.010649786622 0.010684927171 0.010717636294 0.01074789345 0.010775659208 0.010800856052 0.010823488443 0.01084350201 
0.010860902714 0.010875633601 0.010887741399 0.010897206663 0.010903984095 0.010908066863 0.010909471481 0.010908209026 0.0082201718478 
0.0083002442468 0.0083799452003 0.0084592264153 0.0085380248829 0.0086162756213 0.008693932786 0.0087709928308 0.0088472776181 0.0089228222781 
0.0089974993013 0.0090713095402 0.0091441441788 0.0092159505728 0.0092866764415 0.0093562936212 0.0094247169132 0.0094918759359 0.0095576844548 
0.0096220908658 0.0096850078417 0.0097463808581 0.0098060965554 0.0098640941237 0.0099203476353 0.0099747638497 0.010027291844 0.010077880112 
0.010126469552 0.010173028434 0.010217517123 0.010259874126 0.010300081964 0.010338092345 0.010373862974 0.010407354855 0.010438532322 
0.010467362672 0.010493802432 0.010517796073 0.010539334904 0.010558407429 0.010574955701 0.010589018899 0.010600527557 0.01060941764 
0.010615838101 0.010619687716 0.010621025197 0.010619787012 0.0080504503382 0.008127404931 0.0082039397929 0.0082799986896 0.0083556018268 
0.0084306629454 0.0085051270238 0.0085789354374 0.008652064024 0.008724441572 0.0087959681986 0.0088666530251 0.008936408214 0.0090051561969 
0.0090728537502 0.0091394559552 0.0092049247865 0.0092691729703 0.0093321297089 0.0093937378917 0.009453910232 0.0095125797301 0.0095696838625 
0.0096251330653 0.0096788842812 0.009730866674 0.0097810289133 0.0098293232947 0.0098756928846 0.0099201098349 0.0099625499029 0.010002973208 
0.010041327149 0.010077569618 0.010111701795 0.01014365498 0.010173384862 0.010200880364 0.010226092932 0.010248899357 0.010269428245 
0.010287583065 0.010303354458 0.010316711137 0.010327645548 0.010336156486 0.010342257375 0.010345944198 0.010347189765 0.010346034218 
0.007888557057 0.0079625011528 0.0080360444865 0.0081091251593 0.0081816775525 0.0082537110929 0.0083251607506 0.0083959558128 0.0084660619935 
0.0085354341801 0.008603985978 0.0086717192371 0.008738544022 0.0088044120333 0.0088692551902 0.0089330324328 0.0089957122608 0.0090572178061 
0.0091174875886 0.0091764558843 0.0092340454775 0.0092901779745 0.0093448110376 0.0093978515834 0.0094492426871 0.0094989331977 0.0095468618156 
0.0095929862306 0.009637278519 0.0096796857454 0.0097201196541 0.009758687696 0.0097953010521 0.0098299113727 0.0098624785448 0.0098929698483 
0.0099213569795 0.0099476027358 0.0099716502584 0.0099934803019 0.010013057587 0.010030366204 0.010045379946 0.01005809704 0.01006850944 
0.010076607145 0.010082384219 0.010085871189 0.010087057136 0.010085946356 0.0077339206342 0.0078050284579 0.0078757196052 0.0079459662548 
0.0080156935856 0.0080848177845 0.0081533981511 0.0082213491312 0.0082886069824 0.0083551406236 0.0084208801253 0.0084858085019 0.0085498361481 
0.0086129705726 0.0086751641556 0.0087362841565 0.0087963243923 0.0088552608824 0.0089129848792 0.0089694641055 0.0090246192377 0.0090783860778 
0.0091306724408 0.0091814512216 0.0092306191397 0.0092781368314 0.0093239621906 0.0093680501943 0.0094103571487 0.0094508718111 0.0094895478536 
0.0095263857696 0.0095613553518 0.0095944149405 0.0096255131045 0.0096546418654 0.0096817543477 0.0097068038417 0.0097297592208 0.0097505932523 
0.0097692683148 0.0097857741355 0.0098000857009 0.0098121828408 0.0098221020388 0.0098298054616 0.0098353083693 0.0098386047599 0.0098397232322 
0.0098386671384 0.0075860718625 0.0076544673974 0.0077224776175 0.0077900105817 0.007857045182 0.0079235174489 0.0079893757699 0.0080545848922 
0.008119171941 0.0081830186872 0.008246097548 0.0083083662418 0.0083698037497 0.0084303220684 0.0084899060703 0.0085485114189 0.0086061743022 
0.0086626564694 0.008718005943 0.0087721325544 0.0088249849267 0.0088765004398 0.0089265959053 0.0089752088429 0.0090222720716 0.0090677562152 
0.0091115976703 0.0091537592894 0.0091942113729 0.0092329255654 0.0092698919579 0.0093050987573 0.0093384938996 0.0093700788133 0.0093998042899 
0.009427640218 0.0094535429177 0.009477489148 0.0094994122067 0.009519312065 0.0095371442694 0.0095528780814 0.0095665281616 0.0095780738054 
0.0095875027873 0.0095948325763 0.0096000708948 0.0096032185765 0.0096042729271 0.0096032959608 0.0074442080188 0.0075101065462 0.0075755629797 
0.007640525037 0.0077049836673 0.0077689091275 0.0078322317602 0.0078949246601 0.0079569027201 0.0080182363827 0.0080788000458 0.0081385719126 