# vtk DataFile Version 5.1
vtk output
ASCII
DATASET STRUCTURED_POINTS
DIMENSIONS 50 50 50
SPACING 0.002 0.002 0.002
ORIGIN 0.1742 -0.052672 0.02732
POINT_DATA 125000
FIELD FieldData 1
potential 1 125000 double
0.0049064532215 0.0049375827778 0.0049683534235 0.0049988060488 0.005028901296 0.005058625535 0.0050879584535 0.0051168895922 0.0051453944339 
0.0051734644778 0.0052010877339 0.0052282346236 0.0052549072281 0.0052810795388 0.0053067521289 0.00533190976 0.0053565221692 0.0053806089089 
0.0054041310015 0.0054270652896 0.0054493923379 0.0054710613214 0.0054920475785 0.0055123451004 0.0055319118267 0.0055507429407 0.0055688453671 
0.0055861997874 0.0056028136722 0.0056187089552 0.0056338936472 0.0056483755454 0.005662150126 0.0056752107204 0.005687550486 0.0056991442279 
0.0057099633226 0.0057199677582 0.0057291227103 0.0057373985813 0.0057447565868 0.0057511700515 0.0057566174439 0.0057611101175 0.0057646354933 
0.0057672040021 0.0057688322377 0.0057695017576 0.0057693199395 0.0057682523538 0.0050082387372 0.0050405026889 0.0050724274288 0.0051040003902 
0.0051352085463 0.0051660363367 0.0051964592673 0.0052264777912 0.0052560532091 0.0052851874346 0.0053138343579 0.0053419895163 0.0053696503736 
0.00539679694 0.0054234111556 0.0054494978127 0.0054750326659 0.0054999958402 0.005524369766 0.005548133056 0.0055712526744 0.0055937016417 
0.0056154456898 0.0056364733214 0.0056567779275 0.0056763183639 0.0056950937122 0.0057131271743 0.0057303871908 0.0057469125226 0.0057626909469 
0.0057777501745 0.0057920776759 0.0058056691173 0.0058185013953 0.0058305559157 0.0058417983616 0.0058521990756 0.0058617064762 0.0058702907834 
0.0058779240597 0.005884578106 0.005890205425 0.0058948612489 0.0058985200241 0.0059011873175 0.005902888312 0.0059036322705 0.0059034435086 
0.0059023532648 0.0051099740931 0.0051434152512 0.0051765055871 0.0052092384565 0.0052415965265 0.0052735708114 0.0053051291302 0.0053362689258 
0.0053669477574 0.0053971605093 0.0054268769427 0.0054560769318 0.0054847667125 0.0055129146573 0.0055405213833 0.005567567489 0.0055940330143 
0.005619900196 0.005645154226 0.0056697685662 0.0056937187555 0.0057169741429 0.0057395107023 0.0057612978561 0.005782360606 0.0058026171998 
0.0058220831982 0.0058407900846 0.0058587342406 0.0058759103001 0.0058923286137 0.0059079896091 0.0059228909356 0.005937024632 0.0059503645174 
0.0059628906906 0.0059745680681 0.0059853536602 0.005995226884 0.0060041025902 0.0060120216744 0.0060189220235 0.0060247987778 0.0060296350908 
0.0060334368169 0.0060362222706 0.0060379934977 0.0060387851392 0.0060386120284 0.0060375010968 0.0052112214528 0.005245865088 0.0052801583984 
0.005314093753 0.0053476419389 0.0053808029524 0.0054135275115 0.0054458080692 0.005477628262 0.0055089506823 0.0055397842688 0.0055700777913 
0.0055998308432 0.0056290254534 0.0056576479009 0.0056856827343 0.0057131048814 0.0057399065034 0.0057660632711 0.0057915463697 0.0058163563702 
0.0058404784697 0.0058638110315 0.0058863687307 0.0059081645161 0.0059291758669 0.0059493949194 0.0059688153449 0.0059874496185 0.0060052980725 
0.0060223609281 0.0060386528238 0.0060541517523 0.006068842553 0.0060827106293 0.0060957153223 0.0061078173442 0.0061190173427 0.0061292566065 
0.0061384986943 0.0061467097562 0.006153868504 0.0061599592333 0.0061649824717 0.0061689365635 0.0061718333251 0.0061737036758 0.0061745428689 
0.0061743992091 0.0061732872178 0.0053116974845 0.0053475838568 0.0053831140286 0.0054182847559 0.0054530506267 0.0054874106052 0.0055213389633 
0.0055547998475 0.0055877939224 0.0056202855216 0.0056522438769 0.0056836585224 0.0057145082544 0.005744775327 0.0057744445749 0.005803495353 
0.0058319099098 0.0058596814811 0.0058868292123 0.005913214415 0.005938889865 0.0059637983873 0.005987964854 0.006011347431 0.0060339374069 
0.0060557244453 0.0060766994812 0.0060968616733 0.0061162174935 0.0061347675184 0.0061525092054 0.0061694383201 0.0061855448279 0.0062007947503 
0.0062152086918 0.0062287189859 0.0062413060539 0.006252933995 0.0062635517679 0.006273132699 0.0062816487025 0.0062890724277 0.0062954005712 
0.0063006138618 0.0063047226134 0.006307746472 0.0063096954473 0.0063106101749 0.0063104996747 0.0063093845487 0.0054112376343 0.0054483833338 
0.0054851919249 0.0055216072407 0.0055576290042 0.005593221353 0.0056283824514 0.0056630758586 0.0056972783797 0.0057309670395 0.0057641019066 
0.0057966701731 0.0058286473495 0.0058600153849 0.0058907591247 0.0059208622833 0.0059503609698 0.0059791184125 0.0060071665468 0.0060344734411 
0.006061049377 0.0060868547478 0.006111892003 0.0061361211793 0.0061595348368 0.0061821221664 0.0062038817798 0.0062248143876 0.0062449162709 
0.0062641875931 0.0062826081825 0.0063002008828 0.0063169392671 0.0063328105647 0.0063477767664 0.0063618030194 0.0063748726356 0.006386932286 
0.0063979507453 0.0064078897822 0.0064167174106 0.0064244404099 0.006430993546 0.0064364005895 0.0064406705741 0.0064438250607 0.0064458749326 
0.0064468466316 0.0064467648341 0.0064456555772 0.0055098400441 0.0055482840888 0.0055863694457 0.0056240690259 0.0056613779287 0.005698258728 
0.0057346917414 0.0057706436436 0.0058060850395 0.005840991501 0.005875327818 0.0059090820105 0.0059422209283 0.0059748053394 0.0060066683144 
0.0060378574235 0.0060683428172 0.0060980988426 0.0061271389071 0.0061554328341 0.0061829538802 0.0062096792092 0.0062355988023 0.0062606981443 
0.0062849675579 0.0063083989338 0.0063309736205 0.0063527009211 0.0063735640191 0.0063935771566 0.0064127314276 0.006431020121 0.0064484169776 
0.0064649022924 0.0064804407568 0.0064950188608 0.0065085774823 0.0065211045716 0.0065325233591 0.0065428309189 0.0065519924377 0.0065599866305 
0.0065667837754 0.0065723995882 0.0065768482247 0.0065801411818 0.0065822980254 0.0065833214086 0.0065832786364 0.0065821680498 0.0056076707602 
0.0056474440157 0.0056868452229 0.0057258785782 0.0057645101509 0.0058027009338 0.0058404325235 0.0058776778071 0.0059143924275 0.0059505576109 
0.005986125942 0.0060211756263 0.0060555151447 0.0060892074153 0.0061222096941 0.0061544939329 0.0061860662418 0.0062169099661 0.0062469896941 
0.0062762892794 0.00630478776 0.006332471135 0.0063593322061 0.0063853389867 0.0064105002347 0.0064347916711 0.0064582083807 0.00648075419 
0.006502438392 0.0065232342788 0.0065431387203 0.0065621366556 0.0065802111019 0.0065973347043 0.0066135018546 0.0066286328076 0.0066427042421 
0.0066556868096 0.0066675382704 0.006678222814 0.0066877139948 0.0066959994293 0.0067030579666 0.0067088826203 0.0067135180306 0.006716960681 
0.0067192208505 0.0067203363663 0.0067203375523 0.0067192362525 0.0057050453833 0.005746179153 0.0057869518117 0.0058273419537 0.0058673224681 
0.0059068619887 0.0059459340525 0.0059845009139 0.0060225308186 0.0060600772949 0.0060969401226 0.0061331715289 0.0061687549026 0.0062036344763 
0.0062378188915 0.0062712801515 0.0063039908493 0.0063359381284 0.0063670952003 0.0063974529985 0.0064269790948 0.0064556547743 0.0064834924329 
0.0065104613111 0.0065365433265 0.0065617494284 0.0065860630142 0.0066094715856 0.0066319789449 0.0066535789561 0.0066742586812 0.0066940047387 
0.0067127802721 0.0067305738522 0.0067473478628 0.0067630597491 0.0067776687791 0.0067911397212 0.0068034440639 0.0068145112156 0.0068243618746 
0.0068329525535 0.0068402850733 0.0068463574668 0.0068511802148 0.0068547713791 0.0068571672023 0.006858362452 0.0068583981112 0.006857291353 
0.0058024920552 0.0058450234677 0.0058871939461 0.005928978284 0.0059703481909 0.0060112760473 0.006051726154 0.0060917471858 0.0061311296747 
0.0061699251891 0.0062081199013 0.0062456504058 0.0062824919292 0.0063186364072 0.0063540496593 0.0063887146165 0.0064226116523 0.0064557360824 
0.0064880264732 0.0065194840435 0.0065500922399 0.0065798494654 0.0066087246749 0.006636698974 0.0066637622092 0.0066899163829 0.0067151529778 
0.0067394444887 0.006762829269 0.0067852521412 0.0068067369708 0.0068272491873 0.0068467589565 0.0068652548461 0.00688267163 0.0068989847081 
0.0069141387218 0.0069281182043 0.0069408781636 0.0069523745269 0.0069625981079 0.0069715203516 0.0069791444636 0.0069855561966 0.006990585242 
0.006994343941 0.0069968495029 0.0069981275139 0.0069982102588 0.0069971147163 0.0059005871354 0.0059445549299 0.0059881709969 0.0060313955194 
0.006074201823 0.0061166565367 0.0061585200132 0.0061998604785 0.0062406404305 0.0062808295467 0.0063203814168 0.0063592516528 0.0063974360727 
0.0064348937877 0.0064716044993 0.0065075365987 0.0065426743833 0.0065769917681 0.0066104675098 0.0066430882196 0.0066748514592 0.006705706364 
0.00673565889 0.0067646748854 0.0067927789458 0.0068199358852 0.0068461536881 0.0068714268199 0.0068957243747 0.0069190526993 0.0069413809536 
0.0069626985491 0.0069829758001 0.007002175475 0.007020252815 0.007037196497 0.0070530098026 0.0070675185252 0.0070807552583 0.0070926954878 
0.0071033110135 0.0071125806811 0.0071205100805 0.0071270918317 0.0071323350946 0.0071362556976 0.0071388915302 0.0071402558381 0.0071403852625 
0.0071392793017 0.0060000384558 0.006045499572 0.0060906023752 0.0061353093724 0.0061797045296 0.0062235386066 0.006266886659 0.0063096900852 
0.0063519065432 0.0063935055693 0.006434463651 0.0064747472356 0.0065143133605 0.0065531412505 0.0065911945028 0.0066284679594 0.0066648929317 
0.0067004908265 0.0067352490968 0.0067690923659 0.006802016718 0.0068340472689 0.0068651495493 0.0068953087649 0.0069245088558 0.0069527599022 
0.0069800058474 0.0070062682072 0.0070315275548 0.0070557754915 0.0070789883074 0.0071012371501 0.0071222955261 0.0071422439714 0.0071610356887 
0.0071786295547 0.0071949779768 0.0072100447206 0.0072237899989 0.0072361884812 0.0072472025333 0.0072568477834 0.0072650919066 0.0072719481431 
0.0072774156464 0.0072815266193 0.007284294952 0.0072857460957 0.0072859205976 0.0072848152355 0.0061015688498 0.006148577387 0.006195329814 
0.0062415995196 0.0062874192747 0.0063327850509 0.0063776600764 0.006421974193 0.0064656961622 0.0065087918773 0.0065512283496 0.0065929592658 
0.0066339780394 0.0066742387197 0.0067137031699 0.0067523556426 0.0067901920883 0.0068271028501 0.0068631618813 0.0068983190788 0.0069325481116 
0.0069658381849 0.0069981594644 0.007029527277 0.0070598882378 0.0070892429156 0.0071176684155 0.0071449891935 0.0071712675296 0.0071964897701 
0.0072206211728 0.0072436634429 0.0072655641056 0.0072862939383 0.0073058261023 0.0073240969487 0.0073410709398 0.0073567163036 0.0073710000208 
0.0073838874393 0.0073953426466 0.007405370024 0.0074139519316 0.0074210934982 0.0074268053344 0.0074311153894 0.0074340355032 0.0074356037585 
0.0074358130414 0.007434691971 0.0062059621327 0.0062546938251 0.0063029498823 0.0063508096289 0.0063982375701 0.0064452026414 0.0064916415406 
0.0065375316093 0.0065828036475 0.0066274615474 0.0066714505529 0.0067147305851 0.0067572661754 0.0067990282694 0.0068399890335 0.0068800973696 
0.006919356374 0.0069577292907 0.0069951920864 0.007031729217 0.0070673127646 0.0071020143057 0.0071356358419 0.0071682546863 0.0071998497933 
0.0072303981718 0.0072599020719 0.0072883370895 0.0073156638636 0.0073419185088 0.0073670533017 0.0073910192719 0.0074137924792 0.0074353511515 
0.007455640309 0.0074746255787 0.0074922657939 0.0075085217792 0.0075233603196 0.0075367473727 0.0075486687199 0.0075591103154 0.0075680657853 
0.0075755212379 0.0075815037799 0.0075860204684 0.0075891089643 0.0075907038802 0.0075909500089 0.0075898252109 0.0063140064074 0.0063643033902 
0.0064142357735 0.0064637766492 0.0065128880209 0.0065614787041 0.006609573567 0.0066571219395 0.0067040603245 0.006750354023 0.0067959630395 
0.0068408503674 0.0068849966875 0.0069283285025 0.0069708457771 0.0070125152676 0.0070533044144 0.0070932617911 0.0071322167954 0.0071702292 
0.0072072466131 0.0072432691468 0.0072782769814 0.0073122201773 0.0073451312091 0.0073769575454 0.007407682979 0.007437295701 0.0074657753302 
0.0074931119312 0.0075192671135 0.0075442149582 0.0075679098255 0.0075903297716 0.0076114174267 0.007631135835 0.0076494636099 0.0076663658737 
0.0076817948398 0.0076957272817 0.0077081456434 0.0077190236798 0.0077283624638 0.0077361057245 0.0077423746043 0.0077471296773 0.0077503793956 
0.007752147927 0.0077524567429 0.007751301252 0.0064261531877 0.0064782068727 0.006529878484 0.0065811828987 0.0066320268044 0.006682396324 
0.0067322299168 0.0067815042886 0.0068301646712 0.0068781733429 0.0069254956083 0.0069720510218 0.0070178992029 0.0070629769669 0.0071071558787 
0.0071504697127 0.0071928837768 0.0072343710291 0.0072749126903 0.0073144400251 0.0073529966366 0.0073905160196 0.0074269715617 0.0074623504239 
0.007496633963 0.0075298050065 0.0075618327377 0.0075927007531 0.0076223796034 0.0076508429753 0.0076780801628 0.0077040484578 0.0077287277865 
0.0077520442178 0.0077739976329 0.0077945132474 0.0078135889979 0.0078311666981 0.0078472324433 0.0078616867964 0.0078746161675 0.0078859742262 
0.0078957093883 0.0079038634252 0.0079104311694 0.0079154315488 0.007918862865 0.0079207492343 0.0079211070585 0.0079199489988 0.0065430795112 
0.0065969794015 0.0066505316921 0.0067036616024 0.0067563412763 0.0068085450349 0.0068602219724 0.0069113184478 0.0069617973227 0.0070116498468 
0.0070607919077 0.0071091649652 0.0071567578718 0.0072035307469 0.0072494525623 0.007294489336 0.0073386244829 0.0073818114839 0.0074240117774 
0.0074652048558 0.0075053622083 0.0075444573091 0.0075824663551 0.0076193553651 0.0076551077688 0.007689695402 0.0077230983206 0.0077552879973 
0.0077862493409 0.0078159169163 0.0078442989455 0.0078713429937 0.0078970269544 0.0079213176858 0.0079441848078 0.0079655561675 0.0079853727276 
0.0080036745463 0.0080203815174 0.0080354963923 0.0080489762861 0.0080608133018 0.0080710085369 0.0080795433944 0.008086430009 0.0080916810797 
0.0080952857366 0.0080972958989 0.0080977073316 0.0080965114008 0.0066653518631 0.0067211950602 0.0067766753421 0.0068317409261 0.0068863710319 
0.0069405055042 0.0069941657024 0.007047153148 0.007099552556 0.0071513068603 0.0072023198201 0.0072525746231 0.0073020437538 0.0073506749577 
0.0073984315302 0.0074453118666 0.0074912503216 0.0075362218162 0.0075801855262 0.0076231178819 0.0076649923121 0.0077057640958 0.0077454088216 
0.0077838951732 0.0078211958631 0.0078573070445 0.0078921629713 0.0079257637869 0.0079580434006 0.007988999602 0.0080186014147 0.008046831294 
0.0080736046552 0.0080988787108 0.0081226868019 0.0081449539294 0.0081656250258 0.0081846920152 0.0082021148689 0.0082178698415 0.0082319470889 
0.0082443080283 0.0082549585822 0.0082639031718 0.0082711414365 0.008276656353 0.0082804802906 0.0082826178608 0.0082830654256 0.0082818558019 
0.006793373255 0.006851254377 0.0069088237297 0.006965955597 0.0070226345591 0.0070788170134 0.0071344230363 0.0071894705718 0.0072439147539 
0.0072976509416 0.0073506663845 0.007402908336 0.0074543633399 0.0075049771379 0.0075547186049 0.0076035252352 0.0076513778059 0.0076982423236 
0.0077440795233 0.0077888452254 0.0078325197176 0.0078750561656 0.0079164450712 0.0079566177081 0.007995562244 0.0080332466426 0.0080696496465 
0.0081047202174 0.00813842116 0.0081707378924 0.0082016424371 0.0082310488873 0.0082589859808 0.0082853920438 0.0083102035062 0.008333422319 
0.0083549889168 0.0083748722252 0.0083930390128 0.0084094891616 0.0084241844853 0.008437113104 0.0084482672721 0.0084576355431 0.0084652295279 
0.0084710028128 0.0084750253976 0.0084772873482 0.0084777695397 0.0084765330516 0.0069275588098 0.00698760525 0.0070473010299 0.007106591027 
0.007165399091 0.0072237395717 0.0072815770325 0.0073387752015 0.0073953189463 0.0074511744434 0.0075063162062 0.0075606827952 0.0076142319341 
0.0076669460488 0.0077187427318 0.0077696053958 0.0078194919621 0.0078683602143 0.0079161697885 0.0079628870358 0.0080084670109 0.0080528732339 
0.0080960753202 0.0081380335775 0.0081787190149 0.0082181162116 0.0082561261516 0.0082927561493 0.0083279393155 0.0083616882118 0.0083939421784 
0.0084246682847 0.0084538380967 0.0084813981044 0.0085073048035 0.0085315214497 0.0085540468528 0.0085748041918 0.008593794988 0.0086109748684 
0.0086263361854 0.0086398506395 0.0086515039486 0.0086613280001 0.0086692921106 0.0086753750008 0.0086796179335 0.0086820055205 0.0086825720593 
0.0086812845821 0.0070681403772 0.0071304882672 0.0071924755932 0.0072540232548 0.0073151576961 0.0073758241977 0.0074358948754 0.0074953491625 
0.0075541735491 0.0076123065907 0.0076696980445 0.0077263106915 0.0077820940336 0.0078369916977 0.0078909879037 0.0079440140153 0.0079960482264 
0.0080470326699 0.0080969344506 0.0081457048917 0.0081933164317 0.0082397047183 0.0082848612813 0.008328697895 0.0083712113155 0.0084123502376 
0.0084520637961 0.0084903438656 0.0085271423349 0.0085624180381 0.0085961291414 0.0086282454013 0.0086587058257 0.0086874876741 0.0087145460268 
0.008739859453 0.008763380372 0.0087850632334 0.0088049122963 0.0088228640388 0.0088389261159 0.0088530830497 0.0088653138599 0.008875623657 
0.0088839841962 0.008890404778 0.0088948685247 0.0088974043724 0.0088980028083 0.0088966698862 0.0072155096757 0.0072802386077 0.0073446483596 
0.0074086511669 0.0074722439725 0.0075352686322 0.0075977499422 0.0076596294032 0.0077208563135 0.0077813828935 0.0078411628293 0.0079001448678 
0.0079585744081 0.0080158279516 0.0080721450943 0.0081274743568 0.0081817786816 0.0082350019192 0.0082871039977 0.008338047415 0.0083878053358 
0.0084362843136 0.0084834561494 0.0085293018727 0.0085737280393 0.0086167441967 0.0086582684653 0.0086983105265 0.0087367966454 0.0087736899095 
0.0088089364057 0.0088425031431 0.0088743468834 0.00890443164 0.008932718961 0.0089591800326 0.0089837416039 0.0090064375585 0.0090269734933 
0.0090457983201 0.009062607123 0.0090774420772 0.0090902629859 0.0091010567081 0.0091098227293 0.0091165523175 0.0091212713889 0.0091239352161 
0.0091245184356 0.0091231325394 0.007369888402 0.007437202022 0.0075041726308 0.0075707768975 0.0076368645035 0.0077024633722 0.0077677871373 
0.0078322228861 0.007895993832 0.0079590621624 0.0080213761033 0.0080828692963 0.0081434975881 0.0082032365148 0.0082620120446 0.008319774133 
0.0083764893488 0.0084320967739 0.0084865746163 0.0085397997886 0.008591787333 0.0086424808742 0.0086918288844 0.0087397577895 0.0087862592959 
0.0088312532641 0.0088747238852 0.0089166119577 0.0089568677083 0.0089954624064 0.0090323458613 0.0090674698793 0.0091008231969 0.0091322760735 
0.0091618870886 0.0091895731536 0.0092153154655 0.0092390506275 0.0092607656529 0.0092804512257 0.0092980266232 0.0093135619027 0.0093269952069 
0.0093381220391 0.0093473231164 0.0093544105582 0.0093593078108 0.0093621119277 0.0093627778952 0.0093613920167 0.0075316070535 0.0076016204735 
0.0076716072469 0.007740871933 0.0078096893048 0.0078779976296 0.0079457477687 0.0080128842956 0.0080793508524 0.0081451131295 0.0082100877869 
0.0082742574014 0.008337541676 0.0083998943356 0.0084612779698 0.0085216147287 0.0085808779845 0.0086390265524 0.0086959630281 0.0087516447869 
0.0088060402223 0.0088590826785 0.0089106726765 0.0089608543867 0.0090095269868 0.0090566338857 0.0091021392066 0.0091459955936 0.0091881967975 
0.0092285980688 0.0092671943172 0.0093039544466 0.0093388403346 0.0093718153158 0.009402802174 0.009431735652 0.0094586720805 0.0094835486175 
0.0095063339201 0.0095269638007 0.0095454323762 0.0095617407169 0.0095757774297 0.0095876432596 0.0095973029605 0.0096047115639 0.0096099231878 
0.009612876484 0.0096134343148 0.0096120815403 0.007701221386 0.0077741357863 0.0078466685439 0.0079187972918 0.007990482165 0.0080616493132 
0.0081322609505 0.0082022710342 0.008271594434 0.0083401729922 0.0084079887284 0.0084749650086 0.0085410489031 0.0086061941811 0.0086703231892 
0.0087334176642 0.0087953841648 0.0088561722853 0.0089157498662 0.0089740239834 0.0090309623515 0.0090868584602 0.0091409135093 0.0091934451799 
0.0092444026686 0.0092937980281 0.0093414741477 0.0093874065227 0.0094315502277 0.0094738675623 0.0095143119512 0.009552829653 0.0095893267401 
0.0096238541683 0.0096563335328 0.0096867025195 0.0097149494007 0.009741028765 0.0097649058744 0.0097864566954 0.0098058434921 0.0098229536864 
0.0098374885201 0.0098500048453 0.0098601046878 0.0098678879127 0.0098734756038 0.0098765668111 0.0098773199068 0.0098757021689 0.007878457574 
0.0079543501282 0.0080299011321 0.0081050488714 0.0081797635523 0.0082539829842 0.0083276283567 0.0084006686086 0.0084730110199 0.008544622236 
0.0086154406371 0.0086854016902 0.0087548615263 0.0088229465854 0.008890026365 0.0089559975987 0.0090208206827 0.0090844584658 0.0091468054903 
0.0092078368468 0.0092674502605 0.0093256109526 0.0093822420569 0.0094373546392 0.0094907445111 0.0095424588704 0.0095924059872 0.0096405466462 
0.009686820619 0.0097311156229 0.0097732490605 0.0098136388363 0.009851956902 0.0098881644576 0.0099222106926 0.009954064963 0.0099836213374 
0.010010991254 0.010036046929 0.010058760889 0.010079110339 0.010097097329 0.010112755527 0.010125848496 0.010136483878 0.01014465841 
0.010150370378 0.010153592621 0.01015435674 0.010152648286 0.0080638273383 0.0081429000215 0.0082216463755 0.0083000018218 0.0083779350878 
0.0084557767608 0.0085326296543 0.0086088581303 0.0086844027874 0.0087592097094 0.0088332044152 0.0089063394228 0.0089785493073 0.009049760455 
0.0091199231545 0.0091889838193 0.0092568510194 0.0093234743908 0.0093887935885 0.0094527293915 0.0095152663275 0.0095762286827 0.0096356056762 
0.0096930712679 0.009749091668 0.0098033259115 0.0098556548947 0.009906129285 0.0099546433877 0.010001167747 0.010045644945 0.01008799311 
0.010128159771 0.010166153922 0.010201812221 0.010235268045 0.010266381613 0.01029511549 0.010321437239 0.010345335462 0.010366820217 
0.010385664394 0.010401969676 0.010415730511 0.010426902991 0.010435484522 0.010441471904 0.010444843908 0.010445611966 0.010443792888 
0.0082581196594 0.008340560612 0.0084226947922 0.0085044514684 0.008585761594 0.008666569605 0.0087468134357 0.0088264383433 0.008905368938 
0.008983551822 0.0090609236388 0.0091374221264 0.009212952103 0.0092874765157 0.0093609427317 0.0094332212618 0.0095040499166 0.0095738676357 
0.0096423951585 0.0097094176089 0.0097749428757 0.0098388922434 0.0099011851424 0.009961764188 0.010020472162 0.01007737007 0.010132342904 
0.010185323996 0.010236244658 0.0102850813 0.010331733637 0.010376100257 0.010418306692 0.010458213282 0.01049575694 0.010530906566 
0.010563587375 0.010593906833 0.010621554579 0.010646628859 0.010669108287 0.010688923057 0.01070607366 0.01072051425 0.010732257662 
0.010741246519 0.010747507645 0.010751018238 0.01075180288 0.010749848957 0.0084608516064 0.0085468654373 0.0086325657869 0.0087178836663 
0.0088027765423 0.0088871767642 0.0089710151685 0.0090542249409 0.009136744847 0.0092184768831 0.0092994290005 0.0093792039553 0.0094582994469 
0.0095363319848 0.0096132607979 0.0096890180317 0.0097635937149 0.0098368044976 0.0099086102271 0.0099789242816 0.010047682878 0.01011481355 
0.010180151603 0.010243745287 0.010305438262 0.010365184074 0.010422901037 0.010478533856 0.010532007077 0.0105831693 0.010632175633 
0.010678873838 0.010723217639 0.010765151051 0.010804616543 0.010841632667 0.010876062324 0.010907837316 0.010936895496 0.01096329311 
0.010986933243 0.011007775663 0.011025801986 0.011040970503 0.011053296759 0.011062797078 0.011069346363 0.011073001203 0.011073763787 
0.011071655568 0.0086728352692 0.0087625814982 0.0088520393633 0.0089411343789 0.0090298157863 0.0091179923872 0.0092053823472 0.0092923895811 
0.00937871465 0.0094642654027 0.0095489604154 0.0096327793864 0.0097155883045 0.0097973425631 0.0098780408118 0.0099574824535 0.010035644968 
0.010112432683 0.010187775203 0.010261610117 0.010333765974 0.010404246909 0.010472954232 0.010539757526 0.010604580012 0.010667342454 
0.010727967504 0.010786320852 0.010842499797 0.010896383512 0.010947888605 0.010996977999 0.011043648439 0.011087740128 0.011129290338 
0.011168165539 0.011204354771 0.011237764653 0.011268403918 0.011296185739 0.011321056537 0.011343075559 0.011362040484 0.011377975495 
0.011390899879 0.011400796957 0.011407630024 0.011411420829 0.011412167256 0.011409898332 0.0088943874156 0.0089880970136 0.009081269995 
0.0091743582522 0.0092670405471 0.0093592430842 0.0094508947066 0.0095419386552 0.0096322748929 0.0097218320831 0.0098105674885 0.0098983422195 
0.0099851168739 0.010070881113 0.010155447818 0.010238791623 0.010320798848 0.010401412969 0.01048050159 0.010558042697 0.010633907063 
0.010708017394 0.010780217831 0.01085043177 0.0109185642 0.010984435278 0.011048209284 0.011109648756 0.011168696269 0.011225404713 
0.011279602319 0.011331245513 0.011381076262 0.011427483809 0.0114711802 0.011512068517 0.011550245787 0.011585460484 0.011617717383 
0.011646976381 0.011673159436 0.011696253631 0.011716212796 0.011732988705 0.011746555883 0.01175692466 0.01176410421 0.011768040962 
0.011768766601 0.011766326344 0.0091256629726 0.0092235619018 0.0093212036701 0.0094185111361 0.0095154246519 0.0096118726366 0.0097077835294 
0.0098030780704 0.0098977005029 0.0099914871715 0.01008441439 0.010176472772 0.010267438364 0.010357341032 0.010446117646 0.010533574118 
0.010619710243 0.010704333572 0.010787461803 0.010868973981 0.010948754546 0.011027387605 0.011103327393 0.011177062016 0.011248843709 
0.011318277099 0.011385332252 0.011449968796 0.011512112257 0.011571731603 0.011628747381 0.011683120406 0.011734827579 0.011783661821 
0.011829638136 0.011872763951 0.011912912209 0.011950037988 0.011984048396 0.012014885092 0.012042495796 0.012066811864 0.012087802683 
0.012105466478 0.012119784825 0.012130669965 0.012138144924 0.012142209107 0.012142861547 0.01214011089 0.0093675001864 0.0094698174435 
0.0095719113607 0.0096737003184 0.0097750914509 0.0098760332347 0.0099764447639 0.010076262399 0.01017532916 0.010273670755 0.010371146539 
0.010467612702 0.010563062434 0.010658089652 0.010751228046 0.010843060293 0.010933513379 0.011022473676 0.01110990592 0.011195643932 
0.011279568042 0.011361638598 0.011441428408 0.011519166971 0.011594632209 0.011667707046 0.011738301067 0.011806343883 0.011871766947 
0.011934612642 0.011994638183 0.012051886608 0.012106291314 0.012157749546 0.012206269277 0.012251732667 0.01229405711 0.01233321429 
0.01236910228 0.012401644193 0.01243077625 0.012456413072 0.012478530313 0.012497104296 0.012512118573 0.012523521433 0.012531311512 
0.012535512166 0.012536069771 0.012533090181 0.009619989927 0.0097269972262 0.0098337845117 0.0099402803319 0.010046406724 0.010152143905 
0.010257362326 0.010362575308 0.010466459329 0.010569505505 0.010671672408 0.010772898517 0.010873059582 0.010972144593 0.011069912079 
0.011166396822 0.011261476457 0.011355068624 0.011447145203 0.011537371458 0.011625548512 0.011711854405 0.011795993999 0.011877864246 
0.011957334406 0.012034360385 0.012108717645 0.012180376609 0.012249310904 0.012315432935 0.012378687663 0.012438985648 0.012496336911 
0.012550646685 0.012601829618 0.012649833049 0.012694523746 0.012735868006 0.012773755356 0.012808051936 0.01283877499 0.012865843418 
0.012889153798 0.012908726752 0.012924495967 0.012936444597 0.012944546826 0.012948844283 0.012949356508 0.012946089689 0.009883449461 
0.0099954000183 0.010107864104 0.010219352126 0.010330483314 0.010441250983 0.01055142121 0.010661040004 0.010769896786 0.010877973181 
0.010985201869 0.011091426379 0.011196604119 0.011300583034 0.01140333487 0.011504899477 0.011604905151 0.011703363475 0.011800158737 
0.011894995093 0.011987992825 0.012078901824 0.012167611567 0.012253894222 0.012337635869 0.012418725656 0.012497086286 0.012572649068 
0.012645293747 0.01271500136 0.012781659103 0.012845282596 0.012905803915 0.01296311788 0.013017154992 0.01306782866 0.01311506168 
0.01315869403 0.013198711717 0.013234981109 0.013267410015 0.013295925326 0.013320534771 0.013341147334 0.013357735788 0.013370214662 
0.013378685447 0.013383116152 0.013383497441 0.013379919512 0.010158668774 0.010275855393 0.010392866927 0.010509684352 0.010626115658 
0.010742114496 0.010857651476 0.010972528383 0.011086730903 0.011200168156 0.01131266582 0.011424183252 0.011534645347 0.011644059617 
0.011752095437 0.011858752287 0.011963976891 0.012067489599 0.012169397832 0.012269494299 0.012367486043 0.012463284799 0.01255669882 
0.012647636585 0.01273591761 0.012821413241 0.01290403786 0.012983704172 0.013060329997 0.013133814143 0.013204233214 0.013271374448 
0.013335245409 0.013395764395 0.013452859675 0.013506407488 0.013556304568 0.013602456346 0.013644761078 0.013683093176 0.013717361697 
0.013747514666 0.01377345515 0.013795118991 0.013812462432 0.013825579892 0.013834449117 0.013839002676 0.013839306083 0.013835384989 
0.010444340804 0.010567047861 0.010689662111 0.01081198907 0.010934007941 0.011055661771 0.011176780406 0.011297300975 0.011417137164 
0.011536190223 0.011654307235 0.011771606133 0.011887636572 0.012002543035 0.012116146296 0.012228385729 0.012339078493 0.012448185114 
0.012555515274 0.012660922257 0.012764163392 0.012865161669 0.012963676871 0.01305957902 0.013152690192 0.013242918039 0.013330082074 
0.013414125238 0.013494942313 0.013572532401 0.013646791542 0.01371768997 0.013784582857 0.01384854238 0.013908934115 0.013965527789 
0.014018298848 0.014067117278 0.01411185171 0.014152369186 0.014188575664 0.01422043513 0.014247811113 0.014270641859 0.014288967739 
0.014302669847 0.014311882976 0.014316557666 0.014316769369 0.014312490469 0.010741022757 0.010869645151 0.010998059175 0.011126333877 
0.01125427378 0.011381798135 0.011508836475 0.011635297096 0.011761111561 0.01188619315 0.012010303966 0.012133392459 0.012255420735 
0.012376246336 0.012495706016 0.01261382372 0.012730425881 0.01284536443 0.012958446688 0.013069478782 0.013178359516 0.013284871101 
0.013388792125 0.013489406562 0.013587660261 0.013682833886 0.013774827883 0.013863503766 0.01394885698 0.014030796066 0.0141092273 
0.014184125756 0.01425542703 0.014322999015 0.014386786293 0.014446665657 0.014502497807 0.014554099484 0.014601479349 0.014644365289 