# vtk DataFile Version 5.1
vtk output
ASCII
DATASET STRUCTURED_POINTS
DIMENSIONS 50 50 50
SPACING 0.002 0.002 0.002
ORIGIN 0.1742 -0.052672 0.02732
POINT_DATA 125000
FIELD FieldData 1
potential 1 125000 double
0.00054456895242 0.00054168287635 0.00053882857725 0.00053600470327 0.00053321124471 0.0005304503673 0.00052771663337 0.00052501057367 0.00052233430456 
0.00051968370515 0.00051705871341 0.00051445922617 0.00051188309671 0.00050933219163 0.00050680460746 0.00050430142507 0.00050182147948 0.00049936221036 
0.00049692443183 0.00049450711062 0.0004921065867 0.00048972085999 0.00048734646628 0.00048498261649 0.00048262625166 0.00048027405309 0.00047792835095 
0.00047558805999 0.00047325389316 0.00047092626338 0.00046860324965 0.00046629524595 0.0004639994921 0.00046171723235 0.00045945135202 0.00045720139714 
0.00045496898346 0.00045275289143 0.00045055341295 0.00044837033019 0.00044620233213 0.0004440493617 0.00044191131202 0.00043978738382 0.00043768057977 
0.00043559045443 0.00043351824344 0.00043146576998 0.00042943322393 0.00042742268997 0.00054474992233 0.00054186938246 0.00053901956507 0.00053620046023 
0.0005334126107 0.00053065623145 0.00052792667432 0.00052522663403 0.00052255312781 0.00051990544056 0.0005172831203 0.00051468523725 0.00051211191463 
0.00050956182546 0.0005070356882 0.00050453222919 0.00050205239346 0.00049959250942 0.00049715454749 0.00049473529415 0.00049233296446 0.00048994526883 
0.00048756984952 0.00048520406547 0.00048284726845 0.00048049729215 0.00047815129186 0.00047581311662 0.00047348161883 0.00047115793094 0.00046883921858 
0.00046653615811 0.00046424557099 0.00046196931543 0.0004597077448 0.00045746327724 0.00045523521825 0.00045302367019 0.00045082760219 0.00044864704777 
0.00044648125809 0.00044432994517 0.00044219329929 0.00044006968306 0.00043796317624 0.00043587297483 0.00043380080608 0.00043174823952 0.00042971567861 
0.0004277053583 0.00054467163649 0.0005417993126 0.00053895696271 0.00053614550942 0.00053336473084 0.00053061513767 0.00052789413909 0.00052519924641 
0.0005225320257 0.00051989076982 0.00051727328622 0.00051468048346 0.00051211076932 0.00050956485987 0.00050704029792 0.00050453928296 0.0005020607713 
0.00049960252453 0.00049716455782 0.00049474519095 0.00049234259987 0.00048995404857 0.00048757926671 0.00048521246385 0.00048285561155 0.00048050522063 
0.00047816289485 0.0004758279459 0.00047350058743 0.00047118203259 0.00046886905312 0.00046657167281 0.00046428731611 0.00046201709651 0.00045976200967 
0.00045752311196 0.00045530029756 0.00045309307493 0.0004509017211 0.00044872462484 0.00044656200444 0.00044441326389 0.00044227704726 0.00044015689568 
0.00043805185209 0.00043596331135 0.00043389280418 0.00043184155759 0.00042981071703 0.00042780211733 0.00054427797412 0.00054141609659 0.00053858466974 
0.00053578340488 0.00053301407352 0.00053027446644 0.00052756139389 0.00052487593428 0.00052221784337 0.0005195846402 0.00051697513525 0.00051438934861 
0.0005118269054 0.0005092857459 0.00050676736203 0.00050427152862 0.00050179662855 0.00049934139936 0.00049690532576 0.00049448700743 0.00049208683254 
0.00048969964169 0.00048732329366 0.00048495875387 0.00048260252921 0.00048025616057 0.0004779178975 0.00047558678575 0.00047326459415 0.00047094780116 
0.00046864581761 0.00046635564493 0.00046407897256 0.00046181606448 0.00045956858567 0.00045733588238 0.00045511934879 0.00045291790711 0.00045073127232 
0.00044855924523 0.0004464007317 0.0004442542233 0.00044212295992 0.00044000574624 0.00043790396856 0.0004358188473 0.00043375096441 0.00043170275598 
0.00042967584329 0.00042767129356 0.00054352582235 0.00054067723831 0.00053785945696 0.00053507319397 0.00053231534392 0.00052958787375 0.00052688785324 
0.00052421455809 0.00052156781428 0.00051894548493 0.00051634702325 0.00051377096505 0.00051121697215 0.00050868492602 0.00050617469146 0.0005036864913 
0.0005012169636 0.00049876799046 0.00049633601832 0.00049392133325 0.00049152296951 0.00048913703561 0.00048676525141 0.0004844027726 0.00048205196257 
0.00047970978915 0.00047737704155 0.00047505263847 0.00047273740639 0.00047042859226 0.00046813467615 0.00046585270769 0.00046358426045 0.00046133025001 
0.00045909115302 0.00045686692209 0.00045465728037 0.00045246316401 0.00045028276011 0.00044811621475 0.00044596363013 0.0004438223215 0.00044169581793 
0.00043958340214 0.00043748650631 0.00043540577292 0.00043334297182 0.00043129989557 0.00042927842283 0.00042727920798 0.00054238834177 0.00053955553896 
0.00053675496608 0.00053398369319 0.00053124187041 0.00052852976516 0.0005258448298 0.00052318646639 0.00052055337139 0.00051794568474 0.00051535950571 
0.00051279672997 0.00051025552012 0.00050773467781 0.00050523453375 0.00050275693877 0.00050029564765 0.00049785266134 0.00049542773783 0.00049301906484 
0.00049062475249 0.00048824518286 0.00048587728159 0.00048352265014 0.00048117796542 0.00047884276303 0.00047651693247 0.00047420066952 0.00047189009847 
0.0004695946936 0.00046731017637 0.00046503844128 0.00046277994691 0.00046053599478 0.00045830634825 0.00045609104675 0.00045389047611 0.00045170438602 
0.00044953174478 0.0004473725869 0.00044522506163 0.0004430928334 0.0004409724636 0.00043886708764 0.0004367760486 0.0004347017805 0.00043264574224 
0.00043060902699 0.00042859469239 0.0004266036494 0.00054085583624 0.00053804178003 0.00053525926325 0.00053250605374 0.00052978359843 0.0005270886559 
0.0005244217013 0.00052178046651 0.00051916466617 0.00051657250081 0.00051400316301 0.00051145549348 0.00050892786654 0.00050642262803 0.00050393579057 
0.0005014687036 0.00049901828036 0.00049658553433 0.00049416969308 0.00049176860918 0.0004893837766 0.00048701087872 0.00048465287206 0.00048230618845 
0.00047997016696 0.00047764418256 0.00047532791107 0.00047302153985 0.00047072164614 0.00046843710722 0.00046616400497 0.00046390377289 0.00046165704848 
0.00045942430902 0.00045720533551 0.00045500120209 0.00045281061334 0.00045063392126 0.00044847060152 0.00044632033985 0.00044418114355 0.00044205690034 
0.00043994489116 0.00043784731116 0.0004357641705 0.0004336981911 0.00043165067227 0.00042962310391 0.00042761797219 0.00042563598659 0.00053893508103 
0.00053614194086 0.00053337983468 0.00053064756151 0.0005279457231 0.00052527059163 0.00052262347331 0.00052000301672 0.00051740593245 0.00051483296547 
0.00051228340577 0.00050975291079 0.00050724196472 0.00050475151928 0.00050228002027 0.00049982679297 0.0004973904813 0.00049496983734 0.00049256635094 
0.00049017804762 0.00048780225543 0.00048544225226 0.0004830949552 0.00048075881302 0.00047843416864 0.00047611984915 0.00047381561608 0.00047151710519 
0.00046923372292 0.00046696207136 0.00046470237644 0.00046245516916 0.00046022123401 0.00045800086962 0.00045579505171 0.00045360273708 0.00045142343925 
0.00044925794828 0.00044710513561 0.00044496350212 0.00044283577088 0.00044072058478 0.00043861887878 0.00043653024271 0.00043445711978 0.00043240135881 
0.00043036393622 0.0004283469172 0.0004263527155 0.00042438209155 0.00053665363833 0.0005338827193 0.00053114280317 0.00052843212531 0.00052575295567 
0.0005231008053 0.00052047510013 0.00051787697515 0.00051530209986 0.00051274963823 0.00051021895198 0.00050770755956 0.00050521667654 0.00050274397855 
0.00050029009096 0.00049785406005 0.00049543210169 0.00049302816507 0.00049063990447 0.00048826430656 0.00048590441223 0.00048355815455 0.00048122418444 
0.00047890196288 0.00047659077068 0.00047429058407 0.00047200071196 0.00046971686418 0.00046744769353 0.00046519078905 0.00046294575265 0.00046071312696 
0.00045849336201 0.00045628710636 0.00045409450421 0.00045191536031 0.00044974900734 0.00044759557891 0.00044545505598 0.00044332459811 0.00044120769264 
0.0004391043872 0.00043701374225 0.00043493672632 0.00043287500994 0.00043083050977 0.00042880523755 0.0004267992802 0.00042481712737 0.00042285869657 
0.00053405154184 0.00053130412063 0.00052858744164 0.00052590116264 0.00052324551057 0.00052061773092 0.0005180161407 0.0005154390037 0.00051288689564 
0.00051035666066 0.00050784785868 0.00050535792212 0.00050288759893 0.00050043526507 0.00049800148364 0.00049558202427 0.00049318037518 0.00049079446667 
0.00048842157982 0.00048606501904 0.0004837223172 0.00048139313463 0.00047907585728 0.00047677015643 0.00047447564196 0.000472191728 0.00046991810296 
0.00046765063804 0.00046539840258 0.00046315695399 0.00046092754034 0.00045871071146 0.00045650628883 0.00045431534889 0.00045213720485 0.00044997219823 
0.00044781969605 0.00044567874368 0.00044354953989 0.00044143352576 0.00043933074894 0.00043723930436 0.00043516140001 0.00043309704191 0.00043104849519 
0.00042901610312 0.00042700387757 0.00042501243637 0.00042304405662 0.00042109944568 0.00053118243288 0.00052845983639 0.00052576881927 0.00052310673573 
0.00052047573715 0.00051787108422 0.00051529279368 0.00051274028021 0.00051021173867 0.00050770444126 0.00050521736683 0.00050275050347 0.00050030235382 
0.00049787239487 0.00049545909813 0.00049306202314 0.00049068112287 0.00048831350364 0.00048596265829 0.00048362602226 0.00048130263647 0.00047899203061 
0.00047669366444 0.00047440726044 0.00047213140816 0.00046986606708 0.000467606747 0.00046536206181 0.00046312778243 0.00046090480355 0.00045869225794 
0.00045649215765 0.00045430431399 0.00045212871399 0.00044996583464 0.00044781505115 0.00044567721218 0.00044355091773 0.00044143552632 0.00043933424532 
0.00043724423127 0.000435166663 0.00043310157058 0.00043105158917 0.00042901671803 0.00042699997999 0.00042500235958 0.0004230256434 0.00042107212198 
0.00041914251874 0.00052811011925 0.00052541271755 0.00052274577299 0.0005201078118 0.00051750148193 0.00051492142492 0.00051236773724 0.00050983906983 
0.0005073336483 0.0005048496505 0.00050238647476 0.00049994294585 0.00049751818352 0.00049510987134 0.00049272055549 0.00049034626989 0.00048798600926 
0.00048564273535 0.000483314499 0.00048099941312 0.00047869762935 0.00047640837769 0.0004741311363 0.00047186538047 0.00046961041481 0.00046736597499 
0.00046512694671 0.000462902097 0.00046068708976 0.00045848294386 0.00045628929125 0.0004541068849 0.00045193498478 0.00044977582748 0.00044762905748 
0.00044549410249 0.00044337112455 0.00044125812635 0.0004391596519 0.00043707232252 0.0004349959456 0.00043293302187 0.0004308836349 0.00042884894193 
0.00042682930984 0.00042482765251 0.00042284604796 0.00042088501713 0.00041894704704 0.00041703438335 0.0005248959027 0.00052222397958 0.00051958245308 
0.00051697194954 0.00051438719619 0.00051183137672 0.00050930229044 0.00050679719343 0.00050431528824 0.00050185464316 0.00049941504236 0.0004969937149 
0.00049459286245 0.00049220976037 0.00048984397785 0.00048749191457 0.00048515757529 0.00048283823756 0.00048053304185 0.00047824191553 0.00047596353879 
0.00047369773672 0.00047144388423 0.00046920084235 0.00046696820849 0.00046474088266 0.0004625279366 0.00046032409694 0.00045812994399 0.00045594576264 
0.00045377028294 0.00045160631525 0.0004494525905 0.00044731029907 0.00044517974411 0.00044306040053 0.00044095092827 0.00043885452761 0.00043677028171 
0.00043469808892 0.00043263788616 0.00043059037536 0.00042855714559 0.00042653820932 0.00042453520235 0.00042254993659 0.00042058466915 0.00041864022894 
0.000416718487 0.00041482199026 0.00052160888735 0.00051896139903 0.00051634410092 0.00051375742815 0.0005111969353 0.00050866432333 0.00050615819939 
0.00050367678919 0.00050121706904 0.00049877970851 0.0004963624814 0.00049396621491 0.00049158916082 0.00048923106526 0.00048688686627 0.00048456141667 
0.00048225195945 0.00047995738931 0.00047767683516 0.0004754106621 0.00047315693502 0.00047091602904 0.00046868613062 0.00046646711213 0.00046425820204 
0.00046205403545 0.00045986355567 0.00045768090284 0.000455507472 0.00045334375428 0.00045118907436 0.00044904403715 0.00044690824938 0.00044478282456 
0.00044266733862 0.00044056379847 0.0004384698649 0.00043638959981 0.00043432057447 0.00043226373895 0.00043021917602 0.00042818803763 0.00042617072578 
0.0004241686657 0.00042218264607 0.00042021421033 0.00041826597702 0.00041633900451 0.00041443510575 0.00041255393865 0.00051830742109 0.00051568362321 
0.00051308991716 0.00051052670328 0.00050798980825 0.00050547895611 0.00050299471388 0.00050053560444 0.00049809856655 0.00049568252563 0.00049328928478 
0.00049091595277 0.00048856280686 0.00048622662398 0.00048390878889 0.0004816084069 0.00047932379445 0.00047705469919 0.00047479961449 0.00047255849776 
0.0004703303876 0.00046811458311 0.00046590964065 0.00046371517489 0.00046152522101 0.00045934951592 0.00045718219803 0.0004550228427 0.0004528711305 
0.00045072845417 0.0004485931245 0.00044646560658 0.00044434805592 0.00044224032657 0.00044014173095 0.00043805216436 0.00043597595513 0.00043391041104 
0.00043185651463 0.00042981516854 0.00042778657466 0.00042577145187 0.00042377121918 0.00042178573929 0.0004198170819 0.00041786634656 0.0004159355102 
0.00041402650772 0.0004121389155 0.00041027390731 0.00051504648837 0.00051244509938 0.0005098734447 0.00050733205609 0.00050481683907 0.00050232874087 
0.00049986484095 0.00049742597622 0.0004950093106 0.00049261651201 0.00049024510924 0.00048789433484 0.00048556218246 0.00048325152057 0.00048095811091 
0.00047868207409 0.00047642233411 0.00047417822765 0.00047194884864 0.00046973269651 0.00046753016689 0.00046533882747 0.00046315910116 0.00046098943011 
0.00045882467985 0.00045667307578 0.00045452902687 0.00045239226801 0.00045026155782 0.00044813886354 0.00044602343684 0.00044391547658 0.00044181605118 
0.00043972546304 0.00043764306745 0.00043556999779 0.00043350859673 0.00043145809286 0.00042941960588 0.00042739374785 0.00042538106739 0.00042338224894 
0.00042139853976 0.00041943016891 0.0004174786502 0.00041554566186 0.0004136332792 0.00041174032164 0.00040986911805 0.00040802080208 0.00051187020178 
0.00050929010023 0.00050673927239 0.00050421842095 0.00050172374498 0.00049925567682 0.00049681073223 0.00049439165509 0.00049199689621 0.00048962471338 
0.00048727446431 0.00048494331574 0.00048263469554 0.00048034653331 0.00047807621083 0.00047582337664 0.00047358792477 0.0004713678481 0.00046916307859 
0.00046697214939 0.00046479417281 0.00046262870281 0.00046047399641 0.00045832445823 0.00045618827412 0.0004540590069 0.00045193804729 0.00044982342266 
0.00044771530793 0.0004456132629 0.00044351728473 0.00044142789546 0.00043934583635 0.00043727200875 0.00043520565157 0.00043314897043 0.00043110275894 
0.00042906748053 0.00042704394614 0.00042503351411 0.00042303681757 0.00042105389683 0.0004190867747 0.00041713544441 0.00041520125412 0.00041328536786 
0.0004113897705 0.00040951363738 0.0004076586971 0.00040582542989 0.00050881479515 0.00050625435027 0.00050372417865 0.0005012217164 0.00049874623879 
0.00049629563091 0.00049387116257 0.00049147060402 0.00048909459071 0.00048674145527 0.0004844088405 0.00048209960565 0.00047981238778 0.00047754554766 
0.00047529584714 0.00047306583787 0.00047085353501 0.00046865753168 0.00046647645222 0.00046430951278 0.00046215564252 0.00046001415842 0.00045788231407 
0.0004557563197 0.00045364333312 0.00045153824324 0.00044943924448 0.00044734676221 0.00044525904841 0.00044317726395 0.00044110066383 0.00043902994845 
0.00043696547137 0.00043490726857 0.00043285768959 0.0004308170899 0.00042878545365 0.00042676527407 0.00042475702325 0.0004227615419 0.00042077997767 
0.0004188133148 0.00041686203289 0.00041492727825 0.00041301059121 0.00041111189743 0.00040923170837 0.00040737163334 0.00040553176029 0.00040371376215 
0.00050590692024 0.00050336529162 0.00050085236202 0.00049836769715 0.00049590903449 0.00049347664089 0.00049107023306 0.00048868806553 0.00048632898527 
0.00048399181836 0.0004816786441 0.0004793882719 0.00047712122159 0.00047487382107 0.00047264613746 0.00047043686172 0.00046824581577 0.00046607149123 
0.00046391166953 0.0004617670731 0.00045963592323 0.0004575166671 0.00045540409863 0.00045330493804 0.0004512141459 0.00044913046418 0.00044705309459 
0.00044498104678 0.00044291361012 0.00044085131227 0.00043879378565 0.0004367405 0.00043469465439 0.00043265216897 0.00043061836225 0.00042859318164 
0.00042657747751 0.00042457153339 0.00042257780791 0.0004205974428 0.00041863137198 0.0004166798736 0.00041474455694 0.00041282589661 0.00041092600073 
0.00040904267637 0.00040717780982 0.00040533295699 0.0004035082325 0.00040170434828 0.00050316354554 0.00050063902102 0.00049814281588 0.00049567520544 
0.00049323352293 0.00049081903442 0.00048842767034 0.00048606183287 0.00048371700294 0.00048139794655 0.0004791027192 0.00047682977244 0.00047458000796 
0.00047235157996 0.0004701412861 0.0004679515009 0.00046578004539 0.00046362559313 0.00046148715742 0.00045936318695 0.00045725262155 0.00045515425157 
0.00045306224549 0.00045098411427 0.00044891382065 0.00044685061807 0.00044479322068 0.0004427408831 0.00044069292596 0.00043864918175 0.00043660952569 
0.00043457547382 0.00043254360879 0.00043051917392 0.00042850123549 0.00042649108511 0.00042449044693 0.00042249960488 0.00042052064203 0.00041855497112 
0.00041660365331 0.00041466736621 0.00041274732807 0.00041084369535 0.00040895891096 0.00040709082048 0.00040524125315 0.00040341009865 0.00040159996951 
0.00039980922589 0.00050059904863 0.00049808832494 0.00049560922803 0.0004931566613 0.00049073062348 0.00048833073806 0.00048595537825 0.0004836025156 
0.00048127597772 0.00047897280132 0.00047669219819 0.00047443517125 0.00047220146811 0.00046998902546 0.0004677970159 0.00046562391989 0.00046346932408 
0.00046133290762 0.00045921233271 0.00045710681315 0.00045501519207 0.00045293104816 0.00045086247916 0.00044880323478 0.00044675172737 0.00044470747557 
0.00044266855678 0.00044063457622 0.00043860477912 0.0004365792075 0.00043455812386 0.00043254044407 0.0004305247728 0.00042851648895 0.00042651412303 
0.00042451944545 0.00042253336648 0.00042055737331 0.00041859358764 0.00041664222927 0.00041470512896 0.00041278362284 0.00041087841291 0.00040899015637 
0.00040711854845 0.00040526504794 0.00040342945796 0.00040161245381 0.00039981490856 0.00039803671211 0.00049821819216 0.00049572415191 0.00049325962444 
0.00049082047327 0.00048840927087 0.00048602314175 0.00048365869294 0.00048132168447 0.00047900884444 0.00047671991913 0.00047445324592 0.00047221105727 
0.00046999056204 0.00046779212841 0.00046561522662 0.00046345777853 0.00046131933004 0.00045919840672 0.00045709396787 0.00045500479272 0.00045292932024 
0.00045086187068 0.00044880985727 0.00044676772077 0.00044473335335 0.0004427060047 0.00044068399542 0.00043866735005 0.00043665388182 0.00043464631576 
0.00043264140126 0.00043063810194 0.00042864038605 0.00042664765087 0.00042466095455 0.00042268120473 0.00042071020548 0.00041874883681 0.00041679967556 
0.00041486312604 0.0004129401766 0.00041103245162 0.00040914225303 0.00040726719323 0.00040540923007 0.00040356865013 0.00040174661884 0.00039994247318 
0.00039815689453 0.00039639026036 0.00049602834175 0.00049354751916 0.00049109468506 0.00048866925543 0.00048627068492 0.00048389505772 0.00048154622487 
0.000479221695 0.00047692096605 0.00047464413167 0.00047239046031 0.00047015963221 0.00046795167019 0.00046576547357 0.00046360109234 0.00046145590615 
0.00045933043811 0.0004572227788 0.00045513221283 0.00045305661304 0.00045099070549 0.00044894227086 0.00044690550785 0.0004448780649 0.00044285913148 
0.00044084683061 0.00043884055586 0.00043683956404 0.00043484352334 0.00043285065335 0.00043085979383 0.00042887392115 0.00042689215361 0.0004249144413 
0.00042294314357 0.0004209785109 0.00041902237548 0.00041707577304 0.00041514069418 0.00041321828176 0.0004113096836 0.00040941679021 0.0004075386924 
0.00040567696147 0.00040383191136 0.00040200482475 0.0004001946113 0.00039840216387 0.00039662842217 0.00039487263004 0.00049402728089 0.00049155866895 
0.00048911857986 0.00048670268185 0.00048431560747 0.00048195332911 0.00047961542104 0.00047730172121 0.00047501194323 0.00047274572705 0.00047050224817 
0.00046828180018 0.00046608411044 0.00046390806263 0.00046175357318 0.00045961928781 0.00045750451868 0.00045540788399 0.00045332856776 0.00045126464425 
0.0004492107178 0.00044717425474 0.00044514898806 0.0004431344919 0.00044112888952 0.00043912969889 0.00043713728424 0.00043515127591 0.000433169132 
0.00043119090578 0.0004292142324 0.00042724420415 0.00042527736849 0.00042331479856 0.00042135819805 0.00041940856589 0.00041746717152 0.0004155352954 
0.00041361482653 0.00041170623911 0.00040981248638 0.00040793249218 0.00040606759348 0.00040421844862 0.00040238611978 0.00040057011455 0.00039877189016 
0.00039699124354 0.00039522818873 0.00039348271822 0.00049221649306 0.00048975884311 0.00048732694569 0.00048492373152 0.0004825466573 0.00048019404758 
0.00047786571734 0.00047556132996 0.00047328054088 0.0004710231436 0.00046878829012 0.00046657681358 0.00046438625607 0.00046221865479 0.00046007182618 
0.00045794587087 0.00045583943587 0.00045375160551 0.00045168100853 0.00044962182785 0.0004475821712 0.00044555521333 0.00044354084277 0.0004415366034 
0.00043954179815 0.00043755489259 0.00043557577089 0.00043360084739 0.00043163140157 0.00042966442456 0.00042770332212 0.00042574642593 0.00042379401743 
0.00042184631377 0.00041990428921 0.00041796948737 0.00041604265778 0.00041412538291 0.00041221899589 0.00041032439022 0.00040844460862 0.00040657780234 
0.00040472728358 0.00040289073605 0.00040106972616 0.00039926581489 0.00039747871456 0.00039570839223 0.00039395575799 0.00039221978735 0.000490593053 
0.00048814380255 0.0004857231937 0.00048332843451 0.00048095999115 0.00047861538731 0.00047629502261 0.00047399856065 0.00047172477825 0.00046947427775 
0.00046724652995 0.0004650407666 0.00046285595095 0.00046069426248 0.00045855376773 0.00045643349126 0.00045433352724 0.00045225186286 0.00045018299877 
0.00044813551442 0.0004461030226 0.00044408420493 0.00044207785533 0.0004400826095 0.00043809690514 0.00043612072341 0.00043415039238 0.00043218647979 
0.00043022661529 0.00042827287004 0.00042632451495 0.00042438168084 0.00042244299993 0.00042050950653 0.00041858187665 0.0004166616253 0.0004147492649 
0.00041284676236 0.00041095455982 0.00040907509673 0.0004072077082 0.00040535422109 0.00040351515611 0.00040169115786 0.00039988206821 0.00039808901553 
0.00039631265619 0.00039455233454 0.00039280884457 0.00039108206645 0.00048915456306 0.00048671493902 0.00048430158913 0.00048191442931 0.00047955311513 
0.00047721551785 0.00047490141926 0.00047261067243 0.00047034245369 0.00046809693014 0.00046587381332 0.00046367250883 0.0004614928707 0.00045933411392 
0.00045719745902 0.00045508079279 0.00045298480536 0.00045090706599 0.00044884268265 0.00044679989456 0.00044477292332 0.00044276002152 0.00044075954325 
0.00043877090231 0.00043679349725 0.00043482396336 0.0004328623673 0.00043090754065 0.00042895699833 0.00042701431839 0.00042507730056 0.00042314557307 
0.00042121955511 0.00041929945645 0.00041738595012 0.00041548025198 0.00041358227125 0.00041169369734 0.0004098173248 0.00040795097918 0.00040609702754 
0.00040425683559 0.0004024299309 0.00040061793923 0.00039882090369 0.00039703884689 0.00039527250372 0.00039352169141 0.00039178708719 0.00039006894304 
0.00048790250043 0.00048546895021 0.00048306183325 0.00048068061127 0.00047832471574 0.00047599197019 0.00047368261083 0.00047139593378 0.00046913114825 
0.00046688835384 0.00046466806924 0.00046246908266 0.00046029162616 0.00045813534468 0.00045599912267 0.00045388440221 0.00045178945591 0.00044970972606 
0.0004476524403 0.00044561232832 0.00044358828218 0.00044157930026 0.00043958310799 0.00043760015414 0.00043562649428 0.00043366278299 0.00043170815633 
0.00042975921131 0.00042781893357 0.00042588541798 0.00042395833105 0.00042203797303 0.00042012419066 0.00041821694282 0.00041631680176 0.00041442494722 
0.00041254106325 0.00041066845388 0.00040880465787 0.00040695267095 0.00040511270387 0.00040328506614 0.00040147124114 0.0003996708566 0.0003978851869 
0.00039611376567 0.0003943572398 0.00039261591316 0.00039088917589 0.00038917894942 0.00048683426217 0.00048440550574 0.00048200295398 0.00047962546251 
0.00047727291316 0.00047494381766 0.00047263708681 0.00047035239368 0.00046808915377 0.00046584809117 0.00046362813567 0.00046142934477 0.00045925167345 
0.000457095243 0.00045495863221 0.000452843167 0.00045074818448 0.00044866803929 0.00044661164001 0.00044457230486 0.00044254968262 0.00044054205165 
0.00043854938709 0.00043656827862 0.00043459804565 0.00043263909936 0.0004306872638 0.00042874595605 0.00042681279026 0.00042488708901 0.00042296916115 
0.00042105874018 0.00041915622607 0.0004172613274 0.00041537425985 0.0004134956194 0.0004116259244 0.00040976759537 0.00040791804693 0.00040608020497 
0.0004042534928 0.0004024393754 0.00040063772843 0.00039884929894 0.00039707497246 0.00039531382332 0.00039356679807 0.00039183406168 0.00039011589522 
0.00038841288786 0.00048594943283 0.00048352311408 0.0004811232548 0.00047874784079 0.00047639690026 0.00047406889564 0.00047176315196 0.00046947874353 
0.00046721544661 0.00046497352941 0.00046275189843 0.00046055124647 0.00045837178362 0.00045621300486 0.00045407513289 0.00045195672657 0.00044985505333 
0.00044777762648 0.00044571945846 0.00044367948755 0.00044165609666 0.00043964992832 0.00043765683212 0.00043567702457 0.00043370944491 0.0004317522943 
0.00042980406419 0.00042786748397 0.00042593940735 0.00042402088486 0.00042211050242 0.00042020924455 0.00041831706902 0.00041643325614 0.00041455868122 
0.00041269312291 0.00041083883015 0.00040899347204 0.00040715849161 0.00040533395801 0.000403520645 0.00040172007572 0.00039993074008 0.0003981540221 
0.00039638981129 0.0003946388163 0.00039290087689 0.00039117680746 0.00038946657256 0.00038777065131 0.00048524610605 0.00048282104065 0.00048042184043 
0.00047804676758 0.00047569542472 0.00047336658347 0.00047105929507 0.00046877348393 0.00046650777597 0.00046426320185 0.00046203864542 0.00045983441337 
0.00045765065605 0.00045548818203 0.00045334582497 0.00045122464781 0.00044911830658 0.00044703757636 0.00044497602659 0.00044293407682 0.00044091008901 
0.00043890135161 0.00043690732912 0.00043492728127 0.00043296020806 0.00043100280213 0.00042905862159 0.0004271246411 0.00042520104647 0.00042328761801 
0.00042138442741 0.00041949124514 0.00041760742875 0.00041573460887 0.00041387188563 0.00041202007989 0.00041017818175 0.00040834650502 0.00040652546779 
0.00040471481897 0.0004029151399 0.00040112665604 0.00039934977722 0.00039758442748 0.00039583062185 0.00039408887298 0.00039235991783 0.00039064388289 
0.00038894106028 0.00038725135803 0.00048472358714 0.00048229750225 0.00047989726526 0.00047752039329 0.00047516685942 0.00047283513303 0.00047052470086 
0.0004682350254 0.00046596601845 0.00046371630573 0.00046148646116 0.00045927732889 0.00045708783152 0.00045491925561 0.00045277167268 0.00045064010841 
0.00044853320156 0.00044644790025 0.00044438229996 0.00044233770568 0.00044030933735 0.00043829687989 0.00043630087751 0.0004343198143 0.00043235017172 
0.00043039476238 0.00042845119504 0.00042651917567 0.00042459867869 0.00042268952665 0.00042079207474 0.00041890617097 0.00041703189163 0.00041516881944 
0.00041331823844 0.00041147770033 0.00040964844468 0.00040783034907 0.00040602243292 0.00040422549037 0.0004024395061 0.00040066311291 0.00039889784399 
0.00039714319651 0.00039539995015 0.00039366722603 0.00039194668497 0.00039023793475 0.00038854124655 0.0003868576693 0.00048437855157 0.00048194975714 
0.00047954657142 0.00047716630479 0.00047480871004 0.00047247232985 0.00047015708733 0.00046786136046 0.00046558614735 0.00046333029504 0.00046109426852 
0.00045887786551 0.00045668145086 0.00045450506512 0.00045234575699 0.00045021208615 0.0004480993463 0.00044600692124 0.00044393779006 0.0004418865098 
0.00043985422785 0.00043783907243 0.00043584026571 0.000433856419 0.00043188499186 0.00042992850663 0.00042798507443 0.00042605397777 0.00042413523605 
0.00042222976214 0.00042033704816 0.00041845727605 0.00041659058487 0.00041473799714 0.00041289682052 0.00041106776536 0.00040925093932 0.00040744568202 
0.00040565113923 0.00040386712274 0.00040209384186 0.00040032967526 0.00039857557669 0.00039683131963 0.00039509716699 0.00039337325758 0.00039165989186 
0.00038995783509 0.00038826719479 0.0003865891884 0.00048420688517 0.00048177429634 0.00047936571248 0.00047698046602 0.0004746165355 0.00047227343064 
0.00046995132521 0.00046764796702 0.00046536552127 0.00046310171036 0.00046085737862 0.0004586327837 0.00045642785648 0.00045424380926 0.00045207613456 
0.00044993476843 0.00044781629569 0.00044571725049 0.00044364009684 0.00044158315176 0.00043954595939 0.00043752665257 0.00043552354913 0.00043353476348 
0.00043156220973 0.00042960444889 0.00042765986404 0.0004257288068 0.00042381138875 0.00042190809364 0.00042001907862 0.0004181445647 0.00041628604514 
0.0004144406167 0.00041260899434 0.00041079120164 0.0004089861015 0.00040719297846 0.00040541141221 0.00040363997896 0.00040187842674 0.0004001260733 
0.00039838256864 0.00039664801354 0.00039492274732 0.00039320673344 0.00039150032083 0.00038980410495 0.00038811892562 0.00038644535637 0.00048420269816 
0.00048176431288 0.00047934839301 0.00047695550664 0.00047458420933 0.00047223288082 0.00046990200924 0.00046759141202 0.00046529907111 0.0004630260463 
0.00046077244835 0.0004585383972 0.00045632408398 0.00045412578785 0.00045195354705 0.00044980502293 0.00044767732535 0.00044557150252 0.00044348645218 
0.00044142338539 0.00043937999721 0.00043735612419 0.0004353471208 0.00043335615804 0.00043138081264 0.00042942001885 0.00042747388753 0.00042554248812 
0.00042362532028 0.00042172362628 0.00041983761117 0.00041796756623 0.00041611516897 0.00041427749641 0.00041245480815 0.00041064711037 0.0004088528545 
0.00040707163297 0.00040530199556 0.00040354262815 0.00040179213272 0.00040005066512 0.0003983174039 0.00039659228196 0.00039487506284 0.00039316519047 