# vtk DataFile Version 5.1
vtk output
ASCII
DATASET STRUCTURED_POINTS
DIMENSIONS 50 50 50
SPACING 0.002 0.002 0.002
ORIGIN 0.1742 -0.052672 0.02732
POINT_DATA 125000
FIELD FieldData 1
potential 1 125000 double
<<<<<<< HEAD
<<<<<<< HEAD
0.00046817783955 0.00046592013847 0.00046368336775 0.00046146679991 0.00045927131245 0.00045709626758 0.00045494170207 0.00045280669479 0.00045069297411 
0.0004485981303 0.00044652232069 0.00044446561395 0.00044242729306 0.00044040828184 0.00043840782959 0.00043642692002 0.00043446432851 0.00043252016502 
0.0004305941608 0.00042868593487 0.00042679330397 0.00042491511919 0.00042304922731 0.00042119523811 0.00041935134318 0.00041751568888 0.00041568999899 
0.00041387349746 0.00041206656567 0.00041026998446 0.00040848283904 0.00040671015472 0.00040495037673 0.00040320367854 0.00040147134613 0.00039975230711 
0.00039804665204 0.00039635347189 0.00039467228433 0.0003930027027 0.00039134411397 0.00038969644748 0.0003880602661 0.00038643599569 0.00038482547058 
0.00038322918336 0.00038164821948 0.00038008339722 0.00037853507907 0.00037700395338 0.0004683891724 0.00046613466538 0.00046390032898 0.00046168652474 
0.00045949402846 0.00045732161013 0.00045516938197 0.00045303798631 0.00045092567745 0.0004488325932 0.00044675786834 0.00044470171357 0.0004426639534 
0.00044064440053 0.00043864353658 0.00043666091664 0.00043469649378 0.00043274964829 0.00043082096627 0.00042890853195 0.00042701126028 0.0004251279101 
0.00042325704751 0.00042139707805 0.00041954800033 0.00041770833078 0.00041587657383 0.00041405529093 0.00041224380524 0.00041044335596 0.00040865250249 
0.00040687662736 0.00040511397106 0.00040336534414 0.00040163026564 0.00039990996234 0.00039820323134 0.00039650932953 0.00039482773375 0.00039315798737 
0.00039149974778 0.00038985283499 0.00038821786893 0.00038659453868 0.00038498535703 0.00038339043954 0.00038181111573 0.00038024793594 0.00037870139131 
0.0003771722295 0.00046840826304 0.00046615868591 0.00046392880156 0.00046171961313 0.00045953088799 0.00045736295528 0.00045521600469 0.00045308759604 
0.00045097894045 0.00044888915481 0.00044681718184 0.00044476338311 0.00044272719535 0.00044070912283 0.00043870812569 0.00043672546486 0.00043476057881 
0.0004328125202 0.00043088129188 0.0004289659165 0.00042706528993 0.00042517759806 0.00042330304795 0.00042143796311 0.00041958388163 0.00041773880962 
0.00041590382259 0.0004140789279 0.00041226450145 0.00041046120986 0.00040866811008 0.0004068900245 0.00040512579275 0.00040337582196 0.0004016402137 
0.00039991937231 0.0003982126223 0.00039651914643 0.00039483857525 0.00039317000288 0.00039151345304 0.00038986867388 0.00038823517613 0.00038661503751 
0.000385008267 0.00038341604338 0.00038183902286 0.00038027856685 0.00037873457278 0.00037720781503 0.00046819408578 0.00046595074244 0.0004637275096 
0.00046152452838 0.00045934281107 0.00045718102194 0.00045503881125 0.00045291613398 0.0004508130483 0.00044872817743 0.00044666060144 0.00044461068382 
0.00044257837483 0.00044056248418 0.00043856415224 0.00043658341725 0.00043461871334 0.0004326705856 0.00043073818188 0.00042882069523 0.00042691860137 
0.00042502842843 0.00042314897589 0.00042128102248 0.00041942290096 0.0004175755671 0.00041573817685 0.00041391088642 0.00041209438098 0.00041028751355 
0.0004084954584 0.00040671686427 0.00040495272742 0.00040320293901 0.00040146831168 0.00039974801627 0.00039804268117 0.00039635109853 0.00039467278395 
0.00039300700437 0.0003913534468 0.00038971140983 0.00038808216641 0.00038646552367 0.00038486257694 0.00038327383377 0.00038170032688 0.00038014305222 
0.00037860268861 0.00037707943198 0.00046771515732 0.00046547976636 0.00046326479829 0.00046107070119 0.00045889633164 0.00045674191479 0.000454607822 
0.00045249258597 0.00045039634399 0.00044831802516 0.00044625707912 0.00044421279482 0.00044218517144 0.0004401742984 0.00043818000527 0.00043620218021 
0.00043424005411 0.00043229414119 0.00043036217027 0.00042844451946 0.00042654068772 0.00042464818731 0.00042276824891 0.00042089806646 0.00041903916822 
0.00041719019603 0.00041535188727 0.00041352391098 0.00041170717302 0.00040990072901 0.00040810921907 0.00040633141633 0.00040456835275 0.00040282055622 
0.00040108808309 0.0003993707232 0.00039766783842 0.00039597990957 0.00039430516869 0.00039264352343 0.00039099446565 0.00038935708698 0.00038773272492 
0.00038612101223 0.00038452259521 0.00038293862434 0.00038136967332 0.00037981666053 0.00037828037619 0.00037676079834 0.00046695186801 0.00046472587326 
0.00046252129035 0.00046033625337 0.0004581717412 0.00045602674888 0.00045390189463 0.00045179587208 0.00044970813256 0.00044763858294 0.00044558494865 
0.00044354861822 0.00044152855393 0.00043952404024 0.00043753532641 0.00043556304307 0.00043360480535 0.00043166098955 0.00042973166516 0.00042781569292 
0.00042591202668 0.00042402082879 0.00042214052619 0.00042027214121 0.00041841378482 0.00041656553208 0.00041472787883 0.00041290117092 0.00041108415895 
0.00040928163473 0.00040749232511 0.00040571745082 0.00040395738475 0.00040221306462 0.00040048413045 0.00039877055332 0.00039707232682 0.00039538893504 
0.00039371933038 0.00039206321307 0.00039041938331 0.00038878888966 0.00038717026958 0.00038556453968 0.00038397192154 0.00038239345119 0.00038082980396 
0.00037928132641 0.00037774969744 0.00037623506886 0.00046589707559 0.00046368224277 0.00046148816898 0.00045931436681 0.00045716069209 0.00045502713985 
0.00045291334825 0.00045081797293 0.00044874067505 0.00044668056487 0.00044463720859 0.00044260997846 0.00044059796823 0.0004386026885 0.00043662172283 
0.00043465507063 0.00043270256283 0.00043076397861 0.00042883886858 0.00042692604511 0.00042502641177 0.0004231374143 0.00042126096046 0.00041939507825 
0.00041753959843 0.00041569439117 0.00041385969582 0.00041203630292 0.00041022299518 0.00040842432171 0.00040663933407 0.00040486898832 0.00040311394258 
0.00040137456915 0.0003996506514 0.00039794305823 0.00039625050343 0.000394573 0.00039290986711 0.00039126047812 0.00038962338085 0.00038799963673 
0.00038638801892 0.00038478898637 0.00038320281878 0.00038163063545 0.00038007295155 0.00037853036825 0.00037700414685 0.0003754943369 0.00046455634193 
0.00046235376911 0.0004601717966 0.00045801059677 0.00045586941483 0.00045374783977 0.00045164617421 0.00044956347288 0.00044749764969 0.00044544927934 
0.00044341810192 0.00044140122649 0.00043939929253 0.00043741279261 0.00043544084211 0.0004334823179 0.0004315378204 0.00042960602275 0.00042768764441 
0.00042578161544 0.00042388637176 0.00042200393078 0.00042013264661 0.00041827163286 0.00041642149534 0.00041458177898 0.00041275272583 0.00041093270485 
0.00040912711124 0.0004073345072 0.00040555602925 0.0004037921132 0.00040204347449 0.00040031051449 0.0003985940161 0.00039689319983 0.00039520759182 
0.00039353750509 0.00039188171954 0.0003902392118 0.00038861042333 0.00038699415835 0.00038538980321 0.00038379810071 0.00038221920165 0.0003806540118 
0.00037910270837 0.00037756629905 0.00037604599095 0.00037454197204 0.00046294969633 0.00046075969873 0.00045859111866 0.00045644265358 0.00045431513176 
0.0004522076082 0.0004501187772 0.00044804969934 0.0004459974378 0.00044396156595 0.00044194186762 0.00043993679514 0.00043794707196 0.00043597133251 
0.00043401001859 0.00043206192216 0.00043012602747 0.00042820392402 0.00042629461656 0.00042439597997 0.00042250992092 0.00042063530925 0.00041877153432 
0.00041691840802 0.00041507576324 0.00041324398448 0.00041142302271 0.00040961126869 0.00040781341972 0.00040602909724 0.00040425880711 0.00040250309669 
0.00040076260288 0.00039903788038 0.00039732929365 0.0003956366341 0.00039395936594 0.000392297325 0.00039065012072 0.00038901552027 0.00038739459888 
0.00038578653291 0.0003841908209 0.00038260685241 0.00038103544685 0.000379477184 0.00037793297319 0.00037640228888 0.00037488794437 0.00037338953197 
0.00046110689807 0.00045893041268 0.00045677540163 0.00045464131288 0.00045252785249 0.00045043490712 0.00044836065726 0.0004463039666 0.00044426560094 
0.0004422433148 0.0004402370283 0.00043824511987 0.00043626801026 0.00043430482057 0.00043235524449 0.00043041806361 0.00042849464342 0.0004265836814 
0.00042468383046 0.00042279699256 0.00042092165609 0.00041905784061 0.00041720452955 0.00041536180983 0.00041352966674 0.0004117080951 0.00040989734523 
0.00040809591661 0.00040630873411 0.00040453392361 0.00040277333082 0.00040102751126 0.00039929662481 0.00039758166605 0.00039588223723 0.00039419870296 
0.00039253048471 0.00039087671499 0.00038923750204 0.00038761232477 0.0003860005104 0.0003844008273 0.00038281342714 0.0003812375848 0.00037967385378 
0.00037812223964 0.00037658485787 0.00037506160767 0.00037355373354 0.00037206144265 0.00045906706945 0.00045690533494 0.00045476516443 0.00045264521328 
0.00045054628934 0.00044846683078 0.00044640636469 0.00044436461769 0.00044234047994 0.00044033212099 0.00043833908642 0.0004363612807 0.00043439790157 
0.00043244865936 0.00043051198479 0.00042858883604 0.00042667855941 0.00042477947953 0.0004228935507 0.00042101959684 0.00041915694825 0.00041730531807 
0.00041546461097 0.00041363486804 0.00041181532073 0.00041000637821 0.00040820623925 0.0004064194996 0.00040464462623 0.00040288244122 0.00040113322907 
0.00039939864705 0.00039767889529 0.00039597413239 0.00039428486694 0.00039261073011 0.00039095219484 0.00038930805945 0.00038767780787 0.00038606164521 
0.00038445825428 0.00038286705023 0.00038128713053 0.00037971941711 0.00037816329549 0.00037661965048 0.00037508937799 0.00037357292273 0.0003720715825 
0.00037058561522 0.00045687811559 0.00045473071332 0.00045260436476 0.00045049824391 0.0004484135336 0.00044634852448 0.00044430262869 0.00044227503706 
0.00044026464535 0.00043827052059 0.00043629195223 0.00043432851868 0.00043237964609 0.00043044399895 0.00042852245269 0.0004266138628 0.0004247169932 
0.00042283367636 0.00042096267642 0.00041910311271 0.00041725504319 0.00041541810608 0.0004135920594 0.00041177677516 0.00040997207006 0.00040817810417 
0.00040639261304 0.00040462020726 0.00040285924307 0.00040111072645 0.00039937506899 0.00039765321501 0.00039594456153 0.00039425122297 0.00039257302974 
0.00039090958871 0.00038926086591 0.00038762561206 0.00038600512744 0.00038439788131 0.00038280231214 0.00038121929688 0.00037964789274 0.00037808810391 
0.00037653947323 0.00037500314359 0.00037347985726 0.00037197015816 0.00037047532142 0.00036899617727 0.00045458520679 0.00045245219624 0.00045034028034 
0.00044824934017 0.00044617756009 0.00044412667294 0.00044209513086 0.00044008140987 0.00043808497598 0.00043610487067 0.00043414067058 0.00043219090105 
0.00043025690617 0.0004283370951 0.00042643055111 0.0004245364309 0.00042265639692 0.00042078889731 0.00041893352838 0.00041709017872 0.00041525832785 
0.00041343789602 0.00041162855282 0.00040982973294 0.00040804139691 0.00040626126721 0.00040449410217 0.00040273749676 0.00040099228439 0.00039925878137 
0.00039753685548 0.00039582856388 0.00039413333697 0.00039245195401 0.00039078518963 0.00038913231794 0.00038749278169 0.00038586701424 0.00038425550405 
0.00038265690629 0.00038107025877 0.0003794951751 0.00037793191053 0.00037637953424 0.00037483840738 0.00037330935879 0.00037179290612 0.00037029003044 
0.00036880156428 0.00036732863543 0.00045223918812 0.00045011975617 0.00044802135333 0.00044594384457 0.00044388592856 0.00044184828978 0.0004398300584 
0.00043783012764 0.00043584683333 0.00043388050277 0.00043192991879 0.00042999554021 0.0004280764072 0.00042617184375 0.00042427982483 0.00042240286575 
0.00042053925965 0.00041868839965 0.00041684983211 0.00041502374443 0.00041320923149 0.0004114065606 0.00040961467929 0.00040783359822 0.00040606304123 
0.00040430046574 0.00040255049092 0.00040081026071 0.00039908108693 0.00039736341185 0.00039565751148 0.00039396372169 0.00039228184737 0.00039061298953 
0.00038895671069 0.00038731464339 0.00038568513933 0.00038406933209 0.00038246653406 0.00038087614999 0.0003792974307 0.00037773032316 0.0003761741838 
0.00037462931175 0.00037309543971 0.00037157328636 0.00037006404043 0.00036856783438 0.00036708630377 0.00036561896042 0.00044988346877 0.0004477769875 
0.00044569163803 0.00044362728315 0.00044158278427 0.00043955725227 0.00043755149711 0.00043556455275 0.0004335945714 0.00043164089206 0.00042970478625 
0.00042778442337 0.00042588018671 0.00042398962707 0.00042211446918 0.00042025394665 0.00041840682861 0.00041657320842 0.0004147521332 0.00041294368553 
0.00041114715798 0.00040936261053 0.0004075889796 0.00040582624733 0.00040407131248 0.00040232929846 0.00040059728724 0.00039887523608 0.00039716310998 
0.00039546203597 0.00039377121096 0.00039209103831 0.00039042312018 0.00038876719624 0.00038712310044 0.0003854909006 0.00038387168148 0.00038226511433 
0.00038067063034 0.00037908815341 0.00037751709356 0.00037595714682 0.00037440852246 0.00037287038126 0.00037134359807 0.00036982853715 0.00036832602334 
0.00036683702283 0.00036536129153 0.00036389971754 0.00044755880515 0.00044546439272 0.000443391015 0.00044133866078 0.00043930615947 0.00043729361903 
0.00043529919068 0.00043332384738 0.00043136567194 0.00042942575802 0.00042750268295 0.00042559619483 0.00042370514656 0.00042183067706 0.00041997135421 
0.00041812674068 0.00041629623956 0.00041447957048 0.0004126761722 0.00041088515033 0.00040910684236 0.00040733999768 0.0004055849165 0.00040384065873 
0.00040210484612 0.00040038136697 0.00039866746443 0.00039696314437 0.00039526770441 0.00039358239932 0.00039190723945 0.00039024217082 0.00038858802987 
0.00038694489655 0.00038531216319 0.00038369033253 0.0003820811099 0.00038048309507 0.00037889683659 0.00037732195923 0.00037575817311 0.0003742052455 
0.00037266338091 0.0003711320762 0.00036961194269 0.00036810367997 0.00036660839824 0.00036512523598 0.00036365573277 0.00036219997632 0.00044529810418 
0.00044321503059 0.00044115281996 0.00043911160203 0.00043709034229 0.00043508885113 0.00043310521144 0.00043114091159 0.00042919545766 0.00042726771271 
0.00042535738395 0.00042346291681 0.00042158635491 0.00041972610973 0.00041788166584 0.00041605222832 0.00041423796312 0.00041243754971 0.00041065107584 
0.00040887771221 0.00040711698354 0.00040536860054 0.00040363186712 0.00040190377779 0.00040018825534 0.00039848195346 0.00039678590631 0.00039509886485 
0.00039342108373 0.0003917519811 0.00039009200506 0.0003884412742 0.00038680020695 0.00038516932135 0.00038354761825 0.00038193673441 0.00038033680155 
0.00037874747001 0.00037716873048 0.00037560123159 0.00037404460143 0.00037249820242 0.00037096302847 0.00036943842452 0.00036792499941 0.00036642317515 
0.00036493403068 0.00036345712782 0.00036199354431 0.00036054287659 0.00044312848758 0.00044105568022 0.00043900394606 0.00043697308504 0.00043496220272 
0.00043297017507 0.00043099800253 0.00042904407556 0.00042710933674 0.0004251926971 0.000423292935 0.00042141166421 0.00041954849248 0.0004177017017 
0.00041587041639 0.00041405591811 0.00041225705538 0.00041047285649 0.00040870262716 0.00040694593765 0.00040520221778 0.00040347100498 0.00040175086274 
0.00040004011577 0.00039834191531 0.00039665380029 0.00039497458749 0.00039330460924 0.00039164254285 0.00038998907797 0.00038834396441 0.00038670736568 
0.00038507930246 0.00038345933879 0.00038184922129 0.00038024875622 0.00037865735837 0.00037707639945 0.00037550550908 0.0003739448449 0.00037239455932 
0.0003708550404 0.00036932594206 0.0003678077608 0.00036630128744 0.00036480585007 0.00036332239109 0.0003618514543 0.00036039298234 0.00035894834181 
0.00044106932245 0.00043900627081 0.00043696409592 0.00043494261953 0.00043294068292 0.00043095859809 0.00042899627808 0.00042705283653 0.00042512756331 
0.00042322021023 0.00042133184878 0.00041946202644 0.00041761078849 0.00041577676312 0.00041395965799 0.0004121586686 0.00041037374836 0.00040860406519 
0.00040684819851 0.00040510686651 0.0004033790305 0.00040166367102 0.00039995821736 0.00039826581655 0.00039658389194 0.00039491164505 0.00039324860638 
0.00039159399911 0.00038994722454 0.00038830842481 0.00038667754003 0.00038505373068 0.00038343835172 0.00038182994512 0.00038023018595 0.00037863926112 
0.00037705718167 0.00037548366335 0.00037391995497 0.00037236627952 0.00037082282465 0.00036928927908 0.00036776656713 0.00036625466675 0.00036475457685 
0.00036326505619 0.00036178718412 0.0003603218984 0.00035886914376 0.00035742963454 0.00043913504466 0.00043708072647 0.00043504657544 0.00043303404848 
0.00043104113092 0.00042906881192 0.00042711452199 0.00042518017866 0.00042326364031 0.00042136661682 0.00041948895127 0.00041762961806 0.00041578889706 
0.00041396678068 0.00041216056431 0.00041037214252 0.00040860000835 0.00040684344459 0.00040510195136 0.00040337459616 0.0004016608323 0.00039995995121 
0.00039826889669 0.00039659140181 0.00039492415158 0.00039326671631 0.00039161817336 0.00038997789808 0.00038834539525 0.00038672008969 0.00038510204263 
0.00038349113326 0.00038188647039 0.00038028967719 0.0003786999948 0.00037711801448 0.00037554437184 0.00037397878973 0.00037242225961 0.00037087523175 
0.00036933806429 0.00036781085189 0.0003662942096 0.0003647880782 0.00036329377486 0.0003618101376 0.00036033815149 0.00035887791771 0.00035743093492 
0.00035599625722 0.00043733603374 0.00043528835033 0.00043326304664 0.0004312581517 0.00042927351171 0.00042730885171 0.0004253634015 0.00042343611427 
0.00042152942293 0.00041964163759 0.0004177723983 0.00041592259334 0.00041409159033 0.00041227933477 0.00041048475841 0.00040870677369 0.00040694602923 
0.00040520116638 0.00040347136291 0.0004017562276 0.00040005514316 0.00039836474774 0.00039668892811 0.0003950242351 0.00039337000372 0.00039172582397 
0.00039009018383 0.00038846279713 0.00038684297957 0.00038523032012 0.00038362438117 0.00038202523197 0.00038043113928 0.00037884456712 0.00037726430907 
0.00037569124162 0.00037412541443 0.00037256741965 0.00037101819033 0.00036947767 0.00036794638818 0.00036642540261 0.00036491490952 0.00036341492779 
0.00036192549773 0.00036044769719 0.00035898124784 0.00035752672121 0.00035608447991 0.00035465464143 0.00043567645049 0.00043363719994 0.00043161924414 
0.00042962117468 0.00042764422843 0.00042568680384 0.00042374694977 0.00042182845126 0.00041992939376 0.00041804979223 0.00041618857189 0.00041434704641 
0.00041252445152 0.00041072067246 0.00040893532023 0.00040716718131 0.00040541596615 0.00040368090848 0.00040196140144 0.00040025676996 0.00039856611947 
0.00039688659825 0.00039522161262 0.00039356822802 0.00039192543488 0.00039029251884 0.00038866818832 0.00038705244309 0.00038544399766 0.00038384255826 
0.0003822478309 0.00038065816461 0.00037907490449 0.00037749760303 0.00037592638427 0.00037436144509 0.00037280353363 0.00037125268414 0.00036971033462 
0.00036817644778 0.00036665143875 0.00036513598362 0.00036363166462 0.00036213704574 0.0003606532755 0.00035918047327 0.00035771954501 0.00035627033159 
0.00035483285739 0.00035340765284 0.00043416151612 0.00043212811202 0.00043011627439 0.00042812511098 0.00042615460148 0.00042420254069 0.00042227141534 
0.00042035970745 0.00041846730976 0.00041659445646 0.00041474079327 0.00041290565037 0.00041109033479 0.00040929373507 0.0004075158545 0.00040575497303 
0.00040401165356 0.00040228463702 0.00040057367776 0.00039887732504 0.00039719317609 0.00039552481483 0.00039386941781 0.00039222518216 0.00039059214538 
0.00038896866237 0.00038735431624 0.00038574846213 0.00038414979069 0.00038255816207 0.00038097232229 0.00037939279482 0.00037781894964 0.00037625005306 
0.0003746872356 0.0003731302249 0.00037157968197 0.00037003598061 0.00036850007581 0.00036697238931 0.00036545366348 0.00036394469649 0.00036244515867 
0.00036095601157 0.00035947751202 0.00035801077718 0.00035655469115 0.00035511015423 0.00035367785297 0.00035225728871 0.00043279007624 0.00043076265147 
0.0004287571568 0.00042677049917 0.00042480583843 0.00042286083539 0.0004209353559 0.00041902944568 0.00041714302395 0.00041527601609 0.00041342794042 
0.00041159866933 0.00040978925571 0.00040799831805 0.00040622599169 0.00040447141112 0.00040273424192 0.00040101361842 0.00039930910813 0.00039761949529 
0.00039594226032 0.0003942807831 0.00039263184834 0.00039099542095 0.00038936993684 0.00038775407069 0.00038614787268 0.00038455007307 0.00038296008207 
0.00038137707547 0.00037979916543 0.00037822860799 0.00037666279187 0.00037510195876 0.00037354661445 0.00037199702672 0.00037045359993 0.00036891669993 
0.00036738741136 0.00036586574771 0.00036435339701 0.00036285005951 0.00036135619988 0.00035987224802 0.00035839945265 0.00035693692877 0.00035548627194 
0.00035404708977 0.0003526195261 0.00035120369515 0.0004315633281 0.00042954112456 0.00042753910896 0.0004255589078 0.00042359924527 0.0004216591309 
0.00041973861772 0.00041783760168 0.00041595594439 0.0004140936123 0.00041225018001 0.00041042595807 0.00040862005559 0.00040683366066 0.00040506533579 
0.00040331523178 0.00040158241943 0.00039986642606 0.00039816641681 0.0003964794832 0.0003948094632 0.00039315277559 0.00039150967653 0.00038987843981 
0.0003882585374 0.00038664931491 0.0003850495721 0.00038345819969 0.0003818748633 0.00038029780382 0.0003787278641 0.0003771637947 0.00037560521041 
0.0003740516974 0.00037250335573 0.00037096074446 0.00036942390213 0.00036789360081 0.00036637046663 0.00036485486214 0.00036334862355 0.0003618507731 
0.00036036348569 0.00035888533238 0.0003574169129 0.00035595997321 0.0003545144021 0.00035307994151 0.0003516575136 0.00035024613258 0.0004304788393 
0.00042846036887 0.00042646385056 0.00042448766594 0.00042253224999 0.0004205960633 0.00041867958671 0.00041678266726 0.00041490454195 0.0004130457365 
0.00041120561023 0.00040938443843 0.00040758118573 0.00040579762836 0.00040403237838 0.00040228474179 0.0004005549528 0.00039884162761 0.00039714204623 
0.00039546039678 0.00039379340216 0.00039214033177 0.00039050065451 0.00038887346024 0.00038725755751 0.00038565259991 0.00038405731893 0.00038247107476 
0.00038089219645 0.00037932108541 0.00037775698188 0.00037619965759 0.00037464738417 0.00037310037394 0.00037155841218 0.00037002221112 0.0003684917063 
0.00036696789142 0.00036545078059 0.00036394172773 0.00036244070897 0.00036094864643 0.0003594661026 0.00035799352478 0.00035653063543 0.00035507856008 
0.00035363790148 0.00035220822276 0.00035079020325 0.00034938348977 0.00042953401546 0.00042752044907 0.00042552721125 0.00042355464102 0.00042160268533 
0.0004196699827 0.00041775657896 0.0004158624039 0.00041398697614 0.00041213041662 0.00041029238658 0.00040847319287 0.00040667240086 0.00040488952345 
0.00040312554733 0.0004013789653 0.00039965033254 0.00039793796537 0.00039623958808 0.00039455913063 0.00039289376404 0.0003912425588 0.00038960442583 
0.00038797913382 0.00038636571924 0.00038476324217 0.00038317120559 0.00038158831633 0.00038001278407 0.00037844618019 0.0003768867114 0.00037533349291 
0.00037378637508 0.00037224483439 0.00037070881196 0.00036917873974 0.00036765416918 0.0003661360214 0.00036462575865 0.00036312221628 0.00036162685892 
0.00036014055014 0.00035866324877 0.00035719590105 0.00035573876453 0.0003542920654 0.00035285615689 0.00035143103915 0.00035001761738 0.00034861555128 
0.00042872940646 0.0004267185067 0.00042472818496 0.00042275836366 0.00042080897634 0.00041887857301 0.00041696743356 0.00041507507382 0.00041320099373 
0.00041134545362 0.00040950826929 0.0004076895974 0.00040588913463 0.00040410677081 0.00040234163106 0.00040059485982 0.00039886511362 0.0003971505398 
0.00039545405543 0.00039377324931 0.00039210746757 0.00039045641087 0.00038881855727 0.00038719358716 0.0003855806469 0.00038397908615 0.00038238866841 
0.00038080698373 0.00037923471995 0.00037767083212 0.00037611444457 0.0003745652836 0.00037302265667 0.0003714858774 0.00036995494227 0.00036843020676 
0.0003669111481 0.00036539967427 0.00036389420289 0.00036239675218 0.00036090730637 0.00035942643202 0.0003579548298 0.00035649253115 0.00035504080634 
0.00035359919711 0.00035216828991 0.00035074825514 0.00034933868586 0.00034794109374 0.00042806201575 0.0004260533399 0.00042406514282 0.00042209694052 
0.00042014896305 0.00041822031501 0.00041631017414 0.0004144184173 0.00041254476231 0.00041068905541 0.00040885163269 0.00040703196994 0.00040523022873 
0.000403446521 0.00040167971451 0.00039993087274 0.00039819946854 0.00039648262326 0.00039478464905 0.00039310198465 0.00039143472082 0.00038978175913 
0.00038814250477 0.00038651663051 0.00038490278039 0.00038330116683 0.0003817095584 0.00038012905706 0.00037855791859 0.00037699544142 0.0003754413573 
0.00037389487019 0.00037235566836 0.00037082305446 0.00036929670402 0.00036777662581 0.00036626295436 0.00036475694382 0.00036325712842 0.00036176540375 
0.00036028160522 0.00035880637983 0.00035733995497 0.00035588315736 0.0003544367499 0.0003530002824 0.0003515741747 0.00035015876973 0.00034875430622 
0.0003473606556 0.00042753010758 0.00042552249971 0.00042353561213 0.00042156831086 0.00041962094205 0.00041769250763 0.00041578250686 0.00041389053382 
0.00041201612499 0.00041015920371 0.00040831982098 0.00040649803865 0.00040469404906 0.00040290749046 0.0004011385362 0.00039938602278 0.00039764916258 
0.00039593119144 0.00039422979343 0.00039254426901 0.00039087373452 0.00038921802097 0.00038757627133 0.00038594797803 0.00038433253254 0.00038272867212 
0.00038113554982 0.00037955418518 0.00037798254253 0.00037642086377 0.00037486762067 0.00037332293456 0.00037178628082 0.00037025663454 0.00036873419287 
0.00036721843516 0.00036571058311 0.00036420922531 0.0003627151629 0.00036122844183 0.0003597499962 0.00035828063429 0.00035681963179 0.00035536814947 
0.00035392634975 0.00035249488884 0.00035107354553 0.00034966294038 0.00034826300952 0.0003468740277 0.0004271308012 0.00042512408626 0.00042313746726 
0.00042117037757 0.0004192225499 0.00041729342444 0.00041538236351 0.00041348905119 0.00041161261527 0.00040975337004 0.00040791135267 0.00040608629651 
0.00040427837049 0.00040248811347 0.00040071467824 0.00039895876781 0.00039721680277 0.00039549451338 0.00039378841669 0.00039209912827 0.00039042450934 
0.00038876497767 0.00038711939792 0.00038548749485 0.00038386869913 0.00038226121183 0.00038066640996 0.00037908262205 0.00037750972371 0.0003759470437 
0.0003743940983 0.00037285018993 0.00037131498317 0.00036978803567 0.00036826888583 0.00036675752311 0.00036525367268 0.00036375709287 0.00036226818543 
0.00036078712854 0.00035931389461 0.00035784916876 0.00035639359847 0.00035494725726 0.00035351033167 0.00035208331006 0.00035066685893 0.00034926081019 
0.00034786543041 0.00034648051542 0.00042686189982 0.00042485511924 0.00042286840338 0.00042090043828 0.00041895147138 0.00041702058783 0.00041510746273 
0.00041321148088 0.00041133225507 0.00040946954233 0.00040762335434 0.00040579424515 0.00040398148435 0.00040218592116 0.00040040757827 0.00039864387279 
0.0003968987817 0.00039517130913 0.00039346022659 0.00039176560431 0.00039008616028 0.00038842151455 0.00038677128546 0.00038513512293 0.00038351127685 
0.00038190074986 0.0003803020698 0.00037871520788 0.00037713992167 0.00037557535894 0.00037402145879 0.00037247758082 0.00037094336316 0.00036941801028 
0.000367901922 0.00036639351052 0.00036489340327 0.00036340146776 0.00036191733222 0.00036044111331 0.00035897334576 0.00035751329884 0.00035606246511 
0.0003546208197 0.00035318892887 0.00035176635435 0.00035035432425 0.00034895262984 0.00034756103583 0.00034618041635 0.00042671965335 0.00042471230785 
0.0004227246229 0.00042075529147 0.00041880430761 0.00041687090499 0.00041495478774 0.00041305485874 0.00041117142016 0.00040930437697 0.00040745362782 
0.0004056189187 0.00040380060655 0.00040199915698 0.00040021241408 0.00039844479306 0.00039669398821 0.00039495955713 0.00039324288266 0.00039154205583 
0.00038985721898 0.00038818719743 0.00038653164563 0.00038489005021 0.00038326109865 0.00038164572364 0.00038004279859 0.00037845197165 0.00037687302484 
0.00037530607353 0.00037375031434 0.00037220545009 0.00037067115421 0.00036914755395 0.00036763293449 0.00036612733778 0.00036463065103 0.00036314265158 
0.0003616631013 0.00036019139671 0.00035872842497 0.00035727316115 0.00035582679563 0.00035438949156 0.00035296161293 0.00035154343479 0.0003501351936 
0.00034873748517 0.00034734999078 0.00034597353156 0.00042669973932 0.00042469163054 0.00042270191948 0.00042073056515 0.00041877650722 0.00041683927835 
0.00041491916153 0.00041301499094 0.00041112690652 0.00040925441744 0.00040739769309 0.00040555700483 0.00040373214103 0.000401923997 0.00040013028131 
0.00039835593286 0.00039659853361 0.00039485771998 0.00039313424589 0.0003914270935 0.00038973611811 0.00038806025327 0.00038639854838 0.00038475031355 
0.00038311620095 0.00038149578317 0.00037988784095 0.00037829211473 0.00037670907455 0.00037513850467 0.00037358001021 0.00037203339405 0.00037049909883 
0.0003689752296 0.00036746179826 0.00036595871054 0.00036446494971 0.00036298073269 0.00036150506989 0.00036003760228 0.00035857848224 0.00035712771454 
0.00035568539264 0.00035425208698 0.00035282820154 0.00035141386477 0.0003500093387 0.00034861512124 0.00034723159957 0.0003458587771 0.00042679667512 
0.00042478708692 0.00042279494742 0.0004208203125 0.00041886263542 0.00041692102973 0.00041499586647 0.00041308667911 0.00041119257757 0.00040931401031 
0.00040745085561 0.00040560335404 0.00040377147226 0.00040195361253 0.000400154703 0.00039837309254 0.00039660883634 0.00039486153397 0.00039313046674 
0.0003914166937 0.00038971883736 0.00038803695515 0.00038636838103 0.00038471461104 0.00038307468613 0.00038144789076 0.00037983419692 0.00037823354124 
0.00037664559804 0.00037507081066 0.00037350904074 0.0003719600165 0.00037042445306 0.00036890043945 0.00036738770863 0.00036588621938 0.00036439510169 
0.00036291368251 0.00036144145565 0.00035997785845 0.00035852219205 0.00035707520267 0.00035563677106 0.00035420720863 0.00035278670342 0.00035137506042 