# vtk DataFile Version 5.1
vtk output
ASCII
DATASET STRUCTURED_POINTS
DIMENSIONS 50 50 50
SPACING 0.002 0.002 0.002
ORIGIN 0.1742 -0.052672 0.02732
POINT_DATA 125000
FIELD FieldData 1
potential 1 125000 double
0.0037507803939 0.0037880501222 0.003825674791 0.0038636610948 0.003902011949 0.0039407295481 0.0039798103811 0.0040192661897 0.004059089963 
0.0040992868507 0.0041398590699 0.00418080411 0.004222127605 0.0042638345248 0.004305929216 0.0043484142264 0.0043912820161 0.0044345434944 
0.00447818556 0.0045222052967 0.0045665796914 0.0046112979819 0.0046563377471 0.0047017144648 0.0047474038023 0.0047934103187 0.0048397416955 
0.0048864039551 0.0049333569249 0.0049807155473 0.0050284508458 0.0050765694693 0.0051250700399 0.0051739442466 0.005223192015 0.0052727760956 
0.0053226739444 0.0053728502871 0.0054232690628 0.005473909182 0.0055248183194 0.0055758020223 0.0056269227731 0.0056781869307 0.0057295812339 
0.0057811096621 0.0058327815229 0.0058846032263 0.0059365808095 0.0059887323119 0.0038016098705 0.0038397292192 0.0038782178587 0.0039170800536 
0.0039563220551 0.0039959446867 0.0040359420999 0.0040763314293 0.0041170997668 0.0041582569465 0.0041997921007 0.0042417113601 0.0042840246461 
0.0043267310489 0.0043698327863 0.0044133398308 0.0044572446726 0.0045015461018 0.0045462427434 0.0045913262642 0.0046367779559 0.0046825913352 
0.0047287498616 0.0047752494099 0.004822102467 0.0048692410073 0.0049167688008 0.0049646504832 0.005012894548 0.0050615309069 0.0051105542802 
0.0051599847783 0.0052098150608 0.0052600449874 0.0053106494475 0.0053616102864 0.005412895997 0.0054644713579 0.0055163052244 0.0055684519969 
0.0056207074736 0.0056731381281 0.0057257182303 0.0057784524933 0.0058313354144 0.0058843672757 0.0059375702189 0.0059909311363 0.006044464391 
0.0060981898226 0.0038512158088 0.0038901920704 0.003929548983 0.0039692954695 0.0040094331089 0.0040499671883 0.0040908964218 0.0041322243941 
0.0041739442169 0.0042160639897 0.004258572668 0.0043014759398 0.0043447852282 0.0043884969959 0.0044326189989 0.0044771512153 0.0045220913195 
0.0045674381926 0.0046131907374 0.0046593426155 0.0047058811864 0.004752794813 0.0048000311577 0.0048476689538 0.0048956781775 0.0049440427818 
0.0049927759978 0.0050418942028 0.0050914037849 0.0051413248045 0.0051916611827 0.0052424184385 0.0052935941932 0.005345186164 0.0053971663063 
0.0054495149621 0.0055021975044 0.0055551832859 0.0056085354078 0.0056620257573 0.0057157364613 0.0057696293552 0.0058236978671 0.0058779309222 
0.0059323253816 0.0059869016214 0.0060416426859 0.0060965741434 0.0061516958461 0.0062070200541 0.0038992383372 0.0039390692762 0.0039792984373 
0.0040199334764 0.0040609700374 0.0041024250586 0.0041442843559 0.0041865492438 0.004229226241 0.0042723077817 0.004315797563 0.0043596935595 
0.0044040035814 0.0044487271687 0.0044938684861 0.0045394296482 0.0045854047156 0.0046317996258 0.0046786114459 0.0047257896294 0.0047734146563 
0.0048214301348 0.0048698246146 0.0049186027933 0.0049677702976 0.0050173325391 0.0050672903759 0.0051176481859 0.0051684322592 0.0052196470836 
0.0052713010846 0.0053233976301 0.0053759358261 0.0054288948515 0.0054822648914 0.0055360066698 0.0055900963766 0.0056445111425 0.0056992997026 
0.0057542503232 0.0058094261948 0.0058648017031 0.0059203648036 0.0059761211119 0.0060320511194 0.0060881695451 0.006144490577 0.006201006486 
0.0062577508639 0.0063147173267 0.0039454019522 0.003986085667 0.0040271860667 0.0040687083102 0.0041106445818 0.0041530067161 0.0041957976317 
0.0042390016224 0.0042826352484 0.00432668769 0.0043711526896 0.0044160407703 0.0044613502748 0.004507083917 0.0045532445235 0.0045998309201 
0.0046468141133 0.0046942548472 0.0047421293268 0.0047904113184 0.0048391179925 0.0048882165423 0.0049377382992 0.0049876678789 0.0050380067459 
0.0050887653031 0.0051399418845 0.0051915563875 0.0052436191805 0.0052961385786 0.0053491191038 0.0054025601791 0.0054564593488 0.0055107964994 
0.0055655626156 0.0056207134168 0.0056762327205 0.0057321783765 0.0057883223767 0.0058447361969 0.0059013893298 0.0059582580371 0.0060153454877 
0.0060726257231 0.0061301046608 0.0061877982605 0.0062457029709 0.0063038483492 0.0063622333346 0.0064208559474 0.0039895295551 0.0040310558064 
0.0040730232815 0.0041154172125 0.0041582536007 0.0042015219303 0.0042452365662 0.0042893849555 0.004333970424 0.0043789908007 0.0044244333523 
0.0044703101685 0.0045166172779 0.0045633312752 0.0046105052701 0.0046581177341 0.004706171352 0.0047546567993 0.0048035790098 0.0048529275105 
0.004902714341 0.0049529233063 0.0050035712531 0.0050546553259 0.0051061715456 0.0051581275937 0.0052105315714 0.0052634043012 0.0053167504017 
0.0053705778338 0.0054248847614 0.0054796804592 0.0055349494065 0.0055906817738 0.0056468450024 0.0057034172269 0.0057604628924 0.005817758434 
0.0058753641692 0.0059332542277 0.0059913955202 0.0060497926552 0.0061083924088 0.0061672167343 0.0062262557989 0.0062855398107 0.0063450634048 
0.0064048414905 0.0064648804192 0.0065251919922 0.0040315570599 0.0040739217878 0.0041167351386 0.004160001759 0.0042037272608 0.0042479050453 
0.0042925414989 0.0043376262454 0.0043831574751 0.004429134353 0.0044755268057 0.0045223862298 0.0045696863159 0.0046174399903 0.0046656336343 
0.0047142705727 0.0047633502643 0.0048128726329 0.0048628476983 0.0049132771845 0.0049641538945 0.0050154730347 0.0050672517093 0.005119484419 
0.0051721829431 0.0052253428735 0.0052789837448 0.0053331181829 0.0053877503978 0.0054428883936 0.0054985368666 0.0055546972687 0.0056113465103 
0.0056684730748 0.0057260460658 0.0057841449653 0.0058425379087 0.005901296495 0.0059603728275 0.0060197476878 0.006079403046 0.006139307404 
0.0061994474324 0.006259826883 0.0063204601382 0.0063813530513 0.0064425122296 0.0065039341832 0.0065656589654 0.006627669821 0.0040715437143 
0.0041147383667 0.0041583935127 0.0042025286348 0.0042471377828 0.0042922138693 0.0043377590183 0.00438377651 0.0044302291785 0.004477159603 
0.0045245421948 0.0045723862585 0.0046206805295 0.0046694329162 0.0047186371428 0.0047682875228 0.0048184010022 0.0048689834391 0.0049200259253 
0.0049715303906 0.0050235002682 0.0050759354195 0.0051288554131 0.005182247894 0.0052361356116 0.0052905089829 0.0053453925991 0.0054007919158 
0.0054567238007 0.0055131892197 0.0055701891525 0.0056277124422 0.0056857494764 0.0057442762234 0.0058033845977 0.0058628280909 0.0059226745664 
0.0059828969591 0.0060434615207 0.0061043454766 0.0061655106595 0.0062269481299 0.0062886444706 0.0063506047901 0.0064128457029 0.0064753702843 
0.0065381818178 0.0066012922177 0.0066647228604 0.0067284698012 0.0041096655982 0.0041536771292 0.0041981793108 0.004243170132 0.0042886510567 
0.0043346059886 0.0043810603247 0.0044279950559 0.004475404587 0.0045232931842 0.0045716466201 0.0046204637105 0.0046697510723 0.0047194964718 
0.0047697137985 0.0048204004706 0.0048715572948 0.0049231957704 0.00497530836 0.0050279019429 0.0050809770886 0.0051345449891 0.0051886136974 
0.0052431874158 0.0052982651759 0.0053538738742 0.005410014968 0.0054666997114 0.0055239362558 0.0055817334841 0.005640091175 0.0056989991278 
0.0057584301946 0.0058183851532 0.0058789225225 0.0059398202978 0.0060011397791 0.0060628499807 0.0061249326104 0.0061873162266 0.0062500243834 
0.0063130175714 0.0063763067243 0.0064398825428 0.0065037529506 0.0065679293432 0.0066324313871 0.0066972533199 0.0067624089912 0.006827902406 
0.0041462233656 0.0041910480303 0.0042363815941 0.0042822116312 0.0043285596138 0.0043754163435 0.0044227752942 0.0044706344736 0.0045189802132 
0.0045678101051 0.0046171335761 0.0046669293958 0.0047172006722 0.0047679583187 0.0048191967638 0.0048709184945 0.0049231331593 0.0049758414943 
0.0050290405136 0.0050827396104 0.0051369412576 0.0051916648611 0.0052469077102 0.0053026775709 0.005358977873 0.0054158308751 0.0054732441202 
0.0055312235569 0.0055897892551 0.005648936115 0.0057086635362 0.0057689636295 0.0058298126897 0.0058913041065 0.005953200466 0.0060155724154 
0.0060783775394 0.0061416047331 0.0062052034921 0.0062691399531 0.0063334175113 0.0063980076174 0.0064629162153 0.0065281435025 0.0065936818741 
0.0066595508561 0.0067257585673 0.00679231734 0.0068592404351 0.0069265295236 0.0041815718722 0.0042272003154 0.0042733655808 0.0043200537559 
0.0043672725772 0.0044150223742 0.0044632777261 0.0045120485228 0.0045613302519 0.0046111165239 0.0046613987015 0.0047121749839 0.0047634548578 
0.0048152334733 0.0048675106333 0.0049202857181 0.0049735714237 0.0050273624901 0.0050816672473 0.0051364964524 0.0051918542549 0.0052477458479 
0.0053041810809 0.0053611689996 0.0054187174766 0.0054768459482 0.0055355589586 0.0055948743468 0.0056547890047 0.0057153147868 0.0057764371804 
0.0058381515464 0.0059005435952 0.0059633940872 0.006026764211 0.006090634732 0.0061549792226 0.0062197392248 0.0062848881958 0.006350415679 
0.0064162974537 0.0064825166135 0.0065490812812 0.0066159819933 0.0066832218979 0.0067508118926 0.006818777287 0.0068871181138 0.0069558549495 
0.0070248769435 0.0042161473368 0.0042625969108 0.0043095926706 0.0043571279945 0.0044052251327 0.0044538524181 0.0045030151465 0.0045527110632 
0.0046029297216 0.0046536642933 0.0047049212517 0.00475669817 0.004808990702 0.0048618037688 0.0049151326494 0.0049689837158 0.0050233596012 
0.0050782655408 0.0051337169986 0.0051897019727 0.0052462342973 0.0053033268602 0.0053609959077 0.0054192372621 0.0054780703728 0.0055375141131 
0.0055975579496 0.0056582268169 0.0057195222465 0.0057814495129 0.0058440001558 0.0059072720518 0.0059710296201 0.0060353692695 0.0061002558409 
0.0061656628527 0.0062315453444 0.0062978735161 0.0063646273644 0.0064317782595 0.0064993051678 0.0065672073122 0.0066354660353 0.0067040936847 
0.0067730843198 0.0068424610449 0.0069122316182 0.0069823057908 0.0070529017748 0.0071239143723 0.0042504136512 0.0042976834253 0.0043455237456 
0.0043939218472 0.0044428762039 0.0044923968551 0.0045424771636 0.0045931002162 0.0046442642836 0.0046959708362 0.0047482187386 0.0048010043256 
0.0048543305146 0.0049081990021 0.0049626038409 0.0050175560921 0.0050730623094 0.0051291059246 0.0051857176103 0.0052429007278 0.0053006580896 
0.0053590000125 0.0054179403047 0.005477482375 0.0055376365311 0.0055984167385 0.0056598457251 0.0057219103823 0.0057846275155 0.0058479963079 
0.0059120008248 0.0059767505996 0.0060420187279 0.0061078790833 0.0061743254585 0.00624129727 0.0063087671169 0.0063767177995 0.0064451201868 
0.0065139477601 0.0065831719474 0.0066527986443 0.0067228204167 0.0067932314129 0.0068640418871 0.0069352622782 0.0070068018623 0.0070789079285 
0.0071514066106 0.0072243252947 0.0042848273062 0.0043329386321 0.0043816154902 0.0044308766446 0.0044807221598 0.0045311472459 0.0045821401125 
0.0046337073748 0.0046858341584 0.0047385297627 0.0047917904384 0.0048456129668 0.0048999964868 0.0049549456856 0.0050104597209 0.0050665431676 
0.0051231991033 0.0051804347534 0.0052382554067 0.0052966760406 0.0053556960971 0.0054153432874 0.0054755948256 0.0055364785953 0.00559800222 
0.0056601743523 0.0057230108983 0.0057865181982 0.005850688133 0.0059155449698 0.0059811651241 0.0060473467397 0.0061141611498 0.006181608459 
0.0062496354276 0.0063182177372 0.0063873394116 0.0064569618631 0.006527061628 0.0065976136958 0.0066686043876 0.0067400271107 0.0068118763933 
0.0068841450165 0.0069568424957 0.0070298702509 0.0071034953497 0.0071775340751 0.0072520183693 0.0073269528062 0.0043198230033 0.004368764571 
0.0044183044947 0.0044684525456 0.0045192039085 0.0045705366363 0.0046224722922 0.0046750056163 0.0047281267967 0.0047818342409 0.0048361301204 
0.0048910105292 0.0049464888405 0.0050025491542 0.0050592011012 0.0051164560981 0.0051743095417 0.0052327828586 0.005291860524 0.005351571016 
0.0054118963523 0.0054728715679 0.0055344868788 0.0055967579033 0.0056597023011 0.00572332471 0.0057876281186 0.0058526280595 0.0059183220975 
0.0059848103815 0.0060518921585 0.0061196508646 0.0061880795592 0.006257145593 0.0063268111725 0.0063970691997 0.0064678879222 0.0065392465693 
0.0066111115902 0.0066834621947 0.0067562895626 0.0068295770109 0.0069033264779 0.0069775370004 0.0070521283783 0.0071272710801 0.0072028737266 
0.0072789504115 0.0073555074662 0.0074325232477 0.004355764358 0.0044055680151 0.0044559885884 0.0045070444702 0.0045587111729 0.0046109985302 
0.0046639013558 0.0047174241228 0.0047715586219 0.0048263069255 0.0048816695755 0.0049376423132 0.0049942453837 0.0050514682299 0.0051093041451 
0.0051677710519 0.0052268689657 0.0052866058217 0.0053469911685 0.0054080185236 0.0054697143533 0.0055320818998 0.0055951155844 0.0056588369821 
0.0057232535088 0.0057883794918 0.0058542115497 0.0059207625832 0.0059881289451 0.0060561072684 0.0061248031461 0.0061941994548 0.0062642934561 
0.0063350362441 0.0064064210697 0.0064784177183 0.00655101334 0.0066241697758 0.0066978777588 0.0067721092445 0.0068468455423 0.0069220825601 
0.00699781329 0.0070739582432 0.0071506737042 0.0072279008057 0.0073056150402 0.0073838296068 0.0074625452062 0.0075417443263 0.0043929850818 
0.0044436761096 0.0044950149938 0.0045469933803 0.0045996095679 0.0046528720636 0.0047067768624 0.0047613202712 0.0048165035286 0.0048723317761 
0.0049288031516 0.0049859124472 0.0050436690584 0.005102075507 0.0051611408525 0.0052208587153 0.0052812502672 0.0053423102277 0.005404045062 
0.0054664658364 0.0055295753758 0.0055933827686 0.0056579023616 0.0057231305127 0.0057890836895 0.0058557669558 0.0059231870207 0.005991347671 
0.0060603547316 0.0061299871946 0.0062003641099 0.0062714665287 0.0063432743979 0.0064157720877 0.0064889480087 0.0065627654424 0.0066372152235 
0.0067122540547 0.0067878686744 0.0068640536374 0.0069407848332 0.0070179734641 0.007095780971 0.00717411255 0.0072529838277 0.0073323773109 
0.0074122926627 0.0074927411885 0.007573712229 0.0076550238365 0.0044317590876 0.00448336764 0.0045356405181 0.0045885807117 0.0046421843542 
0.0046964530114 0.0047513971226 0.0048069906136 0.004863260727 0.0049202038109 0.0049778117543 0.0050360923107 0.0050950579523 0.0051547025731 
0.0052150359256 0.0052760671009 0.0053377956127 0.00540022974 0.0054633708854 0.0055272333329 0.005591816663 0.0056571317135 0.0057231866676 
0.0057899815067 0.00585752912 0.0059258404094 0.0059949094891 0.00606485497 0.0061354444779 0.0062068121052 0.0062789450897 0.0063518288423 
0.006425435468 0.0064997721953 0.0065748055763 0.0066505237171 0.0067268862724 0.0068038926411 0.0068815155448 0.006959741484 0.0070384833969 
0.007117882293 0.0071978515388 0.0072783943419 0.0073595143994 0.0074411815327 0.0075234101839 0.0076061945487 0.0076893639575 0.007773215557 
0.0044722799165 0.0045248378422 0.0045780879211 0.0046320274383 0.0046866533829 0.0047419682515 0.0047979673572 0.0048546691207 0.0049120679067 
0.0049701596861 0.0050289542643 0.0050884527446 0.005148672916 0.0052096115257 0.005271276378 0.0053336585735 0.0053967788651 0.0054606411046 
0.0055252503835 0.0055906039632 0.0056567240989 0.0057235979208 0.0057912529153 0.0058596760356 0.0059288833621 0.0059988792053 0.0060697732306 
0.0061413456692 0.0062137164612 0.0062868823345 0.0063608439288 0.0064355722461 0.0065110756385 0.0065873288052 0.0066643028137 0.0067419989373 
0.0068203884203 0.0068994494492 0.0069791672513 0.0070594581629 0.0071404632713 0.007222089865 0.0073043338951 0.0073871940575 0.0074706548057 
0.0075547228746 0.0076393619152 0.0077245853657 0.0078102204387 0.007896627047 0.0045147056372 0.0045682492429 0.0046225104634 0.0046774846248 
0.0047331630464 0.0047895645653 0.0048466958014 0.0049045370822 0.0049630978639 0.0050223891172 0.0050824208404 0.0051431920524 0.005204712332 
0.0052669978477 0.0053300310562 0.0053938273458 0.0054583976017 0.0055237416846 0.0055898695056 0.0056567830785 0.0057244929455 0.0057929922305 
0.0058623010564 0.0059324190753 0.0060033516195 0.0060751183217 0.0061477796518 0.0062211717374 0.0062953921879 0.0063704390551 0.006446292545 
0.0065229621349 0.0066004369421 0.0066786869928 0.006757703317 0.0068374683805 0.0069179763735 0.0069991910897 0.0070810356999 0.0071636490387 
0.0072469423146 0.0073308983505 0.0074155419091 0.0075008125976 0.0075867302683 0.0076732691436 0.0077604300139 0.007848069232 0.0079365198807 
0.0080254770591 0.0045591336318 0.0046137099119 0.0046690233137 0.0047250639614 0.004781856066 0.0048393974555 0.0048976745148 0.0049566977688 
0.0050164827538 0.0050770321952 0.0051383496348 0.0052004454828 0.0052633248963 0.0053269977888 0.0053914627125 0.0054567211548 0.0055227962107 
0.0055896796994 0.0056573876433 0.0057259158627 0.0057952793334 0.0058654699152 0.0059365081687 0.006008383153 0.0060811132244 0.0061547838953 
0.0062292121759 0.0063044910908 0.0063806413912 0.0064576371316 0.0065354871395 0.0066141902731 0.0066937135125 0.0067740573728 0.0068552056297 
0.0069371502228 0.0070199281542 0.00710326097 0.0071874952654 0.0072724701591 0.007358155135 0.0074445603762 0.0075316753132 0.0076194777605 
0.0077079638052 0.0077971297277 0.0078869422282 0.0079773222178 0.0080684167593 0.0081601182611 0.0046056596896 0.0046612919914 0.0047176996104 
0.0047748673651 0.0048328146776 0.0048915172115 0.0049509986523 0.0050112642073 0.0050723196899 0.0051341729609 0.0051968310923 0.0052603008206 
0.0053245823841 0.00538970382 0.0054556555995 0.0055224408194 0.005590077631 0.005658562751 0.0057279077024 0.0057981134885 0.0058691958031 
0.0059411400513 0.0060139585782 0.0060876726721 0.0061623470827 0.0062378260534 0.0063141750142 0.0063914377462 0.006469594167 0.0065486377605 
0.0066285699995 0.0067093779801 0.0067910527422 0.0068735876894 0.0069569747111 0.0070412550223 0.0071261574351 0.007212005017 0.0072986570346 
0.0073860928244 0.0074742847532 0.0075632448552 0.0076529647875 0.0077434143563 0.007834588721 0.0079264698984 0.0080189839534 0.008112253923 
0.0082061663243 0.0083007442494 0.0046543157414 0.0047110634195 0.0047686103642 0.0048269492423 0.0048860723664 0.0049460007798 0.0050067336813 
0.0050682878623 0.0051306630194 0.0051938740963 0.0052579244339 0.0053228216032 0.0053885758442 0.005455200934 0.0055226978613 0.0055910651996 
0.0056603254952 0.0057304739894 0.0058015325961 0.0058734753388 0.005946329719 0.0060200955135 0.0060947855059 0.0061703724159 0.0062470016391 
0.0063244469249 0.0064028225528 0.0064821376126 0.0065623755012 0.0066435470382 0.0067256499151 0.0068086645705 0.0068925987754 0.0069774312343 
0.0070632233801 0.0071496783026 0.0072371573726 0.0073254811689 0.0074146513479 0.0075046617613 0.007595481031 0.0076871212508 0.0077795561458 
0.0078727781672 0.0079667563109 0.0080615841553 0.008156929071 0.0082531235434 0.0083501192306 0.0084477502513 0.0047051542084 0.0047630559333 
0.0048217836784 0.004881318077 0.0049416849433 0.0050028846973 0.0050649268661 0.0051278194126 0.0051915704126 0.0052561922957 0.005321687129 
0.0053880734406 0.0054553542526 0.0055235393721 0.0055926406862 0.0056626512123 0.0057335964701 0.0058054821918 0.0058782983271 0.0059520529435 
0.0060267604707 0.0061024262691 0.0061790185668 0.0062566970796 0.0063352357666 0.0064147389556 0.0064952152287 0.0065766632974 0.0066590939311 
0.006742486755 0.0068268402296 0.0069121666287 0.0069984517924 0.0070857489328 0.0071737665879 0.0072628587326 0.0073528729972 0.0074437979547 
0.00753562653 0.0076283332048 0.0077219042248 0.0078163524998 0.0079116574052 0.0080077648641 0.0081047650138 0.0082023375812 0.0083009703147 
0.0084002580801 0.0085003038941 0.0086009470779 0.0047581983232 0.0048173088109 0.0048772522903 0.0049380433075 0.0049996985647 0.005062216822 
0.0051256131454 0.0051898996574 0.0052550777019 0.0053211621837 0.0053881645215 0.0054560889651 0.005524953476 0.0055947643544 0.0056655224505 
0.0057372503805 0.0058099463973 0.0058836158151 0.0059582669402 0.0060339049132 0.0061105450488 0.0061881517153 0.0062668648478 0.0063464858171 
0.0064271187401 0.0065087699857 0.0065914408104 0.0066751106984 0.0067597988968 0.0068455058205 0.0069322264075 0.0070199598991 0.0071087607468 
0.0071983391093 0.0072890716558 0.007380778855 0.0074734623243 0.0075671087888 0.007661705977 0.0077572525362 0.007853714028 0.0079510776489 
0.0080493534868 0.0081485808848 0.0082485510345 0.0083494023098 0.0084510105656 0.0085535179634 0.0086568052741 0.0087608503883 0.004813490275 
0.0048738338866 0.004935043656 0.0049971341282 0.0050601252149 0.0051240182342 0.0051888218637 0.0052545531058 0.0053212113332 0.0053888169991 
0.005457380119 0.0055269059779 0.0055974040202 0.0056688943024 0.0057413927011 0.005814887983 0.0058893983206 0.0059649310616 0.0060414878546 
0.0061190915071 0.0061977143989 0.0062773743818 0.0063581798212 0.0064399525799 0.0065227641668 0.0066066416658 0.0066915706253 0.0067775623423 
0.0068646163757 0.0069527204413 0.0070419193255 0.0071322399788 0.0072233864348 0.0073157447012 0.0074091483437 0.0075035913412 0.0075990911245 
0.0076955827483 0.0077930737492 0.007891552107 0.0079910193932 0.0080914660153 0.0081928386975 0.0082952707612 0.0083983413258 0.0085024590056 
0.0086074821813 0.0087133284567 0.0088200438294 0.0089275602465 0.0048710336648 0.0049326607414 0.0049951865612 0.0050586289933 0.0051230065606 
0.0051883098487 0.0052545723413 0.0053217958141 0.0053899927397 0.005459178569 0.0055293575664 0.0056005496839 0.0056727633361 0.0057460052961 
0.00582029284 0.0058956229188 0.0059720236803 0.0060494932771 0.0061280420279 0.0062076646543 0.0062883698236 0.0063702595789 0.0064531440498 
0.0065371391159 0.0066222250919 0.0067084179508 0.0067957063628 0.0068841078457 0.006973622532 0.0070642611502 0.0071560913054 0.0072487908504 
0.0073427740497 0.0074378721478 0.0075341112847 0.0076314172161 0.0077297994586 0.0078292533011 0.0079297837049 0.0080313741253 0.0081339279642 
0.0082377510017 0.0083423619565 0.0084478385639 0.008554431942 0.0086619979238 0.0087704562068 0.0088798499509 0.0089901350573 0.0091012866187 
0.0049308636137 0.004993820395 0.0050577135385 0.0051225575948 0.0051883673783 0.0052551507779 0.0053229247211 0.005391699985 0.0054614883238 
0.0055323078037 0.005604169335 0.0056770861092 0.0057510639798 0.0058261202548 0.0059022612727 0.0059795063077 0.0060578736338 0.0061373571366 
0.006217974776 0.0062997012647 0.0063825654722 0.0064666722842 0.0065518196087 0.0066381182195 0.0067255543069 0.0068141496813 0.0069039108248 
0.006994832358 0.0070869223201 0.0071802579804 0.0072745104458 0.0073701615826 0.0074669484774 0.0075649127533 0.0076640383319 0.0077643305984 
0.0078657513299 0.0079682960693 0.0080719834367 0.0081769307802 0.0082828918728 0.0083898435438 0.008497886968 0.0086068171861 0.0087169563099 
0.0088280564861 0.0089401810382 0.0090532620028 0.0091672866231 0.0092822585882 0.0049930465079 0.0050573808999 0.0051226860202 0.0051889718321 
0.0052562643462 0.005324574927 0.0053939141756 0.0054642945558 0.0055357348423 0.0056082417693 0.0056818472546 0.0057565544147 0.0058323576703 
0.0059092969342 0.0059873742344 0.0060666050861 0.0061470074242 0.0062285828335 0.0063113300549 0.0063952482577 0.0064804588853 0.0065667669961 
0.0066542589406 0.0067429710619 0.0068328671591 0.006923979159 0.0070163004075 0.0071098506905 0.0072046860459 0.0073005420397 0.0073977706778 
0.007496235241 0.0075959543373 0.0076969045225 0.0077990850064 0.0079024572585 0.0080070813379 0.0081129034236 0.0082200473461 0.0083282958748 
0.0084376273612 0.0085480878665 0.0086595438055 0.0087722669862 0.0088860692817 0.0090009572616 0.0091168830344 0.0092338296946 0.009351793522 
0.0094704099086 0.005057619292 0.0051233695461 0.0051901325387 0.0052579120864 0.0053267394956 0.0053966236155 0.0054675944446 0.0055396381905 
0.0056127901976 0.0056870570012 0.0057624474127 0.0058389865118 0.0059166960421 0.0059955843803 0.0060756784747 0.0061569713464 0.0062394880079 
0.0063232180942 0.0064081750765 0.0064944797046 0.0065819266439 0.0066706288359 0.0067605941832 0.0068518032437 0.006944261019 0.0070379828035 
0.0071329725683 0.0072293719801 0.0073267397626 0.0074255886402 0.0075257283296 0.0076271845156 0.0077299272403 0.0078339907707 0.0079393752195 
0.0080460336122 0.0081539778747 0.0082633526016 0.0083738874794 0.0084855973744 0.0085985138925 0.0087126966353 0.0088278991821 0.0089443950522 
0.0090620205077 0.0091808184369 0.009300709414 0.0094213659119 0.0095434587451 0.0096665728617 0.0051246129421 0.0051918332625 0.0052601103834 
0.0053294392329 0.0053998508752 0.0054713647847 0.0055439964555 0.0056177671326 0.0056926834235 0.0057687587374 0.0058460054296 0.0059244658586 
0.0060041400113 0.0060850600213 0.0061672223685 0.0062506605373 0.0063353545396 0.0064213316723 0.0065085889786 0.0065972787378 0.0066871674592 
0.0067783792694 0.006870880525 0.0069646869693 0.0070598095555 0.0071562988595 0.0072541645185 0.0073530892515 0.0074535452678 0.0075553638754 
0.0076585358659 0.0077631031829 0.0078690217202 0.0079763470539 0.0080850437506 0.008195273543 0.0083067412969 0.0084195122915 0.0085336828756 
0.0086490819062 0.0087657648723 0.0088836066393 0.0090028234379 0.0091232633747 0.0092449267082 0.0093678168299 0.0094915590594 0.0096168129406 
0.0097431956402 0.0098706380322 0.0051940867012 0.0052628244082 0.0053326504515 0.0054035739545 0.0054756262783 0.0055488241289 0.0056231861817 
0.0056987348227 0.0057754631163 0.0058534102724 0.0059325899036 0.0060130414852 0.0060947489723 0.0061777557125 0.0062620721065 0.0063477138967 
0.0064346846853 0.0065229861852 0.0066127691125 0.0067038258753 0.0067962576037 0.0068900073791 0.0069851604115 0.0070817211515 0.0071796292756 
0.0072789983461 0.0073794808254 0.0074815511435 0.0075850342751 0.0076899355812 0.0077962975211 0.0079041167092 0.0080134285444 0.0081241457437 
0.0082365020246 0.0083501338999 0.0084651952066 0.0085817568677 0.0086996351522 0.0088188950988 0.0089395202795 0.0090613587178 0.009184628093 
0.0093092246891 0.0094351290159 0.0095619956027 0.0096904123147 0.0098200513391 0.0099509012673 0.010082865852 0.0052660424126 0.0053363446255 
0.0054077804758 0.0054803568683 0.0055541033613 0.0056290411488 0.0057051961555 0.0057825564603 0.00586117531 0.0059410642384 0.0060222504938 
0.0061047350408 0.0061885551981 0.0062736899528 0.0063602349858 0.0064481537677 0.0065374759753 0.0066282150176 0.0067205028347 0.0068141261849 
0.0069091825709 0.0070056684465 0.0071036235563 0.0072029638884 0.0073037565765 0.0074058752979 0.007509562588 0.0076147138042 0.007721341514 
0.00782953229 0.0079392042488 0.0080503986199 0.0081631371635 0.0082775884283 0.0083934086936 0.0085107569893 0.0086296960226 0.0087500532307 
0.0088719170483 0.0089952001733 0.0091199719085 0.0092459644341 0.0093734947879 0.0095024149727 0.0096324341297 0.0097640757001 0.0098970327495 
0.010031307189 0.010166763439 0.010303645421 0.0053404991678 0.0054124245009 0.0054855163525 0.0055597969053 0.0056352887803 0.0057120183978 
0.0057900066201 0.0058692379788 0.005949808051 0.0060316967229 0.0061149292824 0.0061995364863 0.0062855279049 0.0063729431752 0.006461777677 
0.0065520807572 0.0066438460858 0.0067372248088 0.006832005514 0.0069282953499 0.0070261175926 0.0071254002259 0.0072261692592 0.0073284465565 
0.0074321198086 0.0075374685382 0.0076442838695 0.0077526389544 0.0078625615946 0.0079740705228 0.0080871763672 0.0082020801395 0.0083184311275 
0.0084364240329 0.0085560398934 0.0086773448373 0.0088001833078 0.0089246201909 0.0090506052152 0.009178138077 0.0093070254079 0.0094375329359 
0.0095691940492 0.0097026945094 0.0098375973721 0.0099739098484 0.010111546223 0.010250641213 0.010391180624 0.010533041928 0.0054174433706 
0.0054910386726 0.0055658100892 0.0056418449446 0.0057191380463 0.005797712561 0.0058775959658 0.0059588217662 0.0060413877874 0.0061253411232 
0.00621070477 0.0062974924793 0.0063857250377 0.0064754474595 0.0065666762487 0.0066594440278 0.0067538592255 0.0068497469688 0.0069472142756 
0.0070462962637 0.007146906205 0.0072490926413 0.0073528807057 0.0074581065441 0.0075650012083 0.0076734821257 0.0077835525953 0.0078952541657 
0.0080085836249 0.0081235905812 0.0082404685259 0.008358865869 0.0084789933597 0.0086008522557 0.008724500832 0.0088497965593 0.0089767934953 
0.0091054566945 0.0092357858762 0.0093677116992 0.0095010669088 0.0096358330676 0.0097725077374 0.009910714739 0.010050400119 0.010191496766 
0.010334191866 0.010478422158 0.010624096623 0.010771207179 0.005496753833 0.0055720718838 0.0056486361356 0.0057264681064 0.0058056250346 
0.005886109999 0.0059679562767 0.0060511779628 0.0061358188959 0.0062219095168 0.0063094528065 0.0063984771009 0.0064890469041 0.0065811727548 
0.0066748639962 0.00677016314 0.0068672085463 0.0069658520891 0.0070660893683 0.0071680279513 0.0072715720265 0.007376768073 0.0074835089763 
0.0075919861585 0.0077021117296 0.0078138963505 0.007927352668 0.0080425138199 0.0081594016601 0.0082782211089 0.0083986516757 0.0085208792576 
0.0086449361397 0.0087708214754 0.0088986113472 0.0090281332108 0.0091594558992 0.0092925310872 0.0094273821721 0.0095637603179 0.0097016291712 
0.009841512721 0.0099830344749 0.010126121466 0.010270752758 0.010417115681 0.010565011634 0.010714491712 0.010865543216 0.011018148379 
0.0055783566609 0.005655447075 0.0057338166914 0.0058135232807 0.0058945925909 0.0059770438203 0.006060899011 0.0061461933925 0.0062329668515 
0.0063212242295 0.0064110234699 0.0065024015872 0.0065953560919 0.006689946725 0.0067861731406 0.0068842089122 0.0069839527948 0.0070853335032 
0.0071884433318 0.0072932940655 0.0073999069227 0.0075080865824 0.0076181134905 0.0077298620282 0.0078433344271 0.0079585507363 0.0080755177156 
0.0081942681544 0.0083150361797 0.0084374551025 0.0085617468968 0.0086879593029 0.0088161316432 0.0089462912634 0.0090783045968 0.0092122355623 
0.0093480594509 0.0094857693865 0.0096252933996 0.0097661352955 0.0099092588071 0.010054100342 0.010200639314 0.010348787273 0.010498805339 
0.010650435322 0.010803766096 0.010958774705 0.011115453491 0.011273896872 0.0056619988853 0.0057408999461 0.0058211509746 0.0059027900573 