# vtk DataFile Version 5.1
vtk output
ASCII
DATASET STRUCTURED_POINTS
DIMENSIONS 50 50 50
SPACING 0.002 0.002 0.002
ORIGIN 0.1742 -0.052672 0.02732
POINT_DATA 125000
FIELD FieldData 1
potential 1 125000 double
0.0082857274727 0.0082465735807 0.0082066130098 0.0081658883738 0.0081244188147 0.0080822288134 0.0080393513994 0.0079957849133 0.0079515396042 
0.0079066667723 0.0078611792331 0.0078151023945 0.0077684481309 0.0077212588282 0.0076735729371 0.0076254147754 0.0075767931904 0.0075277862338 
0.0074783906383 0.0074286210981 0.0073785519684 0.0073280597994 0.0072772047606 0.0072260109562 0.0071744606424 0.0071225819347 0.0070704100008 
0.0070179735554 0.0069653181635 0.006912482051 0.006859518789 0.0068064794136 0.0067533965109 0.0067002978313 0.0066472189071 0.006594154113 
0.0065411265487 0.0064880948209 0.0064350605434 0.0063820153258 0.0063289266964 0.006275797883 0.0062226183764 0.0061694140428 0.0061161828462 
0.006062952282 0.0060097530582 0.0059566223063 0.0059036123887 0.0058507293002 0.0084712360864 0.0084307723751 0.00838947627 0.0083473818654 
0.0083045182637 0.0082609093784 0.0082165702345 0.0081715386455 0.0081258313983 0.0080794493561 0.0080324087315 0.0079847401253 0.007936504418 
0.0078877035761 0.0078383751194 0.007788559876 0.0077382905762 0.0076875815341 0.0076364745943 0.0075849798053 0.0075331053932 0.0074808559897 
0.0074282347167 0.0073752741854 0.0073219844281 0.0072684141769 0.0072144847958 0.007160313705 0.0071059280747 0.0070513795097 0.0069967018935 
0.0069419604869 0.0068871816906 0.006832399207 0.0067776266709 0.0067228875866 0.0066681695468 0.0066134831833 0.0065587781772 0.0065040579696 
0.0064493102287 0.0063945257357 0.0063397096717 0.0062848588073 0.0062299985664 0.0061751488779 0.0061203454448 0.0060656250935 0.0060110224323 
0.0059565824313 0.0086573191218 0.0086155508851 0.0085729006327 0.0085294255564 0.0084851526477 0.0084401141315 0.0083943186358 0.0083477975989 
0.0083005668399 0.0082526470029 0.0082040604952 0.0081548116175 0.0081049576359 0.008054512157 0.0080035287022 0.0079520365427 0.0079000577309 
0.0078476178854 0.0077947608936 0.0077414987203 0.0076878484559 0.0076338170831 0.0075794176947 0.0075246546101 0.0074695646285 0.007414163247 
0.0073584474558 0.007302505097 0.007246411918 0.0071901187363 0.0071337137586 0.0070772403976 0.0070207392795 0.0069642370425 0.0069077470055 
0.0068512940978 0.0067948687276 0.0067384536474 0.0066820610472 0.006625641819 0.0065692081853 0.0065127357346 0.0064562439536 0.0063997315666 
0.0063432190883 0.0062867338823 0.0062303022881 0.0061739758919 0.0061177829174 0.0060617685483 0.0088433299337 0.0088001995136 0.0087561871597 
0.0087113213802 0.0086656532123 0.008619168579 0.008571896611 0.0085238671788 0.0084751087064 0.008425626968 0.0083754794224 0.0083246267212 
0.0082731548822 0.0082210604468 0.0081684012284 0.0081152012184 0.0080614757603 0.0080072867491 0.0079526424849 0.0078975798922 0.0078421195766 
0.0077862692442 0.0077300397799 0.0076734467771 0.0076165333625 0.0075593130421 0.0075018210596 0.0074440868671 0.0073861643429 0.0073280922028 
0.0072699147953 0.0072117296921 0.0071534832003 0.0070952348961 0.0070370109855 0.0069788057459 0.0069206427117 0.0068624988315 0.0068043605756 
0.0067462324466 0.0066880757508 0.0066298969924 0.0065717014417 0.0065134960289 0.0064553124819 0.0063971663635 0.0063391045052 0.0062811512854 
0.0062233600625 0.0061657653773 0.0090288153414 0.0089843334401 0.0089389635839 0.008892689769 0.0088455587137 0.0087976091458 0.0087488635785 
0.0086993160323 0.0086490079101 0.0085979629959 0.0085461830869 0.0084937070735 0.0084405695175 0.0083867980946 0.0083324495948 0.0082775143551 
0.0082220442869 0.0081660970147 0.0081096453955 0.0080527518652 0.0079954508332 0.0079377352883 0.0078796544148 0.0078212165935 0.0077624530807 
0.0077033911072 0.0076440732133 0.0075845173005 0.0075247880823 0.0074649284991 0.0074049697122 0.0073449639152 0.0072849408118 0.0072249241273 
0.0071649696786 0.0071050027655 0.0070450708184 0.0069851730086 0.006925280541 0.0068653873494 0.0068055027475 0.0067455956813 0.0066856763679 
0.0066257669173 0.0065658834404 0.0065060634944 0.0064463377075 0.0063867497208 0.0063273482134 0.0062681612241 0.0092135957785 0.0091677238994 
0.0091209346791 0.0090732258654 0.0090246383744 0.0089752052232 0.0089249313592 0.0088738477268 0.0088219739105 0.0087693557402 0.0087159662792 
0.0086618514564 0.0086070313764 0.0085515561076 0.008495451225 0.0084387653069 0.0083815330489 0.0083237492981 0.0082654767478 0.0082067282906 
0.0081475490437 0.0080879616378 0.0080280314617 0.007967721939 0.0079070872312 0.0078461571119 0.0077849802836 0.0077235910967 0.0076620287425 
0.0076003466353 0.0075385796678 0.0074767712099 0.0074149450499 0.0073531433454 0.00729136479 0.0072296017334 0.0071678889369 0.0071062296374 
0.0070445621014 0.0069829008175 0.0069212357299 0.0068596001035 0.0067979292105 0.006736288725 0.0066746948648 0.0066131791315 0.0065517813155 
0.0064905389867 0.0064295010358 0.0063687109297 0.0093976965155 0.0093504202212 0.009302186091 0.0092530109781 0.0092029390906 0.0091519867052 
0.0091001816998 0.0090475461075 0.0089940774195 0.0089398154871 0.0088847714049 0.008828987416 0.0087724624659 0.0087152678858 0.0086574231101 
0.0085989496161 0.0085398792592 0.0084802695016 0.0084201364938 0.0083595251744 0.0082984693135 0.0082369864848 0.0081751208593 0.0081129064524 
0.0080503756852 0.0079875849326 0.0079245246259 0.0078612675077 0.0077978498158 0.0077343202604 0.0076707155762 0.0076070792946 0.0075434376659 
0.00747980902 0.0074162102678 0.0073526545627 0.0072891219289 0.0072256327025 0.0071621547177 0.0070987152727 0.0070352675997 0.0069718491641 
0.0069084206075 0.0068450243098 0.0067816997674 0.0067184721329 0.0066553835728 0.0065924667286 0.0065297847813 0.0064673672943 0.0095815884349 
0.0095328710021 0.0094831573617 0.0094324983089 0.0093809112088 0.0093284100599 0.009275029152 0.0092207869684 0.0091656919445 0.0091097801308 
0.0090529357966 0.0089954285808 0.0089371682747 0.0088782104186 0.0088185593776 0.0087582488657 0.0086973447933 0.0086358814909 0.0085738673409 
0.0085113737814 0.0084483958965 0.0083850003636 0.008321221644 0.0082570672742 0.0081926162521 0.0081278866941 0.0080629178397 0.0079977597044 
0.0079324814461 0.007867079475 0.0078016126458 0.0077361138885 0.007670616156 0.007605138288 0.0075397060989 0.007474301612 0.0074089258152 
0.0073435954723 0.0072782962804 0.0072130119707 0.0071477381266 0.0070825099018 0.0070173112029 0.006952137569 0.0068870587908 0.0068221038193 
0.0067572944976 0.0066926918 0.0066283468651 0.0065642875201 0.0097656949122 0.0097154813131 0.0096642534372 0.0096120510093 0.0095588978222 
0.0095048122692 0.0094498149846 0.00939392401 0.0093371603893 0.0092795454171 0.0092211001125 0.0091618414811 0.0091018072651 0.0090410150422 
0.0089795325305 0.0089173855299 0.0088545947634 0.0087912243057 0.0087272956604 0.0086628699461 0.0085979686217 0.0085325001189 0.0084667627696 
0.0084006700866 0.0083342530704 0.0082675826773 0.008200683322 0.0081335952031 0.0080663696252 0.0079990549384 0.0079316838002 0.007864310583 
0.0077969194446 0.0077295581776 0.0076622337224 0.0075949539156 0.0075277050137 0.0074604965155 0.0073933306005 0.0073261877158 0.0072590741418 
0.0071919927297 0.0071249626625 0.0070580105779 0.0069911458368 0.006924420784 0.0068578881913 0.0067915657986 0.0067255234838 0.0066597921046 
0.0099509418916 0.0098992852063 0.0098464948693 0.0097926909958 0.0097379142613 0.0096821872383 0.0096255181378 0.0095679218643 0.0095094326935 
0.0094500576779 0.0093898342162 0.0093287704574 0.0092668992373 0.009204254001 0.0091408753241 0.0090768158724 0.0090121085489 0.0089468242575 
0.0088809403742 0.0088145306606 0.0087476398188 0.0086803288394 0.0086126275056 0.0085445471617 0.0084761523952 0.0084074855822 0.0083386008549 
0.0082695389046 0.0082003560634 0.0081309501724 0.0080616272507 0.007992292928 0.0079229666316 0.0078536922502 0.0077844385314 0.0077152314613 
0.0076460655053 0.0075769334371 0.007507855165 0.0074388112773 0.0073698161178 0.0073008606235 0.007231979893 0.0071631782099 0.0070944998667 
0.0070259832049 0.0069576674972 0.0068895998552 0.0068218343927 0.0067544073558 0.010138598549 0.010085242583 0.010030911816 0.0099754670136 
0.0099190006582 0.0098615580857 0.009803139877 0.0097437812076 0.0096834991394 0.0096223046942 0.0095602369819 0.009497294597 0.0094335380428 
0.0093689903579 0.0093036974547 0.0092376772446 0.0091709994059 0.0091036934248 0.0090358083697 0.0089673859171 0.0088984798935 0.0088291202305 
0.0087593626413 0.0086892813249 0.0086188587398 0.0085481578462 0.0084772546899 0.0084061818977 0.008334981171 0.008263713712 0.0081923878699 
0.0081210552419 0.0080497365081 0.0079784506265 0.0079072061216 0.007836033059 0.0077647691087 0.0076936632611 0.0076226167239 0.0075516242001 
0.0074806907336 0.007409814018 0.0073390253594 0.0072683432724 0.007197791606 0.0071274409908 0.0070573122909 0.0069874511389 0.0069179212009 
0.0068487462152 0.010329847458 0.010274824085 0.010218702726 0.010161508491 0.010103372633 0.010044140886 0.0099839161545 0.0099227042356 
0.0098605185543 0.0097974184499 0.0097334157415 0.0096685415031 0.0096028247737 0.0095362957148 0.00946898774 0.009400986089 0.0093322659503 
0.0092629020678 0.0091929783371 0.0091224856305 0.0090514945331 0.0089800465294 0.0089081948522 0.008835998434 0.0087634908597 0.0086907647739 
0.00861776821 0.0085446168593 0.0084713409106 0.0083979942037 0.0083246028771 0.0082512183728 0.0081778324834 0.00810448605 0.0080311925384 
0.0079579527389 0.0078847675724 0.0078116475335 0.0077385722323 0.0076655629562 0.0075926141246 0.0075197658172 0.0074469035306 0.0073742870311 
0.0073018161255 0.0072295653241 0.0071575838898 0.0070858810782 0.0070145353742 0.0069435621313 0.010526008662 0.010469224677 0.010411321906 
0.010352331856 0.010292230482 0.010231111773 0.010169059047 0.010105912736 0.010041782994 0.0099766980124 0.0099106761648 0.0098437606785 
0.0097759986435 0.0097074100443 0.0096380261967 0.0095679073014 0.0094970981905 0.0094256127732 0.0093535233648 0.009280912214 0.0092077825517 
0.0091342019334 0.0090602023141 0.0089858661674 0.0089112073288 0.0088362766699 0.0087611681608 0.0086858747049 0.0086104531139 0.008534961607 
0.0084594221393 0.0083838835033 0.0083083590759 0.008232881857 0.0081574542958 0.0080820802876 0.0080067698583 0.0079315236578 0.0078563549999 
0.007781268786 0.0077062581651 0.0076313599431 0.0075565867732 0.0074819598962 0.007407518393 0.0073333109463 0.0072594016226 0.0071856963448 
0.007112464387 0.0070396505609 0.010728493388 0.010669863661 0.010610063491 0.010549137401 0.010487094912 0.010423980127 0.010359836187 
0.01029472346 0.010228517264 0.010161335067 0.010093215937 0.010024186143 0.0099542704432 0.0098835232465 0.0098119742161 0.0097396673778 
0.0096666611506 0.0095929921933 0.0095187101271 0.009443872794 0.00936849859 0.0092926986377 0.0092164733428 0.0091398951941 0.0090630047596 
0.0089858364437 0.0089084728195 0.008830953664 0.0087532852155 0.0086755786581 0.0085978156751 0.0085200451051 0.008442286962 0.0083645725962 
0.0082869126126 0.0082093245503 0.0081317989776 0.008054347589 0.0079769889519 0.0078997317394 0.007822574529 0.0077455484948 0.0076686784205 
0.0075919808584 0.0075154958254 0.0074392603813 0.0073633460596 0.0072877931829 0.0072126104339 0.0071378746494 0.010938548159 0.010877942649 
0.010816147775 0.010753203788 0.010689106648 0.010623872611 0.010557574191 0.010490272658 0.010421909152 0.010352598139 0.010282258024 
0.01021099002 0.010138843981 0.010065817835 0.0099919900341 0.0099174058618 0.0098421051338 0.0097661421596 0.0096895545181 0.0096124057349 
0.0095347476204 0.009456608574 0.0093780381229 0.0092991191516 0.0092199037887 0.0091404222902 0.0090607272151 0.0089808518401 0.0089008681418 
0.0088208161764 0.0087407270006 0.0086606284667 0.0085805316186 0.0085004855666 0.0084204864824 0.0083405543054 0.0082607210099 0.0081809711076 
0.0081013195807 0.0080217960043 0.0079424062303 0.0078631616018 0.0077840975655 0.0077052471711 0.0076266348422 0.0075483032667 0.0074703131009 
0.0073926951459 0.0073155074217 0.0072387584697 0.011157457049 0.01109476935 0.011030840798 0.01096574109 0.010899454139 0.010832047587 
0.010763496939 0.01069388313 0.010623213241 0.010551528653 0.010478915052 0.010405280355 0.010330780241 0.010255394947 0.010179199098 
0.010102208976 0.01002450434 0.0099461257835 0.009867125223 0.0097875335363 0.0097074554827 0.0096268967611 0.0095459139669 0.0094645220648 
0.0093828620309 0.009300942896 0.0092188054499 0.0091364992271 0.0090540590218 0.0089715258459 0.0088889860055 0.0088064211069 0.0087238982403 
0.0086414006979 0.0085589763875 0.0084766039069 0.008394338794 0.0083121743501 0.0082301437669 0.0081482471867 0.0080665075206 0.0079849622137 
0.0079036068498 0.0078224897375 0.0077416577211 0.0076611396756 0.0075809748248 0.0075012158855 0.0074218991069 0.0073430759039 0.011386289917 
0.011321408061 0.011255247705 0.011187860574 0.011119267287 0.011049501663 0.010978597111 0.010906571781 0.010833482297 0.010759347623 
0.010684206741 0.01060810017 0.010531122287 0.010453213578 0.010374476314 0.010294960523 0.01021476028 0.010133856875 0.010052308234 
0.0099701811413 0.0098875293834 0.0098044236757 0.009720885712 0.0096369745035 0.009552715698 0.0094682166467 0.0093835137603 0.0092986354474 
0.0092136354261 0.0091285470831 0.0090434036716 0.0089582610688 0.008873133633 0.0087880786109 0.0087030768568 0.0086181645182 0.0085333542187 
0.008448671237 0.0083641132317 0.008279742337 0.0081955477418 0.0081115586458 0.0080278327263 0.0079443635543 0.0078611917337 0.0077783753812 
0.007695932876 0.0076139323679 0.00753240044 0.0074513741048 0.011626086291 0.011558869561 0.011490346241 0.011420524791 0.011349487798 
0.011277236829 0.01120382477 0.011129248515 0.011053590956 0.010976856601 0.010899120957 0.01082038526 0.010740727 0.01066021892 
0.010578808781 0.010496625202 0.010413715563 0.010330127515 0.010245882321 0.010161067558 0.010075772213 0.0099899716482 0.0099037347708 
0.0098171236173 0.0097301936613 0.0096430193326 0.0095555624876 0.0094679845072 0.0093802628869 0.0092924673768 0.0092046158488 0.009116766541 
0.0090289470175 0.0089411565678 0.0088534649353 0.0087658605388 0.0086783707913 0.0085910257411 0.0085038503847 0.0084168659188 0.0083301058416 
0.0082435733908 0.0081573173745 0.00807138164 0.0079857890259 0.007900545655 0.0078157293836 0.0077313759511 0.0076475089772 0.0075641788974 
0.011877728399 0.01180794365 0.011736910719 0.011664570932 0.011590956531 0.011516084668 0.011440001049 0.011362755652 0.011284353814 
0.011204890731 0.011124385174 0.011042884244 0.010960446879 0.010877105768 0.010792952806 0.010707957109 0.010622209203 0.010535782425 
0.010448724562 0.010361065157 0.010272867897 0.010184203634 0.010095176843 0.010005711329 0.0099159267826 0.0098258759347 0.0097356077448 
0.0096451243782 0.0095545372609 0.0094638775036 0.0093731900027 0.0092824722424 0.0091917910736 0.0091011822294 0.0090106143888 0.0089202022312 
0.0088299085582 0.0087397806103 0.0086498312743 0.0085601093268 0.0084706393292 0.0083814452393 0.0082925663978 0.0082040136212 0.0081158575827 
0.0080280995091 0.0079407678451 0.0078539383966 0.0077676302294 0.0076818832191 0.012141923288 0.012069636726 0.011995890337 0.011920875284 
0.01184451749 0.011766887688 0.01168800388 0.011607922713 0.01152659817 0.011444239181 0.01136082094 0.011276392395 0.011190979264 
0.011104695958 0.011017525559 0.010929583458 0.010840858924 0.0107514248 0.010661355499 0.010570704072 0.010479501179 0.010387815041 
0.010295717984 0.010203240051 0.010110438983 0.010017408706 0.009924114156 0.0098306505383 0.0097370064777 0.0096433186077 0.0095495917761 
0.0094558606984 0.0093621650781 0.0092685456182 0.0091750301685 0.0090816035406 0.0089883785289 0.0088953257773 0.0088024956768 0.0087098998567 
0.0086175889776 0.0085255810109 0.0084339266162 0.0083426546662 0.0082517896142 0.0081613609097 0.0080714196502 0.007981970725 0.007893101825 
0.0078048125164 0.012419398649 0.012344371486 0.012267892221 0.012189946811 0.012110721143 0.012030164807 0.011948321875 0.011865225073 
0.011780969346 0.011695572318 0.011609091148 0.011521566912 0.011433067819 0.01134353886 0.011253246435 0.011162080865 0.011070196351 
0.010977615208 0.010884354735 0.010790507512 0.010696129479 0.010601269547 0.010505969101 0.010410302732 0.010314296233 0.010218028849 
0.010121553637 0.010024926572 0.0099281402918 0.0098312513502 0.0097342957692 0.0096373875126 0.009540504331 0.0094437181699 0.0093470388358 
0.0092505351497 0.0091541759927 0.0090580276953 0.0089621536301 0.0088665625387 0.008771263979 0.0086763156556 0.0085817547862 0.0084875856627 
0.0083938866255 0.0083006681293 0.0082079450712 0.0081157727522 0.0080241953394 0.0079332351623 0.012710861772 0.012632908028 0.012553492343 
0.012472607875 0.01239033173 0.012306622166 0.012221637203 0.012135399115 0.012047936749 0.011959326417 0.011869590735 0.011778801199 
0.011686838155 0.011594099345 0.011500476025 0.011406003912 0.011310673658 0.011214680885 0.011118063652 0.011020834904 0.010923079081 
0.010824829843 0.010726160146 0.010627117533 0.010527724393 0.010428074574 0.010328193348 0.010228171462 0.010128029695 0.010027835905 
0.0099275787895 0.009827275291 0.0097270084376 0.0096268948714 0.0095269105502 0.0094270945007 0.0093275026141 0.009228122417 0.0091291590444 
0.0090304017546 0.0089319677597 0.0088339265494 0.0087362962554 0.0086391074641 0.0085424050494 0.0084462274574 0.008350612349 0.0082555575741 
0.0081611249233 0.0080673573643 0.013016956553 0.012935936679 0.012853380898 0.012769323194 0.012683812273 0.012596916702 0.01250844613 
0.012418856248 0.012328008744 0.012235974758 0.012142817496 0.012048559218 0.011953275792 0.011857032075 0.011759887691 0.011661879294 
0.011563100251 0.011463591311 0.011363420369 0.011262484683 0.01116113457 0.011059308866 0.010957050312 0.010854434065 0.010751477381 
0.010648235733 0.010544794544 0.010441191665 0.010337458876 0.010233688798 0.010129885204 0.01002612822 0.0099223506922 0.0098187026945 
0.0097152439944 0.0096119295675 0.0095088896478 0.0094061295072 0.0093036604391 0.0092015452116 0.0090998404886 0.0089985338599 0.0088976842104 
0.0087974230851 0.0086975809248 0.0085983011658 0.0084996068182 0.0084015329761 0.0083041222116 0.0082074088857 0.013338309848 0.013254046414 
0.01316805828 0.013080638031 0.012991734048 0.012901373424 0.012809612019 0.012716462815 0.012622072516 0.012526455899 0.012429624771 
0.012331720593 0.012232770111 0.0121328121 0.012031940703 0.011930194192 0.011827658728 0.011724392556 0.011620447323 0.011515878878 
0.011410750819 0.011305126255 0.011198925962 0.011092504916 0.010985788098 0.010878769649 0.01077153929 0.010664162969 0.010556687243 
0.010449143743 0.010341572702 0.010234070334 0.01012663399 0.010019276111 0.0099121217873 0.0098051992743 0.0096985428382 0.0095921984399 
0.0094861702432 0.0093805387229 0.0092753416733 0.0091706391336 0.0090664028411 0.008962686026 0.008859536414 0.0087569796555 0.0086550681994 
0.008553825524 0.0084533691513 0.00835353952 0.013675564988 0.013587857699 0.013498507346 0.013407545512 0.013315086202 0.013221079503 
0.013125633758 0.013028805604 0.012930600169 0.012831126323 0.012730476825 0.012628692121 0.01252583219 0.012421974729 0.012317149831 
0.012211454457 0.012104947301 0.011997684854 0.011889754172 0.011781193748 0.011672076039 0.011562413246 0.011452358545 0.011341882051 
0.011231043623 0.011120055333 0.011008841936 0.010897462915 0.010785995618 0.010674478979 0.010562966917 0.010451509989 0.01034015208 
0.010228942371 0.010117896564 0.01000712961 0.0098966735258 0.0097865620539 0.0096768356087 0.0095675406938 0.0094586970256 0.0093503064159 
0.0092425366259 0.0091353122231 0.0090286757393 0.0089226895118 0.0088173768408 0.0087127740965 0.0086089427947 0.0085058590605 0.014029586798 
0.013938257823 0.013845219365 0.013750503603 0.013654209538 0.013556368306 0.013457029184 0.013356319593 0.013254173859 0.013150680703 
0.0130459866 0.012940104411 0.012833082622 0.012725082449 0.012616108913 0.012506215214 0.012395505625 0.012284036014 0.012171865476 
0.012059093488 0.011945743141 0.011831890421 0.01171757474 0.011602919532 0.011487901488 0.011372619949 0.011257092179 0.011141506076 
0.011025822601 0.010910100447 0.010794419564 0.010678811385 0.010563330904 0.010448033602 0.010332935973 0.010218084717 0.010103639586 
0.0099895692794 0.0098759198101 0.0097627501717 0.0096500772695 0.0095379426965 0.0094264026204 0.0093154249186 0.009205134727 0.009095535531 
0.0089866656806 0.0088785383619 0.0087712130318 0.0086647225117 0.014401111663 0.014305946837 0.014208952242 0.014110283679 0.014009982305 
0.013908057817 0.013804603118 0.013699672179 0.013593318622 0.013485602252 0.013376635731 0.013266442038 0.013155089986 0.013042678423 
0.012929292096 0.012814965851 0.012699814661 0.012583889258 0.012467265236 0.012350007146 0.012232214151 0.01211389411 0.011995128749 
0.011875965135 0.011756512786 0.011636813013 0.01151691009 0.01139682308 0.011276601061 0.01115645395 0.011036358765 0.010916359591 
0.010796480496 0.010676847323 0.010557483728 0.010438447332 0.010319715059 0.010201479588 0.010083711252 0.00996645055 0.0098497576217 
0.0097336437546 0.0096181404674 0.0095033398381 0.0093892091102 0.009275813407 0.009163123092 0.0090513052814 0.0089403163309 0.00883023723 
0.014790838093 0.01469161312 0.014590552897 0.014487686023 0.014383145782 0.014276928053 0.014169100167 0.014059743098 0.013948933038 
0.013836731344 0.013723187157 0.013608434281 0.013492479419 0.013375434593 0.013257342101 0.013138331464 0.013018441086 0.012897837707 
0.012776510483 0.012654530014 0.012531992627 0.012408964673 0.012285480986 0.01216161766 0.012037388272 0.01191296458 0.011788344238 
0.011663605888 0.011538743669 0.011413924384 0.011289084936 0.011164466088 0.011040036874 0.010915855066 0.010791963252 0.010668453426 
0.010545349943 0.01042265865 0.01030049761 0.01017897183 0.010058025607 0.009937731512 0.0098181010016 0.0096991689634 0.009581022278 
0.0094636321493 0.0093470663057 0.0092313588325 0.0091164638558 0.0090025805209 0.01519990222 0.015096223904 0.014990807486 0.014883538877 
0.014774503672 0.014663698577 0.014551283216 0.014437274902 0.014321748836 0.014204738701 0.014086404591 0.013966695939 0.013845918169 
0.0137239511 0.013600936673 0.013476957709 0.01335214674 0.013226525719 0.013100202515 0.012973238592 0.012845705146 0.012717673333 
0.012589202404 0.012460355872 0.012331169424 0.012201727334 0.012072118618 0.011942391709 0.011812626944 0.011682867857 0.011553161229 
0.011423643658 0.011294292328 0.011165308943 0.011036670071 0.01090843604 0.010780690543 0.010653465975 0.010526693944 0.010400633715 
0.010275247695 0.010150532657 0.010026558537 0.0099032958631 0.0097808924281 0.0096593180989 0.009538606209 0.0094188119622 0.0092999516515 
0.0091820987341 0.015628952179 0.015520829322 0.015410778261 0.015298810185 0.015185006718 0.015069409428 0.014951940912 0.01483299613 
0.014712468988 0.014590450795 0.014467006388 0.014342198996 0.014216120941 0.014088943174 0.013960767452 0.013831554883 0.013701451513 
0.01357056107 0.013438952057 0.013306686491 0.013173900411 0.013040595501 0.012906855215 0.012772745951 0.012638311515 0.012503604408 
0.012368697355 0.012233725794 0.012098705679 0.011963754314 0.01182889682 0.011694202801 0.011559811743 0.011425683752 0.011292035786 
0.011158839711 0.011026182064 0.010894095666 0.010762640449 0.010631749327 0.010501651399 0.010372333708 0.010243766981 0.010116035537 
0.0099891306653 0.0098631412411 0.0097380803924 0.0096139859654 0.0094908783192 0.0093688432908 0.016079080063 0.015966128049 0.015851138451 
0.015734196139 0.015615346968 0.015494645424 0.015372163346 0.015247984638 0.015122092464 0.014994714282 0.014865763274 0.01473553824 
0.014604021648 0.0144712555 0.014337476251 0.014202783467 0.014067117886 0.013930620117 0.013793433548 0.013655620311 0.013517210273 
0.013378368747 0.013239053312 0.013099372999 0.012959368257 0.012819107649 0.012678692022 0.012538112669 0.012397537739 0.012257072965 
0.012116765095 0.011976674624 0.011836829891 0.011697436351 0.011558500654 0.011420009154 0.011282193973 0.011145004747 0.011008501407 
0.010872725273 0.010737603841 0.01060338379 0.010470014198 0.010337539321 0.010205943133 0.010075286973 0.0099456747407 0.0098170521838 
0.0096895138998 0.0095630906814 0.016551281069 0.016433267818 0.016313127831 0.016190876739 0.01606664297 0.015940518968 0.015812550638 
0.015682806348 0.015551362871 0.015418230922 0.015283638113 0.015147645403 0.015010258987 0.014871710831 0.0147319444 0.014591245634 
0.014449675751 0.014307415988 0.014164302301 0.014020599719 0.013876305839 0.013731464854 0.013586264292 0.013440725388 0.01329486758 
0.01314873969 0.013002437607 0.012856053049 0.012709613102 0.012563324577 0.012417244868 0.012271424881 0.012125971884 0.0119809275 
0.011836390826 0.011692474967 0.011549154576 0.011406602969 0.011264793598 0.011123767721 0.010983580308 0.01084413874 0.010705697642 
0.010568197167 0.01043170301 0.01029618125 0.010161721062 0.010028369499 0.0098961309064 0.0097650788105 0.017046306498 0.01692288403 
0.016797265536 0.016669651807 0.016539746629 0.016407870024 0.016274072137 0.016138396346 0.016000986516 0.015861934563 0.015721210902 
0.015579065829 0.015435563178 0.015290781882 0.015144911375 0.014997918663 0.014850023026 0.014701335761 0.014552105635 0.014402154048 
0.014251660319 0.014100679954 0.013949222808 0.013797413533 0.013645348518 0.013493025586 0.013340546734 0.013187965607 0.013035358071 
0.012882948495 0.01273076424 0.012578919888 0.012427480228 0.012276545168 0.012126192576 0.011976457415 0.011827449146 0.011679252403 
0.011531818322 0.011385283818 0.011239651093 0.011094847887 0.010951079532 0.010808320503 0.010666601954 0.010525974826 0.010386433139 
0.010248099547 0.010110938508 0.0099750394544 0.0175654893 0.017436363683 0.017304899393 0.01717120164 0.017035305793 0.016897345775 
0.016757375897 0.016615603602 0.016471875755 0.016326399318 0.016179285044 0.016030577101 0.015880521633 0.015729209925 0.015576751294 
0.015423172105 0.015268744058 0.01511351159 0.014957578912 0.014801039652 0.014643985175 0.014486375288 0.014328365395 0.014170012789 
0.014011318459 0.013852464627 0.013693433032 0.013534350642 0.013375301653 0.013216353368 0.013057744948 0.012899513263 0.012741787856 
0.012584620465 0.012428104538 0.012272321215 0.012117305083 0.011963177505 0.011809934702 0.011657534085 0.011506177269 0.011355820909 
0.011206388686 0.011058100211 0.010910923622 0.010764883314 0.010620049288 0.010476431042 0.010334119853 0.010193119605 0.018109507726 
0.017974365144 0.017836754883 0.017696786381 0.017554550798 0.017410086678 0.017263565354 0.017115052439 0.016964618388 0.01681238782 
0.016658606668 0.016503096 0.016346119078 0.016187742499 0.016028278338 0.015867796038 0.015706321319 0.015544109874 0.015381206588 
0.015217697415 0.015053635721 0.014889200094 0.014724222396 0.014558867757 0.014393256115 0.014227419692 0.014061502375 0.013895558705 
0.013729650381 0.013563960161 0.013398509072 0.013233572026 0.013069210105 0.012905483304 0.012742485574 0.012580311164 0.012419011818 
0.01225860987 0.012099213327 0.011940816381 0.011783401611 0.011627070063 0.011471862205 0.01131769607 0.011164790382 0.011013078845 
0.010862645881 0.01071351948 0.010565762978 0.010419439824 0.018678904814 0.01853737658 0.018393286184 0.018246709308 0.018097741606 
0.017946473056 0.017793000903 0.017637459312 0.01747994251 0.017320691513 0.017159532154 0.016996717817 0.016832427523 0.016666908705 
0.016499981264 0.016332074757 0.016163269651 0.0159935866 0.015823312414 0.015652446059 0.015481048512 0.015309152247 0.015136976722 
0.014964377369 0.014791490966 0.014618365224 0.014445117726 0.014271914688 0.014098830927 0.0139259235 0.013753345207 0.013581268984 
0.013409904912 0.013239290574 0.013069489101 0.012900585453 0.012732654248 0.012565736576 0.012399856129 0.012235077115 0.01207140399 
0.011908833786 0.011747457357 0.011587243597 0.011428234037 0.011270572046 0.011114281821 0.010959378136 0.010805927853 0.010654001082 
0.019274457803 0.019126156613 0.018975168132 0.018821636208 0.018665551189 0.018507083245 0.018346309619 0.018183364235 0.018018352881 
0.017851380709 0.017682591122 0.017512141056 0.017340097778 0.017166691977 0.016992038299 0.016816299637 0.016639690468 0.016462211648 
0.016284122826 0.01610555728 0.015926405756 0.015746788433 0.015566728675 0.015386491948 0.015205885937 0.01502516479 0.01484428841 
0.014663393925 0.014482683845 0.014302281639 0.014122269226 0.01394274657 0.013764070132 0.013586209793 0.013409155892 0.013233184493 
0.013058290277 0.012884508626 0.01271186356 0.012540364034 0.012370085303 0.012201016672 0.012033155933 0.011866594322 0.011701335633 
0.011537329956 0.011374872054 0.011213907278 0.011054505882 0.010896708061 0.019896163474 0.019740812506 0.019582583317 0.019421684581 
0.019258164113 0.019092077301 0.018923588557 0.018752810298 0.018579865136 0.01840492167 0.018228082762 0.018049476557 0.017869280275 
0.017687658401 0.017504763288 0.017320799796 0.017135815373 0.01695027582 0.016763867642 0.016576976061 0.016389620558 0.016201845088 
0.016013678796 0.015825206835 0.015636598094 0.015447722462 0.015258791031 0.015069942346 0.01488124209 0.014692894049 0.014505038456 
0.014317828181 0.01413133007 0.013945810998 0.013761351119 0.013577983467 0.013395781336 0.013214792668 0.01303492771 0.0128564357 
0.012679199759 0.012503276841 0.012328675701 0.012155402796 0.011983540617 0.011813059284 0.011644151629 0.011476821053 0.011311162032 
0.011147237452 0.020543626264 0.020380952696 0.020215087636 0.020046469921 0.019875063507 0.019701008468 0.019524412862 0.019345416373 
0.019164199408 0.018980847272 0.018795521822 0.018608393935 0.018419602091 0.018229344662 0.018037804685 0.017845154304 0.017651606859 