# vtk DataFile Version 5.1
vtk output
ASCII
DATASET STRUCTURED_POINTS
DIMENSIONS 50 50 50
SPACING 0.002 0.002 0.002
ORIGIN 0.1742 -0.052672 0.02732
POINT_DATA 125000
FIELD FieldData 1
potential 1 125000 double
<<<<<<< HEAD
0.00034675880852 0.00034539906845 0.00034404655903 0.0003427010518 0.00034136304598 0.00034003212001 0.00033870842077 0.00033739169088 0.00033608220363 
0.0003347793601 0.00033348311862 0.00033219365409 0.00033091067641 0.00032963499961 0.00032836650751 0.00032710586835 0.00032585269758 0.00032460749015 
0.00032337017056 0.00032214073721 0.00032091819473 0.00031970210392 0.00031849142231 0.00031728650646 0.00031608653223 0.00031489116415 0.00031370161718 
0.00031251826136 0.00031134193898 0.00031017388539 0.00030901477473 0.00030786680148 0.00030673003073 0.00030560474073 0.00030449185304 0.00030339051722 
0.00030230057388 0.00030122111509 0.00030015146319 0.0002990910286 0.00029803911368 0.00029699517698 0.00029595941228 0.00029493232063 0.00029391425828 
0.0002929058041 0.00029190762736 0.00029092022921 0.00028994377274 0.00028897870572 0.00034834850359 0.00034697996294 0.00034561828661 0.0003442637631 
0.00034291686677 0.00034157696833 0.00034024403974 0.00033891847326 0.00033759959625 0.00033628737423 0.00033498130861 0.00033368170659 0.00033238870209 
0.00033110243468 0.00032982327604 0.00032855142874 0.0003272870544 0.00032603001264 0.00032478089044 0.00032353895356 0.00032230373689 0.0003210748123 
0.00031985164599 0.00031863373985 0.00031742160197 0.0003162147196 0.00031501321977 0.00031381872064 0.00031263171803 0.00031145370125 0.00031028491971 
0.0003091278632 0.00030798241019 0.00030684927439 0.00030572811923 0.00030461963922 0.00030352279164 0.00030243677908 0.00030136086174 0.00030029445891 
0.0002992368206 0.00029818756412 0.00029714687575 0.00029611464336 0.00029509176916 0.00029407854885 0.00029307582389 0.00029208388759 0.00029110300952 
0.00029013369324 0.00034980128642 0.00034842503089 0.0003470553638 0.00034569298158 0.0003443377766 0.00034299002939 0.00034164951715 0.00034031540837 
0.00033898823891 0.0003376675536 0.00033635269978 0.00033504408948 0.00033374170781 0.00033244584874 0.00033115649209 0.00032987432425 0.00032859925353 
0.00032733112078 0.0003260702841 0.0003248164503 0.00032356925525 0.00032232796284 0.00032109266037 0.0003198624963 0.00031863815902 0.00031741954181 
0.00031620721037 0.0003150022841 0.00031380557553 0.00031261819052 0.00031144074045 0.00031027522704 0.00030912195073 0.0003079813361 0.00030685335624 
0.00030573820559 0.00030463514646 0.00030354328646 0.00030246213956 0.00030139047999 0.00030032809152 0.0002992744258 0.00029822924775 0.00029719307232 
0.00029616606214 0.00029514895744 0.00029414205059 0.00029314626147 0.00029216143776 0.00029118810173 0.0003510876485 0.00034970440834 0.00034832810673 
0.00034695884885 0.00034559705428 0.00034424246394 0.00034289457939 0.00034155343077 0.00034021903955 0.00033889081745 0.00033756825451 0.00033625156514 
0.00033494104595 0.00033363632451 0.00033233804577 0.00033104655573 0.00032976121175 0.00032848273976 0.00032721090286 0.0003259455608 0.00032468714824 
0.00032343438119 0.00032218697495 0.00032094537261 0.00031970970361 0.00031848051649 0.00031725824621 0.00031604360812 0.00031483775458 0.00031364124256 
0.00031245640445 0.00031128354848 0.0003101235181 0.00030897638382 0.00030784262214 0.00030672148426 0.00030561315853 0.00030451647323 0.00030343079687 
0.00030235505309 0.00030128873999 0.00030023138468 0.00029918288595 0.00029814325209 0.0002971130296 0.00029609245861 0.0002950822091 0.00029408278463 
0.00029309468904 0.00029211800706 0.00035218470513 0.00035079552828 0.00034941353944 0.00034803876339 0.00034667102573 0.0003453102686 0.00034395678198 
0.00034260958199 0.00034126892089 0.00033993418334 0.00033860499282 0.00033728131729 0.00033596325028 0.00033465098386 0.00033334460162 0.00033204439803 
0.00033075018199 0.00032946240072 0.00032818050433 0.00032690477881 0.00032563543464 0.00032437144875 0.00032311374108 0.00032186158966 0.00032061591587 
0.00031937682169 0.00031814540931 0.00031692210384 0.00031570819939 0.00031450437067 0.00031331258648 0.00031213319446 0.00031096706673 0.00030981462975 
0.00030867584149 0.00030755028252 0.00030643738655 0.0003053371381 0.00030424770196 0.00030316873823 0.00030209949738 0.00030103935285 0.00029998827299 
0.00029894612778 0.0002979130761 0.00029688986605 0.00029587677577 0.0002948743951 0.000293883242 0.00029290332691 0.00035307801634 0.00035168369682 
0.00035029702187 0.00034891726911 0.00034754485017 0.00034617913816 0.00034482062634 0.00034346851132 0.00034212246067 0.0003407826038 0.00033944741717 
0.00033811796692 0.00033679375304 0.00033547477856 0.00033416122443 0.00033285357406 0.00033155127417 0.00033025451475 0.00032896379416 0.000327678736 
0.00032639950052 0.0003251260412 0.00032385863644 0.00032259772799 0.00032134311724 0.00032009549685 0.00031885583482 0.00031762510135 0.00031640380997 
0.00031519409975 0.00031399640517 0.00031281184462 0.00031164082975 0.00031048405465 0.00030934112112 0.0003082117853 0.00030709587357 0.00030599240813 
0.00030490039774 0.00030381913395 0.00030274770204 0.00030168594796 0.00030063274028 0.00029958863428 0.00029855354095 0.00029752808671 0.00029651263877 
0.00029550749228 0.00029451352601 0.00029353090817 0.00035376200345 0.00035236359849 0.00035097266107 0.00034958893147 0.00034821237757 0.00034684295496 
0.00034548055539 0.00034412424881 0.00034277394268 0.00034142918783 0.00034008956639 0.00033875496462 0.00033742516629 0.00033610086799 0.00033478145803 
0.00033346687934 0.00033215741426 0.00033085327118 0.00032955460722 0.00032826139897 0.00032697414223 0.00032569230394 0.00032441701895 0.00032314804003 
0.00032188589943 0.00032063117947 0.00031938472668 0.00031814772917 0.00031692080712 0.00031570588667 0.00031450362754 0.0003133149314 0.00031214035294 
0.00031098016083 0.00030983409482 0.00030870253357 0.00030758403229 0.00030647836805 0.00030538453867 0.00030430172058 0.00030322885468 0.00030216558386 
0.00030111106483 0.00030006543341 0.00029902874912 0.00029800148977 0.00029698401289 0.00029597664379 0.00029498028437 0.00029399488123 0.00035424142264 
0.00035283949785 0.00035144498048 0.00035005807509 0.00034867835743 0.00034730550421 0.00034593965881 0.00034458035963 0.00034322636112 0.00034187792172 
0.0003405345235 0.00033919546781 0.00033786117468 0.00033653180566 0.00033520717559 0.00033388683368 0.00033257154604 0.00033126129915 0.00032995625254 
0.00032865653613 0.00032736198905 0.00032607377336 0.000324791862 0.00032351622941 0.00032224807735 0.00032098773495 0.00031973610899 0.00031849363691 
0.00031726286295 0.00031604418586 0.00031483872805 0.00031364705836 0.00031246980808 0.00031130715153 0.00031015960438 0.00030902606151 0.00030790591886 
0.00030679899129 0.00030570396803 0.00030461999827 0.0003035462446 0.00030248188685 0.00030142630595 0.00030037947008 0.00029934146481 0.00029831279022 
0.00029729343455 0.00029628408203 0.00029528555366 0.00029429786373 0.00035453063947 0.00035312446576 0.00035172712887 0.00035033708786 0.00034895471932 
0.00034757949496 0.00034621075157 0.00034484864706 0.00034349201495 0.00034214037402 0.00034079379812 0.00033945137306 0.00033811354024 0.00033677989357 
0.00033545100722 0.0003341263733 0.00033280599852 0.00033149076328 0.00033018070998 0.00032887546381 0.00032757596325 0.00032628222809 0.00032499513361 
0.00032371483779 0.0003224419508 0.00032117757948 0.00031992234962 0.00031867672071 0.00031744280556 0.00031622166056 0.00031501404824 0.00031382059382 
0.00031264172482 0.00031147779737 0.00031032893796 0.00030919441435 0.00030807353769 0.00030696573546 0.00030587027917 0.00030478540661 0.00030371092017 
0.0003026458704 0.00030158979083 0.00030054195437 0.00029950274824 0.00029847245627 0.00029745166783 0.00029644015878 0.00029543934362 0.00029444918914 
0.00035465008665 0.00035324100395 0.00035184083062 0.00035044838926 0.00034906357214 0.00034768613977 0.00034631521523 0.00034495001855 0.00034359097338 
0.00034223672956 0.00034088742351 0.00033954218604 0.00033820126658 0.00033686442238 0.00033553193248 0.00033420349642 0.00033287983393 0.00033156085161 
0.00033024647322 0.00032893773544 0.00032763462011 0.0003263377954 0.00032504734556 0.00032376395722 0.00032248835349 0.0003212213287 0.00031996382079 
0.00031871631218 0.00031748114641 0.00031625809395 0.00031504927869 0.00031385503957 0.00031267551068 0.00031151139056 0.00031036187659 0.00030922695674 
0.00030810574159 0.00030699733223 0.00030590126002 0.00030481611625 0.00030374135286 0.00030267567428 0.0003016189201 0.00030057038031 0.00029952999868 
0.00029849810086 0.00029747549392 0.00029646234055 0.00029545950301 0.00029446711869 0.00035462898501 0.00035321833783 0.00035181492316 0.00035042008011 
0.00034903298957 0.00034765290194 0.00034627931989 0.00034491215105 0.00034355079926 0.00034219409887 0.00034084200906 0.00033949435087 0.00033815099985 
0.00033681196153 0.0003354767624 0.00033414592114 0.00033281967201 0.0003314977102 0.00033018105463 0.00032886992238 0.000327564515 0.00032626525898 
0.00032497284088 0.00032368799124 0.00032241102142 0.00032114296453 0.00031988425169 0.00031863699036 0.00031740160014 0.00031617920136 0.00031497028882 
0.00031377612535 0.00031259701088 0.00031143265825 0.00031028320376 0.00030914816814 0.0003080268495 0.00030691830596 0.00030582185925 0.00030473644547 
0.00030366100086 0.0003025946501 0.00030153679934 0.00030048718374 0.00029944547977 0.0002984121845 0.0002973878805 0.00029637280717 0.00029536789997 
0.00029437322047 0.00035450144854 0.00035308819389 0.00035168303651 0.00035028446751 0.00034889482779 0.00034751230925 0.0003461364996 0.00034476689433 
0.00034340279838 0.00034204381317 0.00034068943607 0.00033933965597 0.00033799429583 0.00033665303501 0.00033531612436 0.00033398346055 0.00033265515804 
0.00033133204387 0.00033001425946 0.00032870177357 0.00032739527622 0.00032609523353 0.00032480224297 0.00032351698776 0.00032224014856 0.00032097271155 
0.00031971455855 0.00031846806907 0.00031723351306 0.00031601209653 0.00031480442815 0.00031361154494 0.000312432701 0.00031126898762 0.00031012014858 
0.00030898544137 0.00030786426736 0.00030675554014 0.00030565885004 0.00030457295591 0.00030349653975 0.00030242928461 0.00030137014379 0.00030031935681 
0.00029927614417 0.00029824123053 0.00029721505042 0.00029619790851 0.00029519080858 0.0002941938791 0.0003543014686 0.00035288553254 0.0003514776438 
0.00035007777638 0.00034868382754 0.00034729864601 0.00034592041237 0.00034454807967 0.00034318136634 0.00034181990874 0.00034046326938 0.00033911115108 
0.00033776400557 0.00033642138411 0.00033508294229 0.00033374897238 0.00033242007427 0.00033109623309 0.00032977777306 0.0003284651983 0.0003271588064 
0.00032585927924 0.00032456713339 0.00032328284856 0.00032200718471 0.00032074029468 0.0003194846301 0.00031823987241 0.00031700731888 0.00031578777204 
0.00031458157142 0.00031339005852 0.00031221268914 0.00031104991814 0.00030990183476 0.00030876742259 0.0003076460694 0.00030653702852 0.00030543982616 
0.00030435321416 0.00030327598238 0.00030220749773 0.00030114752252 0.00030009510952 0.00029905037076 0.00029801373786 0.00029698548222 0.0002959661198 
0.00029495658774 0.00029395717974 0.00035406508713 0.00035264592141 0.00035123479859 0.0003498316769 0.00034843485596 0.00034704638773 0.00034566493132 
0.00034428980114 0.00034292004401 0.00034155577094 0.00034019676211 0.00033884286501 0.000337493953 0.00033614991473 0.00033481011267 0.00033347577961 
0.00033214664893 0.00033082271577 0.00032950447572 0.00032819256543 0.0003268870864 0.00032558909058 0.00032429838394 0.00032301596356 0.00032174246556 
0.00032047786304 0.00031922441908 0.00031798197878 0.00031675160365 0.0003155344502 0.00031433099429 0.00031314135946 0.00031196551637 0.00031080391503 
0.00030965609722 0.00030852203735 0.00030740063632 0.00030629130202 0.00030519328226 0.00030410556252 0.00030302705291 0.00030195728214 0.00030089549194 
0.00029984150012 0.00029879498031 0.00029775627199 0.00029672626614 0.00029570489539 0.00029469304095 0.000293690959 0.00035382410525 0.00035240125247 
0.00035098658274 0.0003495800563 0.00034818084568 0.00034678750111 0.00034540228973 0.00034402388279 0.00034265114156 0.00034128382959 0.0003399223978 
0.00033856615317 0.00033721566408 0.00033586985516 0.00033452948278 0.00033319485249 0.00033186558239 0.00033054237249 0.00032922483483 0.00032791403195 
0.00032661000106 0.00032531363204 0.00032402497798 0.00032274486916 0.00032147321229 0.00032021213375 0.00031896156569 0.0003177222269 0.00031649472921 
0.00031528049091 0.00031407901387 0.00031289103681 0.00031171700594 0.00031055673501 0.00030940955914 0.00030827541772 0.00030715371501 0.0003060437779 
0.00030494458768 0.00030385545662 0.00030277543436 0.00030170380596 0.00030064037005 0.0002995842386 0.00029853577871 0.00029749522297 0.00029646298432 
0.00029543945115 0.00029442503902 0.00029342003863 0.0003536080975 0.00035218097432 0.00035076202657 0.0003493513365 0.00034794797845 0.00034655211182 
0.00034516168984 0.00034377921627 0.00034240271035 0.00034103249983 0.0003396681243 0.00033830958235 0.00033695683705 0.00033561015843 0.00033426913047 
0.00033293399146 0.00033160484651 0.00033028200151 0.00032896567588 0.00032765576437 0.00032635354945 0.00032505902051 0.00032377272697 0.00032249514597 
0.00032122646512 0.00031996844056 0.00031872088346 0.0003174845713 0.00031626002923 0.00031504780009 0.00031384867932 0.00031266263877 0.00031149020371 
0.0003103309996 0.00030918423418 0.00030804989973 0.00030692784724 0.00030581672195 0.00030471625118 0.00030362544791 0.0003025435596 0.00030146994404 
0.00030040433748 0.00029934604018 0.000298295392 0.00029725268751 0.00029621829294 0.00029519220586 0.00029417521022 0.0002931673283 0.000353440834 
0.00035200902694 0.00035058540111 0.00034916999707 0.00034776209129 0.00034636161729 0.00034496781029 0.00034357995694 0.00034219989145 0.00034082628054 
0.00033945888951 0.00033809740546 0.00033674262339 0.00033539413619 0.00033405201411 0.00033271608821 0.00033138702092 0.00033006458295 0.00032874903442 
0.00032744070543 0.00032613986977 0.00032484738838 0.00032356350978 0.00032228792235 0.00032102244741 0.00031976685904 0.00031852216206 0.00031728853856 
0.00031606691597 0.00031485713377 0.00031365991398 0.00031247545487 0.00031130389882 0.00031014531695 0.00030899883316 0.00030786426834 0.00030674131816 
0.00030562901194 0.0003045266386 0.00030343396995 0.00030235005756 0.00030127399336 0.00030020619923 0.00029914572515 0.00029809285321 0.00029704770954 
0.00029601067441 0.00029498202704 0.00029396221233 0.00029295076272 0.00035334193335 0.0003519048243 0.00035047608159 0.00034905554591 0.00034764264722 
0.00034623697862 0.00034483881203 0.00034344618255 0.00034206174229 0.00034068398923 0.00033931279791 0.00033794848511 0.0003365915582 0.00033524114259 
0.00033389719313 0.00033256056698 0.00033123120119 0.00032990897191 0.00032859395165 0.00032728661722 0.00032598716809 0.00032469631028 0.00032341407881 
0.0003221405351 0.00032087724633 0.00031962436242 0.00031838185993 0.00031715090773 0.00031593095348 0.00031472313733 0.00031352755571 0.00031234444589 
0.00031117365408 0.0003100149241 0.00030886826278 0.00030773325223 0.00030660876479 0.00030549494454 0.00030439082568 0.00030329578728 0.00030220934678 
0.00030113116723 0.0003000606084 0.00029899772943 0.00029794277986 0.00029689486494 0.00029585517729 0.00029482373835 0.00029380037172 0.0002927862715 
0.00035332527908 0.00035188262801 0.00035044837746 0.00034902225321 0.00034760388872 0.00034619295348 0.00034478949442 0.00034339324711 0.00034200292953 
0.00034062060612 0.0003392457045 0.0003378780847 0.00033651832628 0.00033516576144 0.00033382056248 0.00033248254905 0.00033115218676 0.00032982950515 
0.00032851438831 0.00032720740532 0.00032590889609 0.00032461883873 0.00032333755052 0.00032206601819 0.00032080435479 0.0003195529303 0.00031831238033 
0.00031708270486 0.00031586424759 0.00031465764912 0.00031346320839 0.0003122803214 0.00031110994065 0.00030995105786 0.00030880352605 0.00030766736391 
0.00030654171641 0.00030542567958 0.00030431925032 0.0003032218801 0.0003021330841 0.00030105209435 0.00029997903789 0.00029891355881 0.00029785585712 
0.00029680544409 0.00029576266563 0.00029472815776 0.00029370177936 0.00029268425636 0.00035340139103 0.00035195268982 0.00035051224726 0.00034908038149 
0.0003476561859 0.0003462400193 0.0003448308276 0.00034342936496 0.00034203498291 0.00034064734256 0.00033926852954 0.00033789727034 0.00033653399361 
0.0003351790411 0.00033383110938 0.00033249141303 0.00033115966651 0.00032983588266 0.00032852037946 0.00032721317133 0.00032591460147 0.00032462497271 
0.00032334380928 0.00032207307327 0.00032081214617 0.0003195616873 0.00031832187293 0.00031709294909 0.00031587530139 0.00031466908616 0.00031347464245 
0.00031229201531 0.00031112089673 0.00030996134259 0.00030881269496 0.00030767472506 0.00030654722647 0.00030542910057 0.00030432029456 0.00030322029561 
0.0003021287081 0.00030104496845 0.00029996916206 0.00029890069186 0.00029784000764 0.00029678667555 0.00029574098081 0.00029470288541 0.00029367363088 
0.00029265239551 0.0003535771934 0.00035212182048 0.00035067530383 0.00034923691777 0.00034780689623 0.00034638465659 0.00034496995398 0.00034356257451 
0.00034216353157 0.00034077130578 0.00033938789612 0.00033801267357 0.00033664571966 0.00033528727309 0.00033393701529 0.00033259448528 0.00033126074102 
0.00032993530431 0.00032861822806 0.00032730990852 0.00032601067128 0.00032471986937 0.00032343920195 0.00032216791847 0.00032090679603 0.00031965639644 
0.00031841631452 0.00031718725617 0.00031596939786 0.00031476296826 0.00031356803501 0.00031238481653 0.00031121231698 0.00031005135042 0.00030890092246 
0.00030776107713 0.00030663105483 0.00030551040166 0.00030439910836 0.00030329625738 0.00030220147168 0.000301114873 0.00030003616651 0.00029896454193 
0.00029790048671 0.00029684416873 0.00029579523135 0.00029475401758 0.00029372094772 0.00029269597239 0.00035385653255 0.00035239455837 0.00035094152379 
0.00034949655802 0.00034806029244 0.00034663180142 0.00034521060019 0.00034379798334 0.00034239349121 0.0003409972886 0.00033960801309 0.00033822833576 
0.00033685716908 0.00033549477895 0.00033414118544 0.00033279579277 0.00033145917373 0.00033013117101 0.00032881198854 0.00032750177653 0.00032620072353 
0.00032490844194 0.00032362632877 0.00032235414724 0.00032109198091 0.00031984036577 0.0003185991663 0.00031736927494 0.00031615038804 0.00031494285394 
0.00031374681526 0.00031256167178 0.00031138755348 0.00031022439033 0.00030907176448 0.00030792924655 0.00030679658136 0.00030567300047 0.00030455871273 
0.00030345286735 0.00030235493777 0.00030126483072 0.00030018280001 0.00029910793626 0.00029804051792 0.00029698046298 0.00029592812489 0.00029488350312 
0.00029384650292 0.00029281759078 0.00035424171993 0.00035277255887 0.00035131252506 0.00034986088918 0.00034841790027 0.00034698263756 0.00034555599212 
0.00034413748382 0.00034272721645 0.00034132550453 0.00033993227895 0.00033854644002 0.00033717073103 0.00033580387725 0.00033444619091 0.00033309682458 
0.00033175672857 0.00033042546438 0.00032910349053 0.00032779029474 0.00032648601123 0.00032519197508 0.00032390783981 0.00032263343514 0.0003213696695 
0.00032011584299 0.00031887296005 0.00031764117265 0.00031642024468 0.00031521067527 0.00031401232229 0.00031282500677 0.00031164865294 0.00031048252711 
0.00030932711231 0.00030818156523 0.00030704569652 0.00030591891425 0.00030480106562 0.00030369161968 0.00030259034499 0.00030149682426 0.00030041087829 
0.00029933234159 0.00029826114391 0.00029719792145 0.00029614153289 0.00029509287809 0.00029405220722 0.00029301925349 0.00035473306392 0.00035325665019 
0.00035178963803 0.00035033052643 0.00034888073229 0.00034743919416 0.00034600596463 0.00034458124997 0.00034316510248 0.00034175766441 0.00034035869393 
0.00033896759401 0.0003375868583 0.00033621494789 0.00033485232618 0.00033349868524 0.00033215435129 0.00033081919189 0.00032949339743 0.00032817677526 
0.00032686918669 0.00032557183487 0.00032428412687 0.00032300715944 0.00032174037874 0.00032048360854 0.00031923804937 0.00031800342743 0.00031677999279 
0.00031556768759 0.00031436600979 0.00031317592083 0.00031199627907 0.0003108269051 0.00030966780668 0.00030851870944 0.00030737917576 0.00030624867033 
0.00030512713691 0.00030401368635 0.00030290849608 0.00030181129796 0.00030072144736 0.00029963880892 0.00029856392607 0.00029749584005 0.00029643579353 
0.00029538331627 0.00029433855486 0.00029330143761 0.00035533137174 0.00035384747049 0.00035237234551 0.00035090641678 0.00034944949363 0.00034800093177 
0.00034656097171 0.00034512972765 0.000343707238 0.00034229348712 0.00034088860567 0.00033949284965 0.00033810506211 0.00033672784169 0.0003353596743 
0.0003340010526 0.00033265177143 0.00033131192428 0.00032998154446 0.00032866007219 0.00032734897845 0.00032604713501 0.0003247560848 0.00032347493583 
0.00032220426299 0.00032094448069 0.0003196952933 0.00031845697042 0.00031722980218 0.00031601351743 0.00031480836086 0.00031361408939 0.00031243054019 
0.00031125725632 0.00031009408965 0.00030894089673 0.00030779706546 0.00030666238824 0.00030553647659 0.0003044187083 0.00030330938946 0.00030220767013 
0.00030111400857 0.00030002735192 0.00029894744337 0.00029787547587 0.00029681117532 0.00029575424084 0.00029470539541 0.00029366379137 0.00035603554994 
0.00035454360092 0.00035306100711 0.00035158728333 0.00035012292111 0.00034866709762 0.00034722007679 0.00034578212349 0.00034435275856 0.00034293258791 
0.00034152126464 0.00034011914341 0.00033872469153 0.000337341438 0.00033596765172 0.0003346031074 0.00033324844901 0.00033190318052 0.00033056681128 
0.00032924100462 0.00032792493853 0.00032661881295 0.00032532306013 0.00032403765166 0.00032276241892 0.00032149815067 0.00032024459297 0.00031900186432 
0.00031777011297 0.00031654926063 0.00031533963346 0.00031414113887 0.00031295303603 0.00031177526213 0.00031060734279 0.00030944943356 0.00030830083379 
0.00030716155505 0.0003060307844 0.00030490838422 0.00030379417832 0.00030268779952 0.00030158911763 0.00030049790096 0.00029941351565 0.00029833678879 
0.00029726785005 0.00029620626704 0.00029515260757 0.00029410656891 0.00035684515589 0.0003553453308 0.00035385444388 0.00035237287275 0.00035090078822 
0.0003494371496 0.00034798269303 0.00034653733714 0.00034510089185 0.00034367361325 0.0003422554158 0.00034084662763 0.0003394471224 0.00033805597429 
0.00033667572222 0.00033530480807 0.0003339440289 0.0003325926549 0.00033125048909 0.00032991890283 0.00032859750637 0.00032728628677 0.00032598497457 
0.00032469421141 0.0003234140705 0.00032214457888 0.00032088609429 0.00031963835674 0.00031840096122 0.00031717519473 0.00031596042257 0.0003147562415 
0.00031356274342 0.00031237963166 0.00031120658935 0.0003100435112 0.00030888956869 0.00030774474217 0.00030660903755 0.00030548142481 0.00030436193785 
0.0003032504556 0.00030214639718 0.00030104995306 0.00029996103984 0.0002988795537 0.00029780552578 0.00029673897755 0.00029568043026 0.00029462972692 
0.00035776073261 0.00035625209498 0.00035475281287 0.00035326296775 0.00035178274448 0.00035031129193 0.00034884907498 0.00034739600304 0.00034595183598 
0.00034451696055 0.00034309134162 0.00034167526602 0.00034026859241 0.00033887147486 0.00033748272063 0.00033610503417 0.00033473701841 0.00033337879187 
0.00033203088196 0.00033069301333 0.00032936529828 0.00032804822541 0.0003267410788 0.00032544441346 0.00032415823163 0.00032288282064 0.00032161865329 
0.00032036505613 0.00031912226017 0.00031789036626 0.00031666938969 0.00031545950965 0.00031426032041 0.00031307133255 0.00031189233775 0.0003107233675 
0.00030956348334 0.0003084131947 0.00030727118024 0.00030613807031 0.00030501301899 0.00030389577502 0.000302786376 0.00030168418467 0.00030059009533 
0.00029950329167 0.00029842416287 0.00029735265832 0.00029628852766 0.0002952328061 0.00035878273436 0.00035726513362 0.0003557570082 0.00035425820252 
0.00035276918122 0.00035128954193 0.0003498189417 0.00034835752766 0.00034690528206 0.00034546221479 0.00034402876187 0.00034260461026 0.0003411900175 
0.00033978519495 0.00033838880829 0.00033700346945 0.00033562834836 0.00033426268981 0.00033290803331 0.00033156329323 0.00033022912041 0.0003289050781 
0.00032759136216 0.00032628837158 0.0003249956478 0.00032371404155 0.00032244293804 0.00032118293841 0.00031993372986 0.00031869507647 0.00031746767636 
0.00031625111102 0.00031504535395 0.00031384995755 0.00031266456754 0.00031148895347 0.00031032283139 0.00030916623834 0.00030801801448 0.00030687872716 
0.00030574755172 0.00030462432567 0.00030350866651 0.00030240079439 0.00030130104724 0.00030020884233 0.00029912412402 0.00029804717859 0.00029697808323 
0.0002959167333 0.00035991194219 0.00035838433931 0.00035686683156 0.00035535867552 0.00035386043962 0.0003523716368 0.00035089232853 0.00034942221594 
0.00034796126083 0.00034650957928 0.00034506727185 0.00034363450888 0.00034221155956 0.00034079828882 0.00033939510882 0.00033800052759 0.00033661685423 
0.00033524397634 0.00033388159481 0.00033252977353 0.00033118808579 0.00032985697772 0.00032853634381 0.00032722630713 0.000325926928 0.00032463786736 
0.00032335948787 0.00032209229331 0.00032083560523 0.00031959025358 0.00031835527973 0.00031713145693 0.00031591852201 0.00031471578734 0.00031352338584 
0.00031234070381 0.00031116806389 0.00031000453212 0.00030884991937 0.00030770360137 0.00030656571315 0.00030543646279 0.00030431448722 0.0003032005123 
0.00030209424393 0.00030099602713 0.00029990546068 0.00029882281142 0.00029774815147 0.00029668166332 0.00036114842792 0.00035961082978 0.00035808317315 
0.0003565652474 0.000355057091 0.00035355861736 0.0003520696298 0.00035059018213 0.00034911977898 0.00034765878587 0.00034620741633 0.00034476545292 
0.00034333315562 0.00034191107234 0.00034049875323 0.00033909693588 0.00033770347197 0.00033632237812 0.0003349516736 0.00033359232613 0.00033224293228 
0.00033090435816 0.00032957608187 0.00032825841125 0.00032695135468 0.00032565451669 0.00032436860319 0.00032309317879 0.00032182873738 0.00032057525727 
0.00031933272586 0.00031810080008 0.00031687986169 0.00031566955632 0.00031446955259 0.00031327939604 0.00031209948761 0.00031092865089 0.00030976688475 
0.00030861380223 0.00030746880943 0.00030633195985 0.00030520347453 0.00030408289226 0.00030297010947 0.00030186528601 0.00030076871648 0.00029968022357 
0.00029859993133 0.00029752763764 0.00036249309765 0.0003609447465 0.00035940671992 0.00035787816247 0.00035635965149 0.00035485076687 0.00035335156703 
0.00035186184099 0.00035038146716 0.00034891043694 0.00034744882389 0.00034599719403 0.00034455497258 0.00034312299392 0.00034170147396 0.00034028953322 
0.00033888762952 0.00033749788216 0.00033611892384 0.00033475099488 0.00033339358578 0.00033204666353 0.00033071035003 0.00032938473959 0.00032806940436 
0.00032676457285 0.00032546993434 0.00032418606058 0.00032291311346 0.00032165086723 0.00032039973251 0.00031915949464 0.0003179301596 0.00031671139289 
0.00031550323962 0.00031430512149 0.00031311702919 0.00031193863029 0.00031076923662 0.00030960852857 0.00030845649692 0.00030731207183 0.0003061762486 
0.00030504857781 0.00030392924713 0.00030281755268 0.00030171452897 0.00030061980216 0.00029953309431 0.00029845503987 0.00036394562718 0.00036238598213 
0.00036083683902 0.00035929737423 0.00035776781117 0.00035624793155 0.00035473782415 0.00035323686428 0.00035174550229 0.00035026378682 0.00034879176477 
0.0003473292384 0.00034587660993 0.00034443430043 0.00034300189621 0.00034158066594 0.00034017019959 0.00033876974842 0.00033738209379 0.00033600510375 
0.00033463924151 0.00033328392632 0.0003319390899 0.00033060475498 0.00032928064365 0.0003279668643 0.00032666343248 0.00032537037437 0.0003240879601 
0.00032281675874 0.00032155630587 0.00032030684114 0.00031906821206 0.00031784080618 0.00031662395322 0.00031541737018 0.00031422093002 0.00031303431231 
0.00031185707276 0.00031068840429 0.00030952871331 0.00030837669236 0.00030723320627 0.00030609799241 0.00030497108585 0.00030385257654 0.0003027424498 
0.00030164109474 0.0003005481078 0.0002994641123 0.00036550515763 0.00036393394834 0.00036237274531 0.00036082167601 0.00035928022141 0.0003577483215 
0.0003562264697 0.00035471403014 0.00035321124746 0.00035171790688 0.00035023422589 0.00034876049334 0.00034729653029 0.0003458431929 0.00034439981406 
0.00034296818933 0.00034154771103 0.0003401376853 0.00033874017598 0.00033735394416 0.00033597897021 0.00033461481648 0.00033326081401 0.00033191716645 
0.00033058367649 0.00032926096494 0.00032794799973 0.00032664505583 0.0003253527759 0.00032407139878 0.0003228009442 0.00032154159829 0.00032029374449 
0.00031905663747 0.00031783053623 0.00031661530149 0.0003154101429 0.00031421523404 0.00031302959554 0.00031185272352 0.00031068445786 0.00030952470349 
0.00030837308503 0.00030723008406 0.0003060956443 0.00030496969362 0.00030385234309 0.00030274388181 0.00030164452232 0.00030055415694 0.00036716942549 
0.00036558594704 0.00036401225152 0.00036244854411 0.00036089465558 0.0003593501496 0.00035781560365 0.00035629087464 0.00035477546842 0.00035326986081 
0.0003517740628 0.00035028820874 0.00034881235988 0.00034734649729 0.0003458922388 0.00034444957697 0.00034301874621 0.00034159941925 0.00034019056731 
0.00033879456652 0.00033740978036 0.00033603636013 0.00033467296354 0.00033331974811 0.00033197676679 0.00033064355723 0.00032932036553 0.00032800736365 
0.0003267044947 0.0003254125168 0.00032413158724 0.00032286187665 0.00032160397312 0.00032035731725 0.00031912144727 0.00031789690327 0.00031668292012 
0.00031547899798 0.00031428470052 0.00031309945075 0.00031192245402 0.00031075420572 0.00030959460464 0.00030844351576 0.00030730098598 0.00030616684806 