# vtk DataFile Version 5.1
vtk output
ASCII
DATASET STRUCTURED_POINTS
DIMENSIONS 50 50 50
SPACING 0.002 0.002 0.002
ORIGIN 0.1742 -0.052672 0.02732
POINT_DATA 125000
FIELD FieldData 1
potential 1 125000 double
<<<<<<< HEAD
0.0018392488693 0.0018564378053 0.0018738654757 0.0018915238299 0.0019088997408 0.0019270357866 0.0019454213632 0.0019640601414 0.0019829587473 
0.0020021188615 0.0020215447546 0.0020412424085 0.0020612154112 0.0020814724156 0.002102018135 0.0021228581847 0.00214399473 0.0021654320365 
0.0021871748132 0.0022092126384 0.0022315570555 0.0022542178649 0.0022771003667 0.0023003759227 0.0023239698168 0.0023478835809 0.0023721360746 
0.0023967394524 0.0024217101922 0.0024470690438 0.0024728350667 0.0024990281287 0.0025256635918 0.0025524922021 0.0025800556233 0.0026080976631 
0.0026366294069 0.002665657712 0.0026951909378 0.0027252393803 0.0027558190309 0.0027869278754 0.0028186226179 0.0028508642872 0.0028836946883 
0.0029171374793 0.0029513547746 0.0029860885009 0.0030214863379 0.0030575731582 0.0018365378236 0.0018536592026 0.0018710104839 0.0018885963999 
0.0019059049885 0.001923965884 0.0019422727546 0.0019608326242 0.001979646547 0.0019987191105 0.0020180527895 0.0020376525765 0.0020575249138 
0.0020776751407 0.0020981087171 0.002118832521 0.0021398464509 0.0021611554605 0.0021827658848 0.0022046737525 0.0022268677575 0.0022493655475 
0.0022721821959 0.0022952106097 0.0023186452459 0.0023424012547 0.0023664894412 0.002390926776 0.002415731277 0.002440925563 0.0024665242038 
0.0024925497502 0.002519015273 0.0025459394987 0.0025730651247 0.0026009344602 0.0026292896775 0.0026581383189 0.0026874885723 0.0027173506403 
0.0027477322572 0.0027786561238 0.0028101545329 0.002842192934 0.0028748159225 0.0029080454687 0.0029420466807 0.0029765556862 0.0030117249581 
0.0030475759579 0.0018330311578 0.001850081463 0.0018673585981 0.0018848697311 0.0019026178431 0.0019200754263 0.0019383081047 0.0019567816466 
0.0019755065462 0.0019944871879 0.0020137230905 0.0020332219985 0.0020529875346 0.0020730255595 0.0020933413426 0.0021139384835 0.0021348228999 
0.0021559952916 0.0021774606727 0.0021992218014 0.0022212779977 0.0022436085821 0.0022662486592 0.0022892026582 0.0023123761801 0.0023359576828 
0.0023598738181 0.0023841395794 0.0024087744115 0.0024337945669 0.0024592184654 0.0024850671256 0.002511355097 0.0025381000144 0.0025650482357 
0.0025927332051 0.0026209036244 0.0026495648872 0.0026787272223 0.0027083952929 0.0027385821351 0.0027693058107 0.0028005994963 0.002832431436 
0.0028648387147 0.0028978503911 0.0029314820861 0.0029659013678 0.0030008308181 0.0030364337193 0.0018285582045 0.0018455306745 0.0018627297635 
0.0018801595911 0.0018978253748 0.0019151983056 0.0019333367777 0.0019517190167 0.0019703551818 0.0019892364247 0.0020083683258 0.0020277585341 
0.0020474108358 0.0020673292903 0.0020875188653 0.0021079850759 0.0021287272571 0.0021497544325 0.0021710668416 0.0021926651443 0.0022145573975 
0.0022367380054 0.0022591988655 0.0022819566727 0.0023050442582 0.0023283579202 0.0023520922884 0.0023761751367 0.0024006250716 0.0024254599073 
0.0024507005857 0.0024763635379 0.0025024673987 0.0025290212503 0.0025560422203 0.0025832722836 0.0026112478607 0.0026397126689 0.0026686752821 
0.0026981423764 0.0027281240411 0.0027586322041 0.0027897196433 0.0028213316689 0.002853514511 0.002886294683 0.0029196868183 0.0029537111206 
0.0029885374627 0.0030238809014 0.0018229877685 0.0018398738977 0.001856987242 0.0018743300407 0.001891905099 0.0019097160283 0.0019272281654 
0.0019455107969 0.0019640393548 0.0019828136033 0.0020018391072 0.0020211123558 0.0020406416555 0.0020604315214 0.0020804857135 0.0021008085557 
0.0021214034336 0.0021422740589 0.0021634232733 0.0021848517548 0.0022065665531 0.0022285633677 0.0022508605052 0.0022734353894 0.0022963152512 
0.0023194369283 0.0023429792664 0.0023668694504 0.0023911258927 0.002415766623 0.0024408107482 0.0024662748327 0.0024921768411 0.0025185303695 
0.002545348061 0.002572639514 0.002600144955 0.0026284042114 0.0026571535056 0.0026864072716 0.0027161721973 0.0027464589437 0.0027772822678 
0.002808700442 0.0028406432716 0.002873175873 0.0029063129249 0.0029400765947 0.0029744787708 0.0030096947788 0.0018162362317 0.0018330270246 
0.0018500442447 0.0018672889104 0.0018847658959 0.0019024743129 0.0019198812101 0.001938056963 0.0019564723289 0.001975131026 0.0019940298823 
0.0020131773561 0.0020325796647 0.0020522309833 0.0020721390322 0.0020923100697 0.0021127449317 0.0021334464576 0.0021544220822 0.002175671469 
0.0021971987098 0.0022190052575 0.0022411093681 0.0022635043129 0.0022861890492 0.0023091816746 0.0023324357888 0.0023561209686 0.0023801721951 
0.0024046064205 0.0024294414352 0.0024546969521 0.0024803862332 0.0025065264112 0.0025331257102 0.002560196731 0.0025874871428 0.0026155208103 
0.0026440458138 0.0026730711687 0.0027026063553 0.0027326587565 0.0027632386207 0.0027944078161 0.0028260943021 0.0028583619431 0.0028912256104 
0.0029247025908 0.0029588116674 0.0029937286431 0.0018082645617 0.0018249507922 0.0018418666492 0.0018590037148 0.0018763695733 0.0018939673737 
0.0019112608285 0.0019293174254 0.0019476106503 0.0019661407062 0.0019849084565 0.0020039190283 0.0020231729469 0.0020426765401 0.0020624349852 
0.0020824408111 0.0021027043354 0.002123231434 0.0021440214386 0.0021650816511 0.0021864153272 0.0022080243902 0.0022299275509 0.0022521161343 
0.0022746054298 0.0022973945436 0.0023205042604 0.0023438932036 0.0023677294357 0.0023919454928 0.0024165595133 0.0024415930489 0.0024670583991 
0.0024929706878 0.0025193389849 0.0025461802423 0.0025734952986 0.002601031583 0.0026293155719 0.0026580975352 0.0026873822753 0.0027171795953 
0.0027474992409 0.0027783926986 0.0028098119959 0.0028417945169 0.0028743633337 0.0029075351013 0.002941330407 0.0029757581618 0.001799108551 
0.0018156792989 0.0018324713967 0.0018494956185 0.001866741514 0.0018842153762 0.001901920578 0.0019193116879 0.0019374711031 0.0019558628935 
0.0019744908547 0.001993351341 0.0020124517796 0.0020317948841 0.0020513823047 0.0020712147336 0.0020913036872 0.0021116468908 0.0021322469489 
0.0021531105612 0.0021742405173 0.0021956451524 0.0022173375643 0.002239313685 0.0022615885732 0.0022841770645 0.0023070701576 0.0023303016201 
0.0023538300347 0.0023778190849 0.002402206044 0.0024270056444 0.002452232169 0.0024779029058 0.0025040326292 0.0025306244521 0.002557688691 
0.0025852340905 0.0026130010203 0.0026415207239 0.0026705389722 0.0027000619493 0.0027301052412 0.0027607051894 0.0027918253593 0.0028235013477 
0.002855753129 0.0028885979255 0.0029220557679 0.0029561376378 0.0017888395894 0.0018052838704 0.0018219489352 0.0018388362939 0.0018559555495 
0.0018732971488 0.0018908652032 0.0019081163818 0.0019261314411 0.0019443741771 0.0019628480712 0.001981550332 0.0020004875222 0.0020196601025 
0.0020390721977 0.0020587251001 0.0020786218208 0.0020987712388 0.0021191792735 0.0021398388118 0.0021607626554 0.0021819570116 0.0022034351003 
0.0022251937396 0.0022472470801 0.0022696092382 0.0022922980578 0.0023153029808 0.0023385824472 0.0023623354682 0.0023864833532 0.0024110393543 
0.0024360191063 0.0024614388964 0.0024873098949 0.0025136410589 0.0025404410026 0.0025677166922 0.0025954757465 0.0026234527436 0.0026521844777 
0.0026814159933 0.002711160767 0.0027414517684 0.0027722466929 0.0028035989469 0.0028355139159 0.0028680081106 0.0029011032175 0.0029348103074 
0.0017775843889 0.0017938909339 0.0018104164195 0.0018271640251 0.0018441350744 0.0018613326663 0.0018787589498 0.0018964020671 0.0019137170763 
0.001931800681 0.0019501116504 0.0019686463557 0.001987409803 0.0020064053057 0.0020256331473 0.0020450971659 0.0020648037059 0.0020847540992 
0.0021049533414 0.0021254087861 0.0021461225606 0.002167107862 0.0021883689354 0.002209907986 0.0022317397858 0.0022538755414 0.0022763357461 
0.0022991234637 0.0023222470725 0.0023456619206 0.0023695599384 0.002393864306 0.0024185866673 0.0024437470415 0.0024693495136 0.002495407889 
0.0025219285182 0.002548919022 0.0025763864061 0.0026040712603 0.0026325006696 0.0026614211929 0.0026908487099 0.0027208112109 0.002751268008 
0.0027822706626 0.0028138252351 0.0028459498719 0.002878664396 0.0029119789105 0.0017655014891 0.0017816618735 0.0017980413782 0.0018146382919 
0.0018314587588 0.00184849824 0.0018657589065 0.0018832472292 0.0019003994953 0.0019183142402 0.0019364508484 0.0019548088095 0.0019733927966 
0.0019922049267 0.0020112448995 0.002030516241 0.0020500260525 0.0020697747828 0.0020897690981 0.0021100170314 0.0021305194542 0.0021512847487 
0.0021723275184 0.0021936503851 0.0022152559283 0.0022371660966 0.0022593888323 0.0022819484766 0.0023048511174 0.0023280991426 0.002351651449 
0.0023756977217 0.002400157859 0.0024250433548 0.0024503683062 0.0024761417618 0.0025023739656 0.0025290672483 0.0025562296757 0.002583862837 
0.002611715839 0.0026403092446 0.0026694003887 0.0026990185163 0.0027291192651 0.0027597494828 0.0027909332214 0.0028226699341 0.0028549850903 
0.0028878901664 0.0017527845471 0.0017687907169 0.0017850127258 0.0018014502449 0.0018181087427 0.0018349845696 0.0018520782758 0.0018693915895 
0.0018869215428 0.0019041134958 0.0019220696405 0.0019402457589 0.0019586432502 0.0019772653802 0.0019961128097 0.0020151887825 0.0020344987017 
0.0020540457707 0.0020738365388 0.0020938742816 0.0021141664189 0.0021347172339 0.002155545746 0.0021766422628 0.0021980255639 0.0022197092153 
0.0022417058634 0.00226403111 0.0022866906345 0.0023097110375 0.0023330858908 0.0023567973382 0.0023809678294 0.0024055755924 0.0024306162541 
0.0024560977467 0.0024820278487 0.0025084131665 0.0025352594941 0.0025625706085 0.0025903495986 0.0026183452125 0.0026470853566 0.0026763440121 
0.0027060751405 0.0027363248617 0.0027671156848 0.0027984498153 0.0028303510337 0.0028628277364 0.0017396263711 0.0017554729145 0.0017715314553 
0.0017878048898 0.0018042924282 0.0018209976942 0.0018379183767 0.0018550527993 0.001872402066 0.0018894080978 0.0019071837975 0.0019251717897 
0.0019433789468 0.0019618090133 0.0019804608002 0.0019993402355 0.0020184508969 0.0020377954291 0.0020573807663 0.0020772124271 0.0020972947932 
0.0021176355434 0.0021382508032 0.0021591309062 0.0021802930655 0.0022017498786 0.0022235151297 0.0022456006415 0.002268030881 0.0022908037747 
0.0023139423821 0.0023374465038 0.0023612911471 0.0023856006723 0.0024103527739 0.0024355343938 0.0024611555805 0.0024872228683 0.0025137443645 
0.0025407226378 0.0025681586028 0.00259580529 0.0026241873558 0.0026530446319 0.0026824257505 0.0027122860002 0.0027426679263 0.0027735968271 
0.0028050714674 0.0028371104095 0.0017262286816 0.0017419103183 0.0017578004731 0.0017739024336 0.001790217637 0.0018067448349 0.001823484678 
0.0018404376428 0.0018576008549 0.0018749774886 0.001892002687 0.0019098006385 0.0019278201675 0.001946056051 0.0019645113946 0.0019831948337 
0.0020021065364 0.0020212512304 0.0020406336274 0.0020602623328 0.0020801382443 0.0021002715233 0.00212067027 0.0021413425234 0.002162289085 
0.0021835247327 0.0022050633438 0.0022269164996 0.0022491044309 0.0022716312421 0.0022945209618 0.0023177861514 0.0023414099719 0.0023653841044 
0.002389822703 0.0024147025121 0.0024400118769 0.0024657582457 0.0024919480358 0.0025185841273 0.0025456714076 0.0025732182401 0.0026009768834 
0.0026294592012 0.0026584541251 0.002687917299 0.0027178951053 0.0027483957615 0.0027794448961 0.0028110403875 0.0017127745434 0.0017282873299 
0.0017440064922 0.0017599359805 0.0017760734573 0.0017924188425 0.0018089754376 0.0018257428847 0.0018427197655 0.0018599058654 0.001876743145 
0.0018943472008 0.0019121702203 0.0019302156386 0.0019484767287 0.0019669654995 0.001985680171 0.002004627563 0.0020238115455 0.0020432394812 
0.0020629119857 0.0020828428873 0.0021030327427 0.002123495536 0.0021442272863 0.0021652476358 0.0021865637708 0.0022081902818 0.0022301382589 
0.0022524312032 0.0022750630118 0.0022980616015 0.0023214391749 0.0023451824072 0.0023692780892 0.002393854159 0.0024188314327 0.0024442545854 
0.002470109241 0.0024964017805 0.0025231358969 0.0025503194672 0.0025779670103 0.002605815076 0.0026344210423 0.0026634880268 0.0026930549292 
0.0027231356065 0.0027537527019 0.0027848986155 0.0016994289023 0.0017147717022 0.0017303178952 0.0017460717049 0.0017620299359 0.0017781951303 
0.0017945669465 0.0018111471037 0.0018279347283 0.0018449324281 0.0018621404991 0.001878992918 0.0018966237652 0.0019144722748 0.0019325416296 
0.0019508410142 0.0019693623156 0.0019881149294 0.002007104022 0.0020263326704 0.0020458083334 0.0020655369248 0.0020855251029 0.0021057805169 
0.0021263043312 0.0021471125218 0.0021682104015 0.0021896116864 0.0022113289304 0.0022333771362 0.0022557630964 0.0022785002277 0.0023016091086 
0.002325096122 0.0023488778705 0.0023731511798 0.0023978351002 0.0024229172951 0.0024484388486 0.0024743881045 0.0025007704156 0.0025275912389 
0.0025548670843 0.0025825917101 0.0026105573844 0.0026392270727 0.002668386206 0.0026980476928 0.0027282276872 0.0027589348327 0.0016863292908 
0.0017015024813 0.0017168755278 0.0017324536585 0.0017482334656 0.0017642173103 0.0017804054154 0.0017967994821 0.0018134007112 0.0018302103807 
0.0018472305273 0.0018638956627 0.0018813347546 0.0018989929167 0.0019168735508 0.0019349755385 0.001953306687 0.0019718720757 0.0019906686537 
0.0020097049991 0.0020289856355 0.0020485161842 0.0020683073009 0.002088361162 0.0021086796323 0.0021292752464 0.0021501579631 0.0021713371489 
0.0021928270773 0.0022146386105 0.0022367782126 0.0022592599173 0.0022821000021 0.0023053103354 0.00232889784 0.0023527824577 0.0023771564824 
0.0024019348966 0.0024271062155 0.0024527156945 0.0024787520346 0.0025052128606 0.0025321217585 0.0025594717723 0.0025873096257 0.0026153321231 
0.0026440849415 0.0026733319758 0.0027030833108 0.0027333421703 0.0016735831878 0.001688588316 0.0017037921009 0.0017191977098 0.0017348011582 
0.0017506044566 0.0017666120435 0.0017828221155 0.0017992378987 0.0018158612886 0.0018326942874 0.0018497398179 0.0018664297501 0.0018839000706 
0.0019015914074 0.0019195074261 0.0019376519697 0.0019560263126 0.0019746379839 0.0019934847613 0.002012574063 0.002031911239 0.002051504541 
0.0020713583242 0.0020914738179 0.0021118637424 0.0021325336025 0.002153497355 0.0021747574316 0.0021963307552 0.0022182330684 0.002240466312 
0.0022630428777 0.0022859784433 0.0023092816447 0.0023329657609 0.0023569424409 0.0023814065359 0.002406270815 0.0024315441704 0.0024572146251 
0.0024833273204 0.002509872583 0.002536852874 0.0025643157506 0.0025919514665 0.0026203070648 0.0026491436133 0.0026784646223 0.0027082912694 
0.0016612705024 0.0016761115372 0.0016911489352 0.0017063831689 0.0017218143427 0.0017374435411 0.0017532732082 0.0017693038758 0.001785538074 
0.0018019790098 0.001818628922 0.0018354916064 0.0018520016186 0.0018692917636 0.0018868018747 0.0019045330445 0.0019224930106 0.0019406828372 
0.0019591038169 0.0019777627706 0.0019966689155 0.0020158140939 0.0020352143818 0.002054871626 0.0020747867208 0.0020949701394 0.002115432309 
0.0021361773327 0.0021572152481 0.0021785583557 0.0022002221134 0.0022222043324 0.0022445274451 0.0022671946763 0.0022902190506 0.0023136128639 
0.0023373836669 0.0023614468815 0.0023859916231 0.0024109371941 0.0024362905004 0.0024620376029 0.0024882299763 0.0025148506692 0.0025419107047 
0.0025694470436 0.0025971634708 0.0026255981249 0.0026545069059 0.0026839067724 0.0016494451825 0.0016641264412 0.0016790017559 0.0016940708848 
0.001709333557 0.0017247958623 0.0017404512547 0.0017563082689 0.0017723660238 0.0017886302095 0.0018051043031 0.0018217895012 0.0018386903627 
0.0018552352384 0.0018725640017 0.001890116771 0.0019078957926 0.0019259033509 0.0019441433074 0.0019626178465 0.0019813329458 0.002000289227 
0.0020195001509 0.0020389639658 0.0020586802736 0.002078662167 0.002098914075 0.0021194446065 0.0021402641799 0.0021613800569 0.0021828025671 
0.0022045481768 0.0022266176441 0.0022490236042 0.0022717735728 0.0022948847776 0.0023183630715 0.0023422131871 0.0023663600295 0.0023909845853 
0.0024160085274 0.0024414372359 0.0024672694673 0.0024935326865 0.0025202297932 0.0025473947269 0.0025749787194 0.0026027693651 0.0026312801218 
0.0026602619644 0.0016381523857 0.0016526775153 0.0016673950665 0.0016823030162 0.0016974040592 0.001712698295 0.0017281878245 0.0017438745308 
0.001759763712 0.0017758607546 0.0017921613529 0.0018086732669 0.0018254002234 0.0018417742445 0.0018589301464 0.0018763039622 0.0018939066537 
0.0019117355291 0.0019297938323 0.0019480864932 0.0019666175402 0.0019853861925 0.0020044040699 0.0020236781536 0.0020431970844 0.0020629798346 
0.0020830234183 0.0021033420215 0.002123943611 0.0021448362563 0.0021660287191 0.0021875365606 0.0022093553371 0.0022315053828 0.0022539903926 
0.0022768248775 0.0023000164935 0.0023235732657 0.0023475056825 0.0023717608656 0.0023964336019 0.0024215355726 0.0024470504934 0.0024729685616 
0.0024992924087 0.0025260958849 0.0025533085252 0.0025809665828 0.0026088377114 0.0026374143835 0.0016267630296 0.0016417843219 0.0016563501429 
0.0016711026309 0.0016860467358 0.0017011819124 0.0017165084238 0.0017320334897 0.001747758456 0.0017636872292 0.0017798219417 0.0017961662737 
0.0018127239316 0.0018295000451 0.0018459135881 0.0018631193355 0.0018805467346 0.0018981995175 0.0019160808423 0.0019341939804 0.0019525414742 
0.0019711254206 0.0019899536071 0.002009032643 0.0020283581263 0.0020479431401 0.0020677820419 0.0020878935606 0.0021082803992 0.00212895214 
0.0021499181075 0.002171184492 0.0021927674767 0.0022146637089 0.0022368906021 0.002259453739 0.0022823689649 0.0023056382078 0.0023292769245 
0.0023532877397 0.0023776229012 0.0024023739287 0.0024275606392 0.002453146914 0.002479144485 0.0025055735515 0.0025324218267 0.0025597123398 
0.0025874451055 0.0026153862189 0.0016165818796 0.0016314538614 0.0016458736668 0.0016604768016 0.0016752690225 0.0016902496781 0.0017054243967 
0.0017207931221 0.0017363594358 0.001752128021 0.0017681011036 0.0017842822921 0.0018006756615 0.0018172846068 0.0018335351656 0.0018505681628 
0.0018678240448 0.0018853027301 0.0019030105389 0.0019209439522 0.0019391106861 0.0019575122898 0.0019761579062 0.001995040393 0.0020141785838 
0.0020335619943 0.0020532014352 0.0020731095797 0.0020932843316 0.0021137384138 0.0021344801703 0.0021555155577 0.0021768611011 0.0021985109036 
0.0022204832026 0.0022427867728 0.0022654290033 0.0022884211197 0.0023117716665 0.0023354881417 0.0023595777478 0.0023839957046 0.0024088321234 
0.0024340912792 0.0024597534996 0.0024858631043 0.002512357024 0.0025392652509 0.0025666288485 0.0025941917506 0.0016069585434 0.0016216892111 
0.0016359678307 0.001650426705 0.0016650737115 0.0016799081739 0.0016949325203 0.0017101503412 0.0017255649633 0.0017411792993 0.0017569955238 
0.0017730189748 0.0017892527779 0.0018056990564 0.0018223607379 0.0018386560296 0.0018557445064 0.0018730543155 0.0018905878686 0.0019083460379 
0.001926334817 0.0019445552007 0.0019630117956 0.001981710378 0.0020006554826 0.0020198412387 0.0020392829832 0.002058982799 0.0020789504405 
0.0020991948154 0.0021197138043 0.0021405268444 0.0021616328087 0.0021830474266 0.0022047715311 0.002226817995 0.0022491999032 0.0022719187599 
0.0022949921642 0.0023184218416 0.0023422170502 0.0023663893606 0.0023908958322 0.002415806146 0.0024411483533 0.0024669115772 0.0024930698905 
0.0025196478902 0.0025466339501 0.0025740703791 0.0015978919688 0.0016118431452 0.0016266268266 0.0016409494881 0.0016554572867 0.0016701492937 
0.001685030153 0.001700102822 0.0017153695095 0.0017308351538 0.0017465007092 0.0017623701641 0.0017784488065 0.0017947365469 0.0018112367189 
0.0018273746135 0.0018442983359 0.0018614406177 0.0018788043723 0.0018963897512 0.0019142035318 0.0019322444202 0.0019505223085 0.0019690325929 
0.0019877868783 0.0020067840474 0.0020260307447 0.0020455279587 0.0020652884013 0.0020853169331 0.0021056203979 0.0021262088917 0.0021470860326 
0.002168265388 0.0021897472769 0.0022115453129 0.0022336689946 0.0022561256574 0.0022789263224 0.0023020769819 0.0023255900361 0.0023494677451 
0.0023737301032 0.0023983163188 0.0024233031907 0.0024487228582 0.0024745767567 0.0025008131904 0.0025274710342 0.0025545495532 0.0015893750008 
0.0016031989262 0.001617847691 0.0016320375711 0.0016464110595 0.0016609660372 0.0016757084907 0.0016906414484 0.001705765502 0.0017210858935 
0.0017366045161 0.0017523253035 0.0017682518691 0.001784385463 0.0018007307791 0.0018172868297 0.001833476145 0.001850454867 0.0018676498706 
0.0018850673711 0.0019027072607 0.0019205733763 0.0019386720937 0.0019570013759 0.0019755694473 0.0019943772065 0.0020134283823 0.0020327304954 
0.0020522872065 0.0020721052435 0.0020921955586 0.0021125650057 0.0021332177105 0.0021541658597 0.0021754150551 0.0021969709602 0.0022188419261 
0.0022410454654 0.002263581999 0.0022864608693 0.0023096953935 0.0023332903381 0.0023572576969 0.0023815966762 0.0024062636523 0.0024313382547 
0.0024568684577 0.0024827748541 0.0025090943314 0.0025358266368 0.001581396374 0.00159509842 0.0016096171191 0.0016236796369 0.0016379241541 
0.0016523497364 0.001666959001 0.0016817559872 0.0016967430625 0.0017119233671 0.001727299597 0.0017428761162 0.0017586557137 0.0017746401396 
0.0017908329414 0.0018072335502 0.0018232700234 0.0018400877322 0.0018571193866 0.0018743711632 0.0018918421302 0.0019095387202 0.0019274588189 
0.0019456082071 0.0019639938946 0.0019826127792 0.0020014759233 0.0020205818961 0.0020399376807 0.0020595534712 0.0020794347922 0.0020995854516 
0.0021200173954 0.0021407360206 0.0021617498098 0.0021830765107 0.0022047046454 0.0022266538249 0.0022489372083 0.0022715552931 0.0022945193707 
0.0023178377471 0.0023415215773 0.0023655656217 0.0023899895991 0.0024147500169 0.0024399691139 0.0024655213722 0.0024915137727 0.0025179128227 
0.0015739532706 0.0015875367051 0.0016012915968 0.0016158713628 0.0016299914601 0.001644289574 0.0016587715792 0.0016734373917 0.001688290621 
0.0017033350905 0.001718573385 0.0017340093266 0.0017496461635 0.0017654839323 0.0017815270938 0.0017977767993 0.0018142350526 0.001830324121 
0.0018471969892 0.0018642869528 0.0018815909793 0.0018991215472 0.0019168685491 0.0019348414767 0.0019530467356 0.0019714814634 0.0019901570204 
0.0020090722899 0.0020282333775 0.0020476477079 0.0020673208137 0.0020872628725 0.0021074798617 0.0021279761152 0.0021487633706 0.0021698549039 
0.00219124479 0.0022129558749 0.0022349859189 0.0022573523315 0.0022800556229 0.0023031048998 0.0023265152112 0.0023502772933 0.0023744146326 
0.0023989244675 0.0024238007489 0.002449081264 0.0024747169076 0.0025007944029 0.0015670399056 0.001580509628 0.001594148973 0.0016086046067 
0.0016226035521 0.0016367813515 0.0016511383084 0.001665677042 0.001680401468 0.001695313672 0.0017104188607 0.0017257182286 0.0017412136811 
0.0017569100627 0.0017728073908 0.0017889096894 0.0018052181139 0.0018217350964 0.0018378772762 0.0018548073377 0.0018719529491 0.0018893157172 
0.0019068941093 0.0019246966651 0.0019427218745 0.0019609817724 0.0019794704115 0.0019981993609 0.0020171678381 0.002036383751 0.002055855792 
0.0020755903665 0.0020955960717 0.0021158777623 0.0021364436308 0.002157303415 0.0021784670715 0.002199938141 0.0022217250378 0.0022438452832 
0.0022662954287 0.0022890858087 0.0023122247831 0.00233571869 0.0023595790362 0.0023838047068 0.0024084055989 0.0024333719435 0.002458740466 
0.0024844666093 0.0015606516991 0.00157401004 0.0015875387886 0.0016018746383 0.0016157567209 0.0016298154001 0.001644051932 0.0016584687524 
0.0016730680068 0.0016878518069 0.0017028247834 0.0017179912967 0.0017333515515 0.0017489086257 0.0017646666538 0.0017806255219 0.0017967871783 
0.0018131552993 0.0018291494684 0.0018459281414 0.0018629149313 0.0018801171741 0.0018975330905 0.0019151676517 0.0019330236077 0.0019511062211 
0.0019694137007 0.001987958307 0.002006736587 0.0020257615734 0.0020450348421 0.0020645666378 0.002084365136 0.0021044341424 0.0021247844811 
0.0021454226241 0.0021663629443 0.0021876039923 0.0022091582118 0.0022310307467 0.0022532319566 0.0022757750983 0.0022986580604 0.002321887847 
0.0023454739617 0.0023694269141 0.002393745231 0.0024184633763 0.0024435007808 0.002468962178 0.001554782363 0.0015680357502 0.0015814550814 
0.0015950425805 0.0016094446948 0.0016233877444 0.0016375074761 0.0016518052912 0.0016662823048 0.0016809417791 0.0016957880003 0.0017108239726 
0.0017260510105 0.0017414741484 0.0017570932061 0.0017729143687 0.0017889335639 0.001805157008 0.0018215840701 0.0018376392861 0.0018544740716 
0.0018715215519 0.0018887781269 0.0019062488047 0.0019239376967 0.0019418489251 0.0019599824254 0.0019783421973 0.0019969383765 0.0020157729442 
0.0020348530622 0.0020541875911 0.0020737822766 0.0020936457728 0.0021137859128 0.002134208922 0.0021549259694 0.0021759461484 0.002197271763 
0.0022189135605 0.0022408739635 0.0022631632882 0.0022858007058 0.0023087784116 0.0023321031982 0.0023557856234 0.002379833116 0.00240427328 
0.0024290644946 0.0024541982975 0.0015494287209 0.001562578897 0.0015758948767 0.0015893742076 0.0016036624867 0.001617493722 0.0016314987155 
0.0016456800786 0.0016600384769 0.0016745769576 0.0016892979541 0.0017042085869 0.0017193065664 0.0017345971519 0.001750083464 0.0017657669633 
0.00178164971 0.0017977330653 0.0018140220988 0.0018299349414 0.001846623722 0.0018635192806 0.001880622077 0.0018979353664 0.0019154620244 
0.0019332072627 0.0019511673744 0.0019693519699 0.0019877682774 0.0020064163086 0.0020253083047 0.0020444486122 0.0020638470653 0.0020835079455 
0.0021034430061 0.0021236576478 0.0021441610622 0.0021649658247 0.0021860681346 0.002207480885 0.0022292131373 0.0022512616149 0.0022736538221 
0.0022963812022 0.0023194569673 0.0023428832715 0.0023666656349 0.0023908365904 0.0024153505526 0.0024402416289 0.0015445825059 0.0015576337295 
0.0015708484861 0.0015842245755 0.00159787188 0.0016121244402 0.0016260190713 0.0016400841775 0.0016543260646 0.0016687467005 0.0016833495805 
0.0016981345789 0.0017131068603 0.0017282702796 0.0017436257933 0.0017591783164 0.0017749266695 0.0017908745923 0.001807027551 0.0018233798443 
0.0018393530111 0.00185610493 0.0018730578189 0.0018902179045 0.0019075869501 0.0019251691149 0.0019429634316 0.0019609770429 0.0019792141981 
0.0019976846651 0.002016392145 0.0020353430915 0.002054549117 0.002074015426 0.0020937510656 0.0021137631383 0.0021340598637 0.0021546490639 
0.0021755414554 0.0021967331487 0.0022182415108 0.0022400603507 0.0022622157535 0.0022847004548 0.0023075284623 0.0023307041065 0.0023542298521 
0.0023781171787 0.0024023904253 0.0024270140283 0.0015402331258 0.001553189671 0.0015663053013 0.0015795825513 0.0015930221761 0.0016072641604 
0.0016210506048 0.0016350059758 0.0016491353092 0.0016634400544 0.0016779244708 0.0016925903245 0.0017074396772 0.00172247876 0.0017377074468 
0.0017531319431 0.0017687526144 0.0017845742059 0.0018005916637 0.0018168095916 0.0018326510649 0.0018492635653 0.0018660719528 0.0018830835667 
0.0019002991732 0.0019177256175 0.0019353581404 0.0019532038498 0.0019712695562 0.0019895644538 0.0020080915013 0.0020268600459 0.0020458784484 
0.0020651561396 0.0020846975163 0.0021045148501 0.002124610773 0.0021449976198 0.0021656805649 0.0021866600357 0.0022079436267 0.0022295439999 
0.0022514704625 0.0022737218894 0.002296311304 0.0023192420436 0.0023425221048 0.0023661552779 0.0023901739134 0.0024145380895 0.0015363656044 
0.001549230222 0.0015622496644 0.0015754281142 0.0015887675743 0.0016029004185 0.0016165788415 0.0016304276632 0.0016444448258 0.0016586372466 
0.0016730064654 0.001687555377 0.0017022863347 0.0017172023892 0.0017323092445 0.0017476101196 0.0017631094804 0.0017788033864 0.0017946932584 
0.0018107816515 0.0018270677998 0.0018429744623 0.0018596452109 0.0018765128531 0.0018935817189 0.001910851658 0.0019283285397 0.0019460135176 
0.0019639121056 0.0019820346101 0.002000388522 0.0020189790823 0.0020378182109 0.0020569121031 0.0020762683389 0.0020958946833 0.002115798209 
0.0021359868305 0.0021564651278 0.0021772415536 0.0021983110206 0.0022196959082 0.0022414023522 0.0022634286569 0.002285785271 0.0023084770261 
0.0023315156257 0.0023549077704 0.0023786800925 0.0024027918931 0.0015329485496 0.001545725226 0.001558652237 0.0015717347318 0.0015849767226 
0.0015983787046 0.0016125776492 0.0016263178002 0.0016402279998 0.0016543107551 0.0016685671597 0.0016830008716 0.0016976166175 0.0017124167065 
0.0017274045955 0.0017425845557 0.0017579634822 0.0017735356028 0.0017893020867 0.0018052675376 0.0018214256395 0.0018377802211 0.0018537435742 
0.0018704739266 0.0018873998643 0.0019045221258 0.0019218458859 0.0019393734424 0.001957110809 0.0019750650104 0.0019932496797 0.0020116703266 
0.0020303342429 0.0020492499633 0.0020684277878 0.0020878722129 0.0021075883727 0.0021275856877 0.0021478702319 0.0021684402941 0.0021893101753 
0.0022104855966 0.0022319791615 0.0022537837822 0.0022759155242 0.0022983797854 0.0023211869853 0.0023443429663 0.0023678769033 0.0023917492271 
0.0015299421838 0.0015426325529 0.0015554709285 0.0015684618051 0.0015816071559 0.001594910975 0.0016090027145 0.0016226396561 0.0016364437179 
0.0016504172052 0.0016645644147 0.001678888276 0.0016933893661 0.0017080759128 0.0017229484399 0.0017380147562 0.0017532735339 0.0017687286794 
0.001784376835 0.001800219726 0.001816254656 0.0018324820314 0.0018483222119 0.0018649194842 0.0018817066425 0.0018986863683 0.0019158621521 
0.0019332361866 0.0019508173584 0.0019686124721 0.0019866294458 0.0020048821594 0.0020233799508 0.0020421265923 0.0020611299644 0.0020803976612 
0.0020999361159 0.0021197491977 0.0021398446318 0.0021602196248 0.0021808957817 0.0022018682315 0.0022231518532 0.0022447436944 0.0022666598204 
0.0022889029238 0.0023114848173 0.0023344127492 0.002357692494 0.0023813553114 0.0015272879495 0.0015398941709 0.0015526464359 0.0015655492358 