# vtk DataFile Version 5.1
vtk output
ASCII
DATASET STRUCTURED_POINTS
DIMENSIONS 50 50 50
SPACING 0.002 0.002 0.002
ORIGIN 0.1742 -0.052672 0.02732
POINT_DATA 125000
FIELD FieldData 1
potential 1 125000 double
0.043602581877 0.043138890189 0.042664787446 0.042180668112 0.041687001242 0.041184244997 0.04067284877 0.040153071951 0.039625750811 
0.039091202726 0.038549854111 0.038002605191 0.037449860086 0.036892308838 0.036330815458 0.035765820777 0.035198099095 0.034628280399 
0.034057210413 0.033485564265 0.032914020375 0.032343042207 0.031773315849 0.031205308627 0.030639607972 0.030076485949 0.029517246644 
0.028961588084 0.02841043503 0.027864236308 0.027323557506 0.026788944583 0.0262607421 0.025739373569 0.025225220541 0.024718350939 
0.024219431781 0.023728380338 0.023245207041 0.022770178934 0.022303300835 0.021844557261 0.021393989041 0.020951583086 0.020517353786 
0.020091386916 0.019673649769 0.019264309879 0.018863340747 0.018470768698 0.042087886171 0.041646656989 0.041195678877 0.040735329563 
0.040266060792 0.039788198975 0.039302227819 0.038808370778 0.038307412489 0.037799572787 0.037285496647 0.036765627018 0.036240620239 
0.035711198192 0.035177719437 0.034640945378 0.034101620165 0.033560182036 0.033017511677 0.032474255438 0.031930893102 0.03138803126 
0.030846084545 0.030305701473 0.029767407012 0.029231552943 0.028698751476 0.028169487371 0.027644280529 0.027123623362 0.026608014098 
0.026097981664 0.025593817416 0.025095974339 0.024604535378 0.024120280275 0.023642986316 0.023173093238 0.02271050434 0.022255429052 
0.02180784373 0.021367762705 0.020935243894 0.020510263264 0.020092897505 0.019683127307 0.019281124838 0.018886899346 0.018500492303 
0.01812195854 0.040644936128 0.040225006949 0.03979581414 0.039357807686 0.038911429475 0.038456977215 0.037994937181 0.037525475588 
0.037049099189 0.036566507208 0.036077769683 0.035583721031 0.035084919775 0.034581560224 0.034074380181 0.03356404541 0.033051149242 
0.032536494189 0.032020387649 0.031503571806 0.030986533259 0.030469807467 0.029954177409 0.029439456249 0.028926685403 0.028416226862 
0.027908448868 0.02740394363 0.026903120888 0.026406503861 0.025914538354 0.025427592543 0.024946126924 0.024470256639 0.02400058381 
0.023537448963 0.023080879046 0.022630928516 0.022187864119 0.021751670127 0.021322400572 0.020900090534 0.020484725657 0.020076377192 
0.019675089983 0.019280865012 0.018893878293 0.018514161839 0.018141756117 0.017776686826 0.0392634646 0.038863731555 0.038455241008 
0.038038464096 0.037613718735 0.037181461087 0.036741765741 0.036295319741 0.0358423931 0.035383378482 0.034918684246 0.034449055972 
0.033974572064 0.033495799398 0.033013376831 0.032528008391 0.032040086193 0.031550267701 0.031059074591 0.03056705569 0.030075035474 
0.029582928692 0.029091464639 0.028601039746 0.028112300785 0.027625707538 0.027141556533 0.026660346625 0.026182526514 0.025708567712 
0.025238904038 0.024773869839 0.024313524377 0.023858881223 0.023409932639 0.022966833081 0.022529713007 0.022098873416 0.021674329367 
0.021256109717 0.020844301153 0.020438902318 0.020039958236 0.019647509752 0.019261640618 0.018882304624 0.018509718641 0.018143963626 
0.017785060856 0.017433074901 0.037935535777 0.037554827265 0.037166002779 0.036769308464 0.036365183904 0.035953668261 0.035535427279 
0.035110707666 0.034679862711 0.03424317778 0.033801363847 0.03335432022 0.032902765652 0.032447247196 0.031988272578 0.031526354252 
0.031061979071 0.030595916017 0.030128206082 0.029659602475 0.029190631678 0.028721708598 0.028253219905 0.027785805391 0.027319901727 
0.026855758376 0.026393920892 0.025934783498 0.025478736237 0.025026107007 0.0245775644 0.024133135562 0.023693530173 0.023258904707 
0.022829502993 0.022405396445 0.021987007766 0.02157431556 0.021167412826 0.020766373662 0.020371264316 0.019982084494 0.019598880467 
0.01922167867 0.01885055236 0.018485668976 0.018127048037 0.017774751419 0.017428904701 0.01708973954 0.036653669335 0.036291149756 
0.035920953909 0.035543358831 0.035158687418 0.034767136048 0.034369160641 0.033965055613 0.033555270804 0.033139856881 0.032719216058 
0.032293869225 0.031864225325 0.031430765639 0.030993887325 0.030554427908 0.03011225562 0.029668172012 0.029222699792 0.028776265538 
0.02832934638 0.02788224656 0.02743573814 0.026990166573 0.026545718872 0.026102960163 0.025662114832 0.025223896383 0.024788609308 
0.024356564042 0.023927962913 0.023503506021 0.023083335161 0.02266778628 0.022256952633 0.021851187327 0.021450585784 0.021055263159 
0.020665246792 0.020280695083 0.019901594693 0.019528011209 0.019159943975 0.018797488127 0.018440647363 0.018089635696 0.017744465609 
0.017405428436 0.017072228252 0.016745136691 0.03541254029 0.035067373812 0.034714875545 0.034355569117 0.033989379124 0.033616844412 
0.033238190123 0.032853875269 0.032463767676 0.032068446004 0.031668230062 0.031263473846 0.030854609512 0.030442312674 0.03002643194 
0.029607781724 0.029186742306 0.02876377582 0.02833936662 0.027913965887 0.027487879085 0.027061825958 0.02663601111 0.026210994517 
0.025787088851 0.025364653315 0.024944141663 0.024525941177 0.024110332537 0.023697620603 0.02328838131 0.022882876908 0.022481171699 
0.022083857006 0.02169089992 0.021302620744 0.020919095607 0.020540438881 0.020166719342 0.019798014316 0.019434333813 0.019075755655 
0.01872230161 0.018374050598 0.018031245357 0.017693636336 0.017361496982 0.017034914262 0.016714014018 0.01639885355 0.034208129605 
0.033879596217 0.033544248971 0.033202189821 0.032853732421 0.032499432101 0.032139174044 0.03177335411 0.031402146455 0.031026003647 
0.030645471223 0.030260317806 0.029871200291 0.029478513326 0.029082685763 0.028684090756 0.028283131586 0.02788006891 0.027475767471 
0.027070282901 0.026664301129 0.026258206021 0.025852429095 0.025447039117 0.025042702289 0.024639732031 0.0242384697 0.023839203408 
0.023442526022 0.023048515209 0.022657651996 0.022270046106 0.021886295542 0.021506412501 0.021130651115 0.020759160267 0.02039202524 
0.020029394833 0.019671328559 0.019317862019 0.018969053108 0.018624949046 0.018285855038 0.017951256027 0.017621635942 0.01729704662 
0.016977556395 0.016663277606 0.016354361193 0.016050829721 0.033038304684 0.032725645332 0.032406388876 0.032080784572 0.031749481614 
0.031412267532 0.031069500132 0.030721639946 0.030368565188 0.030010686873 0.02964837632 0.029281891814 0.028911636193 0.028537883736 
0.028161155614 0.02778167523 0.027399865938 0.027016214658 0.026630951632 0.026244737653 0.025857950136 0.025470947037 0.025083889025 
0.024697488033 0.024311856026 0.023927446824 0.023544574812 0.023163609706 0.022784906059 0.022408627786 0.022035391176 0.021665281376 
0.021298576009 0.020935467143 0.020576150348 0.02022077909 0.019869426251 0.019522217209 0.019179211004 0.018840445047 0.018506246571 
0.018176133925 0.017850436386 0.017529127202 0.01721246494 0.016900481118 0.016593285162 0.016291291105 0.015993986142 0.015701766326 
0.031902192898 0.031604488293 0.031300825412 0.03099112463 0.030675738472 0.030355227075 0.030029156624 0.029697931151 0.029362073 
0.029021518014 0.028676855254 0.028328202369 0.027975875944 0.027620266049 0.027261625869 0.026900513469 0.026537047656 0.02617159255 
0.025804817465 0.025436957551 0.025068507588 0.024699632147 0.024330757239 0.023962308959 0.023594621483 0.023228017715 0.022862802504 
0.022499161062 0.02213777488 0.021778759268 0.021422362563 0.021068914184 0.020718567825 0.020371557156 0.020028038303 0.019688156377 
0.019351984803 0.019019890875 0.018691388495 0.018366795583 0.018046184333 0.017729567785 0.017416995169 0.017108626089 0.01680451652 
0.016505094295 0.016209819876 0.015919125117 0.015633146729 0.015351860422 0.030799252326 0.030515892337 0.030227098768 0.029932449036 
0.029632539502 0.0293273209 0.029017039375 0.02870212598 0.028382657086 0.028058847974 0.027730951848 0.027399253714 0.027064071186 
0.026725753728 0.02638452492 0.026040795177 0.025694707157 0.025346897585 0.024997673521 0.024647462052 0.024296406145 0.023944953147 
0.023593484434 0.023242313076 0.022891852499 0.022542302515 0.022193845724 0.021847170501 0.02150236478 0.021159746752 0.020819560332 
0.020482042305 0.020147399031 0.019815819508 0.019487463287 0.019162749171 0.018841156034 0.018523029371 0.01820848388 0.017897553415 
0.01759027632 0.017286720212 0.016987229583 0.016691327767 0.016399360813 0.016111474886 0.015827777333 0.01554837362 0.015273390722 
0.015002673888 0.029730460344 0.029460861818 0.029185869958 0.028905581353 0.0286202143 0.028329845743 0.028034769358 0.027735192678 
0.027431320108 0.02712332194 0.026811417611 0.026495904509 0.026177137927 0.025855236795 0.025530575818 0.025203329962 0.024874078542 
0.024543089631 0.024210780419 0.023877233835 0.023542924331 0.023208218264 0.022873395008 0.022538868827 0.022204650594 0.021871474251 
0.021539414799 0.021208799503 0.02087989164 0.020552978547 0.020228320452 0.019906087782 0.019586812375 0.01927002637 0.0189562174 
0.018645445204 0.018337824581 0.018033406104 0.017732287606 0.017434493006 0.017140405352 0.01684935701 0.016561900054 0.016278031453 
0.015997822888 0.015721422018 0.015448942922 0.015180487575 0.014916091888 0.014655963242 0.028696405302 0.028440001151 0.028178386832 
0.027911711955 0.027640168437 0.027363960578 0.027083290971 0.026798319079 0.026509342491 0.026216330825 0.025919627519 0.025619470271 
0.025316192209 0.025009866324 0.024700987896 0.024389755673 0.024076529885 0.023761688083 0.023445310289 0.023127866024 0.022809600173 
0.022490874258 0.0221718952 0.021853182456 0.021534923692 0.021217368843 0.02090085041 0.020585623939 0.020271933282 0.019960099818 
0.019650582399 0.019342972604 0.019037778832 0.018735163573 0.018435268656 0.018138158568 0.017843929913 0.017552990246 0.017264735736 
0.016979561192 0.016697506884 0.016418567274 0.016142982749 0.015870709245 0.015601866236 0.015336574843 0.015074942371 0.014817080666 
0.014562944691 0.014312976024 0.02769891544 0.027454859463 0.027205886979 0.026952233731 0.026693897621 0.026431036858 0.026164018182 
0.025892914207 0.025617856797 0.025339079488 0.02505682592 0.024771298926 0.024482674563 0.024191397562 0.02389753767 0.023601511115 
0.023303636379 0.023004066772 0.022702959106 0.022400641177 0.022097701335 0.021794361814 0.021490734177 0.02118718943 0.020884017263 
0.02058143606 0.020279764158 0.019979582403 0.019680452776 0.019382956355 0.019087295511 0.018793671404 0.01850223016 0.018213138624 
0.01792687268 0.017642821227 0.017361412982 0.017082702337 0.016806796597 0.016533719127 0.016263458481 0.015996244245 0.015732038413 
0.01547095066 0.015213051497 0.014958458776 0.014707385619 0.01445953025 0.014215537115 0.013975309965 0.026738983783 0.026506662063 
0.026269710695 0.026028230443 0.025782259739 0.025532179354 0.025278041354 0.025020047764 0.024758303504 0.024493006815 0.024224330879 
0.023952675647 0.02367819954 0.02340104082 0.02312154318 0.0228401812 0.022556682681 0.022271372526 0.021984906071 0.021697388922 
0.021409135692 0.021120316642 0.020831225551 0.020542161207 0.020253718209 0.019965429715 0.019677920497 0.019391434058 0.019106169865 
0.018822384368 0.018540226987 0.018260255825 0.017981933421 0.017705785895 0.017431836765 0.017160241941 0.016891059466 0.016624387265 
0.016360262968 0.016098766497 0.015839880693 0.015583793193 0.01533055157 0.015080188516 0.014832816508 0.014588606905 0.014347306811 
0.014109541325 0.013875182179 0.013644357196 0.025817385753 0.025596216218 0.025370596075 0.025140632197 0.024906497098 0.024668413024 
0.024426483894 0.024180843028 0.023931663595 0.023679086505 0.023423467372 0.023164929839 0.022903880547 0.022640204521 0.022374215037 
0.022106286657 0.021836557249 0.021565285186 0.021292805531 0.021019177257 0.020744771436 0.020470213283 0.020194955885 0.019919660749 
0.019644531977 0.019369851219 0.019095815759 0.018822680211 0.018550938667 0.018280182025 0.018010886401 0.017743264981 0.017477450365 
0.017213594731 0.016951736034 0.016691988103 0.016434496191 0.016179267906 0.015926396671 0.015675896423 0.015427942113 0.015182528417 
0.01493976157 0.01469977065 0.014462475762 0.014228002143 0.013996470357 0.013768182405 0.013543098324 0.013321269455 0.024934694468 
0.024724051409 0.024509091738 0.024290062353 0.024067104971 0.023840355234 0.023609902372 0.023375920251 0.023138853706 0.022898413569 
0.022654886197 0.022408729758 0.022160094125 0.021909261662 0.021656217053 0.021401237974 0.021144567236 0.020886935969 0.020627547093 
0.020367111231 0.020105889557 0.019844114803 0.019582011526 0.019319776714 0.019057663939 0.018796209685 0.018535000989 0.018274511695 
0.018014986405 0.017756595844 0.01749954073 0.017243961237 0.016990005819 0.016737800536 0.016487439239 0.016239025205 0.015992623189 
0.015748311724 0.015506187139 0.015266224168 0.015028647961 0.014793434616 0.014560764611 0.014330517409 0.014102798079 0.013877758043 
0.013655658807 0.013436434391 0.013220188911 0.013007000282 0.024091275335 0.02389044106 0.023685604122 0.023476972751 0.023264511083 
0.023048222021 0.022828656824 0.022605735981 0.022379653778 0.022150642219 0.021918797786 0.021684440387 0.02144782856 0.021208919612 
0.020968426743 0.020725742238 0.020481494005 0.020235794555 0.019988858095 0.019740924337 0.019492197807 0.019242896206 0.018993564283 
0.018743702408 0.018493901542 0.018244384616 0.017995266118 0.017746805891 0.017499139433 0.017252517739 0.017007054054 0.016762910624 
0.01652021444 0.016279092173 0.01603963179 0.015801951363 0.015566096845 0.015332187182 0.015100194082 0.014870336638 0.0146427251 
0.014417244095 0.014194034087 0.013973096818 0.013754610841 0.013538724672 0.013325477142 0.013114926054 0.012907148059 0.012702329543 
0.023285930892 0.023094511395 0.022899209171 0.022700220422 0.022497693493 0.022291674615 0.022082384422 0.021869891762 0.021654455553 
0.021436144758 0.021215836632 0.02099256073 0.020767080781 0.020539536346 0.02031019554 0.020079029747 0.019846407843 0.019612417173 
0.019377584454 0.019141444778 0.018904513006 0.018667012347 0.018429079173 0.018190939 0.017952808459 0.017714817575 0.017477150489 
0.017240056059 0.01700365941 0.016768153583 0.016533670556 0.016300321102 0.016068330225 0.015837720889 0.01560862092 0.015381115212 
0.015155313115 0.014931245423 0.014709033134 0.014488752699 0.014270471257 0.014054248443 0.013840163169 0.013628061528 0.013418463269 
0.013211220619 0.01300642104 0.012804134914 0.012604463363 0.012407532254 0.022518524079 0.022335864905 0.022149620758 0.021959879106 
0.021766685261 0.02157022184 0.021371037364 0.021168419826 0.020962898838 0.020754948988 0.020544425678 0.020331609365 0.020116705019 
0.019899969444 0.019681695884 0.019461460934 0.019239798823 0.019016863504 0.018792805157 0.01856777415 0.018341968842 0.018115577231 
0.017888724494 0.017661664672 0.017434486629 0.017207376592 0.016980575077 0.016754217789 0.01652846425 0.01630344516 0.016079342749 
0.015856298293 0.015634379614 0.015413734932 0.01519444736 0.014976601545 0.014760382747 0.014545604214 0.014332647694 0.014121453091 
0.01391210582 0.013704689706 0.013499059946 0.013295694749 0.013094459235 0.012895432226 0.012698685559 0.012504275052 0.012312397373 
0.01212291024 0.021787795743 0.021614025086 0.021436266125 0.021255153853 0.021070790749 0.020883303608 0.02069280538 0.020499541778 
0.020303563925 0.020105114413 0.019904651877 0.01970175857 0.019496859617 0.019290169251 0.019081734961 0.018871799179 0.01866047643 
0.018447939729 0.018234289575 0.018019720855 0.017804407196 0.017588444123 0.017372079069 0.017155354075 0.016938526575 0.016721754627 
0.016505173611 0.016288930952 0.016073206456 0.01585815141 0.015643873777 0.015430523083 0.015218171051 0.015006963072 0.014797040686 
0.01458836402 0.014381004348 0.014175221258 0.013971011403 0.013768453609 0.013567614937 0.013368364677 0.01317119236 0.012975905685 
0.012782637403 0.012591425337 0.012402338775 0.012215512812 0.012030882964 0.011848564458 0.021093035252 0.020926594069 0.020756858197 
0.020583909727 0.020407899652 0.020228899065 0.020047433653 0.019862913079 0.019675871601 0.019486537383 0.019294927773 0.01910129862 
0.018905802303 0.018708528972 0.018509736041 0.018309469078 0.018107893982 0.017905125048 0.017701303135 0.017496619078 0.017291105871 
0.017084984309 0.016878402871 0.016671500799 0.016464440861 0.016257350788 0.016050404317 0.015843738424 0.015637474494 0.015431803263 
0.015226835992 0.015022635731 0.014819404703 0.014617106496 0.014415919194 0.014215913451 0.014017139326 0.013819784246 0.013623912657 
0.01342955724 0.013236593245 0.01304549872 0.01285613277 0.012668563943 0.01248285249 0.012299053841 0.012117330198 0.011937558715 
0.011759815607 0.01158431159 0.020431702383 0.020272980956 0.020110813956 0.01994559299 0.019777518871 0.019606524113 0.019432879443 
0.019256722903 0.019078104518 0.018897266645 0.018714331568 0.018529479531 0.018342847267 0.018154509702 0.017964719412 0.017773527494 
0.017581085223 0.017387492795 0.017192902573 0.016997421287 0.016801166953 0.016604320321 0.016406981138 0.01620929226 0.016011418067 
0.015813484723 0.015615625985 0.015417983834 0.015220686461 0.015023870995 0.014827725961 0.014632175482 0.014437436158 0.014243566679 
0.014050731367 0.013858889075 0.013668312653 0.013478983086 0.013291002486 0.01310423094 0.01291914346 0.012735584028 0.012553654867 
0.012373388433 0.012194849472 0.012018190644 0.011843295935 0.011670217771 0.011499190382 0.011330188082 0.019803090708 0.019651047784 
0.019496108813 0.019338128444 0.019177462809 0.019014115476 0.018848170092 0.018679792044 0.018509175303 0.018336409996 0.018161644881 
0.017985055433 0.017806704728 0.017626825852 0.017445517285 0.017262866577 0.017079009667 0.016894020897 0.016708131013 0.016521324105 
0.016333762652 0.016145596129 0.015956946874 0.015767952274 0.015578735664 0.015389386134 0.015200089696 0.015011011618 0.014822186372 
0.01463373186 0.014445753309 0.014258422906 0.014071760704 0.013885896181 0.013700878567 0.013516926287 0.01333404981 0.013152324892 
0.012971646458 0.012792455237 0.01261462557 0.012438251949 0.012263376653 0.012090043651 0.01191839602 0.011748264209 0.011579934951 
0.011413383462 0.01124867249 0.011085840379 0.019205104541 0.019059655662 0.01891138385 0.018760402184 0.018606724294 0.018450487037 
0.018291830925 0.018130873732 0.017967752526 0.017802621066 0.01763556216 0.017466685069 0.017296236679 0.017124292315 0.01695090827 
0.016776285721 0.016600492143 0.016423709413 0.016245905219 0.016067255662 0.015887883872 0.015707901842 0.015527442201 0.015346610034 
0.015165531056 0.014984382607 0.014803182164 0.014622044564 0.014441160746 0.014260572277 0.014080417081 0.013900775156 0.013721787223 
0.013543515666 0.013365974167 0.013189420483 0.01301383432 0.012839124668 0.012665739451 0.012493541837 0.012322637131 0.012153060073 
0.011984929522 0.011818252754 0.011652926098 0.011489232252 0.011327143455 0.011166701404 0.011007995591 0.010851031119 0.01863641848 
0.018497204185 0.018355375448 0.018210833785 0.018063802412 0.017914319033 0.017762540675 0.01760857639 0.017452534919 0.017294560357 
0.01713468787 0.016973177576 0.016810130172 0.016645635714 0.016479801144 0.016312759469 0.016144597772 0.015975383809 0.015805215953 
0.015634238914 0.0154625633 0.015290329932 0.015117569379 0.0149444444 0.014771038611 0.014597493481 0.014423872384 0.014250321444 
0.014076944066 0.013903776911 0.013731011154 0.013558748499 0.01338700938 0.01321583087 0.0130454561 0.012875824664 0.012707056179 
0.012539374321 0.012372708821 0.012207163731 0.012042805065 0.011879688017 0.01171785297 0.011557367949 0.01139826298 0.011240594672 
0.011084429864 0.010929813651 0.010776791537 0.010625329445 0.018095535184 0.017962300192 0.017826434786 0.017688041487 0.017547277677 
0.017404209289 0.017258921215 0.017111540062 0.016962186913 0.016810978476 0.016657935897 0.016503365665 0.016347280412 0.016189819416 
0.016031081997 0.015871123172 0.015710106078 0.015548070231 0.015385098681 0.015221373672 0.015056952895 0.014891936519 0.014726421706 
0.014560540432 0.014394369303 0.014228002204 0.014061570642 0.013895153589 0.013728842071 0.013562751251 0.013396971883 0.013231589421 
0.013066626206 0.012902311181 0.012738576073 0.012575570236 0.012413452655 0.012252215486 0.012091969932 0.011932737987 0.011774522607 
0.011617596433 0.011461784603 0.011307229155 0.011153963439 0.011002029331 0.01085149588 0.010702403541 0.010554804511 0.010408652651 
0.017581222218 0.017453495749 0.017323303365 0.017190758291 0.017055921012 0.016918852359 0.016779719635 0.016638568468 0.016495503419 
0.016350576862 0.016204066393 0.016056003704 0.015906515885 0.01575564501 0.015603542355 0.015450301369 0.01529595638 0.015140660209 
0.014984501534 0.014827567703 0.014669969933 0.014511796323 0.014353119565 0.014194054338 0.014034683883 0.013875104544 0.013715468174 
0.013555778649 0.01339616887 0.013236731562 0.013077556213 0.012918726418 0.012760256973 0.012602286599 0.012444898926 0.012288271289 
0.012132353827 0.01197728579 0.011823029637 0.011669793511 0.011517601789 0.0113664166 0.011216334305 0.011067405858 0.010919664651 
0.010773182105 0.010628004377 0.010484160922 0.010341601961 0.010200544616 0.017092029238 0.016969582503 0.016844766137 0.016717687211 
0.016588431435 0.016457086164 0.016323710253 0.016188404625 0.016051216525 0.015912393625 0.015771999318 0.01563006037 0.015486715264 
0.015342106564 0.015196254806 0.015049243405 0.0149012447 0.014752304579 0.014602557241 0.014452040188 0.014300868731 0.0141491178 
0.013996880598 0.013844251081 0.013691302544 0.01353818276 0.013384896446 0.01323156992 0.013078291255 0.012925140851 0.012772208799 
0.012619510826 0.012467095778 0.012315293685 0.012164015678 0.012013323328 0.011863259003 0.011714014679 0.011565580553 0.011418059646 
0.011271411982 0.011125749122 0.010981100729 0.010837518501 0.010695071875 0.010553760602 0.010413650551 0.010274709187 0.010137111439 
0.010000897193 0.016626894233 0.016509386979 0.016389646049 0.016267737247 0.016143742388 0.016017741814 0.015889808611 0.015759958215 
0.015628468848 0.015495289679 0.015360574455 0.015224418088 0.015086935413 0.014948148201 0.014808184647 0.014667137785 0.014525096786 
0.014382156646 0.014238414946 0.014093935344 0.013948816118 0.013803159742 0.013657000111 0.013510446043 0.01336360903 0.013216499775 
0.013069244295 0.012921935028 0.012774624904 0.012627438392 0.012480250673 0.012333401476 0.012186960286 0.012040853507 0.01189528245 
0.011750248027 0.011605859868 0.011462182192 0.011319203041 0.011177006529 0.011035673685 0.010895255155 0.01075576657 0.010617273606 
0.010479805172 0.010343409831 0.010208045008 0.010073934202 0.0099410390728 0.0098093737055 0.01618459711 0.016071787723 0.015956818248 
0.015839768232 0.015720743142 0.015599780621 0.015476907598 0.015352351597 0.01522609935 0.015098266452 0.01496896677 0.014838234141 
0.014706177724 0.014572916657 0.014438493797 0.014303057757 0.014166631199 0.014029363504 0.013891297828 0.013752539989 0.013613150876 
0.013473204808 0.013332779378 0.013191960048 0.013050851423 0.012909457679 0.012767907399 0.012626278013 0.012484622719 0.012342885765 
0.012201341624 0.012060103364 0.011919135103 0.011778546086 0.011638396289 0.011498719241 0.011359655945 0.011221177072 0.011083379635 
0.010946313071 0.010810032375 0.010674580106 0.010539999378 0.010406329281 0.01027361332 0.01014188186 0.010011090223 0.0098815047911 
0.0097530331234 0.0096257002034 0.015764173909 0.015655682048 0.01554523988 0.015432810529 0.015318459598 0.015202244237 0.015084179635 
0.014964515118 0.01484325621 0.014720437374 0.014596172233 0.01447056743 0.014343670616 0.014215576144 0.014086406477 0.013956203372 
0.013825107086 0.013693171082 0.013560468363 0.013427107744 0.013293109171 0.013158568228 0.013023566318 0.012888196439 0.01275246365 
0.012616491886 0.0124803099 0.012343954725 0.012207506075 0.012071218345 0.011935025548 0.011799046465 0.011663305285 0.011527879224 
0.011392841954 0.011258275262 0.011124203455 0.010990703192 0.010857820854 0.010725613576 0.01059415388 0.010463418019 0.010333488487 
0.010204387299 0.010076165502 0.0099487758145 0.009822476384 0.009697158033 0.0095728485416 0.0094496350218 0.015364453909 0.015260206188 
0.015154013116 0.015045898082 0.014935958335 0.01482416577 0.014710740995 0.014595594389 0.014478955675 0.014360883017 0.014241402878 
0.014120592787 0.013998543648 0.013875359829 0.013751098985 0.01362589228 0.013499784135 0.013372876993 0.013245255078 0.013116970158 
0.012988070132 0.012858640246 0.012728777637 0.012598501577 0.012467876038 0.012336986575 0.012205836185 0.012074569268 0.01194321496 
0.011811955852 0.011680770164 0.011549731136 0.011418919745 0.011288417824 0.011158237383 0.011028459715 0.010899159644 0.01077038386 
0.01064219656 0.010514583667 0.010387655703 0.010261411413 0.010135903861 0.010011147933 0.009887129242 0.0097640419136 0.0096418397197 
0.0095205684488 0.0094002694879 0.0092809838282 0.01498452034 0.014884221234 0.014782027912 0.014678032494 0.014572127695 0.014464606388 
0.014355448982 0.014244710175 0.014132512398 0.01401886369 0.013903846147 0.013787560195 0.013670085766 0.013551494945 0.013431889517 
0.013311364906 0.013189994024 0.013067834133 0.012944972168 0.012821455349 0.01269739982 0.012572818821 0.012447755504 0.012322298501 
0.012196444084 0.012070348636 0.011944062549 0.011817542811 0.011691030621 0.011564503923 0.01143803261 0.011311686664 0.011185558583 
0.011059665951 0.010934078395 0.010808878133 0.010684105129 0.010559834192 0.010436060109 0.010312845097 0.010190236995 0.010068236094 
0.0099469192068 0.0098262021128 0.0097063317023 0.0095872647843 0.009468987135 0.009351562958 0.0092350489154 0.0091194797261 0.014623483981 
0.014526897924 0.014428473882 0.01432818531 0.01422627329 0.014122715526 0.014017580294 0.013910981314 0.013802874424 0.013693395263 
0.013582597876 0.01347058993 0.01335741366 0.013243160379 0.013127936713 0.013011841943 0.012894915277 0.012777251389 0.012658897721 
0.012539937696 0.012420405958 0.012300403644 0.012179860663 0.012058966971 0.011937705474 0.011816172283 0.011694361482 0.011572451136 
0.011450438854 0.01132839216 0.011206391649 0.011084481627 0.010962754831 0.010841255551 0.010720035279 0.010599164715 0.01047871063 
0.010358657247 0.010239096667 0.010120036437 0.010001510271 0.0098835744794 0.0097661525089 0.0096494809615 0.0095334698048 0.0094181119932 
0.0093035477561 0.0091897723307 0.0090768643818 0.0089647771495 0.014280237379 0.014187162578 0.014092203098 0.013995642039 0.013897422758 
0.013797586801 0.013696286152 0.01359346308 0.013489250108 0.013383700342 0.013276888092 0.01316888787 0.013059786231 0.012949637585 
0.012838561039 0.012726617195 0.01261388931 0.012500448774 0.012386357239 0.012271671737 0.012156416891 0.01204069201 0.011924502952 
0.011807920292 0.011691002996 0.011573721247 0.011456267673 0.011338642114 0.011220874285 0.011103060583 0.010985272032 0.01086757208 
0.010750020372 0.010632670716 0.010515621317 0.010398852376 0.01028243498 0.010166438849 0.010050883236 0.0099357281295 0.0098211247637 
0.0097069462083 0.0095933947111 0.0094804304146 0.0093680601227 0.0092563324085 0.0091453062929 0.0090350262586 0.0089254746123 0.0088167320995 
0.013953809093 0.013863936094 0.013772449531 0.013679304792 0.01358453455 0.013488277523 0.013390494245 0.013291287643 0.013190728512 
0.013088869628 0.012985805247 0.012881614254 0.012776312101 0.012670051771 0.012562861267 0.0124548465 0.012346077979 0.012236641873 
0.012126534216 0.012015905698 0.011904740808 0.011793065507 0.011680974936 0.011568495352 0.011455592662 0.01134245503 0.011229059865 
0.011115469374 0.011001740222 0.010887938149 0.010774097486 0.010660365684 0.010546777046 0.010433405116 0.010320247432 0.010207361096 
0.010094835005 0.0099827002767 0.0098709213925 0.0097595738816 0.0096485832669 0.0095381366808 0.0094281891888 0.0093187443452 0.0092098464058 
0.0091015403957 0.0089938581192 0.0088868307317 0.0087805162162 0.0086749491373 0.01364309281 0.013556301539 0.01346797247 0.013378107454 
0.013286617665 0.013193608809 0.013099183945 0.013003373601 0.012906247359 0.012807904893 0.01270838423 0.012607732372 0.012506054637 
0.012403428348 0.012299929472 0.012195612474 0.01209058484 0.011984909662 0.011878640349 0.011771810764 0.011664484651 0.01155670131 
0.011448479016 0.011339807562 0.011230837081 0.011121536045 0.011011988368 0.010902231624 0.010792317054 0.010682319159 0.010572298747 
0.010462342774 0.010352537363 0.010242884083 0.010133426612 0.010024285736 0.0099154336561 0.0098069054268 0.0096987475203 0.0095908848293 
0.0094834930916 0.0093765208357 0.0092699735538 0.0091638682286 0.0090583094975 0.0089532263516 0.0088487088173 0.0087447997338 0.0086416288685 
0.0085390817737 0.013346870044 0.013263174505 0.013177917858 0.013091041835 0.013002575662 0.012912560791 0.012821295828 0.01272868136 
0.012634841278 0.012539788253 0.012443599246 0.012346329879 0.01224805586 0.012148853002 0.012048814212 0.011948017712 0.011846558913 
0.011744464771 0.011641783612 0.011538576348 0.011434886279 0.011330753306 0.011226132745 0.011121162378 0.011015852399 0.01091022949 
0.01080433371 0.010698202993 0.010591914142 0.010485516176 0.010379126228 0.010272749802 0.010166456583 0.010060367092 0.0099544670459 
0.0098488237423 0.0097434513175 0.0096384017332 0.0095335944764 0.0094292006839 0.0093251589487 0.0092214623878 0.0091181647801 0.0090152929336 
0.008912918131 0.0088109117371 0.0087094165552 0.0086084677706 0.0085081303992 0.0084079831813 0.013063629483 0.012982794395 0.012900336139 
0.012816342044 0.012730854044 0.012643959023 0.012555723556 0.012466193842 0.012375348266 0.012283443809 0.012190403734 0.012096156808 
0.012001102984 0.011905163184 0.011808430773 0.011710972477 0.011612854525 0.011514122495 0.011414857266 0.011315081057 0.011214806895 
0.011114072555 0.011012991831 0.010911520224 0.010809692216 0.010707526096 0.010605091031 0.01050241144 0.010399599207 0.01029663543 