# vtk DataFile Version 5.1
vtk output
ASCII
DATASET STRUCTURED_POINTS
DIMENSIONS 50 50 50
SPACING 0.002 0.002 0.002
ORIGIN 0.1742 -0.052672 0.02732
POINT_DATA 125000
FIELD FieldData 1
potential 1 125000 double
0.0013919216141 0.0014025040319 0.0014131942061 0.0014239936759 0.0014349063041 0.0014459311149 0.0014570698566 0.0014683362072 0.0014797094906 
0.0014912018726 0.0015028147487 0.0015145502776 0.0015264096493 0.001538397986 0.0015505172446 0.0015627702516 0.0015751823722 0.0015877053534 
0.0016003642501 0.0016131937748 0.0016261213717 0.0016391794719 0.0016523617854 0.001665675728 0.0016791200417 0.0016926911699 0.0017063981633 
0.001720246863 0.0017342432929 0.0017483989852 0.001762722163 0.0017772214466 0.0017919013835 0.0018067642837 0.0018218184644 0.00183705631 
0.0018524780079 0.001868078244 0.0018838529542 0.0018998008338 0.0019154113196 0.0019316885894 0.0019481341662 0.0019647556584 0.00198155039 
0.0019985294477 0.0020157028712 0.0020330795948 0.0020506657211 0.0020684759374 0.0014022145581 0.0014129236128 0.0014237414115 0.0014346702684 
0.0014457152013 0.0014568734437 0.0014681464702 0.0014795498004 0.0014910604564 0.0015026914464 0.0015144427141 0.0015263166902 0.0015383174722 
0.0015504463481 0.001562706617 0.0015751018475 0.0015876600968 0.0016003253114 0.0016131289348 0.0016261030038 0.0016391767745 0.0016523831936 
0.0016657202954 0.001679186325 0.0016927922937 0.0017065282339 0.0017204052575 0.0017344289485 0.0017486065515 0.0017629502593 0.001777463959 
0.0017921589763 0.0018070381645 0.0018221072743 0.0018373643221 0.0018528116276 0.0018684442015 0.0018842579156 0.0019002485925 0.0019159054771 
0.001932235576 0.0019487365058 0.0019654103187 0.0019822615369 0.0019992914029 0.0020165101744 0.0020339303412 0.0020515574049 0.0020694011429 
0.002087475173 0.0014119010016 0.0014227354727 0.0014336795845 0.0014447371607 0.0014559094772 0.0014672010945 0.001478609185 0.0014901466568 
0.0015017928216 0.0015135608787 0.0015254486477 0.0015374601527 0.001549598492 0.0015618655841 0.0015742642828 0.0015868287013 0.0015994958116 
0.0016122994121 0.0016252411338 0.0016383552332 0.0016515715836 0.0016649211018 0.0016784029677 0.0016920207424 0.0017057795483 0.0017196759853 
0.0017337180496 0.0017479134438 0.001762268975 0.0017767948572 0.0017914965049 0.001806382256 0.001821456202 0.0018367231131 0.001852180859 
0.0018678302721 0.001883666944 0.0018996869174 0.0019153765525 0.0019317477425 0.0019482935601 0.0019650116505 0.0019819069715 0.0019989850268 
0.0020162450502 0.0020337024226 0.0020513625385 0.0020692387875 0.0020873374141 0.0021056716662 0.0014208485986 0.0014318046669 0.0014428731925 
0.0014540566709 0.0014653566017 0.0014767779197 0.0014883273351 0.0014999846064 0.0015117640749 0.001523664427 0.0015356862339 0.001547831998 
0.001560104823 0.0015725060735 0.0015850386316 0.0015977396023 0.0016105389344 0.0016234758144 0.0016365848004 0.0016497955276 0.0016631473536 
0.0016766346829 0.0016902576053 0.0017040221565 0.0017179268284 0.0017319776624 0.0017461806916 0.0017605402429 0.0017750676938 0.0017897688185 
0.0018046522227 0.0018197229554 0.0018349868831 0.0018504437145 0.0018660969853 0.0018819394045 0.0018979735866 0.0019141938711 0.0019300761622 
0.0019466521473 0.0019634056019 0.001980334811 0.0019974450048 0.0020147435102 0.0020322290192 0.0020499154324 0.0020678130389 0.0020859305578 
0.0021042815916 0.002122873713 0.0014289545756 0.0014400278997 0.001451216979 0.0014625228579 0.0014739461214 0.0014854890757 0.0014971677744 
0.0015089519557 0.0015208597568 0.0015328893682 0.0015450400239 0.0015573155351 0.001569717242 0.0015822474386 0.001594946197 0.0016077390389 
0.0016206655678 0.0016337292354 0.0016469654476 0.0016603040572 0.0016737837208 0.0016873982301 0.0017011572781 0.0017150607712 0.0017291075022 
0.0017433056057 0.0017576611301 0.0017721809246 0.0017868729336 0.001801744108 0.0018168012969 0.0018320490445 0.0018474929877 0.0018631338802 
0.0018789729386 0.0018950041902 0.0019112265572 0.0019271169056 0.0019437063661 0.0019604785288 0.0019774312761 0.0019945632273 0.0020118804476 
0.0020293921222 0.0020470944332 0.0020650049563 0.0020831314048 0.0021014868946 0.0021200816173 0.002138924014 0.0014361525948 0.0014473372635 
0.0014586411702 0.0014700625552 0.0014816050473 0.0014932670297 0.001505066458 0.0015169740126 0.0015290042428 0.0015411583679 0.0015534325236 
0.0015658322534 0.0015783576813 0.0015910102368 0.0016038332164 0.0016167480759 0.0016297962416 0.0016429790408 0.0016563353696 0.0016697945893 
0.0016833947321 0.0016971341452 0.001711020875 0.001725057768 0.0017392412148 0.0017535801886 0.001768080452 0.001782752362 0.0017976010491 
0.0018126341418 0.0018278562243 0.0018432743916 0.0018588902926 0.0018747068966 0.0018907215145 0.0019069320907 0.0019228106492 0.0019393997083 
0.0019561745381 0.0019731343276 0.0019902764975 0.0020076067195 0.0020251204274 0.0020428355379 0.0020607463785 0.0020788721006 0.0020972210866 
0.0021158044126 0.002134633241 0.0021537187644 0.0014424160272 0.0014537068669 0.0014651178205 0.0014766495212 0.0014883039594 0.0015000808858 
0.0015119961872 0.0015240200488 0.0015361670287 0.0015484371172 0.001560828611 0.0015733458048 0.0015859879013 0.0015988026211 0.0016117020765 
0.0016247312514 0.0016378928297 0.0016512243204 0.0016646588049 0.0016782339138 0.0016919505504 0.001705808993 0.0017198177191 0.0017339784653 
0.0017482927218 0.0017627654327 0.0017774055498 0.001792220669 0.0018072184951 0.0018224045221 0.0018377844308 0.0018533646199 0.0018691446182 
0.0018851269963 0.0019013093231 0.0019171637194 0.0019337340849 0.0019504961807 0.0019674469486 0.0019845849415 0.0020019099695 0.0020194236774 
0.0020371274241 0.0020550359541 0.0020731486146 0.0020914809906 0.0021100432002 0.0021288445029 0.0021479012946 0.0021672184545 0.00144776431 
0.0014591548692 0.0014706660486 0.0014823023088 0.001494062917 0.0015059590253 0.0015179679746 0.0015301047027 0.0015423610435 0.001554741591 
0.0015672449625 0.0015798723107 0.0015926254692 0.0016055526209 0.0016185611428 0.001631697795 0.0016449682739 0.0016584108311 0.0016719553859 
0.0016856397719 0.001699466459 0.0017134388295 0.0017275639735 0.001741843739 0.0017562821673 0.0017708833568 0.0017856569664 0.0018006084542 
0.0018157472046 0.001831079969 0.0018466110785 0.0018623427506 0.0018782778853 0.0018944164483 0.0019102317474 0.001926768895 0.0019435018369 
0.00196042934 0.0019775466512 0.0019948551036 0.00201235209 0.0020300411595 0.0020479303017 0.0020660208761 0.0020843254118 0.0021028562446 
0.002121622385 0.0021406355147 0.0021599104188 0.0021794529776 0.0014522565031 0.0014637386144 0.0014753459142 0.0014870779817 0.0014989370174 
0.0015109344909 0.00152304561 0.0015352840379 0.0015476447136 0.0015601293199 0.0015727386307 0.001585470475 0.0015983781008 0.001611361125 
0.0016244736128 0.0016377158148 0.0016510897174 0.0016646366785 0.0016782862522 0.0016920760747 0.0017060099909 0.0017200922187 0.0017343291461 
0.0017487255774 0.0017632807733 0.0017780067835 0.0017929081554 0.0018079918648 0.0018232642547 0.0018387353276 0.0018544085548 0.0018702859528 
0.0018863672128 0.0019026571466 0.0019186136408 0.0019353037127 0.0019521920465 0.0019692761723 0.0019865562203 0.0020040223496 0.002021684687 
0.0020395421004 0.0020576064874 0.0020758768358 0.0020943651937 0.002113084948 0.002132049008 0.0021512654854 0.0021707479226 0.0021905050192 
0.0014559931597 0.0014675607867 0.001479255282 0.0014910775219 0.0015030281006 0.0015151202605 0.0015273270186 0.0015396587438 0.0015521183624 
0.0015647000973 0.0015774081571 0.0015902388876 0.0016032469943 0.0016163302811 0.0016295417001 0.0016428830842 0.0016563944237 0.0016700070733 
0.0016837578635 0.001697651651 0.0017116907973 0.0017258826124 0.0017402299535 0.0017547394634 0.0017694115671 0.0017842564675 0.0017992806442 
0.0018144901845 0.0018298941198 0.0018454951302 0.0018613023184 0.0018773170877 0.0018935382907 0.0019094315188 0.001926062986 0.0019428986158 
0.0019599338213 0.0019771687546 0.0019945987223 0.0020122207407 0.0020300423866 0.0020480629898 0.002066296223 0.002084741245 0.0021034081926 
0.0021223118823 0.0021414642878 0.0021608766226 0.0021805617567 0.0022005277214 0.0014590992487 0.0014707466847 0.001482523993 0.0014944299598 
0.0015064802028 0.0015186466614 0.0015309401651 0.0015433620847 0.0015559127972 0.0015685865003 0.0015813857123 0.0015943649838 0.001607416208 
0.0016205958694 0.001633904417 0.0016473432661 0.0016609533952 0.0016746641904 0.0016885155443 0.0017025123668 0.0017166563161 0.0017309533446 
0.001745408754 0.0017600302754 0.0017748163304 0.0017897793671 0.0018049235836 0.0018202581279 0.0018357881574 0.0018515204906 0.001867456124 
0.0018836022371 0.0018994179553 0.0019159780881 0.0019327461515 0.0019497205024 0.0019668997969 0.0019842770224 0.0020018525345 0.002019626876 
0.0020376012759 0.0020557804401 0.0020741764415 0.0020927894719 0.0021116291382 0.0021307111556 0.0021500488334 0.0021696517455 0.0021895343522 
0.0022096760431 0.0014617262691 0.0014734487727 0.0014853024865 0.0014972858062 0.0015094166519 0.0015216642982 0.0015340412537 0.0015465477203 
0.0015591808085 0.0015719422781 0.0015848293838 0.0015979022256 0.0016110446365 0.0016243169648 0.0016377196295 0.001651254925 0.0016649622154 
0.0016787725428 0.0016927268172 0.0017068256971 0.0017210747113 0.0017354776842 0.0017500461256 0.0017647755472 0.0017796769224 0.0017947581818 
0.0018100217778 0.0018254778737 0.001841130883 0.0018569882381 0.0018730520984 0.0018887853735 0.0019052632533 0.0019219540922 0.0019388547335 
0.0019559637391 0.0019732770833 0.0019907932903 0.002008512097 0.0020264332515 0.0020445583081 0.0020628933694 0.0020814488436 0.0021002279794 
0.0021192383741 0.0021384971805 0.0021580167936 0.0021777787443 0.0021978545282 0.0022182192336 0.001464029194 0.0014758229314 0.0014877490423 
0.0014998082269 0.0015120113653 0.0015243359726 0.0015367926204 0.0015493779201 0.0015620919595 0.0015749366102 0.0015879088468 0.0016010710985 
0.0016143027304 0.0016276667859 0.0016411625749 0.0016548299498 0.0016686004721 0.0016825101371 0.0016965650865 0.0017107695408 0.0017251258574 
0.0017396393139 0.001754319967 0.0017691638356 0.0017841809243 0.0017993777975 0.0018147639549 0.0018303410999 0.0018461179208 0.0018620989488 
0.0018782861807 0.0018941364312 0.0019107408334 0.0019275585465 0.0019445888142 0.0019618276187 0.001979273428 0.0019969259481 0.0020147855178 
0.0020328523905 0.0020511266684 0.0020696158558 0.0020883335259 0.0021072756568 0.0021264602925 0.0021458959571 0.0021655670658 0.0021855455844 
0.0022058096993 0.0022263682135 0.0014661670763 0.0014780294213 0.0014900235306 0.0015021524504 0.0015144291656 0.00152682612 0.0015393556311 
0.0015520182428 0.0015648099823 0.0015777332988 0.0015908545015 0.0016040419234 0.0016173620434 0.0016308171306 0.0016444067155 0.0016581715111 
0.0016720410217 0.001686053915 0.0017002134353 0.0017145258984 0.00172899209 0.0017436210016 0.0017584147414 0.0017733763685 0.001788512708 
0.0018038296491 0.0018193352967 0.0018350350504 0.0018509331218 0.0018670382203 0.0018828010593 0.0018993197248 0.0019160487937 0.0019329934921 
0.0019501485016 0.0019675154287 0.0019850941511 0.0020028823609 0.0020208816084 0.0020390923253 0.0020575174876 0.0020761644009 0.0020950421174 
0.0021141526033 0.0021335105276 0.0021530930722 0.0021729797748 0.0021931440106 0.002213599155 0.0022343531262 0.0014682858082 0.0014802122492 
0.0014922733087 0.0015044852436 0.0015168186675 0.0015292843286 0.0015418863239 0.0015546236296 0.0015674938625 0.0015804967143 0.0015937030636 
0.0016069748359 0.0016203852087 0.0016339312899 0.0016476160058 0.0016614806486 0.0016754520803 0.001689572417 0.0017038408221 0.0017182652323 
0.0017328444155 0.0017475887121 0.0017625001433 0.0017775813415 0.0017928394852 0.0018082814105 0.0018239111491 0.0018397361414 0.0018557604624 
0.0018714396941 0.0018878704603 0.0019045131338 0.001921370023 0.0019384410707 0.0019557220328 0.0019732176838 0.0019909284816 0.002008854009 
0.0020269941846 0.0020453513444 0.0020639296405 0.0020827345389 0.0021017789889 0.0021210589137 0.0021405613624 0.002160360065 0.0021804306431 
0.0022007846672 0.0022214346803 0.0022423833215 0.0014705152262 0.0014825056694 0.0014946319984 0.0015069115849 0.0015193126125 0.0015318507763 
0.0015445243277 0.0015573353234 0.0015702816958 0.0015834346702 0.0015966548891 0.0016100152151 0.0016235151752 0.0016371573202 0.0016509406146 
0.0016649069893 0.0016789841 0.0016932115981 0.0017075930718 0.0017221299292 0.0017368289738 0.0017516937017 0.0017667281886 0.0017819340981 
0.0017973182297 0.0018128883927 0.0018286464404 0.0018445998071 0.0018602013185 0.0018765501624 0.0018931087355 0.0019098776677 0.0019268627944 
0.0019440619091 0.0019614728858 0.0019791010391 0.0019969474671 0.0020150110019 0.0020332964807 0.0020518039871 0.0020705390916 0.002089506542 
0.0021087195419 0.0021281419182 0.0021478569527 0.0021678425432 0.0021881037336 0.0022086527683 0.0022295003517 0.0022506498225 0.0014729645414 
0.0014850192457 0.0014972124322 0.0015095587872 0.0015220286094 0.0015346374105 0.001547384656 0.0015602701735 0.0015732950635 0.0015865333905 
0.0015998387488 0.0016132877045 0.001626878972 0.0016406157819 0.0016545372701 0.0016685702463 0.0016827568154 0.0016970973722 0.0017115945265 
0.0017262522797 0.0017410731523 0.0017560616676 0.0017712255689 0.0017865609975 0.0018020765961 0.0018177768401 0.0018336672824 0.0018497523986 
0.0018654793755 0.0018819599721 0.0018986490993 0.0019155491121 0.0019326626729 0.0019499928953 0.0019675407254 0.0019853049207 0.0020032905949 
0.0020214987497 0.0020399310502 0.002058594442 0.0020774914886 0.0020965907092 0.0021159791772 0.0021356168317 0.0021555213513 0.0021756956576 
0.0021961520521 0.0022169011842 0.0022379506963 0.0022602636147 0.0014757220822 0.0014878422341 0.0015001023246 0.0015125180402 0.0015250585449 
0.0015377392306 0.0015505626647 0.0015635243022 0.0015766292776 0.0015899522509 0.0016033443545 0.0016168821724 0.001630571784 0.0016444080743 
0.0016584325555 0.0016725750353 0.0016868740939 0.001701331437 0.001715948611 0.0017307304307 0.0017456784818 0.0017607969458 0.0017760921871 
0.0017915610612 0.0018072115291 0.0018230491083 0.0018390753544 0.0018547403731 0.0018711520253 0.0018877694913 0.0019045950155 0.0019216319012 
0.0019388810913 0.001956347495 0.0019740335276 0.00199194203 0.0020100698329 0.0020284277779 0.0020470162231 0.0020658397292 0.0020848671808 
0.0021041782296 0.0021237455687 0.002143570985 0.0021636700937 0.0021840405742 0.0022046994268 0.0022256540563 0.0022478668708 0.0022694474767 
0.0014788518121 0.0014910397136 0.0015033840537 0.0015158564416 0.0015284704017 0.0015412262627 0.0015541247258 0.0015671681208 0.0015804330585 
0.0015937670706 0.0016072495146 0.0016208816582 0.0016346705498 0.0016486118543 0.0016627460606 0.0016769994919 0.0016914145057 0.0017059923162 
0.0017207345515 0.0017356430502 0.0017507233823 0.0017659740954 0.0017814060781 0.0017970131481 0.0018128031989 0.0018287801367 0.0018443910812 
0.0018607457279 0.0018772994769 0.0018940578411 0.0019110251952 0.0019282007238 0.0019455944816 0.0019632047339 0.0019810350877 0.001999091376 
0.0020173750857 0.002035886923 0.002054636101 0.0020735902046 0.0020928297659 0.0021123210321 0.0021320769648 0.0021520978129 0.0021723930518 
0.0021929717732 0.0022138368056 0.0022350020809 0.0022574431398 0.0022792424958 0.0014823998787 0.001494658374 0.0015070756024 0.0015196222726 
0.0015323114041 0.0015451463276 0.0015581264243 0.0015712531596 0.0015846070024 0.0015980313586 0.0016116089417 0.0016253404086 0.0016392291528 
0.0016532811618 0.00166752593 0.0016818963116 0.0016964319556 0.0017111334336 0.0017260042335 0.0017410450315 0.0017562599368 0.0017716484227 
0.0017872190427 0.0018029692128 0.001818903004 0.0018350267345 0.0018507744027 0.0018672750444 0.0018839756913 0.0019008811506 0.0019179932327 
0.001935318599 0.0019528607157 0.0019706212988 0.0019886048517 0.0020068156163 0.0020252597631 0.0020439371289 0.0020628170074 0.0020819846781 
0.0021014060207 0.0021210859375 0.0021410393094 0.0021612582067 0.0021817590944 0.0022025480526 0.0022236282356 0.0022459776376 0.0022676903898 
0.0022897115801 0.0014863973059 0.001498730277 0.0015112235643 0.0015238462749 0.0015366168466 0.00154953381 0.0015625982698 0.0015758949994 
0.0015892613444 0.001602781975 0.0016164582809 0.0016302932572 0.0016442895559 0.0016584891604 0.0016728140189 0.0016873027049 0.0017019624213 
0.0017167920173 0.0017317942356 0.0017469704949 0.0017623244883 0.001777854752 0.0017935701887 0.0018094666854 0.0018255483522 0.0018412567702 
0.0018577113906 0.0018743626988 0.0018912161482 0.0019082738512 0.0019255404868 0.0019430221898 0.0019607182486 0.0019786371971 0.0019967817149 
0.0020151573084 0.0020337690405 0.0020525780399 0.0020716784255 0.0020910293402 0.0021106386005 0.0021305154714 0.0021506712314 0.0021710970856 
0.00219180996 0.0022128183169 0.0022341213392 0.0022567112778 0.0022786494066 0.0023009035373 0.001490867734 0.0015032738891 0.0015158471845 
0.0015285517327 0.0015414059999 0.0015544084204 0.0015675613034 0.001580954315 0.0015944165968 0.0016080370025 0.0016218167358 0.0016357593036 
0.0016498655825 0.0016641786699 0.0016786253426 0.0016932391376 0.0017080269059 0.0017229882442 0.0017381263177 0.0017534419748 0.0017689382954 
0.0017846142391 0.0018004764464 0.001816524411 0.0018321954021 0.0018486134732 0.0018652216795 0.0018820317286 0.0018990425833 0.001916260211 
0.0019336886088 0.0019513301902 0.0019691909802 0.0019872752989 0.0020055901788 0.0020241381132 0.0020428840591 0.0020619167516 0.0020812040751 
0.0021007490762 0.00212055629 0.0021406351886 0.00216099966 0.0021816421279 0.0022025743378 0.0022238041887 0.002246313843 0.0022681743172 
0.0022903469605 0.0023128416017 0.0014958128106 0.0015083005067 0.0015209577072 0.0015337471793 0.0015466878353 0.0015597805745 0.0015730278004 
0.0015865208156 0.0016000832118 0.0016138076669 0.0016276955906 0.0016417493535 0.0016559722643 0.0016704046356 0.0016849753893 0.0016997164489 
0.0017146361801 0.001729733294 0.0017450128191 0.0017604701813 0.0017761118295 0.0017919378734 0.001807953554 0.0018241530432 0.0018399775017 
0.0018565533348 0.0018733241397 0.0018902962305 0.0019074703919 0.001924853245 0.0019424489561 0.0019602599934 0.0019782937135 0.0019965518354 
0.0020150454915 0.0020337311932 0.0020527054657 0.0020719287327 0.0020914100888 0.0021111558659 0.0021311700088 0.0021514617551 0.0021720403821 
0.0021929052075 0.0022140631892 0.002235531445 0.0022582849192 0.0022803841802 0.0023028041591 0.002325548698 0.0015012410164 0.0015138293881 
0.001526557484 0.0015394350601 0.0015524680699 0.0015656559834 0.0015790928523 0.0015925984626 0.0016062663967 0.0016200996394 0.001634099286 
0.0016482696347 0.0016626129478 0.0016771687356 0.0016918650571 0.0017067399192 0.001721795475 0.0017370339975 0.0017524554235 0.0017680609073 
0.0017838536041 0.0017998337364 0.0018160025421 0.0018317970184 0.0018483433488 0.0018650820779 0.0018820201357 0.001899159615 0.0019165058565 
0.0019340612748 0.0019518288701 0.001969817739 0.0019880307243 0.0020064727048 0.002025106246 0.0020440255894 0.0020631946389 0.0020826175288 
0.0021023048196 0.0021222587183 0.0021424873668 0.0021630006055 0.0021838047464 0.002204897234 0.0022262945113 0.0022489721762 0.0022710038916 
0.0022933545129 0.0023160292586 0.0023390294623 0.0015071547299 0.0015198355892 0.0015326503743 0.0015456218053 0.0015587509762 0.0015720371899 
0.0015855789212 0.0015991905108 0.0016129675061 0.001626913065 0.0016410300471 0.0016553202409 0.0016698249225 0.0016844716118 0.0016992983118 
0.0017143103502 0.0017295059739 0.0017448874584 0.0017604567569 0.0017762138279 0.0017921625038 0.0018082975027 0.0018240654896 0.0018405808617 
0.0018572926758 0.0018742030409 0.0018913149285 0.001908627074 0.0019261479718 0.0019438812909 0.0019618313263 0.0019800032716 0.0019984039218 
0.0020169903796 0.0020358639731 0.002054983131 0.0020743552269 0.0020939873344 0.0021138867812 0.0021340578877 0.0021545122014 0.0021752515671 
0.0021962918215 0.0022176245182 0.0022402303488 0.0022621957762 0.0022844808155 0.0023070865678 0.0023300233864 0.0023532899442 0.0015135539056 
0.0015263276431 0.001539236158 0.0015523037314 0.0015655326388 0.0015789223068 0.0015925730911 0.0016062950268 0.0016201849414 0.0016342478566 
0.0016484855274 0.0016629002598 0.001677530737 0.0016923089076 0.0017072735357 0.0017224233669 0.0017377645905 0.0017532947772 0.0017690148059 
0.0017849298392 0.0018010365888 0.0018173376841 0.0018332662079 0.0018499530788 0.0018668365407 0.001883921993 0.0019012089124 0.0019187025579 
0.0019364057446 0.0019543220372 0.0019724629469 0.0019908282475 0.0020093764436 0.0020282094538 0.0020472862425 0.0020666140001 0.0020861977243 
0.0021060483356 0.0021261693642 0.0021465668664 0.0021672513724 0.0021882274509 0.002209504945 0.0022310834784 0.0022539511167 0.0022761710459 
0.0022987166693 0.0023215855355 0.0023447915903 0.0023683333721 0.0015204384971 0.0015333082741 0.0015463145192 0.0015594830423 0.0015728157216 
0.0015864098201 0.0016000740773 0.0016139089196 0.0016279166949 0.0016421009319 0.00165646295 0.0016710067719 0.0016857727191 0.0017006871839 
0.0017157916587 0.0017310855097 0.0017465758019 0.0017622585792 0.0017781361997 0.0017942115471 0.0018104840583 0.0018263867132 0.0018430488174 
0.0018599115254 0.0018769738045 0.0018942390968 0.0019117105405 0.0019293892122 0.0019472801912 0.0019653907764 0.0019837260184 0.0020022390969 
0.0020210371082 0.0020400773001 0.0020593664669 0.0020789128146 0.0020987175909 0.0021187913926 0.0021391449616 0.0021597792366 0.0021807023895 
0.0022019231374 0.0022234478339 0.002246252824 0.0022684182705 0.0022909041826 0.002313715485 0.0023368574055 0.0023603398506 0.0023841653925 
0.0015278109598 0.0015407797788 0.0015538910141 0.0015671617957 0.0015806016224 0.0015943106422 0.0016080894894 0.0016220418496 0.0016361704793 
0.0016504791638 0.0016649703194 0.0016796470483 0.0016945496044 0.0017096045866 0.0017248523157 0.0017402954083 0.0017559376901 0.0017717808334 
0.0017878215328 0.0018040630879 0.0018205047636 0.0018365792871 0.0018534166985 0.0018704580718 0.0018877022632 0.0019051529596 0.0019228143513 
0.001940686612 0.0019587743295 0.0019770843957 0.0019955689624 0.0020143397593 0.0020333500492 0.0020526062294 0.0020721148946 0.0020918865296 
0.0021119201242 0.0021322307055 0.0021528207687 0.0021737004487 0.0021948742859 0.0022163442823 0.0022381300977 0.0022612050404 0.0022836385535 
0.0023063932367 0.0023294835462 0.0023529077943 0.0023766720511 0.0024007905882 0.0015356974317 0.001548753564 0.0015619703746 0.0015753480313 
0.0015890028205 0.0016027254848 0.0016166221022 0.0016306954146 0.0016449492631 0.0016593858394 0.0016740102576 0.001688862742 0.0017038672756 
0.0017190673046 0.0017344635934 0.0017500603438 0.001765859705 0.0017818626872 0.001798072765 0.0018144850588 0.001830532535 0.0018473509268 
0.0018643710559 0.0018815998127 0.0018990328325 0.001916677791 0.0019345330195 0.0019526055195 0.0019708959606 0.001989359312 0.0020081051618 
0.0020270886399 0.0020463189771 0.0020657993402 0.0020855370021 0.0021055410884 0.0021258150017 0.0021463699869 0.0021672066008 0.0021883408899 
0.0022097707263 0.0022315034804 0.0022545274495 0.0022769101988 0.0022996191311 0.0023226569242 0.0023460300455 0.002369744427 0.0023938057494 
0.0024181912763 0.0015440724418 0.0015572330302 0.0015705590662 0.0015840476547 0.0015978194765 0.0016116594902 0.0016256800954 0.0016398788466 
0.001654261996 0.0016688314026 0.0016835899348 0.0016985806155 0.0017137300687 0.0017290783115 0.001744630125 0.0017603849405 0.001776346684 
0.0017925163731 0.001808896708 0.0018249200334 0.001841710583 0.0018587142558 0.0018759257157 0.0018933464348 0.0019109767223 0.0019288189539 
0.001946875688 0.0019651553955 0.0019836003285 0.0020023292357 0.0020212913896 0.0020404975197 0.0020599541227 0.002079665528 0.0020996414624 
0.0021198873564 0.0021404102853 0.0021612168704 0.0021823147355 0.0022037077561 0.002225401785 0.0022474118977 0.0022707200236 0.0022933813559 
0.0023163693351 0.0023396959073 0.0023633599615 0.0023873431767 0.0024117083209 0.0024364328258 0.0015529573154 0.0015662281704 0.0015796676974 
0.0015932749633 0.001607164289 0.0016211254851 0.0016352684922 0.0016495969902 0.0016641120025 0.001678817059 0.0016937158856 0.0017088507486 
0.0017241477726 0.0017396501588 0.0017553578887 0.0017712772996 0.0017874050739 0.0018037471486 0.0018203022279 0.001836506498 0.0018534851522 
0.0018706820067 0.0018880874319 0.0019057055298 0.0019235384072 0.0019415869847 0.0019598552207 0.0019782882669 0.0019970029613 0.0020159508978 
0.0020351387418 0.0020545751152 0.0020742561515 0.0020942086596 0.0021144297911 0.0021349258968 0.0021557090416 0.002176778065 0.0021981430179 
0.0022198080605 0.002241776838 0.0022650337513 0.0022876608564 0.0023106087208 0.002333888799 0.0023575101315 0.0023814474019 0.0024057666345 
0.0024304435072 0.0024554821025 0.0015623638376 0.001575747921 0.0015893025031 0.001603140203 0.0016170422872 0.0016311285401 0.0016453998895 
0.0016598603433 0.001674510842 0.0016893553201 0.0017043967953 0.0017196810418 0.0017351298077 0.0017507879922 0.0017666585775 0.0017827431316 
0.0017990445033 0.001815563837 0.0018317360477 0.0018486917702 0.0018658650393 0.0018832478548 0.0019008548715 0.0019186789955 0.0019367212542 
0.0019549829385 0.001973408618 0.0019921146794 0.0020110523839 0.0020302263384 0.0020496475868 0.0020693206673 0.0020892580655 0.0021094577225 
0.0021299327628 0.002150690854 0.0021717356257 0.0021930779353 0.0022147165491 0.0022366595158 0.0022589151873 0.0022824662556 0.0023053835026 
0.002328626801 0.002352211299 0.0023761069604 0.0024003810426 0.002425011867 0.0024500045775 0.0024753699708 0.0015722920158 0.0015857932658 
0.0015994684157 0.0016134324379 0.0016274629084 0.0016416757633 0.0016560802589 0.001670673521 0.0016854629113 0.0017004510903 0.0017156800897 
0.0017310758083 0.0017466813028 0.0017624914839 0.001778527197 0.0017947833047 0.0018112607824 0.0018279632357 0.0018443210943 0.0018614685975 
0.0018788429364 0.0018964398442 0.0019142549291 0.0019322895344 0.00195054636 0.0019689691782 0.0019876723139 0.002006604097 0.0020257696739 
0.0020451831644 0.0020648440359 0.0020847616661 0.002104946606 0.0021254036227 0.0021461426647 0.0021671686674 0.0021884914084 0.0022101103226 
0.0022320359845 0.0022542664058 0.0022768173107 0.0023006709644 0.0023238876801 0.0023474334774 0.0023712969458 0.0023955326206 0.0024201210073 
0.0024450712941 0.0024703908552 0.002496091656 0.0015827446716 0.0015963689932 0.0016101672897 0.0016242619096 0.0016384212788 0.0016527653311 
0.0016673053373 0.0016820301899 0.0016969628253 0.0017120973554 0.0017274759489 0.0017430278365 0.0017587922923 0.0017747770773 0.0017909816734 
0.0018074141955 0.0018240749125 0.0018403989705 0.0018575147686 0.0018748626317 0.0018924415195 0.0019102482309 0.001928274971 0.0019465273238 
0.0019649478769 0.001983655416 0.0020025858859 0.002021749175 0.0020411518621 0.0020608037412 0.0020807102553 0.0021008797821 0.0021213229762 
0.0021420477702 0.0021630582519 0.0021843648535 0.0022059698386 0.0022278801747 0.0022500971557 0.0022726272548 0.0022964522451 0.0023196424866 
0.0023431388871 0.0023669993445 0.002391202893 0.0024157564178 0.0024406676009 0.0024659456493 0.0024916021513 0.002517644441 0.0015937163231 
0.0016074670859 0.0016215047762 0.0016356123361 0.0016499054097 0.001664385652 0.0016790628271 0.0016939400832 0.0017090171929 0.0017243020131 
0.0017398358349 0.0017555461307 0.0017714744268 0.0017876257731 0.0018040058672 0.001820619744 0.0018369043912 0.0018539824654 0.0018712973522 
0.0018888498903 0.0019066360853 0.0019246601876 0.0019429100032 0.0019613287315 0.0019800327292 0.0019989655994 0.00201813033 0.0020375336554 
0.0020571787932 0.0020770783839 0.0020972382564 0.0021176684909 0.0021383799193 0.0021593785545 0.0021806711769 0.002202263231 0.0022241623567 
0.0022463693298 0.0022688898027 0.0022917256905 0.0023158646998 0.0023393410667 0.00236318324 0.0023873624522 0.0024118869715 0.0024367622096 
0.0024620037149 0.0024876189877 0.002513619731 0.0025400102761 0.0016051730914 0.001619055101 0.0016332357756 0.0016474777825 0.0016619089109 
0.0016765317659 0.0016913488957 0.0017063695436 0.0017215973678 0.0017370375081 0.001752727864 0.0017685992812 0.0017846957255 0.0018010216346 
0.0018175803379 0.0018343774259 0.0018508497887 0.0018681268614 0.0018856449364 0.0019034113637 0.0019214127675 0.0019396537953 0.0019580704601 
0.0019767745815 0.0019957108457 0.0020148798896 0.0020342844436 0.0020539323519 0.0020738282955 0.0020939788387 0.0021144013626 0.0021351001817 
0.002156085834 0.0021773656059 0.0021989485525 0.0022208360222 0.002243036076 0.0022655478022 0.0022883803536 0.0023125004001 0.0023359664809 
0.0023597918784 0.0023839584043 0.0024084593408 0.0024333110532 0.0024585205108 0.0024840996201 0.00251005808 0.0025364078734 0.0025631568318 
0.0016170951802 0.0016311120156 0.0016454323918 0.0016598139747 0.00167438568 0.0016891524407 0.0017041154295 0.0017192857662 0.0017346665107 
0.0017502604427 0.0017661124939 0.0017821522009 0.0017984178976 0.0018149205633 0.0018316605256 0.0018480831958 0.0018653144467 0.0018827928689 
0.001900519853 0.0019184964734 0.001936718399 0.0019551242671 0.0019738276222 0.0019927660009 0.0020119394913 0.0020313508993 0.0020510015922 
0.0020708988035 0.0020910494586 0.0021114636034 0.0021321503304 0.00215312328 0.0021743962322 0.0021959676328 0.0022178452815 0.00224003669 
0.0022625438332 0.0022853716736 0.0023085204219 0.0023329407051 0.0023567609738 0.0023809130662 0.0024054075159 0.0024302396011 0.0024554285677 
0.0024809764479 0.0025068991936 0.0025332068564 0.0025599102043 0.0025870282972 0.0016294133792 0.0016436958708 0.001658033548 0.0016725599839 