# vtk DataFile Version 5.1
vtk output
ASCII
DATASET STRUCTURED_POINTS
DIMENSIONS 50 50 50
SPACING 0.002 0.002 0.002
ORIGIN 0.1742 -0.052672 0.02732
POINT_DATA 125000
FIELD FieldData 1
potential 1 125000 double
<<<<<<< HEAD
0.0082751213087 0.0082359388464 0.0081959311859 0.0081551394381 0.0081135836745 0.0080712843694 0.0080282761411 0.0079845552508 0.0079401293267 
0.0078950485084 0.0078493241965 0.0078029732227 0.0077560186468 0.0077084940975 0.0076604357003 0.0076118663831 0.007562792085 0.0075132923433 
0.0074633614853 0.0074130139365 0.0073623243916 0.00731117019 0.007259613262 0.0072076792442 0.0071553550074 0.0071026728354 0.00704967138 
0.0069963856746 0.0069428623837 0.0068891543429 0.0068353177229 0.0067814107916 0.0067274736708 0.0066735433073 0.0066196623133 0.0065658375846 
0.0065120897732 0.0064584182559 0.0064048265737 0.0063513224379 0.006297898419 0.0062445635133 0.0061913306556 0.0061382403332 0.0060853007156 
0.006032543365 0.0059799961032 0.0059276852907 0.0058756460806 0.0058238632192 0.0084604091246 0.0084199173764 0.0083785735491 0.0083364117769 
0.0082934595785 0.0082497386767 0.0082052649566 0.0081600740443 0.0081141797849 0.0080675824951 0.0080202954955 0.0079723477754 0.007923790894 
0.007874639065 0.0078249193518 0.0077746712112 0.0077239243017 0.0076726936712 0.0076210189779 0.0075689096493 0.0075163740321 0.0074634176849 
0.0074100452022 0.0073562921242 0.0073021724318 0.0072477400258 0.0071929208413 0.007137838103 0.0070825245359 0.007027045661 0.0069714397616 
0.0069157807124 0.0068601026378 0.006804449756 0.0067488455734 0.0066933259976 0.0066378910129 0.0065825510315 0.0065272987491 0.0064721394253 
0.0064170850143 0.006362130201 0.0063073021955 0.0062526105991 0.0061980892357 0.0061437605332 0.0060896557856 0.0060358002915 0.0059822109124 
0.0059289112626 0.0086462743744 0.0086044791512 0.008561781509 0.0085182385747 0.0084738754643 0.0084287230786 0.0083827898085 0.008336105133 
0.0082886818667 0.008240539236 0.008191698052 0.0081421596397 0.0080919792805 0.0080411604767 0.0079897690415 0.0079378241767 0.0078853455308 
0.0078323575173 0.0077789026112 0.0077249917603 0.0076706420032 0.0076158612333 0.007560664154 0.007505058316 0.0074490830111 0.007392763532 
0.0073361005592 0.0072791901479 0.0072221159544 0.0071648350024 0.0071074507744 0.007050013634 0.0069925748956 0.0069351722967 0.006877830327 
0.0068205875722 0.0067634472072 0.0067064059719 0.0066494767052 0.0065926533979 0.0065359504878 0.0064793642099 0.0064229145845 0.0063666170292 
0.0063104980561 0.006254585453 0.0061988995162 0.0061434798448 0.0060883362808 0.0060334930336 0.0088320720638 0.0087889157164 0.0087448566943 
0.008699923317 0.0086541641515 0.0086075640562 0.0085601519028 0.0085119554929 0.0084630000199 0.0084132900198 0.0083628805597 0.0083117296708 
0.0082599209635 0.0082074478479 0.0081543583412 0.0081006884912 0.0080464424545 0.0079916821587 0.0079364129776 0.0078806711633 0.0078244768753 
0.0077678352711 0.0077107661981 0.007653284786 0.0075954393341 0.0075372493207 0.0074787572188 0.0074200026726 0.0073610478241 0.0073019381635 
0.0072427367286 0.007183549499 0.0071243344991 0.0070651643163 0.0070060776483 0.0069470836968 0.0068882191237 0.0068294751226 0.0067708521947 
0.006712354555 0.0066539847849 0.0065957546437 0.0065376658751 0.0064797391697 0.0064220092895 0.006364489644 0.0063072199874 0.006250211331 
0.006193498839 0.0061370972985 0.0090173500469 0.008972843783 0.0089274279547 0.0088810871187 0.0088338652764 0.0087857995292 0.0087369122503 
0.008687195453 0.0086366871049 0.0085854096388 0.0085333624262 0.0084805816357 0.0084270988949 0.0083729388582 0.0083181477124 0.008262727649 
0.0082067216511 0.0081501838245 0.0080930807807 0.0080354825268 0.0079774184624 0.0079188822796 0.0078599249264 0.0078005589196 0.0077408205034 
0.0076807438703 0.0076203803252 0.0075597570441 0.0074989502486 0.0074380111126 0.0073769910009 0.0073159520594 0.0072549377238 0.0071939861701 
0.0071331672173 0.0070724222006 0.0070118123546 0.0069513508235 0.0068910222625 0.0068308326347 0.0067707870824 0.0067108932061 0.0066511592602 
0.0065915976337 0.0065322306938 0.0064730918962 0.0064142024307 0.0063555920311 0.0062972914514 0.0062393099266 0.00920192901 0.0091560347658 
0.0091092012524 0.0090614262079 0.0090127489253 0.0089631997216 0.0089127836871 0.0088615296494 0.0088094542125 0.0087566004451 0.0087029401993 
0.0086485160273 0.0085933451396 0.0085374743323 0.0084809264442 0.0084237368019 0.0083659519255 0.0083075634125 0.0082486270453 0.0081891540009 
0.0081291889811 0.0080687549982 0.0080079193068 0.0079466495777 0.007885005471 0.0078230248928 0.0077607642936 0.0076982698646 0.007635593982 
0.0075727991877 0.00750994253 0.0074470787216 0.0073842471246 0.00732150601 0.0072588694756 0.0071963471261 0.007133988027 0.0070718093516 
0.0070097616085 0.0069478694534 0.0068861306693 0.0068245687817 0.006763158546 0.0067019362529 0.0066409218882 0.006580139487 0.0065196179513 
0.0064593803538 0.0063994583824 0.0063398766018 0.0093858340408 0.0093385381046 0.0092902615204 0.0092410224063 0.0091908611387 0.0091397945752 
0.0090878482347 0.0090350425274 0.0089813717781 0.008926873462 0.008871557196 0.008815461714 0.0087585830722 0.0087009836674 0.0086426913969 
0.008583708024 0.0085240825513 0.0084638595798 0.0084030521074 0.0083417033656 0.00827984673 0.0082174999165 0.0081547088831 0.0080915125922 
0.0080279480791 0.0079640801144 0.0078999096235 0.0078355205116 0.007770963565 0.0077062982885 0.007641586008 0.0075768815362 0.0075122293007 
0.0074476649429 0.0073832222546 0.0073189326606 0.00725479116 0.0071908316621 0.0071270330794 0.0070634309441 0.0069999832742 0.0069367140098 
0.0068736131093 0.0068107098168 0.0067480235049 0.0066855761986 0.0066233976013 0.0065615057679 0.0064999459104 0.0064387312272 0.0095695369451 
0.0095208017943 0.0094710492698 0.0094203284249 0.0093686541501 0.0093160408051 0.0092625202926 0.0092081091306 0.0091528138486 0.0090966666585 
0.009039550653 0.0089817261287 0.0089231123609 0.0088637551651 0.0088036560509 0.0087428431804 0.0086813728174 0.0086192934431 0.0085566010253 
0.008493365261 0.0084295801425 0.0083653125671 0.0083005996629 0.0082354519286 0.0081699545433 0.0081041345125 0.008038040791 0.0079717365736 
0.0079053059871 0.0078387570662 0.0077721746291 0.0077056060786 0.0076391017407 0.0075726998567 0.0075064443447 0.007440336581 0.0073743928621 
0.0073086432198 0.0072430832364 0.0071777028571 0.0071124996058 0.0070475064612 0.0069826880114 0.0069180689211 0.0068536794894 0.0067895437217 
0.0067256696346 0.0066621031923 0.0065988780472 0.0065360072382 0.0097534578011 0.0097032302205 0.0096519668216 0.0095997059572 0.009546468855 
0.0094922741389 0.0094371400524 0.0093810827803 0.0093241214719 0.009266267693 0.0092075536383 0.0091479871578 0.0090876025162 0.0090264147399 
0.0089644867596 0.0089018409626 0.0088384964313 0.0087745035318 0.0087099003351 0.0086447356741 0.0085790299616 0.0085126920064 0.0084460220181 
0.0083789370333 0.0083114746444 0.0082437132242 0.0081756882639 0.0081074539018 0.0080390763264 0.0079706175942 0.0079021351633 0.0078336997406 
0.0077653161082 0.0076970495951 0.0076289290409 0.0075609802822 0.0074932058727 0.0074256282228 0.0073582582946 0.0072910806302 0.0072241010255 
0.0071573171692 0.0070907400024 0.0070243779513 0.0069582428029 0.0068923650494 0.0068267828151 0.0067614977581 0.0066965640455 0.0066319983448 
0.0099386159212 0.0098868558589 0.0098340344283 0.0097801757818 0.0097253192253 0.0096694869913 0.0096126851298 0.0095549193825 0.0094962369248 
0.0094366344684 0.0093761472094 0.0093147809314 0.0092525652615 0.0091895309126 0.0091257130511 0.0090611637561 0.0089959112932 0.0089300136824 
0.0088634654202 0.0087963283915 0.0087286457008 0.008660478015 0.0085918568932 0.0085227997907 0.0084533731075 0.008383629331 0.0083136334755 
0.0082434395561 0.0081731194507 0.0081025849545 0.0080321676607 0.0079617909368 0.0078914940399 0.0078213421697 0.0077513238908 0.0076814847949 
0.0076118343588 0.0075423804274 0.0074731492298 0.007404123781 0.0073353152351 0.0072667078418 0.0071983248442 0.00713015791 0.0070622280079 
0.0069945739308 0.0069272115989 0.0068601720247 0.006793494347 0.0067272017704 0.010126093292 0.01007272783 0.010018279863 0.009962784925 
0.0099062434302 0.0098486928302 0.0097901469541 0.0097306315266 0.0096701617789 0.0096087463501 0.0095464213634 0.0094831840716 0.0094190915085 
0.0093541641581 0.0092884427742 0.0092219448165 0.009154735452 0.009086841309 0.0090182996844 0.0089491685866 0.0088794916215 0.00880929798 
0.008738646105 0.0086676120518 0.0085961844925 0.0085244343999 0.0084524483587 0.0083802727326 0.0083079637435 0.0082355970286 0.0081632071128 
0.0080908621207 0.008018604626 0.0079464744318 0.0078745027296 0.0078027364399 0.0077310284618 0.007659643622 0.0075884877811 0.007517556321 
0.0074468502213 0.0073763566799 0.0073060958964 0.0072360696904 0.0071662937029 0.0070967919084 0.00702760685 0.006958753529 0.0068902811851 
0.0068222017503 0.010317162529 0.010262134746 0.01020598734 0.010148743573 0.010090447328 0.010031120494 0.0099707740541 0.0099094117481 
0.0098470453568 0.0097837319587 0.009719480199 0.0096543205222 0.0095882784131 0.009521381969 0.0094536593067 0.0093851962838 0.0093159624646 
0.0092460307823 0.009175471257 0.0091042957381 0.0090325622483 0.0089603125185 0.0088876000712 0.0088144877072 0.008741013995 0.0086672790126 
0.0085932409604 0.0085190280171 0.0084446852102 0.0083702809502 0.0082958666042 0.0082215102189 0.0081472262538 0.0080730757117 0.0079990942101 
0.0079253024035 0.0078517143737 0.0077783530818 0.0077052036417 0.0076322876317 0.0075595933504 0.0074871501159 0.0074148278064 0.0073428728974 
0.007271173957 0.0071997744143 0.0071286991614 0.0070579734733 0.0069876482004 0.0069177227767 0.010513141693 0.010456359114 0.010398426846 
0.010339392034 0.010279222924 0.010218010988 0.010155768527 0.010092479097 0.010028176227 0.0099628869797 0.0098966258589 0.0098294359318 
0.0097613613698 0.0096924196481 0.0096226374761 0.0095520751414 0.0094807732126 0.0094087426627 0.0093360562368 0.0092627824144 0.0091889456322 
0.0091146015264 0.0090397831283 0.0089645763677 0.0088889990531 0.008813110045 0.0087370119113 0.0086607095856 0.0085842738985 0.0085077769099 
0.008431265659 0.0083548053328 0.0082784303986 0.00820219488 0.0081261231195 0.0080502364882 0.0079745614813 0.0078991062894 0.0078238909221 
0.0077489193442 0.0076741775126 0.0075996910872 0.0075254582908 0.0074514838145 0.0073777894355 0.0073044139233 0.0072313773633 0.0071586083589 
0.0070863507358 0.0070145334344 0.010715439615 0.010656808309 0.010596992675 0.01053602781 0.010473923736 0.010410722344 0.010346465785 
0.010281147219 0.010214776717 0.01014739978 0.010079052307 0.01000976022 0.0099395454031 0.0098684599161 0.0097965309423 0.009723799815 
0.0096503241671 0.0095761385593 0.0095012902788 0.0094258244262 0.0093497815732 0.009273260794 0.0091962645766 0.0091188673018 0.0090411139218 
0.0089630450534 0.0088847516926 0.0088062842807 0.0087276629935 0.0086490108849 0.0085703349888 0.0084916996464 0.0084131450931 0.0083347227208 
0.0082564643614 0.0081784045496 0.0081005477172 0.0080229164787 0.0079455310081 0.0078683995734 0.0077915139079 0.007714893805 0.0076385491874 
0.0075624817624 0.0074867139644 0.0074112751925 0.0073362065703 0.0072615269672 0.0071872660823 0.0071134712765 0.010925291909 0.010864699236 
0.010802894959 0.010739918478 0.010675766285 0.010610452647 0.01054404908 0.01047661533 0.010408091564 0.010338535395 0.010267978312 
0.010196460476 0.010124027916 0.01005067995 0.0099764916827 0.0099015061678 0.0098257599187 0.0097493086319 0.0096721878506 0.0095944583115 
0.00951616101 0.0094373471885 0.0093580561329 0.0092783730326 0.0091983534396 0.0091180333582 0.0090374729533 0.0089567154542 0.0088758448961 
0.0087949133212 0.0087139746951 0.008633072937 0.0085522377631 0.0084715366872 0.0083909864974 0.0083106230568 0.0082304902399 0.0081505822205 
0.0080709187681 0.0079915241228 0.0079123990571 0.0078335442172 0.0077549811525 0.0076767284024 0.0075987946195 0.0075212142772 0.0074440206258 
0.0073672395866 0.0072909024355 0.0072150371041 0.011143998293 0.011081329242 0.011017397645 0.010952271952 0.010885936802 0.010818457661 
0.010749809331 0.010680071738 0.010609251016 0.010537386703 0.010464510866 0.010390638854 0.010315868825 0.010240177545 0.010163640416 
0.01008626995 0.010008146478 0.0099293092718 0.0098498073359 0.0097696718363 0.0096889957562 0.0096078082563 0.0095261556119 0.0094440547167 
0.009361650305 0.0092789556245 0.0091960186483 0.0091128979031 0.0090296394513 0.0089462947749 0.0088629721373 0.0087796669445 0.0086964648676 
0.0086133673521 0.008530439186 0.0084476737029 0.0083651391366 0.008282835516 0.0082008010588 0.0081190302348 0.0080375414466 0.00795636221 
0.0078754758961 0.0077949168804 0.0077147193204 0.0076348955647 0.0075554818242 0.0074765028657 0.0073979956744 0.0073199827968 0.011372617608 
0.011307760798 0.01124160388 0.011174197504 0.011105562804 0.011035731504 0.010964736951 0.010892596343 0.01081936509 0.010745059038 
0.010669719594 0.010593382791 0.010516103989 0.010437906053 0.010358845733 0.010278971957 0.010198377567 0.010117043218 0.010035024852 
0.0099523896524 0.0098691914108 0.0097854896974 0.0097013310338 0.009616764267 0.0095318185541 0.009446605635 0.0093611674918 0.0092755410297 
0.0091897902073 0.0091039577704 0.0090180976325 0.0089322782616 0.0088465303405 0.0087609283934 0.0086754683169 0.00859020034 0.0085051470845 
0.0084203404498 0.0083357805618 0.0082515296894 0.008167567445 0.0080839162226 0.008000624181 0.0079176698249 0.0078350829482 0.0077529094189 
0.0076711636438 0.007589888418 0.0075091103391 0.0074288389126 0.011612188219 0.011545003077 0.011476489335 0.01140665523 0.011335583723 
0.011263274593 0.011189780027 0.011115095174 0.011039304082 0.010962408992 0.01088448563 0.010805532683 0.010725627663 0.010644806385 
0.010563090739 0.010480569393 0.010397289417 0.010313295783 0.010228610482 0.010143320959 0.010057516477 0.0099711610537 0.0098843491536 
0.009797132471 0.0097095691522 0.0096217379653 0.0095336067652 0.0094453432456 0.0093569348232 0.0092684594204 0.0091799541908 0.0090914885473 
0.0090031051337 0.0089148174916 0.0088267097265 0.0087387836915 0.0086510752591 0.0085636189876 0.0084764419512 0.0083895648581 0.0083030180449 
0.0082167946713 0.008130932939 0.0080454678996 0.0079604117266 0.0078757599472 0.007791588156 0.0077079081831 0.0076247408678 0.0075421303163 
0.0118636245 0.011793876959 0.011722858802 0.011650512288 0.011576868179 0.011501942259 0.01142578156 0.011348433591 0.011269904865 
0.0111902889 0.011109603664 0.011027894836 0.010945220201 0.010861612703 0.010777135712 0.01069181958 0.01060571912 0.010518908272 
0.010431433933 0.010343329811 0.010254656985 0.010165487298 0.010075913947 0.009985887729 0.0098955182526 0.0098048623612 0.0097139740021 
0.0096228626029 0.0095316471481 0.0094403664134 0.0093490831143 0.009257804592 0.009166610843 0.0090755512736 0.008984605516 0.0088939009196 
0.0088034072082 0.0087131777844 0.0086232255108 0.0085336002169 0.0084443191475 0.0083554039858 0.0082668819172 0.0081787571752 0.0080910912027 
0.0080038762673 0.0079171400683 0.0078309351673 0.0077452788954 0.0076602055249 0.01212756607 0.012055323351 0.011981598348 0.01190658288 
0.011830200791 0.011752524192 0.011673569121 0.011593393429 0.011511950213 0.011429446396 0.011345857323 0.011261230715 0.011175590829 
0.011089053811 0.011001602374 0.010913328878 0.010824269948 0.010734472276 0.010644010527 0.010552938146 0.010461286502 0.010369124765 
0.010276514214 0.01018351217 0.010090178747 0.0099965886138 0.0099027217297 0.0098086796367 0.0097144592047 0.0096202023371 0.009525931018 
0.0094316877656 0.0093375251086 0.009243494904 0.0091496348829 0.0090559407004 0.0089625309145 0.0088693815108 0.0087765465468 0.0086840325576 
0.0085918884448 0.0085001270518 0.0084087963301 0.0083179127303 0.0082274953276 0.0081375660565 0.0080481684114 0.0079593093826 0.0078710506361 
0.0077833955286 0.01240477278 0.012329796695 0.012253344887 0.012175404876 0.012096160663 0.012015563498 0.01193365638 0.01185047142 
0.011766102908 0.011680568061 0.011593923642 0.011506210268 0.011417492965 0.011327721199 0.011237160574 0.011145698637 0.011053491417 
0.010960547053 0.010866913362 0.010772666735 0.010677863961 0.010582555094 0.010486783107 0.010390611867 0.01029409552 0.010197303648 
0.010100294173 0.010003128728 0.0099058070149 0.0098084153884 0.0097109585447 0.0096135797521 0.0095162673742 0.0094191034174 0.0093221062624 
0.0092253542662 0.0091288217486 0.0090325810626 0.0089366931337 0.0088411696489 0.0087460160237 0.0086512871687 0.008557015576 0.0084632014568 
0.0083699119313 0.0082771545411 0.0081849374178 0.0080933185055 0.008002317016 0.0079119586451 0.012695951751 0.012618055474 0.012538672744 
0.01245779894 0.012375510705 0.012291766214 0.01220672255 0.012120401717 0.012032832215 0.011944089974 0.011854197242 0.01176322349 
0.011671214175 0.011578243126 0.011484359946 0.011389602586 0.011293960595 0.011197630988 0.011100645257 0.011003033633 0.010904871361 
0.010806193394 0.010707074287 0.010607550805 0.010507675055 0.010407529474 0.010307144526 0.010206616214 0.010105972418 0.010005284237 
0.0099045558774 0.0098038084143 0.0097031689361 0.0096026998574 0.009502414312 0.0094023600266 0.0093025993264 0.0092031201178 0.0091040092122 
0.0090053046035 0.0089069946207 0.0088091459853 0.0087117754151 0.0086149079202 0.0085185860739 0.0084228377469 0.0083276977945 0.0082331675965 
0.0081392843455 0.0080460949883 0.013001745458 0.012920788511 0.01283827164 0.012754230756 0.012668713003 0.012581787204 0.01249342244 
0.012403756354 0.012312808207 0.012220648636 0.012127340589 0.012032904079 0.01193741892 0.011840948591 0.011743550927 0.011645264364 
0.011546182297 0.01144634543 0.011345823218 0.011244512847 0.011142769986 0.011040530843 0.010937839925 0.010834761244 0.010731341687 
0.010627626488 0.010523705343 0.010419621107 0.01031541114 0.010211173134 0.010106923488 0.010002747569 0.0098985868401 0.0097945984391 
0.0096908488897 0.0095873421151 0.0094841300043 0.0093812667987 0.0092787606206 0.0091766757978 0.0090750707602 0.0089739300635 0.0088733108782 
0.0087732332327 0.0086737422109 0.0085748688251 0.0084766260097 0.0083790544955 0.0082821753091 0.0081860255926 0.013322779714 0.013238584351 
0.013152797591 0.013065402072 0.012976498756 0.012886114713 0.012794305536 0.012701084377 0.012606596596 0.012510857583 0.012413877791 
0.012315799541 0.012216651676 0.012116469555 0.012015348747 0.011913326521 0.01181049277 0.011706904303 0.011602614087 0.011497678185 
0.01139216878 0.011286139935 0.011179517677 0.011072659151 0.010965478817 0.010858001166 0.010750306355 0.010642464581 0.010534526095 
0.010426534168 0.010318532954 0.01021062579 0.010102817517 0.0099951282449 0.0098876891316 0.009780533298 0.009673701365 0.0095672405006 
0.0094612065287 0.0093555864353 0.0092504686339 0.0091459099419 0.0090418784108 0.0089384290225 0.00883560585 0.008733429178 0.0086319524433 
0.0085311866516 0.0084311676529 0.0083318997094 0.013659854319 0.013572223902 0.013482928103 0.013391995849 0.013299541448 0.013205514971 
0.013110024558 0.01301312659 0.01291482646 0.012815231346 0.012714434322 0.01261247722 0.012509420187 0.012405337785 0.012300264487 
0.01219429556 0.012087490436 0.011979906873 0.011871632295 0.011762706804 0.011653203298 0.011543149484 0.011432676653 0.011321767459 
0.011210470963 0.011099029565 0.010987358396 0.010875522072 0.010763600006 0.010651642345 0.010539706569 0.010427849796 0.010316122393 
0.010204581919 0.010093247612 0.009982240588 0.0098715966099 0.0097613558085 0.0096515606905 0.009542256694 0.0094334699908 0.0093252530431 
0.0092176596195 0.0091106835489 0.0090043558033 0.0088987361962 0.0087938521855 0.0086897222786 0.0085864164999 0.0084838902356 0.014013527212 
0.01392228123 0.013829301539 0.013734620696 0.013638335228 0.013540477087 0.013441095451 0.013340317419 0.013238077306 0.013134464032 
0.013029621667 0.012923563956 0.012816343289 0.012708117874 0.012598893375 0.012488723358 0.012377712836 0.012265918755 0.012153400985 
0.012040260198 0.01192652142 0.011812261345 0.011697542176 0.01158245181 0.011466973139 0.011351237065 0.011235250475 0.011119205945 
0.011003066508 0.01088690121 0.010770786653 0.010654774123 0.010538919052 0.010423281487 0.010307882771 0.010192776173 0.010078125929 
0.0099639070896 0.0098501673639 0.0097369692184 0.0096243315935 0.0095122970128 0.0094009255852 0.0092902369985 0.0091802411859 0.0090710026307 
0.0089625520815 0.0088549032571 0.0087481123376 0.0086421932128 0.01438468483 0.014289609115 0.014192678227 0.014094048102 0.013993758295 
0.013891818819 0.013788322731 0.013683323629 0.013576874989 0.013469033621 0.013359917286 0.013249547597 0.013137991854 0.013025349984 
0.01291170689 0.012797098295 0.012681638966 0.012565381169 0.012448401697 0.012330766077 0.012212575062 0.012093839007 0.011974640719 
0.011855049961 0.011735141267 0.011614963827 0.011494592589 0.011374037328 0.011253348576 0.011132747262 0.01101221296 0.010891795572 
0.010771526316 0.010651534618 0.010531847883 0.010412534381 0.010293575209 0.010175166768 0.010057282786 0.0099399685863 0.009823289547 
0.0097072546811 0.0095918995146 0.0094773170601 0.0093634744512 0.0092504368678 0.0091382314151 0.0090269009159 0.0089164683472 0.008806986083 
0.014774025234 0.014674894863 0.014573903216 0.014471077283 0.01436655147 0.014260320271 0.014152451175 0.014043024869 0.013932115002 
0.013819787363 0.013706088794 0.013591154065 0.013474988693 0.013357705534 0.013239347015 0.013120043455 0.012999827342 0.012878879045 
0.012757182667 0.012634810905 0.01251186032 0.012388400318 0.01226446801 0.012140140545 0.012015469202 0.011890549943 0.011765443422 
0.011640218024 0.011514870043 0.01138957543 0.011264274945 0.011139212537 0.011014368161 0.010889799912 0.010765559432 0.010641742601 
0.010518381121 0.010395487417 0.010273180016 0.010151572153 0.01003061114 0.009910373535 0.0097908735905 0.0096721484809 0.0095542862786 
0.0094372583269 0.0093211287352 0.0092059270742 0.009091680877 0.0089784342351 0.015182686326 0.015079106849 0.014973762669 0.014866538332 
0.014757518785 0.014646700565 0.014534240396 0.014420160459 0.014304533913 0.014187391198 0.014068896842 0.01394899138 0.013827993283 
0.013705776525 0.013582483438 0.013458197125 0.013333050974 0.013207068678 0.013080357779 0.0129529823 0.012825015327 0.012696528943 
0.012567585044 0.012438251223 0.012308564542 0.012178638875 0.012048517212 0.011918275494 0.011787996104 0.011657728634 0.011527529851 
0.011397538886 0.011267735505 0.011138330282 0.011009305088 0.010880727024 0.010752684817 0.010625217175 0.010498262948 0.010372086174 
0.010246655444 0.01012197226 0.0099981108395 0.009875045134 0.0097529254843 0.0096317231619 0.0095114673442 0.0093922112273 0.0092739737342 
0.009156800438 0.01561131212 0.015503294065 0.015393319079 0.015281397761 0.015167610981 0.01505199767 0.014934477277 0.014815457798 
0.014694823322 0.014572666139 0.01444905255 0.014324043861 0.014197733453 0.014070291444 0.013941820309 0.013812282043 0.013681823255 
0.013550548906 0.013418529179 0.013285825882 0.013152578557 0.013018790196 0.012884546784 0.012749918056 0.012614950736 0.01247969976 
0.012344274638 0.012208745425 0.012073174687 0.011937678192 0.011802288773 0.01166707698 0.011532190137 0.011397594248 0.011263512256 
0.011129922954 0.010996920981 0.01086454507 0.010732863268 0.010601815484 0.010471637849 0.010342323978 0.010213851388 0.010086308182 
0.0099596905713 0.0098340873579 0.0097095116089 0.0095859959948 0.0094635543515 0.0093422707267 0.016060996985 0.015948155016 0.015833238283 
0.015716344643 0.015597509809 0.015476793176 0.015354264244 0.015230005026 0.015103998104 0.014976471842 0.014847340194 0.014716900426 
0.014585135335 0.014452087323 0.014317992577 0.014182951354 0.014046905353 0.013909996112 0.013772368384 0.013634086024 0.013495180253 
0.013355819728 0.013215964006 0.0130757246 0.012935144512 0.012794293196 0.012653268154 0.012512140051 0.012370966274 0.012229908097 
0.012089015381 0.011948353163 0.011807993234 0.011668075418 0.011528648876 0.011389706477 0.011251489845 0.011113955592 0.010977173294 
0.01084119319 0.010705951569 0.0105717035 0.010438406572 0.010306111721 0.010174808343 0.010044559598 0.0099154686186 0.0097874757449 
0.0096606696264 0.0095350755844 0.016532729226 0.016414832011 0.01629477337 0.016172570106 0.016048352893 0.01592221156 0.015794192085 
0.015664360751 0.015532793997 0.015399502958 0.015264716144 0.015128492396 0.014990838682 0.014851986791 0.014711880762 0.014570806466 
0.014428826174 0.01428612178 0.014142531261 0.01399832065 0.013853490596 0.013708121473 0.013562334886 0.013416185304 0.013269702835 
0.013122935453 0.012975969641 0.01282892751 0.012681890465 0.01253494745 0.01238822048 0.012241765411 0.01209569588 0.011950059975 
0.011804964271 0.011660528489 0.011516739108 0.011373779416 0.011231630459 0.011090344827 0.010949986847 0.010810480663 0.010672088021 
0.010534760011 0.010398566212 0.010263476916 0.010129582005 0.0099969239314 0.0098654958892 0.009735368133 0.017027271286 0.01690397192 
0.016778435158 0.016650872591 0.016520983221 0.016389086918 0.016255231746 0.016119461428 0.015981917467 0.01584269456 0.015701759853 
0.015559365095 0.015415573264 0.015270495999 0.015124257459 0.01497685812 0.014828517029 0.014679346885 0.014529597664 0.014379093577 
0.014228015623 0.014076421465 0.013924319678 0.013771847631 0.013619098956 0.013466076714 0.013312869935 0.013159565291 0.013006297079 
0.012853162497 0.012700257582 0.012547703475 0.012395570602 0.012243965764 0.01209297499 0.011942641938 0.011793084746 0.011644402153 
0.011496556625 0.011349697952 0.011203844823 0.011058934648 0.010915187257 0.010772588137 0.010631179893 0.0104910172 0.010352094337 
0.01021452788 0.010078272575 0.0099434082299 0.01754595442 0.017416954133 0.017285577551 0.017151930854 0.017016049909 0.016878065551 
0.016738031978 0.01659618745 0.016452314421 0.016306651929 0.016159309489 0.016010329983 0.015859960495 0.01570829142 0.015555432003 
0.01540140972 0.015246495135 0.015090735514 0.014934235694 0.014777091821 0.014619393085 0.014461110169 0.014302399307 0.014143316753 
0.013983870239 0.013824243573 0.013664426397 0.013504531123 0.013344678208 0.013184993858 0.013025582243 0.012866555526 0.012708049095 
0.012550122907 0.01239287847 0.012236406848 0.012080752417 0.011926052989 0.011772317133 0.011619518793 0.011467876348 0.011317363741 
0.01116792168 0.01101978649 0.010872932659 0.010727393704 0.010583237715 0.010440473857 0.010299177151 0.010159338903 0.018089452436 
0.017954442752 0.01781695338 0.01767703735 0.017534813992 0.01739032144 0.017243729322 0.017095101971 0.016944509861 0.016792076944 
0.016638046433 0.016482240635 0.016324921512 0.016166154129 0.016006252322 0.015845284128 0.015683278068 0.015520488974 0.015356963804 
0.015192786521 0.015028023216 0.014862846791 0.014697094906 0.014530933879 0.014364491775 0.014197803108 0.014031014211 0.013864173214 
0.013697372574 0.013530784748 0.013364513496 0.013198685981 0.013033445901 0.012868860989 0.012705034316 0.012542070828 0.012380033813 
0.012218963135 0.012058982558 0.011900105627 0.011742334934 0.011585792795 0.011430540596 0.011276513923 0.011123945575 0.010972778801 
0.010823097421 0.010674921706 0.010528301928 0.010383283694 0.018658344866 0.018516954269 0.01837295863 0.018226433485 0.018077475518 
0.017926172972 0.017772621816 0.017616954602 0.017459264735 0.017299793007 0.017138362437 0.016975225151 0.016810561144 0.016644615883 
0.016477208281 0.016308770628 0.016139382173 0.015969061384 0.015798103528 0.015626508594 0.01545433557 0.015281620395 0.015108589483 
0.014935102128 0.01476129797 0.014587229047 0.014413016744 0.014238818999 0.014064743625 0.013890838905 0.013717260968 0.013544271431 
0.013371922424 0.013200341046 0.01302960143 0.012859799815 0.012691022744 0.012523331708 0.012356768666 0.012191420196 0.012027315052 
0.011864475529 0.011703017998 0.011542930673 0.011384276099 0.01122720456 0.011071746325 0.01091790295 0.010765723957 0.010615257833 
0.019253348665 0.019105191012 0.018954298902 0.018800818748 0.01864474065 0.018486232683 0.018325370926 0.018162287731 0.017997086996 
0.017829873316 0.017660787739 0.017489985956 0.017317534673 0.017143661513 0.016968483987 0.016792162288 0.016614908931 0.016436736249 
0.016257895305 0.016078524931 0.015898514731 0.015717995923 0.015536992377 0.015355773413 0.015174152082 0.014992387633 0.014810442376 
0.014628447207 0.014446637365 0.014265128003 0.014084003495 0.013903460398 0.01372368438 0.013544742093 0.013366633966 0.013189647726 
0.01301379516 0.01283912907 0.01266569772 0.012493535117 0.012322744875 0.01215334651 0.011985365134 0.011818921135 0.01165403766 
0.011490677695 0.011329136504 0.011169347581 0.011011363501 0.010855194836 0.019874492326 0.019719289915 0.019561160358 0.019400312212 
0.019236796141 0.019070663242 0.018902076312 0.018731147153 0.018557995427 0.018382788067 0.018205626658 0.018026637351 0.017845995305 
0.017663864897 0.017480392768 0.017295790543 0.017110105768 0.016923800863 0.016736566189 0.016548784204 0.016360486151 0.016171715893 
0.01598250697 0.015792949406 0.015603218009 0.015413188555 0.015223074966 0.015033025354 0.014843094237 0.014653519008 0.014464433731 
0.014275995639 0.01408837179 0.013901650782 0.013716017053 0.013531515963 0.013348239509 0.013166255081 0.012985499638 0.012806251027 
0.012628424122 0.012452112586 0.012277357392 0.012104195794 0.011932734116 0.011762956763 0.011595057955 0.011429028618 0.011264937397 
0.011102815465 0.020521381387 0.020358861257 0.020193098362 0.020024531476 0.01985312651 0.019679020664 0.019502316827 0.019323155667 
0.019141713299 0.018958074578 0.018772398532 0.018584853382 0.01839557695 0.018204761123 0.018012595769 0.017819251102 0.017624935109 