# vtk DataFile Version 5.1
vtk output
ASCII
DATASET STRUCTURED_POINTS
DIMENSIONS 50 50 50
SPACING 0.002 0.002 0.002
ORIGIN 0.1742 -0.052672 0.02732
POINT_DATA 125000
FIELD FieldData 1
potential 1 125000 double
0.004934729018 0.0049658762375 0.0049966506236 0.0050270916424 0.0050571603417 0.0050868402479 0.0051161111174 0.005144961146 0.0051733631448 
0.0052013077571 0.0052287812199 0.0052557508147 0.0052822190082 0.0053081564631 0.0053335612703 0.005358416435 0.0053826891121 0.0054063981942 
0.005429502455 0.00545197742 0.0054738028328 0.005494927298 0.0055153264799 0.0055349951016 0.0055538934526 0.0055720197044 0.0055893838577 
0.0056059720601 0.005621795231 0.0056368851679 0.005651255716 0.0056649240436 0.0056778955873 0.0056901719699 0.0057017534795 0.0057126290204 
0.0057227795497 0.0057321816067 0.00574081376 0.0057486610111 0.0057557033053 0.0057619268647 0.0057673266175 0.0057719266101 0.0057757227929 
0.0057787288193 0.0057809584404 0.0057823830295 0.0057830959373 0.0057830422441 0.0050369868829 0.0050692710135 0.0051012011787 0.0051327644785 
0.0051639465624 0.0051947302815 0.0052250906246 0.005255026762 0.0052844969376 0.0053135026343 0.0053419947269 0.0053699671698 0.0053974140486 
0.0054243159436 0.0054506500137 0.0054764193497 0.0055015968511 0.005526161555 0.0055500933796 0.0055733693603 0.0055959552673 0.0056178235915 
0.0056389399196 0.0056592943332 0.0056788825714 0.0056976663741 0.0057156488484 0.0057328438796 0.0057492601221 0.0057649274463 0.005779841385 
0.0057940396334 0.0058075178785 0.0058202841833 0.0058323262278 0.0058436395039 0.0058542023304 0.0058639968736 0.0058729897006 0.0058811636199 
0.0058885086712 0.0058950079684 0.0059006284264 0.005905437019 0.0059094145466 0.0059125681636 0.005914918782 0.0059164651302 0.0059172156805 
0.0059171819584 0.0051391922744 0.0051726567426 0.0052057551007 0.0052384803503 0.005270813699 0.0053027449986 0.0053342409448 0.0053652976545 
0.0053958697128 0.00542595087 0.0054555087966 0.0054845208457 0.0055129912186 0.005540884177 0.0055682004644 0.0055949163302 0.0056210094594 
0.0056464595632 0.0056712496462 0.0056953511889 0.0057187383057 0.0057413795962 0.0057632508895 0.0057843230676 0.005804595011 0.0058240495073 
0.0058426747093 0.0058605093506 0.0058775574353 0.0058938227963 0.0059093259177 0.0059240783676 0.0059380900563 0.0059513657973 0.0059638917998 
0.0059756638966 0.0059866601122 0.0059968516473 0.0060062303452 0.0060147279547 0.0060223992763 0.0060291953803 0.0060351195842 0.0060401646931 
0.0060443410031 0.0060476664504 0.0060501370014 0.0060517762497 0.0060525825939 0.0060525633954 0.0052409057821 0.0052755759285 0.0053098804467 
0.0053438109376 0.0053773365136 0.0054104560711 0.0054431192311 0.0054753169987 0.0055070299022 0.0055382194187 0.0055688920512 0.005598993991 
0.005628522614 0.0056574567521 0.0056857791954 0.0057134734389 0.0057405098425 0.0057668788746 0.0057925530677 0.005817501315 0.0058417227312 
0.0058651596075 0.0058877968259 0.005909605564 0.0059306014932 0.0059507662668 0.0059700975212 0.0059885977483 0.0060062879084 0.0060231767325 
0.0060392792815 0.006054622696 0.006069198295 0.0060830059453 0.0060960451736 0.0061082924403 0.0061197221294 0.0061303501485 0.0061401311875 
0.0061490398807 0.0061570572305 0.0061641728431 0.0061703753908 0.0061756721296 0.0061800628448 0.0061835564434 0.0061861766385 0.0061879061499 
0.0061887770733 0.0061887859059 0.005341842827 0.0053777595405 0.0054133041875 0.0054484733126 0.0054832194376 0.0055175402931 0.0055514091231 
0.0055847885495 0.0056176759761 0.0056500345951 0.0056818310008 0.0057130523085 0.0057436744767 0.0057736767792 0.0058030401052 0.0058317424347 
0.005859762226 0.0058870894501 0.005913686689 0.0059395225254 0.0059645916237 0.0059888353946 0.0060122785961 0.0060348807143 0.0060566357988 
0.0060775382241 0.0060975859951 0.006116785331 0.0061351538106 0.0061527031107 0.0061694464206 0.0061853937223 0.0062005507503 0.0062149000583 
0.0062284786718 0.0062412372691 0.0062531712132 0.0062642593105 0.006274463698 0.0062837689912 0.0062921538834 0.0062996029875 0.0063061165585 
0.0063116737644 0.0063162847083 0.0063199639299 0.0063227119663 0.0063245564983 0.0063254901178 0.0063255161312 0.0054418381793 0.0054790183445 
0.0055158454312 0.0055522625552 0.0055882683316 0.0056238247322 0.0056589290552 0.0056935433531 0.0057276414655 0.005761198219 0.0057941719177 
0.0058265468534 0.0058582956976 0.0058893972185 0.0059198334817 0.0059495824795 0.0059786187568 0.006006926965 0.0060344712849 0.0060612169801 
0.0060871719354 0.0061122949683 0.00613658826 0.0061600130124 0.0061825647616 0.0062042384519 0.0062250375777 0.0062449733206 0.0062640543632 
0.0062822918908 0.0062996843683 0.0063162704748 0.0063320414583 0.0063470033993 0.0063611358792 0.0063744242561 0.0063868676126 0.0063984274793 
0.0064090849489 0.0064188112068 0.0064275808639 0.0064354019438 0.0064422161948 0.0064480396515 0.0064528781026 0.0064567450642 0.0064596403067 
0.0064615764997 0.006462563037 0.0064626067431 0.0055408898286 0.00557937318 0.0056174812904 0.0056551872272 0.0056924838176 0.0057293329234 
0.005765713099 0.0058015894472 0.0058369295377 0.0058717068952 0.0059058845192 0.0059394474146 0.0059723595467 0.0060046057532 0.0060361637237 
0.0060670004347 0.0060970864099 0.006126390938 0.00615492321 0.0061826502314 0.0062095427083 0.006235575857 0.0062607390373 0.0062850198534 
0.0063084097489 0.0063309063542 0.0063524990661 0.0063732060814 0.0063930240597 0.0064119808244 0.0064300875421 0.0064473542069 0.0064637749224 
0.0064793502687 0.0064940644302 0.0065079255722 0.006520891069 0.0065329637751 0.0065440781236 0.0065542389932 0.0065634152727 0.0065715832897 
0.0065787151648 0.0065848197058 0.0065898999769 0.0065939583 0.0065970015868 0.0065990187529 0.0066000596949 0.0066001070847 0.0056391662368 
0.0056789830633 0.005718412382 0.0057574569138 0.0057960810186 0.0058342448178 0.0058719281149 0.0059091020152 0.0059457202959 0.0059817607415 
0.0060171743302 0.006051956281 0.0060860746242 0.0061195072689 0.0061522082614 0.0061841447785 0.0062153193303 0.0062457141125 0.0062752879967 
0.0063040218059 0.0063318917069 0.0063588814436 0.0063849839968 0.006410166723 0.0064344416498 0.0064577902805 0.0064802140203 0.0065017281671 
0.0065223557995 0.0065420841413 0.0065609320991 0.0065789034939 0.0065960026334 0.0066122243019 0.0066275840786 0.006642024984 0.0066555409216 
0.0066681172808 0.0066797221893 0.0066903256614 0.0066999020657 0.0067084354486 0.0067158968477 0.0067222752798 0.0067275988635 0.0067318526011 
0.0067350327017 0.0067371628892 0.0067382560302 0.0067383099723 0.0057369826474 0.0057781657479 0.0058189718413 0.0058593787462 0.0058993573173 
0.0059388753762 0.0059779046644 0.0060164055909 0.0060543448143 0.0060916850422 0.0061284003712 0.0061644522105 0.0061998208502 0.0062344477793 
0.006268337178 0.0063014581101 0.0063337799323 0.0063652842388 0.0063959437398 0.0064257438054 0.0064546492277 0.0064826390147 0.0065097246377 
0.0065358755644 0.0065610770194 0.0065853435031 0.0066086664163 0.0066310453668 0.0066524975505 0.0066730329162 0.0066926596685 0.0067113857952 
0.006729197107 0.0067461046245 0.006762096146 0.0067771499375 0.0067912439553 0.0068043574544 0.0068164714032 0.0068275188152 0.0068375192961 
0.0068464228428 0.0068542213286 0.0068609008945 0.0068664582149 0.0068708961778 0.0068742366718 0.0068764575117 0.0068775852545 0.0068776227838 
0.0058348733223 0.0058774576937 0.0059196679372 0.0059614747503 0.006002848924 0.0060437616239 0.0060841753753 0.0061240430984 0.0061633424364 
0.0062020272221 0.0062400820126 0.0062774408761 0.0063140761589 0.0063499771079 0.0063851049161 0.0064194406706 0.0064529605194 0.0064856547101 
0.0065174609296 0.0065483757612 0.0065783792462 0.0066074671905 0.0066356066116 0.0066627823814 0.0066889814409 0.0067142127832 0.0067384755986 
0.0067617533578 0.0067840985752 0.0068054721974 0.0068259205236 0.0068454315831 0.0068639986671 0.0068816343393 0.0068982991882 0.0069139904007 
0.0069286700075 0.0069423396157 0.0069549611667 0.0069664927382 0.0069769215411 0.0069862106465 0.0069943502326 0.00700141261 0.0070072098283 
0.0070118390573 0.0070153017781 0.0070176068748 0.0070187727062 0.0070188027574 0.0059334130953 0.0059774424631 0.0060211025947 0.0060643563138 
0.0061071733535 0.006149520394 0.0061913548565 0.0062326438541 0.0062733483345 0.0063134353409 0.006352855798 0.00639156396 0.0064295525566 
0.0064667781894 0.0065032161267 0.0065388329776 0.0065736090542 0.0066075147406 0.006640524745 0.0066726232472 0.0067038044111 0.0067340145364 
0.0067632591786 0.0067915022034 0.0068187707068 0.0068450340163 0.0068703075064 0.0068945970751 0.0069178847419 0.0069401938796 0.0069615162606 
0.0069818630179 0.0070012298318 0.0070196038413 0.0070369664562 0.0070533283255 0.0070687095036 0.0070829533367 0.0070960978365 0.0071081193533 
0.007118984682 0.007128661002 0.0071371418649 0.007144401714 0.0071504350297 0.0071552349949 0.0071588281195 0.0071612105557 0.0071624049663 
0.0071623984128 0.00603331606 0.0060788455099 0.0061240012693 0.0061687443061 0.0062130513124 0.0062568841742 0.0063002109542 0.0063429710015 
0.0063851205617 0.0064266266704 0.006467463012 0.0065075954795 0.0065469777542 0.0065855869767 0.0066233822842 0.006660357989 0.0066964398164 
0.0067316469623 0.0067659608974 0.0067993081638 0.0068316794648 0.0068630978117 0.0068935256694 0.0069229486689 0.0069513521987 0.0069787503281 
0.0070050935909 0.0070304138891 0.0070547053517 0.0070779766031 0.0071002258166 0.0071215463261 0.0071417368605 0.0071609022223 0.0071790223526 
0.0071960777295 0.0072120387375 0.007226882228 0.0072405749247 0.0072530915073 0.007264387725 0.0072744676979 0.0072832817096 0.0072908293841 
0.0072970918756 0.0073020809373 0.0073057930844 0.0073082432426 0.0073094568459 0.0073094173744 0.006135308895 0.0061823929861 0.0062290966988 
0.0062754090274 0.0063212541917 0.0063666266841 0.0064114864913 0.0064557658369 0.00649942981 0.0065424428424 0.0065847684178 0.0066263600584 
0.0066672086303 0.0067072654459 0.0067464885581 0.0067848610435 0.0068223749378 0.0068589167478 0.0068945606393 0.0069292502204 0.0069629605638 
0.0069956749907 0.0070273623232 0.0070580378802 0.0070876485494 0.0071161996081 0.0071437741583 0.0071702055477 0.0071955693793 0.007219868352 
0.0072430894503 0.00726525608 0.0072863401278 0.0073063368323 0.0073252459816 0.0073430238637 0.0073596527761 0.0073751128896 0.0073893771569 
0.0074024101791 0.0074141682824 0.0074246440944 0.0074338042022 0.0074416364925 0.0074481334311 0.0074533064664 0.0074571484362 0.0074596868034 
0.0074609016187 0.0074608081195 0.0062401794871 0.0062888812034 0.006337203552 0.0063851132762 0.0064325743313 0.0064795542037 0.0065259883005 
0.0065718504832 0.0066170740689 0.0066616596489 0.0067055494293 0.0067487028689 0.0067910817888 0.0068326552664 0.0068733918331 0.0069132387029 
0.0069521970321 0.0069902282283 0.0070273046481 0.0070634066794 0.0070985068218 0.0071326729544 0.0071657054543 0.0071976805835 0.0072285784348 
0.0072583789076 0.0072870899864 0.0073146959063 0.0073411699935 0.0073665631619 0.007390849597 0.0074140009351 0.0074360165707 0.0074568982596 
0.0074766163826 0.0074951561514 0.0075124927707 0.0075285982962 0.0075434443072 0.0075569952185 0.00756922983 0.0075801218971 0.0075896492891 
0.0075977825086 0.0076045299551 0.0076098850123 0.0076138663422 0.007616396444 0.0076176084489 0.0076174691328 0.0063486028033 0.0063989886202 
0.0064489946672 0.0064985931474 0.0065477455989 0.0065963591692 0.0066444577321 0.0066919893111 0.0067388887865 0.0067851194012 0.0068306408857 
0.0068754141014 0.0069194156473 0.0069625750801 0.0070048868063 0.0070463161023 0.00708682631 0.0071264681703 0.0071650673386 0.0072026792837 
0.0072392488444 0.0072747774856 0.0073092422495 0.0073425928236 0.0073748617275 0.00740599934 0.0074359944513 0.0074648434564 0.0074925373182 
0.0075190805784 0.0075444546608 0.0075686544319 0.0075916560323 0.0076134588985 0.007634030143 0.0076533513456 0.0076714151761 0.007688198001 
0.0077036559777 0.007717763739 0.0077304969102 0.00774181788 0.0077517132227 0.0077601133617 0.0077671191455 0.0077726780447 0.0077767831279 
0.0077794476598 0.00778067801 0.0077804640669 0.0064612619954 0.006513411725 0.0065651644567 0.0066165342525 0.0066674271638 0.006717827859 
0.0067676736225 0.0068169404144 0.0068655720036 0.0069135289619 0.0069607724057 0.0070072257874 0.007052945967 0.0070978659508 0.0071418570113 
0.0071849491849 0.0072271089173 0.0072683071473 0.0073085207404 0.00734768017 0.0073858257962 0.0074228923846 0.0074588506502 0.0074936871042 
0.007527384082 0.0075599260448 0.0075912870594 0.0076214582221 0.0076504206802 0.0076781612191 0.0077046881547 0.0077299769324 0.00775402906 
0.0077767909159 0.0077982835986 0.0078184489707 0.0078372996462 0.0078547855376 0.0078708970309 0.0078855339583 0.0078987732258 0.0079105597308 
0.0079208290891 0.0079296087737 0.0079368805859 0.0079426452318 0.0079468925819 0.0079496302638 0.0079508684124 0.0079506064005 0.0065787250374 
0.0066327284843 0.0066863696359 0.0067395726644 0.0067923091925 0.006844552003 0.0068962499363 0.0069473479123 0.0069978076241 0.0070476170169 
0.0070966949006 0.0071449771139 0.0071924540099 0.0072390843145 0.0072848340004 0.0073296694442 0.0073735718579 0.0074164940777 0.007458393632 
0.0074992497647 0.0075390324697 0.0075777122592 0.0076152676613 0.0076516625162 0.0076868810228 0.0077208974662 0.0077536955091 0.0077852538237 
0.0078155672333 0.0078445819926 0.0078723241616 0.0078987579545 0.0079238804136 0.0079476782317 0.007970138429 0.0079912057853 0.0080108343094 
0.0080290689777 0.008045834248 0.0080611317661 0.0080749122271 0.0080871591605 0.0080978642639 0.0081069917291 0.0081145432846 0.0081205189519 
0.0081248974885 0.0081277175401 0.0081289674003 0.0081286264693 0.0067015613525 0.006757515689 0.0068130923085 0.0068682382417 0.0069229331733 
0.0069771151648 0.0070308049521 0.0070838011259 0.0071361898439 0.0071879122172 0.0072388712251 0.0072890477724 0.0073384141891 0.0073869159623 
0.0074345156783 0.0074812122576 0.0075269388235 0.0075716664643 0.0076153544392 0.0076579780575 0.007699509676 0.0077399018033 0.0077791326946 
0.0078171692423 0.0078539849029 0.0078895781264 0.0079238873387 0.0079569185449 0.0079886147715 0.0080189848168 0.0080480141086 0.0080757000991 
0.008101975506 0.0081268156672 0.008150267494 0.0081722735301 0.008192788304 0.0082118095498 0.0082292999894 0.0082452357502 0.0082596022723 
0.0082723547672 0.0082834847221 0.0082929885611 0.008300854708 0.0083070550526 0.0083116135368 0.0083145217378 0.0083157686734 0.0083153796443 
0.0068301653761 0.0068881656761 0.0069458393923 0.0070030604994 0.0070598123809 0.0071160493758 0.0071716932074 0.007226758196 0.00728120176 
0.0073349160947 0.0073878878854 0.0074400629026 0.0074914267772 0.0075419236105 0.0075915237627 0.0076401641004 0.0076878215343 0.0077344623496 
0.0077800467035 0.0078245283868 0.0078678878651 0.0079100777557 0.0079510861162 0.0079908481197 0.0080293510514 0.0080665651792 0.0081024732003 
0.0081370299175 0.0081702065266 0.0082019983668 0.0082323922388 0.0082613167404 0.0082888140217 0.0083148388681 0.0083393401168 0.0083623353499 
0.0083837728437 0.0084036288301 0.008421870669 0.0084385011223 0.0084534722732 0.0084667690588 0.0084783754749 0.0084882711719 0.0084964583672 
0.0085028873718 0.0085076089141 0.0085106069605 0.0085118555588 0.0085114096351 0.0069649738227 0.0070251473023 0.0070849550033 0.0071443417725 
0.0072032292597 0.0072616329133 0.0073195149679 0.0073767396915 0.0074332908516 0.0074891327918 0.0075442397009 0.0075985487149 0.0076520156761 
0.0077046246757 0.0077562923996 0.0078070017596 0.0078567080348 0.0079053690686 0.0079529440378 0.0079993987287 0.0080446877159 0.0080887741705 
0.0081316259288 0.0081732073688 0.008213485269 0.0082524532584 0.0082900129359 0.0083261776304 0.0083608891322 0.0083941668703 0.0084259646569 
0.0084562612142 0.0084850422785 0.0085122674467 0.0085379045038 0.0085619298587 0.008584349346 0.0086050922099 0.0086241659156 0.0086415186892 
0.0086571427422 0.00867100447 0.0086830906528 0.0086934138658 0.0087019409873 0.0087086424554 0.0087135523756 0.0087166499692 0.0087179572734 
0.0087174371391 0.007106210391 0.007168693944 0.0072308008474 0.0072924518204 0.0073536726874 0.007414410013 0.0074745330771 0.0075340210189 
0.0075928595724 0.0076509864458 0.0077083506555 0.0077649141808 0.0078206229351 0.0078754248811 0.0079293033263 0.0079821857073 0.0080340518663 
0.0080848418138 0.0081345236818 0.0081830480372 0.0082303872022 0.0082764767394 0.0083213085411 0.0083647929885 0.0084069327207 0.0084476764817 
0.0084869781433 0.0085248339618 0.0085612035354 0.0085960466543 0.0086293471719 0.0086610789333 0.0086911928884 0.0087196781613 0.0087464995195 
0.0087716475364 0.0087950809104 0.008816761915 0.0088366912716 0.0088548145082 0.0088711263181 0.0088856134179 0.0088982496794 0.0089090350017 
0.0089179325675 0.0089249471394 0.0089300545062 0.0089332793647 0.0089346005459 0.0089340197602 0.0072542694738 0.0073191418435 0.0073836780029 
0.0074477909939 0.0075114787597 0.0075745803746 0.0076371206188 0.0076990401715 0.0077602875578 0.007820814286 0.0078805732735 0.0079395106224 
0.0079975862594 0.0080547510724 0.0081109547507 0.0081661475636 0.0082202909873 0.0082733295286 0.0083252222115 0.0083759320503 0.0084254320216 
0.0084736289714 0.0085204951441 0.008566011164 0.0086100898115 0.0086527398449 0.0086938837642 0.0087335368613 0.0087716322888 0.0088081394092 
0.0088430161761 0.0088762368716 0.0089077632943 0.0089375859827 0.0089656662389 0.0089919863388 0.0090164845199 0.0090391866632 0.0090600247592 
0.0090790105939 0.0090960563019 0.0091112030818 0.0091244103784 0.0091356587589 0.0091449431038 0.0091522485061 0.009157595737 0.0091609358807 
0.0091622296726 0.0091615910349 0.0074093731062 0.0074768371696 0.0075439412517 0.0076106642346 0.0076768527981 0.0077425350062 0.0078076411622 
0.0078721188739 0.0079359121725 0.0079989825908 0.0080612776464 0.008122727926 0.0081832933553 0.0082429477723 0.0083016144694 0.0083592446942 
0.0084158046505 0.0084712327086 0.0085255079241 0.0085785061238 0.0086302441045 0.0086806655438 0.0087297198588 0.0087773323215 0.0088235010516 
0.0088681465784 0.0089112571518 0.008952778601 0.0089926670928 0.0090309011742 0.0090674405217 0.0091022451855 0.0091353128161 0.0091665266743 
0.009195947621 0.0092234959575 0.0092491726353 0.0092729167636 0.0092947118904 0.0093145516161 0.0093323548986 0.0093481960009 0.0093620077766 
0.0093737701055 0.0093834751649 0.0093911276124 0.009396681003 0.0094001526497 0.0094015278638 0.0094008913745 0.0075718521625 0.0076420229785 
0.0077118773527 0.0077812617118 0.0078501815002 0.0079185743091 0.0079863902812 0.0080535732796 0.0081200661503 0.0081858340613 0.0082507912623 
0.0083149223449 0.0083781474888 0.0084404166742 0.0085016935224 0.0085618983985 0.0086210081691 0.0086789794321 0.0087357154666 0.0087911730363 
0.0088453219586 0.0088980962825 0.0089493969932 0.0089992706169 0.0090476160348 0.0090943840621 0.0091395405696 0.009183042848 0.0092248892193 
0.0092649454613 0.0093032122611 0.0093396688658 0.0093742822568 0.009407026729 0.0094378323003 0.0094666351258 0.0094935079228 0.0095183852904 
0.0095412303796 0.0095620021799 0.0095806895864 0.0095972907105 0.0096117466935 0.00962404434 0.0096342046261 0.0096421768679 0.009648013768 
0.009651645894 0.0096530903603 0.009652327212 0.0077419908658 0.0078150648362 0.0078877412581 0.0079599958489 0.0080317887153 0.0081030452012 
0.0081737269129 0.0082437870307 0.0083131397205 0.0083817258678 0.0084495256532 0.0085164644374 0.0085824891313 0.0086475488979 0.0087115703392 
0.0087745329151 0.0088363433889 0.0088969517876 0.0089563256363 0.0090143735576 0.0090710628834 0.0091266960413 0.0091804601613 0.0092326824868 
0.009283312718 0.0093323687103 0.0093796978122 0.0094252792659 0.0094690737017 0.0095110501701 0.0095511692866 0.0095893847194 0.0096256062869 
0.009659903561 0.0096921972125 0.0097224336608 0.0097506056312 0.0097766763467 0.0098006137633 0.0098223630678 0.009841951662 0.0098593228638 
0.0098744659592 0.0098874082708 0.0098980038154 0.0099063530873 0.0099124203042 0.0099161974764 0.0099176931405 0.0099168650433 0.0079200541443 
0.0079961131135 0.0080718136187 0.0081470937378 0.0082219215292 0.0082962346364 0.0083699535798 0.00844304653 0.0085154199181 0.0085870397731 
0.0086578416306 0.0087277621523 0.0087971684744 0.0088651667202 0.008932134887 0.0089979692791 0.0090626304467 0.0091260813758 0.0091882176854 
0.0092490147084 0.0093083710263 0.0093662522546 0.0094225842088 0.009477377776 0.009530432041 0.0095818004459 0.0096313931731 0.0096791760652 
0.0097250933101 0.0097690357843 0.0098110969005 0.0098511765141 0.0098892156954 0.0099251807116 0.0099590268986 0.0099907320065 0.010020279637 
0.010047620681 0.010072714484 0.010095539148 0.010116074512 0.010134325672 0.010150202849 0.010163690536 0.010174813389 0.010183555133 
0.010189907568 0.010193839706 0.010195378701 0.010194499543 0.0081062900712 0.0081855365326 0.0082644389385 0.0083429322002 0.0084209832579 
0.0084989303682 0.0085758595061 0.0086521422404 0.0087277183559 0.0088025292524 0.008876506964 0.008949601517 0.0090217444921 0.0090928628881 
0.0091629067794 0.0092318216675 0.0092995172684 0.0093659430718 0.0094310394564 0.0094947272618 0.0095569909537 0.0096176592385 0.0096767209745 
0.0097341130405 0.0097897836226 0.0098436542848 0.0098956084708 0.009945708325 0.0099938479547 0.010040006486 0.010084132117 0.010126149459 
0.010166016135 0.010203744052 0.01023926726 0.010272547163 0.010303542908 0.010332222411 0.010358557496 0.01038254506 0.010404088296 
0.010423171496 0.010439800863 0.010453972027 0.010465641318 0.010474805793 0.010481438551 0.010485555104 0.010487142829 0.010486206739 
0.0083014979541 0.0083841199314 0.0084664164952 0.0085483158438 0.0086297484693 0.0087106570551 0.0087909790532 0.0088706588012 0.0089496174001 
0.0090278047106 0.009105155551 0.0091816080826 0.009257064139 0.0093314871391 0.0094048230348 0.0094769441264 0.0095478444531 0.0096174499787 
0.0096857366466 0.0097524934769 0.0098177271051 0.0098813611408 0.0099433169968 0.010003537528 0.010061867625 0.010118375444 0.010172950769 
0.010225529353 0.010276047068 0.010324487629 0.010370756955 0.010414859414 0.010456730592 0.010496333284 0.010533616526 0.01056855423 
0.01060108142 0.010631228385 0.010658848985 0.010683973823 0.010706587679 0.010726624839 0.010744090303 0.010758941233 0.010771192611 
0.010780786419 0.010787747325 0.01079204655 0.010793688295 0.010792685712 0.0085051807214 0.0085913826772 0.0086772515896 0.0087627171939 
0.0088477359985 0.0089322396185 0.009016154547 0.009099418632 0.0091819673222 0.0092636988861 0.0093446258041 0.009424600591 0.00950361272 
0.009581533481 0.0096583204457 0.0097339055649 0.0098082773906 0.0098812562164 0.0099527996056 0.010022822705 0.010091263216 0.010158047618 
0.010223013063 0.01028621704 0.010347501311 0.010406821992 0.010464103845 0.010519295092 0.01057232511 0.010623152804 0.010671732461 
0.010718023756 0.010761982984 0.010803566498 0.010842723712 0.010879411656 0.010913634353 0.010945266669 0.010974256431 0.011000669222 
0.011024414437 0.011045458703 0.011063789423 0.011079369679 0.011092218174 0.01110235455 0.011109646791 0.011114150108 0.011115861633 
0.011114785966 0.0087181598143 0.0088081014419 0.0088977339702 0.0089869815516 0.0090757923328 0.0091640711938 0.0092517913355 0.0093388532097 
0.0094252037516 0.0095107514979 0.0095954150511 0.0096791697402 0.0097618842748 0.0098435119664 0.0099240495342 0.010003298921 0.010081236373 
0.010157766064 0.010232818686 0.010306328794 0.010378128974 0.010448228711 0.010516528472 0.010582900403 0.010647270713 0.010709562966 
0.010769703476 0.010827673234 0.010883356672 0.010936747127 0.010987771447 0.011036393644 0.011082574905 0.011126248503 0.011167422154 
0.011205969247 0.011241891376 0.011275101395 0.011305622194 0.01133337424 0.011358313876 0.011380511249 0.011399768562 0.011416117248 
0.011429582216 0.011440148666 0.011447778782 0.011452488944 0.011454268848 0.011453136924 0.0089407543332 0.0090346668301 0.0091282681195 
0.009221515267 0.009314328846 0.0094066392793 0.0094983717377 0.0095894675242 0.0096798247871 0.0097693719185 0.0098580648939 0.0099457645574 
0.010032429816 0.010118047995 0.010202434379 0.010285561939 0.010367316375 0.01044764158 0.010526399155 0.010603580387 0.010679051388 
0.010752737142 0.010824483015 0.010894214877 0.010961840404 0.011027297856 0.011090527565 0.011151413171 0.0112098996 0.011266048155 
0.01131966331 0.011370759291 0.011419303988 0.011465215322 0.011508456356 0.011548937987 0.011586775171 0.011621719935 0.011653793071 
0.01168296566 0.01170917122 0.011732408642 0.011752642301 0.011769832584 0.011783960456 0.011795040073 0.011803079697 0.011808019004 
0.011809881778 0.011808696975 0.0091733692496 0.0092714806842 0.0093693106535 0.0094667787226 0.0095638289336 0.0096603856866 0.0097563761808 
0.0098517190312 0.0099463548408 0.010040122972 0.010132997619 0.010224964895 0.010315803126 0.010405539996 0.010494112241 0.010581323766 
0.010667171424 0.010751465919 0.010834228546 0.010915336739 0.010994676064 0.0110721008 0.01114752467 0.011220829138 0.011292035244 
0.011360870143 0.011427304725 0.011491307108 0.011552810884 0.011611764126 0.011668131528 0.011721868172 0.011772960709 0.011821208095 
0.011866637201 0.011909267263 0.011948986415 0.01198576263 0.012019514529 0.012050198643 0.012077774981 0.012102195947 0.012123440888 
0.012141521278 0.01215642515 0.01216806991 0.012176478654 0.012181645351 0.012183555702 0.012182204251 0.0094163522391 0.0095188902428 
0.0096211758685 0.0097231326111 0.0098246629436 0.0099257141706 0.010026203159 0.01012606296 0.0102251369 0.010323451634 0.010420859333 
0.010517218881 0.010612520769 0.010706657511 0.010799556578 0.010891098272 0.010981223022 0.011069809814 0.011156824929 0.011242102685 
0.011325524159 0.01140704924 0.011486377049 0.01156349998 0.01163831638 0.011710714767 0.011780603879 0.011847920182 0.011912604605 
0.011974704278 0.012033981099 0.012090490248 0.012144173746 0.012194937936 0.01224280539 0.012287669663 0.012329459723 0.012368168363 
0.012403708004 0.01243601889 0.012465058854 0.012490754586 0.0125131013 0.012532088577 0.012547715788 0.012559934731 0.012568744584 
0.012574161723 0.012576117996 0.012574702127 0.0096700417582 0.0097772753429 0.0098842633141 0.009990931131 0.01009719935 0.010203046429 
0.010308337894 0.010412915009 0.01051679092 0.01061979101 0.010721869767 0.010822964057 0.010922947913 0.011021804789 0.011119297277 
0.011215460041 0.011310168417 0.011403339973 0.011494943899 0.011584651 0.011672383045 0.011758077302 0.011841562874 0.011922734982 
0.012001469847 0.012077738011 0.012151291391 0.012222119589 0.012290207021 0.012355471449 0.012417863759 0.012477303438 0.012533812761 
0.012587307896 0.012637715968 0.012684999098 0.012729037282 0.012769821063 0.012807256355 0.012841230518 0.012871783545 0.012898856564 
0.01292236689 0.01294235716 0.012958769271 0.012971597351 0.012980812936 0.012986457236 0.012988529884 0.012987012862 0.0099347544665 
0.010046942206 0.010158963731 0.010270621702 0.010381889847 0.010492757696 0.010602993051 0.010712636109 0.010821476744 0.010929494309 
0.011036617169 0.011142688389 0.011247658084 0.011351379057 0.0114538214 0.011555019976 0.011654607005 0.011752590887 0.011848855889 
0.011943231681 0.012035593859 0.012125811932 0.012213781925 0.012299299539 0.012382202197 0.012462412625 0.01253985847 0.012614475913 
0.012686152932 0.012754875928 0.01282054258 0.012883176141 0.012942720193 0.012999081992 0.013052206373 0.013102022897 0.013148470437 
0.013191414653 0.013230863052 0.013266707021 0.013298880595 0.013327337924 0.013352113528 0.013373138438 0.013390403252 0.013403832919 
0.013413529806 0.013419451339 0.013421571651 0.013419950825 0.010210641068 0.010328066769 0.010445285947 0.010562275504 0.010678846123 
0.010794946644 0.010910543932 0.011025439855 0.011139615884 0.011252980137 0.011365353821 0.011476686024 0.011586916138 0.011696037468 
0.011803724191 0.011909971372 0.012014724578 0.012117828228 0.012219142193 0.012318586171 0.012415858792 0.012510875625 0.012603487871 
0.012693528747 0.012780860973 0.012865360307 0.012946947581 0.013025537653 0.013101059881 0.013173419593 0.013242703295 0.013308708938 
0.013371452257 0.013430866374 0.013486897115 0.01353943775 0.013588402684 0.013633727371 0.013675334384 0.013713127516 0.013747047493 
0.013777075031 0.013803144459 0.013825217018 0.013843272647 0.013857417356 0.013867635396 0.01387384152 0.01387607982 0.013874341049 
0.010497675042 0.010620631176 0.01074345791 0.010865964301 0.010988125025 0.011109878877 0.011231055595 0.011351588469 0.011471387206 
0.011590346072 0.011708316906 0.011825411152 0.011941177547 0.012055756608 0.01216896766 0.012280747245 0.012391039684 0.012499552963 
0.012606215754 0.012710884574 0.012813362766 0.012913480292 0.01301104788 0.013105938615 0.013197978827 0.013287082161 0.013373071279 
0.013455895359 0.013535458502 0.013611771978 0.013684735945 0.013754338032 0.013819963997 0.013882655283 0.01394181875 0.013997241631 
0.014048926825 0.014096768477 0.014140668444 0.014180526837 0.014216286781 0.01424795042 0.014275416158 0.014298656564 0.014317738395 
0.014332556165 0.014343246968 0.014349744982 0.014352104228 0.014350251116 0.010795777842 0.010924657849 0.011053295286 0.011181754067 
0.011309838869 0.011437464583 0.011564557557 0.011691023584 0.011816783533 0.011941755603 0.012065701352 0.012188560161 0.012310292745 
0.01243075289 0.012549900804 0.012667507228 0.012783524788 0.012897796981 0.013010132814 0.013120392722 0.013228364044 0.013333888271 
0.013436745217 0.013536246365 0.013633295567 0.013727202569 0.013817872178 0.013905174277 0.013989111579 0.014069604898 0.014146572305 
0.014219999274 0.014289837829 0.014355967094 0.014418353299 0.014476893475 0.014531477732 0.014581949928 0.014628356762 0.014670463004 