# vtk DataFile Version 5.1
vtk output
ASCII
DATASET STRUCTURED_POINTS
DIMENSIONS 50 50 50
SPACING 0.002 0.002 0.002
ORIGIN 0.1742 -0.052672 0.02732
POINT_DATA 125000
FIELD FieldData 1
potential 1 125000 double
<<<<<<< HEAD
0.29766659556 0.29750673735 0.29734830997 0.29719256247 0.29704204112 0.29689871439 0.29676476334 0.29664202313 0.29653234505 
0.29643792034 0.29635905655 0.29629800757 0.29625665857 0.29623604732 0.29623762612 0.29626191642 0.29630872163 0.29637654078 
0.29646313379 0.29656470015 0.29667728739 0.29679548624 0.29691396585 0.29702695579 0.29713033361 0.2972204434 0.29729452454 
0.29735099845 0.29738981672 0.29741135107 0.29741635634 0.29740624488 0.29738215855 0.29734515105 0.29729470854 0.29723164739 
0.29715518379 0.29706495859 0.29696107746 0.29684399687 0.29671548939 0.29657754892 0.29643360741 0.29628660767 0.29614135404 
0.29600130544 0.29587007904 0.29575045609 0.29564476522 0.29555446486 0.31535020833 0.31518465813 0.3150201986 0.31485833465 
0.31470159362 0.31455220546 0.31441257813 0.31428481593 0.31417091683 0.31407323259 0.31399267631 0.31393141563 0.31389093028 
0.31387290128 0.3138783703 0.31390805885 0.31396151926 0.3140370855 0.31413222782 0.31424358173 0.31436668768 0.31449608105 
0.31462671949 0.31475300329 0.31486990981 0.31497427734 0.31506278887 0.31513369988 0.31518609139 0.31521972403 0.31523532406 
0.31523393546 0.31521621022 0.31518257513 0.31513380343 0.31506981233 0.31498992719 0.31489437156 0.31478361629 0.31465875055 
0.31452136238 0.31437449202 0.31422139126 0.31406581271 0.31391204384 0.31376382999 0.31362498297 0.31349770874 0.31338481807 
0.31328764288 0.33354986615 0.33338018113 0.33321127161 0.3330448787 0.33288351951 0.33272954754 0.33258576242 0.33245431315 
0.33233735657 0.33223740237 0.33215627263 0.332095756 0.33205727718 0.33204272844 0.332052951 0.33208852254 0.33214877951 
0.33223234368 0.33233619973 0.33245722401 0.33259064008 0.33273144669 0.33287466167 0.33301419226 0.33314558966 0.33326482986 
0.33336855209 0.33345467898 0.33352179046 0.33356916138 0.33359690033 0.33360548963 0.33359525517 0.33356645847 0.33351988568 
0.33345556029 0.33337316046 0.33327311885 0.33315651278 0.33302488165 0.33288018694 0.33272590282 0.33256569295 0.33240312336 
0.33224274322 0.33208840931 0.33194339895 0.3318100547 0.33169107246 0.33158768814 0.35214919173 0.35197685463 0.35180490236 
0.35163573086 0.35147120606 0.35131423023 0.35116759154 0.35103372236 0.35091502137 0.35081413978 0.35073322961 0.35067445775 
0.3506386905 0.35062837124 0.35064377884 0.35068559791 0.35075286145 0.35084407067 0.35095688234 0.35108732944 0.35123093508 
0.35138307761 0.35153831446 0.35169098503 0.35183696846 0.35197122694 0.35209077312 0.35219311246 0.35227556496 0.3523373759 
0.35237809961 0.35239756068 0.35239558165 0.35237272034 0.35232916073 0.35226523168 0.35218146954 0.35207826536 0.35195699888 
0.35182002539 0.35166982858 0.35150978219 0.35134425623 0.35117723909 0.35101220819 0.35085351383 0.35070428972 0.35056680905 
0.35044268711 0.35033401508 0.3710198956 0.37084670109 0.37067331271 0.37050259385 0.37033625336 0.37017767705 0.37002956451 
0.36989452233 0.36977523676 0.36967464373 0.36959511923 0.36953847614 0.36950631861 0.36950029175 0.36952107133 0.3695693282 
0.36964353071 0.36974238211 0.36986326475 0.37000280549 0.37015596898 0.3703187837 0.37048567421 0.37065133833 0.37081112103 
0.3709604253 0.37109558575 0.37121357513 0.37131160158 0.37138808941 0.37144204224 0.37147281154 0.37147976386 0.37146346261 
0.37142389596 0.37136157075 0.37127735956 0.37117210109 0.37104770398 0.37090687492 0.37075293389 0.3705893773 0.37042080771 
0.37025091518 0.37008389567 0.36992310778 0.3697713076 0.3696313902 0.36950399596 0.36939088142 0.39002488575 0.38985166445 
0.38967843978 0.38950743005 0.38934102858 0.38918202403 0.38903364856 0.38889873384 0.3887799675 0.38868067555 0.38860319481 
0.38854921033 0.38852114455 0.38851975718 0.38854607434 0.38860035596 0.38868112539 0.38878700254 0.38891541764 0.38906260454 
0.38922457088 0.38939741398 0.38957508793 0.38975235921 0.38992485566 0.39008821694 0.39023813301 0.39037098567 0.39048390438 
0.39057459352 0.39064144876 0.3906832285 0.39069951554 0.39069019766 0.39065511992 0.3905953712 0.3905118657 0.39040591746 
0.39028001166 0.3901373585 0.38998155434 0.38981658702 0.38964717716 0.38947692395 0.38930982216 0.38914922692 0.38899726321 
0.3888562908 0.38872709054 0.38861061497 0.40901946662 0.40884773827 0.40867586636 0.40850619376 0.40834074932 0.40818289659 
0.40803559784 0.40790172255 0.40778475715 0.40768748982 0.40761267994 0.40756213307 0.40753820087 0.40754144176 0.40757294699 
0.40763271758 0.4077193221 0.40783118306 0.40796599329 0.40812021419 0.40828949778 0.40847016086 0.40865695613 0.40884430038 
0.40902799137 0.40920352869 0.4093663893 0.40951251378 0.40963879022 0.40974235168 0.4098211876 0.40987361484 0.4098988857 
0.40989652949 0.40986658961 0.40981002013 0.4097286438 0.40962348201 0.40949761197 0.40935501759 0.40919966126 0.40903558208 
0.4088674489 0.40869918143 0.40853441009 0.40837604363 0.40822583518 0.40808568585 0.40795609519 0.40783779647 0.42785514737 
0.42768636244 0.42751708928 0.42735014405 0.42718716905 0.42703163312 0.42688656162 0.42675502317 0.42664074232 0.42654642269 
0.42647489961 0.42642830592 0.42640851899 0.42641612596 0.42645230269 0.42651650707 0.42660780657 0.42672473831 0.42686433458 
0.42702363429 0.42719852305 0.42738509827 0.42757811497 0.42777336551 0.42796567389 0.42815068029 0.428324035 0.42848107802 
0.42861859474 0.42873327027 0.42882259905 0.42888454802 0.4289179869 0.42892235408 0.42889801478 0.42884571824 0.42876730043 
0.42866442751 0.42854059842 0.42840014968 0.42824712215 0.42808618156 0.42792144835 0.42775745692 0.42759745842 0.42744308891 
0.42729668332 0.42715919953 0.42703083513 0.42691216837 0.44638237989 0.44621775633 0.44605261996 0.44588956825 0.44573035983 
0.44557855094 0.44543690018 0.44530913443 0.44519864357 0.4451082421 0.44504062206 0.44499801606 0.44498206028 0.44499364002 
0.44503369871 0.44510166614 0.4451962929 0.44531618604 0.44545876789 0.44562090684 0.4457991215 0.44598859275 0.44618543901 
0.44638479419 0.44658307887 0.44677431071 0.44695491158 0.44712003381 0.44726594049 0.44738913593 0.447486607 0.44755645302 
0.44759699907 0.44760784345 0.44758896773 0.44754156344 0.44746715816 0.44736841936 0.44724872982 0.447112206 0.44696381314 
0.44680811899 0.44664923035 0.44649175848 0.44633797864 0.44618996897 0.44604902376 0.44591606471 0.44579044192 0.44567242143 
0.46445402064 0.46429480344 0.46413496574 0.46397713884 0.46382325811 0.4636764925 0.46353978727 0.46341694365 0.46331128151 
0.46322565643 0.46316257531 0.46312428526 0.46311201458 0.46312716811 0.46316976992 0.46323994533 0.46333621902 0.46345717228 
0.46360032967 0.46376268181 0.46394090164 0.46413059761 0.46432808739 0.46452845285 0.46472817348 0.46492240559 0.46510640264 
0.46527596575 0.46542689193 0.46555549396 0.46565880811 0.46573458798 0.46578097922 0.46579750376 0.46578417382 0.46574214255 
0.46567280238 0.46557978621 0.46546584646 0.46533543739 0.46519398061 0.46504585187 0.46489482793 0.46474568464 0.46460021605 
0.46446013062 0.46432613347 0.4641986658 0.46407729699 0.46396133189 0.48192783009 0.48177512832 0.48162197076 0.48147076333 
0.481323686 0.48118330146 0.4810530841 0.48093656408 0.48083693927 0.48075699616 0.48069891139 0.48066492332 0.4806564625 
0.48067440002 0.48071893445 0.48078975672 0.48088570505 0.48100547348 0.48114676791 0.4813062025 0.48148151471 0.48166791694 
0.48186206604 0.48205958708 0.48225717443 0.48245008934 0.48263355068 0.48280356823 0.48295607701 0.48308702577 0.48319357821 
0.4832730074 0.48332387073 0.4833451878 0.48333713867 0.48330099977 0.48323825399 0.48315199823 0.48304553102 0.48292333504 
0.48279069798 0.48265195243 0.48251089974 0.48237162469 0.48223592636 0.48210498897 0.48197933866 0.48185877645 0.48174206499 
0.48163030268 0.49867253346 0.49852780615 0.49838255375 0.49823928378 0.4981002982 0.49796806409 0.49784561285 0.49773669504 
0.49764413916 0.49757050928 0.49751814701 0.49748895492 0.49748370999 0.49750359095 0.49754861199 0.49761856056 0.49771227783 
0.49782844 0.49796528858 0.49811929864 0.49828808505 0.49846781529 0.49865494949 0.49884636833 0.49903739478 0.49922469804 
0.49940417223 0.49957092302 0.49972122247 0.49985138834 0.49995842033 0.50003950973 0.50009318637 0.50011845275 0.50011578093 
0.50008563863 0.50002992935 0.49995193434 0.49985459185 0.4997422913 0.49962022875 0.49949259249 0.49936279896 0.49923453658 
0.49910983322 0.49898905085 0.49887249734 0.49875988603 0.49864947656 0.49854249716 0.51457053349 0.51443474815 0.51429893166 
0.51416478362 0.51403507748 0.51391222859 0.51379939169 0.51369917996 0.51361463726 0.51354841817 0.51350217109 0.51347768393 
0.51347534666 0.51349618812 0.51354060692 0.51360797555 0.51369770078 0.51380814627 0.51393750786 0.51408321363 0.51424276093 
0.51441276125 0.5145898991 0.51477121241 0.51495250152 0.51513054785 0.51530163271 0.51546208578 0.51560704797 0.51573354744 
0.51583840408 0.51591917732 0.51597416966 0.51600256532 0.51600481503 0.51598086775 0.51593287862 0.51586392955 0.5157771732 
0.51567634596 0.51556604651 0.51545060072 0.51533314573 0.51521686143 0.51510364473 0.51499369603 0.51488676171 0.5147819414 
0.51467928876 0.51457775364 0.5295218182 0.52939575004 0.52927010998 0.52914637256 0.52902728962 0.5289151787 0.52881258914 
0.52872243331 0.52864727131 0.52858870474 0.52854896934 0.52852908451 0.52852920694 0.52855042485 0.52859330113 0.52865655634 
0.5287401769 0.52884277681 0.52896275761 0.52909776837 0.5292454295 0.52940298 0.52956729154 0.52973548074 0.52990409605 
0.53007018807 0.53023026532 0.53038047314 0.53051793573 0.53063817198 0.53073887486 0.53081759718 0.53087263704 0.53090328652 
0.53090984543 0.53089223152 0.53085252522 0.53079339156 0.53071783024 0.53062933018 0.53053166266 0.53042909806 0.53032453375 
0.53022075543 0.53011924447 0.53002025008 0.52992254126 0.52982681069 0.52973168889 0.52963671087 0.54344523659 0.5433296431 
0.54321512931 0.54310293234 0.54299552173 0.54289482128 0.54280368542 0.54272438723 0.54265883681 0.54260876391 0.54257554119 
0.54255979506 0.5425623333 0.54258301343 0.54262286925 0.5426811831 0.54275737802 0.54285059991 0.54295948534 0.54308181761 
0.54321583553 0.54335872564 0.54350810246 0.54366126913 0.54381496348 0.54396695582 0.54411389952 0.54425239029 0.54437978398 
0.54449185031 0.54458674046 0.54466210587 0.54471628602 0.5447486493 0.54475876219 0.54474739461 0.54471594779 0.54466702864 
0.54460278126 0.54452679005 0.54444233433 0.54435297703 0.54426130095 0.5441700302 0.54407995168 0.54399105773 0.54390337301 
0.54381635496 0.54372913949 0.54364112911 0.55628052557 0.55617658257 0.55607370704 0.55597357766 0.55587826522 0.55579003531 
0.55571092085 0.55564263723 0.55558709738 0.55554530999 0.55551850483 0.55550728525 0.55551128207 0.55553085247 0.55556728914 
0.55561954538 0.55568738228 0.55577013528 0.5558668343 0.55597552537 0.55609449787 0.55622167118 0.55635483929 0.55649172478 
0.55662954629 0.55676595842 0.55689850257 0.55702399868 0.5571397025 0.55724305333 0.55733103733 0.55740189454 0.557454347 
0.55748761148 0.55750120663 0.55749553454 0.55747227082 0.55743314934 0.55738036176 0.55731678538 0.55724529994 0.55716877829 
0.55708961268 0.55701020836 0.55693108302 0.55685230719 0.55677400022 0.55669556729 0.55661603395 0.55653548617 0.56798852433 
0.56789647979 0.56780571692 0.56771764826 0.56763507791 0.56755923686 0.56749225925 0.56743504123 0.56738936066 0.56735585421 
0.56733503423 0.56732766475 0.56733282529 0.56735101263 0.56738308996 0.56742915333 0.56748821612 0.56756010988 0.56764405013 
0.56773863598 0.56784242599 0.56795340254 0.5680700981 0.56819041616 0.56831197245 0.56843246572 0.56855018343 0.56866230587 
0.56876632475 0.5688596854 0.56894069184 0.56900669597 0.56905667003 0.56909018906 0.56910672402 0.56910662917 0.56909084804 
0.56906110519 0.56901915005 0.5689672831 0.56890804217 0.56884365644 0.56877643865 0.56870816466 0.56863898444 0.56857015816 
0.56850072596 0.56843035661 0.56835853809 0.56828514991 0.57854866194 0.57846821868 0.5783893804 0.57831363782 0.57824342579 
0.57817977842 0.57812438965 0.57807789895 0.57804173951 0.57801576542 0.57800046294 0.57799634451 0.57800232892 0.57801907451 
0.57804723195 0.57808651257 0.57813670762 0.57819794187 0.57826936961 0.57835006556 0.57843896052 0.57853430443 0.57863492434 
0.57873900817 0.57884475674 0.57894998928 0.57905344774 0.57915247102 0.57924486153 0.57932863167 0.57940217351 0.57946322241 
0.5795108224 0.57954406707 0.5795629952 0.57956758946 0.57955862802 0.57953757665 0.57950536722 0.57946442824 0.57941653451 
0.57936362542 0.57930701129 0.57924926063 0.57918962404 0.57912955681 0.57906845551 0.57900583144 0.57894129676 0.57887538015 
0.58795548721 0.58788631182 0.58781921243 0.58775571873 0.58769711151 0.58764492258 0.58760033905 0.58756390448 0.58753609633 
0.58751706138 0.58750654927 0.58750534609 0.58751192778 0.58752704687 0.58755112568 0.58758425152 0.5876263001 0.58767733837 
0.58773695119 0.5878047949 0.58787958302 0.58796045356 0.58804605352 0.58813515378 0.58822612831 0.58831705804 0.58840707029 
0.58849370321 0.58857544482 0.58865015996 0.58871626991 0.58877272247 0.58881775586 0.588850756 0.58887148785 0.5888801661 
0.58887716816 0.58886374001 0.58884047018 0.58880922325 0.5887715033 0.58872888161 0.58868228114 0.58863325724 0.58858299002 
0.58853125412 0.58847781018 0.58842245438 0.58836500365 0.58830616464 0.59621671008 0.59615833129 0.59610240038 0.59605016791 
0.59600245495 0.59596088452 0.59592612625 0.59589836276 0.59587800035 0.59586500144 0.59585890218 0.59585976162 0.59586673338 
0.5958802334 0.59590066313 0.59592828602 0.59596293122 0.5960048918 0.5960540065 0.59611022092 0.59617240455 0.59624015341 
0.59631216714 0.59638783967 0.5964655352 0.59654375947 0.59662157794 0.59669710891 0.59676912933 0.59683576012 0.59689532574 
0.59694738766 0.59698987905 0.59702234471 0.59704460598 0.59705660139 0.59705884255 0.59705213195 0.59703652775 0.59701401899 
0.59698530133 0.59695169083 0.59691388876 0.59687356761 0.59683118143 0.59678707356 0.59674066605 0.59669223006 0.59664168558 
0.59658940137 0.60334851566 0.60330063716 0.6032549401 0.60321302014 0.60317523349 0.6031430937 0.60311679966 0.60309663412 
0.60308261914 0.60307467206 0.6030720985 0.60307456894 0.60308194348 0.60309395567 0.60311124372 0.60313412837 0.60316244414 
0.60319670791 0.60323662917 0.60328272034 0.60333415555 0.60339038825 0.60345080482 0.60351457001 0.60358058736 0.60364766989 
0.60371502007 0.60378086931 0.60384446722 0.60390386593 0.6039578289 0.60400552906 0.60404612403 0.60407805437 0.60410162433 
0.6041165897 0.60412308239 0.60412212933 0.60411331262 0.6040983582 0.60407751615 0.60405210527 0.6040221822 0.60398953584 
0.60395435782 0.60391732297 0.60387764236 0.60383560976 0.60379146162 0.60374553171 0.60937308482 0.60933470908 0.60929855669 
0.60926590441 0.60923685348 0.60921275612 0.60919381131 0.60918002959 0.60917126904 0.60916728371 0.6091675679 0.60917161571 
0.60917898746 0.60918978472 0.60920429418 0.60922353063 0.60924665013 0.60927445572 0.60930690975 0.609344453 0.60938668873 
0.60943321337 0.60948364508 0.60953749446 0.60959368906 0.60965131693 0.609709611 0.60976749343 0.60982390858 0.60987729183 
0.60992687337 0.6099708624 0.61000949916 0.61004104651 0.61006582773 0.61008319106 0.61009347056 0.61009740859 0.61009466054 
0.61008614944 0.61007232422 0.61005415452 0.61003121988 0.61000587369 0.60997708455 0.60994613099 0.609913077 0.60987717435 
0.60983889412 0.60979880781 0.61431409008 0.614284614 0.61425699201 0.61423259469 0.61421117561 0.61419397413 0.61418125695 
0.61417271409 0.61416826483 0.61416732462 0.61417004051 0.61417517969 0.61418257661 0.61419254979 0.61420489967 0.61422119386 
0.61423997997 0.6142627669 0.61428922027 0.61431982965 0.61435434218 0.6143929627 0.61443517539 0.61448055686 0.61452878955 
0.61457859366 0.61462972165 0.6146808241 0.61473130259 0.61477976882 0.6148254341 0.61486684554 0.61490369221 0.6149354594 
0.61496141809 0.6149810093 0.61499477768 0.61500302641 0.6150053233 0.61500283313 0.61499523851 0.61498279737 0.61496675888 
0.61494767084 0.61492488346 0.61490010851 0.61487250763 0.61484248227 0.61480985365 0.61477515203 0.61819502476 0.61817384897 
0.61815392251 0.61813682626 0.61812200724 0.61811074269 0.61810303492 0.61809878708 0.61809771828 0.6180993148 0.61810364374 
0.6181099021 0.61811735216 0.61812674284 0.61813780236 0.61815151565 0.61816718916 0.61818584781 0.61820763352 0.61823269901 
0.6182612517 0.61829327904 0.6183287385 0.61836744418 0.61840906514 0.61845278448 0.61849780052 0.61854351579 0.61858953358 
0.61863443781 0.61867676424 0.618716374 0.61875209515 0.61878441026 0.61881138124 0.61883331722 0.61885051617 0.61886268936 
0.61886961917 0.61887197455 0.61886999959 0.61886346111 0.61885318731 0.61883974506 0.61882323008 0.61880345019 0.61878126131 
0.61875671824 0.61872913921 0.61869959703 0.62103676488 0.62102315092 0.62101023311 0.620999672 0.62099067506 0.6209844409 
0.62098100616 0.62098021008 0.6209819218 0.62098558198 0.62099131888 0.62099826203 0.62100620096 0.62101508877 0.62102498066 
0.62103713138 0.62105042649 0.62106596326 0.62108399155 0.62110454752 0.62112818357 0.62115501375 0.62118521653 0.62121845056 
0.62125463182 0.62129350658 0.621334107 0.62137573691 0.62141842569 0.62146021359 0.62150074771 0.62153915124 0.62157464294 
0.62160710812 0.62163609307 0.62166035478 0.62168087197 0.62169655817 0.6217077414 0.62171489509 0.6217175526 0.62171688626 
0.62171206323 0.62170389266 0.62169268875 0.62167818783 0.62166112588 0.62164147975 0.62161880658 0.62159388513 0.62285558164 
0.62284870495 0.62284289813 0.62283802037 0.62283426136 0.62283247402 0.62283272877 0.62283482863 0.62283889017 0.62284427896 
0.62285122327 0.62285883072 0.62286706617 0.62287583706 0.62288526373 0.62289594547 0.62290767731 0.62292073894 0.62293578778 
0.62295299738 0.62297254255 0.62299524381 0.62302099101 0.62304997391 0.62308200053 0.62311697833 0.62315403422 0.62319288125 
0.62323312543 0.62327305255 0.62331259778 0.62335078027 0.62338667713 0.6234203474 0.62345115713 0.623478077 0.62350146441 
0.62352091383 0.62353622247 0.62354797079 0.62355549127 0.6235595045 0.62356004157 0.62355730351 0.62355113204 0.6235419223 
0.62352922572 0.6235140962 0.62349579831 0.62347519344 0.6236624246 0.62366239546 0.62366301826 0.62366351157 0.62366451764 
0.62366680312 0.62367034761 0.62367509393 0.62368123665 0.6236882609 0.62369632395 0.62370478092 0.62371351747 0.62372239277 
0.62373161549 0.62374129768 0.62375173335 0.62376280712 0.62377544561 0.62378975526 0.62380613935 0.62382530657 0.62384757005 
0.62387292985 0.62390168503 0.62393357903 0.62396822114 0.6240053836 0.6240440192 0.62408333721 0.6241227791 0.6241615156 
0.62419840003 0.62423383257 0.62426688348 0.62429659252 0.6243233348 0.62434638722 0.62436598894 0.62438226392 0.62439452091 
0.62440349409 0.62440874588 0.62441128113 0.6244100969 0.62440557792 0.62439787771 0.62438687163 0.62437262697 0.62435591533 
0.62346218968 0.62346899236 0.62347555409 0.62348153838 0.62348718191 0.62349321442 0.62350008212 0.62350742127 0.62351554884 
0.62352444386 0.62353358392 0.62354291887 0.62355238512 0.62356146224 0.62357060844 0.62357985306 0.62358902433 0.62359859437 
0.62360910905 0.62362072076 0.62363437648 0.62365064145 0.62366990751 0.62369251163 0.62371855837 0.62374823775 0.62378173366 
0.62381751238 0.62385578428 0.6238952638 0.62393549021 0.62397542821 0.62401415642 0.6240517814 0.62408778006 0.62412072671 
0.62415089497 0.62417797189 0.62420193119 0.62422236058 0.62423982228 0.62425357049 0.62426416317 0.62427126466 0.62427533469 
0.6242754977 0.62427252057 0.6242659648 0.6242557621 0.62424206386 0.62225320725 0.62226698373 0.62227954305 0.62229085813 
0.62230124695 0.62231140443 0.62232135898 0.62233144492 0.62234192384 0.62235255593 0.62236319278 0.62237366736 0.62238399178 
0.62239379344 0.62240301462 0.62241159545 0.6224199809 0.62242803735 0.6224367642 0.62244609736 0.62245695713 0.62247048358 
0.62248713151 0.62250733076 0.62253125531 0.6225599183 0.62259202394 0.62262774916 0.62266648248 0.62270694744 0.6227487509 
0.62279081813 0.62283236956 0.62287285544 0.62291179755 0.62294863972 0.62298286215 0.62301412515 0.62304255319 0.62306773922 
0.6230902328 0.62310909285 0.62312486148 0.62313714536 0.62314613713 0.6231511987 0.62315282952 0.62315063638 0.62314422297 
0.6231342326 0.62002770086 0.62004832633 0.62006695189 0.62008414656 0.62009941097 0.62011369327 0.6201273292 0.62014052559 
0.62015361705 0.62016642731 0.62017876358 0.62019077222 0.62020224911 0.62021281183 0.62022226681 0.62023065827 0.62023824418 
0.6202449326 0.62025166434 0.62025853781 0.62026709703 0.62027778896 0.62029208559 0.62031022865 0.62033297112 0.62036015537 
0.62039199972 0.62042826339 0.62046820782 0.62051075914 0.62055479531 0.62059990272 0.62064468867 0.6206887193 0.62073164666 
0.62077275254 0.62081120595 0.62084707084 0.62088045908 0.62091064313 0.62093819383 0.62096273856 0.62098395764 0.6210017691 
0.62101566369 0.62102623712 0.62103241142 0.62103457532 0.62103257758 0.62102557572 0.61677135849 0.61679959041 0.61682463665 
0.61684775755 0.6168683481 0.61688742397 0.61690522167 0.61692191844 0.61693819281 0.61695339102 0.61696801912 0.61698191429 
0.61699470227 0.61700630234 0.61701628582 0.61702455295 0.61703119496 0.61703663579 0.61704147521 0.61704604991 0.61705185691 
0.617059907 0.61707161808 0.61708769834 0.61710925445 0.61713600195 0.61716815739 0.6172056099 0.61724746769 0.61729257105 
0.61734001925 0.6173889519 0.6174376473 0.61748602336 0.61753317244 0.61757903259 0.61762232192 0.61766322457 0.61770190937 
0.61773776511 0.61777081281 0.61780134352 0.61782851622 0.61785221862 0.61787179675 0.61788753945 0.61789909467 0.61790593768 
0.61790788344 0.61790474713 0.61246533696 0.61250124425 0.61253346187 0.61256312569 0.61258966747 0.61261409895 0.61263648865 
0.61265756725 0.61267731579 0.61269574279 0.61271306811 0.61272920262 0.61274396611 0.61275689588 0.61276752515 0.61277564971 
0.61278156222 0.61278564194 0.6127882057 0.61279033979 0.6127934858 0.61279848042 0.61280765544 0.61282199893 0.61284213412 
0.6128687945 0.61290170955 0.61294093685 0.61298520452 0.61303402624 0.61308577259 0.61313897024 0.6131926351 0.61324578433 
0.61329801276 0.61334902308 0.61339765659 0.61344420558 0.61348831326 0.61353037994 0.61356973743 0.61360666186 0.61364032015 
0.61367037924 0.61369639008 0.61371829839 0.61373535726 0.61374706319 0.6137531933 0.61375333515 0.60708682847 0.6071308604 
0.60717087111 0.60720774967 0.60724087756 0.60727137071 0.60729929596 0.60732503831 0.6073490552 0.6073712756 0.60739218273 
0.60741093303 0.6074280756 0.60744262879 0.6074540865 0.60746229204 0.60746742479 0.60746988319 0.60747008126 0.60746947059 
0.60746950724 0.60747167601 0.60747825817 0.60749030527 0.60750928373 0.60753596185 0.60757019894 0.60761154055 0.60765924773 
0.60771241843 0.60776895477 0.60782737197 0.60788650214 0.60794518687 0.6080031754 0.60805964156 0.60811432834 0.60816683605 
0.60821733045 0.60826581982 0.60831240273 0.60835637253 0.6083972337 0.60843459321 0.60846774557 0.60849626398 0.60851925878 
0.60853655003 0.60854719915 0.60855104811 0.60061178989 0.60066407707 0.60071262514 0.60075703775 0.60079765938 0.60083477197 
0.6008689293 0.60090036025 0.60092920856 0.60095597075 0.6009806853 0.60100285719 0.60102257653 0.60103908367 0.60105176137 
0.60106017796 0.60106435549 0.60106486005 0.60106273459 0.60105907252 0.60105580706 0.60105474519 0.60105829181 0.60106824774 
0.60108614084 0.60111306539 0.60114876683 0.60119287866 0.60124474959 0.60130268213 0.60136464028 0.601429076 0.60149429765 
0.60155923683 0.60162351774 0.60168599253 0.6017470484 0.60180620355 0.60186329316 0.60191922398 0.60197331157 0.60202527877 
0.60207436831 0.60212017599 0.60216121918 0.60219738951 0.60222720233 0.60225038459 0.60226613569 0.60227395175 0.59301599121 
0.5930774019 0.59313462604 0.59318740909 0.59323602074 0.59328063987 0.59332145535 0.59335919431 0.59339368345 0.59342527125 
0.59345435683 0.59348029736 0.5935029472 0.59352156849 0.59353561401 0.59354414558 0.59354753563 0.59354618851 0.59354134471 
0.59353433791 0.59352720705 0.59352260083 0.59352310345 0.59353076516 0.59354774676 0.59357480259 0.59361248273 0.59366005539 
0.59371633754 0.59377959999 0.59384777898 0.5939186827 0.59399070995 0.59406231312 0.59413332245 0.59420246649 0.59427033747 
0.59433642335 0.59440111759 0.59446484918 0.59452747403 0.59458834128 0.59464666601 0.59470173084 0.59475191741 0.59479653512 
0.59483400772 0.59486369596 0.59488529701 0.59489754144 0.58427976429 0.5843504237 0.5844168271 0.5844781583 0.58453496107 
0.58458787631 0.58463605751 0.58468025743 0.58472086389 0.5847577859 0.58479148141 0.58482145863 0.58484738196 0.58486821768 
0.58488343392 0.58489215861 0.58489459725 0.58489110212 0.58488341873 0.58487258116 0.58486177515 0.5848531551 0.58485051196 
0.58485585787 0.58487190153 0.58489950546 0.58493910108 0.58499032682 0.58505165556 0.5851207966 0.5851952067 0.58527317301 
0.58535231211 0.58543115417 0.58550905201 0.58558559322 0.58566064361 0.58573424572 0.58580718776 0.58587960205 0.58595162937 
0.58602239837 0.58609113213 0.58615666381 0.58621688475 0.58627078686 0.58631702942 0.5863543466 0.5863820381 0.58639907456 
0.57439028097 0.57447005438 0.57454567265 0.5746159765 0.57468154623 0.5747423914 0.57479810128 0.57484915632 0.5748958095 
0.5749382754 0.57497650882 0.57501035126 0.57503937209 0.57506253539 0.57507885588 0.57508760144 0.57508903522 0.57508336719 
0.57507221634 0.57505788454 0.57504284424 0.57503032525 0.57502440322 0.57502752574 0.57504249079 0.57507068289 0.57511252088 
0.57516730977 0.57523361372 0.57530869655 0.57538984887 0.575475012 0.57556165199 0.57564821547 0.57573341108 0.57581745113 
0.57590018607 0.57598201454 0.57606363404 0.57614566551 0.57622786424 0.57630954344 0.57638980786 0.5764665711 0.57653803054 
0.57660259072 0.57665829117 0.57670382632 0.5767381501 0.57676053974 0.56334588994 0.56343450774 0.56351851889 0.56359766977 
0.56367173029 0.56374028723 0.5638031597 0.56386088005 0.56391341238 0.56396101557 0.56400358977 0.56404097335 0.56407275649 
0.5640975583 0.56411476945 0.56412343694 0.56412351585 0.56411541385 0.56410111615 0.56408275077 0.56406371471 0.56404753841 
0.56403822084 0.56403924173 0.56405318569 0.56408180633 0.56412574148 0.56418421647 0.5642552408 0.56433616878 0.56442431873 
0.56451634096 0.56461053064 0.56470457701 0.56479756575 0.56488937363 0.56498028883 0.5650707618 0.56516171384 0.56525413204 
0.56534748258 0.56544114483 0.56553336061 0.5656225188 0.56570616988 0.56578206045 0.56584813672 0.56590259589 0.56594408803 
0.56597186831 0.55115880166 0.55125509643 0.55134712102 0.551433956 0.55151571395 0.55159138317 0.55166083191 0.55172439508 
0.55178224223 0.55183419041 0.55188048323 0.55192067517 0.55195448933 0.55198040381 0.5519978262 0.55200570016 0.55200421918 
0.55199369174 0.55197596659 0.55195378726 0.55193108392 0.55191131255 0.55189894885 0.55189774006 0.55191060058 0.55193973547 
0.55198552303 0.55204711452 0.55212253316 0.55220890584 0.55230324715 0.55240208973 0.55250326202 0.55260489214 0.55270571063 
0.55280555061 0.55290479136 0.55300453982 0.55310582804 0.55320913072 0.55331420911 0.55342031841 0.55352535667 0.55362770005 
0.55372402046 0.55381178244 0.55388857327 0.553952229 0.55400124077 0.55403458671 0.53785818168 0.53796114563 0.53805993467 
0.53815329343 0.53824101304 0.53832271849 0.53839785552 0.53846606366 0.53852775159 0.53858316001 0.53863183731 0.5386739145 
0.53870847281 0.53873468803 0.53875149112 0.53875803404 0.53875443829 0.5387412487 0.53872006699 0.53869440691 0.538668169 
0.53864516733 0.53863011887 0.53862696534 0.53863896703 0.53866805435 0.53871509806 0.5387792462 0.5388582225 0.53894915536 
0.53904896084 0.53915393334 0.5392616476 0.53937014099 0.53947860531 0.53958674714 0.53969476101 0.53980419561 0.53991622404 
0.54003079985 0.54014808944 0.54026703487 0.54038541609 0.54050089119 0.54061003873 0.54070979342 0.54079729772 0.54087011045 
0.54092669552 0.54096532674 0.52349300378 0.52360079661 0.52370462272 0.52380279102 0.52389522208 0.52398101684 0.52405978058 
0.5241312559 0.5241953482 0.52425229667 0.52430200728 0.52434443043 0.52437859354 0.52440376522 0.52441888426 0.52442339145 
0.52441709151 0.52440102497 0.5243766916 0.52434792582 0.52431816317 0.5242926377 0.52427520942 0.52427024564 0.52428119383 
0.52431007233 0.52435784722 0.52442333826 0.52450467283 0.52459902465 0.52470292634 0.52481310191 0.52492641038 0.52504134279 
0.52515700826 0.52527327878 0.52539034724 0.52550978155 0.52563237563 0.52575867675 0.52588841235 0.52602006921 0.52615156944 
0.52627993656 0.52640149709 0.52651278438 0.52661059182 0.52669232487 0.5267560451 0.52679997028 0.50813216009 0.50824294996 
0.50834956779 0.50845080928 0.50854568531 0.50863362291 0.50871397015 0.50878634125 0.50885117022 0.50890761407 0.50895681671 
0.50899781487 0.50903001808 0.50905270113 0.50906509383 0.50906636203 0.50905690786 0.50903772406 0.50901060144 0.50897881918 
0.50894657789 0.50891839207 0.50889918113 0.50889268791 0.50890231392 0.50893048969 0.50897792045 0.50904373806 0.50912606739 
0.50922219212 0.50932879096 0.50944248235 0.50956053501 0.50968105215 0.50980334392 0.50992733204 0.51005339102 0.51018257008 
0.51031586444 0.51045365766 0.5105955058 0.51073960461 0.51088336726 0.51102380071 0.51115676517 0.5112785326 0.51138561881 
0.5114752705 0.51154559954 0.51159441772 0.49186490632 0.49197671057 0.49208405987 0.49218582904 0.49228090729 0.49236858311 
0.49244809355 0.49251936172 0.49258252194 0.49263685387 0.49268333671 0.49272096765 0.49274967371 0.49276829241 0.49277646391 
0.49277365606 0.49276053532 0.49273799623 0.49270799254 0.49267355838 0.49263927305 0.49260923732 0.49258853342 0.49258034522 