# vtk DataFile Version 5.1
vtk output
ASCII
DATASET STRUCTURED_POINTS
DIMENSIONS 50 50 50
SPACING 0.002 0.002 0.002
ORIGIN 0.1742 -0.052672 0.02732
POINT_DATA 125000
FIELD FieldData 1
potential 1 125000 double
<<<<<<< HEAD
0.00045720242833 0.00045494029271 0.0004526931974 0.00045046104777 0.00044824457859 0.00044604327643 0.00044385760638 0.000441687341 0.00043953270404 
0.00043739318998 0.00043526887042 0.00043316031763 0.00043106722622 0.00042899123673 0.0004269324766 0.00042489232944 0.00042287054783 0.00042086849881 
0.00041888635749 0.0004169246155 0.00041498227418 0.00041305908546 0.00041115401651 0.00040926794394 0.00040739997358 0.00040554997843 0.00040371994117 
0.00040191067439 0.00040012342252 0.00039835978864 0.00039662038507 0.00039490811355 0.0003932222074 0.00039156217086 0.00038992822935 0.00038831791094 
0.00038672972316 0.00038516098032 0.00038360941224 0.00038207297164 0.00038054950154 0.00037903740725 0.00037753618153 0.00037604610061 0.00037456725356 
0.00037310029866 0.00037164609186 0.00037020545442 0.0003687787196 0.00036736662749 0.0004596617969 0.00045738349133 0.00045511965602 0.00045287087454 
0.00045063782633 0.00044841992058 0.00044621699934 0.00044402993813 0.00044185787911 0.00043970086496 0.00043755821471 0.00043543079984 0.00043331902196 
0.00043122341286 0.00042914481666 0.00042708392636 0.00042504152216 0.00042301760258 0.00042101361494 0.00041902894107 0.00041706330946 0.00041511651182 
0.00041318819943 0.00041127815958 0.00040938732532 0.00040751531459 0.00040566258562 0.00040383175372 0.00040202349263 0.0004002398952 0.00039848090395 
0.00039674990516 0.00039504588804 0.00039336900462 0.00039171772976 0.00039009189393 0.00038848870615 0.00038690570845 0.00038534055949 0.00038379119233 
0.00038225556889 0.00038073211223 0.00037922043592 0.00037771979196 0.00037623114041 0.00037475466091 0.00037329145336 0.00037184201146 0.00037040677709 
0.00036898659665 0.00046190059522 0.00045960832027 0.00045732999195 0.00045506685368 0.00045281884436 0.00045058639025 0.00044836930973 0.00044616651297 
0.00044397911445 0.00044180642282 0.00043964753976 0.00043750343448 0.00043537438429 0.00043326105277 0.00043116382565 0.00042908409063 0.00042702199842 
0.00042497778319 0.00042295250605 0.00042094613348 0.00041895861688 0.00041698936046 0.0004150387618 0.0004131061379 0.00041119286238 0.00040929908194 
0.00040742572022 0.00040557480723 0.00040374747138 0.00040194527222 0.00040016872476 0.00039842041037 0.00039670004114 0.00039500733147 0.0003933412752 
0.00039170097571 0.00039008413288 0.00038848818303 0.00038691115727 0.00038535018406 0.00038380389433 0.00038227055669 0.00038074910993 0.00037923975087 
0.00037774234157 0.0003762576831 0.00037478608094 0.00037332887991 0.00037188592509 0.00037045806987 0.00046387191402 0.00046156732762 0.0004592772285 
0.00045700180399 0.00045474188101 0.00045249709451 0.00045026687125 0.00044805136338 0.00044585058105 0.00044366414303 0.00044149125767 0.00043933240048 
0.00043718846675 0.00043505911278 0.00043294557616 0.00043084886033 0.00042876828265 0.00042670541647 0.00042466034019 0.00042263338678 0.00042062552911 
0.00041863546418 0.00041666323836 0.00041470978871 0.0004127757634 0.00041086234441 0.00040897032144 0.00040710094466 0.00040525597688 0.0004034360185 
0.00040164441824 0.00039988104942 0.00039814645665 0.00039643991334 0.00039476111411 0.00039310786489 0.00039147919987 0.00038987219423 0.00038828469563 
0.00038671407877 0.00038515856484 0.00038361660557 0.0003820872578 0.00038057001228 0.00037906533932 0.00037757322893 0.00037609458415 0.00037463008893 
0.00037318049748 0.00037174606799 0.00046553918884 0.00046322461316 0.00046092481252 0.00045863983638 0.00045636968496 0.00045411427682 0.00045187408715 
0.00044964789046 0.00044743616269 0.00044523802104 0.00044305317691 0.0004408818533 0.0004387245022 0.00043658156145 0.00043445355642 0.00043234134114 
0.0004302449456 0.00042816542686 0.00042610252203 0.00042405711819 0.00042203001221 0.00042002014565 0.0004180292841 0.00041605687619 0.0004141046621 
0.0004121731489 0.00041026417419 0.00040837847015 0.0004065180862 0.00040468380076 0.0004028783885 0.00040110179453 0.00039935462679 0.00039763669109 
0.00039594690375 0.0003942834894 0.00039264458113 0.00039102882826 0.00038943245464 0.00038785382929 0.00038629088721 0.00038474187306 0.00038320598798 
0.00038168248969 0.00038017125063 0.00037867309439 0.00037718828165 0.00037571760523 0.00037426190611 0.00037282125238 0.00046687929126 0.00046455660341 
0.00046224933283 0.00045995642254 0.00045767859666 0.00045541499607 0.00045316643221 0.00045093194767 0.00044871106996 0.00044650428304 0.00044430914014 
0.00044212781251 0.00043995957424 0.00043780497028 0.00043566448511 0.00043353915753 0.00043142870272 0.00042933369804 0.00042725539989 0.00042519368307 
0.00042314938507 0.00042112278576 0.00041911488472 0.00041712669953 0.00041515841018 0.00041321138287 0.00041128738301 0.0004093878999 0.000407513635 
0.00040566788324 0.00040385087413 0.00040206376996 0.00040030648925 0.00039857924461 0.00039688041729 0.00039520850087 0.00039356215282 0.00039193877076 
0.00039033572204 0.00038875089052 0.0003871819546 0.00038562797245 0.00038408647139 0.00038255776423 0.00038104139498 0.00037953797257 0.00037804791126 
0.0003765716007 0.00037511031671 0.00037366438235 0.00046788312567 0.00046555472908 0.00046324134756 0.00046094264495 0.00045865870638 0.00045638955629 
0.00045413506465 0.00045189403852 0.0004496664243 0.00044745179237 0.00044524953108 0.00044305957099 0.00044088214424 0.00043871851225 0.00043656810944 
0.00043443122699 0.00043230863136 0.00043020104799 0.00042810924724 0.00042603363913 0.0004239754562 0.00042193442032 0.00041991264581 0.00041791032189 
0.00041592863232 0.00041396887783 0.00041203255822 0.00041012162818 0.00040823684478 0.0004063811975 0.00040455527935 0.00040275987824 0.00040099515506 
0.00039926062879 0.00039755492144 0.00039587741179 0.0003942248707 0.00039259590348 0.0003909877888 0.00038939829675 0.00038782497352 0.00038626650833 
0.0003847209606 0.00038318802432 0.00038166743975 0.00038015965914 0.00037866507243 0.00037718408369 0.00037571806449 0.00037426701551 0.00046855807398 
0.0004662255217 0.00046390778505 0.00046160525316 0.00045931739144 0.00045704379264 0.00045478477527 0.00045253964768 0.00045030685586 0.00044808681264 
0.00044587883631 0.00044368207238 0.00044149770141 0.00043932617714 0.00043716751344 0.00043502132745 0.00043288917684 0.00043077160988 0.00042866920767 
0.00042658268298 0.00042451231725 0.00042246037464 0.00042042729212 0.00041841347536 0.00041642127578 0.00041445153929 0.0004125059003 0.00041058515263 
0.00040869327515 0.0004068305466 0.00040499835433 0.00040319703793 0.00040142685066 0.00039968710506 0.00039797754344 0.00039629547131 0.00039463873886 
0.00039300603674 0.00039139435357 0.00038980127322 0.00038822473288 0.00038666280446 0.00038511396112 0.00038357756765 0.00038205346429 0.00038054220018 
0.00037904354906 0.00037755851085 0.00037608832556 0.00037463305637 0.00046892892898 0.00046658939442 0.0004642691737 0.00046196356706 0.00045967320764 
0.00045739743307 0.00045513535002 0.00045288703824 0.00045065127271 0.00044842723499 0.00044621532359 0.00044401425718 0.00044182486783 0.00043964710001 
0.00043748217071 0.00043532953686 0.00043318968399 0.00043106426174 0.00042895385455 0.00042685852115 0.00042478002204 0.00042271895259 0.00042067723886 
0.00041865555658 0.000416655273 0.00041467853016 0.0004127265214 0.00041080005359 0.00040890255744 0.00040703520969 0.00040519889755 0.00040339403691 
0.00040162049845 0.00039987789501 0.00039816535867 0.00039648072147 0.00039482170436 0.0003931863763 0.000391572584 0.00038997680324 0.0003883977549 
0.0003868333142 0.00038528227954 0.00038374302925 0.00038221590534 0.00038070106552 0.00037919929386 0.00037771024703 0.00037623595305 0.00037477649453 
0.00046902334914 0.00046668190857 0.00046435977298 0.00046205276855 0.00045976092869 0.00045748383191 0.0004552202556 0.00045296918618 0.00045073132396 
0.00044850483506 0.00044629010463 0.00044408599719 0.00044189317774 0.00043971127819 0.00043754164498 0.00043538389912 0.000433239467 0.00043110871378 
0.00042899202884 0.00042689137439 0.00042480734016 0.00042274141403 0.00042069434047 0.00041866763071 0.00041666285453 0.00041468164461 0.00041272572558 
0.00041079595939 0.00040889609679 0.00040702550288 0.00040518700855 0.00040338057539 0.00040160563458 0.00039986223397 0.00039814821073 0.00039646233341 
0.000394802089 0.00039316499802 0.00039154932494 0.0003899520575 0.00038837147413 0.00038680496926 0.00038525180254 0.00038371043498 0.00038218056013 
0.00038066251112 0.00037915724931 0.00037766505284 0.00037618723982 0.00037472410486 0.00046888976817 0.00046655136536 0.00046422482293 0.0004619171604 
0.00045962451776 0.00045734605849 0.00045508093448 0.00045282919038 0.00045059003312 0.00044836186435 0.00044614479248 0.00044393880548 0.00044174389663 
0.00043956037102 0.00043738775609 0.00043522746614 0.00043308010885 0.00043094570207 0.00042882620812 0.00042672246825 0.00042463537768 0.0004225660871 
0.0004205162112 0.00041848737744 0.00041648061041 0.00041449782038 0.00041254003028 0.00041061070442 0.00040871045541 0.00040684086658 0.00040500233467 
0.00040319601435 0.00040142161707 0.00039967782429 0.00039796371197 0.00039627743746 0.00039461654096 0.0003929786726 0.00039136178783 0.00038976334022 
0.00038818097357 0.00038661261486 0.00038505700547 0.00038351322729 0.00038198061553 0.00038045973099 0.00037895135303 0.00037745583748 0.00037597462422 
0.00037450784925 0.00046858181171 0.00046624306523 0.0004639198599 0.00046160742525 0.00045931415266 0.0004570350715 0.00045476958136 0.00045251700219 
0.00045027642613 0.0004480472657 0.00044582914087 0.00044362219833 0.00044142641728 0.00043924157039 0.00043706829234 0.00043490667748 0.00043275774051 
0.00043062288458 0.00042850287313 0.00042639811945 0.00042431022503 0.00042224050027 0.00042019033787 0.00041816145475 0.00041615533193 0.00041417395521 
0.00041221728329 0.00041028945859 0.00040839080888 0.00040652298708 0.00040468656212 0.00040288246177 0.00040110883914 0.00039936617627 0.00039765307433 
0.00039596718262 0.0003943064293 0.00039266802732 0.0003910503562 0.00038945064966 0.00038786624228 0.00038629595353 0.00038473763074 0.00038319147133 
0.00038165599418 0.00038013217726 0.00037862057711 0.00037712164279 0.00037563696739 0.00037416680271 0.00046815343237 0.00046581463714 0.00046349112989 
0.00046118292365 0.00045888430842 0.00045660466493 0.00045433898942 0.00045208556982 0.00044984417791 0.00044761431727 0.00044539560339 0.00044318789547 
0.00044099201648 0.00043880753501 0.00043663420494 0.00043447299618 0.00043232485182 0.00043019070824 0.00042807126063 0.00042596783395 0.00042388141172 
0.00042181362653 0.00041976577542 0.00041773925623 0.0004157357307 0.00041375577862 0.0004118036931 0.00040987909322 0.00040798397018 0.00040611953041 
0.00040428583648 0.00040248421771 0.00040071316504 0.00039897227648 0.00039726050631 0.00039557515102 0.0003939141093 0.00039227515675 0.00039065644671 
0.00038905528161 0.00038746913241 0.00038589650086 0.00038433646069 0.00038278735199 0.00038124910906 0.00037972229794 0.00037820725966 0.00037670472472 
0.00037521630987 0.00037374248901 0.00046766120316 0.00046532185027 0.0004629976805 0.0004606886788 0.00045838973701 0.00045610899281 0.00045384220365 
0.00045158824101 0.0004493457763 0.0004471151212 0.0004448961614 0.00044268888501 0.00044049331938 0.00043830957367 0.00043613696673 0.00043397773422 
0.00043183189314 0.00042969959236 0.00042758253413 0.0004254819627 0.00042339862619 0.0004213346946 0.0004192904049 0.00041726793834 0.00041526879158 
0.00041329330002 0.00041134548196 0.00040942526892 0.00040753417565 0.00040567403519 0.00040384496842 0.00040204668601 0.00040027833681 0.00039853954031 
0.00039682852339 0.00039514382008 0.00039348269405 0.0003918430989 0.00039022293238 0.00038861981928 0.00038703134373 0.00038545626495 0.00038389311532 
0.00038234117305 0.00038079982737 0.00037926949855 0.00037775156531 0.00037624594006 0.00037475395128 0.00037327619719 0.00046715513576 0.0004648148424 
0.00046248985261 0.00046018013977 0.00045788434453 0.00045559803328 0.00045332953654 0.00045107468807 0.0004488316204 0.00044660025185 0.00044438125022 
0.00044217398707 0.00043997952797 0.00043779639693 0.00043562605761 0.00043346934877 0.00043132610846 0.00042919779759 0.00042708399202 0.00042498737456 
0.00042290832759 0.00042084872146 0.00041880928193 0.00041679181412 0.00041479681975 0.00041282797049 0.00041088558851 0.00040897094534 0.00040708505787 
0.00040522996031 0.00040340457667 0.00040160938611 0.00039984410696 0.00039810757182 0.00039639755689 0.00039471275788 0.00039305114908 0.00039141047742 
0.00038978828485 0.00038818269704 0.00038659156363 0.00038501325691 0.00038344709049 0.00038189151909 0.00038034680993 0.00037881333679 0.00037729175712 
0.00037578264906 0.00037428673683 0.00037280464092 0.00046668178951 0.00046433983246 0.000462013102 0.00045970175458 0.00045740427458 0.0004551211323 
0.0004528467116 0.00045058998159 0.0004483454837 0.00044611384829 0.00044389455596 0.00044168765742 0.00043949363572 0.00043731290217 0.00043514515915 
0.00043299104226 0.00043085121904 0.00042872652089 0.00042661768272 0.00042452476216 0.00042245090835 0.00042039640914 0.0004183625527 0.00041635074335 
0.00041436179308 0.00041239898369 0.00041046238121 0.00040855338574 0.00040667288829 0.00040482151923 0.00040300021769 0.00040120827623 0.00039944568139 
0.00039771084345 0.00039600150854 0.00039431630144 0.00039265390501 0.00039101115941 0.00038938668179 0.00038777813228 0.00038618369692 0.00038460189914 
0.00038303192943 0.00038147250203 0.000379924059 0.00037838689767 0.00037686167169 0.00037534844484 0.00037384848422 0.00037236199746 0.00046627813359 
0.00046393412369 0.00046160525303 0.00045929164859 0.00045699214194 0.00045470676612 0.00045243441027 0.00045017167864 0.00044792634191 0.0004456940403 
0.00044347458214 0.00044126759911 0.00043907468862 0.00043689530841 0.0004347298577 0.00043257838096 0.00043044233097 0.00042832175924 0.00042621734246 
0.00042413015918 0.00042206088374 0.00042001202074 0.00041798415777 0.00041597738319 0.00041399520109 0.00041203774629 0.00041010682903 0.00040820300973 
0.00040632773459 0.00040448075608 0.00040266272645 0.00040087340702 0.00039911219145 0.00039737823286 0.00039566902175 0.00039398323383 0.0003923190677 
0.00039067405029 0.00038904618702 0.00038743424279 0.00038583609172 0.00038424991124 0.0003826760127 0.00038111267897 0.00037956018013 0.00037801882883 
0.00037648911369 0.00037497160577 0.00037346709785 0.00037197513493 0.00046597467816 0.00046362782002 0.0004612963418 0.00045898000528 0.00045667802128 
0.00045438984823 0.00045211582533 0.0004498507243 0.00044760365304 0.00044536988386 0.00044314951886 0.00044094299262 0.00043875136409 0.00043657360971 
0.00043440981117 0.00043226151929 0.00043012907332 0.00042801264909 0.00042591266004 0.0004238304235 0.00042176645859 0.00041972298459 0.00041770036824 
0.00041569907638 0.00041372227271 0.00041177063263 0.00040984447278 0.00040794582219 0.00040607399389 0.00040423057879 0.00040241534567 0.00040062812548 
0.00039886793763 0.00039713339783 0.00039542346674 0.00039373633381 0.00039206928407 0.00039042125371 0.00038878997159 0.00038717363523 0.00038557091441 
0.00038398071449 0.00038240176912 0.00038083399239 0.0003792775658 0.0003777312342 0.00037619684549 0.00037467453596 0.00037316427424 0.00037166790609 
0.00046579267473 0.00046344281853 0.00046110829615 0.00045878878281 0.00045648388278 0.00045419288596 0.00045191607974 0.00044965318829 0.0004473999675 
0.00044516451955 0.0004429436965 0.00044073727554 0.00043854640563 0.00043637030745 0.00043420942983 0.00043206376706 0.00042993429436 0.00042782147378 
0.00042572558063 0.00042364775329 0.00042158905816 0.00041954980943 0.0004175314963 0.00041553601192 0.00041356401099 0.00041161655123 0.00040969491019 
0.0004077994732 0.00040593076383 0.00040408969181 0.00040227641183 0.00040048937512 0.00039872941076 0.00039699407726 0.00039528204837 0.00039359234882 
0.00039192251895 0.00039027025396 0.00038863444503 0.00038701351647 0.00038540613997 0.00038381067771 0.00038222690208 0.00038065408359 0.00037909251601 
0.00037754140648 0.0003760014631 0.00037447369766 0.00037295819261 0.00037145609516 0.00046574825422 0.00046339472091 0.00046105634147 0.00045873365593 
0.00045642533511 0.00045413188947 0.0004518519737 0.00044958669436 0.00044733534647 0.00044509493381 0.00044287366216 0.00044066727383 0.00043847663269 
0.00043630228766 0.00043414262352 0.00043199958898 0.00042987306232 0.00042776336983 0.00042567139533 0.0004235975912 0.0004215428967 0.00041950836324 
0.00041749326566 0.00041550203056 0.00041353378442 0.00041159001082 0.00040967127988 0.00040777832057 0.00040591171732 0.00040407165801 0.000402258408 
0.00040047150029 0.00039870979128 0.00039697256607 0.00039525785782 0.0003935642022 0.00039189034404 0.00039023354026 0.00038859289096 0.00038696667142 
0.00038535372394 0.00038375270424 0.00038216342886 0.00038058480125 0.00037901741057 0.00037746064623 0.00037591510753 0.00037438095528 0.00037286008163 
0.00037135157128 0.00046585142572 0.00046349360242 0.00046115166724 0.00045882469022 0.00045651331357 0.00045421649087 0.00045193396862 0.00044966562748 
0.00044741311429 0.00044517164987 0.00044294952944 0.00044074315983 0.00043855291481 0.00043637913346 0.00043422176043 0.00043208008879 0.00042995607914 
0.00042784926924 0.00042576002378 0.00042368938899 0.00042163827217 0.00041960613016 0.00041759609529 0.00041560709112 0.00041364153476 0.00041170027496 
0.00040978320233 0.00040789153202 0.00040602556825 0.0004041856442 0.00040237159578 0.00040058334418 0.0003988186927 0.00039707820102 0.00039535942798 
0.00039366149311 0.00039198218882 0.00039031987681 0.0003886737333 0.00038704157964 0.00038542215721 0.00038381513174 0.00038221976885 0.00038063466967 
0.00037906063611 0.00037749782721 0.0003759458987 0.00037440563556 0.00037287780714 0.00037136256026 0.00046610784009 0.00046374573162 0.00046139978966 
0.00045906876225 0.00045675387145 0.00045445357525 0.00045216744752 0.00044989739415 0.00044764293203 0.00044540438748 0.00044317728279 0.00044097068114 
0.00043878053257 0.00043660734983 0.00043445126908 0.00043231145293 0.0004301892159 0.00042808444544 0.00042599774676 0.00042392968523 0.00042188096658 
0.00041985134735 0.00041784351284 0.00041585743078 0.0004138932976 0.0004119530808 0.00041003657219 0.00040814529761 0.00040627885479 0.00040443774656 
0.0004026219656 0.00040083020273 0.00039906202823 0.00039731682729 0.0003955930634 0.00039388922727 0.00039220395204 0.00039053519594 0.00038888244057 
0.00038724364306 0.00038561739774 0.00038400305478 0.00038240061138 0.00038080860874 0.00037922748576 0.00037765718497 0.00037609840205 0.00037455123097 
0.00037301589674 0.00037149335564 0.00046652045843 0.00046415350542 0.00046180295298 0.00045946794011 0.00045714903502 0.00045484486328 0.00045255683723 
0.00045028444933 0.00044802795405 0.00044578790761 0.00044356425632 0.00044135285017 0.00043916291767 0.00043698999413 0.00043483469547 0.00043269587095 
0.00043057517887 0.00042847207352 0.00042638752506 0.00042432102136 0.00042227306607 0.00042024624626 0.00041824019485 0.00041625522386 0.00041429290394 
0.00041235225762 0.0004104358174 0.00040854357304 0.00040667525114 0.00040483160223 0.00040301221792 0.00040121648035 0.00039944374956 0.00039769235851 
0.00039596240326 0.00039425172318 0.00039255926156 0.00039088320897 0.00038922253961 0.0003875757439 0.00038594190717 0.00038431988519 0.00038270913962 
0.00038110918819 0.00037952001342 0.00037794261033 0.00037637557007 0.00037482037145 0.00037327764433 0.00037174730431 0.00046708963678 0.0004647177215 
0.0004623628095 0.00046002280591 0.00045770004117 0.00045539290789 0.00045310169184 0.00045082687592 0.00044856863393 0.00044632725862 0.00044410231892 
0.00044189049074 0.00043970060407 0.00043752768092 0.00043537258612 0.00043323481399 0.00043111513984 0.000429013402 0.00042693015757 0.00042486529308 
0.0004228188 0.00042079296635 0.00041878709665 0.00041680319377 0.00041484079625 0.00041289944575 0.00041098194067 0.00040908767004 0.00040721701721 
0.00040536986212 0.00040354532339 0.00040174452927 0.00039996545973 0.00039820722337 0.0003964693226 0.00039475069843 0.00039304983285 0.00039136523239 
0.00038969600332 0.00038804011429 0.00038639731325 0.00038476677719 0.00038314722661 0.00038153830353 0.00037994077011 0.00037835348182 0.00037677835081 
0.00037521497511 0.0003736639513 0.00037212530386 0.00046781658962 0.00046543945237 0.00046307870884 0.00046073483246 0.00045840792167 0.00045609701937 
0.00045380270386 0.00045152532305 0.0004492650573 0.0004470218407 0.00044479590279 0.00044258766179 0.00044039274693 0.00043822013748 0.00043606489969 
0.00043392782493 0.00043180879415 0.00042970794495 0.00042762552378 0.00042556074826 0.00042351619233 0.00042149024743 0.00041948554536 0.00041750098699 
0.00041553764359 0.00041359637092 0.00041167642087 0.00040977913553 0.00040790452783 0.00040605217353 0.00040422230928 0.00040241437929 0.00040062781902 
0.000398861496 0.00039711477787 0.00039538689481 0.00039367624067 0.00039198186174 0.00039030246895 0.00038863650732 0.00038698390293 0.00038534304495 
0.00038371423038 0.0003820959587 0.00038048779352 0.00037889155778 0.00037730712142 0.00037573433001 0.00037417462522 0.00037262691146 0.0004687000188 
0.00046631702257 0.00046395138686 0.00046160229732 0.00045927096346 0.00045695622805 0.00045465860301 0.0004523787705 0.00045011599721 0.00044787134235 
0.00044564411163 0.00044343485981 0.0004412385438 0.00043906569372 0.00043691089921 0.00043477380621 0.00043265540534 0.00043055503458 0.00042847192641 
0.00042640889002 0.00042436468668 0.00042233973435 0.00042033479097 0.00041835009869 0.00041638541319 0.00041444206936 0.00041251977118 0.00041061834037 
0.00040873875256 0.00040688043774 0.00040504379242 0.00040322848065 0.00040143325703 0.00039965769141 0.00039790071306 0.00039616219107 0.00039444051717 
0.00039273513591 0.00039104427141 0.00038936717578 0.0003877031155 0.00038605119172 0.00038441098473 0.00038278203329 0.00038116351491 0.0003795567143 
0.00037796208561 0.00037637928253 0.00037480948091 0.00037325256089 0.00046974045509 0.00046735175798 0.00046497997736 0.00046262578951 0.00046028977101 
0.00045797038256 0.00045566910459 0.00045338601352 0.00045112080532 0.00044887395295 0.00044664522861 0.00044443501519 0.00044224290184 0.00044006494399 
0.00043790987592 0.00043577264228 0.00043365444186 0.00043155417738 0.00042947147987 0.00042740855936 0.00042536487722 0.00042334026132 0.00042133452592 
0.00041934861261 0.00041738267148 0.00041543673034 0.00041351130533 0.00041160596305 0.00040971958934 0.00040785492719 0.00040601050268 0.00040418561413 
0.00040238027276 0.00040059386999 0.00039882572806 0.00039707536656 0.00039534123248 0.00039362286701 0.00039191979148 0.00039023006766 0.00038855335902 
0.00038688917506 0.00038523641063 0.00038359545498 0.00038196598394 0.00038034820743 0.00037874232313 0.00037714879793 0.00037556855643 0.00037400179262 
0.00047094015497 0.00046854421166 0.00046616611633 0.00046380618798 0.00046146491826 0.00045914113954 0.00045683587777 0.00045454927763 0.00045228091258 
0.00045003145255 0.00044780066722 0.00044558892457 0.00044339572011 0.00044122112462 0.0004390606177 0.00043692322574 0.00043480411255 0.00043270328967 
0.00043062176422 0.00042855884405 0.00042651474629 0.00042449000823 0.00042248359915 0.00042049623132 0.00041852777535 0.00041657861421 0.00041464931812 
0.00041273872663 0.00041084698924 0.00040897384434 0.00040712000123 0.00040528535644 0.00040346924205 0.00040167087997 0.00039988981426 0.00039812607138 
0.00039637802901 0.00039464615028 0.00039292818384 0.00039122478975 0.00038953438958 0.00038785639827 0.00038619066405 0.00038453631812 0.0003828946699 
0.00038126471629 0.00037964730651 0.00037804267332 0.00037645077747 0.00037487336076 0.00047230204545 0.00046989848401 0.00046751330076 0.00046514644744 
0.00046279886214 0.000460470148 0.00045816005495 0.0004558690757 0.00045359716268 0.00045134436006 0.00044911117523 0.00044689690166 0.00044470175409 
0.00044252568958 0.00044036401023 0.00043822544126 0.00043610610574 0.0004340044985 0.00043192291986 0.00042985964364 0.00042781536332 0.0004257893254 
0.00042378162461 0.00042179261126 0.00041982134358 0.00041786893682 0.00041593416227 0.00041401766157 0.0004121188346 0.00041023667893 0.00040837310438 
0.00040652704303 0.00040469852413 0.00040288698691 0.00040109195145 0.00039931312992 0.00039755017236 0.00039580299997 0.00039406969659 0.00039235098346 
0.00039064548641 0.00038895279406 0.00038727229445 0.00038560418128 0.00038394921941 0.00038230664066 0.00038067664537 0.00037906001065 0.00037745705802 
0.00037586810154 0.00047383023598 0.00047141701395 0.00046902364275 0.00046664908034 0.00046429442065 0.00046195914967 0.00045964373128 0.0004573478276 
0.00045507140752 0.00045281470452 0.00045057760632 0.00044836010897 0.00044616244572 0.00044398399922 0.00044182511277 0.00043968072038 0.00043755906889 
0.0004354573006 0.00043337459367 0.0004313108856 0.00042926528774 0.00042723811597 0.00042522889848 0.00042323749025 0.00042126357787 0.00041930619621 
0.00041736563614 0.00041544221388 0.0004135346452 0.00041164408241 0.00040976848117 0.0004079099425 0.00040606785103 0.00040424135868 0.00040243095242 
0.00040063593115 0.00039885706572 0.00039709303088 0.00039534358178 0.00039360770874 0.00039188568179 0.00039017770463 0.0003884818007 0.00038679902724 
0.00038512908119 0.00038347267498 0.00038182950345 0.00038020031903 0.00037858527597 0.00037698499929 0.00047552799492 0.00047310477963 0.00047070163636 
0.00046831831682 0.000465955307 0.00046361249086 0.00046128993234 0.00045898797756 0.00045670579274 0.00045444396357 0.00045220258215 0.00044998093939 
0.00044777914776 0.0004455977417 0.00044343552718 0.00044129338451 0.00043916517753 0.00043706176222 0.00043497720609 0.00043291249711 0.00043086536636 
0.00042883660533 0.00042682493308 0.00042483035933 0.00042285232259 0.00042088965893 0.00041894295131 0.00041701105344 0.00041509436673 0.00041319265518 
0.00041130578389 0.00040943284455 0.00040757561369 0.00040573349677 0.00040390641024 0.00040209408339 0.00040029769426 0.00039851571121 0.00039674837513 
0.00039499527144 0.00039325559079 0.00039152959372 0.0003898175333 0.0003881189124 0.00038643370488 0.00038476230098 0.00038310561674 0.00038146325643 
0.00037983584579 0.00037822329867 0.00047740031369 0.00047496535037 0.00047255164402 0.00047015783958 0.00046778531175 0.00046543340406 0.00046310265391 
0.00046079280852 0.00045850376884 0.0004562353865 0.00045398752908 0.00045176073812 0.00044955366615 0.00044736733823 0.00044520157168 0.0004430544778 
0.00044092409712 0.00043881827858 0.00043673164094 0.00043466436247 0.00043261514968 0.00043058332991 0.00042856853214 0.00042657027831 0.00042458716576 
0.00042261880279 0.00042066404831 0.00041872327079 0.00041679619321 0.00041488220829 0.00041298182059 0.00041109483094 0.00040922115023 0.00040736172599 
0.00040551672643 0.00040368602329 0.00040187027584 0.00040006948842 0.00039828310827 0.00039651098493 0.00039475337791 0.0003930088895 0.00039127912917 
0.00038956362025 0.00038786280606 0.00038617587516 0.00038450451342 0.00038284839056 0.00038120727727 0.00037958229853 0.00047945023271 0.000477001945 
0.00047457587961 0.00047217069248 0.00046978695801 0.0004674246387 0.00046508407234 0.00046276442605 0.00046046642201 0.00045818998781 0.00045593494884 
0.00045370057139 0.00045148706172 0.00044929463875 0.00044712213612 0.00044497105448 0.00044284032632 0.00044072589375 0.00043863631635 0.00043656533769 
0.00043451295118 0.0004324777404 0.00043045876046 0.00042845528766 0.00042646602311 0.00042449023323 0.00042252718643 0.00042057612168 0.00041863697205 
0.00041671017333 0.00041479494323 0.00041289185393 0.00041100057337 0.00040912329986 0.00040725934995 0.00040540914908 0.00040357344015 0.00040175252839 
0.00039994636589 0.00039815434272 0.00039637746546 0.00039461416374 0.0003928658797 0.0003911325166 0.00038941439533 0.00038771163696 0.00038602454457 
0.00038435389512 0.0003826991431 0.00038106136988 0.00048167982516 0.00047921710994 0.00047677636134 0.00047435794327 0.00047196115664 0.00046958612683 
0.00046723380504 0.00046490333684 0.00046259506895 0.00046030845536 0.00045804355415 0.00045580044894 0.00045357830598 0.00045137802829 0.00044919796553 
0.0004470405056 0.00044490408567 0.0004427845126 0.00044068953825 0.00043861391606 0.00043655682127 0.00043451695429 0.00043249224833 0.0004304821672 
0.00042848528145 0.00042650169701 0.00042452876899 0.00042256603327 0.00042061386468 0.0004186721471 0.00041674081729 0.0004148203477 0.00041291185795 
0.0004110144584 0.00040913047512 0.00040726030952 0.00040540386879 0.00040356244929 0.00040173545064 0.00039992285047 0.0003981251429 0.00039634248864 
0.00039457480974 0.00039282295866 0.00039108718471 0.0003893675441 0.00038766438905 0.00038597829571 0.00038430966154 0.00038265833518 0.00048408845363 
0.00048160930619 0.00047915248887 0.00047671842191 0.00047430697366 0.00047191751696 0.00046955121762 0.00046720783187 0.00046488658682 0.00046258796416 
0.00046031169218 0.00045805750929 0.00045582498617 0.00045361356448 0.00045142528324 0.00044925951379 0.00044711586382 0.00044499335657 0.00044288722605 
0.00044080526513 0.00043874158199 0.00043669547999 0.00043466393627 0.00043264606631 0.00043064086137 0.00042864637466 0.0004266619518 0.00042468682624 
0.00042272011255 0.00042076250653 0.00041881408119 0.00041687532825 0.00041494771996 0.00041303126164 0.00041112585506 0.00040923461799 0.00040735719406 
0.00040549403178 0.00040364564094 0.00040181210002 0.00039999305026 0.00039818983119 0.00039640262459 0.00039463165602 0.00039287730768 0.00039113952704 