# vtk DataFile Version 5.1
vtk output
ASCII
DATASET STRUCTURED_POINTS
DIMENSIONS 50 50 50
SPACING 0.002 0.002 0.002
ORIGIN 0.1742 -0.052672 0.02732
POINT_DATA 125000
FIELD FieldData 1
potential 1 125000 double
0.0014084197656 0.0013957863604 0.0013833135538 0.0013709966768 0.0013588341915 0.0013468895381 0.0013350283401 0.0013233115872 0.0013117459127 
0.0013003146045 0.001289019616 0.0012778606143 0.0012668300061 0.0012559357083 0.0012451700402 0.001234538116 0.0012240444297 0.0012136624004 
0.0012034123892 0.001193289245 0.0011832852396 0.0011733972995 0.0011636195361 0.0011539502446 0.0011443848022 0.0011349129678 0.0011255438907 
0.0011162833282 0.0011071286585 0.0010980807223 0.0010890318193 0.0010802155908 0.0010715190906 0.0010629443882 0.0010544960333 0.001046171366 
0.0010379713765 0.0010298907925 0.0010219267457 0.0010140750051 0.0010063286995 0.00099868405182 0.00099113660056 0.00098360829254 0.00097624763977 
0.00096897665083 0.00096179447475 0.00095470449256 0.00094769997997 0.00094078489189 0.0014057687264 0.0013931987769 0.0013807857736 0.00136852821 
0.0013564253782 0.0013445356571 0.0013327294437 0.0013210738435 0.0013095548492 0.0012981732096 0.001286926543 0.001275811238 0.0012648299326 
0.0012539770927 0.0012432561721 0.0012326590169 0.0012222072677 0.0012118652252 0.0012016550349 0.0011915671665 0.0011815985528 0.0011717456698 
0.0011620047276 0.001152371867 0.0011428423882 0.0011334197915 0.0011240896337 0.001114874634 0.0011057666539 0.0010967682651 0.0010877696995 
0.0010790048352 0.0010703597628 0.0010618374896 0.0010534373213 0.001045162484 0.001037008886 0.0010289733712 0.001021050805 0.0010132370579 
0.0010055269365 0.00099791548301 0.00099039919281 0.00098289822079 0.00097556330393 0.00096831569264 0.0009611558125 0.00095408650798 0.00094710142094 
0.00094020502634 0.0014025136158 0.0013900150911 0.001377670165 0.0013654800907 0.0013534475149 0.0013416146716 0.0013298778878 0.0013182766225 
0.0013068172146 0.0012954944482 0.0012843009423 0.0012732417356 0.001262310152 0.0012515098016 0.0012408270648 0.0012302808802 0.001219872616 
0.0012095783286 0.0011994087525 0.0011893611093 0.0011794326335 0.0011696185052 0.0011599207047 0.0011503218383 0.0011408372439 0.0011314488645 
0.0011221751117 0.0011130091838 0.0011039520697 0.0010950074509 0.0010860637672 0.0010773531782 0.0010687632756 0.0010602950224 0.0010519493305 
0.0010437257933 0.0010356216078 0.0010276325327 0.0010197551344 0.0010119828766 0.0010043118844 0.00099673674615 0.00098917711985 0.00098178449329 
0.00097447866001 0.00096725892621 0.00096012797498 0.00095308062695 0.00094611934731 0.0009392455156 0.0013985243728 0.0013861043096 0.0013738378429 
0.0013617229957 0.0013497709688 0.0013380092205 0.001326335992 0.0013148041598 0.0013034121345 0.0012921523991 0.0012810231995 0.0012700243813 
0.0012591543784 0.0012484054488 0.0012377821747 0.0012272911121 0.0012169331193 0.0012066878088 0.0011965645415 0.0011865611474 0.0011766809774 
0.0011669119534 0.0011572476789 0.0011477001386 0.0011382521784 0.0011289227666 0.0011197011072 0.0011105870487 0.001101584943 0.0010925819183 
0.0010838122614 0.0010751610392 0.0010666310314 0.0010582214973 0.0010499340939 0.0010417651674 0.0010337143574 0.0010257761593 0.0010179461578 
0.0010102200126 0.0010025916023 0.00099497903394 0.00098753486406 0.00098017717473 0.00097290542588 0.00096572100358 0.00095861704081 0.00095159873861 
0.00094466676509 0.00093782129116 0.0013937008522 0.0013813682588 0.0013691888312 0.001357171049 0.0013452902349 0.001333606857 0.0013220141703 
0.0013105601506 0.0012992431067 0.0012880555384 0.0012769991957 0.0012660686808 0.0012552614858 0.0012445765041 0.0012340211353 0.0012236033311 
0.0012132900165 0.0012031035112 0.0011930328165 0.0011830811619 0.0011732475102 0.0011635207472 0.0011539142701 0.0011444081091 0.0011350227793 
0.0011257468726 0.0011165820818 0.0011075276574 0.0010985860658 0.0010896462313 0.0010809397179 0.0010723518164 0.0010638849474 0.0010555395034 
0.0010473142294 0.001039206321 0.0010312122981 0.0010233301221 0.0010155525381 0.0010078755799 0.0010002951364 0.00099272760281 0.00098532550078 
0.00097800816408 0.00097077782541 0.00096362696199 0.00095655909812 0.0009495752001 0.00094267703527 0.00093586339016 0.0013879813285 0.0013757445259 
0.0013636663906 0.0013517363755 0.0013399478587 0.0013283524607 0.0013168475682 0.0013054792007 0.0012942428227 0.001283140581 0.001272159629 
0.001261308398 0.0012505800405 0.0012399677099 0.0012294819445 0.0012191349021 0.0012088859013 0.0011987574165 0.0011887480697 0.0011788549025 
0.0011690711467 0.0011594075082 0.0011498478554 0.0011404112973 0.0011310849165 0.0011218693951 0.0011127667233 0.0011037768295 0.0010947848718 
0.0010860294943 0.0010773909197 0.0010688728258 0.0010604748526 0.0010521980289 0.0010440393212 0.0010359958185 0.0010280650734 0.0010202428087 
0.0010125226898 0.0010049007237 0.0009972934261 0.00098985580199 0.000982500402 0.00097523271247 0.00096804198795 0.00096093305114 0.00095390604673 
0.00094696032442 0.00094010078269 0.00093332679786 0.0013813469794 0.0013692156241 0.0013572410744 0.0013454071418 0.0013337674976 0.0013222201003 
0.0013108115526 0.0012995359397 0.0012883935913 0.0012773772866 0.0012664884725 0.0012557222129 0.0012450697384 0.0012345478595 0.0012241403942 
0.0012138640213 0.0012036873726 0.0011936292236 0.0011836871733 0.0011738534094 0.0011641414335 0.0011545322881 0.0011450482671 0.0011356759939 
0.0011264157851 0.001117268052 0.0011082334738 0.0010993142185 0.0010903946106 0.0010817120924 0.0010731479525 0.0010647043001 0.0010563813076 
0.0010481777142 0.0010400902357 0.0010321179534 0.0010242546618 0.0010164972967 0.0010088401799 0.0010012783749 0.00099372830766 0.00098634499484 
0.00097904280957 0.00097182515711 0.00096468221628 0.00095762053763 0.00095063953303 0.00094373985151 0.00093692452563 0.00093019317751 0.0013738062261 
0.0013617879416 0.0013499239069 0.0013381997642 0.0013266659287 0.0013152226939 0.0013039172973 0.0012927470007 0.0012817012097 0.0012707853086 
0.001259996372 0.0012493218639 0.0012387588709 0.0012283207039 0.0012179991056 0.0012078035001 0.0011977080198 0.0011877216764 0.0011778559054 
0.0011681031902 0.0011584524552 0.0011489271491 0.001139514839 0.0011302140416 0.0011210275773 0.0011119546609 0.001102995967 0.0010940340216 
0.0010853110727 0.0010767076224 0.0010682238541 0.0010598601086 0.0010516162793 0.0010434903716 0.0010354814789 0.0010275842428 0.0010197932737 
0.0010121063756 0.0010045168314 0.00099694053798 0.00098953212039 0.00098220729334 0.00097496653524 0.00096779973848 0.00096071146816 0.00095370258566 
0.00094677225569 0.00093992247178 0.00093315631681 0.00092647346837 0.0013654265476 0.0013535325324 0.0013417801714 0.0013301692861 0.0013187491241 
0.0013074196305 0.001296222246 0.0012851626646 0.0012742278082 0.0012634152282 0.0012527235038 0.0012421417104 0.0012316837972 0.0012213388398 
0.0012111092602 0.0012010038082 0.0011909875681 0.0011810936645 0.0011713118576 0.0011616302731 0.0011520716814 0.001142626596 0.0011332931595 
0.0011240728278 0.0011149660532 0.0011059745738 0.0010970984966 0.0010882204996 0.0010795806364 0.0010710620526 0.0010626632407 0.0010543842787 
0.0010462243257 0.0010381817524 0.0010302536876 0.00102243604 0.0010147228745 0.0010071101951 0.00099959328851 0.00099208608164 0.00098474301247 
0.00097748729866 0.00097030587054 0.00096319978566 0.00095617009851 0.00094921736826 0.00094234322413 0.00093554515646 0.00092883164115 0.00092220032387 
0.0013563017503 0.00134453081 0.0013328994844 0.0013214117491 0.0013101083319 0.0012988979735 0.0012878199191 0.0012768683758 0.0012660449133 
0.0012553416594 0.0012447573745 0.0012342809235 0.0012239251595 0.0012136810322 0.0012035613617 0.0011935296567 0.0011836177989 0.001173816253 
0.0011641133932 0.001154532706 0.0011450634428 0.0011357064999 0.0011264608082 0.0011173279543 0.0011083091707 0.0010994052553 0.0010906169638 
0.0010818281949 0.0010732782534 0.0010648479927 0.0010565376601 0.0010483478374 0.0010402758209 0.0010323205988 0.0010244776136 0.0010167431745 
0.0010091113556 0.0010015748229 0.00099405366237 0.00098670017363 0.00097943500448 0.00097224292807 0.0009651280357 0.00095808650953 0.00095111983941 
0.00094422569349 0.00093741069781 0.00093067352577 0.00092401720282 0.00091744157319 0.0013465598181 0.0013349118559 0.0013234110686 0.0013120452745 
0.0013008635875 0.0012897722336 0.0012788113699 0.0012679792045 0.0012572709649 0.0012466801138 0.0012361987119 0.0012258383439 0.0012155897129 
0.0012054525585 0.0011954298038 0.0011855076205 0.0011756962529 0.0011659817985 0.0011563884481 0.0011469045993 0.0011375302294 0.0011282665256 
0.0011191146269 0.001110076225 0.0011011509369 0.0010923404701 0.0010835268335 0.0010749522533 0.0010664961518 0.0010581605446 0.0010499429542 
0.0010418452986 0.0010338648629 0.0010259986349 0.0010182435438 0.0010105932364 0.0010030455407 0.00099559181184 0.00098814957927 0.00098087799446 
0.00097368156677 0.00096656171458 0.00095951404851 0.00095254141918 0.00094564009694 0.00093881351278 0.00093206161933 0.00092538603608 0.0009187898879 
0.00091227336938 0.0013363398264 0.001324822659 0.0013134450855 0.0013022060256 0.0012911481149 0.0012801800045 0.0012693408792 0.001258627205 
0.001248034679 0.0012375525667 0.0012271916775 0.0012169434673 0.0012068064026 0.0011967711346 0.0011868630988 0.001177048072 0.0011673308298 
0.001157732681 0.0011482436525 0.0011388610885 0.0011295876688 0.0011204241997 0.0011113717115 0.0011024319585 0.0010936057355 0.0010848946809 
0.0010761797592 0.0010677031939 0.0010593444778 0.0010511059076 0.001042985222 0.0010349828288 0.0010270931197 0.0010193187358 0.0010116540932 
0.0010040928441 0.00099663029931 0.00098917949246 0.00098190435927 0.0009747064851 0.00096758401083 0.00096053858448 0.00095356594272 0.00094666450408 
0.00093983205762 0.00093307217334 0.00092638661969 0.000919775116 0.00091324089258 0.00090679726776 0.001325783805 0.0013143993344 0.0013031537022 
0.0012920864253 0.0012811085105 0.001270263606 0.001259547246 0.001248952472 0.0012384773577 0.001228110991 0.0012178649844 0.0012077230064 
0.001197699671 0.0011877842739 0.001177986435 0.0011682708423 0.001158675155 0.0011491860559 0.0011398028691 0.001130527778 0.0011213600854 
0.0011123019706 0.0011033546636 0.0010945183287 0.001085794904 0.0010770641682 0.0010685725731 0.0010601969712 0.0010519391471 0.0010438003446 
0.0010357754396 0.0010278693215 0.0010200769098 0.0010123952914 0.0010048214769 0.00099734867146 0.00098989061487 0.0009826090541 0.00097541036715 
0.00096829258775 0.00096125064178 0.00095428137749 0.00094738394637 0.00094055483861 0.00093379435137 0.00092710376651 0.00092048560348 0.00091394013266 
0.00090746971932 0.0009010880114 0.0013150567264 0.001303802244 0.001292685698 0.0012817428451 0.0012708904213 0.0012601670987 0.0012495704584 
0.0012390956476 0.0012287295897 0.001218485601 0.0012083481025 0.0011983287433 0.0011884192029 0.0011786292056 0.0011689208056 0.0011593300879 
0.0011498468242 0.0011404689206 0.0011311958573 0.001122031017 0.0011129722453 0.0011040231345 0.0010951824048 0.0010864527507 0.0010778353546 
0.0010692100768 0.0010608223671 0.001052547614 0.0010443907232 0.0010363524042 0.001028429312 0.001020621045 0.0010129233341 0.0010053349828 
0.0009978486659 0.00099046447509 0.00098309326302 0.00097589829295 0.00096878187231 0.00096174454907 0.00095478119171 0.0009478897923 0.00094106721464 
0.00093431252923 0.00092762449704 0.00092100399218 0.00091445452219 0.00090797666613 0.00090158225419 0.00089525130977 0.0013042894987 0.0012931647725 
0.0012821755892 0.0012713565922 0.0012606275696 0.0012500239761 0.0012395446851 0.0012291869869 0.0012189375347 0.0012088013934 0.0011987856705 
0.0011888801032 0.0011790854103 0.001169396695 0.0011598140919 0.0011503377731 0.0011409671355 0.0011317022686 0.0011225417003 0.0011134874264 
0.0011045401835 0.0010957007769 0.0010869691228 0.0010783474052 0.0010697127513 0.0010613166099 0.0010530338949 0.0010448651761 0.0010368106167 
0.0010288732946 0.0010210481054 0.0010133333178 0.0010057309006 0.00099823564899 0.00099084134427 0.00098346251508 0.00097626455257 0.00096914799749 
0.00096211300237 0.00095515576614 0.00094827129431 0.00094145654373 0.00093471040401 0.00092802914329 0.00092141395116 0.00091486469419 0.00090838423146 
0.00090198406389 0.00089564325752 0.00088937379583 0.0012936096488 0.0012826109549 0.0012717454611 0.0012610464995 0.0012504375217 0.0012399541923 
0.0012295896984 0.0012193384792 0.0012092021739 0.0011991877721 0.0011892851187 0.0011794922857 0.0011697986057 0.0011602349044 0.0011507656403 
0.0011414030517 0.0011321454598 0.0011229930492 0.0011139456276 0.0011050021992 0.0010961662319 0.0010874346511 0.0010788124912 0.0010702990753 
0.0010617743379 0.0010534845705 0.0010453063888 0.0010372408829 0.0010292856682 0.0010214463082 0.0010137188225 0.0010061014365 0.00099859266328 
0.00099118870945 0.00098388265685 0.0009765963239 0.00096947756605 0.00096244282591 0.00095548881479 0.00094861065276 0.0009418041382 0.00093506584141 
0.00092839433561 0.00092178656309 0.00091524298171 0.00090876452221 0.00090236362872 0.0008960175819 0.00088973967465 0.00088353234791 0.0012831170285 
0.0012722414738 0.0012614964128 0.0012509143609 0.0012404226699 0.0012300539422 0.00121978865 0.001209656123 0.0011996398459 0.0011897365638 
0.0011799452766 0.0011702516198 0.0011606800276 0.0011512273475 0.0011418694593 0.0011326174596 0.0011234717857 0.0011144293579 0.0011054927111 
0.0010966604951 0.0010879336166 0.0010793139854 0.0010708006503 0.0010622716521 0.001053976315 0.0010457880191 0.0010377131579 0.0010297487097 
0.0010218959151 0.0010141543215 0.0010065220012 0.00099899773201 0.00099157931323 0.00098426387668 0.00097696921548 0.00096984432903 0.00096280796758 
0.00095585448151 0.00094897908954 0.00094217868186 0.00093544895733 0.0009287852235 0.00092218736234 0.00091565197516 0.00090917901205 0.00090276933154 
0.00089643406113 0.00089015212934 0.00088393562137 0.00087778583325 0.0012728941824 0.001262137297 0.0012515419864 0.0012410412594 0.0012306633858 
0.0012203986216 0.0012102523519 0.0012002284175 0.0011903201379 0.001180524672 0.0011708290799 0.0011612555081 0.0011517935553 0.0011424491829 
0.0011331968188 0.0011240547994 0.0011150188216 0.0011060875609 0.0010972596572 0.0010885360415 0.0010799171161 0.0010714043738 0.0010629944599 
0.0010545706376 0.0010463785243 0.0010382955223 0.0010303202706 0.0010224554537 0.0010146985937 0.0010070522127 0.00099951294641 0.00099207989283 
0.00098475015682 0.00097744350222 0.00097031026601 0.00096326854632 0.00095631167906 0.00094943725016 0.00094263971985 0.00093591457144 0.00092925837424 
0.00092266842102 0.00091614136798 0.00090967607405 0.00090327322368 0.00089693992334 0.00089065699164 0.00088443630853 0.00087827795458 0.00087218478743 
0.0012630004018 0.0012523598377 0.0012418743368 0.0012314847175 0.0012212101264 0.0012110533837 0.0012010222704 0.0011911057602 0.0011813023022 
0.0011715998563 0.0011620192408 0.0011525509831 0.0011432048109 0.0011339560343 0.0011248137043 0.0011157770426 0.0011068466778 0.001098020691 
0.0010892959901 0.0010806773253 0.0010721629985 0.0010637531828 0.001055325205 0.0010471270453 0.0010390352384 0.0010310500848 0.0010231723059 
0.0010154022526 0.001007739105 0.0010001842501 0.0009927352309 0.00098538846642 0.00097815182969 0.00097092264589 0.00096387074185 0.00095690876337 
0.0009500314556 0.00094323230115 0.000936508987 0.00092985763527 0.00092327420273 0.00091675395014 0.00091029632695 0.00090389861452 0.00089757193399 
0.00089129105637 0.00088506831188 0.00087890554136 0.00087280376821 0.00086676363224 0.001253474109 0.0012429447699 0.0012325620826 0.0012222815864 
0.0012121128643 0.00120207162 0.0011921411746 0.0011823280949 0.0011726142998 0.0011630261535 0.0011535503537 0.0011441842498 0.0011349391 
0.0011257938678 0.0011167505104 0.0011078166697 0.0010989882563 0.0010902638862 0.0010816433782 0.0010731257808 0.0010647114995 0.0010564011886 
0.0010480718197 0.001039971558 0.0010319754244 0.0010240849084 0.0010163000563 0.0010086213864 0.0010010483787 0.00099358084433 0.00098621718241 
0.00097896307186 0.00097171741205 0.00096465263475 0.00095767952114 0.00095079385646 0.0009439919567 0.00093726690041 0.00093061635485 0.00092403561457 
0.00091752112201 0.00091106902685 0.00090467724969 0.00089834302714 0.00089207785308 0.00088585693802 0.00087969239894 0.00087358307239 0.00086753488639 
0.0008615442635 0.0012443458716 0.0012339143549 0.0012236444921 0.0012134677173 0.0012034031176 0.0011934629735 0.0011836363754 0.0011739114618 
0.0011643121212 0.0011548244351 0.0011454453873 0.0011361785108 0.0011270315342 0.0011179833612 0.0011090422417 0.0011002054132 0.0010914734379 
0.0010828468221 0.0010743225083 0.0010659012953 0.0010575833783 0.0010492433834 0.0010411328532 0.0010331252308 0.0010252203816 0.001017420248 
0.0010097238158 0.0010021320056 0.000994644316 0.00098726130782 0.00097998700411 0.00097280682559 0.00096563948783 0.00095865180518 0.00095175386004 
0.00094494250641 0.00093821206012 0.00093155831987 0.00092497796759 0.00091846494911 0.00091201569008 0.00090562831559 0.00089929953671 0.00089303649107 
0.00088681734801 0.00088065299161 0.00087454133641 0.00086848483729 0.00086248461051 0.00085654060248 0.0012356192786 0.0012253022081 0.0012151337508 
0.0012050495846 0.0011950938642 0.0011852523866 0.0011755095854 0.0011658945731 0.0011563918843 0.001147000925 0.0011377185523 0.0011285566594 
0.0011194940201 0.0011105395016 0.0011016932214 0.0010929511787 0.001084314117 0.0010757799833 0.0010673484143 0.0010590192531 0.0010507914932 
0.001042542377 0.0010345203229 0.001026600986 0.0010187831354 0.0010110681605 0.0010034554391 0.00099594676063 0.00098853883238 0.00098124287618 
0.00097404042075 0.00096685200594 0.0009598440011 0.00095292909918 0.00094610345351 0.00093936206546 0.00093270115236 0.00092611480689 0.00091960080568 
0.00091315265127 0.00090676645919 0.00090043872336 0.00089417973691 0.00088796232205 0.00088179749199 0.0008756828193 0.00086962270863 0.0008636136578 
0.00085765794589 0.00085175684425 0.0012273200541 0.0012171254039 0.001207021602 0.0011970442116 0.0011871851556 0.0011774271369 0.0011677946597 
0.0011582743088 0.0011488648683 0.0011395665284 0.0011303775341 0.0011213058314 0.0011123347408 0.0011034703488 0.0010947136927 0.0010860600046 
0.0010775114806 0.0010690653166 0.0010607218452 0.0010524789443 0.0010442124728 0.0010361741976 0.0010282375628 0.0010204011316 0.0010126658733 
0.0010050313683 0.00099749862618 0.00099006810377 0.00098274569665 0.00097551734204 0.00096830400584 0.00096127273008 0.00095433631513 0.00094748989181 
0.00094073266921 0.00093405815484 0.00092746282681 0.00092094081332 0.00091448858236 0.0009081010057 0.00090177392134 0.00089551483222 0.00088929795031 
0.00088313290387 0.0008770178732 0.00087095271317 0.00086493709655 0.00085897098487 0.0008530575764 0.00084719590077 0.0012194350153 0.0012093291185 
0.001199330366 0.001189435004 0.0011796697773 0.0011700171178 0.0011604762613 0.0011510469141 0.0011417284554 0.0011325198747 0.0011234192088 
0.0011144353306 0.0011055512525 0.0010967731594 0.0010881012656 0.0010795332382 0.0010710689246 0.0010627064167 0.0010544460856 0.0010462855511 
0.0010381015586 0.0010301433224 0.0010222843414 0.0010145264816 0.0010068693395 0.00099931031582 0.00099185263742 0.00098450308194 0.00097724662492 
0.00097008895433 0.0009629440801 0.00095598275233 0.00094911275272 0.00094233185881 0.0009356380613 0.00092902671688 0.00092249275865 0.00091603120571 
0.0009096379303 0.00090330644522 0.00089704533373 0.0008908280023 0.00088466214678 0.00087854462637 0.00087247453354 0.00086645255541 0.0008604791424 
0.00085455422088 0.00084867833458 0.00084285299885 0.0012119658892 0.0012019520958 0.0011920326717 0.0011822421029 0.0011725669568 0.0011630035487 
0.0011535514765 0.0011442100697 0.0011349785693 0.0011258563567 0.0011168410414 0.0011079418722 0.001099139397 0.0010904445804 0.0010818531122 
0.0010733659494 0.0010649814193 0.0010566987732 0.0010485163625 0.001040308693 0.0010323278196 0.0010244448481 0.0010166619532 0.0010089773375 
0.0010013924127 0.00099390644876 0.00098652752667 0.00097923856541 0.0009720493681 0.00096487252295 0.00095787787759 0.00095097808561 0.00094417059957 
0.00093745154066 0.00093081727307 0.00092426473782 0.00091778784286 0.00091138223257 0.00090504264837 0.00089876344448 0.00089255320766 0.00088638395081 
0.00088026700993 0.00087419254733 0.00086816437098 0.00086218313415 0.0008562476259 0.00085035821566 0.00084451764075 0.00083872510801 0.0012048966378 
0.0011949685128 0.0011851509807 0.0011754471891 0.0011658592656 0.0011563814796 0.0011470148072 0.0011377586275 0.0011286100491 0.0011195702897 
0.0011106446073 0.0011018173214 0.00109309399 0.0010844773439 0.0010759642499 0.0010675533333 0.0010592453103 0.0010510371254 0.0010428022156 
0.0010347951977 0.0010268866607 0.001019076081 0.0010113635618 0.0010037492877 0.00099623283364 0.0009888221077 0.00098150024866 0.00097427632501 
0.00096706485497 0.00096003440946 0.0009531003364 0.00094626165302 0.0009395122361 0.00093284997489 0.00092627133503 0.000919772979 0.00091334878358 
0.00090699503664 0.00090070489683 0.00089448512878 0.00088830918024 0.00088218422823 0.0008761066583 0.00087007222746 0.00086408298386 0.00085813675253 
0.00085223574311 0.00084637887918 0.00084056863547 0.00083480648314 0.001198243638 0.0011883959339 0.0011786626286 0.001169044082 0.0011595400627 
0.001150145965 0.0011408611831 0.0011316857407 0.0011226174439 0.0011136565228 0.0011048084447 0.0010960583146 0.0010874124526 0.0010788689942 
0.0010704298191 0.0010620910744 0.0010538549732 0.0010457172924 0.0010375535936 0.0010296158588 0.0010217765853 0.0010140340787 0.0010063877939 
0.0009988388481 0.00099139463192 0.00098403859439 0.0009767788753 0.00096961486796 0.0009624613731 0.00095548898979 0.00094861065708 0.00094182424919 
0.00093512760658 0.00092851735966 0.00092198987048 0.00091554161757 0.00090916541978 0.0009028573482 0.000896624647 0.00089043721682 0.00088430248219 
0.00087821764677 0.00087217461721 0.00086617839407 0.00086022399843 0.00085431101064 0.00084844037132 0.00084261247607 0.00083683028456 0.00083109577563 
0.0011919837223 0.00118221797 0.0011725667954 0.0011630298934 0.0011536061796 0.0011442909394 0.0011350850581 0.0011259870958 0.001116994861 
0.0011081081372 0.0010993345523 0.0010906574461 0.0010820840784 0.0010736123064 0.001065240781 0.0010569715611 0.0010488017153 0.0010406060786 
0.001032636214 0.0010247639225 0.0010169889279 0.0010093107853 0.0010017274702 0.00099424816432 0.00098685477217 0.00097955712076 0.00097235529008 
0.00096516181538 0.00095814837164 0.00095122843011 0.00094440085281 0.00093766449732 0.00093101666529 0.00092445372461 0.00091797205423 0.00091156826431 
0.00090523515876 0.00089898153698 0.00089277673043 0.00088662893066 0.00088053226224 0.00087447926217 0.00086847356367 0.00086250885967 0.00085658536094 
0.00085070142743 0.00084485869654 0.00083905823247 0.00083329996643 0.00082759039985 0.0011861202058 0.001176433744 0.0011668612663 0.001157401176 
0.0011480533509 0.0011388148895 0.0011296835465 0.0011206588176 0.0011117387375 0.0011029314057 0.0010942206781 0.0010856123634 0.0010771066665 
0.0010687020917 0.0010603964615 0.0010521911287 0.001044086012 0.0010359540571 0.0010280477403 0.0010202373903 0.0010125236116 0.0010049047727 
0.00099738910099 0.0009899590081 0.0009826215486 0.00097537975782 0.00096814400975 0.00096108796034 0.00095412460575 0.00094725248742 0.00094047158037 
0.00093377983144 0.00092717593775 0.00092065586002 0.00091421556221 0.00090785086488 0.00090155673153 0.0008953405122 0.0008891718517 0.00088305894391 
0.00087699174856 0.00087097400085 0.00086499807815 0.00085906235116 0.00085316690377 0.00084730903607 0.00084149105848 0.00083571452456 0.00082998103303 
0.00082429385475 0.0011806531473 0.001171041046 0.0011615433165 0.0011521566334 0.0011428812073 0.0011337141162 0.0011246538065 0.0011156987143 
0.0011068479613 0.001098107669 0.0010894623641 0.0010809196566 0.0010724779276 0.0010641360979 0.0010558938351 0.0010477488596 0.0010395781791 
0.0010316328559 0.0010237849501 0.0010160335538 0.0010083767377 0.0010008236986 0.00099335473599 0.00098597872378 0.00097869536205 0.00097150214396 
0.00096431619487 0.00095730789661 0.00095038881727 0.00094356115902 0.00093682137678 0.00093017017002 0.0009236052491 0.00091712200789 0.00091071826213 
0.00090438857153 0.00089814107428 0.00089194652248 0.00088581047739 0.00087972682626 0.00087368850023 0.00086769966224 0.00086175049828 0.0008558406647 
0.00084996841567 0.0008441345965 0.00083833927757 0.00083258549254 0.00082687461657 0.00082120908583 0.0011755799943 0.0011660396801 0.0011566125146 
0.0011472953819 0.0011380884249 0.001128988683 0.0011199943333 0.0011111056827 0.0011023188904 0.0010936419189 0.0010850593471 0.0010765777784 
0.001068194917 0.0010599128523 0.0010517278714 0.0010436423753 0.0010355281573 0.0010276394261 0.0010198466487 0.0010121511647 0.0010045578682 
0.00099704905225 0.00098963184505 0.0009823062313 0.00097507167869 0.00096784031424 0.0009607857802 0.00095381955823 0.00094694197231 0.00094015259396 
0.00093345104858 0.00092683553301 0.00092030328758 0.00091385369913 0.00090748190153 0.00090119409253 0.00089496512061 0.00088879904813 0.00088269082747 
0.00087663084141 0.00087062204567 0.00086465671524 0.00085873190636 0.0008528450918 0.00084699483273 0.00084118171263 0.00083540802064 0.00082967481543 
0.00082398446243 0.00081833894267 0.0011709017559 0.001161428471 0.0011520683986 0.001142816732 0.0011336742218 0.0011246373622 0.0011157055283 
0.0011068776286 0.0010981587743 0.0010895336263 0.001081008433 0.0010725848338 0.0010642574147 0.0010560293454 0.0010478997379 0.0010397416981 
0.0010318076698 0.0010239723954 0.0010162323782 0.0010085978821 0.0010010465968 0.00099358629468 0.00098621797883 0.00097894052412 0.00097166498104 
0.00096456404088 0.0009575502412 0.00095062305691 0.00094378245896 0.00093702807838 0.00093035957199 0.00092377569202 0.00091727471998 0.00091085343408 
0.00090452014655 0.00089824800741 0.00089204425215 0.00088590341443 0.00087981474233 0.00087378220551 0.0008677972037 0.00086185292111 0.00085594897535 
0.00085008220699 0.00084425305035 0.00083845939323 0.00083270538846 0.00082699127849 0.00082131917035 0.00081569318811 0.0011666148262 0.0011572050456 
0.001147907953 0.0011387181359 0.0011296359044 0.0011206581129 0.0011117850494 0.0011030129743 0.0010943490246 0.0010857790987 0.0010773085775 
0.0010689370802 0.0010606619632 0.0010524841281 0.0010442785205 0.0010362984358 0.0010284150216 0.0010206273284 0.0010129472716 0.0010053510998 
0.00099784835172 0.000990436371 0.0009831143867 0.00097588007417 0.00096864720029 0.00096158615664 0.00095461057292 0.00094771899742 0.00094091107609 
0.00093418837008 0.00092754906552 0.00092099244955 0.00091451731363 0.0009081324395 0.00090181169446 0.00089556234012 0.00088938077693 0.00088326139571 
0.00087719403036 0.00087118168082 0.00086521657012 0.00085929203103 0.00085340676641 0.00084755859439 0.00084174695779 0.00083597200084 0.00083023514129 
0.00082453904975 0.00081888548069 0.0008132787349 0.0011627139152 0.0011533654935 0.0011441258143 0.0011349944658 0.0011259672569 0.00111704384 
0.0011082244417 0.0010995047185 0.0010908930037 0.0010823734269 0.001073953273 0.0010656294971 0.0010574020938 0.0010492722995 0.001041114305 
0.0010331812211 0.0010253547395 0.0010176135551 0.0010099693421 0.001002418851 0.00099496156339 0.00098759433125 0.00098031396769 0.00097303502158 
0.00096592693708 0.00095890375019 0.00095196230654 0.00094510294537 0.00093832544108 0.0009316299166 0.00092501605723 0.0009184832639 0.00091204219977 
0.00090566729088 0.00089936665263 0.00089313789876 0.00088697550582 0.000880870338 0.00087482615071 0.0008688319968 0.00086288397262 0.00085697721827 
0.00085110899062 0.00084527737367 0.00083948276749 0.00083372491564 0.00082800515063 0.00082232587731 0.00081669039551 0.00081110140965 0.0011591910825 
0.0011498991364 0.001140713108 0.001131633646 0.0011226591258 0.001113786051 0.0011050155507 0.0010963520516 0.0010877804809 0.0010793072792 
0.0010709329133 0.0010626539723 0.0010544707913 0.0010462580131 0.0010382701776 0.0010303905285 0.0010225977225 0.0010149010473 0.0010072983744 
0.0009997910775 0.00099237491679 0.00098504966103 0.00097772356334 0.0009705692832 0.00096349820793 0.00095650794516 0.00094959839429 0.00094276902359 
0.00093601814187 0.00092934728645 0.00092275616047 0.00091624436204 0.00090982303279 0.00090346713282 0.0008971844562 0.00089097296104 0.00088482260136 
0.00087873878956 0.00087271096934 0.00086673340052 0.00086080046294 0.00085490978708 0.00084905743908 0.00084324241544 0.00083746351114 0.00083171957794 
0.00082601564465 0.00082035278132 0.00081473469253 0.00080916310097 0.001156023716 0.0011467849044 0.0011376502238 0.0011286212902 0.00111969482 
0.0011108683777 0.0011021434722 0.0010935226357 0.0010849948168 0.0010765644294 0.0010682317099 0.0010599937519 0.0010518507953 0.0010436798855 
0.0010357424144 0.0010278919331 0.0010201390265 0.0010124824511 0.0010049195368 0.00099745229929 0.00099007610167 0.00098278796775 0.00097550106499 
0.00096838253281 0.00096134517762 0.00095438647052 0.00094750593354 0.0009407040415 0.00093397767791 0.00092732836022 0.00092075790925 0.00091427622126 
0.00090786109333 0.00090152183457 0.00089525610473 0.0008890541618 0.00088292442635 0.00087685584054 0.00087084309253 0.00086487882167 0.00085896143306 
0.00085308548618 0.00084724840092 0.00084144786891 0.0008356833729 0.00082995556357 0.00082426728703 0.00081862062328 0.00081301869128 0.00080746447729 
0.001153184781 0.0011439952046 0.0011349092677 0.001125926947 0.0011170440448 0.0011082621689 0.0010995785835 0.0010909983821 0.0010825101974 