# vtk DataFile Version 5.1
vtk output
ASCII
DATASET STRUCTURED_POINTS
DIMENSIONS 50 50 50
SPACING 0.002 0.002 0.002
ORIGIN 0.1742 -0.052672 0.02732
POINT_DATA 125000
FIELD FieldData 1
potential 1 125000 double
0.0059411818968 0.005848873634 0.005758514239 0.0056700367979 0.0055834068311 0.0054986042042 0.0054155246088 0.0053341469843 0.0052542266425 
0.0051761322772 0.0050995941436 0.0050245972201 0.0049511709266 0.0048791329873 0.0048084914243 0.0047392924789 0.0046717187023 0.0046051813555 
0.0045400134941 0.0044761589501 0.0044135566115 0.0043521773764 0.0042919763812 0.0042329303872 0.0041750023192 0.0041179604729 0.004061863961 
0.0040071233454 0.0039534148527 0.0039007081045 0.0038495123748 0.0037987921528 0.0037490475027 0.0037002610934 0.0036524230393 0.003605500282 
0.0035594730118 0.0035143019411 0.0034699562559 0.0034264025899 0.0033836004081 0.0033415239629 0.0033001457314 0.0032594342662 0.0032193945887 
0.0031800032091 0.0031412501204 0.0031030392508 0.0030655618492 0.0030287140313 0.0059036103503 0.0058124960854 0.0057232742264 0.0056359001545 
0.0055503327701 0.0054665489231 0.0053844545575 0.0053038155527 0.0052250194058 0.0051478011576 0.005072103354 0.0049979970593 0.004925269313 
0.0048539489911 0.0047840591636 0.0047156070298 0.0046485975533 0.0045827255246 0.0045181861051 0.0044549125027 0.0043928737972 0.0043320346745 
0.0042723634125 0.0042138268949 0.004156217456 0.0040998569314 0.0040442150429 0.0039899405685 0.0039366828951 0.0038844222648 0.0038336609062 
0.0037833663691 0.0037340365236 0.0036856587292 0.0036382059023 0.003591670332 0.0035460141568 0.0035012036506 0.0034572052275 0.0034139847287 
0.0033715104547 0.0033297499049 0.0032886804402 0.0032482631504 0.0032085120221 0.0031693982506 0.00313092023 0.0030929724572 0.0030557546357 
0.0030191616267 0.0058636853264 0.0057738031177 0.0056857532966 0.005599516956 0.0055149950673 0.0054323148005 0.0053510276849 0.0052715809535 
0.0051937337077 0.0051174290932 0.0050426869099 0.0049693397487 0.0048973972337 0.0048268844272 0.0047577639761 0.0046899616492 0.004623660217 
0.0045584774397 0.0044945692419 0.0044319041211 0.004370450898 0.0043101763444 0.0042510683711 0.0041928669194 0.004135948233 0.0040797603225 
0.0040249448073 0.0039711548811 0.0039183675338 0.0038665794388 0.0038162767954 0.0037664247303 0.0037175303982 0.0036695731209 0.0036225372655 
0.0035763988365 0.0035311281153 0.0034866910946 0.0034430553986 0.0034001854928 0.0033580517885 0.0033166220662 0.0032758575265 0.0032357661142 
0.0031963177758 0.0031575009626 0.0031192038642 0.003081644909 0.0030447046223 0.0030083823327 0.0058208702352 0.0057322504466 0.0056454281466 
0.0055603680478 0.0054767630095 0.005395187372 0.0053151724041 0.0052367515331 0.0051598877362 0.0050846019864 0.0050106828975 0.0049382112641 
0.0048671463915 0.0047973959555 0.0047291070793 0.0046620743023 0.0045964873966 0.0045319990559 0.0044687549138 0.0044067221651 0.0043459036578 
0.0042862231643 0.0042274729226 0.0041700220729 0.0041133068796 0.0040579879501 0.004003696128 0.0039504120248 0.003898124362 0.0038473431444 
0.0037970049275 0.0037476242775 0.0036991907473 0.0036516813114 0.0036050823268 0.0035593616658 0.00351449795 0.003470454476 0.0034271987312 
0.0033846995001 0.0033429235362 0.0033018284431 0.0032614160669 0.0032216521859 0.0031825279645 0.0031439108097 0.0031060334468 0.0030687763225 
0.0030321358622 0.002996108291 0.0057747496799 0.0056874382892 0.0056018892636 0.0055177779898 0.0054356388456 0.0053551984819 0.0052762929701 
0.0051989421601 0.0051231076454 0.0050487899222 0.0049758462754 0.0049042939671 0.0048340768758 0.0047653041948 0.0046977679648 0.0046317066617 
0.0045667031603 0.0045029630042 0.0044404143548 0.0043790580961 0.0043188686673 0.0042596121851 0.0042016693275 0.0041444627877 0.0040886689805 
0.0040339080063 0.0039801687308 0.0039274273139 0.0038756698568 0.0038254123438 0.0037755829952 0.0037266982825 0.003678749006 0.0036317171831 
0.0035855793186 0.0035403066947 0.0034958709246 0.0034522471982 0.0034093957174 0.0033672871245 0.0033258927119 0.0032851681358 0.0032451145597 
0.0032057025365 0.0031667952525 0.0031286371509 0.0030910926751 0.0030541591249 0.0030178390149 0.0029821212997 0.0057250800098 0.0056391202405 
0.005554655323 0.0054720510277 0.0053911457579 0.0053118921599 0.0052341376612 0.0051578856881 0.0050831759206 0.0050098515106 0.0049378714825 
0.0048673005087 0.0047980549153 0.0047301845111 0.0046635144885 0.0045982997114 0.0045340950388 0.0044711026767 0.0044093012555 0.0043486567704 
0.0042889501828 0.0042305557448 0.0041729081692 0.0041166839712 0.0040614978282 0.0040073344154 0.0039541788464 0.0039020117 0.0038513453189 
0.0038011129577 0.0037518214818 0.0037034693779 0.003656036409 0.0036095092089 0.0035638587813 0.0035190577103 0.003475082128 0.0034319019867 
0.0033894801675 0.0033477891947 0.003306784273 0.0032664710514 0.0032267986789 0.0031876331273 0.0031492192658 0.0031114205402 0.003074229782 
0.0030376379048 0.0030016598084 0.0029662860847 0.0056715163543 0.0055869700766 0.0055040508411 0.0054228207408 0.0053432451947 0.0052651706809 
0.0051886036836 0.0051135803408 0.0050399260952 0.0049676461558 0.0048967576686 0.0048271963014 0.0047589998149 0.0046920188924 0.0046262584482 
0.0045618954421 0.0044985331275 0.0044363556655 0.0043753339779 0.0043152392591 0.0042564633697 0.0041984220604 0.0041418183147 0.0040862555686 
0.0040317173753 0.0039781895553 0.0039256541832 0.0038740961498 0.0038240257887 0.003774377191 0.0037256616436 0.0036778699692 0.0036309876684 
0.0035849928556 0.0035398572263 0.0034955620715 0.0034520714765 0.0034093616108 0.0033673979659 0.003326150584 0.00328557528 0.003245678661 
0.0032064172651 0.0031676461698 0.0031296175435 0.0030922023191 0.0030553886957 0.0030191733386 0.0029835616694 0.0029485473827 0.0056146426168 
0.0055315448877 0.0054500286465 0.0053701569286 0.0052918882584 0.0052150796721 0.0051398238864 0.0050659491971 0.0049934218702 0.0049223012531 
0.0048525270541 0.004784014755 0.0047168325046 0.0046508142176 0.0045860130927 0.0045225541204 0.0044600806222 0.004398550981 0.0043383582484 
0.0042792653288 0.0042208965998 0.0041639678454 0.0041080846003 0.004053222198 0.0039993749452 0.0039465208332 0.0038946438093 0.0038442602978 
0.0037942873842 0.0037452584221 0.0036971505621 0.0036499523304 0.0036036471904 0.0035582108263 0.0035136268799 0.0034698630299 0.0034268842997 
0.0033846728841 0.0033431925 0.0033023989421 0.0032622924336 0.0032228351101 0.0031838632137 0.0031456482385 0.0031080399301 0.0030710335867 
0.0030346189128 0.0029987973961 0.0029635748132 0.0029289442368 0.0055544801892 0.0054728107111 0.0053927853441 0.0053142877472 0.0052373845661 
0.0051619606606 0.0050878826668 0.0050152479753 0.0049439730175 0.0048740102629 0.0048053383028 0.0047379892299 0.0046717952431 0.0046067936326 
0.0045429770289 0.0044804731012 0.0044187074667 0.0043582842913 0.0042989547714 0.0042403350351 0.0041831445261 0.0041270033381 0.0040718794195 
0.0040177634354 0.0039646396412 0.0039124953639 0.0038613133663 0.0038116086239 0.0037622992611 0.0037139220335 0.0036664508746 0.0036198727916 
0.0035741714344 0.003529325056 0.0034853119551 0.0034421040432 0.0033996665745 0.0033579754656 0.0033170026489 0.0032767000032 0.0032370651174 
0.0031979278813 0.0031595629303 0.0031217928548 0.0030846216808 0.0030480406831 0.0030120492568 0.0029766332071 0.0029418173816 0.0029075876919 
0.0054914365132 0.0054112611219 0.0053326883957 0.0052556346419 0.0051801644778 0.0051060133789 0.005033276467 0.0049618806443 0.0048918311117 
0.0048230596962 0.004755543893 0.0046893187866 0.0046242077292 0.0045602591158 0.0044976253007 0.0044357164234 0.0043751378536 0.0043156417941 
0.0042568426661 0.0041994691449 0.0041431319839 0.0040878124502 0.0040334908096 0.0039801570676 0.0039277966135 0.0038763960664 0.0038259373103 
0.003776940918 0.0037283277266 0.0036806256792 0.0036338130856 0.0035878823585 0.0035428091861 0.0034985759176 0.0034551572236 0.0034125264869 
0.0033706513348 0.0033294932105 0.0032890332757 0.0032492574317 0.0032099769784 0.0031714764128 0.0031335848659 0.0030962831555 0.0030595677049 
0.003023425815 0.0029878733488 0.0029528998586 0.002918511067 0.0028846999493 0.0054259586438 0.0053473705509 0.0052703105158 0.0051946662323 
0.0051205940499 0.0050478117969 0.004976380492 0.0049062889985 0.0048374877316 0.0047699251378 0.004703656628 0.004638495126 0.0045744893921 
0.0045116285821 0.0044498225749 0.0043891493995 0.0043295586819 0.0042706485329 0.0042131613374 0.0041566965985 0.0041012367101 0.0040467695334 
0.0039932816462 0.0039407616895 0.0038891936305 0.0038385640323 0.0037893989704 0.0037406012539 0.0036927055203 0.0036457076125 0.0035995788462 
0.003554312879 0.0035098882293 0.0034662830405 0.0034234759493 0.0033814311622 0.0033401337937 0.0032995417545 0.003259624814 0.0032202181541 
0.0031816103794 0.0031436139069 0.0031062047097 0.0030693885366 0.0030331440839 0.0029974760907 0.0029623803906 0.0029278560866 0.0028939088846 
0.0028605348423 0.0053588179825 0.0052817664514 0.0052061490118 0.0051320229429 0.0050593123185 0.0049879012416 0.0049178053456 0.0048490043817 
0.0047814534647 0.004715197741 0.0046500349534 0.0045860272883 0.0045231543256 0.0044611690218 0.0044006435368 0.0043410100508 0.0042820545965 
0.0042245110017 0.0041679864636 0.0041124490815 0.0040578947347 0.0040043104976 0.0039516813649 0.003899999001 0.0038492481063 0.0037994175263 
0.003751025514 0.003702985108 0.003655827224 0.0036095480106 0.0035641225095 0.0035195376826 0.0034757654638 0.0034328033202 0.003390622796 
0.0033491889548 0.0033084779084 0.0032684436375 0.0032289282225 0.0031902287751 0.0031521393179 0.0031146568235 0.0030777637187 0.0030414444055 
0.0030056855142 0.0029704942003 0.0029358690179 0.0029018062888 0.0028683088036 0.0028354784301 0.0052904915975 0.0052149831833 0.0051409257515 
0.0050682736207 0.0049969074824 0.0049268567007 0.0048581044929 0.0047905935718 0.004724300222 0.0046592648959 0.0045952912067 0.004532221971 
0.0044704914925 0.004409835208 0.0043503810292 0.0042914235956 0.0042338807728 0.0041773432818 0.0041217850316 0.0040672006658 0.0040135724986 
0.0039608912756 0.0039091459274 0.0038583184915 0.0038084018933 0.0037599219695 0.0037117796499 0.0036645109157 0.0036181055623 0.0035725608504 
0.0035278355221 0.0034839420631 0.0034408488872 0.0033985379422 0.0033569882142 0.0033161657875 0.0032760332191 0.0032364083263 0.0031976271103 
0.0031594760228 0.0031219309644 0.0030849728447 0.0030485960315 0.003012780278 0.002977520579 0.0029428161467 0.002908669313 0.0028750767474 
0.002842042088 0.0028096622555 0.0052217299337 0.0051477697283 0.0050751588078 0.0050039400671 0.0049339756053 0.0048652786755 0.0047978447185 
0.0047316237333 0.0046666609702 0.0046027525011 0.0045397489079 0.0044780714955 0.0044174719413 0.0043580774274 0.0042991667931 0.0042416583858 
0.0041851526006 0.004129623139 0.0040750470647 0.0040214268278 0.0039687350801 0.0039169713157 0.0038661120516 0.003816152616 0.0037670822225 
0.0037194238103 0.0036720837031 0.0036255858767 0.0035799381761 0.0035351301063 0.003491131984 0.0034479346709 0.0034055146968 0.003363855506 
0.0033229281976 0.0032827194809 0.0032431829492 0.0032041433793 0.0031659268193 0.0031283272123 0.0030913191699 0.0030548942601 0.0030190349712 
0.002983731562 0.002948974293 0.0029147614341 0.0028810998665 0.0028479865805 0.0028155106323 0.0027834906292 0.0051530759483 0.0050805940052 
0.0050094458886 0.0049396472508 0.0048710511018 0.0048037060912 0.0047375692301 0.0046726152672 0.004608891288 0.0045459658487 0.004484367907 
0.0044238431325 0.0043643758759 0.0043056905796 0.0042482527539 0.0041918064108 0.0041363308276 0.0040818121688 0.0040282250308 0.0039755640808 
0.0039238166818 0.0038729684964 0.0038230038633 0.0037739156989 0.0037262299583 0.0036788505072 0.0036323150567 0.0035866099668 0.0035417222217 
0.0034976528131 0.0034543679541 0.0034118530486 0.0033701057454 0.0033291025196 0.0032888085673 0.0032491949513 0.0032100813002 0.003171803218 
0.0031341483282 0.0030970990909 0.0030606317425 0.0030247347112 0.0029893985188 0.0029546050492 0.0029203532277 0.0028866363023 0.0028534631794 
0.002820919887 0.0027888161527 0.002757250509 0.0050850161238 0.0050140083173 0.0049442915096 0.0048758820128 0.0048086422078 0.0047426196849 
0.0046777605943 0.0046141420989 0.0045513136196 0.0044898119451 0.0044293800452 0.0043699902528 0.0043112484145 0.0042540468919 0.0041976811001 
0.0041422835634 0.0040878335589 0.0040343162598 0.0039817153344 0.003930010216 0.0038791991031 0.0038292540392 0.0037801805135 0.003731960999 
0.0036851271577 0.003638572308 0.0035928365793 0.0035479098093 0.0035037691896 0.0034604269516 0.0034178519465 0.0033760315139 0.0033349510708 
0.0032945922288 0.0032549220019 0.0032157208867 0.0031773863598 0.0031396787918 0.0031025830431 0.0030660782469 0.0030301496423 0.0029947798744 
0.0029599610567 0.0029256774473 0.0028919268818 0.0028587060964 0.0028261125232 0.0027939475481 0.0027623074473 0.0027311840463 0.0050179926101 
0.0049484283361 0.0048801111739 0.0048130547237 0.0047471518143 0.004682415696 0.0046186718378 0.004556188534 0.004494790886 0.0044344571135 
0.0043751705844 0.0043165092045 0.0042592551379 0.0042031262755 0.0041478126555 0.0040934435446 0.0040400044789 0.0039874726346 0.0039358384356 
0.0038850819202 0.0038351928008 0.0037861629148 0.0037379727258 0.0036911619125 0.0036446101847 0.0035988577477 0.0035539141133 0.003509753334 
0.0034663676319 0.0034237475925 0.0033818711975 0.0033407270836 0.0033002996922 0.0032605736768 0.0032213077524 0.0031829158734 0.0031451597953 
0.0031080174731 0.0030714729468 0.0030355082808 0.0030001109232 0.0029652617108 0.0029309559517 0.0028971785217 0.0028639246127 0.0028311962077 
0.0027990770359 0.0027673808712 0.0027361981019 0.0027055213431 0.0049523518161 0.0048841904333 0.0048172744923 0.0047515131111 0.0046869063046 
0.0046231982622 0.0045609232414 0.0044996314886 0.0044393989854 0.0043802075682 0.0043216412788 0.0042644743213 0.0042082984273 0.004153217178 
0.0040989205762 0.0040455677449 0.0039931231833 0.0039415715675 0.0038908867301 0.0038410610718 0.0037920808902 0.0037439374026 0.0036966037127 
0.0036506316662 0.0036048995674 0.0035599572588 0.0035157856738 0.0034723813721 0.0034297237783 0.0033878134632 0.0033466239343 0.0033061453826 
0.0032663619658 0.0032270355903 0.0031885909513 0.0031507863588 0.0031135974155 0.0030770116284 0.0030410088939 0.0030055756892 0.0029706992992 
0.0029363659754 0.0029025634802 0.0028692834198 0.0028365272676 0.0028043677023 0.0027726236419 0.0027413857974 0.0027106492606 0.0026804183641 
0.0048883326933 0.0048215459029 0.0047559533884 0.0046914850368 0.0046279108207 0.004565759448 0.0045045875502 0.0044444628292 0.0043853741952 
0.0043269000026 0.004269817492 0.0042137200554 0.0041587257825 0.0041045350262 0.0040512645254 0.0039988945484 0.0039474197163 0.0038968116317 
0.0038470471254 0.0037981284914 0.0037500345671 0.0037027557282 0.0036568302506 0.0036111235447 0.0035661940433 0.0035220281921 0.0034786146864 
0.0034359449833 0.0033940022853 0.0033527836847 0.0033122668169 0.0032724327479 0.0032330692028 0.0031945628 0.0031567082203 0.0031194767939 
0.003082850303 0.0030468059373 0.0030113332298 0.0029764235863 0.0029420611907 0.002908230243 0.0028749251878 0.0028421349536 0.0028099492977 
0.0027781663686 0.0027468805283 0.0027160948931 0.0026857988873 0.0026559937686 0.0048261047927 0.00476063763 0.0046961159476 0.0046329159335 
0.0045709013895 0.0045098575354 0.0044498349488 0.0043908499863 0.0043324704496 0.0042754904965 0.0042194829389 0.0041644264189 0.0041104468534 
0.0040572614877 0.004004959073 0.0039535513009 0.0039030159825 0.0038533285949 0.0038044748684 0.0037564376405 0.0037092048944 0.0036627668382 
0.0036176567785 0.0035727526854 0.0035286002073 0.003485191571 0.0034425156986 0.0034005618725 0.0033593159311 0.0033187686226 0.0032789028325 
0.0032394902245 0.0032009392165 0.003163041425 0.0031257641855 0.003089091554 0.0030530108494 0.0030174974598 0.0029825515422 0.0029481523894 
0.0029142905287 0.0028809532383 0.0028481341123 0.0028158178608 0.0027840974641 0.0027527734003 0.002721938401 0.0026915903937 0.0026617245223 
0.0026323324793 0.0047657777485 0.0047013634541 0.0046383414226 0.0045763616919 0.0045155430788 0.0044556596063 0.0043967831053 0.0043385098318 
0.0042816233687 0.004225703186 0.0041707229578 0.0041166825226 0.0040636903052 0.0040114702387 0.003960130665 0.0039096530147 0.0038600265316 
0.0038112323804 0.0037632484174 0.0037160644777 0.0036696688746 0.0036246002297 0.0035797249881 0.003535594326 0.0034921962404 0.0034495239157 
0.0034075625373 0.0033663022905 0.0033257298925 0.0032858404293 0.0032463846133 0.0032078139932 0.0031698577203 0.0031325394265 0.0030958234782 
0.0030596997501 0.0030241477137 0.0029891595352 0.0029547245222 0.0029208246135 0.0028874514591 0.0028545969822 0.0028222501553 0.0027904892042 
0.0027591275854 0.002728250583 0.0026978639408 0.0026679349133 0.00263848 0.0026094910212 0.0047071735832 0.0046442658192 0.004582463556 
0.0045217694771 0.0044620155305 0.0044032599056 0.0043450830393 0.0042882913321 0.0042324576625 0.0041775678548 0.0041235992894 0.004070667382 
0.0040185066918 0.0039672219621 0.0039168095523 0.0038672338325 0.0038184931314 0.0037705601374 0.0037234213077 0.0036770649617 0.003631471148 
0.0035871863559 0.0035430766496 0.0034996965323 0.0034570298912 0.0034150674917 0.0033737971405 0.0033332116031 0.0032932900046 0.0032538039436 
0.003215200639 0.0031772096262 0.0031398488402 0.0031030920806 0.0030669256709 0.0030313338052 0.0029963043056 0.002961823455 0.0029278870615 
0.0028944758488 0.0028615811488 0.0028291922445 0.0027973977706 0.0027659943653 0.002735073295 0.0027046443487 0.0026746684439 0.002645150239 
0.0026160941232 0.0025874953186 0.004650802838 0.0045891325663 0.0045285805757 0.0044689425852 0.0044103137908 0.0043522572119 0.0042955673167 
0.0042398249689 0.0041850127615 0.0041311205241 0.0040781284431 0.0040261465366 0.0039749198749 0.0039245450677 0.0038750215781 0.0038263169008 
0.0037784253085 0.0037313235046 0.0036850008244 0.0036394381835 0.0035951811814 0.0035510932907 0.0035077276642 0.003465070702 0.0034231108601 
0.0033818359428 0.0033412363136 0.0033013019769 0.0032617785258 0.0032231452473 0.0031851235351 0.0031477272255 0.0031109330615 0.0030747206062 
0.003039088554 0.0030040147163 0.002969494952 0.002935510984 0.0029020573584 0.0028691209411 0.0028366915788 0.0028048518305 0.0027734069842 
0.0027424404298 0.0027119456401 0.002681943789 0.0026523714212 0.0026232518642 0.002594587057 0.0025663662763 0.0045963953791 0.0045360095078 
0.0044765071147 0.0044175825186 0.0043600522258 0.0043034680598 0.0042478182073 0.004193091098 0.0041392741778 0.0040863518552 0.0040343048681 
0.0039832435456 0.0039329142691 0.0038834238482 0.0038347580171 0.0037868969712 0.0037398267341 0.0036935281984 0.0036479930426 0.0036031970331 
0.0035596871092 0.003516329971 0.0034736755707 0.0034317168078 0.0033904416781 0.0033498286161 0.0033098764241 0.0032703260379 0.0032316672312 
0.0031936275594 0.0031561793527 0.0031193523661 0.0030831035194 0.0030474238158 0.0030123061832 0.0029777414679 0.0029437140172 0.0029102145037 
0.0028772344241 0.0028447570993 0.0028128725359 0.0027813825595 0.002750370946 0.0027198273079 0.0026897767169 0.0026601484614 0.002630972678 
0.0026022430198 0.002573953846 0.0025460991626 0.004543947747 0.0044846999739 0.0044259031081 0.004368481115 0.0043120062498 0.004256455602 
0.0042018159776 0.0041480753315 0.0040952206719 0.0040432388463 0.0039921087913 0.0039419331726 0.0038924772275 0.0038438422294 0.0037960032157 
0.0037489541439 0.0037026761036 0.0036571574886 0.0036123757264 0.0035688813452 0.0035255320468 0.0034828796288 0.0034409187979 0.0033996325471 
0.003359013473 0.0033190461858 0.003279469739 0.0032407783318 0.0032027109358 0.0031652293378 0.0031283575162 0.0030920696509 0.0030563528444 
0.0030211932157 0.0029865780508 0.0029525054914 0.0029189572444 0.0028859274295 0.0028534037017 0.0028213740716 0.0027899289096 0.0027588670993 
0.0027282831504 0.0026981858019 0.0026685012506 0.0026392676717 0.0026104745669 0.002582116336 0.0025541924017 0.0025266906337 0.0044935237621 
0.0044348741211 0.0043775701203 0.0043211911928 0.0042657446878 0.0042111950856 0.0041575340893 0.0041047516475 0.0040528260947 0.0040017528882 
0.0039516137208 0.0039021928974 0.0038535805074 0.0038057669163 0.0037587337935 0.0037124682945 0.00366695937 0.0036221839942 0.0035786960658 
0.0035353461377 0.0034926945954 0.0034507264495 0.0034094310134 0.0033687978513 0.0033288141525 0.0032892088199 0.0032504911117 0.0032123900888 
0.003174879646 0.0031379676281 0.0031016392099 0.0030658866755 0.0030306857426 0.0029960260278 0.0029619030599 0.0029283075982 0.0028952263712 
0.0028626531028 0.0028305732706 0.0027990729482 0.0027679581853 0.0027373137381 0.0027071291332 0.0026774327778 0.0026481387166 0.0026192813448 
0.0025908596968 0.0025628623777 0.0025352864556 0.0025081266301 0.0044445005145 0.004387311358 0.0043310409363 0.0042756852784 0.0042212335108 
0.0041676568357 0.0041149427555 0.0040630838524 0.0040120608805 0.0039618663968 0.0039125802266 0.0038639973297 0.0038162023107 0.0037691811766 
0.0037229265357 0.0036774136432 0.003632642923 0.003588586287 0.0035457988174 0.0035031384143 0.0034611629673 0.0034198544611 0.0033792015818 
0.0033391963074 0.0032995601778 0.0032608175246 0.0032226856713 0.0031851527279 0.0031481918142 0.0031118226842 0.0030760200862 0.0030407735418 
0.0030060686914 0.0029718984477 0.0029382515098 0.0029051222406 0.0028724923129 0.0028403578398 0.0028088067618 0.0027776355878 0.002746931873 
0.0027166926764 0.0026869415227 0.0026575912056 0.002628674747 0.0026001851412 0.0025721191386 0.0025444699522 0.0025172328336 0.0024904037093 
0.0043977309601 0.0043415683096 0.0042863072287 0.0042319393494 0.0041784496759 0.0041258093928 0.0040740134168 0.0040230482942 0.0039728953693 
0.0039235400114 0.003875086776 0.0038273105771 0.0037803050076 0.0037340505174 0.0036885391532 0.0036437592344 0.0035996927904 0.0035569006723 
0.0035142250887 0.0034722289581 0.0034309028658 0.0033902322098 0.0033502014778 0.0033105315595 0.0032717553415 0.0032335892588 0.0031960244329 
0.0031590242593 0.0031226142522 0.0030867667882 0.003051473258 0.0030167221308 0.0029825019562 0.0029488038991 0.0029156182466 0.0028829374005 
0.0028507456099 0.0028191371416 0.00278790746 0.0027571481452 0.0027268479375 0.0026970445393 0.002667631887 0.0026386517718 0.0026100995615 
0.0025819646742 0.0025542440381 0.0025269319647 0.0025000163021 0.0024735064084 0.0043527944455 0.0042976316011 0.0042433471184 0.004189928786 
0.0041373651051 0.0040856359524 0.0040347235216 0.0039846195008 0.0039353002436 0.0038868713635 0.0038391152773 0.0037921157111 0.0037458666092 
0.0037003534089 0.0036555628866 0.0036114795063 0.0035681027043 0.0035259754046 0.0034839583265 0.0034426047263 0.0034019063358 0.0033618470476 
0.0033221397855 0.0032833328345 0.0032451273472 0.0032075248582 0.0031704829999 0.0031340279387 0.0030981364963 0.0030627928719 0.003027991538 
0.0029937173605 0.002959968541 0.0029267298262 0.0028939909313 0.0028617433426 0.0028299787391 0.0027987863994 0.002767964633 0.0027376037042 
0.0027077437533 0.0026782694037 0.002649225554 0.0026206058887 0.0025924073242 0.0025646139113 0.0025372251927 0.0025102348848 0.0024836383327 
0.0024574344044 0.0043096835173 0.0042554804846 0.0042021377206 0.0041496370299 0.0040979682861 0.004047111838 0.0039970522784 0.003947773051 
0.0038992729753 0.0038516290745 0.0038046386105 0.003758391142 0.0037128728568 0.0036680716169 0.0036239724858 0.0035805672722 0.0035384172522 
0.0034963663987 0.0034549805192 0.0034142481951 0.003374153278 0.0033344057098 0.0032955605264 0.0032573193862 0.0032196729498 0.0031825995785 
0.0031460841851 0.0031101448303 0.0030747477565 0.0030398938081 0.0030055629375 0.002971755781 0.0029384602314 0.0029056612744 0.0028733557039 
0.0028415304697 0.0028102770218 0.0027793965348 0.0027489719297 0.0027189924393 0.0026895108897 0.0026604052874 0.0026317187818 0.0026034483359 
0.002575584146 0.0025481222353 0.0025210532201 0.0024943788272 0.00246808835 0.002442176654 0.0042683734337 0.0042150992006 0.0041626647206 
0.0041110469442 0.0040602413818 0.0040102250349 0.0039609784472 0.0039125081413 0.0038647841651 0.0038178972039 0.0037716487392 0.0037261229257 
0.0036813010205 0.0036371865037 0.0035937514973 0.0035510024512 0.0035094824575 0.0034680570654 0.0034272804183 0.0033871478308 0.0033473504978 
0.0033084630916 0.0032701761445 0.0032324805224 0.0031953665725 0.0031587985785 0.0031228055235 0.0030873575219 0.0030524433817 0.003018054683 
0.0029841866796 0.0029508268574 0.0029179652901 0.0028855974584 0.0028537117556 0.0028223884392 0.0027914435757 0.0027609540284 0.0027309127336 
0.0027013720263 0.002672196162 0.002643442364 0.0026151029949 0.0025871690767 0.0025596314425 0.0025324849419 0.0025057275608 0.0024793523816 
0.0024533532787 0.0024277229028 0.0042288557329 0.0041764739636 0.0041249136186 0.0040741479484 0.0040241716058 0.0039749611272 0.0039265037006 
0.0038787987837 0.0038319167248 0.0037856647965 0.0037401245964 0.0036952943768 0.0036511437367 0.0036076814686 0.0035648928441 0.0035233325319 
0.003481857879 0.0034410353493 0.0034008475315 0.0033609979713 0.0033220594429 0.0032837206956 0.0032459735169 0.0032088092192 0.0031721902158 
0.0031361403232 0.0031006339661 0.003065660256 0.0030312086616 0.0029972752603 0.0029638481085 0.0029309211281 0.0028984855872 0.0028665308768 
0.0028351415416 0.0028041242311 0.0027735666165 0.002743458275 0.0027138558026 0.0026846122232 0.0026557931135 0.0026273807595 0.0025993746056 
0.0025717629715 0.0025445439683 0.0025177012075 0.0024912422803 0.0024651541953 0.0024394302694 0.0024140705192 0.0041911059305 0.0041395845886 
0.0040888654237 0.0040389182323 0.0039897382899 0.0039412985859 0.0038936058731 0.0038466334172 0.0038004612512 0.0037549107599 0.00371005395 
0.0036658842137 0.0036223831606 0.003579547789 0.0035379418574 0.0034964137385 0.0034555294357 0.003415281374 0.0033753662136 0.0033363688156 
0.0032979754406 0.0032601715441 0.0032229484058 0.003186287537 0.0031501634985 0.0031145958419 0.0030795604438 0.0030450460872 0.003011038939 
0.0029775424771 0.0029445415277 0.0029120302444 0.0028800024767 0.0028485408182 0.0028174514893 0.0027868184533 0.0027566372932 0.0027268975315 
0.00269765947 0.0026687660926 0.0026402884702 0.002612209523 0.0025845248918 0.0025572264629 0.0025303066238 0.0025037601448 0.0024775819218 
0.0024517678119 0.002426310888 0.0024012108375 0.0041550914255 0.0041044059505 0.004054488383 0.0040053312754 0.0039569052072 0.0039092135916 
0.0038622445055 0.0038159777213 0.0037704944638 0.003725611979 0.0036814107104 0.003637870585 0.0035949891409 0.0035527587034 0.0035117378534 
0.0034707901973 0.0034301643014 0.0033904795827 0.0033514140648 0.0033129513477 0.0032750845643 0.003237797 0.0032010700667 0.0031648829425 
0.00312924936 0.0030941495121 0.0030595655497 0.0030254897724 0.0029919171255 0.0029588373694 0.0029262454039 0.0028941347242 0.0028625924456 
0.0028314239991 0.0028007120172 0.0027704540035 0.0027406376337 0.0027113325922 0.0026823695776 0.0026538172814 0.002625669263 0.0025979115586 
0.002570537947 0.0025435371815 0.0025169096289 0.0024906454077 0.0024647383593 0.0024391849762 0.0024139833292 0.0023891277476 0.0041207795898 
0.0040708911919 0.0040217455411 0.003973328894 0.0039256439363 0.0038786637331 0.0038323868792 0.0037868801947 0.0037419681191 0.0036977249839 
0.0036541479737 0.0036112172718 0.0035689294519 0.0035278411897 0.003486816497 0.0034461093674 0.0034063469721 0.0033671993801 0.0033286563408 
0.0032907107732 0.0032533452499 0.0032165539201 0.0031802952278 0.0031445942744 0.0031094231825 0.003074767131 0.003040618705 0.0030069698878 
0.0029738093689 0.0029411325946 0.0029089348048 0.0028772098962 0.0028460455887 0.002815250318 0.0027849050942 0.0027550068327 0.0027256272849 
0.0026965867482 0.0026679619284 0.0026397403933 0.0026119089168 0.0025844624983 0.0025573867196 0.0025306798714 0.0025043309461 0.0024783289913 
0.0024526798404 0.0024273758201 0.0024024164916 0.0023777938771 0.0040880809986 0.0040389589416 0.003990549152 0.0039428664798 0.0038958831783 
0.0038495836798 0.003803974169 0.0037591030071 0.0037148210819 0.0036711907674 0.0036282120728 0.0035858658099 0.003544143164 0.0035036071317 
0.0034628063331 0.0034229535352 0.0033837137347 0.0033450801711 0.0033070404982 0.0032695900138 0.0032327130326 0.0031963925502 0.0031606034616 
0.0031253566116 0.0030906278607 0.0030564012036 0.0030226730538 0.0029894362038 0.0029566714405 0.0029243802419 0.0028925622334 0.0028612997306 
0.0028304090028 0.0027999730056 0.0027699852824 0.0027405214854 0.0027113970341 0.0026826925085 0.0026543952981 0.0026264878712 0.0025989682524 
0.0025718192411 0.0025450348323 0.0025186052689 0.0024925215747 0.002466779438 0.0024413781563 0.0024163132802 0.0023915821093 0.0023671818144 
0.0040568912019 0.0040084975883 0.0039608127036 0.0039138250162 0.0038675104547 0.0038218741374 0.0037768960222 0.003732640927 0.003688960486 
0.0036459242175 0.0036035105937 0.0035617257409 0.003521107082 0.0034802128554 0.0034402603507 0.00340091977 0.0033621805006 0.0033240424718 
0.0032864886075 0.003249514168 0.003213103988 0.0031772265452 0.0031418999666 0.0031070936156 0.003072788413 0.0030389814068 0.0030056577163 
0.0029728128851 0.002940432011 0.0029085160512 0.0028771474928 0.0028461525579 0.0028156161213 0.0027855290685 0.0027559765934 0.0027267574953 
0.0026979656565 0.0026695863951 0.0026416048733 0.0026140100424 0.0025867876708 0.0025599291782 0.0025334241895 0.0025072607843 0.002481434091 
0.0024559380505 0.0024307718072 0.002405932614 0.0023814199211 0.0023572328606 0.0040270431325 0.0039793705824 0.0039323737587 0.0038860600089 