# vtk DataFile Version 5.1
vtk output
ASCII
DATASET STRUCTURED_POINTS
DIMENSIONS 50 50 50
SPACING 0.002 0.002 0.002
ORIGIN 0.1742 -0.052672 0.02732
POINT_DATA 125000
FIELD FieldData 1
potential 1 125000 double
<<<<<<< HEAD
0.03521206567 0.035221170321 0.035229755214 0.035238502485 0.03524739233 0.035255866224 0.035264156085 0.035272670979 0.035280809595 
0.035288580832 0.035296166327 0.035303574194 0.0353107892 0.035317904399 0.035324975179 0.035331955222 0.035338834413 0.035345802262 
0.035352783856 0.03535999262 0.035366919759 0.0353735494 0.035380326458 0.03538650358 0.035392426455 0.035398341399 0.035403984829 
0.035409489622 0.035415180107 0.03542107473 0.035427174005 0.035434137869 0.035441810598 0.035450701441 0.035460052417 0.035470212511 
0.035481192421 0.035492903846 0.035505290776 0.03551831224 0.035532107873 0.035546197822 0.03556086384 0.035576299093 0.035592307809 
0.035609111053 0.03562661821 0.035645270081 0.035664905144 0.035685600742 0.035136942572 0.035146143326 0.035155145437 0.035163973777 
0.035172626868 0.035181163229 0.035189545269 0.035197916469 0.03520592589 0.035213727931 0.035221288066 0.035228633992 0.035235773619 
0.035242806076 0.035249662275 0.035256415095 0.035263234144 0.035269923486 0.035276510104 0.035282894388 0.035289540766 0.035295869444 
0.035301808869 0.035308059738 0.035313436993 0.035318627676 0.035324250116 0.03532939544 0.035334693262 0.035340343808 0.035346216619 
0.035353008504 0.035360539062 0.035368924304 0.035378593292 0.03538876308 0.035399765678 0.035411524274 0.035423980244 0.03543734157 
0.035451024009 0.035465270941 0.035480134277 0.035495741339 0.035511948917 0.035528949243 0.035546673947 0.035565535378 0.035585390944 
0.035606314907 0.03505312659 0.035062509081 0.035071654703 0.035080648684 0.035089469519 0.035098436795 0.035106809577 0.035115133884 
0.035123249321 0.035131123608 0.03513871665 0.035146069109 0.035153221141 0.035160129381 0.03516697496 0.035173620442 0.035180096997 
0.035186417186 0.03519263902 0.035198739039 0.035204663547 0.035210590976 0.035215930854 0.035221383463 0.035226994644 0.03523233134 
0.035237090789 0.035241925056 0.035246806261 0.035252223038 0.03525791749 0.035264548852 0.035271977567 0.035280285586 0.035289951131 
0.035300113518 0.035311156533 0.035322995129 0.03533585129 0.035349088814 0.035362960289 0.035377400634 0.035392600122 0.035408372149 
0.035424814859 0.035442079377 0.035460213743 0.035479133602 0.035499223602 0.035520354662 0.034957601956 0.034967185626 0.03497657332 
0.034985773747 0.034995007012 0.035004180697 0.035012867465 0.035021339191 0.035029324127 0.035037318778 0.035045043365 0.035052441014 
0.035059577126 0.035066673584 0.035073300289 0.035079749714 0.035085972115 0.035092046531 0.035097941258 0.035103696521 0.035108851043 
0.035114126223 0.035119696242 0.035124555264 0.035129597003 0.035134637102 0.035139066354 0.035143592732 0.035148378128 0.035153335108 
0.035159142957 0.03516568349 0.035172894784 0.035181171664 0.035190427478 0.035201041948 0.035212176008 0.035224146318 0.035237169899 
0.03525062111 0.03526472081 0.035279571779 0.035294897547 0.035310902605 0.035327630718 0.03534519274 0.035363643864 0.035382985534 
0.035403135361 0.035424521525 0.034847710449 0.03485753959 0.034867204494 0.034876868781 0.03488616675 0.034895273421 0.034904515093 
0.034913204374 0.034921665796 0.0349299092 0.034937425827 0.0349449955 0.034952323529 0.034959187616 0.034965759593 0.034972104114 
0.034978240738 0.034983708133 0.034989328407 0.034994668283 0.034999794476 0.035004891102 0.035009482849 0.035014543156 0.035019001499 
0.035023574082 0.035027701926 0.035031966445 0.035036543355 0.035041364469 0.035047056675 0.035053502767 0.035060845942 0.035069163282 
0.035078482395 0.035088594865 0.035100259564 0.03511270922 0.035125654097 0.035139351329 0.035153730676 0.035168872922 0.035184530842 
0.035200890473 0.035217894153 0.035235701458 0.035254353948 0.035274000441 0.035294583682 0.035315826714 0.034721733387 0.034731825269 
0.034741961088 0.034751728367 0.034761343883 0.03477072408 0.034780222531 0.034789226258 0.034797895778 0.034806359572 0.034814529273 
0.034822185808 0.034829179917 0.034836127154 0.034842679964 0.03484858489 0.03485455753 0.034860165914 0.034865522107 0.034870561266 
0.034875603406 0.034880051628 0.034884797898 0.03488882723 0.034892872388 0.034896973841 0.034901398674 0.034905388323 0.034909563179 
0.03491451403 0.034920125889 0.034926573054 0.0349339304 0.034942312166 0.034951701353 0.034962107064 0.034974239698 0.034986609132 
0.034999879119 0.035013848367 0.035028480433 0.035043841136 0.035059793977 0.035076405934 0.035093709433 0.035111790124 0.035130696876 
0.03515033515 0.035171108211 0.035192748241 0.034578927974 0.034589312068 0.034599726466 0.034609804739 0.034619698313 0.034629415912 
0.034639262464 0.034648494136 0.034657497541 0.034666236207 0.034674476618 0.034682341282 0.034689709285 0.034696335836 0.034702718361 
0.034708929043 0.034714752934 0.03472023635 0.034725357233 0.034730444609 0.034734937503 0.034739634491 0.034743605446 0.034747347126 
0.034750955276 0.034754738602 0.034758718851 0.034763194995 0.034767281697 0.034772169896 0.034777717048 0.034784197536 0.03479164554 
0.034800121308 0.034809708526 0.034820594832 0.034832192575 0.034845203125 0.034858655398 0.03487292477 0.034888035958 0.03490369917 
0.034919974579 0.034936904731 0.03495413198 0.034972469254 0.034991603327 0.035011583094 0.035032524875 0.035054416576 0.034419431744 
0.034430098024 0.03444061643 0.034451176686 0.034461419996 0.034471463578 0.034481277477 0.0344911404 0.034500514293 0.034509354369 
0.034517647712 0.034525666934 0.034533218103 0.034540303312 0.034546976936 0.034553162395 0.034558680207 0.034564404961 0.034569407848 
0.034574047273 0.034578846284 0.034582851327 0.034586621085 0.034590172072 0.034593645362 0.034597077503 0.034600917739 0.034604829921 
0.034609689773 0.034614708163 0.034620405645 0.034626978036 0.03463446825 0.034643066363 0.034653075895 0.034663863002 0.034675667722 
0.03468848253 0.034702631565 0.034717301351 0.034732573065 0.034748503694 0.034764881651 0.034782067973 0.034799877705 0.034818438936 
0.034837743175 0.034857879308 0.034878947906 0.034900776116 0.034245268526 0.034255947095 0.034266753247 0.034277453251 0.034288137085 
0.034298509919 0.034308739711 0.034318497993 0.034327988822 0.034337066649 0.034345780623 0.034353915533 0.03436164916 0.034368855471 
0.034375612416 0.034381878439 0.034387959015 0.034393332915 0.034398049732 0.034403140469 0.034407347804 0.03441148293 0.034415282968 
0.034418783863 0.034422199052 0.034425659644 0.034429241807 0.034433165657 0.034438397941 0.034443424573 0.034449256788 0.034455982842 
0.034463700359 0.034472494651 0.034482627827 0.034493628373 0.03450567075 0.034518713791 0.034532699066 0.03454802365 0.034563357167 
0.034579548622 0.034596370753 0.034613772464 0.034631792025 0.034650463044 0.034669917931 0.034689888338 0.034710993225 0.034733003071 
0.034058044648 0.03406897676 0.034080001697 0.034090942447 0.034101726979 0.034112125774 0.034122666371 0.034132752148 0.034142780868 
0.034152092274 0.034160977338 0.034169315232 0.03417714952 0.034184565164 0.034191546014 0.034198193255 0.034204082451 0.034209505219 
0.034215019029 0.034219627097 0.034223886533 0.034227637541 0.034231387475 0.03423497405 0.034238508486 0.03424207704 0.034245797275 
0.034249600458 0.034254453618 0.034260704253 0.03426669572 0.034273634412 0.034281562415 0.034290891186 0.034301005361 0.034312225187 
0.034324483909 0.034337480495 0.034351801546 0.034367221998 0.034382971955 0.034399354418 0.034416368724 0.034433773267 0.034451917442 
0.034470434254 0.034489933387 0.034510185774 0.034531301315 0.034553288091 0.033861110325 0.033872457079 0.033883118078 0.033894380096 
0.033905405435 0.03391626992 0.033926820744 0.033937266391 0.033947509427 0.033957012143 0.0339660258 0.033974539318 0.033982592538 
0.033990154665 0.033997549963 0.034004046517 0.034010086187 0.034016177177 0.034021299737 0.034026067431 0.034030483797 0.034034609439 
0.03403853292 0.034042111958 0.034045853477 0.034049673489 0.034053424937 0.034057758746 0.034062603902 0.034068405241 0.034075515533 
0.034082717389 0.034091197868 0.034100448615 0.034110789338 0.034122006579 0.034134551039 0.034147985224 0.034162468023 0.034177576043 
0.034193892079 0.034210408473 0.034227289136 0.034244960852 0.034263162947 0.034281974997 0.034301455378 0.0343216839 0.034342749592 
0.034364821728 0.033657354391 0.033668838785 0.033680374104 0.033691464947 0.033702639704 0.033713613945 0.033724348787 0.033734798321 
0.03374487647 0.033754972406 0.033764181623 0.033772881684 0.033781124311 0.03378917956 0.033796402539 0.033803182536 0.033809967534 
0.03381575574 0.03382115277 0.033826148611 0.033830829395 0.033835240739 0.033839473978 0.033843587762 0.033847685498 0.033851889576 
0.033855810214 0.033860524279 0.033865731766 0.033871593513 0.033878539824 0.033886719221 0.033895293148 0.03390480297 0.033915396149 
0.03392703518 0.033939686693 0.033953411627 0.033967895552 0.033983172429 0.033998877655 0.03401589477 0.034033215484 0.034050920698 
0.034069119533 0.034087908964 0.034107329313 0.034127643526 0.034148601541 0.034170234852 0.033451412433 0.033463016818 0.033474530013 
0.033485948055 0.033496926297 0.033508019503 0.033518891722 0.03352943775 0.033539625131 0.033549688746 0.033559196888 0.033568369874 
0.033576807148 0.033584766513 0.033592208607 0.03359973992 0.033606332625 0.033612418681 0.033618114928 0.033623472977 0.033628524858 
0.033633353037 0.033638033875 0.033642594471 0.033647139322 0.033651511477 0.033656256791 0.033661461097 0.033666937418 0.033673240235 
0.033680014893 0.033688538129 0.033697833547 0.033707970428 0.033718815106 0.033730628994 0.033743541811 0.033756995527 0.033771566599 
0.033786902356 0.033802881395 0.033819889075 0.033837061607 0.033854711619 0.033872845802 0.033891576639 0.033911091089 0.033931308715 
0.033952109362 0.033973566956 0.033246336902 0.033257986945 0.033269542103 0.033280992852 0.033292046054 0.033303169415 0.033314077206 
0.033324704605 0.033334917934 0.033344785985 0.033354851558 0.033363909423 0.033372680775 0.033380865492 0.033389113383 0.033396395537 
0.033403257455 0.033409786623 0.033415870931 0.033421674596 0.033427185586 0.033432394257 0.033437566813 0.033442665628 0.03344777297 
0.033452702016 0.033458125972 0.033463615336 0.033469788664 0.033476591099 0.033484407014 0.033492544367 0.033502031396 0.033512594461 
0.033523729 0.03353573099 0.033548769241 0.03356254681 0.033577147001 0.033592469886 0.033608429305 0.033624984156 0.033642492572 
0.033660083921 0.033678167789 0.033696965039 0.033716211127 0.0337360679 0.033756519974 0.03377792592 0.033045664372 0.033057305511 
0.033068865924 0.033080344335 0.033091650156 0.033102488543 0.03311337959 0.033124025963 0.03313429905 0.033144549221 0.033154383824 
0.033163560721 0.03317238932 0.033181485864 0.033189459491 0.033197094331 0.033204315158 0.033211087686 0.033217703969 0.033223987447 
0.033230016868 0.033235904929 0.033241642911 0.033247339459 0.033252516242 0.033258359755 0.033264404547 0.03327076858 0.033277544028 
0.033285179719 0.033293138794 0.033301610892 0.033311136806 0.033321885866 0.033333427036 0.033345699153 0.033359046042 0.033372882405 
0.033387460351 0.033402745125 0.033418642604 0.033435093951 0.033452104567 0.033469994271 0.033488164382 0.03350667292 0.03352577025 
0.033545352573 0.033565766521 0.033586912417 0.032852491736 0.032864078244 0.03287557512 0.032886998667 0.032898247051 0.032909333252 
0.032919910714 0.032930483008 0.032941101329 0.032951037317 0.032960676213 0.032970286555 0.032979850409 0.032988375043 0.032996669323 
0.033004772277 0.033012392224 0.033019714037 0.033026765139 0.03303361342 0.033040220506 0.033046408726 0.033052781505 0.033059109196 
0.033065220427 0.033071731218 0.033078423315 0.03308541293 0.033092841568 0.033100681306 0.03310915275 0.033118277382 0.03312818014 
0.033138867857 0.033151135004 0.033163527245 0.033176620028 0.033190663001 0.033205227325 0.033220447082 0.033236248634 0.033252592755 
0.033269467973 0.033286994808 0.033305260272 0.033323641684 0.033342449629 0.033362004325 0.033382246099 0.033403133667 0.032669241221 
0.032680744316 0.032692213787 0.032703539376 0.032714704096 0.032725697127 0.032736767651 0.032747047999 0.0327573416 0.032767198433 
0.032776922043 0.03278720349 0.032796336408 0.032805192198 0.032813775098 0.032822046149 0.032830082326 0.032837713209 0.03284525679 
0.03285259717 0.032859853354 0.032866925844 0.032873950168 0.032880672688 0.03288770471 0.032894605542 0.032901950034 0.032909554565 
0.032917840248 0.032926227726 0.032935175271 0.032944716448 0.032954935574 0.032965891332 0.032977693952 0.032990915807 0.033004071096 
0.033017913985 0.033032756969 0.033047897627 0.033063501348 0.033079909679 0.033096657993 0.033113861492 0.033131571136 0.033150224548 
0.033168850135 0.033188231464 0.033208257782 0.033228772819 0.032498074152 0.032509445578 0.03252074373 0.032531957709 0.032543015795 
0.032554285037 0.032564852628 0.032575038867 0.032585275771 0.032595223884 0.032605546545 0.032615048719 0.032624685149 0.032633749263 
0.032642269975 0.032650902916 0.032659346687 0.032667579306 0.03267574865 0.032683626709 0.03269146187 0.03269913155 0.032706518132 
0.032713864538 0.032721531238 0.032729339235 0.032737290617 0.03274582466 0.032754336877 0.032763274675 0.032772673309 0.032782647337 
0.032793197466 0.032804519627 0.032816370532 0.032828915808 0.032842899913 0.032856756739 0.032871211831 0.032886245798 0.032902408998 
0.03291852337 0.032935110886 0.032952174964 0.03296970994 0.032988026823 0.033006649744 0.033025846545 0.033045523635 0.033065949563 
0.032340327195 0.03235157112 0.032362650621 0.032373721785 0.032384998032 0.03239572036 0.032406305644 0.032416741802 0.032426611373 
0.032437159082 0.032446628912 0.032456232272 0.032466019035 0.032475325722 0.03248446847 0.032493403165 0.032502200173 0.032510847561 
0.032519100745 0.032527474459 0.032535906982 0.032544212195 0.032552164729 0.032560372958 0.032568641281 0.032577013655 0.032585863453 
0.032594634542 0.032603677992 0.032613097042 0.032622943732 0.032633248292 0.032644145743 0.032655719439 0.03266772947 0.03268037745 
0.032693629269 0.032708255225 0.032722650433 0.032737849967 0.032753353292 0.0327696868 0.032786172391 0.032803138658 0.032820451522 
0.03283838209 0.032857234031 0.032876169078 0.032895659511 0.032915841945 0.032196684384 0.032207777937 0.032219146176 0.03223008568 
0.032240837386 0.032251790882 0.032261927469 0.03227224816 0.032282898437 0.032292668543 0.032302516766 0.03231221656 0.032321807381 
0.032331645963 0.03234075768 0.032350007566 0.032359140645 0.032368162746 0.032377096073 0.03238593272 0.032394710955 0.032403443348 
0.032412115954 0.032420879369 0.032429683234 0.03243860771 0.032447964887 0.032457232357 0.032466770552 0.032476617037 0.032486850714 
0.032497510224 0.032508804247 0.032520470982 0.032532642173 0.032545370184 0.032558672343 0.032572480463 0.03258790853 0.032602803681 
0.032618212223 0.032634091969 0.032650845728 0.032667673652 0.032684855286 0.032702662481 0.032720950818 0.032740090824 0.032759495903 
0.032779418201 0.032068536006 0.032079478228 0.032090366815 0.032101145414 0.032111801378 0.032122348809 0.032132733504 0.03214347949 
0.032153591056 0.032163632092 0.032173281345 0.032183113924 0.032192833511 0.032202825576 0.032212426589 0.032221892574 0.032231339797 
0.032240705186 0.032249988599 0.032259229366 0.032268453204 0.032277361252 0.032286572583 0.032296007018 0.032305278694 0.032314978735 
0.032324487454 0.032334191138 0.032344141463 0.032354389266 0.032364980696 0.03237596619 0.032387476363 0.032399344335 0.032411658451 
0.032424490902 0.032437817512 0.032451887924 0.032466241822 0.032481459184 0.032497203902 0.032513020368 0.032529331874 0.032545891977 
0.032563445623 0.032581151962 0.032599307213 0.032617897725 0.032637505358 0.032657213845 0.03195600837 0.031966666165 0.031977425595 
0.031988031721 0.031998609624 0.032009045803 0.032019671009 0.032029797406 0.032039879172 0.03204988807 0.032059541826 0.03206940538 
0.032079226723 0.032089041434 0.032099163913 0.032109197386 0.0321188871 0.032128533181 0.032138148422 0.032147743524 0.032157317832 
0.032166616261 0.032176204447 0.032185843867 0.032195924604 0.032205842631 0.032215731905 0.032225839943 0.032236154359 0.032246742246 
0.032257659128 0.032269030343 0.032280619077 0.032292636751 0.032305095195 0.032317993782 0.032331635083 0.032345461508 0.032359806737 
0.032374613821 0.032390228566 0.032406391846 0.032422462401 0.032439104204 0.032456191777 0.032474102287 0.032492079227 0.032510605962 
0.032529590866 0.032549517586 0.031858962756 0.031869248264 0.031879835481 0.03189035475 0.031900806225 0.031911707925 0.031921951686 
0.031932035796 0.031942087366 0.031952091694 0.03196204554 0.031971697983 0.031981616021 0.031991539841 0.032001780558 0.032011659768 
0.032021588718 0.032031466288 0.032041369274 0.032051217764 0.032060818673 0.032070716811 0.032080994985 0.032090949723 0.032101312635 
0.032111534376 0.032121784896 0.032132331758 0.032142939787 0.032153807952 0.032165106411 0.032176564703 0.032188364615 0.032200503983 
0.032213083336 0.03222633023 0.032239747164 0.03225360122 0.032267916619 0.032282681745 0.032297895049 0.032313754623 0.032330333223 
0.032346882371 0.03236386244 0.03238137961 0.032399193654 0.032417916078 0.032436783311 0.032456533416 0.031777302152 0.031787645404 
0.031798151817 0.031809111837 0.031819454684 0.031829702264 0.031839803455 0.03184989768 0.031859946177 0.031869957846 0.031879918186 
0.031889625862 0.031899625088 0.031909626633 0.031919658387 0.031929996441 0.031940068093 0.03195015385 0.031960263018 0.031970381784 
0.031980242342 0.031990397979 0.032000560043 0.032011132325 0.032021471788 0.032031950426 0.032042486069 0.032053167263 0.032064059079 
0.032075281925 0.032086742383 0.032098768293 0.032110722646 0.032122982038 0.03213590202 0.032148943132 0.032162411306 0.032176273431 
0.032190599552 0.032205324387 0.032220342085 0.032235974819 0.032252359936 0.032269287948 0.032286228754 0.032303464872 0.032321279463 
0.032339555448 0.032358655689 0.032377846889 0.031711294506 0.031721643701 0.031732436459 0.031742718435 0.031752962975 0.031763115711 
0.031773153165 0.031783209135 0.031793227922 0.031803378302 0.031813361254 0.031823358732 0.031833128458 0.031843200728 0.031853288325 
0.031863745336 0.03187393911 0.031884175533 0.031894444159 0.031904462751 0.031914808402 0.031924869601 0.031935604882 0.031946073319 
0.031956618115 0.031967284497 0.031978165052 0.031989041563 0.032000114896 0.032011522305 0.032023030491 0.032034906871 0.03204698023 
0.032059622331 0.032072342516 0.03208544601 0.032098928967 0.032112811708 0.032127113853 0.032141812648 0.032156825569 0.032172385345 
0.032187960079 0.032204699278 0.032221885017 0.032239143778 0.03225687765 0.032275028773 0.032293678426 0.032312729307 0.031660630116 
0.031671461854 0.031681539437 0.031691679619 0.031701814225 0.031712122045 0.03172209023 0.031732112402 0.031742086198 0.031752073636 
0.031762053462 0.03177205932 0.031781520675 0.031791631681 0.031801807341 0.031812015607 0.031822619993 0.031832961563 0.031843061538 
0.031853517235 0.031864006976 0.0318745443 0.031885455658 0.031896141479 0.031906988771 0.031917826637 0.031928753479 0.031939925902 
0.031951277787 0.031962648304 0.031974279145 0.031985780415 0.031998230951 0.032010791904 0.032023536379 0.032036670328 0.03205016142 
0.032064073251 0.032078350159 0.032092874011 0.03210798367 0.032123508428 0.032139457883 0.03215581981 0.032172779258 0.032190444927 
0.032208086779 0.032226136724 0.032244664964 0.03226361625 0.031626116452 0.031636235246 0.03164617202 0.031656198034 0.031666237086 
0.031675837728 0.031685785957 0.031695725439 0.031705654352 0.031715595259 0.031725547786 0.031735549795 0.031745600426 0.03175544385 
0.031765636931 0.031775870453 0.031786527588 0.031796922436 0.031807110017 0.031817656649 0.031828280429 0.03183926744 0.031849988813 
0.031860790901 0.031871671066 0.031882626878 0.031893704826 0.031904876276 0.031916405373 0.031927906232 0.031939626763 0.031951849578 
0.031964155828 0.031976654579 0.031989466659 0.032002721638 0.032016214739 0.032030083583 0.032044239026 0.032058904917 0.03207396587 
0.032089451091 0.032105322467 0.032121539939 0.03213824713 0.032155663607 0.032173200578 0.032191676038 0.032210113435 0.032228992992 
0.031606001249 0.031615956934 0.031625879978 0.03163567544 0.031645602128 0.031655407629 0.031665285234 0.031675157048 0.031685009863 
0.031694889454 0.031704796899 0.031714767963 0.031724800434 0.031734886216 0.031744778047 0.031755031938 0.031765360034 0.031775859396 
0.031786394342 0.03179701265 0.031807700549 0.031818806045 0.031829636763 0.031840533464 0.031851490098 0.031862527742 0.031873707947 
0.031885110061 0.03189648505 0.031908151931 0.031920175283 0.031932168848 0.031944426132 0.031956941825 0.031969768383 0.031982930723 
0.031996413582 0.032010256779 0.032024570216 0.032039237005 0.032054283456 0.0320697065 0.032085552593 0.032101688116 0.032118357889 
0.032135410106 0.032153188697 0.03217109146 0.032189918213 0.032208732536 0.03160138294 0.031611296732 0.031621077032 0.031630711912 
0.031640426967 0.031650214957 0.031659979196 0.031669738744 0.031679513715 0.03168929867 0.031699157892 0.031709058477 0.031719013012 
0.0317290607 0.031738908839 0.031749125586 0.031759469927 0.031769646845 0.031780544753 0.031791198793 0.031802264675 0.031813104342 
0.031823994289 0.031834980084 0.031845991057 0.03185712064 0.031868448678 0.031879760744 0.031891179705 0.031903159489 0.031914921715 
0.031926910686 0.031939171711 0.031951707015 0.031964511507 0.031977658076 0.031991122214 0.032004857631 0.032019061262 0.03203379036 
0.032048802511 0.032064196372 0.032079898807 0.03209614912 0.032112783395 0.032129615419 0.032147044203 0.032165166927 0.032183446673 
0.032203193178 0.031612208895 0.031621801064 0.031631425923 0.031640900513 0.031650459754 0.031660094125 0.031669832971 0.031679486636 
0.031689149836 0.031698828064 0.031708550809 0.031718347891 0.031728224373 0.031738179159 0.031748266633 0.031758169548 0.031768197323 
0.031778624716 0.031789496966 0.031800488906 0.031811267688 0.031822154735 0.031833110563 0.031844134443 0.03185522441 0.031866344232 
0.031877669535 0.031888988705 0.031900693865 0.031912276869 0.031924119189 0.031936083744 0.031948320955 0.031960803034 0.03197361077 
0.031986723718 0.032000060393 0.032013877864 0.03202809566 0.032042651838 0.032057603537 0.032072892472 0.032088559845 0.032104699471 
0.032121235012 0.032138224578 0.032155606092 0.032173918018 0.032192494477 0.032211197015 0.031638355627 0.031647766455 0.031657178772 
0.031666596062 0.031675846922 0.031685307691 0.03169479287 0.031704307823 0.031713819531 0.031723361047 0.031733037423 0.031742697112 
0.031752426075 0.031762286848 0.031772237384 0.031782356663 0.03179204358 0.031802438587 0.031812951641 0.031824291195 0.031835084299 
0.031846007943 0.031856975903 0.031868008104 0.031879100536 0.031890354483 0.031901549361 0.031913114785 0.031924482646 0.03193599438 
0.031947689506 0.031959719198 0.031971881824 0.031984336006 0.031997100091 0.032010022001 0.032023307004 0.032037096147 0.03205128284 
0.032065840658 0.032080734642 0.0320959117 0.032111625056 0.032127794778 0.032144281079 0.032161189864 0.032179037538 0.032196857863 
0.032215116154 0.032234021873 0.031679902014 0.031689080444 0.031698304222 0.031707424086 0.031716546323 0.03172579881 0.031735084732 
0.031744400667 0.031753734108 0.031763095951 0.031772496128 0.031782015656 0.031791575798 0.031801266183 0.031811171595 0.031820872675 
0.031830753813 0.031841087702 0.031851893517 0.031862893198 0.031873704058 0.031884597649 0.031895571469 0.031906613972 0.031917830922 
0.031928938383 0.031940378622 0.03195156303 0.031962866389 0.031974278802 0.031985891355 0.031997720919 0.032009762349 0.032022122793 
0.032034672709 0.032047699057 0.032061092026 0.032074858115 0.032088990253 0.032103483986 0.032118374732 0.032133500346 0.032149135015 
0.032165176038 0.032181659019 0.032199008231 0.032216347254 0.032234139995 0.032252336241 0.032271015673 0.031736798878 0.031745738097 
0.03175472807 0.031763631209 0.031772565758 0.03178154688 0.031790608512 0.031799647823 0.03180873917 0.031817891119 0.031827120201 
0.031836388945 0.031845758758 0.031855270175 0.031864662035 0.031874503814 0.031884520117 0.031894534159 0.031905317752 0.031915948996 
0.031927056345 0.031937953646 0.031948905634 0.031959913485 0.031971079661 0.031982453085 0.031993505116 0.03200459692 0.032015761897 
0.032026912725 0.032038404557 0.032050108628 0.032062214122 0.032074357682 0.032086976221 0.032099933629 0.032113264591 0.032126980013 
0.032141065331 0.032155491548 0.032170339892 0.032185410794 0.032200970412 0.032216929213 0.032233791286 0.032250631634 0.032267902945 
0.032285719721 0.032303918543 0.032322573369 0.031808973918 0.031817676997 0.031826381617 0.031835036849 0.031843752981 0.031852367019 
0.031861155322 0.031869952649 0.031878798332 0.031887675365 0.031896623129 0.03190566098 0.031914780995 0.031924072491 0.031933249991 
0.03194292961 0.031952827853 0.031963019747 0.031973403176 0.031983983696 0.031995047762 0.032005959504 0.032016857783 0.032027938384 
0.032039219954 0.032050035735 0.032060987164 0.032071933753 0.032082960876 0.032094127146 0.032105457174 0.032117010743 0.032128729849 
0.032141034039 0.032153544629 0.032166451014 0.032179707557 0.032193389107 0.032207408619 0.032221780949 0.032236444 0.032251543001 
0.03226746413 0.032283361575 0.032299698089 0.032316470869 0.032333694911 0.032351401137 0.032369629892 0.032388361306 0.031896220882 
0.031904658055 0.031912993507 0.031921407383 0.031929826003 0.03193812277 0.031946571301 0.031955080575 0.031963586363 0.031972164463 
0.031980824974 0.031989571115 0.031998420735 0.032007156299 0.032016378002 0.03202587002 0.03203593768 0.032045963921 0.03205596869 
0.032066472195 0.032077146519 0.032088299921 0.032099115507 0.032110334815 0.032121230466 0.032132056998 0.032142864527 0.032153691448 
0.032164536239 0.032175513321 0.03218666741 0.032198055478 0.0322096377 0.03222169577 0.0322342359 0.032247046757 0.032260252503 
0.03227384309 0.032287814805 0.032302120578 0.032316674343 0.032332135031 0.032347557784 0.032363382913 0.032379623198 0.032396449942 
0.032413615967 0.032431297256 0.032449537426 0.032468284354 0.031998229325 0.032006386607 0.032014404964 0.032022488142 0.032030574968 
0.032038641287 0.032046625179 0.032054732767 0.032062902813 0.032070940236 0.032079249541 0.032087653068 0.03209620556 0.032104684662 
0.032113653472 0.03212289532 0.03213277894 0.032142646698 0.032152517642 0.032162779779 0.032173375316 0.032184091981 0.032195693993 
0.032206475814 0.032217232634 0.032227923006 0.032238559944 0.032249217119 0.032259873916 0.032270610747 0.032281579731 0.032292664174 
0.032304207004 0.032316117622 0.032328572302 0.032341292526 0.032354408089 0.032367929588 0.032381841885 0.032396135244 0.032411148446 
0.032426100421 0.032441447281 0.032457140525 0.032473268573 0.032489851672 0.032506967461 0.032524622662 0.032542849307 0.03256163738 
0.032113694301 0.032121553269 0.032129253698 0.032137014617 0.032144725037 0.032152445941 0.032160047379 0.032167781192 0.032175568673 
0.032183409845 0.032191353094 0.032199438954 0.032207354982 0.03221578375 0.032224445922 0.032233757987 0.032242932634 0.032252627107 
0.032262613154 0.032272470996 0.032282961504 0.032294068229 0.032305064675 0.032315749449 0.032326357623 0.032336912825 0.032347369861 
0.032357787484 0.032368225263 0.032378764579 0.032389498361 0.032400512088 0.032412298394 0.032424088039 0.032436297079 0.032449039298 
0.032462097125 0.03247555459 0.032489385559 0.032503876172 0.032518389223 0.032533255955 0.032548481052 0.032564069832 0.032580113634 
0.032596601166 0.032613641861 0.032631249359 0.032649457468 0.032668311387 0.032241763262 0.032249260808 0.032256723089 0.032264170446 
0.032271540615 0.032278838258 0.032286092681 0.032293374886 0.032300750772 0.032308211679 0.032315785043 0.03232318049 0.032331021792 
0.032339106421 0.032347332185 0.032356354054 0.032365445235 0.032374940521 0.0323847481 0.032394584238 0.032405419076 0.032415944932 
0.032426475207 0.03243772513 0.03244818639 0.032458530315 0.032468782682 0.032478876106 0.032489078554 0.032499252812 0.03250974031 
0.032520559378 0.032531765613 0.03254338047 0.032555447464 0.032567993092 0.032581110873 0.03259449549 0.032608576255 0.032622691014 
0.032637119016 0.032651856672 0.032666975771 0.032682457492 0.032698408577 0.032714832565 0.03273221358 0.032749773316 0.03276798141 
0.032786544195 0.032380500468 0.032387701723 0.032394888241 0.032401966552 0.032408970085 0.032415905608 0.03242281494 0.032429606925 
0.032436607997 0.032443669509 0.032450812207 0.032457677922 0.032465150392 0.032472860998 0.032481221702 0.032489647197 0.032498875254 
0.032508109647 0.032517736287 0.032527816483 0.032538080024 0.032548432458 0.032558818252 0.03256918843 0.032579762188 0.032589918201 
0.032599946559 0.032609913706 0.032619749676 0.032629800543 0.032640071457 0.032650679623 0.032661608453 0.032673086697 0.032685056447 
0.032697493672 0.032710786278 0.032724261593 0.032737852054 0.032751909155 0.032766663785 0.032781313782 0.032796337233 0.032811733034 
0.032827558111 0.032843913501 0.032860508546 0.032878056456 0.032896278036 0.032915544097 0.032528121408 0.032535100221 0.032541648051 
0.032548399626 0.032555012169 0.032561582774 0.032568142725 0.032574565463 0.03258096924 0.032587634864 0.032594105782 0.032601362845 
0.032608453226 0.032615814053 0.032623868218 0.032631986177 0.032640520319 0.03264949795 0.032658903261 0.032669141844 0.032679134878 
0.032689009026 0.032699225728 0.032709394296 0.032719792181 0.032729686179 0.032739504528 0.032749105392 0.032758843747 0.032768683446 