# vtk DataFile Version 5.1
vtk output
ASCII
DATASET STRUCTURED_POINTS
DIMENSIONS 50 50 50
SPACING 0.002 0.002 0.002
ORIGIN 0.1742 -0.052672 0.02732
POINT_DATA 125000
FIELD FieldData 1
potential 1 125000 double
0.00040700069763 0.00040518631706 0.0004033820052 0.00040158771184 0.00039980388876 0.00039803114302 0.00039626864194 0.00039451680179 0.000392776117 
0.00039104617438 0.00038932715956 0.00038761971916 0.00038592348134 0.00038424008162 0.00038256967282 0.00038091341762 0.00037927157595 0.00037764446962 
0.00037603286246 0.00037443711149 0.00037285646756 0.00037129078702 0.0003697392253 0.00036820255629 0.00036668003481 0.00036517141838 0.00036367828185 
0.00036220104441 0.00036074082531 0.00035929831916 0.00035787402504 0.00035647002008 0.00035508550756 0.00035371980455 0.00035237293546 0.00035104247525 
0.00034972774514 0.00034842440392 0.00034713093896 0.00034584511705 0.0003445643077 0.00034328667 0.00034201097139 0.00034073672569 0.00033946356437 
0.00033819177311 0.0003369221303 0.00033565575677 0.00033439349139 0.00033313690732 0.00040884319777 0.00040701883113 0.00040520411488 0.00040339950323 
0.00040160569761 0.00039982270471 0.00039804960469 0.0003962876007 0.00039453619725 0.00039279535577 0.00039106511478 0.00038934593962 0.00038763855159 
0.00038594313772 0.00038426071976 0.00038259188507 0.00038093760484 0.00037929739384 0.00037767283711 0.0003760634571 0.00037446911942 0.00037288970691 
0.00037132497033 0.00036977468283 0.00036823957257 0.00036671926205 0.00036521399008 0.00036372562419 0.00036225468683 0.00036080227318 0.00035936825433 
0.00035795501251 0.00035656151092 0.00035518753255 0.00035383154828 0.00035249295442 0.00035116912217 0.00034985847952 0.00034855681094 0.00034726279786 
0.00034597382094 0.00034468824598 0.0003434049328 0.00034212270995 0.00034084194238 0.00033956262804 0.00033828580611 0.00033701237128 0.00033574329047 
0.00033448021376 0.0004105168027 0.00040868390086 0.00040686029311 0.00040504693114 0.00040324397808 0.00040145207977 0.00039967050306 0.00039789887799 
0.00039613817865 0.00039438804556 0.00039264787919 0.00039091866906 0.00038920066506 0.00038749469972 0.00038580088015 0.00038412063514 0.00038245428033 
0.00038080195032 0.00037916460561 0.0003775423351 0.00037593515597 0.0003743426257 0.00037276516212 0.00037120213718 0.00036965454441 0.0003681223803 
0.00036660637768 0.0003651077451 0.00036362717392 0.00036216576794 0.00036072328261 0.00035930158264 0.00035790005045 0.00035651808263 0.00035515447792 
0.00035380798349 0.00035247632047 0.00035115692836 0.00034984857672 0.0003485465772 0.0003472500005 0.00034595679754 0.00034466575697 0.0003433764654 
0.0003420885027 0.00034080247198 0.00033951892124 0.00033823924319 0.00033696416881 0.00033569527081 0.00041198580729 0.00041014543908 0.00040831474529 
0.0004064939631 0.00040468392349 0.00040288461895 0.00040109503329 0.00039931576999 0.00039754712478 0.00039578866425 0.00039404013091 0.00039230202967 
0.00039057510367 0.00038885927902 0.00038715579603 0.00038546533494 0.00038378791897 0.00038212434354 0.00038047506038 0.00037884038934 0.0003772212477 
0.00037561663295 0.00037402650969 0.00037245173098 0.00037089261706 0.00036934999166 0.00036782433503 0.00036631613294 0.00036482684257 0.00036335654808 
0.00036190714782 0.00036047825278 0.00035906989229 0.00035768096404 0.00035631078124 0.0003549569511 0.00035361825084 0.00035229178725 0.00035097531413 
0.00034966703026 0.00034836322827 0.00034706282304 0.00034576495844 0.0003444687634 0.00034317441611 0.00034188210914 0.00034059264711 0.0003393072235 
0.00033802722328 0.00033675366391 0.00041322245488 0.00041137607599 0.00040953964691 0.00040771333487 0.00040589706615 0.00040409134797 0.00040229597369 
0.00040051038228 0.00039873518158 0.00039696978802 0.00039521417052 0.00039346859725 0.00039173354145 0.00039000959651 0.00038829739965 0.00038659778993 
0.0003849104864 0.00038323686554 0.00038157679162 0.00037993099195 0.00037830023112 0.00037668373666 0.00037508298294 0.0003734973888 0.00037192830073 
0.00037037591478 0.00036884147338 0.00036732527752 0.00036582849622 0.00036435149634 0.00036289562743 0.00036146047413 0.00036004601111 0.00035865147902 
0.00035727549702 0.00035591597441 0.00035457083655 0.00035323851412 0.00035191540537 0.00035059974305 0.00034929039296 0.00034798361559 0.00034667938884 
0.00034537718509 0.00034407685159 0.00034277903167 0.0003414844151 0.00034019423261 0.00033890989369 0.00033763226619 0.00041420914884 0.00041235789543 
0.00041051709324 0.00040868607749 0.00040686532945 0.00040505478703 0.00040325449391 0.00040146409102 0.000399683404 0.00039791302271 0.00039615122317 
0.00039439973941 0.0003926582613 0.00039092727073 0.00038920735286 0.0003874999683 0.00038580405146 0.00038412079633 0.00038245126951 0.00038079552367 
0.00037915425642 0.00037752783946 0.0003759170366 0.00037432263235 0.00037274464705 0.00037118394921 0.00036964166558 0.00036811864937 0.00036661500986 
0.00036513295473 0.00036367172326 0.000362231855 0.00036081265334 0.0003594135828 0.00035803276945 0.00035666825871 0.00035531838859 0.00035398049889 
0.00035265200759 0.00035133080686 0.00035001472388 0.00034870372108 0.00034739368874 0.00034608619214 0.00034478065461 0.00034347799401 0.00034217899241 
0.00034088457794 0.00033959651379 0.00033831587907 0.00041493895847 0.00041308429212 0.00041123993538 0.00040940542667 0.00040758144052 0.00040576739576 
0.00040396369477 0.00040216943917 0.00040038489908 0.00039860979406 0.00039684384578 0.00039508724523 0.00039334016887 0.00039160387621 0.0003898779576 
0.00038816333426 0.00038645985081 0.00038476874848 0.00038309078586 0.00038142640636 0.00037977669568 0.00037814149649 0.0003765225823 0.00037491995278 
0.00037333449753 0.00037176699401 0.00037021832355 0.00036868962746 0.00036718105593 0.00036569451665 0.00036422938127 0.00036278592985 0.00036136345173 
0.00035996087166 0.00035857638387 0.00035720869652 0.00035585459672 0.00035451235279 0.00035317939254 0.00035185358163 0.00035053274028 0.00034921675044 
0.00034790214435 0.00034658984765 0.00034527995733 0.00034397324705 0.00034267056367 0.00034137286362 0.00034008201692 0.00033879871443 0.00041541731744 
0.00041356018168 0.00041171311974 0.00040987638738 0.00040805012582 0.00040623345068 0.00040442703379 0.0004026306085 0.0004008429503 0.00039906470537 
0.00039729541923 0.00039553473298 0.00039378342957 0.00039204214836 0.00039031106327 0.00038859042253 0.00038688109581 0.00038518368122 0.0003834990407 
0.00038182782907 0.00038017037416 0.00037852858505 0.00037690280307 0.00037529336247 0.00037370195825 0.00037212903189 0.00037057558363 0.00036904178411 
0.00036753015882 0.00036604061192 0.00036457304926 0.0003631271268 0.00036170233284 0.0003602973052 0.00035891106333 0.00035754053461 0.00035618342274 
0.00035483804812 0.0003535015695 0.00035217186579 0.00035084718123 0.00034952608402 0.00034820852843 0.00034689219727 0.0003455786885 0.00034426882138 
0.00034296305912 0.00034166282916 0.00034036988444 0.00033908492722 0.00041566190266 0.00041380100816 0.00041195229084 0.00041011354862 0.00040828577177 
0.00040646783876 0.00040465957659 0.00040286130219 0.0004010719847 0.00039929134647 0.00039751968459 0.00039575624216 0.0003940019128 0.00039225664268 
0.00039052160373 0.00038879685758 0.00038708231583 0.00038538002477 0.00038369020015 0.0003820132015 0.00038035061174 0.00037870295703 0.00037707177516 
0.00037545759587 0.00037386138386 0.00037228459677 0.00037072785664 0.00036919134646 0.00036767711625 0.00036618568467 0.00036471663321 0.00036326958048 
0.00036184348965 0.00036043737426 0.0003590495257 0.00035767739875 0.00035631850981 0.00035497071382 0.00035363189677 0.00035229902487 0.00035097117159 
0.00034964695476 0.00034832556105 0.00034700707949 0.00034569067575 0.0003443779558 0.00034307016708 0.0003417677518 0.00034047304047 0.00033918669236 
0.00041569574404 0.00041383346685 0.00041198325823 0.00041014355322 0.00040831464758 0.00040649586286 0.00040468669105 0.00040288651459 0.00040109589692 
0.00039931363408 0.00039754017346 0.00039577478634 0.00039401814849 0.00039227025783 0.00039053235674 0.00038880382509 0.00038708635391 0.00038538048215 
0.00038368633336 0.00038200580507 0.0003803395071 0.00037868871807 0.00037705404216 0.00037543662097 0.00037383768096 0.00037225824889 0.00037069935991 
0.00036916124306 0.00036764620636 0.00036615322303 0.00036468346702 0.00036323609251 0.00036180974286 0.00036040360142 0.00035901496358 0.00035764200374 
0.00035628202265 0.00035493243545 0.00035359149923 0.00035225668997 0.0003509269015 0.00034960012408 0.00034827640076 0.00034695504248 0.00034563730097 
0.00034432243453 0.00034301278828 0.00034170928053 0.00034041360881 0.00033912658007 0.00041555457594 0.00041369292593 0.00041184039426 0.00040999984425 
0.00040817017456 0.00040635023787 0.0004045397573 0.00040273893733 0.0004009473155 0.00039916377991 0.00039738861614 0.00039562187805 0.00039386377282 
0.00039211467704 0.00039037473501 0.00038864445281 0.00038692490032 0.00038521618728 0.00038352020547 0.00038183745875 0.00038016886839 0.00037851555082 
0.00037687875871 0.0003752598126 0.00037365940642 0.00037207888276 0.00037051870373 0.00036898112828 0.00036746606797 0.00036597420348 0.00036450465384 
0.00036305770867 0.00036163211721 0.00036022581608 0.00035883711063 0.00035746373539 0.00035610306933 0.00035475255247 0.00035341023928 0.00035207419346 
0.00035074243754 0.00034941392904 0.00034808813396 0.00034676511875 0.00034544481731 0.00034412967414 0.00034281896704 0.00034151463679 0.00034021845926 
0.00033893108808 0.00041527872309 0.00041341619989 0.00041156430603 0.0004097208159 0.00040789033284 0.00040606948736 0.00040425833589 0.00040245654897 
0.00040066353531 0.0003988790634 0.00039710292239 0.00039533531397 0.00039357640699 0.00039182614136 0.00039008553701 0.00038835424768 0.00038663333532 
0.00038492417196 0.0003832276465 0.00038154387336 0.00037987442079 0.00037822035905 0.00037658297913 0.00037496353761 0.00037336316447 0.00037178323158 
0.00037022349745 0.00036868667419 0.00036717249677 0.00036568168881 0.00036421356067 0.0003627681264 0.00036134285317 0.00035993724977 0.00035854914159 
0.00035717579992 0.00035581494827 0.00035446378537 0.00035312084239 0.00035178363432 0.00035045037735 0.00034912061208 0.00034779331789 0.00034646928018 
0.00034514793131 0.00034383106963 0.00034252071722 0.0003412159452 0.00033991950389 0.00033863233562 0.0004149088969 0.00041304547747 0.00041119266349 
0.00040935075622 0.00040751626655 0.00040569433495 0.00040388252644 0.0004020795487 0.00040028544939 0.00039849997989 0.00039672301806 0.00039495445092 
0.00039319514809 0.00039144488708 0.00038970395112 0.00038797253491 0.00038625206791 0.00038454310816 0.00038284643671 0.00038116336853 0.0003794944743 
0.00037784126699 0.00037620492932 0.00037458650048 0.00037298725437 0.00037140752726 0.00036985037653 0.0003683151341 0.00036680284426 0.00036531383368 
0.00036384705873 0.00036240286965 0.00036097902612 0.00035957431544 0.00035818677192 0.00035681358923 0.00035545223201 0.00035410071014 0.00035275698006 
0.00035141899311 0.0003500850356 0.00034875434909 0.00034742688595 0.0003461020151 0.00034478049608 0.00034346331785 0.00034215270212 0.00034084778168 
0.00033955127304 0.00033826427486 0.00041448799869 0.00041262315609 0.00041076876824 0.000408925266 0.00040708961872 0.00040526599952 0.00040345244947 
0.0004016484418 0.00039985284406 0.00039806614642 0.00039628842771 0.00039451972498 0.00039276022 0.00039101034681 0.00038926923936 0.00038753898119 
0.00038581970869 0.00038411176376 0.00038241634872 0.00038073486383 0.00037906761987 0.00037741661775 0.00037578204765 0.00037416570604 0.0003725687026 
0.00037099121555 0.0003694361024 0.00036790298297 0.00036639256646 0.00036490571742 0.00036344148413 0.00036199886269 0.00036057624534 0.00035917241674 
0.00035778489086 0.00035641180783 0.00035505034838 0.00035369844715 0.00035235405052 0.00035101535337 0.00034968073218 0.000348349664 0.00034702155963 
0.00034569660329 0.00034437507915 0.00034305780884 0.00034174679744 0.00034044347512 0.00033914737699 0.00033786056907 0.00041405385553 0.00041218696701 
0.00041033072417 0.00040848549982 0.00040664993638 0.00040482223664 0.00040300648717 0.00040120079328 0.00039940397042 0.00039761600669 0.00039583761414 
0.00039406832405 0.00039230911691 0.00039055916236 0.00038881930075 0.00038709047001 0.00038537269737 0.00038366715486 0.00038197375256 0.00038029445928 
0.00037862992154 0.00037698136054 0.00037534955247 0.000373735934 0.00037214088157 0.00037056719503 0.00036901489152 0.00036748466872 0.00036597686129 
0.00036449255712 0.00036302984282 0.00036158837698 0.00036016709921 0.00035876420236 0.00035737690201 0.00035600338882 0.00035464170768 0.00035328929471 
0.00035194402418 0.00035060460955 0.00034926952334 0.00034793792831 0.0003466098638 0.00034528470513 0.00034396343269 0.0003426468584 0.00034133626306 
0.00034003259662 0.00033873788159 0.0003374511438 0.00041364142652 0.00041177184691 0.00040991287469 0.00040806504718 0.0004062269188 0.00040439922057 
0.000402579075 0.00040077094203 0.00039897205158 0.00039718306692 0.000395403716 0.00039363407825 0.00039187451655 0.00039012586463 0.00038838742915 
0.00038666013283 0.00038494443868 0.00038324108481 0.00038155082691 0.00037987389706 0.00037821264616 0.00037656717111 0.00037493874899 0.00037332847543 
0.00037173691661 0.00037016661526 0.00036861740927 0.00036709011179 0.00036558498801 0.00036410211788 0.00036264118994 0.00036120105153 0.0003597807886 
0.0003583783164 0.00035699096269 0.00035561712883 0.00035425483171 0.00035290143043 0.00035155546258 0.00035021530925 0.00034887967453 0.00034754777987 
0.00034621952389 0.00034489448815 0.0003435735437 0.0003422577027 0.00034094773033 0.00033964451088 0.0003383492687 0.00033706373622 0.00041327875066 
0.00041140594968 0.00040954376015 0.00040769268256 0.00040585156086 0.00040402083109 0.00040219977514 0.00040038716868 0.00039858663918 0.0003967962464 
0.00039501589282 0.0003932454521 0.00039148617039 0.00038973797373 0.00038800078685 0.00038627499535 0.00038456171456 0.00038286107254 0.00038117374576 
0.00037950056918 0.00037784226147 0.00037620067351 0.00037457612277 0.00037296887422 0.00037138158816 0.00036981424607 0.0003682682214 0.00036674363633 
0.0003652412498 0.00036376042602 0.00036230076246 0.00036086147268 0.0003594413067 0.00035803874355 0.00035665126982 0.0003552767647 0.00035391347266 
0.00035255918027 0.00035121204436 0.00034987102789 0.00034853487026 0.0003472023611 0.00034587412623 0.00034454943935 0.00034322902143 0.00034191357411 
0.00034060395358 0.0003393012067 0.00033800618427 0.000336720042 0.00041298876752 0.00041111194724 0.00040924620608 0.00040739114917 0.00040554652847 
0.00040371213626 0.00040188848535 0.00040007288751 0.00039826993316 0.00039647742337 0.00039469543803 0.00039292459077 0.0003911656732 0.00038941818101 
0.00038768176801 0.00038595800665 0.00038424711061 0.00038254936681 0.00038086514352 0.00037919544677 0.00037754086364 0.00037590301551 0.00037428197202 
0.00037267835039 0.0003710945165 0.00036953090993 0.00036798760342 0.00036646601676 0.00036496517136 0.00036348599516 0.00036202743008 0.00036058881355 
0.00035916863827 0.00035776528216 0.00035637694609 0.00035500163191 0.00035363671021 0.00035228117144 0.00035093306902 0.0003495909094 0.00034825370243 
0.0003469210547 0.0003455923236 0.00034426781383 0.00034294815704 0.00034163277548 0.00034032341172 0.00033902079973 0.00033772517435 0.00033643831834 
0.00041278777575 0.00041090658813 0.00040903624158 0.00040717685201 0.00040532821203 0.00040349010599 0.00040166285241 0.00039984638721 0.00039803877545 
0.00039624389201 0.0003944606851 0.00039268913383 0.0003909304188 0.00038918346104 0.00038744890443 0.00038572676846 0.00038401797722 0.00038232284771 
0.00038064158854 0.00037897517708 0.00037732442249 0.00037568966035 0.00037407198228 0.00037247257244 0.0003708920852 0.0003693312398 0.00036779091931 
0.00036627107548 0.00036477190923 0.00036329378323 0.00036183598211 0.00036039688518 0.00035897660245 0.00035757223582 0.00035618242437 0.0003548056465 
0.00035343965024 0.00035208220009 0.00035073243915 0.0003493891006 0.00034805125028 0.00034671767521 0.00034538874513 0.0003440641362 0.00034274441484 
0.00034142935225 0.00034011966956 0.00033881678406 0.00033752093556 0.00033623332098 0.00041268708674 0.00041080077553 0.00040892555549 0.0004070616561 
0.00040520852459 0.00040336679778 0.00040153554755 0.00039971582716 0.00039790683763 0.00039610835951 0.00039432394386 0.00039255166631 0.00039079246251 
0.00038904644291 0.00038731245421 0.00038559214705 0.00038388551293 0.00038219280056 0.00038051468792 0.00037885150932 0.00037720399823 0.00037557290066 
0.00037395804296 0.00037236201502 0.00037078446777 0.00036922640285 0.00036768816237 0.00036617002186 0.0003646721375 0.00036319446554 0.00036173638243 
0.00036029733263 0.00035887548541 0.0003574698725 0.00035607846011 0.0003546995214 0.00035333172004 0.00035197259667 0.00035062119982 0.00034927641363 
0.00034793730144 0.0003466029885 0.00034527335956 0.00034394811243 0.00034262788963 0.00034131249525 0.00034000265668 0.00033869853454 0.00033740241558 
0.00033611347518 0.00041269442929 0.00041080221956 0.00040892187003 0.00040705247205 0.00040519488619 0.00040334862808 0.00040151368231 0.00039969006501 
0.00039787921062 0.00039607885336 0.00039429281228 0.00039251978987 0.00039076034487 0.00038901434719 0.00038728184989 0.00038556258146 0.00038385768482 
0.00038216739238 0.00038049169563 0.00037883137154 0.0003771870886 0.00037555834896 0.00037394752561 0.00037235410771 0.00037077907024 0.00036922337062 
0.00036768666484 0.00036616972896 0.00036467253916 0.00036319512701 0.00036173676679 0.0003602967767 0.00035887309868 0.00035746562782 0.00035607204825 
0.00035469108284 0.00035332075237 0.00035195943635 0.0003506064627 0.00034925988095 0.00034791899804 0.00034658355239 0.00034525311731 0.00034392670537 
0.00034260537956 0.00034128936244 0.00033997858731 0.00033867368712 0.00033737589293 0.00033608535789 0.00041281373779 0.00041091552853 0.00040902946003 
0.00040715446293 0.00040529190746 0.00040344093353 0.00040160130928 0.00039977479781 0.00039796107926 0.00039616052353 0.00039437102637 0.00039259734016 
0.00039083706866 0.00038909108062 0.00038735955553 0.00038564179038 0.00038393878322 0.00038225043654 0.00038057724607 0.00037891957989 0.00037727790857 
0.00037565196692 0.00037404371672 0.00037245326354 0.00037088038744 0.00036932629274 0.00036779079379 0.00036627488711 0.00036477777866 0.00036330029038 
0.00036184115909 0.0003603992623 0.00035897389482 0.00035756397699 0.00035616800798 0.00035478425428 0.00035341138084 0.00035204760852 0.00035069239894 
0.00034934391946 0.00034800112918 0.00034666370891 0.000345331703 0.00034400406977 0.00034268116162 0.00034136334768 0.00034005122624 0.00033874486939 
0.00033744497477 0.00033615226774 0.00041304703039 0.00041114223421 0.00040924959761 0.00040736884887 0.00040550076967 0.00040364454481 0.00040180145186 
0.00039997145397 0.00039815475095 0.00039635185995 0.00039456281995 0.00039278601763 0.00039102553819 0.00038927953053 0.00038754858303 0.00038583172192 
0.00038413024614 0.00038244379513 0.00038077301344 0.00037911749516 0.00037747750295 0.00037585489259 0.00037424931481 0.00037266099136 0.00037109064802 
0.0003695376845 0.0003680035005 0.00036648809219 0.00036499118058 0.00036351278229 0.000362052158 0.00036060860545 0.00035918119491 0.00035776826797 
0.00035636950711 0.00035498273795 0.00035360692269 0.00035224032488 0.00035088205252 0.00034953087722 0.00034818586342 0.00034684632844 0.00034551179446 
0.00034418214091 0.00034285719894 0.00034153779014 0.0003402231501 0.00033891439064 0.00033761237005 0.00033631698739 0.00041339412889 0.00041148234717 
0.0004095831141 0.00040769563504 0.0004058219597 0.00040396115985 0.00040211367542 0.00040028004002 0.00039846052031 0.00039665539989 0.00039486449356 
0.00039308668322 0.00039132575264 0.00038957962927 0.00038784887779 0.00038613320709 0.00038443307059 0.00038274844043 0.0003810796427 0.00037942657456 
0.00037778906299 0.00037616873267 0.00037456488483 0.00037297890643 0.00037141040409 0.00036985863557 0.00036832539568 0.0003668103722 0.00036531338526 
0.0003638339904 0.0003623713065 0.00036092591786 0.0003594958115 0.00035807992638 0.00035667758387 0.00035528745973 0.00035390814795 0.00035253826204 
0.00035117691232 0.00034982238134 0.00034847437889 0.00034713217402 0.00034579494182 0.0003444623312 0.00034313492084 0.00034181196274 0.00034049479196 
0.00033918356025 0.00033787852751 0.00033657993457 0.00041385540273 0.00041193623797 0.00041002932724 0.00040813590347 0.00040625630567 0.00040439016068 
0.00040253815854 0.00040070073698 0.00039887814262 0.00039707043581 0.00039527786941 0.00039350085589 0.00039173707153 0.0003899911024 0.00038826042649 
0.00038654572148 0.00038484682568 0.00038316384935 0.00038149692471 0.00037984534263 0.00037821098677 0.00037659240039 0.00037499143577 0.00037340699711 
0.00037183992845 0.00037029024428 0.00036875777766 0.00036724252685 0.00036574484386 0.00036426385836 0.00036279961975 0.0003613513562 0.00035991828705 
0.00035849915231 0.00035709313716 0.0003556992215 0.00035431592292 0.00035294216265 0.00035157677722 0.00035021843975 0.00034886696081 0.00034752103248 
0.00034618111904 0.00034484535251 0.00034351379829 0.00034218789071 0.0003408672467 0.00033955225822 0.00033824379952 0.00033694138001 0.00041442963543 
0.00041250239222 0.00041058846187 0.00040868791751 0.00040680211809 0.0004049305075 0.00040307379741 0.00040123265255 0.00039940665869 0.0003975966508 
0.00039580237284 0.00039402393116 0.00039225885924 0.00039051269786 0.00038878266637 0.00038706851721 0.00038537101735 0.00038368958292 0.0003820235832 
0.00038037504907 0.00037874285446 0.00037712717473 0.00037552832454 0.00037394622499 0.00037238069312 0.00037083229226 0.00036930038356 0.00036778499682 
0.00036628640369 0.00036480388702 0.00036333791723 0.0003618873161 0.00036045102512 0.00035902839133 0.00035761830083 0.00035622014005 0.00035483234437 
0.00035345427429 0.00035208431451 0.00035072167004 0.00034936561066 0.0003480154088 0.00034667050376 0.0003453307193 0.00034399522751 0.00034266495854 
0.00034134035752 0.00034002094889 0.00033870788543 0.00033740127605 0.00041511655428 0.00041318132061 0.00041125935862 0.00040935180885 0.00040745961192 
0.00040558201397 0.00040372037972 0.0004018749525 0.00040004565854 0.00039823294714 0.00039643670701 0.00039465701536 0.00039289375629 0.00039114514476 
0.00038941535628 0.00038770184273 0.0003860055645 0.0003843255865 0.0003826615528 0.00038101506382 0.00037938547211 0.00037777248893 0.00037617564569 
0.00037459572531 0.00037303218749 0.00037148490257 0.00036995382536 0.00036843861359 0.00036693855198 0.00036545482888 0.00036398638554 0.00036253237844 
0.0003610924019 0.00035966571228 0.00035825139389 0.00035684869371 0.00035545591358 0.00035407243346 0.00035269774093 0.00035132999211 0.00034996870713 
0.00034861352149 0.00034726336892 0.00034591840708 0.00034457849715 0.00034324354221 0.00034191388376 0.00034058960871 0.00033927131526 0.00033795979768 
0.00041591717297 0.00041397302908 0.00041204305203 0.0004101281508 0.0004082292366 0.00040634591314 0.00040447922583 0.00040262944976 0.00040079646747 
0.00039898069483 0.00039718231502 0.00039540113857 0.0003936370333 0.00039189003845 0.00039015799498 0.00038844528355 0.00038674981881 0.00038507101704 
0.00038340975942 0.00038176542766 0.00038013799342 0.00037852763671 0.00037693320704 0.00037535524624 0.00037379290352 0.00037224669957 0.00037071636866 
0.00036920101731 0.00036770071812 0.00036621498623 0.00036474379547 0.00036328693741 0.00036184349563 0.0003604125665 0.00035899332732 0.00035758544829 
0.00035618711268 0.00035479840699 0.00035341731708 0.00035204399721 0.00035067709859 0.00034931586576 0.0003479602501 0.00034660929381 0.00034526389327 
0.00034392326404 0.00034258802253 0.00034125831518 0.00033993401559 0.00033861659757 0.000416833252 0.00041488022654 0.00041294192537 0.00041101903926 
0.00040911290204 0.00040722368047 0.00040535154956 0.00040349698334 0.00040166007949 0.00039984122295 0.00039804035842 0.00039625746412 0.00039449205236 
0.00039274445286 0.00039101232156 0.00038929985994 0.00038760534713 0.00038592763277 0.00038426848637 0.00038262628343 0.00038100141849 0.00037939302731 
0.00037780108148 0.0003762251118 0.00037466436849 0.00037311959347 0.00037158923643 0.00037007380298 0.00036857269096 0.00036708497861 0.00036561137926 
0.00036415102137 0.00036270358889 0.00036126813494 0.00035984385458 0.00035843010802 0.00035702602633 0.00035563125225 0.00035424387585 0.00035286418154 
0.00035149072847 0.00035012313953 0.0003487607256 0.00034740350791 0.00034605189376 0.00034470508022 0.00034336340786 0.00034202728668 0.00034069690774 
0.0003393729147 0.000417867482 0.00041590452788 0.00041395753234 0.00041202650618 0.00041011295631 0.00040821703712 0.00040633964104 0.00040448011725 
0.00040263904669 0.00040081667129 0.00039901262637 0.00039722711185 0.0003954601923 0.00039371148986 0.00039198127957 0.00039026697951 0.00038857236618 
0.00038689653034 0.00038523876473 0.00038359890939 0.00038197593205 0.0003803700954 0.00037878030367 0.00037720630193 0.00037564757107 0.0003741031643 
0.00037257317618 0.00037105750691 0.00036955478773 0.00036806579012 0.00036658884045 0.00036512486892 0.00036367312102 0.00036223245177 0.00036080273415 
0.00035938292622 0.00035797294213 0.00035657138373 0.00035517758986 0.00035379046521 0.0003524097958 0.00035103565556 0.00034966609402 0.00034830194764 
0.00034694270208 0.00034558880095 0.0003442399964 0.00034289679244 0.00034155952121 0.00034022865216 0.00041902204689 0.00041704954707 0.00041509361564 
0.000413154303 0.00041123293025 0.00040932999261 0.00040744581412 0.00040558102682 0.00040373511163 0.00040190866683 0.00040010147089 0.00039831320012 
0.00039654385443 0.00039479387832 0.00039306243409 0.00039135020016 0.00038965373437 0.00038797884008 0.00038632215924 0.00038468438175 0.00038306362409 
0.00038145979952 0.00037987186093 0.00037829950633 0.00037674205325 0.00037519834764 0.00037366874216 0.00037215183144 0.00037064778647 0.00036915618665 
0.00036767667788 0.00036620842777 0.00036475002173 0.00036330423616 0.00036186864239 0.00036044251495 0.00035902593918 0.00035761730811 0.00035621625811 
0.00035482198291 0.00035343363621 0.00035205099106 0.00035067401605 0.00034930210197 0.00034793504903 0.00034657306432 0.00034521660895 0.00034386579299 
0.00034252094565 0.00034118214001 0.00042030094554 0.00041831841206 0.00041635313807 0.00041440498233 0.00041247556424 0.00041056511398 0.00040867426461 
0.00040680329052 0.00040495231312 0.00040312099161 0.00040130937389 0.00039951794347 0.00039774562284 0.00039599320366 0.0003942606162 0.00039254647549 
0.00039085053491 0.00038917621689 0.00038752075965 0.00038588425887 0.00038426503186 0.00038266086271 0.00038107453706 0.00037950374322 0.00037794701828 
0.00037640395167 0.00037487361229 0.00037335567727 0.00037184968222 0.00037035517128 0.00036887210722 0.00036739990593 0.00036593817643 0.0003644865576 
0.0003630447671 0.00036161204311 0.00036018801324 0.00035877214314 0.00035736332567 0.00035596110732 0.00035456520189 0.00035317403218 0.0003517886217 
0.00035040820607 0.00034903313525 0.0003476624977 0.00034629767689 0.00034493831364 0.000343584604 0.00034223740221 0.00042170613834 0.00041971335086 
0.00041773861879 0.00041578169375 0.00041384382834 0.00041192548738 0.00041002750294 0.00040814945091 0.00040629223384 0.00040445552558 0.00040263940379 
0.00040084337865 0.00039906754736 0.00039731051564 0.0003955746755 0.00039385965602 0.00039216462613 0.00039048771502 0.00038883319078 0.00038719685918 
0.00038557881628 0.00038397763106 0.00038239244424 0.00038082216589 0.00037926570404 0.00037772225268 0.0003761912604 0.00037467157887 0.00037316286679 
0.00037166545546 0.00037017827416 0.00036870124726 0.00036723379839 0.00036577645028 0.00036432811216 0.0003628883717 0.00036145705027 0.00036003344136 
0.00035861686313 0.00035720636895 0.0003558021087 0.00035440243451 0.00035300813682 0.0003516187473 0.00035023428904 0.00034885482612 0.00034748048304 
0.00034611188357 0.00034474897517 0.0003433927728 0.00042323989949 0.00042123711906 0.00041925213104 0.00041728606169 0.00041533909629 0.00041341210465 
0.00041150617273 0.00040961938447 0.00040775547326 0.00040591232462 0.00040409017332 0.00040228908037 0.00040050848813 0.00039874912748 0.0003970098008 
0.00039529238054 0.00039359597779 0.00039191819173 0.00039026250022 0.00038862613152 0.00038700835727 0.00038540773475 0.00038382251473 0.00038225206795 
0.00038069504256 0.00037915126208 0.00037761844157 0.00037609645345 0.00037458468049 0.00037308300724 0.00037159107545 0.00037010865711 0.00036863596867 
0.00036717176778 0.00036571652922 0.00036426991784 0.00036283103855 0.00036139972591 0.00035997504718 0.00035855615778 0.00035714276483 0.00035573452073 
0.00035433081575 0.0003529320095 0.00035153804145 0.00035014882214 0.00034876465375 0.0003473859469 0.00034601332608 0.00034464716514 0.00042490264325 
0.00042288935699 0.00042089257879 0.00041891640535 0.00041696016457 0.00041502398207 0.00041310915436 0.00041121601193 0.00040934389624 0.00040749346368 
0.00040566465612 0.00040385724424 0.00040207100929 0.00040030559507 0.000398562625 0.00039684193641 0.00039514285434 0.00039346480869 0.00039180538386 
0.00039016800399 0.00038854912183 0.00038694813675 0.00038536241351 0.00038379112559 0.0003822331623 0.00038068688598 0.00037915166751 0.00037762679245 
0.00037611100577 0.00037460474747 0.0003731075256 0.00037161929831 0.00037014041186 0.00036867002037 0.00036720737067 0.00036575337411 0.00036430699237 
0.0003628676021 0.00036143467449 0.00036000740839 0.00035858480306 0.00035716721029 0.00035575431586 0.00035434583378 0.00035294169914 0.00035154167212 