# vtk DataFile Version 5.1
vtk output
ASCII
DATASET STRUCTURED_POINTS
DIMENSIONS 50 50 50
SPACING 0.002 0.002 0.002
ORIGIN 0.1742 -0.052672 0.02732
POINT_DATA 125000
FIELD FieldData 1
potential 1 125000 double
<<<<<<< HEAD
0.0010379804017 0.001030446827 0.0010229831843 0.0010155888353 0.0010082639855 0.00100100516 0.00099381526491 0.00098669141493 0.00097963201709 
0.00097263539034 0.00096570033662 0.00095882666959 0.00095201213554 0.00094525882817 0.00093856560101 0.00093193363501 0.0009253608773 0.00091884886104 
0.00091239611274 0.00090600191643 0.00089966276736 0.00089337623097 0.00088713873851 0.00088095011249 0.00087480692735 0.00086870765572 0.00086265484598 
0.00085664961544 0.00085069421974 0.00084479206908 0.0008389457899 0.00083316217625 0.00082744232422 0.00082178816659 0.00081620348918 0.00081068699618 
0.0008052395649 0.00079985950391 0.00079454575348 0.00078929738716 0.00078411238486 0.00077898994033 0.00077393020964 0.00076893487106 0.00076400399233 
0.00075913891091 0.00075434073669 0.00074961042623 0.00074494770409 0.00074035270616 0.001045991693 0.0010383730868 0.0010308244307 0.0010233461427 
0.001015938307 0.0010085992091 0.0010013253005 0.00099412072175 0.00098698095665 0.00097990462572 0.0009728887755 0.00096593420868 0.00095904020085 
0.00095220638827 0.00094543289388 0.00093871967813 0.00093206695971 0.00092547282499 0.0009189387059 0.00091246184794 0.00090603988493 0.00089967058632 
0.00089335149005 0.0008870807181 0.00088085806093 0.00087468144895 0.0008685507609 0.00086247046089 0.00085644152096 0.00085046844329 0.00084455244645 
0.00083870123051 0.00083291534938 0.00082719788352 0.00082154912623 0.0008159722858 0.00081046549147 0.00080502752641 0.00079965708766 0.00079435297442 
0.00078911410169 0.00078393894676 0.00077882836475 0.00077378180044 0.00076880133286 0.00076388734689 0.00075904148125 0.00075426420186 0.00074955537169 
0.00074491552025 0.001053551463 0.001045853038 0.0010382245005 0.0010306675831 0.0010231812193 0.0010157650436 0.0010084174447 0.0010011335221 
0.00099391809791 0.00098676640272 0.00097967498575 0.00097264471595 0.00096567482055 0.00095876489608 0.0009519145586 0.00094512493578 0.00093839444326 
0.00093172213413 0.00092510865916 0.00091855212799 0.00091205075227 0.00090560170922 0.00089920354437 0.00089285367491 0.00088655284373 0.00088030013358 
0.00087409557689 0.00086794311241 0.0008618444859 0.00085580318486 0.00084982151657 0.00084390542187 0.00083805697484 0.00083227827635 0.00082657054778 
0.00082093562356 0.00081537247913 0.00080987956309 0.00080445620169 0.00079909998538 0.00079381064664 0.00078858661777 0.00078342743396 0.00077833412427 
0.00077330703384 0.00076834763303 0.00076345617474 0.00075863471926 0.00075388211273 0.00074919895639 0.001060562195 0.0010527880908 0.0010450862058 
0.0010374558039 0.0010298977031 0.0010224099839 0.0010149904725 0.0010076382327 0.0010003496587 0.00099312739409 0.00098596606534 0.00097886495134 
0.00097182495751 0.00096484363371 0.00095792187294 0.00095106024689 0.00094425560393 0.00093750956127 0.00093082052593 0.00092418768275 0.00091761071922 
0.00091108568779 0.00090461098625 0.00089818615473 0.00089181114411 0.00088548658775 0.00087921286948 0.00087299178481 0.00086682663988 0.00086071920861 
0.00085467641982 0.00084869999142 0.00084279311117 0.0008369571751 0.00083119469195 0.00082550481692 0.00081988920777 0.00081434557121 0.00080887276743 
0.00080346884084 0.00079813263006 0.00079286325275 0.00078765980626 0.00078252241211 0.0007774526582 0.00077245029442 0.00076751690516 0.00076265319571 
0.00075785980833 0.0007531363203 0.001066947741 0.0010591040036 0.0010513339654 0.0010436366354 0.0010360114381 0.0010284569078 0.0010209726871 
0.0010135553318 0.0010062044661 0.00099891451199 0.00099168804879 0.00098452200536 0.00097741599202 0.00097036912097 0.00096338089057 0.00095645151441 
0.00094957928629 0.00094276446959 0.00093600507852 0.00092930108787 0.00092265223785 0.0009160546287 0.00090950957423 0.00090301459118 0.00089657106433 
0.00089017859627 0.00088383959255 0.00087755458422 0.00087132763184 0.00086516085164 0.00085905999191 0.00085302695088 0.00084706509109 0.00084117684485 
0.00083536321499 0.00082962395476 0.00082395936564 0.00081836984387 0.00081285147156 0.000807403726 0.00080202503284 0.00079671404511 0.0007914701924 
0.00078629307082 0.00078118295397 0.00077614145463 0.00077116882357 0.00076626598751 0.000761433973 0.00075667192443 0.001072660319 0.0010647516917 
0.0010569192583 0.0010491598162 0.001041473746 0.0010338583461 0.0010263138948 0.0010188375237 0.0010114268052 0.0010040816397 0.00099679242124 
0.00098956770403 0.00098240159422 0.00097529437173 0.00096824493985 0.00096125360827 0.00095431861403 0.00094743893994 0.00094061539936 0.00093384579887 
0.00092713027443 0.00092046698822 0.00091385643416 0.00090729822311 0.00090079134889 0.00089433686314 0.00088793711086 0.00088159405577 0.00087530915766 
0.00086908873678 0.00086293454135 0.00085685046992 0.00085083863026 0.00084490234707 0.00083904157337 0.00083325665491 0.00082754872209 0.00082191622907 
0.00081635701492 0.00081086970566 0.00080545216625 0.00080010448368 0.00079482289301 0.00078960901189 0.0007844625034 0.00077938445326 0.00077437548028 
0.00076943585608 0.00076456721203 0.0007597693679 0.0010776814053 0.0010697141904 0.0010618233325 0.0010540070429 0.0010462646477 0.0010385950042 
0.0010309965688 0.0010234659156 0.001016001441 0.0010086011642 0.0010012620999 0.00099397966274 0.00098675874346 0.00097959744735 0.00097249321666 
0.00096544485419 0.00095845206387 0.00095151444954 0.00094463178473 0.00093780296453 0.00093102835115 0.00092430557864 0.00091763638294 0.00091101961394 
0.00090445569081 0.00089794580513 0.0008914914581 0.00088509568775 0.00087875986083 0.00087248980676 0.00086628800975 0.00086015765415 0.00085410145872 
0.0008481213579 0.0008422179967 0.00083639341271 0.0008306450464 0.00082497391266 0.00081937752589 0.0008138542683 0.0008084018371 0.00080301927733 
0.00079770406069 0.00079245641322 0.00078727629984 0.00078216455967 0.00077712173699 0.00077214805499 0.00076724554171 0.00076241343066 0.0010820275859 
0.0010740059894 0.0010660613379 0.0010581934737 0.0010504002844 0.0010426798126 0.0010350314446 0.001027452388 0.0010199385508 0.0010124891966 
0.0010051011957 0.00099776861235 0.00099049845142 0.00098328705886 0.00097613269587 0.00096903274525 0.00096198852803 0.00095499964119 0.00094806482968 
0.00094118371258 0.00093435487454 0.00092758053032 0.00092085949203 0.00091419046141 0.00090757645651 0.00090101745714 0.00089451531177 0.00088807119906 
0.00088169179728 0.00087537834514 0.00086913463498 0.00086296317114 0.00085686694735 0.00085084749535 0.00084490764941 0.00083904596861 0.00083326155902 
0.00082755575127 0.00082192581194 0.00081636946918 0.00081088488587 0.00080547024266 0.00080012383002 0.00079484479609 0.00078963336098 0.00078449071247 
0.00077941590324 0.00077441049908 0.0007694762474 0.00076461241298 0.0010858634295 0.0010776705326 0.0010696769161 0.0010617599695 0.0010539197564 
0.0010461539286 0.0010384595203 0.0010308348564 0.0010232770477 0.0010157824893 0.0010083508242 0.0010009777436 0.00099365994872 0.00098640233274 
0.00097920280933 0.00097205817795 0.00096496776657 0.00095793252005 0.00095095179866 0.00094402405234 0.00093714992996 0.00093032864944 0.00092356211077 
0.0009168493751 0.00091019110045 0.00090359004401 0.00089704701507 0.00089056309242 0.00088414411808 0.00087779273532 0.00087151207476 0.00086530483679 
0.00085917320558 0.00085311954482 0.00084714560353 0.00084125109273 0.00083543499142 0.00082969718637 0.0008240367732 0.0008184498084 0.00081293544667 
0.00080749129193 0.00080211637931 0.00079680790017 0.00079156706693 0.00078639403009 0.00078129008151 0.0007762540841 0.00077128912182 0.00076639470645 
0.0010890262498 0.0010807836841 0.0010727429414 0.0010647807521 0.001056896485 0.0010490876983 0.0010413508823 0.0010336828307 0.0010260834149 
0.0010185476246 0.0010110748767 0.0010036613069 0.00099630657114 0.00098900446049 0.00098176373477 0.00097457806794 0.00096744808669 0.00096037278024 
0.00095335099239 0.00094638393568 0.0009394708917 0.00093261243576 0.00092580793244 0.00091905803305 0.00091236375471 0.00090572656843 0.0008991484103 
0.0008926303761 0.00088617893861 0.00087979323697 0.00087348026221 0.00086724175999 0.00086107927404 0.00085499597004 0.00084899159353 0.00084306739444 
0.00083722225251 0.00083145485958 0.00082576534427 0.00082015030753 0.00081460851175 0.00080913641769 0.00080373381691 0.00079839802542 0.00079312894675 
0.00078792722466 0.00078279404148 0.00077772957723 0.00077273576626 0.0007678124568 0.0010917293391 0.0010835612281 0.0010753544848 0.0010673494692 
0.0010594224903 0.0010515714371 0.001043792764 0.0010360854751 0.0010284466582 0.0010208716433 0.001013359354 0.0010059080676 0.00099851611637 
0.00099118240005 0.00098390081607 0.00097667949723 0.00096951407853 0.00096240275592 0.00095534687165 0.00094834600423 0.00094139972985 0.00093450782045 
0.00092767118213 0.00092089073086 0.00091416631219 0.00090749960919 0.00090089177649 0.00089434769244 0.00088786854954 0.00088145801598 0.0008751179085 
0.00086885233089 0.0008626634689 0.00085655237044 0.00085052090421 0.00084456956132 0.00083869680974 0.00083290225114 0.00082718539854 0.0008215436053 
0.00081597456263 0.00081047545928 0.00080504519817 0.00079968218244 0.00079438545416 0.00078915594754 0.00078399482042 0.00077890224147 0.00077388039526 
0.00076892886443 0.0010940860661 0.0010858734506 0.0010777435874 0.0010695727186 0.0010616037629 0.001053711627 0.0010458936086 0.0010381469655 
0.0010304686267 0.0010228558376 0.0010153065316 0.0010078195178 0.0010003931188 0.00099302512826 0.0009857147686 0.00097845664913 0.00097125896756 
0.00096411799397 0.0009570332824 0.00095000324474 0.00094302863184 0.0009361096813 0.00092924646555 0.0009224402909 0.00091569160311 0.00090900246792 
0.00090237106074 0.00089580422474 0.00088930237961 0.00088286913546 0.00087650682249 0.0008702192072 0.00086400591433 0.00085787081051 0.00085181534735 
0.00084583888729 0.00083994141939 0.00083412122388 0.00082837838217 0.00082271024732 0.00081711386215 0.00081158822306 0.00080612977676 0.00080073990723 
0.0007954155511 0.00079015861484 0.00078496969922 0.00077984928769 0.00077479962658 0.00076982047949 0.0010962122258 0.0010879552372 0.0010797815186 
0.0010716900393 0.0010635545888 0.0010556210677 0.0010477638686 0.0010399775676 0.0010322605971 0.0010246104679 0.001017024872 0.0010095024444 
0.001002042822 0.00099464339256 0.00098730173695 0.0009800185036 0.00097278855692 0.00096562047589 0.00095850904427 0.00095145459105 0.00094445648565 
0.00093751549879 0.00093063139471 0.00092380472698 0.00091703628183 0.00091032531535 0.00090367803831 0.00089709269626 0.00089057269969 0.00088412108913 
0.00087773904038 0.0008714310563 0.00086519741464 0.00085904081253 0.00085296298716 0.00084696289012 0.00084104062962 0.0008351954726 0.00082942693183 
0.00082373269306 0.00081810985616 0.00081255708981 0.00080707316321 0.00080165552335 0.00079630396689 0.00079101959257 0.00078580276863 0.00078065387714 
0.00077557596369 0.00077056906903 0.0010982278066 0.0010899246867 0.0010817057004 0.0010735697536 0.0010653904151 0.0010574138227 0.0010495146015 
0.0010416885732 0.0010339318261 0.0010262434065 0.0010186218745 0.0010110655153 0.0010035728 0.00099614218792 0.00098877058515 0.00098146034828 
0.00097420961711 0.00096701184185 0.00095987717129 0.00095280105329 0.00094578255964 0.00093882332019 0.00093192096681 0.00092507742578 0.00091829309097 
0.00091156665767 0.00090490371381 0.00089830319746 0.0008917671119 0.00088530004719 0.00087890277892 0.00087257735561 0.00086632508619 0.00086014864269 
0.0008540488754 0.00084802653504 0.00084208073339 0.00083621100726 0.0008304167146 0.00082469609303 0.00081904624891 0.00081346623566 0.00080795435694 
0.00080250924937 0.00079712987565 0.00079181712158 0.00078657309874 0.00078139720077 0.00077629118925 0.00077125599016 0.0011002397218 0.0010918886549 
0.0010836230545 0.0010754417529 0.0010673405687 0.0010591948591 0.0010512509621 0.001043383628 0.0010355869844 0.001027859739 0.0010202012496 
0.0010126092795 0.0010050843127 0.0009976215238 0.00099022173994 0.00098288493117 0.00097560885358 0.00096839404183 0.00096123245842 0.00095413652035 
0.00094709971456 0.00094012286783 0.00093320479388 0.00092634622543 0.0009195463632 0.00091280888546 0.00090613317675 0.00089952018879 0.00089297141687 
0.00088649118667 0.00088007874293 0.00087373699566 0.00086746809936 0.00086127371379 0.0008551532284 0.00084910847652 0.00084313955847 0.0008372455827 
0.00083142523252 0.00082567769311 0.00082000070319 0.00081439243548 0.00080885253146 0.00080337847904 0.00079797088733 0.00079263005367 0.00078735729389 
0.00078215300641 0.00077701819403 0.00077195355498 0.0011023482801 0.0010939461878 0.0010856304936 0.0010774004823 0.0010692515902 0.0010611839243 
0.0010530697189 0.001045157358 0.0010373177658 0.0010295507818 0.001021853967 0.0010142254933 0.0010066656727 0.00099917273164 0.00099174443523 
0.00098438005706 0.00097707917583 0.00096984105683 0.00096266466451 0.00095554251293 0.00094848848824 0.00094149540184 0.00093456263257 0.00092769033348 
0.00092087802198 0.00091412894684 0.00090744168306 0.00090081747472 0.00089425739602 0.00088776282772 0.00088133700687 0.00087498037882 0.00086869590119 
0.00086248390291 0.00085634412437 0.0008502777324 0.00084428620063 0.00083836717854 0.00083252121668 0.00082674648652 0.0008210414266 0.00081540469094 
0.00080983544636 0.00080433195909 0.00079889495321 0.00079352485241 0.00078822285926 0.00078298877034 0.00077782442984 0.00077272982579 0.0011046329125 
0.0010961773947 0.0010878091299 0.0010795274127 0.0010713284722 0.0010632112582 0.0010551724124 0.001047088714 0.0010392055218 0.001031396381 
0.0010236594506 0.0010159924481 0.0010083971381 0.0010008704112 0.00099341136657 0.0009860181215 0.00097869180362 0.00097143019497 0.00096423186518 
0.00095709662429 0.00095001794335 0.00094300858371 0.00093606141298 0.00092917424389 0.00092235067707 0.00091558900622 0.0009088905198 0.00090225484648 
0.00089568394582 0.00088917779828 0.00088273842499 0.00087636744451 0.00087006638414 0.00086383710779 0.00085767837679 0.00085159169566 0.00084557720004 
0.00083963388435 0.00083376114501 0.0008279591795 0.0008222257239 0.00081655907184 0.00081096045654 0.00080542712315 0.000799959729 0.00079455918968 
0.00078922597642 0.00078396118392 0.00077876586099 0.00077363884468 0.0011071602322 0.0010986476331 0.0010902239193 0.0010818874379 0.0010736355099 
0.001065465918 0.0010573776349 0.001049242836 0.0010413124173 0.0010334574788 0.0010256774259 0.0010179706398 0.001010338202 0.0010027765462 
0.00099528374156 0.00098786089443 0.00098050695783 0.00097322000049 0.00096599817091 0.00095884184637 0.00095174402109 0.00094471703734 0.00093775346471 
0.00093085148714 0.00092401407249 0.00091724055804 0.00091052929036 0.00090388274916 0.00089729887557 0.00089078072449 0.00088432859701 0.00087794401549 
0.00087162767312 0.00086538003215 0.00085920257584 0.00085309555906 0.00084705772667 0.00084109003507 0.00083519155552 0.00082936113336 0.00082359872887 
0.00081790291395 0.00081227269578 0.00080670859853 0.00080121107248 0.00079577785964 0.00079041276846 0.00078511577181 0.00077988671839 0.00077472853038 
0.0011099772454 0.0011014051336 0.0010929228095 0.0010845286563 0.0010762209486 0.0010679963105 0.0010598541943 0.001051792903 0.0010436866095 
0.0010357836402 0.0010279585929 0.0010202092416 0.0010125367023 0.0010049377298 0.0009974114564 0.00098995597563 0.00098257111618 0.00097525589077 
0.00096800859005 0.00096082855233 0.00095371539842 0.00094666170933 0.00093967898004 0.0009327617294 0.00092590899143 0.00091912043814 0.00091239622439 
0.00090573585698 0.00089913914821 0.00089260785481 0.00088614301493 0.00087974276561 0.00087341137109 0.00086714706611 0.00086095008961 0.00085482257459 
0.00084876296659 0.00084277035918 0.00083684523025 0.00083098731113 0.00082519580315 0.00081946929473 0.00081380829141 0.00080821204913 0.00080268190416 
0.00079721638444 0.00079181720235 0.00078648619323 0.00078122370349 0.0007760313502 0.0011131208141 0.001104485359 0.0010959405724 0.0010874864979 
0.0010791191597 0.0010708379261 0.0010626392073 0.0010545235391 0.0010464887407 0.0010384108515 0.0010305382819 0.0010227437455 0.0010150276677 
0.0010073892593 0.00099982384038 0.00099233330777 0.00098491550922 0.00097756897668 0.00097029329608 0.00096308700038 0.00095594920415 0.00094887957575 
0.00094186811539 0.00093493200827 0.00092806134144 0.00092125663253 0.00091451659672 0.00090784139376 0.00090123076689 0.00089468489761 0.00088820484971 
0.00088179081143 0.00087544257418 0.00086916126191 0.00086294603636 0.00085679703727 0.0008507154096 0.00084469862736 0.00083874822271 0.00083286233879 
0.00082704128058 0.00082128391847 0.00081559124469 0.00080996191057 0.00080439770195 0.00079889795414 0.00079346431028 0.00078809734776 0.00078280054762 
0.00077757227006 0.0011166139703 0.0011079119482 0.0010993026465 0.0010907834138 0.001082355028 0.001074013093 0.0010657559003 0.0010575822015 
0.0010494937557 0.0010413622461 0.0010334393056 0.0010255969647 0.0010178348606 0.0010101518425 0.0010025467818 0.00099501595146 0.00098756178034 
0.00098018127368 0.00097287280647 0.00096563635596 0.00095847120951 0.00095137417822 0.00094434781517 0.0009373816328 0.00093049007485 0.00092366611896 
0.00091690790013 0.0009102158466 0.00090358918444 0.00089702823402 0.00089053280088 0.000884103728 0.00087773810615 0.00087143930366 0.0008652050385 
0.00085903645708 0.00085293189857 0.00084689124797 0.00084091522525 0.00083500193749 0.00082915093339 0.00082336297342 0.00081763810256 0.00081197453893 
0.00080637519398 0.0008008406173 0.00079537082087 0.00078996800084 0.00078463377549 0.00077936854918 0.0011204717686 0.0011116997227 0.0011030225773 
0.0010944366487 0.0010859433243 0.0010775376159 0.0010692178637 0.0010609858299 0.0010528395837 0.0010447783924 0.0010366750125 0.0010287815496 
0.0010209699725 0.001013240063 0.0010055904915 0.00099801757347 0.00099052289594 0.00098310398626 0.0009757600344 0.00096848994407 0.00096129292321 
0.00095416636224 0.00094711228323 0.00094012825864 0.00093320587533 0.00092635947774 0.00091958030257 0.00091286961095 0.00090622518836 0.00089964743541 
0.00089313617751 0.0008866893965 0.00088030696991 0.00087398991229 0.00086773699585 0.00086154761378 0.00085542167646 0.00084935708396 0.0008433555093 
0.00083741501334 0.00083153471822 0.00082571503424 0.00081995702983 0.00081425945598 0.0008086243273 0.00080305248543 0.00079754615261 0.00079210586407 
0.00078673294461 0.00078142961149 0.00112470213 0.0011158568763 0.0011071079588 0.001098452546 0.0010898906897 0.0010814181127 0.0010730356986 
0.0010647413763 0.0010565343055 0.001048414325 0.0010403800432 0.0010323050478 0.0010244414583 0.001016660696 0.0010089626738 0.0010013434616 
0.00099380507681 0.0009863444039 0.00097896152339 0.00097165325218 0.00096441901082 0.00095726099509 0.00095017611033 0.00094316299382 0.00093622190144 
0.00092934256704 0.00092254091205 0.00091580859677 0.00090914367357 0.00090254690544 0.00089601711748 0.00088955294563 0.00088315364793 0.00087681713192 
0.00087054534059 0.00086433573508 0.0008581877861 0.00085210006341 0.00084607251201 0.00084010406594 0.0008341948963 0.00082834401812 0.0008225522744 
0.00081681976366 0.00081114803083 0.00080554018984 0.00079999485687 0.00079451570712 0.00078910466819 0.00078376233328 0.001129308316 0.0011203867275 
0.0011115637916 0.0011028344527 0.0010942017595 0.0010856607718 0.001077210674 0.0010688510858 0.0010605809414 0.0010523996552 0.0010443047871 
0.0010361709502 0.0010282518829 0.001020416651 0.001012666014 0.0010049972933 0.00099741100545 0.00098990491703 0.00098247861654 0.00097512985088 
0.0009678570147 0.00096066181615 0.0009535409616 0.00094649633472 0.00093952507064 0.00093261722066 0.00092578974732 0.00091903322758 0.00091234680987 
0.00090572924999 0.00089917822966 0.00089269534822 0.00088627699103 0.00087992150997 0.00087362939702 0.0008673991443 0.00086122912013 0.00085511810982 
0.00084906571771 0.00084306942976 0.00083713054099 0.00083124916048 0.00082542411621 0.00081965635155 0.00081394871032 0.00080830092939 0.00080271778006 
0.00079719986977 0.00079174969635 0.00078636773456 0.0011342943664 0.0011252931161 0.0011163910342 0.0011075868573 0.0010988800024 0.0010902665081 
0.0010817460724 0.0010733179831 0.0010649812636 0.0010567343825 0.0010485765822 0.0010405078524 0.0010324006548 0.0010245086687 0.0010167013971 
0.0010089793241 0.0010013412405 0.00099378567814 0.00098631188247 0.00097891683882 0.00097160312075 0.00096436586038 0.0009572085607 0.00095012705542 
0.00094312146571 0.00093619172781 0.00092932752128 0.00092254371131 0.00091583186429 0.00090919011025 0.00090261763989 0.00089611278412 0.00088967389182 
0.00088329870769 0.00087698579789 0.00087073432991 0.00086454176716 0.00085840718689 0.00085232903934 0.00084630547082 0.00084033763816 0.00083442417242 
0.00082856688755 0.00082276487715 0.00081701906801 0.00081133436799 0.00080571248298 0.00080015470698 0.00079466541807 0.00078924319027 0.0011396584976 
0.0011305740871 0.0011215914778 0.0011127072733 0.0011039229429 0.0010952341994 0.0010866401855 0.0010781411106 0.0010697337378 0.0010614193345 
0.0010531950051 0.001045061145 0.0010368876229 0.0010289343601 0.0010210685691 0.0010132884892 0.0010055952471 0.0009979862526 0.00099045904837 
0.00098301714903 0.00097565676421 0.00096837703351 0.00096117762842 0.00095405774719 0.00094701481209 0.00094004991254 0.00093316096758 0.00092633905095 
0.00091959868373 0.00091293018499 0.00090633313727 0.000899805615 0.00089334464736 0.00088694779556 0.00088061270644 0.00087433894247 0.00086812324688 
0.00086196475206 0.00085586053755 0.00084980984285 0.00084381246252 0.00083786790115 0.0008319769215 0.00082614030515 0.00082035855105 0.00081463598445 
0.00080897550805 0.00080337831036 0.00079784843511 0.0007923869883 0.0011454023954 0.0011362322577 0.001127164175 0.0011181978555 0.0011093329806 
0.0011005642075 0.0010918931204 0.0010833183711 0.0010748376834 0.001066450976 0.0010581567797 0.0010499548538 0.0010418432853 0.001033695758 
0.0010257666543 0.0010179250134 0.001010172579 0.0010025061059 0.00099492424155 0.0009874292384 0.00098001946954 0.00097269256937 0.00096544730135 
0.00095828387554 0.00095120124108 0.00094419797367 0.00093727373886 0.00093042625191 0.00092364471234 0.00091694750507 0.00091032299833 0.0009037685468 
0.00089728198002 0.00089086090214 0.00088450275697 0.00087820546411 0.00087196522562 0.00086578078698 0.00085965096929 0.00085357253355 0.00084754556207 
0.00084157009732 0.0008356453377 0.00082977430537 0.00082395767769 0.00081819851129 0.00081249926846 0.0008068633969 0.00080129404912 0.00079579350699 
0.0011515294311 0.0011422683022 0.0011331120294 0.0011240597988 0.0011151107229 0.0011062601326 0.0010975085741 0.0010888550055 0.0010802967262 
0.0010718341978 0.0010634656831 0.0010551915557 0.0010470096532 0.0010389197616 0.0010307944573 0.0010228881835 0.0010150710666 0.0010073429012 
0.00099970423732 0.00099215281895 0.00098468836752 0.00097731048177 0.0009700162948 0.00096280596193 0.00095567799411 0.00094863223873 0.00094166864153 
0.0009347838255 0.00092797623151 0.00092123694946 0.00091458048842 0.00090799697218 0.00090148325305 0.00089503560444 0.000888650896 0.00088232770812 
0.00087606115663 0.00086985086849 0.00086369199141 0.00085758568962 0.00085152915082 0.00084552212433 0.00083956539518 0.00083365929617 0.00082780828498 
0.00082201267949 0.00081627662519 0.00081060305525 0.00080499405586 0.00079945439608 0.0011580441461 0.001148689279 0.0011394412353 0.001130298182 
0.0011212601888 0.0011123243321 0.0011034882003 0.0010947513406 0.0010861120252 0.0010775693698 0.0010691234057 0.0010607719892 0.0010525151427 
0.0010443520617 0.0010361544845 0.0010281782325 0.0010202950321 0.0010125013412 0.001004800428 0.00099718882139 0.00098966681009 0.00098223242616 
0.00097488496375 0.00096762417183 0.00096044731185 0.00095335606444 0.00094634711361 0.00093942044326 0.00093257397593 0.00092579673867 0.00091910527678 
0.00091248800413 0.00090594242067 0.00089946472159 0.00089305111082 0.00088669848451 0.00088040402184 0.00087416550986 0.0008679778494 0.00086184190342 
0.0008557549589 0.00084971660771 0.00084372686589 0.00083778729748 0.00083190197854 0.00082607154645 0.00082029895249 0.00081458844031 0.00080894266444 
0.00080336418874 0.0011649528114 0.0011554976979 0.0011461534847 0.0011369159622 0.0011277853678 0.0011187584944 0.0011098346595 0.0011010111129 
0.0010922863655 0.0010836601314 0.0010751310378 0.0010666984479 0.0010583626906 0.0010501220646 0.0010419771064 0.00103379926 0.001025843009 
0.0010179816685 0.0010102135771 0.0010025383216 0.00099495386393 0.00098746012052 0.00098005567459 0.00097273985676 0.00096551144786 0.00095836792656 
0.00095130982706 0.00094433655952 0.00093744503605 0.00093063566532 0.00092389470267 0.00091723928923 0.00091065771435 0.00090414481464 0.00089769823344 
0.00089131323159 0.00088498840718 0.00087871861992 0.00087250136394 0.00086633310655 0.00086021424085 0.00085414507507 0.00084812272047 0.00084215050264 
0.00083622982472 0.00083036454598 0.00082455668803 0.00081881008507 0.00081312778104 0.0008075129178 0.0011722581084 0.0011627009801 0.0011532554747 
0.0011439192852 0.0011346916466 0.0011255697359 0.0011165518479 0.0011076372077 0.0010988224217 0.0010901078459 0.0010814928433 0.0010729751813 
0.001064554937 0.0010562333068 0.0010480074344 0.0010398792368 0.0010317196593 0.0010237855541 0.001015946372 0.0010082036451 0.0010005532192 
0.00099299632492 0.0009855301119 0.00097815461488 0.00097086842153 0.00096366922375 0.00095655785334 0.00094953201564 0.00094259103057 0.00093573353319 
0.00092895709388 0.00092224910205 0.00091562575367 0.00090907416077 0.00090259008692 0.00089616885155 0.00088980957189 0.0008835056721 0.00087725499306 
0.00087105481987 0.00086490239418 0.00085879834715 0.00085274322798 0.00084673753915 0.00084078296524 0.00083488249555 0.00082904065796 0.00082325919243 
0.00081754188059 0.00081189058608 0.0011799662795 0.001170302064 0.0011607524959 0.00115131243 0.001141983431 0.001132761427 0.0011236458961 
0.0011146344126 0.001105725493 0.0010969178167 0.0010882103193 0.001079603699 0.0010710947428 0.001062686097 0.0010543772242 0.0010461645139 
0.0010379256072 0.0010299152952 0.0010220016717 0.0010141862994 0.001006466441 0.00099884064251 0.00099130858777 0.00098386957021 0.00097652096439 
0.00096926189727 0.00096209071958 0.00095500763316 0.00094801166225 0.00094110040598 0.00093427279848 0.00092752544848 0.00092084653981 0.00091424994345 
0.00090772310594 0.00090126160617 0.0008948622702 0.00088852114927 0.00088223386028 0.00087599760958 0.00086981137145 0.00086367162014 0.0008575816761 
0.00085154157341 0.00084555383657 0.00083961859374 0.00083374232816 0.0008279265992 0.00082217328957 0.00081648667736 0.0011880785221 0.0011783026878 
0.001168643981 0.0011590973561 0.0011496618753 0.0011403357521 0.0011311175918 0.0011220039906 0.0011129950816 0.0011040897292 0.0010952870679 
0.0010865848991 0.0010779836238 0.0010694840868 0.001061084448 0.0010527867634 0.001044590143 0.0010363696134 0.0010283787281 0.0010204862866 
0.0010126925086 0.0010049951957 0.00099739272292 0.00098988440031 0.00098246824669 0.00097514342773 0.00096790847257 0.00096076220105 0.00095370442588 
0.00094673468912 0.00093984952442 0.0009330472162 0.00092631476815 0.00091966854878 0.00091309403101 0.00090658685983 0.00090014365992 0.00089376054766 
0.00088743338214 0.00088115808483 0.00087493446104 0.0008687582791 0.0008626319075 0.00085655601455 0.00085053222556 0.00084456313757 0.00083865140429 
0.00083280112997 0.00082701323212 0.0008212919252 0.0011965940025 0.0011867036303 0.0011769296448 0.0011672712463 0.0011577247119 0.0011482884338 
0.0011389625194 0.0011297436063 0.0011206309883 0.0011116225626 0.0011027179503 0.0010939170832 0.0010852178333 0.0010766228197 0.0010681290994 
0.0010597412044 0.0010514569627 0.0010431498959 0.0010350752008 0.0010271022939 0.0010192300266 0.0010114568487 0.0010037789434 0.00099619656431 
0.00098870754722 0.00098131299522 0.00097400834158 0.00096679314314 0.00095966818045 0.00095263219133 0.00094568320778 0.00093881916165 0.00093203836185 
0.00092532570602 0.00091869732091 0.00091214011153 0.00090564832127 0.0008992195667 0.00089284815292 0.00088653035374 0.0008802649311 0.00087405006367 
0.00086788471349 0.00086177146782 0.00085571151592 0.00084970656417 0.00084375937781 0.00083787328064 0.00083205122566 0.00082629458279 0.0012055057047 
0.0011954959086 0.0011856033235 0.0011758273062 0.0011661656214 0.0011566146877 0.0011471756535 0.0011378461461 0.0011286234282 0.0011195075147 
0.0011104974915 0.0011015922698 0.001092790957 0.0010840935842 0.0010755036031 0.0010670208737 0.0010586448494 0.0010503747827 0.001042084377 
0.0010340265313 0.001026070883 0.0010182170601 0.0010104600607 0.001002799489 0.00099523407564 0.00098776126004 0.00098038111495 0.00097309266696 
0.0009658941232 0.00095878633338 0.00095176758751 0.00094483599121 0.00093799044756 0.00093122599184 0.0009245281014 0.00091791454232 0.00091136993298 
0.00090488956608 0.00089846967851 0.00089210627408 0.00088579560377 0.00087953766283 0.00087333229568 0.00086717940779 0.00086108063951 0.00085503718669 
0.00084905328591 0.00084313087426 0.0008372731365 0.00083148114981 0.0012147920559 0.0012046587234 0.0011946435608 0.0011847466964 0.0011749649559 
0.001165295562 0.001155739033 0.001146292924 0.0011369566626 0.0011277300343 0.001118609117 0.0011095949893 0.0011006871481 0.0010918858903 
0.0010831943825 0.0010746116796 0.0010661389481 0.0010577743995 0.0010493909733 0.0010412449101 0.0010332026964 0.0010252620583 0.0010174218682 
0.0010096784474 0.0010020308203 0.00099447671669 0.00098701520534 0.00097964722244 0.00097237018435 0.0009651840277 0.0009580898215 0.00095108524089 