# vtk DataFile Version 5.1
vtk output
ASCII
DATASET STRUCTURED_POINTS
DIMENSIONS 50 50 50
SPACING 0.002 0.002 0.002
ORIGIN 0.1742 -0.052672 0.02732
POINT_DATA 125000
FIELD FieldData 1
potential 1 125000 double
0.035358286125 0.035368160684 0.035377593188 0.035387270433 0.035396817332 0.035406424314 0.035415909771 0.035425718181 0.035435265094 
0.035444562009 0.035453798348 0.035462998862 0.03547207182 0.035481273205 0.035490598825 0.035500011589 0.035509528434 0.035519311086 
0.035529314446 0.035539756514 0.035550131968 0.035560425987 0.035571080218 0.035581353731 0.035591562062 0.035601937691 0.035612204205 
0.035622419578 0.035633002587 0.035643856441 0.035654952795 0.035666925352 0.035679567887 0.035693337955 0.035707437069 0.035722137294 
0.035737543135 0.0357531905 0.035769095454 0.035785144932 0.035801364424 0.035817194506 0.035832833774 0.035848402792 0.035863660884 
0.035878807743 0.035893769312 0.035909106197 0.03592458491 0.035940461541 0.035282943896 0.035292916502 0.035302771067 0.035312532609 
0.035322206916 0.035331889117 0.035341483118 0.0353511695 0.035360612556 0.035369616502 0.035378863633 0.035387976256 0.035397106386 
0.03540627894 0.035415463574 0.03542473523 0.035434292608 0.035443914035 0.035453658879 0.035463432279 0.035473703637 0.035483895413 
0.035493935915 0.035504519803 0.035514450687 0.035524389382 0.035534934126 0.035545160165 0.035555608073 0.03556653373 0.035577710216 
0.035589800598 0.035602568533 0.035616071359 0.035630684186 0.035645545326 0.035660922512 0.035676817998 0.035692785659 0.035709125006 
0.035725119648 0.035740964041 0.035756627164 0.035772173079 0.03578742304 0.035802556015 0.035817527978 0.035832877153 0.035848387165 
0.035864314185 0.035198872881 0.035209026099 0.035219027023 0.035228959461 0.035238825665 0.035248931095 0.035258529742 0.03526818611 
0.035277756327 0.035287212999 0.035296465306 0.035305686744 0.035314868281 0.035323989045 0.035333220139 0.035342461717 0.035351414116 
0.035360775647 0.035370279246 0.035379910932 0.035389624241 0.035399600137 0.03540924947 0.035419263571 0.035429676285 0.035440024391 
0.035450002128 0.035460210973 0.035470528015 0.035481525639 0.035492808947 0.035505005332 0.035517906274 0.035531528304 0.035546287838 
0.035561237177 0.035576692375 0.035592491357 0.03560894139 0.035625011933 0.035641019094 0.035656830105 0.035672584402 0.035688044559 
0.035703278829 0.035718438211 0.035733683878 0.035748820852 0.035764400411 0.035780395677 0.03510303433 0.035113391995 0.035123634936 
0.03513377704 0.035144061691 0.035154381459 0.035164304376 0.03517412166 0.035183579011 0.035193120257 0.035202589442 0.03521188738 
0.035221091323 0.035230438689 0.035239513295 0.035248623884 0.035257750801 0.035266957706 0.035276240925 0.035285652054 0.035294740062 
0.035304232826 0.035314293448 0.035323922163 0.035333983035 0.03534428825 0.035354193704 0.035364022945 0.03537457845 0.0353853204 
0.035396979097 0.035409308131 0.035422189479 0.035435934359 0.035450386735 0.035465829627 0.035481353752 0.035497196465 0.035513507117 
0.035529729446 0.035545722701 0.035561656124 0.035577237195 0.035592628939 0.03560786302 0.035623152887 0.035638406127 0.035653781797 
0.035669286308 0.035685433027 0.034992756923 0.035003361927 0.035013887203 0.035024508404 0.035034844565 0.035045102693 0.035055587576 
0.03506563183 0.035075577405 0.035085385222 0.035094665896 0.035104158068 0.035113582294 0.035122732148 0.035131801134 0.03514086588 
0.035149949956 0.035158622313 0.035167720686 0.035176816647 0.035185992353 0.035195436115 0.035204679816 0.035214674847 0.035224355151 
0.035234405414 0.035244234046 0.035254378552 0.035264958815 0.035275794971 0.035287553101 0.035299977495 0.035313144473 0.035327038107 
0.035341607115 0.035356538957 0.035372515622 0.035388700054 0.035404713128 0.035420756916 0.035436878488 0.035452772414 0.035468331413 
0.035483741417 0.035499037784 0.035514209797 0.03552944535 0.035544961084 0.035560784129 0.035576728297 0.034866313898 0.034877182033 
0.034888177945 0.034898907686 0.034909558729 0.034920092172 0.034930837275 0.03494120087 0.034951308887 0.034961400221 0.034971343414 
0.034980936617 0.034990044906 0.034999298737 0.035008366728 0.035017041116 0.035025997674 0.035034857813 0.035043745817 0.035052612176 
0.035061786905 0.035070685169 0.035080193146 0.035089301404 0.035098721288 0.035108466751 0.035118773929 0.035128835252 0.035139207104 
0.03515042295 0.035162199351 0.035174770071 0.035188061243 0.035202083817 0.035216732236 0.035231903694 0.035248236101 0.035264144303 
0.035280231348 0.035296242723 0.03531210086 0.035328023958 0.035343511619 0.035358928871 0.035374114224 0.035389299134 0.035404587918 
0.035419956228 0.035435890136 0.035452218618 0.034722960986 0.034734117935 0.034745409494 0.034756430513 0.034767375788 0.034778230726 
0.034789320405 0.034799864867 0.034810356305 0.034820723138 0.034830739346 0.034840543835 0.03485002987 0.034858977309 0.034867884246 
0.034876875587 0.034885703236 0.03489445156 0.034903133378 0.034912083759 0.034920759038 0.03492995764 0.034938771172 0.034947677231 
0.034956761906 0.034966306773 0.034976294292 0.03498697472 0.034997394886 0.035008685211 0.035020502356 0.035033207817 0.035046642768 
0.035060777458 0.035075590274 0.035091158282 0.035106792775 0.035123123346 0.035139117088 0.035155105191 0.035171086073 0.035186943511 
0.035202396781 0.035217787587 0.035232600429 0.035247803092 0.035263145714 0.035278748306 0.035294816805 0.035311417183 0.034562823341 
0.034574271846 0.034585660387 0.034597160038 0.034608451258 0.034619627882 0.034630639511 0.034641855337 0.034652707447 0.034663169259 
0.034673231919 0.03468319057 0.034692851155 0.034702240864 0.034711429435 0.03472037893 0.034728902363 0.034737884968 0.034746446255 
0.03475495171 0.034763931395 0.034772461632 0.03478109287 0.034789841368 0.034798834248 0.034808080308 0.034817991333 0.034828175349 
0.03483943935 0.034850928918 0.034863037067 0.034875781105 0.034889266288 0.034903494295 0.034918664068 0.034933999128 0.034949659898 
0.034965560387 0.034981966837 0.03499803098 0.035013828341 0.035029437003 0.035044927798 0.035060157954 0.035075293144 0.035090518841 
0.035105898097 0.03512159388 0.035137794455 0.035154399229 0.034387954045 0.034399417957 0.034411079803 0.034422712341 0.034434434651 
0.034445894197 0.034457353381 0.034468456842 0.034479414489 0.034490104567 0.034500571603 0.034510618872 0.034520441239 0.034529926306 
0.03453917506 0.03454817505 0.034557218886 0.034565836677 0.034574068285 0.034582980388 0.034591340491 0.034599964538 0.034608594941 
0.034617266643 0.034626178867 0.034635440087 0.03464508592 0.034655277966 0.034666913892 0.034678404043 0.034690639862 0.034703605803 
0.034717182177 0.034731530425 0.034746702598 0.034762097339 0.034777798729 0.03479368835 0.034809656026 0.034826072005 0.03484161419 
0.034857275053 0.034872649903 0.034888004778 0.034903141629 0.03491832894 0.034933774296 0.034949293826 0.034965581598 0.034982479151 
0.03419994972 0.034211667706 0.034223530638 0.034235404589 0.034247181517 0.03425869238 0.034270448295 0.034281871455 0.034293347641 
0.034304242832 0.034314855286 0.034325077162 0.034334967045 0.034344623648 0.034354067649 0.034363381563 0.034372183254 0.034380789785 
0.034389751467 0.034398107691 0.034406441371 0.034414599225 0.034423095345 0.034431762446 0.034440708931 0.034449993685 0.034459695329 
0.034469688937 0.034480869938 0.034493505985 0.03450582138 0.034518908085 0.034532605029 0.034547353028 0.034562348608 0.034577784987 
0.034593498214 0.034609106489 0.034625152584 0.034641398928 0.034657211372 0.034672687052 0.034688023276 0.034703031258 0.034718311917 
0.034733262005 0.034748730175 0.034764572139 0.034780971204 0.034798001621 0.034002206855 0.034014305901 0.034025803354 0.034037978298 
0.034049993623 0.034061962383 0.034073710593 0.034085462983 0.034097130231 0.034108186779 0.034118897104 0.0341292561 0.03413932073 
0.03414907425 0.034158872443 0.034167971818 0.034176848584 0.034186020325 0.034194511441 0.034202929993 0.03421129457 0.034219699113 
0.034228229548 0.034236749215 0.034245753731 0.034255138096 0.034264717391 0.034275089557 0.034286110987 0.034298147916 0.034311425546 
0.034324623426 0.034338804763 0.034353225605 0.034368241549 0.034383475755 0.034399263675 0.034415089493 0.034431071585 0.034446910437 
0.034462952434 0.034478375198 0.034493411717 0.034508582619 0.034523687496 0.034539087856 0.034554582405 0.034570499628 0.034587000575 
0.034604308077 0.033797588314 0.033809814848 0.033822167299 0.033834129428 0.033846315928 0.033858376554 0.033870287148 0.033882018712 
0.033893491411 0.033905105772 0.033915973945 0.033926473761 0.033936675177 0.033946856866 0.033956413795 0.033965714536 0.033975236046 
0.033984007444 0.033992656435 0.034001166976 0.03400965378 0.034018166951 0.034026827968 0.034035687772 0.034044843589 0.034054398998 
0.03406392952 0.034074461497 0.034085625686 0.034097501828 0.034110397213 0.034124363368 0.034138409519 0.03415287938 0.034167943932 
0.034183360332 0.034199040606 0.034214950979 0.034230876939 0.034246580413 0.034261865215 0.034277671389 0.034293071888 0.034308240094 
0.034323353275 0.034338624734 0.03435434046 0.034370491949 0.034387079698 0.034404202527 0.033590759671 0.033603094336 0.03361539965 
0.033627713183 0.033639658169 0.033651808267 0.033663847013 0.033675646419 0.033687197667 0.033698739444 0.033709860865 0.033720779482 
0.033731115591 0.03374113394 0.033750828858 0.033760779735 0.033770010395 0.033778959713 0.033787758089 0.033796482746 0.033805163691 
0.033813898445 0.033822791321 0.033831864113 0.033841217924 0.033850677431 0.033860760177 0.033871503484 0.033882655314 0.033894691626 
0.033907134599 0.033921168209 0.033935672711 0.033950602969 0.033965579139 0.033980964699 0.033996665532 0.034012258607 0.034027978348 
0.034043614869 0.034059087329 0.034074839631 0.034090088573 0.034105235178 0.034120387331 0.034135724302 0.034151698926 0.03416796849 
0.034184637928 0.034201854632 0.033384794212 0.033397153314 0.033409500661 0.033421830461 0.033433831689 0.033445989528 0.033458022918 
0.033469888185 0.033481428197 0.03349273386 0.033504361453 0.033515111316 0.033525715928 0.033535897787 0.0335462897 0.033555902447 
0.033565287105 0.033574543353 0.033583574874 0.033592572735 0.033601517947 0.033610427623 0.033619563109 0.033628912308 0.033638545876 
0.033648262804 0.033658710814 0.033669416847 0.033680935271 0.033693143361 0.033706310437 0.033719629284 0.033734014266 0.03374907898 
0.033764171231 0.033779405556 0.033795051786 0.033810770143 0.03382639312 0.033841940901 0.033857364248 0.033872683157 0.033888333581 
0.033903530322 0.03391878326 0.033934363722 0.033950125844 0.033966459259 0.033983058378 0.034000515189 0.033183237278 0.033195585339 
0.033207924248 0.03322026495 0.033232499121 0.033244348365 0.033256337664 0.033268176075 0.033279747294 0.033291394021 0.033302741001 
0.033313553014 0.033324150593 0.033335156395 0.033345190403 0.033355049167 0.033364673632 0.033374034971 0.033383438134 0.033392726523 
0.033401997873 0.033411357254 0.033420815053 0.033430476098 0.033439876549 0.033450187938 0.033460918267 0.033472145887 0.033483908601 
0.033496592836 0.033509535799 0.033522835978 0.033536921509 0.033551857204 0.033567077467 0.033582320366 0.033598219479 0.033613731828 
0.033629202499 0.033644672369 0.03366004997 0.033675334357 0.033690607528 0.033706264631 0.033721786806 0.033737327721 0.033753200135 
0.033769367796 0.033786399527 0.033803907164 0.032989214141 0.033001497839 0.033013759331 0.033026028048 0.03303818469 0.03305025863 
0.033061906728 0.033073637915 0.033085506136 0.033096802293 0.033107908315 0.033119095153 0.033130347173 0.033140712062 0.033150974467 
0.033161198692 0.033171097829 0.033180865639 0.033190548603 0.033200221298 0.03320986672 0.033219296932 0.033229135998 0.033239158201 
0.033249181207 0.033259832171 0.033270861507 0.033282349756 0.033294395274 0.033306892311 0.033319964796 0.033333548016 0.033347657654 
0.03336219795 0.033377851061 0.033393218815 0.033408415264 0.033423997937 0.033439378976 0.033454773201 0.033470105525 0.033485390269 
0.033500682587 0.03351616913 0.033532025173 0.033547709848 0.033563571646 0.033580010931 0.033597006224 0.033614756655 0.032805153478 
0.032817342724 0.032829563131 0.032841716901 0.03285377049 0.032865728541 0.032877840137 0.032889246924 0.032900755546 0.032911924417 
0.032923064145 0.032934858033 0.032945624152 0.032956243408 0.032966705233 0.032976992395 0.032987187188 0.032997128779 0.033007150228 
0.033017140699 0.033027228412 0.033037333372 0.033047577865 0.033057722391 0.033068379035 0.033079089368 0.033090426793 0.033102166693 
0.033114691399 0.033127350792 0.033140513669 0.033154134222 0.03316820244 0.033182675512 0.033197731853 0.033213540203 0.033228603385 
0.033243862808 0.03325950218 0.033274789884 0.033289998284 0.033305468995 0.03332081086 0.033336203511 0.033351760622 0.033367983706 
0.033383965 0.033400535643 0.033417626599 0.033435316647 0.032633224671 0.032645271891 0.032657317071 0.032669335383 0.032681263601 
0.032693472516 0.032705057316 0.032716341437 0.032727758594 0.032738975264 0.032750650105 0.032761621794 0.032772825671 0.032783581102 
0.032793893832 0.032804444845 0.032814932769 0.032825352525 0.032835853972 0.03284621758 0.032856698796 0.032867193122 0.032877568914 
0.032888080575 0.032899090341 0.03291041051 0.032922016088 0.032934344804 0.032946722268 0.032959557295 0.032972795199 0.032986480296 
0.03300052698 0.033015206262 0.033029876648 0.033044776832 0.033060595911 0.033075651987 0.033090864664 0.033106108879 0.033121912704 
0.03313723578 0.033152610583 0.033168091299 0.033183730972 0.033199898467 0.033216156051 0.033232842137 0.033249891619 0.033267612954 
0.032475079923 0.032486988259 0.032498500996 0.032510359948 0.032522487573 0.032534132712 0.032545711312 0.03255721645 0.032568231491 
0.032579998734 0.032590782449 0.032601795902 0.032613108347 0.03262402546 0.032634882687 0.032645638722 0.032656380461 0.032667096602 
0.032677548671 0.032688256573 0.032699164838 0.032710092536 0.032720831714 0.032731970073 0.032743321811 0.032754922706 0.03276713874 
0.032779360181 0.032791926326 0.032804889711 0.0328182207 0.032831888122 0.03284611863 0.032860579322 0.032875148009 0.032889940328 
0.032904887596 0.03292071311 0.032935720291 0.032951148313 0.03296643492 0.032982082147 0.032997542383 0.033013147977 0.033028817637 
0.033044863244 0.033061627394 0.033078332462 0.033095479726 0.033113237738 0.032330776155 0.032342521857 0.032354610921 0.03236632326 
0.03237791196 0.032389784068 0.03240088875 0.032412248591 0.032423720046 0.032434683189 0.032445806153 0.032456868563 0.032467924258 
0.032479316047 0.032490069669 0.032501058926 0.032512042324 0.032523026435 0.032534037447 0.032545072056 0.032556173259 0.032567357884 
0.032578624958 0.032590106535 0.032601760844 0.032613657353 0.032626103025 0.032638533109 0.032651272161 0.032664340158 0.032677732334 
0.032691608892 0.032705760113 0.032720041214 0.032734531655 0.032749212727 0.032764074522 0.03277900913 0.032795009015 0.032810181279 
0.032825463767 0.032840843538 0.032856703465 0.032872379788 0.032888150513 0.03290432064 0.03292078764 0.03293793772 0.032955267886 
0.032973022109 0.032202046458 0.032213628505 0.03222523001 0.032236772945 0.032248252969 0.032259685818 0.032271019479 0.032282771979 
0.032293969761 0.032305188074 0.032316073793 0.032327221886 0.032338357769 0.032349836845 0.032361007135 0.032372146469 0.032383101904 
0.032394336431 0.032405590878 0.032416909856 0.032428322298 0.032439531237 0.032451159062 0.032463136306 0.032475050512 0.032487504864 
0.032499846848 0.032512448746 0.0325253307 0.032538514586 0.032552144286 0.032565886285 0.032579985933 0.032594225971 0.032608651517 
0.03262327168 0.032638039167 0.032653155832 0.032668207818 0.032683623936 0.032699330861 0.032714772437 0.032730398803 0.032745953634 
0.032762307144 0.032778601258 0.032795158235 0.032812000454 0.032829757848 0.032847533399 0.032089000727 0.032100297868 0.032111763912 
0.032123124324 0.032134514918 0.032145823693 0.032157373159 0.032168496081 0.032179641237 0.032190782612 0.032201640624 0.032212797239 
0.032223958024 0.032235203804 0.032246848303 0.032258505177 0.032269894101 0.032281323342 0.032292816173 0.032304383522 0.032316027503 
0.032327494254 0.032339351357 0.032351370084 0.032363919066 0.032376382751 0.032388888247 0.032401662126 0.032414449582 0.032427905401 
0.032441436809 0.032455311566 0.032469265896 0.032483449219 0.032497844008 0.032512392853 0.03252736496 0.032542215567 0.032557258542 
0.032572429154 0.032587968401 0.032603875545 0.032619414858 0.032635267964 0.03265128812 0.032667971116 0.032684562648 0.032701546418 
0.032718883126 0.032737072645 0.031991511528 0.032002441216 0.032013723347 0.032024989693 0.032036245326 0.03204799868 0.032059144608 
0.032070209529 0.03208130563 0.032092420407 0.032103552707 0.032114468492 0.032125708476 0.032137024618 0.03214874131 0.032160173374 
0.032171735033 0.032183333663 0.032195035718 0.032206770503 0.032218342864 0.032230300728 0.032242745809 0.032254943812 0.032267625855 
0.032280227424 0.032292913832 0.032305932712 0.032319212345 0.03233254682 0.032346243919 0.032360007156 0.032373966241 0.032388097549 
0.032402467193 0.032417239013 0.032431929673 0.03244676819 0.032461770614 0.032476947089 0.032492157468 0.032507868699 0.032524035744 
0.032539956233 0.032556080602 0.032572482165 0.032589079931 0.032606433747 0.03262381911 0.032641986049 0.03190947959 0.031920468398 
0.031931643945 0.031943337696 0.031954478472 0.031965579373 0.031976590728 0.031987654577 0.031998735003 0.032009840396 0.032020962203 
0.032031906708 0.032043193689 0.032054560985 0.032066031583 0.032077884079 0.032089540544 0.032101287981 0.032113134153 0.032125072669 
0.032136825628 0.032148952324 0.032161161271 0.03217386209 0.032186400998 0.032199122912 0.032211946287 0.03222513484 0.03223834711 
0.032251856446 0.032265545342 0.032279734383 0.032293705842 0.032307815232 0.032322400341 0.032336897346 0.032351584566 0.032366420443 
0.032381464023 0.032396636284 0.03241185469 0.032427307224 0.032443407773 0.032459824857 0.032476026705 0.032492362557 0.032509049236 
0.032526110758 0.032543870531 0.032561600333 0.031843151807 0.031854147296 0.031865617369 0.031876640967 0.031887680564 0.031898682557 
0.031909624536 0.031920642815 0.031931682971 0.031942916321 0.031954046971 0.031965258937 0.031976301556 0.031987718454 0.03199921612 
0.03201115385 0.0320228994 0.032034755678 0.032046715714 0.032058494179 0.032070676285 0.032082644717 0.032095358172 0.032107859159 
0.032120505749 0.032133309847 0.032146560345 0.03215962083 0.032172884053 0.032186443302 0.032200051384 0.032213944053 0.032227921248 
0.032242309708 0.032256622844 0.032271128817 0.032285808166 0.032300661194 0.032315701542 0.032330900655 0.032346186714 0.032361791621 
0.03237726857 0.032393588322 0.032410179019 0.03242665979 0.032443373297 0.032460418831 0.032477825737 0.032495527956 0.031792260684 
0.031803731774 0.031814501467 0.031825380713 0.031836310634 0.031847461977 0.031858332795 0.031869314283 0.031880304934 0.031891368534 
0.03190249289 0.031913702504 0.031924431163 0.031935869462 0.031947437756 0.031959106387 0.031971237278 0.031983171101 0.03199492887 
0.032007109518 0.032019387195 0.032031780295 0.032044612144 0.032057267014 0.03207014456 0.032083243701 0.032096252244 0.032109517129 
0.032122961095 0.032136389766 0.032150231459 0.032163671055 0.032177933564 0.032192191635 0.032206494268 0.032221008606 0.032235684854 
0.032250584272 0.032265640725 0.032280728354 0.032296167627 0.032311817505 0.032327535963 0.032343581188 0.032360049561 0.03237703029 
0.032393818495 0.032410794116 0.032428158241 0.032445830612 0.031757581693 0.031768348266 0.031778980465 0.031789750444 0.031800587625 
0.031811045406 0.031821898809 0.031832798843 0.031843745131 0.031854767679 0.031865860122 0.031877057279 0.031888366615 0.031899532346 
0.031911110463 0.031922791893 0.031934963722 0.031946937158 0.031958764597 0.031971014837 0.031983403056 0.031996219843 0.032008819463 
0.03202175366 0.032034815089 0.032047785496 0.032060888299 0.032074092909 0.03208765433 0.032101152832 0.032114822526 0.032128911357 
0.032142997535 0.032157165054 0.032171517873 0.032186160966 0.032200860566 0.032215742486 0.032230731354 0.032246021054 0.032261478451 
0.0322771696 0.032293010331 0.032308882658 0.032325180373 0.032341990756 0.032358752956 0.032376275057 0.032393534137 0.032411170594 
0.031737382311 0.031747992156 0.031758616763 0.031769164706 0.031779893638 0.031790555351 0.031801343356 0.031812181264 0.031823060119 
0.031834016421 0.031845074213 0.03185624444 0.031867539074 0.031878948728 0.031890227047 0.031901930351 0.031913971601 0.031926047889 
0.03193822196 0.031950536999 0.031962983395 0.03197591024 0.031988603266 0.032001624781 0.032014525221 0.032027553899 0.032040731225 
0.032054135037 0.03206751312 0.032081151839 0.032095087986 0.032108946965 0.032122976907 0.032137165703 0.032151538832 0.032166116436 
0.032180846039 0.032195761622 0.032210968123 0.032226322591 0.032241863542 0.032257529759 0.032273456845 0.032289462338 0.032305652991 
0.032322159218 0.032339201533 0.03235618864 0.032373928935 0.032391441497 0.031732742267 0.031743318701 0.031753809369 0.031764204986 
0.031774732505 0.031785384897 0.031796072754 0.031806807796 0.031817608365 0.031828496401 0.031839505081 0.031850816045 0.031862045 
0.031873428851 0.031884675547 0.031896354031 0.031908222902 0.031919983679 0.031932532545 0.031944895485 0.031957734101 0.031970395597 
0.031983374485 0.03199626878 0.032009228427 0.032022346792 0.032035670333 0.032048986916 0.032062410492 0.032076360127 0.032090055214 
0.032103917778 0.032117979814 0.032132218551 0.032146612602 0.032161223099 0.032175997229 0.032190886733 0.032206059854 0.032221569531 
0.032237118382 0.032252873808 0.032268735078 0.032284925846 0.032301281353 0.032317469228 0.032334189728 0.032351403114 0.03236857735 
0.032387065209 0.03174361745 0.031753881872 0.03176422743 0.031774473407 0.031784856404 0.031795371428 0.03180623952 0.031816876613 
0.031827590394 0.0318383858 0.031849275397 0.03186030247 0.031871471355 0.031882781868 0.031894289021 0.031905675391 0.031917249642 
0.031929287378 0.031941829128 0.031954566961 0.03196713658 0.031980092162 0.031992941813 0.0320059025 0.03201896584 0.032032091116 
0.032045449111 0.032058818979 0.032072539541 0.032086132917 0.032099944327 0.032113831423 0.032127921236 0.032142169313 0.032156640642 
0.03217130205 0.03218604033 0.032201102777 0.032216388376 0.032231824246 0.032247414657 0.032263169712 0.032279054191 0.032295200128 
0.032311501659 0.032327876377 0.032344550938 0.032361933531 0.032379379678 0.032396761946 0.031769882221 0.031779975676 0.031790315915 
0.031800519319 0.031810612511 0.031820967288 0.031831395272 0.031841918687 0.031852499471 0.031863178606 0.031874043852 0.031884957777 
0.031896004948 0.031907249582 0.031918649598 0.031930284636 0.031941552399 0.031953594518 0.031965818832 0.031978940715 0.031991797031 
0.032004605932 0.032017510608 0.032030527508 0.032043648132 0.032056967601 0.032070254567 0.032083901013 0.032097359783 0.032110944443 
0.032124682121 0.032138713902 0.032152318472 0.03216663038 0.032181154817 0.032195734797 0.032210531812 0.032225682343 0.032241054099 
0.032256563317 0.03227224422 0.032287981897 0.032304002911 0.032320232866 0.032336523705 0.032352974069 0.032369950828 0.032386806688 
0.032403865295 0.032421358505 0.031811809484 0.031821683437 0.031831657513 0.031841581612 0.031851559397 0.031861723631 0.03187197173 
0.031882317835 0.031892751116 0.031903267491 0.03191388477 0.03192468925 0.031935600643 0.031946710699 0.031958104814 0.031969363492 
0.031980872246 0.031992903068 0.032005482184 0.032018544089 0.032031243888 0.03204361126 0.032056586596 0.032069690853 0.032083000491 
0.032096242804 0.032109841288 0.032123206669 0.032136680128 0.032150261727 0.032164020968 0.032177959525 0.032192053761 0.032206396016 
0.032220840722 0.032235659626 0.032250703626 0.032265969992 0.032281380161 0.032297004442 0.032312810629 0.032328605029 0.032344648669 
0.032360801242 0.032377123653 0.032394010117 0.032410602064 0.032427209484 0.032444112075 0.032461248484 0.031868965466 0.031878611948 
0.031888371241 0.031898092029 0.031907900872 0.031917806295 0.031927860267 0.031937953113 0.031948173032 0.031958507667 0.031968987867 
0.031979578266 0.031990339459 0.032000858086 0.032011782555 0.032023231936 0.032034929905 0.032046699267 0.032059556834 0.032072082566 
0.032085152437 0.032098077928 0.03211113311 0.032124281553 0.032137638035 0.032151228895 0.032164560485 0.032177945694 0.03219140259 
0.032204850649 0.032218623018 0.032232575701 0.032246882535 0.032261166756 0.03227583438 0.032290739303 0.032305905685 0.032321289446 
0.032336816551 0.03235252881 0.032368425707 0.032384285214 0.032400349069 0.032416490254 0.032433217889 0.032449592704 0.032466064208 
0.032482601083 0.032499372513 0.032516323541 0.031941462488 0.031950892163 0.031960378589 0.031969870913 0.031979473896 0.031989042661 
0.031998848342 0.032008288158 0.032018286409 0.032028378375 0.032038612172 0.032049008796 0.032059563212 0.032070366265 0.032081133485 
0.032092483342 0.032104377992 0.032116404033 0.032128692412 0.032141255154 0.032154386378 0.032167426986 0.032180518394 0.032193858385 
0.032207438714 0.032220619184 0.032233964556 0.032247354954 0.032260825782 0.032274437078 0.03228820878 0.032302181059 0.032316284891 
0.032330910726 0.032345665375 0.032360715166 0.032376004979 0.03239149311 0.032407193827 0.032423029314 0.032438903537 0.032454928739 
0.032471454492 0.032487607752 0.032503823495 0.032520108683 0.03253647107 0.032552937882 0.032569425648 0.032586250855 0.03202909894 
0.03203827566 0.032046985982 0.032056244733 0.032065576215 0.032074847841 0.032084336774 0.032093961455 0.032103646498 0.032113475352 
0.032123467383 0.032133619818 0.032143956493 0.032154262133 0.032165139655 0.032176624531 0.032188525918 0.032200464954 0.032212469405 
0.032225068883 0.032237908141 0.032251309372 0.032264447456 0.032278049686 0.032291402908 0.03230474077 0.032318109958 0.032331540911 
0.032345003423 0.032358613639 0.032372393517 0.03238639881 0.032400570486 0.032415164281 0.032430167629 0.032445345397 0.032460753041 
0.032476431359 0.032492298038 0.032508260268 0.032524202751 0.032540735005 0.032556876584 0.032573032228 0.032589185519 0.032605477111 
0.032621686664 0.032637992104 0.032654462582 0.032670923438 0.032131131536 0.032140040759 0.032148864109 0.032157821556 0.03216684478 
0.032175912712 0.032184966309 0.032194221409 0.032203608022 0.03221293869 0.032222623231 0.032232488737 0.032242587334 0.03225270227 
0.032263654639 0.032274715087 0.032286522561 0.032298412739 0.032310391841 0.032322855176 0.032335746774 0.032348852295 0.03236290906 
0.032376239042 0.032389616413 0.032402991844 0.032416374698 0.03242983112 0.032443308824 0.032456884759 0.032470703506 0.03248462813 
0.032498990546 0.032513678112 0.032528841284 0.032544116433 0.032559740386 0.032575593127 0.032591633978 0.03260780445 0.032624396926 
0.032640584472 0.032656761741 0.032672860771 0.03268891689 0.032704924409 0.032720978299 0.032737095401 0.032753340683 0.032769749889 
0.032247090885 0.032255710819 0.032264243974 0.032272901774 0.032281573138 0.03229032354 0.032299025878 0.032307941807 0.032316985575 
0.032326165599 0.032335533487 0.032345135116 0.032354660032 0.032365059438 0.032375525998 0.032386755641 0.032397957465 0.032409769957 
0.032421985064 0.032434178451 0.032447115659 0.032460744609 0.032474375186 0.03248778509 0.032501201006 0.032514637491 0.032528047139 
0.032541482201 0.032554967232 0.032568581002 0.032582410783 0.032596510208 0.032611394557 0.03262622325 0.032641344517 0.032656979046 
0.032672796603 0.03268885627 0.032705064779 0.032721660993 0.032737959524 0.032754227061 0.032770418845 0.03278647728 0.032802459364 
0.032818320149 0.032834169625 0.032850064147 0.032866056021 0.032882251224 0.03237571075 0.03238397677 0.032392291827 0.03240065952 
0.032409016315 0.032417371954 0.032425765929 0.032434260371 0.032442934063 0.032451781944 0.032460833623 0.032469804357 0.032479585962 
0.032489450624 0.032499579663 0.032510621138 0.032521831709 0.032533569023 0.032545737936 0.032558062525 0.032571476539 0.032584712375 
0.03259806142 0.032612252477 0.032625729634 0.032639174048 0.032652609321 0.032665944911 0.032679456739 0.03269297166 0.032706816483 
0.03272100073 0.032735553416 0.032750487152 0.032765747675 0.032781468645 0.032797624057 0.032813880127 0.03283058911 0.032847047625 
0.032863469112 0.032879772657 0.032895970793 0.032911983934 0.032927873466 0.032943615606 0.032959671405 0.032975323572 0.032991070584 
0.033006683115 0.03251504558 0.032523051751 0.032531112022 0.032539133563 0.032547134235 0.032555138091 0.032563220185 0.032571261642 
0.032579604262 0.032588101921 0.03259677906 0.032605550942 0.032614768778 0.032624351658 0.03263470457 0.032645235157 0.032656721547 
0.03266833671 0.032680471371 0.032693186303 0.032706201738 0.032719450399 0.03273285509 0.032746360438 0.032760176698 0.032773676506 
0.032787134636 0.032800607747 0.032814026774 0.032827688405 0.032841601064 0.032855862379 0.032870435835 0.032885448405 0.03290097 
0.032916868423 0.032933474594 0.032950087757 0.032966562528 0.032983188235 0.033000119051 0.033016488663 0.033032694534 0.033048669082 
0.033064431063 0.033080025892 0.033095173654 0.033110596996 0.033126102412 0.033142116368 0.03266327573 0.032671078836 0.032678518484 
0.032686236329 0.032693887716 0.032701581519 0.032709342835 0.032717053902 0.032724829597 0.032733256545 0.032741313449 0.032750269643 
0.032759190746 0.032768498317 0.032778636869 0.03278897194 0.032799871094 0.032811358617 0.032823418838 0.03283644168 0.032849390189 
0.032862358591 0.03287580854 0.032889341538 0.032903226183 0.032916721344 0.032930242197 0.032943628708 0.032957234398 0.032970978379 