# vtk DataFile Version 5.1
vtk output
ASCII
DATASET STRUCTURED_POINTS
DIMENSIONS 50 50 50
SPACING 0.002 0.002 0.002
ORIGIN 0.1742 -0.052672 0.02732
POINT_DATA 125000
FIELD FieldData 1
potential 1 125000 double
0.0032213562948 0.0031895700954 0.0031581222489 0.0031270141496 0.0030962450513 0.0030657992698 0.0030357007762 0.0030059342549 0.0029764933522 
0.0029473751082 0.0029185775132 0.0028901035458 0.002861939528 0.0028340970921 0.0028065741822 0.0027793740568 0.0027524933749 0.0027259354959 
0.0026996980899 0.0026737788829 0.0026481691142 0.0026228599396 0.0025978408929 0.0025730973884 0.0025486440806 0.002524458761 0.0025005470055 
0.0024769076028 0.0024535464575 0.0024304627608 0.0024076638036 0.0023851599392 0.0023629496337 0.0023410311477 0.0023194091962 0.0022980697354 
0.0022767652098 0.0022559668196 0.002235417876 0.0022151061018 0.0021950117032 0.0021751274813 0.0021554418717 0.0021359533018 0.0021166544089 
0.0020975462893 0.0020786313208 0.0020599150907 0.0020414016965 0.0020230967143 0.003261400276 0.0032289885782 0.0031969230231 0.0031652064357 
0.0031338394733 0.0031028208335 0.0030721240187 0.0030417867406 0.0030117856916 0.0029821155178 0.0029527676537 0.0029237475659 0.0028950567434 
0.0028666879705 0.0028386459366 0.0028109314773 0.0027835487048 0.0027564875668 0.0027297567338 0.0027033484856 0.0026772556142 0.0026514708275 
0.0026259863291 0.0026007961934 0.0025758876935 0.002551270767 0.002526930783 0.002502878333 0.0024791130376 0.0024556380746 0.0024324554124 
0.0024095777053 0.0023870015409 0.0023647280208 0.002342750057 0.0023210685691 0.002299667922 0.002278290117 0.0022574129902 0.0022367761041 
0.0022163647275 0.0021961675758 0.002176176826 0.0021563834447 0.0021367874071 0.002117386991 0.0020981862505 0.0020791898254 0.002060401545 
0.0020418287239 0.003300269438 0.0032672442677 0.003234572327 0.0032022600098 0.0031703061147 0.0031387104619 0.0031074652192 0.0030765467845 
0.0030459950741 0.003015783104 0.0029858997701 0.0029563507264 0.0029271343942 0.0028982521715 0.002869699616 0.0028414833672 0.0028135997539 
0.0027860452059 0.0027588250467 0.0027319333925 0.0027053655176 0.0026791126929 0.0026531690208 0.0026275262772 0.002602183136 0.0025771354299 
0.0025523727519 0.0025279132708 0.0025037516649 0.0024798940312 0.00245633847 0.0024330934063 0.0024101595799 0.0023875344831 0.0023652128921 
0.0023431919729 0.0023214579668 0.0022999964399 0.0022785470024 0.0022575914431 0.0022368689756 0.0022163630503 0.0021960689909 0.0021759799993 
0.0021560926691 0.0021364083633 0.0021169279131 0.0020976598443 0.002078605692 0.0020597726995 0.0033376580054 0.0033040273206 0.0032707659534 
0.0032378704535 0.0032053469762 0.0031731888387 0.0031413882942 0.0031099442957 0.0030788329825 0.0030480905271 0.0030176877617 0.0029876208269 
0.0029578976452 0.0029285090276 0.0028994625613 0.0028707544105 0.002842380515 0.0028143445568 0.0027866432979 0.0027592769343 0.0027322426849 
0.0027055301648 0.0026791334081 0.0026530481003 0.0026272729578 0.0026018048594 0.002576641283 0.0025517829275 0.0025272351352 0.0025029991755 
0.00247907992 0.0024554794223 0.0024321981479 0.0024092312429 0.0023865768373 0.0023642220243 0.0023421629826 0.0023203816381 0.0022988644953 
0.002277345722 0.0022563163774 0.0022355108138 0.0022149219141 0.0021945423237 0.002174373664 0.0021544123206 0.0021346631402 0.0021151308831 
0.0020958220662 0.002076740541 0.0033733262984 0.0033391081298 0.0033052699807 0.0032718090015 0.003238725943 0.0032060183373 0.0031736815833 
0.0031417074199 0.0031100956104 0.0030788149308 0.0030479024207 0.0030173347566 0.0029871142933 0.0029572375479 0.0029277076573 0.0028985205478 
0.0028696726002 0.0028411674117 0.0028129997412 0.0027851708589 0.0027576804636 0.0027305165674 0.0027036813788 0.0026771667394 0.002650972729 
0.0026250949561 0.0025995365999 0.0025742915349 0.0025493736139 0.0025247763335 0.0025005033604 0.0024765567082 0.0024529366556 0.0024296408999 
0.0024066623842 0.0023839884911 0.0023616116778 0.0023395222473 0.0023176983634 0.0022961290008 0.0022745477135 0.0022534526365 0.0022325766703 
0.0022119187916 0.0021914747406 0.0021712473498 0.0021512383864 0.0021314530144 0.0021118992359 0.002092578778 0.0034071282984 0.0033723315717 
0.003337932609 0.0033039194665 0.0032702940058 0.0032370520084 0.0032041899743 0.0031717021627 0.003139581237 0.0031078296929 0.0030763983351 
0.0030453484088 0.0030146448714 0.0029842937769 0.0029542899157 0.0029246410064 0.002895333579 0.0028663689828 0.0028377515273 0.0028094746584 
0.0027815408459 0.0027539426922 0.0027266830534 0.0026997553718 0.0026731560073 0.0026468832755 0.0026209405959 0.0025953266142 0.0025700402321 
0.0025451018482 0.0025204876625 0.0024962096473 0.0024722639839 0.0024486505391 0.0024253580678 0.0024023750593 0.002379695717 0.0023573057465 
0.0023351872541 0.0023133278021 0.0022917135225 0.0022700825096 0.0022489289209 0.0022280016057 0.0022072947539 0.002186810695 0.0021665528134 
0.0021465246468 0.0021267347122 0.0021071872991 0.0034390083178 0.0034036512135 0.0033687003498 0.0033341466724 0.0032999934345 0.0032662333492 
0.0032328636213 0.0031998745277 0.0031672613566 0.0031350198808 0.0031031396954 0.0030715892848 0.0030404196364 0.0030096107426 0.0029791546253 
0.0029490542153 0.0029192980822 0.0028898925353 0.0028608374166 0.002832130206 0.0028037724907 0.0027757572505 0.0027480868109 0.00272075779 
0.0026937680814 0.0026671181158 0.0026408058177 0.0026148347188 0.0025892022708 0.0025639172815 0.0025389875679 0.0025143904274 0.0024901344472 
0.0024662139849 0.0024426199466 0.0024193452135 0.0023963712465 0.0023736921204 0.0023512900587 0.0023291510854 0.0023072626807 0.0022853555758 
0.0022639408212 0.0022427524152 0.002221793442 0.002201064057 0.0021805677786 0.0021603076204 0.0021402939787 0.0021205283744 0.0034690237465 
0.0034331160733 0.0033976223775 0.0033625441151 0.0033278750898 0.0032936070187 0.0032597395791 0.0032262643039 0.0031931702165 0.0031604553122 
0.0031281096771 0.0030960961716 0.0030644745718 0.0030332183452 0.0030023210063 0.0029717779638 0.0029415945904 0.002911765805 0.0028822906334 
0.0028531702056 0.0028243999203 0.0027959862316 0.0027679243488 0.0027402079417 0.0027128449301 0.002685830644 0.0026591647337 0.0026328473936 
0.0026068853016 0.0025812781273 0.0025560219862 0.0025311334557 0.0025065775565 0.0024823619538 0.0024584826348 0.0024349227907 0.002411667341 
0.002388711325 0.0023660374066 0.002343629249 0.002321475633 0.0022995681783 0.0022776356817 0.0022561983604 0.0022349973153 0.0022140349837 
0.0021933094446 0.0021728286951 0.0021526016677 0.002132629057 0.003496784519 0.0034608711209 0.0034248472202 0.0033892468394 0.0033540697164 
0.003319306649 0.0032849505175 0.0032509948524 0.003217433247 0.00318425403 0.0031514563719 0.0031190273601 0.0030869361332 0.0030552385895 
0.0030239126676 0.0029929491578 0.0029623437531 0.0029321054573 0.0029022251458 0.0028727050732 0.0028435440955 0.0028147416184 0.0027863017511 
0.0027582201551 0.0027304952228 0.0027031330381 0.0026761295349 0.002649483505 0.0026232001309 0.0025972813439 0.0025717227473 0.0025465233474 
0.0025216973433 0.0024971994653 0.0024730402729 0.0024492069617 0.0024256832374 0.0024024586219 0.0023795217786 0.0023568549012 0.0023344473938 
0.0023122900269 0.0022903785682 0.0022684350886 0.0022470025593 0.0022258125796 0.0022048712658 0.0021841778826 0.0021637446762 0.0021435730085 
0.0035236056779 0.0034871647638 0.0034506115436 0.0034144944277 0.0033788150936 0.0033435605606 0.0033087217906 0.0032742904125 0.0032402642474 
0.0032066287235 0.0031733829504 0.0031405149847 0.0031080235008 0.0030758665345 0.0030441209626 0.003012742142 0.0029817333492 0.002951097967 
0.0029208241809 0.0028909185479 0.0028613811194 0.0028322134623 0.0028034130463 0.0027749786118 0.0027469115671 0.0027192120055 0.0026918809663 
0.0026649168234 0.0026383271278 0.0026121030265 0.0025862505863 0.002560764933 0.0025356382249 0.0025108911007 0.0024864613222 0.0024623620776 
0.0024385778467 0.0024150926608 0.0023919002065 0.0023689823397 0.0023463315971 0.0023239329628 0.0023017867819 0.0022798831317 0.0022579550759 
0.0022365481632 0.0022153949489 0.0021944991041 0.0021738691506 0.0021535070915 0.003549274148 0.0035117455037 0.0034752202536 0.0034385916516 
0.0034024054947 0.0033666581771 0.0033313342309 0.0032964325055 0.0032619440797 0.0032278541844 0.0031941609673 0.0031608575195 0.0031279392702 
0.0030954020723 0.0030632096048 0.0030314278582 0.0030000237797 0.0029689930919 0.0029383429359 0.0029080647516 0.0028781621476 0.0028486339859 
0.0028194823542 0.0027907095003 0.0027623104112 0.0027342861705 0.0027066394158 0.0026793722079 0.0026524824352 0.0026259743126 0.0025998365017 
0.0025740718648 0.0025486730691 0.0025236302129 0.0024989627514 0.002474603627 0.00245056084 0.0024268223549 0.0024033801858 0.0023802189848 
0.0023573280244 0.0023346954746 0.0023123190298 0.0022901940922 0.0022683169496 0.0022464278127 0.0022250712216 0.0022039782008 0.0021831578352 
0.0021626099731 0.0035741524138 0.0035360812377 0.0034984772169 0.0034618765379 0.0034251857549 0.0033889401753 0.0033531326246 0.0033177547669 
0.003282797459 0.0032482521599 0.0032141120705 0.0031803738071 0.0031470322891 0.0031140798326 0.0030815157483 0.0030492980704 0.0030175031758 
0.0029860934053 0.0029550742824 0.0029244311674 0.0028941713845 0.0028642952307 0.0028348018918 0.0028056953825 0.0027769735745 0.0027486405135 
0.0027206844096 0.0026931178865 0.0026659356441 0.0026391408617 0.0026127246779 0.0025866884882 0.0025610182611 0.0025357101092 0.0025107543046 
0.0024861671319 0.0024618728651 0.0024378862177 0.0024141988426 0.002390796472 0.0023676671357 0.0023448065345 0.0023222028736 0.0022998613979 
0.0022777718493 0.0022559477103 0.0022341185563 0.0022128325958 0.0021918245364 0.0021710966705 0.0035986220117 0.0035599982453 0.0035218540971 
0.0034841858493 0.0034475184569 0.0034107642081 0.0033744708361 0.0033386089673 0.0033031786993 0.0032681721094 0.0032335809528 0.0031994024278 
0.0031656339456 0.0031322667845 0.0030992947412 0.0030667202566 0.0030344997834 0.0030027130566 0.0029713183339 0.0029403222759 0.0029097124333 
0.0028794962609 0.0028496712679 0.0028202395945 0.0027912005985 0.0027625502143 0.0027342992434 0.0027064370462 0.0026789663825 0.0026518898346 
0.0026251945691 0.0025988839788 0.0025729457055 0.0025473736374 0.0025221568539 0.0024972793081 0.0024727647524 0.0024485293254 0.0024245968262 
0.0024009551428 0.0023775922432 0.0023545034826 0.0023316830028 0.0023091254352 0.0022868311089 0.0022648032795 0.0022427736101 0.0022212962901 
0.0022001020061 0.0021791949587 0.0036230731728 0.0035838821616 0.0035451818579 0.0035069703658 0.0034697835873 0.003432507624 0.0033957020311 
0.0033593503842 0.0033234355999 0.003287955798 0.0032529078482 0.00321828495 0.0031840818476 0.0031502945215 0.0031169110476 0.0030839396525 
0.0030513746991 0.0030191679651 0.0029874059735 0.0029560519161 0.0029250935739 0.0028945402283 0.0028643832455 0.0028346287535 0.0028052750162 
0.0027763167734 0.0027477631606 0.0027196070907 0.0026918446193 0.0026644862778 0.0026375150278 0.0026109297982 0.002584720434 0.002558880426 
0.0025333981345 0.0025082609145 0.0024834542517 0.0024590050616 0.0024348253963 0.00241094348 0.0023873459792 0.0023640284986 0.0023409874835 
0.0023182169774 0.0022957158654 0.0022734854203 0.0022515390837 0.0022295958158 0.0022082169498 0.002187129819 0.003647856426 0.0036080791057 
0.0035688081381 0.0035300397384 0.0034917550544 0.0034545037368 0.0034171670394 0.0033803070779 0.0033438980286 0.0033079385571 0.0032724201334 
0.0032373390381 0.0032026963652 0.0031684768227 0.0031346784811 0.0031013029342 0.0030683449002 0.0030358036025 0.003003625501 0.0029719068224 
0.0029406036227 0.0029097064181 0.0028792169826 0.0028491358047 0.0028194624503 0.0027901987155 0.0027613418942 0.0027328880162 0.0027048352612 
0.0026771903692 0.0026499360822 0.0026230700567 0.0025965858456 0.0025704754844 0.0025447216125 0.0025193168276 0.0024942499677 0.0024695057758 
0.0024451163613 0.0024209894717 0.0023971559714 0.002373607811 0.0023503441511 0.0023273569591 0.0023046483826 0.0022822178301 0.0022600752052 
0.0022382186122 0.0022163724576 0.0021951012823 0.003673302923 0.0036329165536 0.0035930500341 0.0035537014185 0.0035148499079 0.0034764983416 
0.0034391809731 0.0034017898734 0.0033648654033 0.003328407241 0.0032924083605 0.0032568559083 0.0032217557972 0.0031870993225 0.0031528769319 
0.0031190864144 0.003085727649 0.0030527964364 0.0030202892474 0.0029881519076 0.0029564930493 0.0029252489395 0.0028944211103 0.0028640086092 
0.002834012392 0.0028044341595 0.002775268221 0.0027465124433 0.0027181630967 0.0026902176593 0.0026626735327 0.0026355204288 0.00260875576 
0.0025823656269 0.0025563370738 0.0025306596156 0.0025053251029 0.0024803174598 0.0024556757308 0.0024312991 0.0024072229781 0.0023834415486 
0.0023599499022 0.0023367432196 0.0023138229252 0.0022911901569 0.0022688458033 0.0022467946032 0.0022250374322 0.0022032963415 0.003699674423 
0.0036586580267 0.0036181743576 0.003578222618 0.0035387845993 0.003499857305 0.0034614289817 0.0034240491583 0.0033865968353 0.003349623401 
0.0033131215937 0.0032770834636 0.0032415145062 0.0032064002021 0.0031717365017 0.0031375173398 0.0031037474752 0.0030704171572 0.0030375205333 
0.0030050568131 0.0029729732348 0.0029413776061 0.0029102032393 0.0028794505111 0.0028491241548 0.0028192191037 0.0027897356389 0.0027606668761 
0.0027320119933 0.0027037661363 0.0026759199677 0.0026484707374 0.0026214107015 0.0025947329706 0.0025684202145 0.0025424644595 0.0025168541659 
0.0024915776871 0.0024666252719 0.0024420414426 0.0024177171243 0.0023936928126 0.0023699707193 0.0023465409356 0.0023234028141 0.0023005597138 
0.0022780085854 0.0022557572116 0.0022338037893 0.0022118623119 0.0037271936287 0.0036855199508 0.0036443976223 0.0036038165712 0.0035637688002 
0.0035242446416 0.0034852379515 0.0034472966773 0.0034092931183 0.0033717804004 0.0033347599065 0.0032982186469 0.0032621612144 0.0032265782872 
0.0031914541917 0.0031567939142 0.0031225947449 0.0030888493836 0.0030555486764 0.0030226942566 0.0029902309699 0.0029582655329 0.0029267302666 
0.0028956258956 0.0028649551721 0.0028347166131 0.0028049000538 0.0027755100635 0.0027465334877 0.0027179742421 0.0026898192657 0.0026620653735 
0.002634703652 0.002607723511 0.0025811170791 0.0025548721378 0.0025289761657 0.0025034216808 0.0024782001146 0.0024533007521 0.0024287726359 
0.0024045024165 0.0023805374673 0.0023568774224 0.0023335192143 0.0023104545086 0.0022876913412 0.0022652314208 0.0022430715549 0.0022212171325 
0.0037560221591 0.0037136663606 0.0036718772625 0.0036306458664 0.0035899660816 0.0035498216206 0.0035102089542 0.0034711215559 0.0034331123017 
0.0033950440264 0.0033574827785 0.0033204195478 0.0032838577207 0.0032477813436 0.0032121885453 0.0031770686759 0.003142420054 0.0031082403276 
0.003074521966 0.0030412594739 0.0030084506523 0.0029760388562 0.0029441332029 0.0029126639668 0.0028816350158 0.0028510433523 0.0028208851892 
0.0027911547278 0.002761845821 0.0027329588336 0.002704484916 0.0026764083465 0.0026487341134 0.002621445934 0.0025945312241 0.0025679880558 
0.0025418003669 0.0025159579795 0.0024904545725 0.0024652832827 0.0024404384088 0.0024159669475 0.0023917559126 0.0023678537266 0.0023442632615 
0.0023209744364 0.0022979875731 0.0022753099278 0.002252938703 0.0022308744388 0.0037862850314 0.0037432213405 0.0037007358835 0.0036588327778 
0.0036174923617 0.003576708525 0.0035364679057 0.0034967694991 0.0034576053812 0.0034195299949 0.0033814086521 0.0033438028124 0.0033067123757 
0.0032701289347 0.0032340359691 0.0031984387739 0.003163326231 0.0031286926955 0.003094535568 0.0030608483655 0.0030276249932 0.0029948641336 
0.0029625048554 0.0029306530238 0.0028992491447 0.0028682921382 0.0028377734592 0.0028076905856 0.0027780352646 0.0027488051848 0.0027199917359 
0.0026915885199 0.0026635845297 0.0026359745725 0.0026087465156 0.0025818885503 0.0025553986686 0.0025292596183 0.0025034694976 0.0024780165908 
0.002452897832 0.0024281047754 0.0024036950426 0.0023795432642 0.0023557083424 0.0023321831857 0.0023089692122 0.0022860600831 0.0022634691074 
0.0022411849469 0.0038180655991 0.0037742664031 0.0037310668627 0.0036884519885 0.0036464330081 0.003604982188 0.0035640930425 0.0035237593655 
0.0034839837713 0.0034453187384 0.0034066186072 0.0033684495539 0.0033308107999 0.0032936906046 0.0032570869196 0.0032209824514 0.0031853835792 
0.0031502800628 0.0031156611626 0.003081526455 0.0030478709302 0.0030146857525 0.0029819698053 0.0029496610141 0.0029178628063 0.0028865196075 
0.0028556240378 0.0028251720482 0.0027951547221 0.0027655701736 0.0027364059534 0.0027076595429 0.0026793123991 0.0026513682777 0.0026238109515 
0.0025966355283 0.0025698278388 0.0025433808136 0.0025172926977 0.0024915500449 0.0024661470304 0.0024410799464 0.0024163442732 0.0023919913106 
0.0023679021871 0.0023441325935 0.0023206761784 0.0022975321178 0.0022747066363 0.0022521934363 0.0038514250013 0.0038068587047 0.0037629153593 
0.0037195769912 0.0036768473581 0.0036347017679 0.0035931376289 0.003552152641 0.0035117381732 0.0034718884998 0.0034331572845 0.0033944046082 
0.0033561906716 0.0033185175037 0.0032813764546 0.003244749737 0.0032086421774 0.0031730420043 0.0031379445912 0.0031033418621 0.0030692305102 
0.0030356014805 0.0030024539376 0.0029697842193 0.0029375139083 0.0029057669345 0.0028744748269 0.0028436372931 0.0028132414664 0.0027832866486 
0.0027537600924 0.0027246514849 0.0026959517494 0.0026676595725 0.0026397630368 0.0026122525916 0.0025851214269 0.0025583565779 0.0025319596781 
0.0025059167797 0.0024802203434 0.002454866832 0.0024298519133 0.0024051666078 0.0023808763667 0.0023568462464 0.0023331401325 0.0023097483971 
0.0022866772714 0.0022639246627 0.0038863983288 0.0038410393192 0.0037963201528 0.0037522284712 0.003708761999 0.0036659023976 0.0036236415682 
0.0035819778197 0.0035409012689 0.0035004069426 0.0034604877677 0.0034216946535 0.0033828921003 0.0033446405342 0.0033069380022 0.0032697661847 
0.00323312977 0.003197014521 0.0031614170505 0.0031263227236 0.0030917311113 0.0030576412444 0.0030240412206 0.0029909309996 0.0029582933094 
0.0029260613546 0.0028943593336 0.0028631174453 0.002832325024 0.0028019813075 0.0027720734945 0.0027425932488 0.0027135299692 0.0026848733354 
0.0026566255215 0.0026287705727 0.002601302412 0.0025742105013 0.0025474896465 0.0025211321439 0.0024951336097 0.0024694829238 0.0024441775208 
0.0024192106675 0.0023945776325 0.0023703490101 0.0023463752899 0.0023227255137 0.0022994026435 0.0022763999113 0.0039230077603 0.0038768277597 
0.0038313063918 0.0037864311117 0.0037422041853 0.0036986040125 0.0036556237253 0.0036132558782 0.0035714963649 0.0035303372644 0.0034897642391 
0.0034503460686 0.0034109293176 0.003372076697 0.0033337881988 0.0032960498294 0.0032588601526 0.0032222070058 0.0031860862471 0.0031504861404 
0.0031153997889 0.0030808240275 0.0030467463723 0.0030131708548 0.002980090844 0.002947417234 0.0029152851936 0.0028836227622 0.0028524223401 
0.0028216728468 0.0027913644633 0.0027614969257 0.0027320541898 0.0027030245511 0.0026744084345 0.0026461965544 0.0026183782603 0.0025909471132 
0.0025638970163 0.0025372137275 0.0025108970665 0.0024849418478 0.0024593357978 0.002434073672 0.0024091539961 0.002384569234 0.002360393451 
0.0023364769043 0.0023128887857 0.0022896247564 0.003961279343 0.0039142458103 0.0038678939259 0.0038222119322 0.0037771973886 0.0037328290031 
0.0036891014062 0.0036460074883 0.0036035370074 0.0035616843569 0.0035204379599 0.0034797955486 0.0034403093063 0.0034008383912 0.003361939166 
0.0033236104529 0.0032858447992 0.0032486307045 0.0032119642351 0.0031758316905 0.003140231906 0.0031051470514 0.0030705842945 0.0030365252381 
0.0030029726108 0.0029699106401 0.0029372663221 0.0029051636537 0.0028735327437 0.0028423608195 0.0028116420503 0.0027813683035 0.0027515301152 
0.0027221164472 0.0026931211004 0.0026645390216 0.0026363596054 0.0026085762452 0.0025811802655 0.0025541622366 0.0025275185234 0.00250124106 
0.0024753273058 0.0024497615635 0.002424539524 0.0023996639425 0.0023752030634 0.0023510029619 0.0023271395364 0.0023036032421 0.0040012248948 
0.0039533088362 0.0039060981263 0.0038595756238 0.0038137443189 0.0037685826707 0.0037240813093 0.0036802373498 0.0036370316022 0.003594462791 
0.0035525195015 0.0035111952228 0.0034710440402 0.0034309261743 0.003391400393 0.0033524553729 0.0033140919369 0.0032762956002 0.0032390560574 
0.003202375523 0.003166237317 0.003130633849 0.0030955574 0.003061003377 0.0030269631443 0.0029934219 0.0029603756931 0.0029277499091 
0.0028956711819 0.0028640600858 0.0028329151253 0.0028022240239 0.0027719768314 0.0027421639118 0.0027127763518 0.0026838116956 0.0026552582795 
0.0026271111434 0.0025993584371 0.0025719935289 0.0025450102004 0.0025184003365 0.0024921578134 0.0024662760689 0.0024407442461 0.0024155627028 
0.0023907299784 0.0023663135333 0.002342158804 0.0023183428061 0.0040428632589 0.0039940336573 0.0039459294471 0.0038985432586 0.0038518686011 
0.0038058806963 0.0037605778803 0.0037159508515 0.0036719845029 0.003628671018 0.003586006546 0.0035439777298 0.0035025717475 0.0034623558982 
0.0034221753519 0.0033825917079 0.0033436073854 0.0033052052641 0.0032673783082 0.0032301214188 0.0031934285813 0.0031572824416 0.003121675593 
0.0030866023606 0.0030520534272 0.0030180240516 0.0029844962808 0.0029514632816 0.0029188467518 0.0028867835431 0.0028551931616 0.0028240653012 
0.0027933915547 0.0027631633043 0.0027333734038 0.0027040145118 0.0026750734768 0.0026465467565 0.0026184277134 0.0025907031276 0.0025633682119 
0.0025364155592 0.002509833344 0.0024836226895 0.0024577699159 0.0024322729497 0.0024071277086 0.0023823306262 0.0023579556042 0.0023338471336 
0.0040862198915 0.0040364407636 0.0039874139936 0.0039391322974 0.0038915846264 0.0038447459204 0.0037986130784 0.0037531777996 0.0037084218534 
0.0036643410677 0.0036209196927 0.0035781601164 0.0035360429047 0.0034945622205 0.0034542715893 0.0034140298005 0.0033743968374 0.0033353681177 
0.0032969343169 0.0032590828031 0.0032218085202 0.0031851013066 0.0031489454729 0.0031133354943 0.0030782568043 0.0030437135255 0.0030096847199 
0.0029761627155 0.0029431364372 0.0029105307853 0.0028784766814 0.0028469000292 0.0028157894214 0.0027851341236 0.0027549229007 0.0027251554327 
0.0026958153788 0.0026668999046 0.0026383951305 0.002610300646 0.0025826025736 0.0025552934544 0.0025283651853 0.0025018085725 0.002475624593 
0.0024497989466 0.002424331571 0.0023992185079 0.0023744506616 0.0023501179665 0.0041313254821 0.004080566081 0.0040305867731 0.0039813720364 
0.0039329159443 0.0038851999496 0.0038382081165 0.0037919322609 0.0037463581858 0.0037014789076 0.0036572836267 0.003613759225 0.0035709019907 
0.0035286977126 0.0034877100252 0.0034467786976 0.0034064817601 0.0033668005231 0.0033277344362 0.0032892685535 0.0032513944581 0.0032141003357 
0.0031773762187 0.0031412110312 0.0031055892634 0.003070515768 0.0030359633843 0.0030019305447 0.0029684098526 0.0029353138562 0.0029027841374 
0.0028707400025 0.0028391737748 0.0028080752239 0.0027774330926 0.0027472401687 0.0027174898853 0.0026881747158 0.0026592761033 0.0026307970553 
0.0026027235505 0.0025750466673 0.0025477575945 0.0025208472305 0.0024943171992 0.0024681529008 0.0024423506028 0.0024169091796 0.0023918191967 
0.0023670863805 0.004178220635 0.004126435666 0.0040754671133 0.0040252883944 0.0039758924989 0.0039272599107 0.0038793833094 0.0038322390154 
0.0037858171504 0.0037401120268 0.003695106863 0.0036507932282 0.0036071641833 0.0035642101807 0.0035219254561 0.0034808610371 0.0034398677963 
0.0033995150367 0.0033597916707 0.0033206895495 0.0032821945631 0.0032442973717 0.0032069840747 0.0031702448797 0.0031340661462 0.0030984321909 
0.0030633449421 0.0030287867785 0.0029947454549 0.002961222238 0.0029281237746 0.0028955969836 0.0028635612707 0.002832001304 0.002800912686 
0.002770283009 0.0027401102287 0.0027103794561 0.0026810818682 0.0026522016818 0.0026237391598 0.0025956860388 0.002568024041 0.0025407515716 
0.0025138577104 0.0024873413315 0.0024611933823 0.0024354118773 0.0024099902822 0.002384926416 0.0042269246027 0.004174092447 0.0041220951575 
0.0040709174189 0.0040205484259 0.0039709667664 0.0039221585697 0.0038741146903 0.0038268145896 0.0037802508138 0.003734411467 0.0036892818902 
0.0036448543248 0.0036011235697 0.0035580768303 0.0035157106656 0.0034745734253 0.0034335250789 0.0033931238268 0.0033533649818 0.0033142286253 
0.0032757083394 0.0032377852515 0.0032004512014 0.0031636908792 0.0031274894082 0.0030918473535 0.0030567387261 0.0030221640219 0.0029881158963 
0.0029545856053 0.0029214848156 0.0028889515331 0.0028569200935 0.0028253700375 0.0027942895171 0.0027636799767 0.0027335217606 0.0027038068177 
0.0026745240731 0.0026456588481 0.0026172092406 0.0025891642254 0.0025615145022 0.002534249909 0.002507365002 0.0024808622006 0.0024547269108 
0.0024289605045 0.0024035548002 0.0042774772114 0.0042235554415 0.0041705021709 0.00411828434 0.004066905785 0.0040163386236 0.0039665728098 
0.0039175908245 0.003869379758 0.003821925671 0.0037752139181 0.0037292400547 0.0036839834506 0.0036394478823 0.0035956184035 0.0035524822218 
0.003510608929 0.0034688467992 0.0034277431773 0.0033873042708 0.0033475078134 0.0033083289747 0.0032697774234 0.0032318317099 0.0031944716951 
0.0031576847919 0.0031214642329 0.0030857939597 0.0030506662216 0.0030160770825 0.0029820195307 0.0029484816014 0.0029153800951 0.0028828587448 
0.0028508311104 0.0028192899242 0.0027882261405 0.0027576291168 0.0027274843736 0.0026977808393 0.0026685105966 0.0026396524137 0.0026112098119 
0.0025831686235 0.0025555244557 0.0025282621263 0.0025013857041 0.0024748864894 0.0024487575277 0.0024229978047 0.0043298896448 0.0042748384183 
0.0042206888618 0.0041674075395 0.0041149791434 0.0040633929696 0.004012633389 0.0039626779254 0.003913518937 0.0038651402684 0.0038175334798 
0.0037706772147 0.0037245658697 0.0036791874167 0.0036345455251 0.0035906173571 0.0035474047675 0.0035054653822 0.0034636477371 0.0034225031409 
0.003382023767 0.0033421917999 0.0033029906667 0.0032644085825 0.0032264282413 0.0031890354441 0.0031522241507 0.0031159698978 0.0030802709369 
0.0030451265339 0.0030105229645 0.0029764554579 0.0029428334926 0.0029098106929 0.0028772954779 0.0028452770093 0.002813748923 0.002782699456 
0.0027521136765 0.002721977897 0.0026922845425 0.002663012569 0.0026341601068 0.002605716566 0.0025776737449 0.0025500233635 0.0025227592189 
0.0024958822931 0.0024693806869 0.0024432554868 0.0043841697119 0.0043279584542 0.0042726651207 0.0042182773526 0.0041647671434 0.0041121211796 
0.004060330831 0.0040093651939 0.0039592272914 0.0039098906617 0.0038613455741 0.0038135835955 0.0037665829039 0.0037203492928 0.0036748628273 
0.0036301217111 0.0035861200202 0.0035434140305 0.0035008458497 0.0034589774629 0.0034177939002 0.0033772788862 0.0033374066698 0.0032981703552 
0.0032595471621 0.0032215347088 0.0031841047424 0.0031472568825 0.0031109725914 0.0030752490704 0.0030400835238 0.003005466493 0.0029713950576 
0.0029377718699 0.0029047522122 0.0028722477907 0.0028402429786 0.0028087306567 0.0027776924383 0.0027471120087 0.0027169819844 0.0026872864911 
0.0026580112983 0.0026291524427 0.0026007008904 0.0025726468732 0.0025449862557 0.0025177140135 0.0024908297309 0.0024643242531 0.0044402944931 
0.0043828828829 0.0043264068794 0.0042708699588 0.0042162446593 0.0041625021579 0.0041096435863 0.004057646131 0.0040064893098 0.0039561626864 
0.0039066548121 0.0038579481816 0.0038100303307 0.0037628998554 0.0037165475543 0.0036709682252 0.0036261458236 0.0035820765033 0.0035393112918 
0.0034966957368 0.0034547824549 0.0034135617238 0.0033730022774 0.0033330924881 0.0032938158851 0.0032551513302 0.003217092881 0.0031796312441 
0.0031427406033 0.0031064282068 0.0030706821978 0.0030355023223 0.0030008837183 0.0029668113206 0.0029331909096 0.0029001846074 0.0028676937629 
0.0028357031687 0.0028042004111 0.0027731683278 0.0027425890485 0.0027124537962 0.0026827498512 0.0026534637463 0.0026245900565 0.002596117601 
0.0025680457066 0.0025403680261 0.002513084364 0.0024861893684 0.0044981788027 0.0044395284909 0.0043818504263 0.0043251344895 0.0042693534083 
0.0042144855831 0.0041605216696 0.0041074463998 0.0040552420987 0.0040038977437 0.0039533900463 0.0039037105035 0.0038548463078 0.003806793537 
0.0037595511793 0.0037131003773 0.0036674383213 0.0036225451183 0.0035789882884 0.0035356043891 0.0034929467393 0.0034509931261 0.0034097293774 
0.0033691275479 0.0033291742928 0.00328984909 0.0032511389238 0.0032130444452 0.0031755353164 0.0031386127844 0.0031022780603 0.0030665185571 
0.0030313358411 0.0029967193132 0.0029625705789 0.0029290483723 0.0028960574503 0.0028635808585 0.0028316019357 0.0028001025641 0.0027690683422 
0.0027384839021 0.0027083367166 0.0026786117841 0.0026493021806 0.0026204012029 0.0025919065255 0.0025638124999 0.0025361175904 0.0025088187283 
0.0045577359692 0.0044978003443 0.0044388777169 0.0043809486948 0.0043239752649 0.0042679513532 0.0042128552854 0.0041586719879 0.0041053887639 
0.0040529855555 0.0040014521074 0.0039507761534 0.0039009340868 0.0038519365214 0.0038037663438 0.0037564263937 0.0037098938705 0.0036641620619 
0.0036192200666 0.0035756187096 0.0035321938173 0.0034894927274 0.0034474980843 0.0034061916623 0.0033655424338 0.0033255429734 0.0032861706505 
0.0032474224507 0.003209276865 0.0031717355565 0.003134790361 0.0030984400153 0.003062687961 0.0030275146653 0.0029929110478 0.0029587751352 
0.0029252738934 0.0028923004966 0.0028598352751 0.0028278586644 0.0027963577811 0.0027653134963 0.0027347112437 0.0027045379629 0.0026747848865 
0.0026454413183 0.0026165114782 0.0025879882948 0.0025598703017 0.0025321572971 0.0046187297384 0.0045575158202 0.0044973072393 0.0044381317255 