# vtk DataFile Version 5.1
vtk output
ASCII
DATASET STRUCTURED_POINTS
DIMENSIONS 50 50 50
SPACING 0.002 0.002 0.002
ORIGIN 0.1742 -0.052672 0.02732
POINT_DATA 125000
FIELD FieldData 1
potential 1 125000 double
<<<<<<< HEAD
0.0014196915014 0.0014069332588 0.0013943336606 0.0013818878145 0.0013695955233 0.0013574527272 0.0013454565699 0.0013336021025 0.0013218955834 
0.001310319997 0.0012988771735 0.001287566108 0.0012763821144 0.001265327451 0.0012543965718 0.0012435944355 0.0012329104663 0.0012223509103 
0.0012119145643 0.0012015994182 0.0011913977092 0.0011813064678 0.0011713199778 0.001161436814 0.001151652575 0.0011419581905 0.0011323632723 
0.0011228744679 0.0011134890294 0.0011042109106 0.0010949313064 0.0010858877896 0.0010769674326 0.0010681738388 0.0010595129533 0.0010509841081 
0.0010425894257 0.0010343269904 0.0010261955779 0.0010181932328 0.0010103163022 0.0010025627625 0.00099493089055 0.0009873420914 0.00097995130095 
0.00097267837557 0.00096552186575 0.00095848035751 0.00095155071626 0.00094473066926 0.001417021423 0.0014043267832 0.0013917869514 0.0013794004771 
0.0013671663985 0.0013550798465 0.0013431381927 0.0013313442893 0.001319683593 0.0013081579418 0.0012967622058 0.0012854960213 0.0012743566672 
0.0012633414672 0.0012524529116 0.0012416826315 0.0012310376405 0.0012205141676 0.0012101133767 0.0011998286648 0.0011896569469 0.0011795947751 
0.0011696385283 0.0011597844816 0.0011500290232 0.0011403760764 0.0011308119421 0.001121360421 0.0011120136326 0.0011027772096 0.001093540555 
0.0010845416819 0.001075666825 0.001066920713 0.001058304275 0.0010498228509 0.0010414742221 0.0010332566689 0.0010251686334 0.0010172075199 
0.001009371231 0.0010016563155 0.00099406177694 0.00098650696916 0.00097914878514 0.00097190609558 0.00096477851774 0.00095776389319 0.00095085957331 
0.00094406368916 0.0014137422771 0.0014011193523 0.0013886477315 0.0013763287795 0.0013641590649 0.0013521366094 0.0013402640631 0.0013285239245 
0.0013169221333 0.0013054532122 0.0012941117931 0.0012828980625 0.0012718072265 0.0012608421371 0.0012499895632 0.0012392677483 0.0012286677138 
0.0012181854521 0.0012078212864 0.0011975722748 0.0011874356089 0.0011774065255 0.0011674872334 0.0011576604383 0.001147942654 0.0011383164223 
0.001128800921 0.0011193906937 0.0011100880236 0.0011008971808 0.0010917086224 0.0010827579677 0.0010739332879 0.0010652374106 0.0010566730801 
0.0010482421462 0.0010399437639 0.0010317758176 0.0010237363836 0.0010158223262 0.0010080315946 0.0010003610053 0.00099272873516 0.00098529315573 
0.00097797215496 0.00097076493359 0.00096366972471 0.00095668637818 0.00094981097837 0.00094304191275 0.0014097232092 0.001397178982 0.0013847860884 
0.001372542542 0.0013604534388 0.0013485036375 0.0013366943512 0.0013250232845 0.0013134883592 0.0013020838979 0.0012908037075 0.0012796492927 
0.0012686187497 0.0012577038243 0.0012469084773 0.0012362395961 0.0012256860649 0.0012152497441 0.00120492835 0.0011947195503 0.0011846266423 
0.0011746374691 0.0011647460071 0.0011549644475 0.0011452767751 0.0011357025211 0.0011262320006 0.0011168677239 0.001107613041 0.001098355863 
0.0010893366933 0.0010804403818 0.0010716716476 0.0010630319067 0.0010545248563 0.0010461492544 0.001037906805 0.0010297941187 0.0010218088605 
0.0010139480088 0.0010062084912 0.00099850744316 0.00099100309875 0.00098361213963 0.00097633430769 0.00096916685835 0.00096210912519 0.00095516042936 
0.00094831863332 0.00094158106488 0.0014048633625 0.0013924069539 0.0013801013389 0.0013679493093 0.0013559374915 0.0013440677589 0.0013323389501 
0.0013207455159 0.0013092852578 0.001297952407 0.0012867444866 0.0012756576095 0.0012646888454 0.0012538366237 0.0012431076905 0.0012324964784 
0.0012219995743 0.0012116196016 0.0012013478074 0.0011911873849 0.0011811371128 0.001171185861 0.0011613471745 0.0011516019286 0.0011419711278 
0.0011324443307 0.0011230245042 0.0011137124011 0.0011045122057 0.0010953125766 0.0010863516084 0.0010775146001 0.0010688061864 0.0010602291808 
0.0010517845512 0.0010434721062 0.0010352904851 0.0010272397835 0.0010193146864 0.0010115129471 0.0010038310724 0.00099618570039 0.0009887348767 
0.00098139489614 0.00097416426001 0.00096704254465 0.00096002770236 0.00095311850792 0.00094631396539 0.00093961013842 0.0013991005604 0.0013867404081 
0.0013745365813 0.0013624725288 0.0013505534279 0.0013387735465 0.0013271326419 0.0013156248796 0.0013042471098 0.0012929974077 0.001281864546 
0.0012708565221 0.0012599660255 0.0012491856864 0.0012385257956 0.001227983885 0.0012175496884 0.0012072259132 0.001197013411 0.0011869089318 
0.0011769055675 0.0011670141073 0.0011572184949 0.0011475386333 0.0011379621859 0.0011284909677 0.0011191282169 0.0011098755753 0.0011006188265 
0.001091600558 0.001082703875 0.0010739338712 0.0010652927301 0.0010567841578 0.0010484075717 0.0010401628455 0.001032049741 0.0010240660899 
0.0010162073307 0.0010084708933 0.0010007716898 0.00099326980633 0.00098587736786 0.00097859390321 0.00097141671736 0.0009643451308 0.00095737750704 
0.00095051089786 0.00094374754499 0.00093708412005 0.0013924158144 0.00138016176 0.0013680558745 0.001356094562 0.0013442747342 0.0013325948858 
0.0013210507023 0.0013096376693 0.0012983522753 0.0012871885794 0.001276147912 0.0012652247737 0.0012544098899 0.0012437197219 0.0012331377035 
0.0012226660873 0.0012123032629 0.0012020489244 0.001191902445 0.0011818557715 0.0011719223686 0.0011620832419 0.0011523607298 0.0011427423181 
0.0011332288812 0.0011238219951 0.0011145238347 0.0011053383036 0.0010961505395 0.0010872021622 0.0010783776009 0.00106968049 0.0010611140032 
0.0010526796291 0.0010443768025 0.0010362075714 0.0010281680088 0.0010202571178 0.0010124708234 0.0010048052978 0.00099717492759 0.00098973924142 
0.00098241125734 0.00097518886939 0.00096806885191 0.00096105215178 0.00095413616255 0.00094731920319 0.0009406015596 0.00093398046208 0.0013848178741 
0.0013726773458 0.001360682831 0.0013488319019 0.0013371201499 0.0013255449728 0.0013141059841 0.0013027970428 0.0012916086949 0.0012805458172 
0.001269605407 0.0012587742067 0.0012480490468 0.0012374428422 0.0012269468475 0.001216556749 0.0012062744159 0.0011960916688 0.0011860211496 
0.0011760551078 0.0011661823009 0.0011564260098 0.0011467743078 0.0011372260015 0.0011277847733 0.0011184510347 0.0011092269301 0.0010999955194 
0.0010910041759 0.0010821334813 0.0010733884064 0.001064771247 0.0010562848153 0.0010479301918 0.0010397094085 0.0010316202082 0.0010236595439 
0.0010158272504 0.0010081180298 0.0010004459304 0.00099297106775 0.00098560588255 0.00097834502275 0.00097118775844 0.00096413084894 0.00095717357384 
0.0009503128598 0.00094354830896 0.00093688031961 0.00093030636145 0.0013763743166 0.0013643527528 0.0013524768726 0.0013407399754 0.0013291443784 
0.0013176851002 0.0013063532306 0.0012951556456 0.0012840788773 0.0012731199976 0.0012622773972 0.0012515396214 0.0012409203073 0.0012304080483 
0.0012200046719 0.0012097057315 0.0011995035939 0.00118941341 0.0011794276483 0.0011695334098 0.0011597533273 0.0011500778433 0.0011405054446 
0.0011310379542 0.001121676689 0.0011124245117 0.0011032831157 0.0010941357863 0.001085227713 0.0010764424568 0.0010677830745 0.0010592519777 
0.0010508516467 0.0010425833768 0.0010344477733 0.0010264436181 0.0010185675005 0.00101081739 0.001003189843 0.00099559663177 0.00098819728913 
0.0009809067871 0.00097371995573 0.00096663115319 0.00095963982856 0.00095274393878 0.00094594274788 0.00093923115153 0.00093261519121 0.00092609038328 
0.0013671801091 0.0013552823539 0.0013435285484 0.0013319155897 0.001320440628 0.0013090999681 0.0012978883278 0.0012867994772 0.0012758350048 
0.0012649864558 0.0012542522855 0.0012436208523 0.0012331047551 0.0012226944793 0.001212389521 0.0012021805153 0.0011920821319 0.0011820858005 
0.0011721805175 0.0011623890109 0.001152700093 0.0011431147621 0.0011336320603 0.0011242541777 0.0011149829341 0.0011058203799 0.0010967688451 
0.0010877128131 0.0010788967978 0.0010702021267 0.0010616336798 0.0010531946456 0.0010448856175 0.0010367087883 0.0010286630974 0.0010207478684 
0.00101295966 0.0010052931378 0.00099766679473 0.00099023855299 0.00098292087917 0.00097570720195 0.00096859460327 0.00096157728548 0.00095465386256 
0.00094782010144 0.00094107985038 0.00093442917447 0.00092786868798 0.0009213962426 0.0013573573666 0.0013455901939 0.0013339677864 0.0013224778253 
0.0013111271082 0.0012999063093 0.0012888128676 0.001277844607 0.0012669964258 0.0012562614692 0.0012456312391 0.0012351173066 0.0012247097899 
0.0012144080289 0.0012042019358 0.0011941042143 0.0011841083854 0.0011742019422 0.0011644081691 0.0011547161285 0.0011451252267 0.0011356363534 
0.0011262509536 0.0011169710711 0.0011077970946 0.0010987318582 0.0010896574873 0.0010808210338 0.00107210285 0.0010635068606 0.0010550353664 
0.0010466926865 0.001038479672 0.0010303968051 0.0010224443623 0.0010146190466 0.0010069212122 0.00099934416545 0.00099180367908 0.00098445919401 
0.00097722211634 0.0009700869325 0.00096304720427 0.00095610314241 0.00094924900163 0.00094248388006 0.00093580694866 0.00092921654334 0.00092271343164 
0.00091629596897 0.0013470592824 0.0013354240205 0.0013239260233 0.0013125649441 0.0013013394476 0.0012902429787 0.0012792724236 0.0012684238378 
0.001257692634 0.0012470676705 0.0012365594452 0.0012261592464 0.0012158650047 0.0012056670278 0.0011955780866 0.0011855897355 0.0011756906368 
0.0011659033896 0.001156217088 0.0011466299503 0.0011371438775 0.0011277597137 0.0011184783635 0.001109302122 0.0011002324734 0.0010912721051 
0.0010823020183 0.0010735691817 0.0010649539382 0.0010564605937 0.0010480915301 0.0010398495851 0.0010317328226 0.0010237472978 0.0010158909542 
0.0010081604488 0.0010005535618 0.00099298241033 0.0009856119039 0.00097835166199 0.00097119325286 0.0009641366535 0.00095717519519 0.00095030466131 
0.0009435205699 0.00093682282 0.0009302101883 0.0009236813539 0.00091723684214 0.00091088703248 0.0013364226008 0.0013249212436 0.0013135570051 
0.0013023274425 0.0012912254408 0.0012802534684 0.0012694066326 0.0012586782385 0.0012480657557 0.0012375580664 0.0012271663408 0.0012168740865 
0.0012066955192 0.0011966196202 0.0011866435767 0.0011767572285 0.0011669827037 0.0011573078404 0.001147731713 0.0011382557587 0.0011288801019 
0.0011196064284 0.00111043587 0.0011013690772 0.0010924085856 0.0010834337459 0.0010746952477 0.001066070271 0.0010575628032 0.0010491760062 
0.0010409093599 0.0010327702052 0.0010247569167 0.0010168700399 0.0010091103712 0.0010014736864 0.00099387364862 0.00098647347044 0.00097918898986 
0.00097201235147 0.00096493723834 0.00095795876602 0.00095107371066 0.00094427584254 0.00093756252221 0.00093093278303 0.00092438496729 0.00091791866104 
0.0009115336405 0.00090524060508 0.001325613467 0.0013142438343 0.001303009094 0.0012919068111 0.0012809314686 0.0012700822911 0.0012593567127 
0.0012487493214 0.0012382473118 0.0012278636471 0.0012175821187 0.0012074144128 0.0011973517312 0.0011873918402 0.0011775198561 0.0011677610687 
0.0011581022357 0.00114854233 0.0011390805853 0.0011297194533 0.0011204578682 0.0011112986806 0.001102240993 0.0010932875338 0.0010844401616 
0.001075578182 0.0010669511853 0.0010584346876 0.0010500358621 0.0010417570432 0.0010335995493 0.0010255652858 0.0010176533695 0.0010098658864 
0.0010021991542 0.00099465614876 0.00098714716116 0.00097983704926 0.00097263746602 0.00096554295921 0.00095854734988 0.00095164680583 0.00094483584781 
0.00093811093373 0.00093146787257 0.00092490542841 0.00091842355049 0.00091202001157 0.00090570626464 0.00089945879479 0.001314764234 0.0013035248966 
0.0012924186681 0.0012814431089 0.0012705923535 0.0012598641371 0.0012492571973 0.0012387685547 0.0012283845178 0.0012181101617 0.0012079522494 
0.0011979002361 0.0011879545048 0.0011780986081 0.0011683551302 0.001158713675 0.0011491708143 0.0011397277479 0.0011303828235 0.0011211375859 
0.0011119921962 0.0011029485869 0.0010940062105 0.0010851676467 0.0010763088412 0.0010676850865 0.0010591709582 0.0010507685647 0.0010424799574 
0.0010343099876 0.0010262578127 0.0010183241012 0.0010105140566 0.0010028255629 0.00099525597671 0.00098771991362 0.00098038433952 0.00097316068891 
0.00096604382469 0.00095902964151 0.00095211224068 0.00094528687227 0.00093855015857 0.00093189591932 0.00092532260222 0.00091882767396 0.00091241082704 
0.00090608143474 0.00089981592589 0.00089362499775 0.0013040023867 0.0012928900911 0.001281908686 0.0012710560042 0.0012603264735 0.0012497197628 
0.001239228903 0.0012288480306 0.0012185787948 0.0012084277967 0.0011983845973 0.0011884472452 0.0011786047979 0.0011688765602 0.0011592501975 
0.0011497241818 0.0011402977994 0.0011309711277 0.0011217433816 0.0011126136324 0.0011035846572 0.0010946544918 0.0010858277551 0.0010771039864 
0.0010683622763 0.0010598522732 0.0010514502867 0.0010431588247 0.0010349772957 0.0010269127972 0.0010189655395 0.0010111358282 0.0010034254096 
0.00099583363071 0.00098835662351 0.00098091014183 0.00097366217981 0.00096652140171 0.00095948550093 0.00095254934599 0.00094570797869 0.00093895642521 
0.00093229124457 0.00092570697444 0.00091920160992 0.00091277318426 0.00090643233745 0.00090015296064 0.00089394694523 0.00088781241382 0.0012934288838 
0.001282440814 0.0012715809525 0.0012608479962 0.0012502369053 0.0012397459883 0.0012293554246 0.0012190947504 0.0012089470633 0.0011989087942 
0.0011889788131 0.0011791424826 0.0011694240907 0.001159809456 0.0011502969075 0.0011408844026 0.0011315733104 0.001122360003 0.0011132469591 
0.001104232766 0.0010953182032 0.001086504635 0.0010777923613 0.0010690575903 0.0010605530081 0.0010521512518 0.0010438594621 0.0010356760057 
0.001027603816 0.0010196437813 0.0010117979962 0.001004067222 0.00099645217821 0.00098895313763 0.00098148166266 0.00097420780255 0.00096704325106 
0.00095998360316 0.00095302502533 0.00094616458625 0.00093939715785 0.0009327168041 0.00092612169859 0.00091960604403 0.00091316748804 0.00090680436934 
0.00090052557538 0.00089430699373 0.00088815911504 0.00088207910916 0.0012831269447 0.0012722585962 0.0012615172483 0.0012509006798 0.0012404045341 
0.0012300187184 0.0012197484659 0.001209597633 0.0011995593166 0.0011896304267 0.0011797978983 0.0011700834238 0.0011604766863 0.0011509727722 
0.0011415679713 0.0011322681103 0.0011230697133 0.0011139707593 0.0011049699965 0.0010960682757 0.0010872658783 0.0010785637361 0.0010699597316 
0.0010613353329 0.0010529394089 0.0010446484943 0.0010364621954 0.0010283841463 0.0010204135487 0.0010125541446 0.0010048063963 0.00099717123782 
0.00098964858783 0.00098215171589 0.00097485258081 0.00096766261558 0.00096057719088 0.00095359532225 0.00094671222385 0.00093992393897 0.00093322659879 
0.00092661639449 0.00092008824148 0.0009136391177 0.00090726743135 0.00090097777368 0.00089474895673 0.00088858970042 0.00088249749972 0.00087647335829 
0.0012731541994 0.0012624032143 0.0012517763658 0.0012412720291 0.0012308801369 0.0012206033618 0.0012104495398 0.0012004073904 0.0011904752357 
0.0011806408476 0.0011709248008 0.0011613174134 0.0011518178045 0.0011424221529 0.0011331294431 0.0011239375964 0.0011148471435 0.0011058562765 
0.0010969617738 0.0010881682657 0.0010794739955 0.0010708791445 0.0010622589621 0.0010538658443 0.0010455745129 0.0010373858104 0.0010293012307 
0.0010213223609 0.0010134495746 0.0010056854694 0.00099803124666 0.00099048500747 0.0009830505793 0.00097563894088 0.00096842109355 0.00096130980983 
0.00095430182212 0.00094739253043 0.00094058045649 0.00093386228908 0.00092723368427 0.00092068928536 0.00091422705541 0.00090784251094 0.00090154455522 
0.00089530557128 0.00088913573438 0.00088303389557 0.00087699783488 0.00087102650799 0.0012635533729 0.0012529147214 0.00124239133 0.0012319971285 
0.0012217120407 0.0012115519225 0.0012014998753 0.0011915623823 0.0011817230328 0.0011720042312 0.0011623944343 0.001152890715 0.0011434941414 
0.0011342037139 0.0011250117205 0.0011159247569 0.0011069384668 0.0010980515723 0.0010892637955 0.0010805740051 0.0010719825571 0.0010634900693 
0.0010549714671 0.00104667926 0.0010384865981 0.0010303955023 0.0010224066872 0.0010145217004 0.0010067414903 0.0009990665857 0.00099149903324 
0.00098403908999 0.00097659958001 0.0009693540981 0.00096221313617 0.00095517534834 0.00094823915957 0.00094139967022 0.00093465612927 0.00092800403166 
0.00092144010336 0.00091495993188 0.00090856057078 0.00090223730716 0.00089599955559 0.00088982011164 0.00088370838634 0.0008776617041 0.00087168050561 
0.00086576024168 0.001254353298 0.0012438133766 0.0012334055116 0.0012231158978 0.0012129358981 0.0012028778968 0.001192930789 0.0011830825652 
0.0011733569206 0.0011637397723 0.001154227986 0.0011448249296 0.0011355281942 0.0011263368338 0.0011172485613 0.0011082599635 0.0010993736117 
0.0010905863196 0.0010818966808 0.0010733052647 0.0010648121967 0.0010562905499 0.0010479948558 0.0010397964827 0.0010316968436 0.0010236976317 
0.0010157984891 0.0010080012535 0.0010003066707 0.00099271616193 0.00098523008184 0.00097784968718 0.0009704861216 0.00096331450295 0.00095624467025 
0.00094927646515 0.0009424065264 0.00093563296483 0.00092895373566 0.00092236434575 0.00091586110523 0.00090944214068 0.0009031032478 0.0008968498884 
0.00089065800385 0.00088453613947 0.00087848014029 0.00087248835978 0.00086655841302 0.00086068810364 0.0012455575322 0.0012351330141 0.0012248290908 
0.001214632891 0.0012045627824 0.0011946043774 0.0011847420252 0.0011750046629 0.0011653766934 0.0011558573796 0.0011464433926 0.0011371368051 
0.0011279358352 0.0011188396639 0.0011098471312 0.0011009547445 0.0010921629098 0.0010834695755 0.0010748740749 0.0010663760841 0.0010579744655 
0.001049544878 0.0010413386465 0.0010332293262 0.0010252172064 0.0010173033058 0.0010094875925 0.0010017726993 0.00099415788734 0.00098664494885 
0.00097923509665 0.00097183997268 0.00096463392926 0.00095752968839 0.00095052605111 0.00094362117367 0.00093681398247 0.00093010073263 0.00092348129727 
0.00091695079033 0.00091050599022 0.00090414318228 0.00089787201181 0.00089166381746 0.0008855275138 0.00087945902804 0.00087345717741 0.00086751730807 
0.00086163691705 0.00085581482045 0.0012371919128 0.0012268665013 0.0012166537275 0.0012065652816 0.0011965926842 0.0011867186585 0.0011769676722 
0.001167325867 0.0011577920611 0.0011483662952 0.0011390466574 0.0011298315184 0.0011207229588 0.0011117177629 0.0011028158868 0.001094012871 
0.0010853106872 0.0010767061786 0.0010681997122 0.001059788722 0.0010513475129 0.0010431306398 0.0010350099137 0.0010269832422 0.0010190530315 
0.0010112184466 0.0010034809865 0.00099584185538 0.0009883003881 0.00098085872679 0.0009734303317 0.00096618939836 0.00095904850827 0.0009520053499 
0.00094506213358 0.00093821583273 0.00093146558628 0.0009248086115 0.00091824361827 0.00091176715225 0.00090537650658 0.00089907900285 0.00089284857257 
0.00088669296445 0.00088060851392 0.00087459361127 0.00086864158738 0.00086275042715 0.00085691907488 0.00085114350662 0.0012292431365 0.0012190087255 
0.0012089022438 0.0011988966042 0.0011890186555 0.00117925075 0.0011695919979 0.0011600419877 0.0011505999284 0.0011412647251 0.0011320341483 
0.0011229080094 0.0011138876668 0.0011049690614 0.0010961527281 0.0010874359914 0.0010788186687 0.0010702984734 0.0010618755471 0.0010535471235 
0.0010451884143 0.0010370512795 0.0010290075603 0.0010210590271 0.001013204609 0.0010054432585 0.00099777791095 0.000990208164 0.0009827351781 
0.00097535932072 0.00096799284505 0.00096081432011 0.00095373131362 0.0009467446633 0.00093985528778 0.00093306217849 0.00092636364038 0.00091975772336 
0.00091324328475 0.00090681598808 0.00090048586474 0.000894226997 0.00088804621699 0.0008819391693 0.00087590455604 0.00086993582992 0.00086403233147 
0.00085818926626 0.00085240384372 0.00084667313482 0.0012217132264 0.0012115733008 0.0012015467032 0.001191646562 0.0011818594108 0.0011721814589 
0.0011626121912 0.0011531508146 0.0011437964292 0.0011345482321 0.0011254036617 0.0011163635716 0.0011074250286 0.0010985900987 0.0010898547335 
0.0010812193649 0.0010726820807 0.0010642419635 0.001055896926 0.0010475197878 0.0010393651271 0.0010313024181 0.0010233334993 0.0010154564081 
0.0010076717947 0.00099998037024 0.00099238182746 0.00098487589253 0.00097746439962 0.0009700597163 0.00096283846021 0.00095571263233 0.00094868237478 
0.00094174705308 0.00093490631762 0.0009281609478 0.00092150852613 0.00091494853372 0.0009084788697 0.00090209644589 0.00089581164065 0.00088959721123 
0.00088346414788 0.00087740359408 0.00087141212427 0.00086548948648 0.00085963094832 0.00085383176301 0.00084809083869 0.00084240229981 0.0012145855152 
0.001204533756 0.0011946095709 0.0011847969897 0.0011750977095 0.0011655060146 0.0011560227591 0.0011466472046 0.0011373763052 0.0011282111401 
0.0011191486141 0.0011101891735 0.0011013298679 0.0010925737246 0.00108391703 0.0010753580967 0.0010668974047 0.0010585316257 0.0010501322802 
0.0010419566756 0.0010338735634 0.0010258819062 0.0010179816434 0.0010101725858 0.0010024534591 0.00099482534721 0.00098728747861 0.00097984105192 
0.00097239790439 0.00096513485403 0.00095796528065 0.00095089085019 0.00094390814268 0.00093701827528 0.00093022130139 0.00092351825476 0.00091690727036 
0.00091038847993 0.00090395875457 0.00089762793657 0.00089137170178 0.00088519805838 0.00087910353686 0.00087308433192 0.0008671351987 0.00086125337141 
0.00085543616997 0.00084967813076 0.00084397708211 0.00083832896916 0.001207859336 0.0011979077987 0.0011880685064 0.0011783416993 0.0011687269031 
0.0011592194456 0.0011498185984 0.0011405242732 0.0011313341161 0.0011222480608 0.0011132638827 0.0011043820665 0.0010956003285 0.0010869175175 
0.0010783348286 0.0010698481027 0.0010614591517 0.0010531634909 0.0010448347977 0.0010367276176 0.0010287125372 0.0010207874693 0.0010129513442 
0.0010052048111 0.00099754689343 0.00098997713282 0.00098249653395 0.00097510416505 0.00096771207967 0.00096049914909 0.00095337650468 0.0009463443536 
0.00093940358008 0.00093255416779 0.00092579651846 0.00091913153809 0.00091255684865 0.0009060730224 0.00089969109301 0.00089338463267 0.0008871636048 
0.00088102624036 0.00087496730324 0.00086898481752 0.0008630737992 0.00085723046984 0.00085145053799 0.00084572982972 0.00084006643391 0.00083445613322 
0.0012015480895 0.0011916790515 0.0011819224621 0.0011722777491 0.0011627438227 0.0011533156882 0.0011439941916 0.0011347777376 0.0011256638983 
0.0011166528852 0.0011077432869 0.0010989346676 0.0010902254008 0.0010816143297 0.0010730991905 0.0010646817607 0.0010563585635 0.0010480028965 
0.0010398687449 0.0010318260212 0.0010238737946 0.0010160112831 0.0010082359781 0.0010005478604 0.00099294606861 0.00098543054914 0.00097800292173 
0.00097057241303 0.00096331655024 0.0009561482166 0.00094906755483 0.00094207576506 0.00093517326197 0.00092835995064 0.00092163668225 0.00091500459564 
0.00090846173079 0.00090202169147 0.00089565819734 0.00088938346928 0.00088319415306 0.00087708767645 0.0008710610931 0.0008651102318 0.00085923276413 
0.00085342299181 0.00084767742694 0.00084199185291 0.00083636097662 0.00083078530386 0.0011956360587 0.0011858467755 0.0011761693321 0.0011666018819 
0.001157144191 0.0011477932719 0.0011385465533 0.0011294036248 0.0011203627605 0.0011114231278 0.0011025845532 0.0010938445413 0.0010852027757 
0.0010766587674 0.0010682092915 0.0010598553672 0.0010515965633 0.0010433040073 0.0010352324519 0.001027250446 0.0010193580721 0.0010115529907 
0.0010038342053 0.00099620148667 0.00098865229009 0.00098118879899 0.00097371973925 0.00096642411584 0.00095921209641 0.00095208443292 0.00094504244575 
0.00093808643323 0.00093121815407 0.0009244375932 0.00091774515653 0.00091114154675 0.00090462721436 0.00089821457675 0.00089187825092 0.00088563048709 
0.00087946801095 0.00087338887133 0.0008673894672 0.00086146700726 0.00085561886373 0.00084983867508 0.00084412290285 0.0008384678709 0.00083286972135 
0.00082732465767 0.0011901232293 0.0011804087348 0.0011708064338 0.0011613127582 0.0011519277946 0.0011426484198 0.0011334728815 0.001124400295 
0.0011154283299 0.0011065561565 0.0010977829912 0.0010891078179 0.0010805306082 0.0010720490778 0.0010636626 0.0010553685286 0.0010470420245 
0.0010389367348 0.0010309227479 0.0010229983972 0.0010151614808 0.0010074114798 0.00099974624328 0.00099216501478 0.00098466699722 0.00097724919986 
0.00096982522672 0.00096257198695 0.00095539941402 0.00094831014746 0.00094130253064 0.00093437948454 0.00092754202705 0.00092078959506 0.00091412455981 
0.00090754666133 0.00090106974633 0.00089466992177 0.00088835793004 0.00088213200542 0.00087599223127 0.00086993706229 0.00086396132768 0.00085806316831 
0.00085223856002 0.00084648408446 0.00084079459671 0.00083516724439 0.00082959725303 0.00082408132454 0.0011850072136 0.0011753649013 0.0011658332218 
0.0011564093562 0.0011470930083 0.0011378812433 0.001128772538 0.0011197659443 0.0011108579754 0.0011020493754 0.001093338826 0.0010847244624 
0.0010762058219 0.0010677836714 0.0010594539729 0.0010512187804 0.0010429479897 0.0010348983939 0.0010269383941 0.0010190688245 0.001011284736 
0.0010035864953 0.00099597116665 0.00098843809642 0.00098098615999 0.0009735243017 0.00096623119941 0.00095901641743 0.00095188100635 0.00094482527041 
0.00093785045478 0.00093095715847 0.00092414694351 0.00091742129695 0.00091078103415 0.00090423747782 0.00089777148689 0.00089139256296 0.00088510109067 
0.0008788962003 0.00087277590586 0.00086673910798 0.000860783633 0.00085490592608 0.00084910204072 0.00084336838251 0.00083770231433 0.00083209847033 
0.0008265532936 0.00082106265104 0.0011802889153 0.0011707139168 0.0011612496576 0.0011518913459 0.0011426396733 0.0011334908796 0.0011244447322 
0.0011154988539 0.0011066519051 0.0010979021341 0.0010892487187 0.0010806918889 0.0010722282805 0.0010638596141 0.0010555846845 0.001047274727 
0.0010391847858 0.0010311876729 0.001023279323 0.0010154601126 0.0010077260725 0.0010000756685 0.00099250747769 0.00098502058019 0.0009775227846 
0.00097019194329 0.00096293696782 0.00095575833158 0.00094865704553 0.0009416328289 0.00093468727883 0.00092782155835 0.00092103723586 0.00091433503828 
0.00090772802696 0.00090119456914 0.00089474792589 0.00088838826572 0.00088211477469 0.00087592690696 0.00086982452276 0.00086380346194 0.00085786413227 
0.0008520029577 0.0008462173463 0.00084050154201 0.00083485463706 0.00082927117198 0.00082374632028 0.0008182787074 0.0011759650191 0.0011664537683 
0.001157052511 0.001147756217 0.0011385648555 0.0011294756821 0.0011204876879 0.0011115975419 0.0011028055509 0.0010941107885 0.00108551169 
0.0010770064032 0.001068594582 0.0010602764158 0.0010519232743 0.0010437919631 0.0010357517091 0.0010278011288 0.0010199420445 0.0010121694901 
0.0010044826477 0.0009968782318 0.00098935465546 0.0009819094857 0.00097445270867 0.00096716021793 0.00095994168913 0.0009527968816 0.00094572629805 
0.00093873180263 0.00093181333976 0.00092497263014 0.00091821160671 0.00091154296606 0.00090494540655 0.0008984313112 0.00089200256546 0.00088565980656 
0.00087940285315 0.00087322993776 0.00086714224681 0.00086113557264 0.00085520973845 0.00084936222483 0.0008435900152 0.00083788973151 0.00083225787358 
0.0008266914208 0.00082118552675 0.00081573859693 0.001172030341 0.0011625803723 0.0011532366562 0.0011439987704 0.0011348629365 0.0011258274438 
0.0011168929579 0.0011080557887 0.0010993161319 0.0010906712959 0.001082120706 0.0010736639221 0.0010652991874 0.0010570274571 0.0010487211031 
0.0010406358709 0.0010326415818 0.001024736594 0.0010169219159 0.0010091937711 0.0010015509843 0.0009939899811 0.00098650694529 0.00097901276287 
0.00097168241532 0.0009644265215 0.00095724199146 0.00095012784402 0.00094308681705 0.00093611897555 0.00092922539395 0.00092240790831 0.00091568017436 
0.0009090206124 0.00090244182571 0.00089594657614 0.00088953463959 0.00088320825017 0.00087696580549 0.00087080669356 0.00086473100281 0.00085873665616 
0.00085282224213 0.00084698579414 0.00084122547905 0.00083553768605 0.00082991894359 0.00082436650217 0.00081887738969 0.00081344803885 0.0011684766417 
0.001159083177 0.0011497938506 0.0011406083178 0.0011315244268 0.0011225390832 0.0011136532495 0.0011048651554 0.0010961715566 0.0010875727113 
0.0010790671615 0.001070654581 0.0010623333427 0.0010539762884 0.0010458406597 0.0010377977153 0.0010298461191 0.0010219844387 0.0010142100158 
0.0010065236587 0.00099892084176 0.00099140052367 0.000983867586 0.00097649988896 0.0009692055661 0.00096198191316 0.0009548282736 0.00094774443926 
0.00094073018304 0.00093378729687 0.00092691727291 0.00092012159695 0.00091341448372 0.00090677461702 0.00090021415458 0.00089373600017 0.00088734073249 
0.00088102857217 0.0008747998306 0.00086865375038 0.0008625885879 0.00085660499054 0.00085070068271 0.00084487444471 0.00083912362406 0.00083344400842 
0.00082783628439 0.00082229609746 0.00081682126138 0.00081140774105 0.0011652821792 0.0011559417186 0.0011467033641 0.001137567545 0.0011285314642 
0.0011195924636 0.0011107518957 0.0011020063582 0.0010933560422 0.0010847994611 0.0010763349043 0.0010679624739 0.0010596806242 0.0010513645233 
0.0010432679319 0.0010352633237 0.0010273503809 0.0010195273869 0.0010117913458 0.0010041438402 0.00099657952403 0.00098909491452 0.00098160000708 
0.00097426714363 0.00096700584738 0.0009598133265 0.00095268861931 0.0009456325284 0.00093864351838 0.00093172344431 0.00092487552095 0.00091811194083 
0.00091141303416 0.00090479170781 0.00089824984535 0.0008917882556 0.0008854082446 0.0008791107105 0.00087289532168 0.00086675952589 0.00086070581399 
0.00085473178909 0.00084883685599 0.00084301842068 0.00083727530816 0.00083160533175 0.00082600738362 0.00082047837925 0.0008150157281 0.00080961666179 
0.0011624179947 0.0011531271757 0.0011439367266 0.001134847228 0.0011258543996 0.0011169596241 0.0011081599645 0.0010994548926 0.0010908436656 
0.0010823247721 0.0010738979206 0.0010655632372 0.0010571904249 0.0010490382061 0.0010409768394 0.0010330081676 0.0010251301871 0.001017343574 