# vtk DataFile Version 5.1
vtk output
ASCII
DATASET STRUCTURED_POINTS
DIMENSIONS 50 50 50
SPACING 0.002 0.002 0.002
ORIGIN 0.1742 -0.052672 0.02732
POINT_DATA 125000
FIELD FieldData 1
potential 1 125000 double
<<<<<<< HEAD
0.0032200969519 0.0031883059814 0.0031568465885 0.0031257197896 0.0030949255858 0.0030644445114 0.0030343053311 0.003004490124 0.0029749917114 
0.0029458067299 0.0029169329104 0.0028883695429 0.0028601085073 0.0028321572863 0.0028045133179 0.0027771794138 0.0027501497144 0.0027234314663 
0.0026970193859 0.0026709113639 0.0026450986962 0.0026195727973 0.0025943236994 0.0025693500489 0.0025446399192 0.0025201879335 0.0024960005424 
0.0024720785642 0.0024484268996 0.0024250520655 0.0024019608928 0.0023791659652 0.0023566682465 0.0023344689404 0.0023125752539 0.0022909772548 
0.0022696733921 0.0022486534588 0.0022279095034 0.0022074346045 0.0021872174959 0.002167252831 0.0021475369217 0.00212807313 0.0021088575439 
0.0020898926908 0.0020711800716 0.0020527216451 0.0020345161934 0.0020165626997 0.0032601515581 0.0032277346867 0.0031956567999 0.003163920945 
0.0031325272868 0.0031014720926 0.0030707327918 0.0030403447666 0.0030102837127 0.0029805443324 0.0029511167444 0.002922006287 0.0028932102158 
0.0028647272875 0.0028365578202 0.0028087022705 0.0027811622133 0.0027539311148 0.0027270148686 0.0027004057794 0.0026740966405 0.002648080415 
0.0026223497391 0.0025968994035 0.0025717269641 0.002546824231 0.0025221889879 0.0024978339226 0.0024737585294 0.0024499733534 0.0024264804665 
0.0024032952002 0.0023804168389 0.00235784981 0.0023355902244 0.0023136431699 0.002291997054 0.0022706437998 0.0022495742122 0.0022287797848 
0.0022082541204 0.0021879871462 0.0021679784836 0.0021482234616 0.0021287249351 0.0021094821132 0.0020904976888 0.0020717724355 0.0020533047122 
0.0020350951837 0.0032990319711 0.0032660013523 0.0032333165606 0.0032009842138 0.003169002195 0.0031373691782 0.0031060799624 0.0030751087794 
0.0030444947815 0.0030142104011 0.002984244403 0.0029546010323 0.0029252782844 0.0028962733188 0.0028675876521 0.0028392236252 0.002811175819 
0.0027834421815 0.0027560266165 0.0027289228618 0.0027021261357 0.0026756279603 0.0026494229136 0.0026235036016 0.002597870318 0.0025725207598 
0.0025474486525 0.0025226678593 0.0024981801407 0.0024739922599 0.0024501099349 0.0024265423855 0.0024032938334 0.0023803653722 0.0023577553787 
0.0023354655683 0.002313486366 0.0022918079853 0.0022704232477 0.0022493208236 0.0022284953274 0.0022079371387 0.0021876417926 0.0021676081916 
0.0021478350483 0.0021283239919 0.0021090738021 0.0020900894861 0.0020713664293 0.0020529055031 0.0033364328738 0.0033027963085 0.0032695216035 
0.0032366055303 0.0032040530217 0.003171856428 0.0031400105295 0.0031085122305 0.0030773365327 0.0030465195437 0.0030160311231 0.0029858666337 
0.0029560332477 0.0029265207414 0.0028973325913 0.0028684708036 0.0028399254389 0.0028117026687 0.002783797017 0.0027562084586 0.0027289340128 
0.0027019631845 0.0026752912841 0.0026489144469 0.0026228333697 0.0025970466106 0.0025715539576 0.0025463580991 0.0025214674509 0.0024968852613 
0.0024726246925 0.0024486892722 0.0024250832324 0.0024018059176 0.0023788594805 0.002356235953 0.0023339358207 0.0023119457302 0.0022902568719 
0.0022688592529 0.0022477443782 0.0022269060736 0.0022063360327 0.0021860316682 0.0021659957634 0.0021462239564 0.0021267192484 0.0021074819076 
0.0020885125495 0.0020698090388 0.0033721147897 0.0033378903923 0.0033040383322 0.003270555953 0.0032374435264 0.0032046965825 0.003172313333 
0.0031402835088 0.0031086058062 0.003077248547 0.0030462481367 0.0030155803225 0.002985246529 0.0029552422927 0.0029255662661 0.0028962189347 
0.0028671957489 0.0028384972542 0.0028101173667 0.0027820577816 0.0027543175547 0.0027268848633 0.0026997623413 0.0026729433762 0.0026464294553 
0.0026202183932 0.0025943160917 0.0025687195505 0.0025434406936 0.0025184835738 0.0024938572477 0.0024695656881 0.0024456135244 0.0024220031493 
0.0023987319713 0.0023757927035 0.0023531822943 0.0023308956699 0.002308915519 0.0022872348876 0.0022658445857 0.0022447369917 0.0022239047721 
0.0022033437607 0.0021830518175 0.0021630309606 0.0021432797873 0.002123798994 0.002104590768 0.0020856511548 0.0034059318017 0.0033711285597 
0.0033367153418 0.0033026801749 0.0032690249311 0.0032357429413 0.0032028335528 0.0031702890524 0.0031381013099 0.0031062716108 0.0030747505655 
0.0030435985292 0.0030127793933 0.0029822981666 0.0029521487505 0.00292233203 0.0028928448741 0.0028636820841 0.0028348471708 0.0028063329577 
0.0027781417977 0.0027502663376 0.0027227099051 0.0026954674428 0.0026685369358 0.0026419192249 0.0026156203359 0.0025896426241 0.0025639892011 
0.0025386727131 0.0025136961004 0.0024890660554 0.0024647837405 0.0024408542391 0.0024172712367 0.0023940289067 0.0023711261007 0.0023485531515 
0.0023262962923 0.0023043465334 0.0022826927627 0.0022613311506 0.0022402451237 0.0022194366178 0.0021989017273 0.0021786402862 0.0021586522362 
0.0021389364559 0.0021194958797 0.002100329108 0.0034378281499 0.0034024644197 0.0033674985919 0.0033329230479 0.0032987379391 0.0032649390284 
0.003231521498 0.0031984752508 0.0031657943264 0.0031334738295 0.0031015030847 0.0030698492249 0.0030385625919 0.0030076214859 0.0029770179653 
0.0029467473632 0.0029168091567 0.002887202491 0.0028579262712 0.0028289774217 0.0028003573761 0.0027720591127 0.0027440853723 0.0027164344385 
0.0026891056852 0.0026621021516 0.0026354250725 0.0026090816307 0.0025830739029 0.0025574129063 0.0025321034831 0.0025071502221 0.002482556035 
0.0024583207815 0.0024344408006 0.0024109149744 0.0023877296432 0.0023648833703 0.0023423620988 0.0023201546939 0.0022982504121 0.0022766411868 
0.0022553151138 0.0022342692871 0.0022135006564 0.0021930083737 0.0021727920058 0.002152849867 0.0021331865569 0.0021137986971 0.0034678616334 
0.0034319467559 0.0033964383575 0.0033613379225 0.0033266368594 0.0032923297336 0.0032584143334 0.0032248814114 0.0031917194758 0.0031589252554 
0.0031264887018 0.0030943708103 0.0030626318073 0.0030312433696 0.0030001980933 0.0029694881481 0.0029391175715 0.0029090865356 0.0028793888594 
0.0028500251357 0.0028209903345 0.0027922908758 0.0027639228531 0.002735880856 0.0027081747301 0.0026808025685 0.0026537672153 0.0026270730408 
0.0026007315077 0.0025747447801 0.0025491198301 0.0025238592551 0.0024989665385 0.0024744400129 0.0024502814801 0.0024264804975 0.0024030269396 
0.0023799202382 0.0023571463939 0.0023346912554 0.0023125444257 0.0022906969669 0.0022691394223 0.0022478643473 0.0022268696398 0.0022061563415 
0.0021857181317 0.0021655581817 0.0021456797944 0.0021260792353 0.003495642032 0.0034597204638 0.0034236821436 0.0033880596316 0.0033528506099 
0.0033180486504 0.0032836445019 0.0032496312393 0.0032160018135 0.0031827432157 0.0031498549179 0.0031173227096 0.0030851144219 0.0030532854534 
0.0030218120859 0.0029906825737 0.0029598949795 0.0029294508445 0.0028993491351 0.0028695867241 0.0028401620941 0.0028110746942 0.0027823292305 
0.002753922426 0.0027258546857 0.002698134563 0.0026707615039 0.002643738671 0.0026170760439 0.0025907787569 0.0025648527848 0.0025393011361 
0.0025141234982 0.0024893208474 0.0024648913518 0.0024408280599 0.0024171199806 0.0023937609069 0.0023707424823 0.0023480483918 0.0023256680729 
0.0023035905983 0.0022818096519 0.0022603117721 0.0022390981194 0.0022181656856 0.0021975159178 0.002177142888 0.0021570537654 0.0021372457113 
0.003522486828 0.0034860341683 0.0034494668519 0.0034133276251 0.0033776168171 0.003342323619 0.0033074372457 0.0032729481246 0.0032388548016 
0.0032051412539 0.003171805856 0.0031388358644 0.0031062289303 0.0030739420487 0.0030420493698 0.0030105087011 0.002979320096 0.0029484816031 
0.0029179895581 0.0028878453218 0.0028580482263 0.0028285997905 0.0027994980454 0.0027707432361 0.0027423378769 0.0027142850142 0.0026865891521 
0.0026592529152 0.0026322888285 0.002605691376 0.0025794771105 0.0025536456948 0.0025281956747 0.002503129413 0.0024784396085 0.0024541223807 
0.0024301673014 0.002406562975 0.002383305471 0.0023603775835 0.0023377707729 0.002315468515 0.0022934672006 0.0022717530863 0.0022503242329 
0.0022291793032 0.0022083179792 0.0021877387493 0.00216744529 0.0021474357437 0.0035481756831 0.0035106401737 0.0034740967784 0.0034374464073 
0.0034012292422 0.0033654431559 0.0033300723119 0.003295114386 0.0032605598279 0.0032263933038 0.0031926119213 0.0031592083619 0.0031261769442 
0.0030935126615 0.0030611760656 0.0030292360917 0.0029976564024 0.0029664319225 0.0029355644042 0.0029050535604 0.002874898186 0.0028450966374 
0.0028156518637 0.0027865667787 0.0027578382171 0.0027294697847 0.0027014674795 0.002673837605 0.0026465828961 0.0026197109273 0.0025932211476 
0.0025671204788 0.0025414086194 0.0025160824348 0.0024911397851 0.0024665752488 0.0024423748546 0.0024185311325 0.0023950380568 0.0023718804024 
0.0023490468042 0.0023265220938 0.0023043002282 0.0022823714414 0.0022607296957 0.002239374291 0.0022183058944 0.0021975222525 0.0021770277822 
0.0021568188887 0.0035730751716 0.0035349975093 0.0034973798312 0.0034607570162 0.0034240319865 0.0033877488891 0.0033518954048 0.0033164625186 
0.0032814405466 0.0032468203709 0.0032125941353 0.0031787582758 0.0031453065488 0.003112230621 0.0030795267552 0.0030471555751 0.0030151906477 
0.0029835935148 0.0029523638722 0.0029214964535 0.0028909930796 0.0028608541136 0.0028310786292 0.0028016718994 0.0027726333081 0.0027439692435 
0.0027156710895 0.0026877554504 0.0026602217597 0.0026330767054 0.002606321871 0.0025799627473 0.0025539926257 0.0025284141022 0.0025032246042 
0.002478414269 0.0024539754078 0.002429895765 0.0024061686431 0.0023827805437 0.0023597174011 0.0023369716082 0.0023145267153 0.0022923831651 
0.0022705277406 0.0022489634223 0.0022276884698 0.0022067013299 0.0021860067473 0.002165601053 0.0035975663245 0.0035589366368 0.0035207783862 
0.0034830879501 0.0034463913617 0.0034096005109 0.0033732592555 0.0033373438042 0.0033018504775 0.0032667712177 0.0032320964427 0.0031978233242 
0.0031639482381 0.0031304618176 0.0030973550022 0.0030646329149 0.0030322488695 0.0030002822653 0.0029686908089 0.0029374755368 0.0029066334874 
0.0028761669926 0.0028460736001 0.0028163565481 0.0027870164618 0.0027580515838 0.0027294755047 0.0027012813711 0.0026734764173 0.0026460665054 
0.002619049177 0.0025924318724 0.0025662090413 0.0025403813048 0.0025149449958 0.0024898895206 0.0024652079053 0.0024408896785 0.0024169266308 
0.0023933062211 0.0023700141898 0.0023470424606 0.0023243806114 0.0023020180111 0.0022799493868 0.0022581751774 0.0022366927447 0.0022155005692 
0.002194604113 0.0021740017451 0.003622038907 0.0035828416709 0.0035441283967 0.0035058954231 0.0034686802615 0.0034313687543 0.0033945194853 
0.0033581128072 0.0033221370667 0.0032865869328 0.0032514582157 0.0032167440902 0.0031824383352 0.0031485349402 0.0031150237036 0.0030819108811 
0.0030491900275 0.0030168121399 0.0029848634947 0.0029533012987 0.0029221234048 0.0028913336264 0.0028609239742 0.002830900973 0.0028012642328 
0.0027720104002 0.0027431512223 0.0027146829548 0.0026866061016 0.002658933853 0.0026316595859 0.002604786042 0.0025783095903 0.0025522301114 
0.0025265429835 0.0025012410707 0.002476314314 0.0024517531573 0.0024275494157 0.0024036924302 0.0023801667792 0.0023569645015 0.0023340774251 
0.0023114946799 0.0022892095262 0.0022672209839 0.0022455323447 0.0022241379113 0.0022030392838 0.0021822380432 0.0036468424644 0.0036070599485 
0.0035677765525 0.0035289874333 0.0034906760335 0.0034533895339 0.0034160105753 0.0033790999851 0.0033426317559 0.003306602103 0.0032710059801 
0.0032358371394 0.0032010957692 0.0031667651726 0.0031328450491 0.0030993351214 0.0030662289921 0.0030335259327 0.0030011716364 0.002969261857 
0.0029377472825 0.0029066287858 0.0028759031318 0.0028455715288 0.0028156344348 0.0027860953918 0.00275695405 0.002728209552 0.0026998638648 
0.0026719264689 0.0026443897065 0.0026172552405 0.0025905226498 0.0025641898657 0.0025382463512 0.002512689929 0.0024875129188 0.0024627039679 
0.002438253071 0.002414152224 0.0023903884862 0.0023669504351 0.0023438327859 0.0023210228899 0.0022985177854 0.0022763143468 0.00225441323 
0.0022328109984 0.002211507654 0.0021905029581 0.003672309347 0.0036319179908 0.003592039616 0.0035526710701 0.0035137937944 0.0034754089633 
0.0034380499758 0.0034006100494 0.0033636286837 0.0033271048715 0.0032910290369 0.0032553924277 0.0032201983015 0.0031854357533 0.0031510976835 
0.0031171794609 0.0030836809838 0.0030505976574 0.0030179249205 0.0029856083573 0.0029537516169 0.0029223013718 0.0028912540664 0.0028606091945 
0.0028303689492 0.0028005360826 0.0027711071572 0.0027420828332 0.0027134629097 0.0026852471124 0.0026574421175 0.002630040901 0.0026030469077 
0.0025764520914 0.0025502490756 0.0025244319348 0.0024989973163 0.0024739310342 0.0024492280576 0.0024248765586 0.0024008658581 0.0023771870141 
0.0023538311887 0.0023307890982 0.0023080578671 0.002285633459 0.0022635158009 0.0022417003441 0.0022201883504 0.0021989770032 0.0036986999812 
0.0036576790323 0.0036171840876 0.0035772132221 0.0035377503601 0.003498790917 0.0034603230932 0.0034228955658 0.0033853884718 0.0033483517498 
0.0033117783009 0.003275659267 0.0032399987643 0.0032047834399 0.003170009891 0.003135670098 0.0031017686525 0.0030682951975 0.0030352434524 
0.0030026125659 0.0029703493942 0.0029385569415 0.0029071793643 0.0028762119712 0.0028456604371 0.0028155210965 0.002785795743 0.0027564801611 
0.0027275767201 0.0026990824675 0.0026709968553 0.0026433200945 0.0026160496898 0.0025891844061 0.0025627115222 0.0025366283808 0.00251092656 
0.0024855964804 0.0024606294232 0.0024360205988 0.0024117558552 0.0023878251742 0.0023642275191 0.0023409484137 0.0023179834912 0.0022953320661 
0.0022729897532 0.0022509558861 0.0022292289892 0.002207802562 0.0037262370633 0.0036845592563 0.0036434252176 0.0036028267137 0.0035627550081 
0.0035231998908 0.0034841550735 0.0034461675463 0.0034081111615 0.0033705377843 0.0033334487052 0.0032968301417 0.003260686755 0.0032250061471 
0.0031897777885 0.0031550034269 0.0031206804071 0.0030868003995 0.0030533544224 0.0030203439638 0.0029877135486 0.0029555649737 0.0029238417285 
0.0028925393475 0.0028616612518 0.0028312072248 0.0028011688741 0.002771552646 0.0027423485015 0.0027135618644 0.0026851879728 0.0026572261644 
0.0026296724215 0.0026025204818 0.0025757678241 0.0025494064599 0.0025234267363 0.002497822756 0.0024725866654 0.0024477077981 0.0024231812697 
0.0023989953375 0.0023751423252 0.0023516187994 0.0023284181365 0.0023055284386 0.0022829570044 0.0022606977065 0.0022387458295 0.0022171049111 
0.0037550809314 0.00371272143 0.0036709217449 0.0036296738397 0.003588970812 0.0035487962679 0.0035091467688 0.0034700155151 0.0034319546164 
0.0033938281224 0.0033562010294 0.0033190638732 0.0032824184834 0.0032462514152 0.003210558476 0.0031753309962 0.0031405651437 0.0031062587498 
0.0030724041831 0.0030389958162 0.0030060314969 0.0029734544618 0.0029413689304 0.0029097167582 0.0028784966777 0.0028477068523 0.002817344913 
0.0027874072932 0.0027578901182 0.0027287951299 0.0027001212715 0.002671854916 0.0026440050198 0.0026165604608 0.0025895118892 0.0025628617391 
0.0025365962865 0.0025107075744 0.0024851893765 0.002460035048 0.0024352370019 0.0024107849017 0.0023866738306 0.0023628944728 0.0023394465799 
0.0023163170102 0.0022935057559 0.0022710124361 0.0022488330377 0.0022269664662 0.0037853582622 0.0037422914786 0.0036997953732 0.0036578763587 
0.003616513285 0.0035757003329 0.0035354239812 0.0034956832998 0.0034564706666 0.0034183383061 0.0033801535651 0.0033424767255 0.0033053062106 
0.0032686360507 0.0032324486577 0.0031967483258 0.0031615247924 0.0031267716856 0.0030924863745 0.0030586623466 0.0030252935666 0.002992378842 
0.0029598515202 0.0029278300702 0.0028962492798 0.0028651094425 0.0028344031269 0.0028041297207 0.0027742834839 0.0027448626976 0.0027158662684 
0.0026872889336 0.0026591245533 0.0026313712766 0.0026040202579 0.0025770634142 0.0025505007626 0.0025243169948 0.0024985113946 0.0024730709418 
0.0024479919838 0.002423264424 0.0023988851269 0.0023748434505 0.0023511373903 0.0023277572085 0.0023047016323 0.00228196522 0.002259551688 
0.0022374513274 0.0038171517747 0.0037733499064 0.0037301401893 0.0036875097486 0.0036454687161 0.0036039895756 0.0035630658414 0.0035226911107 
0.0034828678274 0.0034441475766 0.0034053861684 0.0033671488177 0.0033294327959 0.003292229585 0.0032555359458 0.0032193333907 0.0031836293326 
0.0031484117253 0.0031136715814 0.0030794078225 0.0030456155403 0.0030122860729 0.0029794185886 0.0029469453497 0.0029149827414 0.0028834697929 
0.0028524005242 0.0028217724982 0.0027915789317 0.002761818328 0.002732485316 0.0027035790553 0.0026750841132 0.0026470076033 0.0026193361627 
0.0025920682684 0.002565191637 0.0025387012265 0.0025125949348 0.0024868603811 0.0024614902723 0.0024364800905 0.0024118237075 0.0023875077501 
0.0023635351223 0.0023398979185 0.0023165873298 0.0022936034741 0.0022709434327 0.0022486022077 0.0038505224455 0.0038059536913 0.0037620004242 
0.0037186468783 0.0036758957302 0.0036337225153 0.0035921245938 0.0035510995037 0.0035106385439 0.0034707359206 0.0034319443748 0.0033931240281 
0.0033548386133 0.0033170859167 0.0032798576813 0.0032431369076 0.0032069279442 0.0031712193708 0.0031360060909 0.0031012807837 0.0030670398788 
0.0030332745021 0.0029999841043 0.0029671595526 0.0029347348674 0.0029028291283 0.002871374893 0.0028403733622 0.0028098140708 0.0027796953336 
0.002750012291 0.0027207549437 0.0026919171316 0.002663501175 0.0026354972512 0.0026078989095 0.0025807014463 0.0025538925331 0.0025274737974 
0.0025014341722 0.0024757641718 0.0024504592651 0.0024255141964 0.002400918197 0.0023766692661 0.002352760975 0.0023291901338 0.0023059483703 
0.0022830328999 0.0022604430074 0.003885505179 0.003840143037 0.0037954149081 0.0037513084135 0.0037078207961 0.0036649340806 0.0036226417139 
0.0035809386004 0.0035398164969 0.003499270329 0.0034592929736 0.0034204329766 0.0033815593301 0.0033432304249 0.0033054433955 0.0032681805533 
0.0032314464733 0.0031952267287 0.0031595183317 0.0031243063993 0.0030895910116 0.0030553711655 0.0030216352717 0.002988377662 0.002955593972 
0.0029232116823 0.0028913567546 0.002859960444 0.0028290133226 0.0027985159358 0.0027684609707 0.0027388407819 0.0027096476142 0.0026808734988 
0.0026525229435 0.0026245828265 0.0025970483744 0.0025699114311 0.0025431668076 0.002516807196 0.0024908288225 0.0024652194069 0.0024399758237 
0.002415088369 0.0023905533455 0.0023663697238 0.0023425233769 0.0023190149067 0.0022958402888 0.0022729935588 0.0039221220506 0.0038759387222 
0.0038304105616 0.0037855205774 0.003741272805 0.003697645776 0.0036546326175 0.0036122258725 0.003570421338 0.0035292111341 0.0034885806215 
0.0034490969498 0.0034096110083 0.0033706822587 0.0033323112739 0.0032944838236 0.0032571991237 0.0032204446174 0.0031842163844 0.0031485025343 
0.0031132968464 0.0030785958763 0.0030443876057 0.0030106764775 0.0029774504156 0.0029446330721 0.00291235507 0.002880544865 0.0028491956926 
0.0028183014904 0.002787852665 0.0027578512015 0.0027282835233 0.0026991404813 0.0026704244913 0.0026421284589 0.002614243707 0.0025867647464 
0.0025596865862 0.0025329960185 0.0025066932756 0.0024807726615 0.0024552206938 0.0024300317196 0.0024052031575 0.0023807250934 0.0023565990804 
0.0023328153274 0.0023093721193 0.0022862601825 0.0039604011096 0.0039133641418 0.0038670038241 0.0038213071024 0.0037762717375 0.0037318765341 
0.0036881161628 0.0036449835036 0.0036024683007 0.0035605648574 0.003519261442 0.0034785553861 0.0034389995118 0.0033994532548 0.0033604728322 
0.0033220567204 0.0032841975566 0.0032468840913 0.0032101122983 0.0031738687758 0.0031381522091 0.003102945748 0.0030682559277 0.0030340652028 
0.0030003706661 0.0029671697511 0.0029343833467 0.0029021383028 0.0028703635255 0.0028390515012 0.0028081964686 0.0027777923613 0.0027478318936 
0.0027183066027 0.0026892117586 0.0026605446806 0.0026322962662 0.0026044619412 0.0025770340128 0.0025500034458 0.0025233676081 0.0024971175526 
0.002471249631 0.002445750922 0.0024206137421 0.0023958396053 0.0023714218587 0.002347351244 0.0023236309571 0.0023002442471 0.0040003504683 
0.0039524309556 0.0039052113273 0.0038586742658 0.0038128219759 0.0037676333449 0.0037230990531 0.0036792162077 0.0036359656379 0.0035933460402 
0.0035513450524 0.0035099576034 0.003469736904 0.0034295443004 0.0033899377604 0.0033509059383 0.0033124497756 0.0032745549536 0.0032372111975 
0.0032004208554 0.0031641675792 0.0031284437094 0.0030932428407 0.0030585593217 0.0030243794087 0.0029907013287 0.0029575164434 0.0029247505682 
0.0028925305434 0.0028607815503 0.0028295003559 0.0027986800431 0.0027683112371 0.0027383859763 0.0027088970787 0.0026798445557 0.0026512187493 
0.0026230160968 0.0025952259765 0.0025678429792 0.0025408615604 0.0025142736524 0.0024880736986 0.0024622529971 0.0024368011016 0.0024117179736 
0.0023869990417 0.0023626332891 0.0023386211699 0.0023149551517 0.0040419903024 0.003993157633 0.0039450444009 0.0038976431554 0.0038509471524 
0.0038049318563 0.0037595956832 0.003714929333 0.0036709177107 0.0036275524171 0.0035848300442 0.0035427381196 0.003501262893 0.0034609711101 
0.00342070947 0.0033810389005 0.0033419616282 0.0033034608317 0.0032655296288 0.0032281629568 0.0031913550664 0.0031550889656 0.0031193573216 
0.0030841542624 0.0030494719798 0.0030153004846 0.0029816347282 0.0029484625065 0.0029157045562 0.0028835034275 0.0028517780577 0.002820519932 
0.002789722827 0.0027593795062 0.002729484731 0.0027000335916 0.0026710151176 0.0026424273463 0.0026142647352 0.0025865157164 0.0025591767216 
0.0025322401134 0.0025056947041 0.0024795412664 0.0024537653118 0.0024283644368 0.0024033309404 0.0023786621996 0.0023543514798 0.0023303959411 
0.0040853471555 0.0040355646105 0.003986528495 0.0039382310735 0.0038906616797 0.0038437950234 0.0037976281685 0.0037521528134 0.0037073503917 
0.0036632177697 0.003619737132 0.0035769134662 0.0035347259733 0.0034931691146 0.0034527954986 0.0034124655953 0.0033727370001 0.0033336084032 
0.0032950690912 0.003257106734 0.0032197160851 0.0031828875958 0.0031466059454 0.0031108651232 0.0030756536838 0.003040966897 0.0030067987808 
0.0029731360332 0.0029399670916 0.002907220842 0.0028750291265 0.0028433188545 0.0028120809432 0.0027813057702 0.0027509847588 0.0027211190991 
0.0026916950967 0.002662711753 0.0026341563417 0.0026060305672 0.0025783213494 0.0025510224223 0.0025241256488 0.0024976221236 0.0024715125454 
0.0024457818914 0.0024204278799 0.0023954450249 0.0023708245138 0.00234656698 0.0041304516891 0.004079688295 0.0040296989184 0.0039804678671 
0.0039319891708 0.0038842444977 0.0038372172944 0.0037909003019 0.0037452794729 0.0037003455139 0.0036560907504 0.0036124989333 0.0035695697556 
0.0035272874946 0.003486214989 0.0034451935387 0.0034048005018 0.0033650174476 0.0033258434655 0.0032872641885 0.003249271429 0.0032118533182 
0.0031749999386 0.0031387018525 0.0031029431445 0.0030677244782 0.0030330295547 0.0029988524825 0.0029651853747 0.0029319443473 0.0028992723973 
0.0028670897266 0.0028353899194 0.0028041652058 0.0027734062115 0.0027431077025 0.0027132655079 0.0026838739255 0.0026549166517 0.0026263982897 
0.0025983066371 0.0025706334372 0.0025433707304 0.00251650981 0.002490052106 0.0024639829498 0.0024382959086 0.0024129889232 0.0023880532333 
0.002363485573 0.0041773436802 0.0041255542654 0.0040745750086 0.004024379224 0.0039749598228 0.0039262970601 0.0038783825893 0.0038311963112 
0.0037847254434 0.0037389641184 0.0036938975714 0.0036495160474 0.0036058128849 0.0035627784399 0.0035204070209 0.0034792488336 0.0034381564466 
0.003397698465 0.0033578640922 0.0033186447506 0.0032800272283 0.0032420016203 0.0032045553224 0.0031676786964 0.0031313585599 0.0030955795331 
0.0030603398321 0.0030256301098 0.0029914382253 0.0029577644978 0.0029245171049 0.0028918443895 0.0028596674624 0.0028279730195 0.0027967585348 
0.0027660138316 0.0027357396124 0.0027059228415 0.0026765571829 0.0026476287614 0.0026191399275 0.0025910835006 0.0025634427964 0.0025362162752 
0.0025093938258 0.0024829730544 0.002456944059 0.0024313027325 0.0024060403096 0.0023811542548 0.0042260429684 0.0041732059854 0.0041211954044 
0.0040699996585 0.0040196056657 0.0039699928834 0.0039211475835 0.0038730594649 0.0038257084772 0.0037790863875 0.0037331832996 0.0036879831871 
0.0036434786096 0.0035996642434 0.003556527378 0.0035140645031 0.0034728233018 0.0034316654046 0.0033911483496 0.0033512676085 0.003312002873 
0.0032733493213 0.0032352877474 0.0031978102879 0.0031609019427 0.003124548357 0.0030887451129 0.0030534802221 0.0030187472341 0.0029845408103 
0.0029508530925 0.0029175967416 0.0028849220238 0.0028527459563 0.0028210595991 0.0027898531026 0.0027591309907 0.002728875655 0.0026990818494 
0.0026697410307 0.0026408402496 0.0026123797687 0.002584350175 0.0025567430803 0.0025295489681 0.0025027615802 0.0024763825171 0.002450394741 
0.0024247977746 0.0023995823476 0.0042765877914 0.0042226608829 0.0041695947311 0.0041173574556 0.0040659530237 0.0040153532478 0.0039655485902 
0.0039165203375 0.0038682552715 0.0038207412449 0.0037739628436 0.0037279152364 0.0036825781082 0.003637955061 0.003594031233 0.0035507937242 
0.0035088114564 0.0034669343564 0.0034257091246 0.0033851415483 0.003345210833 0.0033059007889 0.0032672034795 0.0032291063331 0.003191590631 
0.0031546435815 0.0031182530024 0.0030824153503 0.0030471224278 0.0030123647264 0.0029781391512 0.0029444351347 0.0029111709038 0.0028784928659 
0.0028463164422 0.0028146363993 0.0027834471511 0.0027527406239 0.0027225050522 0.0026927317205 0.0026634152665 0.0026345377439 0.0026061041748 
0.0025781025758 0.0025505279664 0.0025233655112 0.0024966185283 0.0024702765964 0.0024443291661 0.0024187752159 0.004328992035 0.004273935663 
0.0042197718683 0.0041664702858 0.0041140145652 0.0040623946527 0.0040115936428 0.0039615896975 0.0039123739781 0.0038639325638 0.0038162556892 
0.0037693219359 0.0037231259181 0.0036776640437 0.0036329228147 0.003588887868 0.0035455611458 0.0035034995987 0.00346155278 0.0034202727454 
0.0033796512309 0.003339670696 0.0033003142309 0.003261572117 0.0032234263385 0.0031858636989 0.0031488716623 0.0031124390878 0.0030765634471 
0.0030412385354 0.0030064543708 0.0029722078316 0.0029384096197 0.0029052161438 0.0028725378341 0.0028403662739 0.0028086974779 0.0027775237226 
0.0027468330492 0.0027166144692 0.0026868642214 0.0026575634874 0.0026287131071 0.0026003046578 0.0025723309019 0.0025447838965 0.002517656593 
0.0024909479263 0.0024646430382 0.0024387414735 0.0043832635924 0.0043270459188 0.0042717379535 0.0042173282855 0.0041637897372 0.0041111075079 
0.0040592734904 0.0040082650544 0.0039580677633 0.0039086649316 0.0038600459118 0.0038122023749 0.0037651123028 0.0037187814137 0.0036731897117 
0.0036283354427 0.0035842119458 0.0035413761725 0.0034986712809 0.0034566586722 0.0034153231193 0.0033746496269 0.0033346126002 0.0032952047895 
0.0032564046855 0.00321820998 0.0031805938844 0.0031435483788 0.0031070715084 0.0030711563332 0.0030357959252 0.0030009849791 0.0029667221696 
0.0029329120488 0.002899712957 0.0028670389065 0.0028348767697 0.002803224184 0.0027720650839 0.0027413872786 0.0027111870325 0.0026814520272 
0.0026521712142 0.0026233438264 0.0025949612717 0.0025670148055 0.0025394990542 0.0025124082769 0.0024857380578 0.0024594769514 0.00443937847 
0.0043819599355 0.0043254761909 0.0042699165818 0.0042152606127 0.0041614798261 0.0041085751896 0.004056523063 0.0040053043753 0.0039549079788 
0.0039053216861 0.003856528721 0.0038085161333 0.0037612823487 0.0037148181658 0.0036691176679 0.0036241661221 0.003579959109 0.0035370469851 
0.0034942765859 0.0034522013355 0.0034108106289 0.0033700739801 0.0033299799077 0.00329051301 0.0032516526095 0.0032133923014 0.0031757194438 
0.0031386209874 0.0031020984168 0.0030661443292 0.0030307538198 0.0029959267417 0.0029616501189 0.0029278317695 0.0028946374741 0.002861971199 
0.0028298218424 0.0027981807833 0.0027670352309 0.0027363714375 0.0027061849628 0.0026764672417 0.0026472074928 0.0026184027899 0.0025900429232 
0.0025621265984 0.0025346450522 0.0025075947167 0.0024809674163 0.0044972605198 0.0044386023883 0.0043809080515 0.0043241671796 0.0042683535072 
0.0042134450889 0.0041594324167 0.0041062994169 0.0040540296366 0.0040026113749 0.0039520208013 0.0039022493626 0.0038532844627 0.0038051217423 
0.0037577593618 0.0037111799062 0.003665379694 0.0036203384994 0.0035766241001 0.0035330747692 0.0034902425216 0.0034481055543 0.0034066507974 
0.0033658506057 0.0033256921149 0.0032861554483 0.0032472272922 0.0032089046144 0.0031711703557 0.0031340202637 0.003097456393 0.0030614709422 
0.0030260607846 0.0029912205466 0.002956854156 0.0029231243703 0.0028899377919 0.0028572828567 0.0028251468448 0.0027935164749 0.002762382357 
0.0027317341389 0.0027015643574 0.0026718608056 0.0026426206293 0.0026138378644 0.0025855103397 0.00255762931 0.002530189175 0.002503183266 
0.0045568072275 0.0044968633293 0.004437922554 0.0043799667645 0.0043229586904 0.0042668917127 0.0042117439908 0.004157499656 0.0041041470579 
0.0040516652768 0.0040000440274 0.0039492706736 0.0038993214344 0.0038502055978 0.0038019079945 0.0037544302912 0.0037077491815 0.0036618593867 
0.0036167487796 0.0035729680321 0.0035293542903 0.003486455672 0.0034442547148 0.0034027337044 0.0033618623546 0.0033216340415 0.0032820256986 
0.0032430306437 0.0032046409124 0.0031668526352 0.0031296583254 0.0030930621911 0.0030570621734 0.0030216444747 0.0029868028874 0.0029524372071 
0.0029187197513 0.0028855470487 0.0028529049777 0.0028207791128 0.00278916231 0.002758041479 0.0027274067869 0.002697250904 0.0026675681609 
0.0026383497937 0.0026095994782 0.0025813071229 0.0025534673001 0.0025260748325 0.0046177905229 0.0045565670797 0.0044963390156 0.0044371347871 