# vtk DataFile Version 5.1
vtk output
ASCII
DATASET STRUCTURED_POINTS
DIMENSIONS 50 50 50
SPACING 0.002 0.002 0.002
ORIGIN 0.1742 -0.052672 0.02732
POINT_DATA 125000
FIELD FieldData 1
potential 1 125000 double
<<<<<<< HEAD
0.00040837896703 0.00040654799277 0.0004047260047 0.00040291288098 0.00040110926714 0.00039931477868 0.0003975297377 0.00039575399295 0.000393987897 
0.00039223098297 0.00039048336463 0.00038874547414 0.00038701715103 0.00038529963673 0.00038359304741 0.00038189846516 0.00038021572662 0.00037854579707 
0.00037688891511 0.00037524544699 0.00037361461758 0.00037199628405 0.00037038963665 0.00036879549393 0.00036721321915 0.000365642797 0.00036408591192 
0.00036254328425 0.00036101602467 0.00035950557322 0.00035801259015 0.00035653949815 0.00035508594151 0.00035365174065 0.00035223734681 0.00035084105369 
0.00034946192112 0.00034809809427 0.00034674801441 0.00034541027069 0.00034408339609 0.00034276623013 0.00034145853366 0.00034016057967 0.00033887253743 
0.00033759494969 0.00033632852298 0.00033507387361 0.00033383124771 0.00033260123856 0.00041023560846 0.00040839466212 0.00040656223757 0.00040473878133 
0.00040292490937 0.00040112006353 0.00039932426427 0.00039753814149 0.00039576105558 0.00039399310597 0.00039223385251 0.0003904839101 0.00038874364217 
0.00038701346394 0.0003852940676 0.00038358598244 0.00038188974325 0.00038020548053 0.00037853425262 0.00037687557727 0.00037522928136 0.00037359524237 
0.00037197322747 0.00037036307116 0.00036876569242 0.0003671808487 0.00036560898003 0.00036405224202 0.00036251132064 0.00036098800122 0.00035948241931 
0.00035799736552 0.00035653228032 0.00035508750486 0.00035366204871 0.00035225603734 0.00035086750611 0.00034949475781 0.00034813617436 0.00034679035942 
0.00034545582575 0.00034413155409 0.00034281733404 0.00034151268057 0.0003402184185 0.00033893473711 0.00033766253882 0.00033640218057 0.00033515401998 
0.00033391871871 0.00041192367992 0.0004100742521 0.00040823295686 0.00040640073587 0.00040457756126 0.00040276384092 0.00040095943563 0.00039916352045 
0.00039737690932 0.00039559917909 0.000393829713 0.00039206923333 0.00039031795492 0.00038857644826 0.00038684496724 0.00038512463508 0.00038341560818 
0.00038171804652 0.00038003274627 0.0003783597157 0.00037669892193 0.00037504991095 0.00037341311309 0.00037178797068 0.00037017564784 0.00036857637049 
0.00036699103587 0.00036542124094 0.00036386804255 0.00036233278248 0.00036081604411 0.00035932000685 0.00035784464036 0.00035638994841 0.00035495533036 
0.00035354032751 0.00035214335227 0.00035076262281 0.00034939682385 0.00034804384951 0.00034670281554 0.00034537253128 0.00034405228274 0.0003427423349 
0.00034144263163 0.00034015387363 0.00033887632554 0.00033761104838 0.00033635791308 0.00033511759363 0.00041340760133 0.00041155075805 0.0004097024368 
0.00040786282646 0.00040603255139 0.00040421138832 0.00040239888592 0.00040059520779 0.00039880047405 0.00039701425598 0.00039523606534 0.00039346633787 
0.0003917057025 0.00038995392995 0.00038821204843 0.00038648078212 0.0003847596545 0.0003830498691 0.00038135149531 0.00037966476513 0.00037799052704 
0.00037632772036 0.00037467641011 0.00037303746006 0.00037141140125 0.00036979923754 0.00036820175102 0.00036661998938 0.00036505544992 0.0003635087634 
0.00036198266119 0.0003604772352 0.0003589931105 0.00035752989786 0.00035608757465 0.00035466461567 0.00035326051066 0.00035187316354 0.00035050111658 
0.00034914245043 0.00034779595993 0.00034646056154 0.00034513569238 0.00034382103202 0.00034251698697 0.00034122365297 0.00033994174835 0.00033867183198 
0.00033741451397 0.00033616997797 0.00041465967259 0.00041279691101 0.00041094290954 0.0004090977523 0.00040726138897 0.00040543382658 0.0004036155016 
0.00040180542675 0.00040000402415 0.00039821070743 0.00039642522216 0.00039464776264 0.0003928786567 0.00039111835615 0.00038936724111 0.00038762595938 
0.00038589457614 0.00038417393993 0.00038246379853 0.00038076485557 0.00037907775107 0.0003774016771 0.00037573809847 0.00037408657599 0.00037244857651 
0.00037082454273 0.00036921605865 0.00036762380854 0.00036604947504 0.0003644938232 0.00036295914325 0.00036144557184 0.00035995376882 0.00035848376485 
0.00035703491846 0.00035560607139 0.00035419589665 0.00035280362114 0.00035142641624 0.00035006321842 0.00034871255953 0.00034737319237 0.00034604465084 
0.00034472644931 0.00034341854097 0.00034212164059 0.00034083598778 0.00033956223996 0.00033830104026 0.00033705246174 0.00041566230235 0.00041379480411 
0.00041193655369 0.00041008677109 0.00040824603866 0.00040641372296 0.00040459050671 0.00040277560876 0.00040096875737 0.00039917029935 0.00039737851162 
0.00039559496605 0.00039381922004 0.00039205159686 0.00039029254857 0.00038854291193 0.00038680240416 0.00038507154273 0.00038335128778 0.00038164156848 
0.00037994299393 0.00037825587947 0.00037658098136 0.00037491920024 0.00037327070637 0.00037163664352 0.00037001844112 0.00036841745002 0.00036683433172 
0.00036527172814 0.00036372999113 0.00036221019253 0.00036071244442 0.00035923708471 0.00035778305448 0.0003563493939 0.00035493521924 0.00035353867962 
0.00035215791733 0.00035079145084 0.00034943762537 0.00034809580272 0.00034676421436 0.00034544319334 0.00034413242524 0.00034283247393 0.00034154369349 
0.00034026640963 0.00033900165545 0.00033774968397 0.0004164085108 0.00041453780195 0.00041267605552 0.0004108230531 0.00040897885504 0.00040714351742 
0.00040531700557 0.00040349837688 0.00040168765728 0.00039988448449 0.00039808852445 0.00039629980114 0.00039451835606 0.00039274524067 0.0003909800154 
0.00038922290772 0.00038747454931 0.0003857355196 0.00038400639119 0.00038228750713 0.0003805798523 0.00037888320599 0.00037719931015 0.00037552829838 
0.00037387117744 0.0003722290012 0.00037060304135 0.00036899490364 0.00036740539028 0.00036583686727 0.00036428995832 0.00036276545557 0.00036126363922 
0.00035978431969 0.00035832660124 0.00035689023766 0.00035547285041 0.0003540734939 0.00035269028136 0.00035132162201 0.00034996572529 0.00034862170222 
0.00034728815685 0.00034596495082 0.00034465193618 0.00034334953123 0.00034205808063 0.00034077793563 0.0003395101798 0.00033825480692 0.00041690371683 
0.00041503071096 0.00041316653544 0.00041131151714 0.00040946525478 0.00040762747065 0.0004057984439 0.00040397772925 0.00040216404546 0.00040035783566 
0.00039855861761 0.00039676580448 0.00039498016692 0.00039320212802 0.00039143172541 0.00038966870457 0.00038791428166 0.00038616882823 0.00038443286809 
0.00038270694789 0.00038099128173 0.0003792876735 0.00037759649794 0.00037591812194 0.00037425439724 0.00037260605345 0.00037097445951 0.00036936031673 
0.00036776681375 0.00036619436015 0.0003646441564 0.0003631166124 0.00036161207985 0.00036013022547 0.00035867104152 0.00035723256788 0.00035581336081 
0.00035441252226 0.0003530278514 0.00035165768788 0.00035030053221 0.00034895497789 0.0003476199314 0.00034629503415 0.0003449802055 0.00034367591062 
0.00034238204715 0.0003410994128 0.00033982899318 0.00033857085488 0.00041716532836 0.00041528880786 0.00041342335885 0.0004115666264 0.00040971914431 
0.00040788040278 0.0004060497318 0.000404227381 0.00040241222844 0.00040060379634 0.00039880237407 0.00039700704728 0.00039521854692 0.0003934366996 
0.00039166246794 0.00038989550635 0.00038813616224 0.00038638578988 0.0003846448217 0.00038291324722 0.0003811925483 0.00037948316294 0.00037778660889 
0.000376103459 0.00037443484001 0.00037278244602 0.00037114730171 0.00036953014442 0.00036793367585 0.00036635905516 0.00036480705536 0.00036327814476 
0.00036177239681 0.00036028968928 0.00035882953421 0.00035739038575 0.00035597068972 0.00035456908301 0.0003531840372 0.00035181289822 0.00035045488274 
0.00034910843011 0.00034777266837 0.00034644645497 0.00034513008276 0.00034382375286 0.00034252810854 0.0003412428913 0.00033996975316 0.00033870873905 
0.00041721636649 0.00041533875389 0.00041347223261 0.0004116148678 0.0004097666656 0.00040792738022 0.00040609612858 0.00040427211899 0.00040245596989 
0.00040064626515 0.00039884333711 0.00039704634911 0.00039525583325 0.00039347166732 0.00039169460983 0.0003899245259 0.00038816257108 0.00038640900318 
0.00038466410236 0.00038292948203 0.00038120555744 0.00037949353204 0.00037779397146 0.00037610810328 0.00037443720267 0.0003727825842 0.00037114566889 
0.00036952722207 0.0003679302242 0.00036635431709 0.00036480188199 0.00036327301255 0.00036176742673 0.0003602853678 0.00035882526098 0.00035738635903 
0.00035596687821 0.0003545650503 0.00035317964803 0.00035180844619 0.00035045026433 0.00034910316426 0.00034776664226 0.00034643960561 0.00034512183482 
0.0003438136301 0.00034251584624 0.00034122869743 0.00033995323212 0.00033868968491 0.00041709203874 0.00041521571511 0.0004133472484 0.00041148951535 
0.00040964097332 0.00040780089393 0.00040596875012 0.00040414457555 0.00040232780863 0.00040051723544 0.00039871297388 0.00039691503422 0.00039512346529 
0.00039333852058 0.00039155989416 0.00038978856079 0.00038802508028 0.00038626944784 0.00038452324385 0.00038278711852 0.00038106175656 0.00037934808949 
0.0003776473817 0.0003759609321 0.00037428956201 0.00037263484509 0.00037099761225 0.00036938064389 0.00036778452316 0.00036621058499 0.00036465924467 
0.00036313163291 0.00036162766171 0.00036014642573 0.00035868739625 0.00035724928914 0.00035583044476 0.00035442911693 0.00035304382318 0.00035167273253 
0.00035031409606 0.00034896645381 0.00034762884558 0.0003463006816 0.00034498146604 0.00034367169215 0.00034237201106 0.00034108272082 0.00033980496455 
0.00033853888185 0.00041683272953 0.00041495609838 0.00041308890153 0.00041122880605 0.00040937983801 0.00040753939756 0.00040570709088 0.00040388244136 
0.00040206477381 0.00040025373582 0.00039844898039 0.00039665066647 0.00039485880825 0.00039307325671 0.00039129456641 0.00038952288379 0.0003877587641 
0.00038600348142 0.00038425759278 0.00038252145172 0.00038079631003 0.00037908317657 0.00037738318768 0.00037569765339 0.00037402778948 0.00037237517126 
0.00037073990372 0.00036912518394 0.00036753139716 0.00036595995017 0.00036441140865 0.00036288663755 0.00036138432451 0.00035990508039 0.00035844793851 
0.00035701125587 0.0003555935681 0.00035419285848 0.00035280798286 0.00035143690504 0.00035007761336 0.0003487293141 0.00034739045021 0.00034606117224 
0.00034474040323 0.00034342893327 0.00034212724736 0.00034083573557 0.0003395556218 0.00033828713723 0.00041647879709 0.00041460194776 0.00041273440466 
0.00041087621681 0.00040902432266 0.00040718343937 0.00040535095745 0.00040352569942 0.00040170749609 0.00039989604553 0.00039809104369 0.00039629235608 
0.00039450071221 0.00039271580961 0.00039093749539 0.00038916644825 0.00038740361913 0.00038564946583 0.00038390467914 0.00038217027448 0.00038044703435 
0.00037873622515 0.00037703889683 0.00037535611911 0.00037368922309 0.00037203874038 0.00037040801486 0.00036879685525 0.00036720691584 0.00036563917696 
0.00036409384607 0.00036257214406 0.0003610729509 0.00035959618338 0.00035814119411 0.00035670602859 0.00035528918935 0.00035388908122 0.00035250443385 
0.00035113321594 0.00034977354514 0.00034842431227 0.00034708493073 0.00034575411382 0.0003444318826 0.00034311869309 0.00034181486618 0.00034052099335 
0.00033923831763 0.00033796724055 0.00041607285249 0.000414195295 0.00041232698967 0.00041046796744 0.00040861564372 0.00040677378232 0.00040494035197 
0.00040311461398 0.00040129557937 0.00039948354483 0.00039767843665 0.00039588027078 0.00039408910575 0.00039230505264 0.00039052760378 0.00038875852781 
0.00038699782731 0.00038524577133 0.00038350344392 0.00038177194255 0.00038005183473 0.00037834481896 0.00037665111157 0.00037497239226 0.00037330985685 
0.00037166383545 0.0003700374505 0.00036843073476 0.00036684502103 0.00036528173269 0.00036374118751 0.00036222322223 0.00036072731568 0.00035925332632 
0.00035780002747 0.00035636651655 0.00035495075221 0.00035355129397 0.00035216659747 0.00035079489656 0.00034943442025 0.00034808426812 0.00034674331083 
0.00034541111165 0.00034408721134 0.00034277197406 0.00034146645612 0.00034017063017 0.00033888558599 0.00033761174317 0.00041565239682 0.0004137737467 
0.00041190447105 0.00041004460278 0.00040819319488 0.00040634807262 0.00040451321901 0.00040268665243 0.00040086708728 0.00039905444588 0.00039724938798 
0.00039545133896 0.00039366117813 0.00039187782668 0.00039010246308 0.00038833573099 0.00038657750392 0.00038482894587 0.00038308988511 0.00038136212729 
0.00037964609043 0.00037794326176 0.00037625418579 0.00037458030821 0.0003729219734 0.00037128213386 0.000369661053 0.00036805981793 0.00036647929036 
0.00036492114199 0.00036338461985 0.00036187024074 0.00036037797509 0.00035890700951 0.00035745577682 0.00035602343212 0.00035460851035 0.00035320942046 
0.00035182432373 0.00035045183897 0.00034909037753 0.00034773874671 0.00034639645838 0.00034506231982 0.0003437366502 0.00034241970933 0.00034111201477 
0.00033981407097 0.00033852644652 0.00033724960594 0.00041525226861 0.00041337194804 0.00041150096504 0.00040963949843 0.00040778648319 0.00040594226916 
0.00040410390101 0.00040227574032 0.00040045495111 0.00039864207756 0.00039683675047 0.00039503912254 0.00039324942916 0.00039146817011 0.00038969510549 
0.00038793077922 0.00038617566615 0.00038443044701 0.00038269572944 0.00038097171486 0.00037926050455 0.00037756247452 0.00037587868071 0.00037421019391 
0.00037255765323 0.00037092362281 0.00036930820033 0.00036771255135 0.00036613744451 0.00036458347472 0.00036305144634 0.0003615409589 0.00036005212675 
0.00035858385744 0.00035713450537 0.00035570321319 0.00035428905413 0.00035288968053 0.00035150410387 0.00035013058477 0.00034876778115 0.00034741458866 
0.00034607044855 0.00034473439108 0.00034340673712 0.00034208780879 0.00034077808243 0.00033947762195 0.00033818744077 0.00033690767924 0.00041490018567 
0.00041301784384 0.00041114481603 0.00040928123834 0.00040742630979 0.00040558008861 0.00040374177424 0.00040191008316 0.00040008853245 0.0003982750872 
0.00039646964171 0.00039467198663 0.0003928833252 0.00039110334335 0.00038933237419 0.00038757048792 0.00038581879294 0.00038407734111 0.00038234674321 
0.00038062780133 0.00037892118053 0.0003772284963 0.00037555038882 0.00037388692886 0.00037224079996 0.00037061212386 0.00036900239386 0.00036741209466 
0.00036584244893 0.00036429328829 0.00036276526812 0.00036125830269 0.00035977205152 0.00035830597535 0.00035685828326 0.00035542802943 0.00035401400991 
0.00035261436494 0.00035122760865 0.00034985287306 0.00034848857711 0.00034713333173 0.00034578739075 0.00034444946939 0.00034311982007 0.00034179863134 
0.00034048636227 0.00033918342023 0.00033789043575 0.00033660701478 0.00041461890021 0.00041273391502 0.00041085845098 0.00040899239064 0.00040713518374 
0.00040528645458 0.00040344661888 0.00040161292018 0.00039978988145 0.00039797523858 0.00039616904407 0.00039437181122 0.00039258434769 0.00039080585846 
0.00038903649425 0.00038727751579 0.00038552916357 0.00038379160057 0.00038206521475 0.00038035097601 0.00037864943669 0.00037696199663 0.0003752890703 
0.00037363108399 0.00037199043326 0.00037036765831 0.00036876305851 0.00036717826924 0.00036561279179 0.00036406796426 0.00036254372272 0.00036104003918 
0.00035955625499 0.00035809143321 0.00035664488911 0.00035521534415 0.00035380073637 0.00035240043222 0.00035101267385 0.00034963614639 0.00034826985225 
0.00034691298632 0.00034556458255 0.00034422458429 0.00034289318287 0.00034156936216 0.00034025457273 0.0003389489142 0.00033765232441 0.00033636629904 
0.00041442421138 0.00041253643002 0.00041065818576 0.00040878925965 0.0004069293752 0.00040507818105 0.00040323592175 0.00040140243732 0.00039957577269 
0.00039775971684 0.00039595318072 0.0003941561129 0.00039236940759 0.00039059248895 0.00038882577369 0.00038706929988 0.00038532387474 0.00038358985303 
0.00038186743518 0.00038015758003 0.00037846108051 0.00037677826299 0.00037510999763 0.00037345787342 0.00037182239419 0.00037020438136 0.00036860489356 
0.00036702421072 0.00036546285344 0.00036392159504 0.00036240064465 0.00036089895282 0.00035941722586 0.00035795367534 0.00035650742871 0.00035507779094 
0.00035366297099 0.00035226121474 0.00035087180108 0.0003494935514 0.00034812541579 0.00034676616345 0.00034541566344 0.0003440733645 0.00034273946177 
0.00034141336163 0.00034009555625 0.00033878687668 0.00033748730548 0.00033619779958 0.00041432796918 0.00041243687601 0.00041055516563 0.00040868333713 
0.00040682044868 0.00040496702761 0.00040312204363 0.00040128649505 0.00039945981962 0.00039764114947 0.0003958343078 0.00039403735424 0.00039225097941 
0.00039047574138 0.00038871036138 0.00038695646329 0.00038521397893 0.00038348319661 0.0003817648035 0.00038005913729 0.00037836693145 0.00037668893042 
0.00037502477971 0.0003733774754 0.00037174651756 0.00037013304865 0.000368537566 0.00036696062493 0.00036540278935 0.00036386427141 0.00036234535243 
0.00036084578952 0.00035936480019 0.00035790191602 0.00035645570566 0.00035502515979 0.00035360933867 0.00035220620953 0.00035081510281 0.00034943476755 
0.00034806430983 0.00034670270861 0.00034534982643 0.00034400481065 0.00034266812298 0.00034133926669 0.00034001865905 0.00033870638406 0.00033740397128 
0.00033611063966 0.00041433757766 0.00041244258807 0.00041055766041 0.0004086821005 0.0004068163991 0.00040495996052 0.00040311267484 0.00040127447958 
0.00039944675798 0.00039762721524 0.0003958196628 0.00039402280596 0.00039223695285 0.00039046250013 0.00038869935276 0.00038694711822 0.00038520732312 
0.00038347965032 0.00038176442092 0.00038006241148 0.00037837430885 0.00037669963752 0.00037504079252 0.00037339710171 0.00037177001651 0.00037016040971 
0.00036856812647 0.00036699419757 0.0003654389459 0.00036390268254 0.00036238537583 0.00036088704463 0.00035940610545 0.00035794305229 0.00035649608144 
0.00035506458182 0.00035364693097 0.00035224192112 0.00035084889599 0.00034946621322 0.00034809295947 0.00034672888776 0.00034537342166 0.00034402545002 
0.00034268553836 0.00034135384352 0.0003400300356 0.00033871466764 0.00033740833129 0.00033611113448 0.00041445698155 0.00041255819656 0.00041066964191 
0.00040879043603 0.00040692156394 0.00040506204418 0.00040321155022 0.00040137176274 0.00039954233913 0.00039772362548 0.00039591353406 0.00039411658238 
0.00039233102426 0.00039055732033 0.00038879567998 0.00038704555908 0.00038530793539 0.00038358281748 0.00038187069132 0.00038017198688 0.00037848720043 
0.000376816104 0.00037516069869 0.00037352094763 0.00037189714434 0.00037029038997 0.0003687007022 0.00036712932244 0.00036557600774 0.0003640412092 
0.0003625250087 0.00036102647854 0.00035954541475 0.00035808133405 0.00035663314805 0.00035519973577 0.0003537801236 0.00035237272212 0.00035097717193 
0.00034959191192 0.00034821584815 0.0003468485225 0.00034548993856 0.0003441388937 0.00034279569145 0.00034146025268 0.00034013306598 0.0003388142133 
0.00033750378063 0.00033620247207 0.00041468830741 0.00041278517334 0.00041089250057 0.00040900966448 0.00040713719338 0.00040527417019 0.00040342187143 
0.00040157995902 0.00039974873848 0.00039792872861 0.00039611998478 0.00039432069993 0.00039253550017 0.0003907623586 0.00038900183304 0.00038725310113 
0.00038551750502 0.00038379470702 0.00038208546889 0.00038038938868 0.00037870681182 0.00037703962859 0.0003753875528 0.00037375068112 0.00037213025773 
0.00037052561575 0.00036893834573 0.00036736868534 0.00036581647405 0.00036428235028 0.00036276607494 0.00036126726535 0.00035978551816 0.00035831957754 
0.00035686953331 0.00035543380404 0.00035401153362 0.00035260138782 0.00035120258461 0.00034981396173 0.00034843479279 0.000347064207 0.00034570176955 
0.00034434707949 0.00034300005758 0.00034166144873 0.00034033003862 0.00033900698195 0.00033769272598 0.00033638713641 0.00041503160255 0.00041312404928 
0.00041122739471 0.00040934007536 0.00040746404993 0.00040559826305 0.00040374304833 0.00040189888873 0.00040006604113 0.00039824482301 0.00039643504876 
0.00039463551905 0.00039285054844 0.0003910777567 0.00038931787993 0.00038757068256 0.00038583677119 0.00038411613624 0.00038240919864 0.00038071588172 
0.0003790361369 0.00037737162529 0.00037572173669 0.00037408794468 0.00037246976707 0.00037086704263 0.0003692815424 0.00036771299692 0.00036616178058 
0.00036462786377 0.00036311061697 0.00036161102441 0.00036012752613 0.00035865952096 0.00035720662181 0.00035576797444 0.00035434246941 0.00035292891199 
0.00035152664299 0.00035013408854 0.00034875102872 0.00034737679618 0.00034601037569 0.00034465147379 0.00034330063385 0.00034195683536 0.00034062157476 
0.00033929445229 0.0003379758461 0.00033666578133 0.00041548775072 0.00041357555063 0.00041167365288 0.00040978272185 0.00040790287991 0.00040603361052 
0.00040417550201 0.00040232895102 0.00040049421663 0.00039867139302 0.00039686077149 0.00039506275235 0.00039327541872 0.00039150318599 0.00038974373716 
0.00038799780082 0.00038626532031 0.00038454652486 0.0003828416076 0.00038114997015 0.00037947352736 0.00037781096629 0.00037616420166 0.00037453226087 
0.00037291590032 0.00037131571627 0.00036973133686 0.00036816339842 0.00036661219261 0.00036507743608 0.00036355939414 0.0003620576747 0.00036057188746 
0.00035910120421 0.00035764506264 0.00035620286816 0.00035477336887 0.00035335579049 0.00035194913296 0.00035055217202 0.00034916484179 0.00034778582492 
0.00034641538233 0.00034505220108 0.0003436959239 0.00034234794411 0.00034100806089 0.00033967607161 0.00033835302561 0.00033703805917 0.00041605575869 
0.00041413830052 0.00041223194375 0.00041033630769 0.000408452388 0.00040657951832 0.00040471830915 0.00040286939958 0.00040103239441 0.00039920820034 
0.0003973964669 0.00039559770382 0.00039380951009 0.00039203743601 0.00039027885423 0.00038853362009 0.00038680262199 0.00038508539979 0.00038338141897 
0.0003816928009 0.0003800185443 0.00037835887995 0.0003767142898 0.00037508477411 0.00037347009082 0.00037187120882 0.00037028785854 0.00036872012796 
0.00036716841713 0.00036563255932 0.00036411291479 0.00036260927863 0.00036112067876 0.00035964675753 0.00035818665536 0.00035674020751 0.00035530612229 
0.00035388392962 0.00035247219873 0.00035107032127 0.00034967769007 0.00034829356981 0.00034691759615 0.00034554935841 0.00034418809866 0.00034283483034 
0.00034148978758 0.00034015262742 0.00033882420028 0.00033750436008 0.00041673602007 0.00041481347218 0.00041290166938 0.00041100134494 0.00040911310449 
0.00040723604453 0.00040537144811 0.00040351953977 0.00040168028076 0.00039985415093 0.00039804112632 0.00039624163778 0.00039445555843 0.00039268123589 
0.00039092299049 0.00038917842376 0.00038744858354 0.00038573269331 0.00038403052531 0.00038234377299 0.00038067191295 0.0003790147907 0.00037737202857 
0.00037574426445 0.00037413149246 0.00037253367096 0.00037095117457 0.00036938367899 0.00036783058764 0.00036629364829 0.00036477197568 0.00036326505627 
0.00036177285064 0.00036029486293 0.00035883047654 0.00035737924213 0.00035593984381 0.0003545118414 0.00035309481716 0.00035168717584 0.00035028861149 
0.00034889870506 0.0003475165708 0.00034614238083 0.00034477592386 0.00034341720774 0.00034206635457 0.00034072359258 0.00033938964419 0.0003380645794 
0.00041753054051 0.00041560170699 0.00041368432424 0.00041177882103 0.00040988582268 0.00040800471564 0.00040613647653 0.00040428137089 0.00040243930111 
0.00040061090817 0.00039879619705 0.00039699556025 0.00039520882167 0.00039343617788 0.00039167564139 0.00038993173314 0.00038820221574 0.00038648722717 
0.00038478750327 0.0003831025757 0.00038143248834 0.00037977759922 0.00037813690231 0.00037651082804 0.00037489917354 0.00037330213451 0.00037172013184 
0.00037015227815 0.00036859877667 0.00036705963267 0.00036553504256 0.00036402506511 0.00036252915759 0.00036104662567 0.00035957702495 0.00035812019025 
0.00035667473243 0.00035524091029 0.00035381683296 0.00035240293707 0.00035099792591 0.00034960128145 0.00034821287422 0.00034683190935 0.00034545939668 
0.00034409446784 0.0003427376977 0.0003413891964 0.00034004887016 0.00033871808514 0.00041844183005 0.00041650644914 0.00041458290314 0.00041267136857 
0.00041077284785 0.00040888730315 0.00040701478495 0.0004051558553 0.00040331070646 0.000401479521 0.00039966286994 0.00039786037624 0.0003960723653 
0.00039429902667 0.00039253820819 0.00039079426082 0.00038906562941 0.00038735134154 0.00038565323411 0.00038396989321 0.00038230185411 0.0003806483523 
0.00037900932651 0.00037738491682 0.00037577427798 0.00037417816889 0.00037259562771 0.00037102719418 0.00036947240276 0.00036793078239 0.00036640331775 
0.00036488938837 0.00036338892122 0.0003619013314 0.00036042608364 0.0003589627513 0.00035751084011 0.00035607013831 0.00035463901116 0.00035321789828 
0.00035180561893 0.00035040180013 0.00034900589786 0.00034761806747 0.00034623878911 0.00034486742349 0.00034350405527 0.00034214919197 0.00034080309089 
0.00033946586213 0.00041947338822 0.00041753000924 0.0004155995454 0.00041368146269 0.00041177691051 0.00040988578043 0.00040800866729 0.00040614556406 
0.00040429667328 0.00040246232111 0.00040064264452 0.00039883782516 0.00039704818981 0.00039527349798 0.00039351423709 0.00039176801339 0.00039003876193 
0.0003883257375 0.00038662841625 0.00038494670099 0.0003832798154 0.00038162791261 0.00037999047605 0.00037836723491 0.00037675784435 0.00037516151348 
0.00037357838879 0.00037200878952 0.00037045175312 0.00036890812485 0.00036737658392 0.00036585823546 0.00036435266059 0.00036285901874 0.00036137743843 
0.00035990711515 0.00035844836712 0.00035699993468 0.0003555614401 0.0003541319716 0.00035271157894 0.0003513003813 0.00034989673716 0.0003485014601 
0.0003471142602 0.00034573564044 0.00034436529107 0.00034300368057 0.00034165105768 0.00034030784547 0.00042062823379 0.00041867669398 0.00041673824414 
0.00041481299016 0.00041290153158 0.00041100419142 0.00040912126748 0.00040725324651 0.00040539976252 0.00040356143211 0.00040173854366 0.00039993077022 
0.00039813839507 0.00039636200472 0.00039460099085 0.0003928562182 0.00039112443504 0.00038941159608 0.00038771451924 0.00038603404929 0.0003843682335 
0.00038271762548 0.0003810811039 0.00037945852201 0.00037784935969 0.00037625265864 0.00037466885844 0.00037309710682 0.00037153770051 0.00036999046449 
0.00036845527211 0.0003669315517 0.00036542000106 0.00036392012187 0.00036243154614 0.00036095374082 0.00035948723351 0.00035803056445 0.00035658368265 
0.00035514607095 0.0003537169647 0.00035229643109 0.00035088467652 0.00034948121956 0.00034808601448 0.00034669934574 0.00034532176656 0.00034395316485 
0.00034259390109 0.00034124391668 0.00042191072601 0.00041994987422 0.00041800300448 0.00041606942752 0.00041415041445 0.0004122458906 0.00041035649902 
0.00040848235299 0.00040662360579 0.00040478037346 0.00040295276823 0.00040114142582 0.00039934556649 0.00039756613094 0.00039580328126 0.00039405583155 
0.00039232372184 0.00039061053719 0.00038891369848 0.00038723323633 0.000385568106 0.00038391771886 0.00038228164382 0.00038065937689 0.00037904976681 
0.000377452499 0.00037586669895 0.00037429259741 0.00037273004862 0.00037117855555 0.00036963845191 0.00036810942822 0.00036659139739 0.00036508426889 
0.00036358806061 0.00036210220739 0.00036062681614 0.00035916154434 0.00035770564369 0.00035625877073 0.00035482095374 0.00035339098025 0.00035197006636 
0.00035055777756 0.00034915444197 0.00034775934837 0.00034637391701 0.00034499784035 0.00034363096237 0.00034227420933 0.00042332382645 0.00042135272471 
0.00041939631828 0.00041745394478 0.00041552637408 0.00041361386949 0.0004117170366 0.00040983551765 0.00040797013333 0.00040612106692 0.00040428839951 
0.00040247183191 0.00040067175344 0.00039888855401 0.00039712160549 0.00039537234791 0.00039364014324 0.00039192330755 0.00039022602747 0.00038854477876 
0.00038687957845 0.00038522916824 0.00038359277133 0.00038196970827 0.00038035891503 0.00037875984535 0.00037717187733 0.0003755945031 0.00037402764891 
0.00037247166109 0.00037092580592 0.00036939030724 0.000367864868 0.00036635029845 0.0003648458363 0.00036335132241 0.00036186682849 0.00036039215336 
0.00035892691507 0.00035747032584 0.00035602298275 0.00035458349509 0.00035315296862 0.00035173124873 0.00035031851736 0.00034891501998 0.00034752093209 
0.00034613687979 0.00034476252159 0.00034339876736 0.00042486975913 0.00042288782428 0.00042092046291 0.00041896821954 0.00041703093518 0.00041510902485 
0.00041320356311 0.00041131417833 0.0004094414241 0.00040758515382 0.0004057456459 0.00040392320077 0.00040211746792 0.00040032935307 0.00039855788483 
0.00039680512895 0.00039507013488 0.00039335118958 0.00039165168292 0.00038996902531 0.00038830259742 0.0003866512544 0.00038501339798 0.00038338849444 
0.00038177548765 0.00038017433955 0.00037858309197 0.0003770014379 0.00037542964877 0.00037386761578 0.00037231513279 0.0003707723168 0.00036923965578 
0.00036771625196 0.00036620286942 0.00036469947921 0.00036320544705 0.0003617212618 0.00036024602968 0.00035877940059 0.0003573214563 0.00035587223777 
0.00035443151076 0.00035300002882 0.00035157791542 0.00035016524577 0.00034876234442 0.00034736971566 0.00034598775767 0.00034461648528 0.00042654871152 
0.00042455477883 0.00042257571205 0.00042061211505 0.00041866423537 0.00041673196981 0.00041481650662 0.00041291799999 0.00041103613136 0.00040917156102 
0.00040732432074 0.00040549449274 0.00040368202415 0.00040188671635 0.00040011041113 0.00039835288034 0.0003966141397 0.00039489354402 0.00039318885521 
0.00039150359337 0.00038983455302 0.0003881811748 0.00038654105154 0.00038491350811 0.00038329768741 0.0003816921596 0.00038009643325 0.00037850998049 
0.00037693213097 0.00037536334666 0.0003738035153 0.00037225271158 0.00037071165033 0.00036917980276 0.00036765674322 0.00036614369902 0.00036464002008 
0.00036314548098 0.00036165995629 0.00036018311243 0.0003587143566 0.00035725452424 0.00035580377503 0.00035436217876 0.00035293002336 0.0003515073071 