# vtk DataFile Version 5.1
vtk output
ASCII
DATASET STRUCTURED_POINTS
DIMENSIONS 50 50 50
SPACING 0.002 0.002 0.002
ORIGIN 0.1742 -0.052672 0.02732
POINT_DATA 125000
FIELD FieldData 1
potential 1 125000 double
<<<<<<< HEAD
0.043510569881 0.043045563626 0.042570071947 0.042084493687 0.041589326832 0.041084986908 0.040571956595 0.040050493451 0.039521437663 
0.038985109595 0.038441939878 0.037892827961 0.037338190244 0.03677870541 0.03621524172 0.035648246465 0.03507849028 0.034506615072 
0.033933465248 0.033359721279 0.032786067571 0.032212974865 0.031641137913 0.031071033215 0.030503204794 0.02993804995 0.029376828055 
0.028819251182 0.028266243227 0.027718293961 0.027175968255 0.026639825122 0.026110223263 0.02558760251 0.025072360889 0.024564591056 
0.024064985066 0.023573495356 0.023090171241 0.022615325044 0.022149018168 0.021691281094 0.021242208343 0.020801829616 0.020370187854 
0.019947378206 0.019533354772 0.019128242457 0.018731960154 0.018344463441 0.041999128263 0.041556690623 0.041104429651 0.040642732466 
0.040172051264 0.039692712053 0.039205210532 0.038709769706 0.038207172312 0.037697661787 0.037181845581 0.036660191614 0.036133345619 
0.035602040922 0.035066628422 0.034527872983 0.033986514524 0.033443000552 0.032898212576 0.032352799083 0.031807244892 0.031262163789 
0.030717978325 0.030175298539 0.029634765215 0.029096691059 0.028561704039 0.028030307513 0.027503024729 0.026980391427 0.026462910037 
0.025951126712 0.025445350464 0.024946054304 0.024453342596 0.023968021141 0.023489896728 0.023019443577 0.022556606594 0.022101638382 
0.021654570215 0.021215459399 0.020784413508 0.020361447155 0.01994666133 0.019540042491 0.01914174482 0.018751734474 0.018369997006 
0.017996516325 0.040559281172 0.040138247467 0.039707869653 0.03926861271 0.038820916472 0.038365084566 0.037901606861 0.037430651012 
0.036952720486 0.036468516623 0.035978115741 0.035482341517 0.034981757569 0.034476552727 0.03396746999 0.03345516843 0.032940257906 
0.032423509341 0.031905246665 0.031386214644 0.030866903017 0.030347856635 0.029829866613 0.029312711831 0.028797539393 0.028284683768 
0.027774529774 0.027267692525 0.026764601413 0.026265790512 0.025771750848 0.025282860164 0.024799601772 0.024322114923 0.02385102565 
0.023386705934 0.022929213267 0.022478637825 0.022035285269 0.021599183315 0.021170433196 0.020749115925 0.020335252184 0.019928947739 
0.019530265526 0.01913920698 0.018755922989 0.018380410646 0.018012644574 0.017652582321 0.039180794458 0.038780039602 0.038370459248 
0.037952520988 0.037526545013 0.037092993657 0.036651944821 0.036204085139 0.035749681076 0.035289130127 0.034822833926 0.034351538425 
0.033875320847 0.033394742666 0.032910442183 0.032423121132 0.03193316381 0.031441234536 0.030947850561 0.030453562131 0.029959198277 
0.029464677416 0.028970740801 0.028477756607 0.027986467693 0.027497314329 0.027010613852 0.026526910488 0.02604663811 0.02557030301 
0.025098389172 0.02463124597 0.024168959228 0.023712571705 0.023262104014 0.022817744312 0.022379655735 0.021948175622 0.021523357154 
0.021105267474 0.020694033121 0.020289694969 0.019892322608 0.019501982956 0.019118769824 0.018742625622 0.018373752598 0.018012182378 
0.017657875097 0.017310832168 0.037855753458 0.037474097241 0.037084253731 0.036686488079 0.036281214622 0.035868484108 0.035448966159 
0.035022907057 0.034590655215 0.034152500122 0.033709145191 0.033260488735 0.032807246583 0.032349961333 0.031889135338 0.031425277573 
0.030958874449 0.030490690533 0.030020762599 0.029549846126 0.029078469818 0.02860705432 0.028135961727 0.027665914326 0.027197332215 
0.026730486795 0.026265948564 0.025804141009 0.025345483287 0.024890321076 0.024439381273 0.023992709879 0.023551047869 0.023114585457 
0.022683598387 0.022258195293 0.021838832637 0.021425526069 0.021018404004 0.020617575058 0.020223135314 0.019835117399 0.019453590078 
0.019078586632 0.018710180907 0.018348534295 0.017993633257 0.01764549444 0.017304183513 0.016969871998 0.036576689536 0.036213291603 
0.035842149968 0.035463544396 0.035077808201 0.034685114493 0.034285933338 0.033880557816 0.033469436915 0.03305261094 0.032630487299 
0.032203580983 0.031772296423 0.031337109546 0.03089841352 0.030457032834 0.030012844955 0.029566638136 0.029118933326 0.028670157053 
0.028220788152 0.027771136213 0.02732195373 0.026873658374 0.0264264283 0.025980853133 0.025537183019 0.025096165333 0.024658139425 
0.024223437026 0.023792323827 0.023365522467 0.022943211742 0.022525765102 0.022113312703 0.021706247065 0.021304699653 0.020908821127 
0.02051867162 0.020134438605 0.019756132851 0.019383835657 0.019017565061 0.018657405361 0.018303364015 0.017955629021 0.017614180008 
0.017279260881 0.016950519935 0.016628172212 0.035338284839 0.034992309036 0.034638926623 0.034278680101 0.033911480995 0.033537876 
0.03315808944 0.032772572986 0.032381188925 0.031984516286 0.031582875387 0.031176613057 0.030766156699 0.030352176442 0.029934514657 
0.029513971495 0.029090935865 0.028665859199 0.028239218389 0.027811464594 0.02738290479 0.026954263315 0.026525729178 0.026097927475 
0.025671166432 0.025245830975 0.024822405815 0.024401312442 0.023982870852 0.023567412292 0.023155579634 0.022747662163 0.022343765711 
0.021944523144 0.021549942017 0.02116038523 0.020775966081 0.020396833506 0.020023085798 0.019654823264 0.019292071718 0.018934914387 
0.018583377353 0.018237526884 0.017897590022 0.017563289239 0.017234859872 0.016912342087 0.016595805545 0.016285257555 0.034136535419 
0.033807247657 0.033471084997 0.033128147588 0.03277874186 0.032423432768 0.03206210245 0.031695146314 0.031322725648 0.030945292259 
0.030563393596 0.030176788809 0.029786131204 0.029391808751 0.028994244484 0.028593797576 0.028190872349 0.027785724702 0.027379209974 
0.026971382557 0.026562929171 0.026154218446 0.025745728255 0.025337524922 0.024930295181 0.024524379899 0.02412015285 0.023717939606 
0.023318374918 0.022921564146 0.022528062553 0.022138008832 0.02175204685 0.021370233769 0.020992867496 0.02062014191 0.020252180595 
0.019889165717 0.019531182806 0.019178284634 0.018830536418 0.018487981947 0.018150911257 0.017818806074 0.017492109216 0.017170842096 
0.016855032168 0.016544744614 0.016240076401 0.01594100565 0.032969304488 0.032655947884 0.032335933804 0.03200951096 0.031677322574 
0.031339160282 0.030995378773 0.030646437737 0.030292210297 0.029933106914 0.029569487433 0.029201610576 0.028829871301 0.028454539018 
0.028076124343 0.027694841955 0.027311115153 0.026925417087 0.026537980625 0.026149457049 0.025760225276 0.025370633056 0.024980876741 
0.02459167133 0.024203148984 0.023815791172 0.023429946115 0.023046022621 0.02266441791 0.022285330265 0.021909445715 0.021536887235 
0.021167980349 0.020802963821 0.02044208267 0.020085534219 0.019733431246 0.019385931269 0.019043115973 0.018705034208 0.018372011677 
0.018043553136 0.017719974755 0.017401221773 0.017087511388 0.016778838476 0.016475269038 0.016177170368 0.015883977704 0.015596047072 
0.031835727641 0.031537378136 0.031233015833 0.03092254927 0.030606337609 0.030284937158 0.02995791189 0.029625660871 0.029288710504 
0.028946987133 0.028601079969 0.028251094506 0.027897345309 0.027540216279 0.027179946262 0.026817096558 0.026451772269 0.026084328943 
0.025715436438 0.025345324886 0.024974477862 0.024603077924 0.024231554325 0.02386034862 0.023489813795 0.02312030111 0.022752149054 
0.022385581885 0.022021325287 0.021659530007 0.021300515126 0.020944652465 0.02059214368 0.020243272271 0.019898245355 0.019557253892 
0.019220410417 0.018888112838 0.018559896386 0.018236084117 0.01791673617 0.017601857307 0.017291462036 0.016985676022 0.016684516203 
0.016388363255 0.016096632846 0.015809710735 0.015527687493 0.015250499566 0.030735256556 0.030451305076 0.030161863452 0.029866502874 
0.029565820306 0.029259767487 0.028948588789 0.028632711966 0.028312208335 0.027987293605 0.027658212202 0.027325247281 0.026988709224 
0.026648937045 0.02630614698 0.025960749513 0.025612875238 0.025263154906 0.024911887046 0.024559500587 0.024206134806 0.023852239597 
0.023498206292 0.023144360622 0.022791136092 0.022438758976 0.022087444604 0.02173792012 0.021390317394 0.021044989803 0.02070225453 
0.020362386907 0.0200256474 0.019692275963 0.019362482806 0.019036732274 0.018714544488 0.018396294293 0.018082111688 0.017772027312 
0.017466078191 0.017164301431 0.016867009169 0.016573679606 0.016284621366 0.01599992567 0.015719661056 0.015443881455 0.015172672285 
0.014905846157 0.029668872096 0.02939873021 0.029123138701 0.028842191543 0.02855610356 0.02826495295 0.02796903571 0.027668553543 
0.027363708251 0.027054666194 0.026741638069 0.026424924491 0.026104870621 0.025781590601 0.025455445024 0.025126610159 0.024795652552 
0.024462840858 0.024128580266 0.023792960683 0.023456444398 0.023119407809 0.022782133376 0.022445050246 0.022108187626 0.021772304425 
0.021437506667 0.021104158663 0.020772565149 0.020443050569 0.020115945457 0.019791459388 0.019470178733 0.019151688138 0.018836525986 
0.018524798131 0.018216657274 0.017912181174 0.017611476097 0.017314575361 0.017021841364 0.016732576414 0.016447293937 0.016165951239 
0.015888569862 0.015615247122 0.015346053506 0.0150810492 0.01482023148 0.014563760159 0.02863715762 0.028380255933 0.028118086539 
0.027850798079 0.027578587055 0.027301652405 0.027020192836 0.026734372715 0.026444481606 0.026150489213 0.025852728875 0.025551439323 
0.025246943935 0.024939315342 0.024629033544 0.02431630078 0.02400146605 0.023684901645 0.02336667964 0.023047278656 0.022726923872 
0.022405998248 0.022084706439 0.021763581675 0.021442828145 0.021122718774 0.020803614549 0.020485805562 0.020169575046 0.01985527929 
0.019543445597 0.019233707018 0.018926622292 0.018622406411 0.018321252802 0.018023269324 0.017728589346 0.017437640567 0.017149839863 
0.016865579465 0.016584868484 0.016307677488 0.016034206249 0.015764366325 0.015498228979 0.015235868889 0.014977350306 0.014722744013 
0.014471973714 0.014225428548 0.027641936694 0.02739742492 0.027147939942 0.026893718994 0.026634763435 0.026371226506 0.026103474343 
0.025831573127 0.025555661225 0.025275964855 0.024992719379 0.024706129236 0.024416362885 0.024123858569 0.023828683416 0.023531245667 
0.023231860897 0.022930676809 0.022627859959 0.022323702913 0.022018817251 0.021713417391 0.021407636107 0.021101844718 0.020796349906 
0.020491390432 0.020187310569 0.019884713247 0.019583216024 0.019283420881 0.018985601033 0.018689993507 0.018396801309 0.018106227173 
0.017818805177 0.017533964824 0.017252168869 0.016973489017 0.016698053007 0.016425872569 0.016156917016 0.015891382349 0.015629193874 
0.015370416698 0.015115074493 0.014863243756 0.014615091966 0.014370278328 0.014129423893 0.013892378794 0.026684199056 0.026451459155 
0.026214036133 0.025972031573 0.025725487411 0.02547477931 0.0252199591 0.024961225797 0.024698681441 0.024432526294 0.024162924141 
0.023890274129 0.023614729904 0.023336424201 0.023055698413 0.0227730206 0.022488114321 0.022201301682 0.02191325172 0.021624031947 
0.021333974217 0.021043257448 0.020752178345 0.020461046698 0.020170464723 0.019879988796 0.019590264945 0.019301565016 0.019014114709 
0.018728213577 0.018444067997 0.01816227473 0.017882340728 0.017604838361 0.01732984473 0.017057545841 0.016788028131 0.016521422686 
0.016257767881 0.015997136582 0.015739492672 0.015484992902 0.015233644707 0.01498544467 0.014740459511 0.014498821281 0.014260232974 
0.014025286608 0.013793829145 0.013565941079 0.025764717356 0.025543163136 0.025317109855 0.025086662795 0.024851997801 0.024613332275 
0.024370770057 0.024124441996 0.023874520907 0.023621141446 0.023364659674 0.023105195625 0.022843152926 0.022578409299 0.022311278552 
0.022042128785 0.021771096022 0.021498459027 0.021224499913 0.020949304311 0.020673241412 0.020396942383 0.020119867287 0.019842683817 
0.019565609468 0.019288937404 0.019012887175 0.018737738565 0.018464017035 0.018191336243 0.017920234922 0.017650957164 0.017383682362 
0.017118608249 0.016855811383 0.016595437021 0.016337671809 0.016082531171 0.015830118307 0.015580438117 0.015333646011 0.015089709133 
0.01484869921 0.014610706934 0.014375614009 0.014143504433 0.013914470041 0.013688771556 0.01346635201 0.013247218011 0.024884059475 
0.02467306409 0.024457707349 0.024238233331 0.024014787211 0.02378749988 0.023556460098 0.023321841829 0.023084086955 0.022842903673 
0.022598574937 0.02235155734 0.022102000166 0.021850177278 0.021596077627 0.021339971137 0.021082129201 0.020823216052 0.020562470027 
0.020300600247 0.020037869075 0.019774509129 0.019510755971 0.019246810668 0.018982937127 0.018719688407 0.018456663148 0.018194360559 
0.017933052336 0.017672930735 0.017414254033 0.017157190991 0.016901929953 0.016648639748 0.016397446308 0.01614849536 0.015901870452 
0.015657665143 0.015415979515 0.015176781786 0.014940278548 0.014706421303 0.014475360534 0.014246939579 0.014021229664 0.013798347819 
0.013578525307 0.01336166331 0.013147850855 0.012937122453 0.024042589019 0.023841434809 0.023636233083 0.023427193013 0.023214281308 
0.022997496133 0.022777388461 0.02255387857 0.022327159141 0.022097459697 0.021864875533 0.021629719881 0.0213922548 0.021152431324 
0.020910963718 0.020667241851 0.020421924262 0.020175052009 0.019926875967 0.019677636267 0.01942753907 0.019176802048 0.018925981289 
0.018674579106 0.018423196161 0.018172067301 0.017921324854 0.017671244029 0.017421986608 0.01717382192 0.016926916763 0.016681458123 
0.016437609909 0.016195527206 0.015955345676 0.01571720779 0.015481179513 0.015247388326 0.015015809339 0.014786656938 0.01456002535 
0.01433577772 0.014114025643 0.013894742139 0.01367807427 0.013464142761 0.013252960796 0.013044561011 0.01283898394 0.012636403131 
0.023239089063 0.023047378301 0.02285176276 0.022652401625 0.022449459451 0.022242983068 0.022033190766 0.021820153959 0.021604128677 
0.021385182616 0.021164188467 0.020940177267 0.020713905023 0.020485519956 0.020255284708 0.020023207087 0.019789572093 0.019554510278 
0.01931854962 0.0190812242 0.018843051748 0.018604258844 0.018364981707 0.01812545963 0.017885913345 0.017646483704 0.017407368568 
0.017168836257 0.0169310294 0.016694158332 0.016458404551 0.01622389986 0.015990894867 0.015759457753 0.015529736479 0.015301844513 
0.015075906765 0.014851967539 0.01463014461 0.014410509693 0.014193115454 0.013978003094 0.01376522963 0.013554615246 0.013346653553 
0.013141171246 0.012938234857 0.012737892589 0.012540212536 0.012345310618 0.022473463162 0.022290542166 0.022103992006 0.021913909002 
0.021720333168 0.021523447212 0.0213237993 0.021120679886 0.020914634777 0.020706096604 0.02049494203 0.020281447212 0.020065814939 
0.019848303255 0.019629208725 0.019408144453 0.019185556515 0.018961644419 0.018736559572 0.018510453718 0.018283527177 0.018055970903 
0.017827911045 0.017599613656 0.017371171574 0.01714278102 0.016914694112 0.016687062426 0.016460066603 0.01623384594 0.016008630499 
0.015784570965 0.015561778331 0.015340420692 0.015120604695 0.014902437861 0.014686118114 0.014471469759 0.014258875706 0.014048267706 
0.01383971918 0.013633297567 0.013428842326 0.013226808616 0.013027039547 0.012829592225 0.012634517525 0.012441863722 0.012251783582 
0.012064133029 0.021744435117 0.021570424517 0.021392386939 0.021210960413 0.021026246088 0.020838370389 0.020647447085 0.020453720511 
0.020257240626 0.020058248543 0.019857204546 0.019653687032 0.019448116124 0.019240713101 0.019031572949 0.018820833496 0.018608681972 
0.01839525473 0.0181806719 0.017965128996 0.017748802157 0.017531790023 0.017314344116 0.017096507689 0.016878552395 0.01666064124 
0.016442920897 0.016225552687 0.016008733203 0.015792623762 0.015577368978 0.015363143118 0.015150036477 0.014938217631 0.014727847664 
0.014518906349 0.014311476475 0.014105824673 0.013901945245 0.013699917938 0.013499794876 0.013301434436 0.013105311337 0.012911213249 
0.012719253972 0.012529456578 0.012341871474 0.012156627019 0.011973620349 0.011792963196 0.021051292758 0.020884635413 0.020714644564 
0.020541408815 0.020365075244 0.020185716153 0.020003859582 0.019818911284 0.019631406057 0.019441571501 0.019249424147 0.019055215912 
0.018859104917 0.018661232166 0.018461741194 0.018260738465 0.018058387195 0.017854806617 0.017650135807 0.017444567087 0.017238137917 
0.017031070372 0.016823517209 0.016615618779 0.016407551891 0.016199448139 0.015991491531 0.0157838318 0.015576619262 0.015370015835 
0.015164201437 0.014959243431 0.014755361455 0.014552540687 0.014350974996 0.014150751662 0.013951931111 0.013754703093 0.013559133811 
0.01336525358 0.013172928973 0.012982627819 0.012794195353 0.01260768628 0.012423145924 0.012240614846 0.012060239046 0.011881892893 
0.011705617047 0.011531618939 0.020391502216 0.020232583813 0.020070184241 0.019904699721 0.01973632763 0.019565003401 0.019390996104 
0.019214444078 0.019035396911 0.018854096269 0.01867066421 0.018485276897 0.018298077721 0.018109193042 0.017918760477 0.017726892943 
0.017533741588 0.017339405065 0.01714404156 0.016947756441 0.016750671073 0.01655296899 0.016354753214 0.016156168569 0.015957392195 
0.015758554144 0.015559797351 0.01536127494 0.015163120442 0.014965493003 0.014768608197 0.014572398088 0.014377098623 0.014182781008 
0.01398962437 0.013797603514 0.013606994491 0.013417786598 0.013230080368 0.013043732868 0.012859215407 0.012676361372 0.012495265562 
0.012315943721 0.01213845174 0.011962929944 0.011789254995 0.011617457559 0.011447759117 0.011280126747 0.019764358041 0.019612131942 
0.01945698339 0.019298760367 0.019137820249 0.018974168127 0.018807887284 0.018639142929 0.018468127669 0.01829493353 0.018119707407 
0.017942622952 0.017763809866 0.017583370477 0.017401469832 0.017218195411 0.017033686813 0.016848017092 0.016661419772 0.016473878035 
0.016285560089 0.016096616932 0.015907174638 0.015717375039 0.015527342898 0.015337182886 0.015147084545 0.014957215453 0.014767628877 
0.014578466477 0.014389838172 0.01420192982 0.014014778228 0.013828527598 0.013643235253 0.013459130884 0.013276232329 0.013094617912 
0.012914184854 0.012735370958 0.012558047113 0.012382301134 0.012208165668 0.012035676506 0.011864970329 0.011695860295 0.011528632409 
0.011363237728 0.011199738822 0.0110381582 0.019167766611 0.019022150123 0.018873685259 0.018722479258 0.018568547624 0.018412027801 
0.01825306033 0.018091762899 0.017928272363 0.017762741279 0.017595253999 0.01742598413 0.017255045616 0.017082581387 0.016908649928 
0.016733451446 0.016557054998 0.016379645111 0.016201189804 0.016021868341 0.015841803085 0.015661112257 0.015479930615 0.015298367719 
0.015116550645 0.014934670325 0.014752740643 0.014570902286 0.014389338315 0.014208120254 0.014027388979 0.013847237125 0.013667817637 
0.013489205364 0.013311424052 0.013134736973 0.012959130703 0.012784519129 0.012611350595 0.012439486538 0.012269029323 0.012100008469 
0.011932536402 0.011766615935 0.011602132163 0.011439359951 0.011278270363 0.011118884556 0.010961288507 0.010805473467 0.018600403514 
0.018461035808 0.018319026155 0.018174279744 0.018027012857 0.017877266734 0.017725198401 0.017570916873 0.01741453097 0.017256184688 
0.017095982367 0.01693403988 0.016770535632 0.01660555765 0.016439213854 0.016271637097 0.01610291631 0.015933121224 0.015762351255 
0.015590753051 0.015418440747 0.015245554888 0.015072132428 0.014898339004 0.014724259456 0.014550040593 0.014375765135 0.014201580031 
0.014027588521 0.013853854861 0.013680571139 0.013507850698 0.013335724812 0.01316423984 0.01299364506 0.012823889564 0.012655100506 
0.012487499851 0.012321020642 0.012155766807 0.011991802434 0.011829178435 0.011667932711 0.011508125471 0.011349779474 0.011192953499 
0.011037693619 0.010884043786 0.010732044758 0.010581646954 0.018060775609 0.017927399538 0.01779136764 0.017652782958 0.017511799726 
0.017368485948 0.017222926623 0.017075248502 0.016925572673 0.016774014517 0.016620668496 0.016465695066 0.016309181421 0.016151266729 
0.015992052772 0.015831595044 0.015670055635 0.015507477329 0.015343944973 0.015179641909 0.015014628755 0.014849009443 0.014682882045 
0.014516382705 0.01434958563 0.014182603122 0.014015571885 0.0138485742 0.013681699473 0.013515090735 0.013348838207 0.013183036584 
0.013017718686 0.012853118848 0.012689177153 0.012526048608 0.012363899237 0.012202724883 0.0120426343 0.011883652385 0.011725781857 
0.011569291254 0.011414004822 0.011260058347 0.011107480872 0.010956315529 0.010806612354 0.010658413184 0.010511765786 0.010366610241 
0.017547652915 0.017419795829 0.017289449089 0.017156723274 0.01702168178 0.016884383051 0.016744995478 0.0166035648 0.016460195094 
0.016315017561 0.016168147876 0.01601970504 0.015869813295 0.015718515812 0.015565964246 0.015412253071 0.015257417247 0.015101610598 
0.014944924561 0.014787449271 0.014629294957 0.014470555613 0.014311307157 0.014151656539 0.013991710845 0.013831557565 0.01367136312 
0.013511133569 0.013351000807 0.013191080007 0.013031462882 0.012872240409 0.012713435413 0.012555191434 0.012397600772 0.012240844663 
0.012084880277 0.011929849019 0.011775715354 0.011622690336 0.01147079498 0.011319994018 0.011170378084 0.011021997742 0.010874883673 
0.010729107516 0.010584699847 0.01044168935 0.010300022936 0.01015990715 0.017059588222 0.016937019457 0.016812058542 0.016684810073 
0.016555360734 0.016423798999 0.016290181287 0.016154611357 0.016017217702 0.015878076318 0.01573734375 0.015595043293 0.015451314734 
0.015306300878 0.015160023042 0.015012565343 0.014864101199 0.014714678964 0.014564429967 0.014413398326 0.014261701284 0.014109413293 
0.013956624457 0.013803450898 0.013649958153 0.013496295822 0.013342481612 0.013188643874 0.01303486914 0.012881259773 0.012727905801 
0.012574829281 0.012422085445 0.012270011902 0.01211852533 0.011967691492 0.011817559665 0.011668323308 0.011519976515 0.011372623653 
0.011226229683 0.011080899431 0.01093666512 0.010793577593 0.010651704185 0.010511047626 0.01037165694 0.010233501996 0.010096756162 
0.0099614393672 0.016595520118 0.016477898895 0.016358021841 0.016235952884 0.016111774677 0.015985567488 0.015857404692 0.015727388876 
0.015595619912 0.015462137268 0.015327098823 0.015190597043 0.015052747465 0.014913572456 0.014773200859 0.014631726375 0.014489239304 
0.014345835911 0.014201616698 0.014056642147 0.013911018391 0.013764838561 0.013618157265 0.013471079788 0.013323721114 0.013176093971 
0.01302832656 0.012880515836 0.012732733188 0.012585100195 0.012437500434 0.012290276299 0.012143504715 0.011997119087 0.011851323959 
0.011706127302 0.011561644353 0.01141794188 0.011275011928 0.011132941084 0.010991814609 0.010851680587 0.010712559919 0.010574513712 
0.010437577266 0.01030178824 0.01016710617 0.010033746411 0.0099016656925 0.0097708733417 0.016154231912 0.016041315962 0.015926216241 
0.015809013852 0.015689813069 0.015568653468 0.015445651691 0.015320849463 0.015194328808 0.015066203651 0.014936592592 0.014805527044 
0.014673116666 0.014539481004 0.014404663707 0.014268813946 0.014131955377 0.013994238674 0.013855708372 0.01371647197 0.013576582453 
0.013436136938 0.01329520566 0.013153876288 0.013012255489 0.012870354185 0.012728302077 0.012586180002 0.012444056873 0.01230187659 
0.012159917465 0.012018297464 0.011876989609 0.011736104759 0.011595710069 0.011455843091 0.011316652023 0.011178110556 0.011040320515 
0.010903337273 0.010767214429 0.010631999917 0.010497739593 0.010364474855 0.010232251149 0.010101092307 0.0099709534442 0.0098420931324 
0.0097144181545 0.0095879448401 0.015734760948 0.015626168857 0.015515601812 0.015403025728 0.015288506876 0.015172101957 0.015053915692 
0.014934012904 0.014812492265 0.014689392181 0.014564824692 0.014438896004 0.014311654548 0.014183195097 0.014053640254 0.013923032634 
0.01379151338 0.013659137064 0.013525978121 0.013392137196 0.013257655909 0.013122623543 0.012987121292 0.012851245968 0.012715007173 
0.01257852922 0.012441844839 0.012304995013 0.01216807617 0.012031335665 0.011894715221 0.011758338319 0.011622235944 0.011486488689 
0.011351176313 0.011216384521 0.011082145745 0.010948540919 0.01081562305 0.010683449412 0.010552099044 0.010421554689 0.010291901531 
0.010163170877 0.010035403703 0.0099085570586 0.0097828871833 0.0096582832349 0.0095347613715 0.0094124102556 0.015335939338 0.015231596059 
0.015125282161 0.015017026374 0.014906924089 0.014795040808 0.014681406137 0.014566028809 0.014449133904 0.014330786784 0.014211010533 
0.014089882718 0.013967495032 0.013843953414 0.013719312724 0.013593706297 0.013467179542 0.013339835647 0.013211750269 0.013082996796 
0.012953614982 0.012823692039 0.012693324961 0.012562542978 0.012431406497 0.012300007171 0.012168345794 0.012036573497 0.011904732829 
0.011773003784 0.011641369287 0.01150990786 0.011378705231 0.011247848179 0.011117355797 0.010987312379 0.010857797973 0.010728868495 
0.010600595303 0.010472965424 0.01034609912 0.010220000319 0.010094726596 0.0099703014608 0.00984670705 0.0097241417466 0.0096025580978 
0.0094819964818 0.0093624932932 0.00924408255 0.01495685445 0.014856461531 0.014754152179 0.014650019529 0.014544052824 0.014436347655 
0.01432698477 0.01421602067 0.014103572372 0.013989652069 0.01387434225 0.013757742342 0.013639932171 0.013520984251 0.013401000452 
0.013280076778 0.013158276468 0.013035678584 0.012912360662 0.012788371555 0.012663828386 0.012538747393 0.012413174287 0.012287197014 
0.012160819248 0.012034198064 0.011907390951 0.011780343515 0.011653322396 0.011526300347 0.011399350888 0.011272549018 0.011145991049 
0.011019702006 0.010893755869 0.010768240778 0.010643201367 0.010518727149 0.010394809543 0.010271523503 0.010148924089 0.010027019767 
0.0099058946166 0.0097854750755 0.0096660041743 0.0095474441067 0.0094297766626 0.0093130698489 0.0091973689102 0.0090827008794 0.01459661603 
0.014499939452 0.014401403714 0.014301079889 0.014199008356 0.014095269863 0.013989932331 0.013883107349 0.013774754332 0.013665007245 
0.013553917178 0.013441596052 0.013328084165 0.013213472664 0.013097868673 0.012981360985 0.01286401072 0.012745902605 0.012627085161 
0.012507642698 0.012387613216 0.01226709753 0.012146028814 0.012024598673 0.011902792891 0.011780711964 0.011658347358 0.011535887977 
0.011413336247 0.011290759738 0.011168244451 0.011045837562 0.010923637097 0.010801692671 0.010680061538 0.010558820664 0.010438045196 
0.010317724534 0.010197960861 0.010078773378 0.0099602012601 0.0098423127259 0.0097250436707 0.009608632691 0.0094929992715 0.0093781370437 
0.009264190449 0.009151147333 0.0090390782977 0.0089279278072 0.014254123483 0.014160959688 0.014065990225 0.013969292707 0.013870915973 
0.013770901145 0.013669399717 0.013566352348 0.013461893934 0.013356076266 0.013248972741 0.013140655562 0.013031215552 0.012920704777 
0.012809231581 0.012696878568 0.012583718307 0.012469822444 0.012355254449 0.01224007302 0.012124302502 0.012008044165 0.011891307494 
0.011774164892 0.011656677747 0.011538819611 0.011420778838 0.011302568016 0.011184222127 0.011065838189 0.010947489459 0.010829244962 
0.010711167847 0.010593317747 0.010475799135 0.010358602122 0.010241797333 0.010125470087 0.010009648101 0.0098943025067 0.0097795962142 
0.0096654146809 0.0095519767671 0.0094392393306 0.0093272291142 0.0092159950326 0.0091055970368 0.0089960730594 0.0088873961332 0.0087796351967 
0.01392840381 0.013838546431 0.013746945756 0.01365366555 0.013558738945 0.013462303746 0.013364320175 0.013264889295 0.013164083945 
0.013061955343 0.012958597284 0.012854087885 0.012748442504 0.012641799707 0.012534215098 0.012425780585 0.012316566718 0.012206661815 
0.012096060497 0.011984915348 0.011873211274 0.011760978221 0.011648312406 0.011535242079 0.011421736487 0.011307985959 0.011193965517 
0.011079746676 0.010965394175 0.010850973281 0.010736520626 0.010622190462 0.010508018889 0.010394086123 0.010280399427 0.010167015802 
0.010054037207 0.0099415029644 0.009829391886 0.0097177910534 0.0096066400564 0.0094961425209 0.0093862600872 0.0092770174595 0.0091684651331 
0.0090606564586 0.0089536180591 0.0088473764249 0.0087419803557 0.0086374493317 0.013618310114 0.013531577802 0.013443135675 0.013353135289 
0.013261489397 0.013168302502 0.013073675294 0.012977640949 0.012880266437 0.012781650925 0.012681832212 0.012580856327 0.012478817056 
0.012375813159 0.012271908688 0.012167155388 0.012061667695 0.011955504231 0.011848719812 0.011741348075 0.011633456528 0.011525084953 
0.011416253578 0.011306955154 0.011197341544 0.01108738491 0.010977166491 0.010866738055 0.010756144604 0.010645472104 0.01053478338 
0.010424168316 0.010313718665 0.010203440458 0.010093387648 0.0099836815465 0.0098743084067 0.0097653128047 0.009656756542 0.0095485781168 
0.0094409665689 0.0093338948049 0.0092273784057 0.0091214507523 0.0090162273443 0.008911643843 0.0088077909394 0.0087047039926 0.0086024147651 
0.0085009676169 0.013322644172 0.013238855539 0.013153483102 0.013066469421 0.012977919404 0.012887881037 0.012796412363 0.012703571865 
0.012609480168 0.012514149731 0.012417656916 0.01232004503 0.012221411451 0.012121819387 0.012021361872 0.011920117276 0.01181817862 
0.011715570537 0.011612348157 0.011508571414 0.011404284083 0.011299527374 0.011194259332 0.011088619316 0.010982620741 0.010876288955 
0.010769675743 0.010662818415 0.0105557937 0.010448663134 0.010341542984 0.010234444111 0.010127440892 0.010020664182 0.0099140976653 
0.0098078214719 0.0097018602731 0.0095962769075 0.0094910053628 0.0093862366386 0.0092819267533 0.0091780852432 0.0090747857883 0.0089720717909 
0.0088699242188 0.0087684318104 0.0086676303753 0.0085675482309 0.0084682344846 0.0083692491703 0.013040005756 0.012959076963 0.012876503456 
0.012792371468 0.012706723972 0.01261964507 0.012531203376 0.012441443105 0.012350410415 0.012258209851 0.012164857803 0.012070432156 
0.011975007717 0.011878666192 0.011781500404 0.011683574786 0.011584955569 0.01148568774 0.011385853675 0.011285476215 0.01118456548 