# vtk DataFile Version 5.1
vtk output
ASCII
DATASET STRUCTURED_POINTS
DIMENSIONS 50 50 50
SPACING 0.002 0.002 0.002
ORIGIN 0.1742 -0.052672 0.02732
POINT_DATA 125000
FIELD FieldData 1
potential 1 125000 double
<<<<<<< HEAD
0.00054382089627 0.00054090663835 0.00053802357367 0.00053517026578 0.00053234731211 0.0005295533985 0.0005267879693 0.00052404927092 0.00052133918246 
0.00051865349093 0.00051599201305 0.00051335431086 0.00051073873431 0.00050814604121 0.00050557450219 0.00050302503114 0.00050049518571 0.0004979846974 
0.00049549271021 0.0004930182958 0.00049055775429 0.00048810908357 0.0004856688783 0.00048323639871 0.00048080878005 0.00047838311345 0.0004759618977 
0.00047354451414 0.00047113167765 0.00046872504344 0.0004663229735 0.00046393638157 0.00046156325231 0.0004592056159 0.00045686706888 0.00045454820753 
0.00045225114869 0.00044997652287 0.00044772536283 0.00044549855396 0.00044329633701 0.00044111951544 0.00043896924108 0.00043684565062 0.00043475229249 
0.00043268890826 0.00043065642056 0.00042865538017 0.00042668559118 0.00042474720297 0.00054397715691 0.00054106827254 0.00053818947265 0.00053534075897 
0.00053252255345 0.00052973287543 0.00052697125705 0.00052423814189 0.00052153031899 0.0005188475544 0.00051618807215 0.00051355165214 0.00051093741637 
0.00050834453015 0.00050577319853 0.00050322203241 0.00050069067274 0.00049817769853 0.00049568340339 0.00049320467402 0.00049073966431 0.00048828608144 
0.00048584160786 0.00048340368964 0.00048097202567 0.00047854470313 0.00047611921492 0.00047369986731 0.00047128577633 0.00046887924834 0.00046647789083 
0.00046409300421 0.00046172222457 0.00045936829207 0.00045703240294 0.0004547180695 0.0004524255618 0.00045015564019 0.00044790920564 0.00044568694073 
0.0004434895765 0.00044131755393 0.00043917219904 0.00043705267219 0.00043496346124 0.00043290383136 0.00043087508461 0.00042887745176 0.00042691093769 
0.00042497581811 0.00054387504838 0.00054097422997 0.0005381026986 0.00053526140374 0.00053244950402 0.00052966685356 0.00052691343531 0.0005241850653 
0.00052148305934 0.00051880558867 0.00051615063524 0.00051351823933 0.000510906931 0.00050831702159 0.00050574619821 0.00050319617334 0.00050066544484 
0.000498152174 0.00049565590965 0.00049317484284 0.00049070707417 0.00048824986041 0.00048580297328 0.00048336074746 0.0004809255081 0.00047849408404 
0.00047606844952 0.00047364851632 0.00047123512498 0.0004688298643 0.00046643093822 0.00046404881499 0.00046168189753 0.00045933226725 0.00045700185867 
0.00045469291689 0.00045240633429 0.000450142699 0.00044790295103 0.00044568729185 0.00044349671896 0.00044133163658 0.00043919122048 0.00043707969074 
0.00043499638755 0.00043294259692 0.00043091882798 0.00042892634807 0.00042696445617 0.00042503351797 0.00054345877436 0.00054056817506 0.00053770736258 
0.00053487603307 0.00053207530536 0.00052930238682 0.00052655656983 0.00052383725806 0.00052114395773 0.00051847435549 0.00051582651637 0.00051320050711 
0.00051059573777 0.00050800988261 0.00050544410306 0.00050289813276 0.00050036912692 0.00049785736605 0.00049536125848 0.00049287926451 0.00049041167275 
0.00048795327759 0.00048550209319 0.00048305912786 0.00048062133763 0.0004781905415 0.000475765473 0.00047334646359 0.00047093480325 0.00046852815797 
0.0004661372777 0.00046375995909 0.00046139886707 0.00045905539594 0.00045673225855 0.00045443007444 0.00045215128562 0.00044989589419 0.00044766463567 
0.00044545784923 0.00044327604178 0.00044111836059 0.00043898816806 0.00043688478395 0.00043480964811 0.0004327631703 0.00043074634802 0.00042876005205 
0.00042680456321 0.00042487956406 0.00054268544294 0.00053980789004 0.00053696044277 0.00053414339289 0.00053135439655 0.00052859337997 0.00052586030426 
0.00052315282278 0.00052047050482 0.00051781136131 0.00051517411028 0.00051255731895 0.00050996040023 0.00050738298298 0.00050482451232 0.00050228425814 
0.00049976062908 0.00049725388971 0.000494760424 0.00049228042615 0.00048981278299 0.00048735357951 0.0004849045373 0.0004824611446 0.00048002596636 
0.00047759643795 0.00047517389461 0.00047275800342 0.00047035038925 0.00046794899782 0.00046556381745 0.00046319280662 0.00046083865393 0.00045850353317 
0.0004561890819 0.00045389662184 0.00045162697533 0.00044938213664 0.00044716125911 0.00044496529277 0.00044279448589 0.00044064767038 0.00043852825386 
0.00043643530031 0.00043436964867 0.00043233259716 0.00043032455639 0.00042834624204 0.00042639820841 0.00042447978745 0.00054152837751 0.00053866633697 
0.0005358358378 0.00053303346517 0.0005302602801 0.00052751440729 0.00052479614216 0.0005221033121 0.00051943462678 0.0005167895078 0.00051416419484 
0.00051156030306 0.00050897573998 0.00050640904385 0.00050386027808 0.00050132976182 0.00049881361638 0.00049631198302 0.0004938245663 0.000491349363 
0.00048888437247 0.00048642991936 0.00048398297688 0.00048154539601 0.00047911416124 0.0004766893122 0.00047427130919 0.00047186113096 0.0004694559353 
0.00046706579295 0.00046468833386 0.00046232628325 0.00045998141093 0.00045765640644 0.00045535231639 0.0004530706381 0.00045081289528 0.00044857989484 
0.00044637147693 0.00044418832436 0.00044202904129 0.00043989694208 0.00043778977724 0.00043570903339 0.00043365497613 0.0004316287429 0.00042963088846 
0.00042766138518 0.00042572200795 0.00042381233914 0.00053997797255 0.00053713440673 0.00053432114323 0.00053153710147 0.00052878155227 0.00052605407454 
0.00052335357909 0.00052067789282 0.00051802601553 0.00051539619474 0.00051278750226 0.00051019848419 0.0005076272674 0.00050507584654 0.00050254008596 
0.00050001974453 0.00049751402711 0.0004950221973 0.0004925432642 0.00049007493675 0.00048761856457 0.00048516980457 0.00048273157753 0.00048030065237 
0.00047787663525 0.00047545942063 0.00047304938054 0.00047064752097 0.0004682514749 0.00046587089074 0.00046350386854 0.00046115272066 0.00045881964341 
0.00045650652849 0.00045421458395 0.00045194642797 0.00044970194114 0.00044748251835 0.00044528840515 0.00044311977958 0.00044097487304 0.00043885693973 
0.00043676400788 0.00043469678528 0.00043265550581 0.00043064154721 0.00042865518872 0.00042669678504 0.00042476749159 0.00042286686106 0.00053804119033 
0.00053521809784 0.0005324250083 0.00052966159872 0.00052692644324 0.00052421853695 0.00052153787093 0.00051888253193 0.00051624925758 0.00051363851657 
0.00051104949673 0.00050847752166 0.00050592293392 0.00050338632427 0.00050086588198 0.00049835956516 0.00049586771072 0.00049338791404 0.00049092122219 
0.00048846550748 0.00048601796597 0.00048358172088 0.00048115385556 0.00047873295527 0.00047631972041 0.00047391353084 0.00047151482703 0.0004691201953 
0.00046674005056 0.00046437191043 0.00046201808504 0.00045968026018 0.00045736067819 0.00045506123679 0.00045278443349 0.00045053085963 0.00044830122741 
0.00044609734068 0.00044391875027 0.00044176430885 0.00043963666657 0.00043753407693 0.00043545596763 0.00043340339451 0.00043137644538 0.00042937608946 
0.00042740217966 0.00042545561421 0.00042353751387 0.00042164757462 0.00053574539383 0.00053294370241 0.0005301729483 0.00052743084363 0.00052471815801 
0.00052203319957 0.00051937354722 0.00051674037975 0.00051412922042 0.00051153893659 0.0005089688087 0.00050641609013 0.00050388169138 0.00050136305529 
0.00049886042275 0.00049637162977 0.00049389464954 0.00049143166631 0.00048898065931 0.00048653809293 0.00048410685125 0.00048168479173 0.00047927065209 
0.00047686405054 0.00047446464231 0.00047207290931 0.00046968890071 0.00046730930567 0.00046494381504 0.00046259104187 0.00046025260406 0.00045793034518 
0.00045562642903 0.00045334297146 0.00045108193404 0.0004488446128 0.0004466316393 0.00044444411462 0.00044228261749 0.00044014450333 0.00043803298317 
0.00043594688015 0.00043388570198 0.00043184858193 0.00042983653203 0.00042785000784 0.00042588983588 0.00042395485471 0.00042204837587 0.00042016930937 
0.00053313080601 0.00053035211879 0.00052760430686 0.00052488621046 0.00052219700497 0.00051953600567 0.00051690031646 0.00051428798016 0.00051169957101 
0.00050913162059 0.00050658352825 0.00050405248691 0.00050153896652 0.00049904110464 0.00049655813338 0.00049408763271 0.00049163152008 0.00048918736226 
0.00048675260055 0.00048433010839 0.00048191714843 0.00047951334739 0.00047711712473 0.00047472838525 0.00047234698193 0.00046997290225 0.0004676065682 
0.00046524481264 0.00046289777782 0.00046056208382 0.00045824100529 0.00045593651689 0.00045365013882 0.00045138455267 0.00044914088686 0.00044692103304 
0.00044472562547 0.00044255469987 0.00044040894746 0.00043828979885 0.00043619621422 0.00043412695422 0.00043208237918 0.00043006143251 0.00042806474495 
0.00042609192243 0.00042414545439 0.00042222471231 0.00042033084759 0.00041846363054 0.00053025026587 0.00052749657861 0.00052477392697 0.00052207970762 
0.00051941485055 0.00051677669733 0.0005141641677 0.00051157647029 0.00050901164843 0.00050646678967 0.00050394064314 0.00050143303097 0.00049894217046 
0.00049646728418 0.00049400557427 0.0004915583344 0.00048912402237 0.00048669959887 0.00048428804344 0.00048188696484 0.00047949511102 0.00047711177829 
0.00047473654372 0.0004723692407 0.0004700088051 0.00046765570183 0.0004653061861 0.00046296972948 0.00046064326135 0.00045832870456 0.00045602727342 
0.00045374230752 0.00045147540636 0.00044922835467 0.00044700330291 0.00044480119447 0.00044262413534 0.00044047168341 0.00043834360038 0.00043624222755 
0.00043416570444 0.00043211350894 0.00043008452401 0.00042807995104 0.00042609871566 0.00042414163464 0.0004222094523 0.0004203023053 0.00041842139813 
0.00041656660782 0.00052716867681 0.00052443966924 0.00052174069313 0.00051907034574 0.00051642962424 0.00051381583005 0.0005112277518 0.00050866385657 
0.00050612223457 0.00050360088038 0.00050109892009 0.00049861510523 0.00049614824132 0.00049369580718 0.00049125904976 0.00048883574908 0.00048642344138 
0.0004840249091 0.00048163771488 0.00047926024161 0.00047689222187 0.00047453285889 0.0004721814972 0.00046983783412 0.00046750146802 0.00046517260781 
0.00046284684792 0.00046053377323 0.00045823016207 0.00045593809831 0.00045365921336 0.00045139560052 0.00044914834534 0.00044692138843 0.00044471614474 
0.00044253355133 0.00044037497644 0.00043823929056 0.00043613057555 0.00043404685831 0.00043198652042 0.00042995104989 0.00042793922626 0.00042595080511 
0.00042398496361 0.00042204283543 0.00042012493352 0.00041823152258 0.00041636371694 0.00041452255355 0.00052394676003 0.00052124264352 0.00051856855392 
0.00051592387937 0.00051330571166 0.00051071593442 0.00050815214761 0.00050561177702 0.00050309372255 0.00050059597213 0.00049811796743 0.00049565690184 
0.00049321466379 0.00049078834289 0.00048837626545 0.00048597654436 0.00048359173429 0.00048121896379 0.00047885718021 0.00047650588776 0.00047416402585 
0.00047183115774 0.00046950654559 0.00046718924605 0.00046487910728 0.00046257152119 0.00046027609988 0.00045798844173 0.00045571015601 0.00045344254251 
0.00045118632042 0.00044894557712 0.00044672077119 0.0004445147713 0.000442329805 0.00044016653789 0.00043802495892 0.00043590811204 0.00043381702112 
0.00043175057519 0.00042970795652 0.00042768884257 0.0004256935224 0.00042372059583 0.0004217702004 0.00041984302915 0.00041793930948 0.00041605978991 
0.000414205058 0.00041237647902 0.00052065351725 0.00051797313574 0.00051532258187 0.00051270123059 0.00051010686654 0.00050753996028 0.00050499905731 
0.00050248214672 0.0004999863815 0.0004975121387 0.00049505691843 0.00049262148971 0.00049020383456 0.00048780263811 0.00048541429736 0.00048304260757 
0.00048068443572 0.00047833853816 0.00047600382705 0.00047368020025 0.00047136606988 0.00046906144731 0.00046676465011 0.00046447550872 0.00046219354643 
0.00045991382585 0.00045764578994 0.00045538435602 0.00045313194751 0.00045088992322 0.00044865959854 0.00044644278917 0.00044424074346 0.00044205614693 
0.00043989036535 0.00043774674576 0.00043562393036 0.00043352591344 0.0004314520719 0.00042940229296 0.00042737595485 0.00042537316045 0.00042339304037 
0.00042143566626 0.00041950035243 0.00041758763235 0.00041569852355 0.00041383273075 0.00041199218843 0.00041017503899 0.00051734726092 0.00051468968938 
0.0005120619638 0.00050946345818 0.00050689214328 0.00050434658756 0.00050182730053 0.00049933268684 0.00049685958041 0.00049440682118 0.00049197599527 
0.00048956407725 0.00048717110651 0.00048479291281 0.00048243222547 0.00048008719004 0.00047775571111 0.0004754374728 0.00047313078956 0.00047083533975 
0.00046854985908 0.00046627403207 0.00046400618245 0.00046174607828 0.00045948787852 0.0004572416489 0.00045500208136 0.00045276945164 0.00045054430766 
0.00044832894036 0.000446123452 0.00044392954244 0.0004417508577 0.00043958869739 0.00043744407821 0.00043531821805 0.00043321529919 0.0004311350953 
0.00042907791307 0.00042704430062 0.00042503381638 0.00042304618961 0.00042108160794 0.00041913869602 0.0004172181865 0.00041532005047 0.0004134449326 
0.00041159388103 0.00040976526992 0.00040796017987 0.00051408293615 0.00051144674343 0.00050884017289 0.00050626275737 0.00050371246885 0.00050118914569 
0.00049868984776 0.00049621530031 0.00049376261214 0.00049133323053 0.00048892455903 0.00048653575631 0.00048416465314 0.00048181300637 0.00047947812693 
0.00047715892312 0.00047485425707 0.00047256330485 0.00047028485015 0.00046801731764 0.00046576075733 0.00046351312585 0.00046127462897 0.00045904377458 
0.0004568157163 0.00045459878405 0.00045238794583 0.00045018356914 0.00044798523078 0.00044579565034 0.00044361581139 0.00044144694994 0.00043929159891 
0.00043715146866 0.00043502730083 0.00043292055159 0.00043083620249 0.00042877297599 0.0004267322556 0.00042471429115 0.00042271903476 0.00042074625676 
0.00041879611339 0.0004168676405 0.00041496120541 0.00041307718771 0.00041121696465 0.00040937802737 0.00040756222352 0.00040576916937 0.00051090461528 
0.00050828854661 0.00050570175105 0.00050314399904 0.0005006134647 0.00049810953852 0.00049562873388 0.0004931737122 0.00049074282902 0.00048833418097 
0.00048594702946 0.00048357837285 0.00048123149852 0.00047890337099 0.0004765928511 0.00047429844977 0.00047201999516 0.0004697552267 0.00046750392527 
0.00046526452313 0.00046303603006 0.00046081770906 0.00045860829875 0.00045640205717 0.00045420726848 0.00045201786574 0.00044983551475 0.00044765887864 
0.00044548886809 0.00044332570985 0.00044117101301 0.00043902624684 0.00043689341631 0.00043477476996 0.00043266984181 0.00043058370888 0.0004285171042 
0.00042647073385 0.0004244456089 0.00042244288631 0.00042046253614 0.00041850383178 0.00041656786434 0.00041465346947 0.00041276097838 0.00041089051936 
0.00040904322329 0.00040721719859 0.00040541367722 0.00040363169705 0.00050784859581 0.00050525083287 0.00050268253768 0.00050014304897 0.00049763077638 
0.00049514356511 0.00049268264519 0.00049024572777 0.00048783339067 0.00048544383543 0.00048307462392 0.00048072831571 0.00047840355204 0.00047609768709 
0.00047380899301 0.00047153890986 0.00046928542463 0.00046704680484 0.00046482162917 0.00046260899836 0.00046040775323 0.00045821692222 0.00045603424631 
0.00045385579368 0.00045168877991 0.00044952837791 0.00044737321214 0.00044522407915 0.00044307996937 0.00044094260871 0.00043881274853 0.00043669191131 
0.00043458160926 0.00043248209341 0.00043039858991 0.00042833161987 0.00042628180257 0.00042425193486 0.00042224245493 0.00042025413619 0.00041828765737 
0.00041634325527 0.00041442048955 0.00041251964057 0.00041064129629 0.00040878444779 0.000406948954 0.00040513532291 0.00040334296896 0.0004015730273 
0.00050494052848 0.00050236002466 0.00049980858584 0.00049728565701 0.00049478908662 0.0004923191545 0.00048987557089 0.00048745653833 0.00048506084412 
0.00048268721899 0.00048033756905 0.00047801054325 0.00047570573308 0.0004734209609 0.00047115538505 0.00046890751674 0.00046667687396 0.00046446190028 
0.00046226026056 0.00046007256629 0.00045789696624 0.00045573187808 0.00045357185178 0.00045142412914 0.00044928355446 0.00044714909591 0.00044502027214 
0.00044289661762 0.00044077788485 0.00043866514624 0.0004365594109 0.00043446085166 0.0004323727236 0.00043029394138 0.00042822960029 0.00042618069475 
0.00042414856029 0.00042213395263 0.00042013926957 0.00041816545195 0.00041621300294 0.0004142817103 0.00041237236562 0.00041048469015 0.00040861993833 
0.00040677513578 0.00040495155233 0.00040314973225 0.00040136911691 0.00039960995081 0.00050219946252 0.00049963432863 0.00049709702353 0.00049458968558 
0.00049210880224 0.00048965568837 0.00048722629532 0.00048482297713 0.00048244208545 0.00048008635125 0.00047775468046 0.00047544534574 0.0004731583898 
0.00047089328936 0.00046864609904 0.00046641897399 0.00046420944524 0.00046201613742 0.00045983795901 0.00045767325981 0.00045552091133 0.00045337966337 
0.00045124346978 0.00044912033085 0.00044700409107 0.00044489421192 0.00044278967744 0.00044069015518 0.00043859555488 0.00043650598105 0.0004344226409 
0.00043234662547 0.00043027747003 0.00042822022717 0.00042617470618 0.0004241430749 0.00042212746989 0.00042012859063 0.0004181486957 0.0004161887573 
0.00041424963073 0.00041233149012 0.00041043509169 0.00040855976145 0.00040670724384 0.00040487469174 0.00040306320178 0.00040127233885 0.00039950330556 
0.00039775438427 0.00049963881047 0.00049708547147 0.00049456346106 0.00049206945739 0.00048960275009 0.00048716301037 0.00048474862129 0.00048235752198 
0.00047999340181 0.00047765322952 0.00047533611175 0.00047304290302 0.00047077237721 0.00046852397545 0.00046629601504 0.0004640865693 0.00046189611495 
0.00045972243033 0.00045756397516 0.00045541984561 0.00045328882037 0.0004511644783 0.00044905484675 0.00044695348328 0.000444859439 0.00044277211725 
0.0004406898683 0.00043861264477 0.00043654015569 0.00043447275335 0.00043241091437 0.00043035599406 0.00042830639863 0.00042626822734 0.00042424066933 
0.00042222627075 0.00042022633751 0.00041824276952 0.00041627756011 0.00041433115668 0.00041240482641 0.00041049967923 0.00040861592942 0.00040675362613 
0.00040491175046 0.00040309121793 0.00040129122012 0.00039951191223 0.00039775305253 0.00039601423874 0.00049726329764 0.00049472435337 0.00049221485402 
0.00048973240243 0.00048727887137 0.00048485147099 0.00048244685627 0.00048007066313 0.00047771956668 0.00047539322386 0.00047308984665 0.00047081076092 
0.00046855462417 0.00046632086577 0.00046410858913 0.00046191577429 0.00045974174127 0.00045758499247 0.00045544430498 0.00045331838962 0.00045120561521 
0.00044910029044 0.00044700975394 0.00044492824816 0.00044285430633 0.00044078702976 0.00043872497008 0.00043666845928 0.00043461643076 0.00043256936572 
0.00043052794432 0.00042849049306 0.00042646152015 0.00042444120481 0.00042243112987 0.00042043292041 0.00041844880517 0.0004164798435 0.00041452877662 
0.00041259610704 0.00041068265649 0.00040878959319 0.00040691889449 0.00040506770665 0.00040323746878 0.00040142785957 0.00039963925138 0.00039787078329 
0.00039612195889 0.00039439286146 0.00049508015099 0.00049255121599 0.00049005183925 0.00048758103349 0.00048513830596 0.00048271987966 0.00048032964346 
0.00047796488161 0.00047562511268 0.00047331031346 0.00047101963356 0.00046875185905 0.000466508323 0.00046428715604 0.00046208799489 0.00045990823962 
0.00045774824898 0.00045560592555 0.00045348054527 0.00045136980571 0.00044926843467 0.00044718408328 0.00044511095927 0.00044304648764 0.00044099046243 
0.00043894086872 0.00043689727824 0.00043485921577 0.0004328256061 0.00043079708488 0.00042877235373 0.00042675466338 0.00042474381034 0.00042274022307 
0.00042074680945 0.00041876453451 0.00041679546312 0.00041484110911 0.00041290356139 0.00041098393444 0.00040908353281 0.00040720375986 0.00040534357315 
0.00040350391156 0.00040168480745 0.00039988710188 0.00039810880725 0.00039635042626 0.00039461203434 0.00039289251012 0.0004930869523 0.00049056750856 
0.00048807854907 0.00048561504233 0.0004831818396 0.00048077502587 0.00047839418024 0.00047603909153 0.00047370936345 0.00047140454277 0.00046912362414 
0.00046686611986 0.00046463304129 0.00046242217234 0.000460233384 0.00045806513205 0.00045591668374 0.00045378644622 0.00045167351296 0.00044957579544 
0.00044748793423 0.00044541723564 0.00044335744975 0.000441308156 0.00043926725529 0.00043723294313 0.0004352054425 0.0004331834893 0.00043116688895 
0.00042915537311 0.00042714680011 0.00042514667751 0.00042315214436 0.00042116486235 0.00041918691548 0.00041721990735 0.00041526553044 0.00041332533083 
0.000411401497 0.00040949462445 0.00040760764518 0.00040573947215 0.00040389093486 0.00040206248264 0.0004002549499 0.00039846682998 0.00039669942171 
0.00039495160591 0.00039322308633 0.00039151311084 0.00049128499876 0.00048877367938 0.00048629018694 0.000483836952 0.00048141165024 0.00047901269109 
0.00047663989899 0.00047429288057 0.00047197118405 0.00046967445207 0.00046740168422 0.00046515303952 0.00046292694819 0.00046072465511 0.00045854389839 
0.00045638453315 0.00045424507008 0.00045212448793 0.00045002124742 0.00044792949301 0.00044585710183 0.00044379730883 0.00044174991578 0.00043971248384 
0.00043768406449 0.00043566375287 0.00043365015323 0.00043164218374 0.00042963997016 0.00042764129456 0.00042564965659 0.0004236638461 0.00042168461857 
0.00041971274648 0.00041774962067 0.00041579730716 0.00041385696463 0.00041193063259 0.00041001990187 0.00040812582555 0.00040625150422 0.00040439502729 
0.00040255947146 0.00040074260172 0.00039894502654 0.0003971680379 0.00039541100478 0.00039367294633 0.00039195442095 0.00039025350938 0.0004896706441 
0.00048716484041 0.00048468982987 0.00048224265609 0.00047982382139 0.00047743100438 0.00047506460454 0.00047272421628 0.00047040851366 0.00046811793035 
0.00046585122099 0.00046360847098 0.00046138798984 0.00045919173135 0.00045701755436 0.00045486427476 0.00045273183693 0.00045061809797 0.0004485174343 
0.00044643823645 0.0004443740884 0.00044232352564 0.00044028537481 0.0004382582045 0.00043624019651 0.00043423078287 0.0004322284684 0.00043023279156 
0.0004282413877 0.00042625697485 0.00042427880299 0.00042230768974 0.00042034260658 0.00041838499975 0.00041643596282 0.00041449763254 0.00041257104274 
0.00041065844864 0.00040876066356 0.00040688040067 0.00040501720122 0.00040317276874 0.00040134771243 0.00039954229376 0.00039775570663 0.00039598898192 
0.00039424199295 0.00039251364529 0.00039080414518 0.00038911244912 0.00048824052051 0.00048574192892 0.00048327149583 0.0004808294517 0.00047841559305 
0.000476027921 0.00047366621739 0.00047133025794 0.00046901909475 0.00046673263554 0.00046447005994 0.00046223149349 0.00046001599415 0.00045782266974 
0.00045565248886 0.00045350314975 0.00045137510495 0.00044926580967 0.00044717026248 0.00044509648098 0.00044303863017 0.00044099490003 0.00043896353336 
0.00043694379169 0.00043493414237 0.00043293327526 0.00043094065807 0.00042895494632 0.00042697361097 0.00042500087632 0.00042303461739 0.00042107481443 
0.00041912234929 0.00041717778669 0.0004152422958 0.00041331761464 0.00041140426883 0.00040950439951 0.00040762103868 0.00040575248058 0.00040390134481 
0.00040206889435 0.0004002549283 0.00039846044645 0.00039668520376 0.00039492896856 0.00039319165948 0.00039147272645 0.00038977237396 0.00038808970818 
0.00048699634217 0.00048450102943 0.00048203425543 0.00047959578655 0.00047718532136 0.00047480073168 0.00047244227439 0.00047010915185 0.00046780039221 
0.00046551609235 0.00046325568655 0.0004610190779 0.00045880555746 0.00045661467205 0.00045444502069 0.00045229782109 0.00045017101146 0.00044806014734 
0.00044597212165 0.00044390158626 0.00044184723381 0.00043980803857 0.00043778166253 0.00043576719975 0.00043376324985 0.00043176884922 0.00042978380277 
0.00042780451119 0.0004258338413 0.00042387047325 0.00042191418497 0.00041996556737 0.00041802489672 0.00041609247542 0.00041416946927 0.00041225748481 
0.00041035689744 0.00040847146258 0.00040659914591 0.0004047434423 0.00040290470138 0.00040108377022 0.00039928141491 0.00039749747823 0.00039573303795 
0.00039398704066 0.00039225953265 0.00039055023112 0.00038885802876 0.00038718399906 0.00048593417508 0.00048344113403 0.00048097658873 0.00047853975518 
0.00047613074665 0.00047374822954 0.00047139099726 0.00046905874509 0.00046675083063 0.00046446684208 0.00046220688632 0.00045996996343 0.00045775601882 
0.00045556490606 0.00045339490088 0.00045124708236 0.00044912058673 0.00044700963958 0.00044492280628 0.0004428533922 0.0004408009188 0.00043876348236 
0.00043673977603 0.00043472889178 0.00043272875217 0.00043073951756 0.00042875758197 0.00042678609665 0.00042482261008 0.0004228669505 0.00042091955187 
0.00041898039839 0.0004170502059 0.00041512920074 0.00041321808199 0.00041131794797 0.00040942999822 0.00040755712055 0.00040569736012 0.00040385403458 
0.00040202730607 0.00040021811458 0.00039842668848 0.00039665372162 0.00039489983266 0.00039316387624 0.00039144584219 0.00038974548537 0.00038806258458 
0.00038639648416 0.00048505265103 0.00048255998005 0.00048009619466 0.00047765968769 0.00047525073654 0.00047286791157 0.00047051042876 0.00046817767744 
0.00046586877475 0.00046358339667 0.00046132133339 0.00045908234131 0.00045686646713 0.00045467291552 0.00045250163408 0.00045035094008 0.00044821790509 
0.00044610977626 0.00044402144388 0.0004419515707 0.0004398985503 0.00043786155295 0.00043583890375 0.00043382949101 0.00043183218855 0.0004298451088 
0.00042786654315 0.00042589945788 0.00042394104472 0.00042199222316 0.00042005186356 0.00041812109365 0.00041620027892 0.00041428916759 0.0004123891028 
0.0004105004402 0.00040862613115 0.00040676439926 0.00040491731732 0.00040308543754 0.00040127031045 0.00039947301456 0.00039769265597 0.00039593033536 
0.00039418591226 0.00039245968578 0.00039075083704 0.00038905956145 0.00038738510997 0.00038572734687 0.00048434906661 0.00048185616725 0.00047939145791 
0.00047695399267 0.00047454344397 0.00047215882091 0.00046979925906 0.00046746424448 0.00046515237627 0.00046286392344 0.00046059860549 0.00045835578936 
0.00045613546758 0.00045393812768 0.00045176232506 0.00044960885574 0.00044747118917 0.00044535980666 0.00044326812468 0.00044119638807 0.00043914148211 
0.00043710327939 0.00043507976798 0.00043307009306 0.0004310731477 0.00042908563139 0.00042711082328 0.00042514610352 0.00042319168796 0.00042124738045 
0.00041931337458 0.0004173896714 0.00041547682558 0.0004135753123 0.00041168554452 0.00040980885186 0.00040794504427 0.00040609497867 0.00040425978393 
0.00040244015618 0.00040063636972 0.0003988494181 0.00039707996347 0.000395327895 0.00039359307939 0.00039187563774 0.0003901759291 0.00038849312279 
0.00038682698835 0.00038517669067 0.0004838218669 0.00048132715156 0.000478860731 0.00047642068396 0.00047400732597 0.00047161923855 0.000469256035 
0.00046691674308 0.00046460072889 0.00046230742356 0.00046003661112 0.00045778873423 0.00045556256673 0.00045335904857 0.00045117795606 0.00044901408405 
0.00044687576784 0.00044475975428 0.00044266394925 0.00044058813475 0.00043853010319 0.00043648876672 0.00043446307213 0.00043245208639 0.00043045234845 
0.00042846643301 0.00042649173933 0.0004245283523 0.00042257643156 0.00042063550031 0.00041870618676 0.00041678857431 0.00041488310556 0.00041298975983 
0.00041111034855 0.0004092429929 0.00040738975169 0.00040555114012 0.00040372728516 0.00040191876024 0.00040012651985 0.00039834975088 0.00039659020288 
0.00039484763624 0.00039312243953 0.00039141355332 0.00038972214314 0.00038804732355 0.00038638825465 0.00038474555416 0.00048346748133 0.00048097004466 
0.00047850053159 0.0004760570186 0.00047363947518 0.00047124678703 0.00046887850147 0.00046653308775 0.00046421079242 0.00046191131013 0.00045963425207 
0.00045737904724 0.00045514590963 0.00045293524704 0.00045074239268 0.00044857628216 0.00044643200256 0.00044430871726 0.00044220780953 0.0004401264491 
0.00043806421467 0.00043601909629 0.00043399008118 0.00043197593295 0.00042997385225 0.00042798630808 0.00042601101441 0.00042404772548 0.00042209655895 
0.00042015821501 0.00041823238578 0.00041631950569 0.00041442002876 0.00041253538076 0.00041066347762 0.00040880560259 0.00040696240947 0.00040513426854 
0.00040332139382 0.00040152341868 0.00039974171184 0.00039797509995 0.00039622490727 0.00039449119805 0.00039277407001 0.0003910734887 0.00038938930575 
0.00038772174588 0.00038606990314 0.00038443434985 0.00048328155983 0.00048078099475 0.00047830677422 0.00047585879192 0.0004734355322 0.00047103632093 
0.00046866148309 0.0004663093818 0.00046398011585 0.0004616728038 0.00045938745896 0.00045712421533 0.00045488257779 0.00045266349206 0.00045046217387 
0.00044828821801 0.00044613656706 0.00044400641702 0.00044189855738 0.00043981112904 0.0004377434566 0.00043569363976 0.00043365985239 0.00043163999403 
0.00042963597228 0.00042764621225 0.00042566915779 0.00042370456478 0.00042175347469 0.00041981604931 0.00041789246854 0.00041598322969 0.0004140900965 
0.00041221068197 0.00041034618562 0.00040849728799 0.00040666339197 0.00040484536966 0.00040304242944 0.00040125447542 0.00039948198092 0.00039772488655 
0.00039598331862 0.0003942577581 0.0003925484754 0.00039085524045 0.00038917795156 0.00038751678594 0.00038587176686 0.0003842424567 0.00048325820383 
0.00048075337051 0.00047827381771 0.00047581954166 0.00047338974687 0.00047098317642 0.00046860029667 0.00046624040212 0.00046390218695 0.00046158605731 
0.00045929165785 0.00045701912074 0.00045476816928 0.00045253484447 0.00045032881126 0.00044814604329 0.00044598632845 0.00044384901347 0.00044173278952 
0.00043963861617 0.0004375641932 0.00043550905467 0.00043346850876 0.00043144551796 0.00042943764086 0.00042744373683 0.00042546370753 0.00042349759503 
0.00042154531145 0.00041960785149 0.00041768565475 0.00041577905328 0.00041389008346 0.00041201627686 0.00041015840712 0.00040831713599 0.00040649198778 
0.00040468261832 0.000402888836 0.00040111023688 0.00039934615499 0.00039759750911 0.00039586410407 0.00039414618478 0.000392443722 0.0003907560961 