# vtk DataFile Version 5.1
vtk output
ASCII
DATASET STRUCTURED_POINTS
DIMENSIONS 50 50 50
SPACING 0.002 0.002 0.002
ORIGIN 0.1742 -0.052672 0.02732
POINT_DATA 125000
FIELD FieldData 1
potential 1 125000 double
<<<<<<< HEAD
0.0013866694915 0.0013971429997 0.0014077192117 0.0014183992275 0.0014291872526 0.0014400805902 0.0014510815183 0.0014622023494 0.001473423026 
0.0014847546235 0.0014961978902 0.0015077540793 0.0015194243427 0.0015312123558 0.0015431193897 0.0015551475711 0.0015673209835 0.0015795916765 
0.001591983469 0.0016045317675 0.0016171610025 0.0016299045469 0.0016427560004 0.0016557227332 0.0016688039244 0.0016819968476 0.0016953112154 
0.0017087547512 0.0017223339983 0.0017360637237 0.0017499543731 0.0017640166887 0.0017782585015 0.001792685669 0.0018073087684 0.0018221262177 
0.0018371409314 0.0018523529243 0.0018677624344 0.0018833722071 0.0018986765262 0.001914686779 0.0019309073441 0.0019473493365 0.0019640127213 
0.0019809092998 0.0019980482357 0.0020154356959 0.0020330736517 0.0020509713597 0.0013969062008 0.0014075049338 0.0014182071522 0.0014290149804 
0.001439932958 0.0014509576709 0.0014620906071 0.0014733458748 0.0014847010889 0.0014961686124 0.0015077467077 0.0015194375999 0.0015312442508 
0.0015431679561 0.0015552102447 0.0015673741348 0.0015796862711 0.0015920908768 0.0016046179899 0.0016173002803 0.0016300638368 0.0016429424923 
0.0016559340069 0.0016690368101 0.0016822623196 0.0016956013433 0.0017090659458 0.0017226634434 0.0017364030249 0.0017502994852 0.001764359787 
0.0017785978524 0.0017930201135 0.0018076363423 0.0018224476737 0.0018374626682 0.0018526799115 0.0018680993722 0.0018837225188 0.0018990402883 
0.0019150696438 0.0019313095584 0.0019477662186 0.0019644471012 0.0019813555199 0.0019985019585 0.0020158975652 0.0020335448583 0.0020514492937 
0.0020696190101 0.0014065390542 0.0014172619845 0.0014280891244 0.0014390241199 0.0014500677098 0.0014612239996 0.0014724899096 0.0014838769971 
0.0014953651487 0.0015069663715 0.0015186778236 0.0015305025673 0.0015424429768 0.0015544997465 0.0015666755083 0.001579002333 0.0015914174877 
0.0016039528537 0.0016166094479 0.0016294220241 0.0016423171445 0.0016553265501 0.0016684490879 0.0016816884546 0.0016950500005 0.0017085317059 
0.0017221424185 0.0017358919581 0.0017497895657 0.0017638477702 0.0017780761492 0.0017924859758 0.0018070858345 0.0018218849069 0.0018368847066 
0.0018520928632 0.0018675087775 0.0018831332315 0.0018984548758 0.0019144940314 0.001930746965 0.0019472147024 0.0019639047521 0.0019808250647 
0.0019979762232 0.0020153731648 0.0020330194627 0.0020509253839 0.0020690925629 0.0020875288579 0.0014154366036 0.0014262799038 0.0014372302792 
0.0014482898239 0.0014594595181 0.0014707438401 0.0014821484248 0.0014936541093 0.0015052733124 0.0015170044117 0.001528847049 0.0015408029207 
0.0015528742918 0.0015650614475 0.0015773663373 0.0015898246035 0.0016023656742 0.001615027688 0.0016278452952 0.0016407445831 0.0016537653802 
0.0016669011675 0.0016801524049 0.0016935247155 0.0017070171951 0.0017206367526 0.0017343908666 0.0017482866886 0.001762337224 0.001776552007 
0.0017909435643 0.0018055217124 0.0018202963323 0.0018352726167 0.0018504582614 0.0018658533681 0.0018814646192 0.0018972912278 0.0019128117449 
0.0019290651502 0.0019455371871 0.0019622302578 0.0019791505099 0.0019963067482 0.002013698143 0.0020313373392 0.0020492325051 0.0020673887351 
0.0020858149857 0.0021045145735 0.0014234966473 0.001434456171 0.0014455258991 0.0014567067216 0.0014679985398 0.0014794031233 0.0014909354333 
0.0015025663592 0.0015143120316 0.0015261703235 0.0015381395298 0.0015502226217 0.001562419974 0.00157473284 0.0015871996371 0.0015997460186 
0.0016124097585 0.0016251931222 0.0016381313359 0.0016511513523 0.0016642917796 0.0016775457183 0.0016909223531 0.0017044216596 0.0017180428982 
0.0017317952139 0.0017456864006 0.0017597255802 0.0017739238252 0.0017882918066 0.0018028410021 0.0018175812759 0.0018325229836 0.0018476730207 
0.0018630373549 0.0018786179932 0.0018944182184 0.0019099179811 0.0019261565246 0.0019426191152 0.0019593052838 0.0019762179628 0.0019933633944 
0.0020107502666 0.0020283745205 0.0020462519089 0.0020643872175 0.0020827897048 0.0021014649348 0.0021204172222 0.0014306531956 0.0014417232187 
0.0014529068864 0.0014642021391 0.0014756122796 0.001487134804 0.0014987866293 0.0015105396064 0.0015224064326 0.0015343875205 0.001546478503 
0.0015586838807 0.0015710028193 0.0015834356571 0.0015960242024 0.0016086890219 0.0016214706996 0.0016343691677 0.0016474232369 0.0016605584219 
0.0016738130074 0.0016871845102 0.0017006803903 0.001714303453 0.0017280505991 0.0017419319823 0.001755954813 0.0017701322318 0.0017844730363 
0.0017989884234 0.0018136893281 0.0018285877244 0.0018436910148 0.0018590089807 0.0018745443432 0.0018903035325 0.0019057613748 0.001921969207 
0.0019384045319 0.0019550695407 0.0019719636676 0.0019890922665 0.0020064534036 0.0020240619865 0.0020419113898 0.0020600178093 0.0020783862441 
0.0020970236713 0.002115937453 0.0021351322944 0.0014368796727 0.0014480552928 0.0014593452403 0.0014707501916 0.0014822712745 0.0014939081114 
0.0015056750262 0.001517543452 0.0015295260086 0.0015416220185 0.0015538292098 0.0015661508059 0.0015785850498 0.0015911775424 0.0016038413893 
0.0016166186415 0.0016295117644 0.0016425580406 0.001655685991 0.0016689335428 0.0016823004679 0.0016957860702 0.0017093981088 0.001723138359 
0.0017370084605 0.0017510145377 0.0017651675224 0.0017794776212 0.0017939565442 0.0018086139274 0.0018234622813 0.0018385130041 0.0018537732652 
0.0018692519319 0.0018849529616 0.0019003555793 0.0019165124822 0.001932902614 0.0019495267425 0.0019663859065 0.0019834810007 0.0020008123602 
0.0020183824476 0.0020362027027 0.0020542696459 0.0020725954098 0.0020911861928 0.0021100476954 0.002129190192 0.0021486147057 0.0014421958163 
0.0014534703421 0.0014648601958 0.0014763692187 0.0014879959832 0.0014997506258 0.001511611552 0.001523592181 0.0015356837874 0.0015478897421 
0.0015602082833 0.0015726389075 0.0015851836723 0.0015978885318 0.0016106608632 0.0016235452023 0.0016365461987 0.0016497026144 0.0016629395067 
0.0016762949462 0.0016897701418 0.0017033673387 0.0017170930148 0.0017309485416 0.0017449383412 0.0017590677023 0.0017733479987 0.0017877877547 
0.0018024004516 0.001817197215 0.0018321896143 0.0018473863491 0.0018627974077 0.0018784300427 0.0018937625289 0.0019098533501 0.0019261797815 
0.0019427456517 0.0019595497461 0.0019765953033 0.0019938799795 0.0020114055023 0.0020291780118 0.0020471968254 0.002065469413 0.0020840041732 
0.0021028057438 0.0021218820004 0.0021412417197 0.0021608871916 0.0014466595839 0.001458025624 0.0014695112118 0.0014811158643 0.0014928409171 
0.0015046967576 0.0015166596807 0.0015287418526 0.0015409377152 0.0015532471944 0.0015656716833 0.0015782075847 0.0015909064854 0.0016036682236 
0.0016165447871 0.0016295352591 0.0016426405763 0.0016559015654 0.0016692444937 0.0016827061046 0.0016962891761 0.0017099967394 0.0017238342841 
0.0017378061828 0.0017519120911 0.0017661647701 0.0017805707756 0.0017951402515 0.0018098836224 0.0018248159447 0.0018399474524 0.0018552873798 
0.0018708436441 0.0018866276511 0.0019021053356 0.0019183544763 0.0019348443774 0.0019515775946 0.001968557482 0.0019857756254 0.0020032415592 
0.0020209519703 0.0020389148675 0.002057126247 0.0020755933428 0.0020943244831 0.0021133284166 0.0021326074202 0.0021521711118 0.0021720240992 
0.0014503715181 0.0014618228282 0.0014733958785 0.0014850905124 0.0014969072554 0.0015088579097 0.0015209166825 0.0015330917441 0.0015453869257 
0.0015577946398 0.0015703185096 0.0015829540687 0.0015957544095 0.0016086175759 0.0016215943232 0.001634685837 0.0016479318747 0.0016612594299 
0.0016747058252 0.0016882744489 0.0017019657996 0.0017157860617 0.001729737123 0.001743825489 0.0017580511287 0.0017724253446 0.0017869564986 
0.0018016536814 0.0018165301695 0.0018315938329 0.0018468607137 0.0018623400203 0.0018780388941 0.0018934281041 0.0019095879862 0.0019259897317 
0.0019426352342 0.0019595298379 0.0019766717071 0.0019940586934 0.0020116970433 0.0020295834918 0.0020477266904 0.0020661223731 0.0020847745557 
0.0021036932394 0.0021228856979 0.0021423573168 0.0021621171171 0.0021821692526 0.001453455314 0.0014649868831 0.0014766427587 0.0014884216167 
0.0015003372281 0.0015123628034 0.001524508859 0.0015367754652 0.0015491624712 0.0015616631763 0.0015742792115 0.0015870640526 0.0015999097288 
0.0016128711734 0.0016259473269 0.001639138978 0.0016524869397 0.001665916548 0.0016794674382 0.001693143456 0.0017069449908 0.0017208761141 
0.0017349415238 0.0017491479896 0.0017634940881 0.0017779929635 0.0017926505906 0.0018074790738 0.0018224877531 0.0018376886422 0.0018530900832 
0.0018687065475 0.0018840039286 0.0019000693388 0.0019163735665 0.0019329225892 0.0019497214963 0.0019667684771 0.0019840663543 0.0020016159426 
0.0020194170355 0.0020374706806 0.0020557843053 0.0020743522578 0.0020931799222 0.0021122761969 0.0021316496864 0.0021513050961 0.0021712526497 
0.002191470659 0.0014560619139 0.0014676689082 0.0014794018013 0.0014912585188 0.0015032545523 0.0015153624685 0.0015275927768 0.0015399448631 
0.0015524153805 0.0015650051715 0.0015777105994 0.0015905908004 0.0016035298138 0.0016165865184 0.0016297598014 0.0016430514776 0.0016565006929 
0.0016700345905 0.0016836935998 0.0016974779406 0.0017113913201 0.001725436595 0.0017396233797 0.0017539469555 0.0017684180567 0.0017830452053 
0.00179783248 0.0018127928091 0.0018279346525 0.001843270808 0.0018588105298 0.0018740221144 0.0018899936025 0.001906199217 0.001922646396 
0.0019393400316 0.0019562829142 0.0019734781524 0.001990927809 0.0020086319023 0.0020265898239 0.0020448038776 0.0020632791733 0.0020820133166 
0.0021010095226 0.0021202775671 0.002139824676 0.0021596315111 0.0021797596444 0.002200183113 0.0014583453183 0.0014700240837 0.0014818291246 
0.0014937622059 0.0015058323512 0.0015180183331 0.0015303289398 0.0015427610566 0.0015553137661 0.0015679884668 0.0015807809173 0.0015937526984 
0.001606783538 0.0016199350028 0.0016332049782 0.0016466342167 0.0016601500852 0.0016737887456 0.0016875553531 0.0017014523843 0.001715481587 
0.0017296466686 0.0017439561032 0.0017584055071 0.001773004503 0.0017877602118 0.001802683486 0.0018177786605 0.0018330582695 0.0018485320274 
0.0018642090054 0.0018795512952 0.0018956623434 0.0019120070567 0.0019285962932 0.0019454307539 0.0019625160028 0.0019798558606 0.0019974530311 
0.0020153076101 0.0020334172742 0.0020517856463 0.0020704210749 0.00208931416 0.0021084767019 0.0021279123997 0.0021476022993 0.0021676093626 
0.0021879105234 0.0022085108441 0.0014604635646 0.0014722107544 0.0014840852513 0.0014960888838 0.0015082334959 0.0015204928779 0.001532877963 
0.0015453883494 0.001558020361 0.0015707755361 0.0015837183563 0.0015967184663 0.0016098406408 0.0016230863358 0.001636454094 0.0016499851591 
0.0016636052928 0.0016773535743 0.0016912319597 0.001705245264 0.0017193935843 0.0017336842702 0.0017481188344 0.001762698923 0.0017774312723 
0.0017923220932 0.0018073807362 0.0018226149174 0.0018380327151 0.0018536474192 0.0018689149299 0.0018849442152 0.0019011959269 0.0019176825282 
0.001934409679 0.0019513846543 0.0019686126361 0.0019860957086 0.00200383742 0.0020218377989 0.0020400975166 0.0020586199839 0.0020774091366 
0.0020964620493 0.0021157866319 0.0021353593306 0.0021552477171 0.0021754237009 0.0021958982503 0.0022166753003 0.0014625608031 0.0014743735864 
0.0014863158527 0.0014984024418 0.0015106057616 0.0015229350505 0.0015353939246 0.001547980882 0.0015606928638 0.0015735293891 0.0015865596631 
0.0015996466303 0.0016128618336 0.0016262020387 0.0016396691452 0.0016533049593 0.0016670324436 0.0016808945763 0.0016948894356 0.00170902345 
0.0017232941888 0.0017377113873 0.0017522757619 0.0017669894641 0.0017818586923 0.0017968907894 0.0018120909013 0.0018274686462 0.0018430314588 
0.001858237573 0.001874193935 0.0018903659696 0.0019067634786 0.0019233929429 0.0019402603578 0.0019573769858 0.0019747465565 0.0019923735546 
0.0020102594152 0.0020284059635 0.0020468151839 0.0020654889073 0.0020844351792 0.0021036454344 0.0021231040458 0.0021428734713 0.0021629285048 
0.0021832766458 0.0022039262568 0.0022248780855 0.0014647676386 0.0014766451976 0.0014886536498 0.0015008088891 0.0015130809586 0.0015254839756 
0.0015380157858 0.0015506780146 0.0015634681277 0.0015764558094 0.0015895028115 0.0016026808916 0.0016159889857 0.0016294286901 0.001642998486 
0.0016567406038 0.0016705795419 0.0016845554551 0.0016986705867 0.0017129255681 0.0017273258959 0.0017418745365 0.001756574404 0.0017714264131 
0.0017864372501 0.001801614304 0.00181696072 0.0018324859164 0.0018476439065 0.0018635419843 0.0018796466694 0.0018959647484 0.001912509365 
0.001929284659 0.0019462973527 0.0019635582898 0.0019810733989 0.0019988439936 0.002016876916 0.0020351717104 0.0020537319662 0.0020725591083 
0.0020916620833 0.0021110034714 0.0021306554921 0.002150593684 0.0021708206935 0.0021913438669 0.0022121714086 0.0022333030249 0.001467191667 
0.0014791343929 0.0014912106828 0.0015034337718 0.0015157758082 0.0015282507225 0.0015408576536 0.0015535960105 0.0015664664109 0.0015795413614 
0.0015926759579 0.0016059451074 0.0016193473861 0.0016328851484 0.0016465983984 0.0016604105319 0.001674364274 0.0016884593556 0.0017026972491 
0.0017170812521 0.0017316129848 0.0017462957535 0.0017611370027 0.0017761319659 0.0017912889076 0.0018066127515 0.0018221093712 0.0018377853584 
0.0018530887982 0.0018691392329 0.0018853952224 0.0019018648179 0.0019185570839 0.0019354820004 0.0019526456098 0.0019700544988 0.0019877178739 
0.0020056377882 0.0020238180707 0.0020422653522 0.002060980288 0.0020799319691 0.0020991971363 0.0021187346584 0.0021385582112 0.0021586667921 
0.0021790687934 0.002199771861 0.0022207808683 0.0022430610649 0.0014699206339 0.0014819297736 0.0014940739368 0.001506367517 0.0015187814522 
0.0015313295972 0.0015440141247 0.0015568300043 0.001569782116 0.0015829437488 0.0015961673879 0.0016095279088 0.0016230312836 0.001636671676 
0.0016504915919 0.001664417496 0.0016784888407 0.0016927062129 0.0017070706735 0.0017215862567 0.0017362537754 0.0017510763053 0.0017660600218 
0.0017812009824 0.0017965068168 0.0018119832179 0.0018276328947 0.0018429050223 0.0018589144577 0.0018751217491 0.0018915343169 0.0019081605699 
0.0019250073147 0.0019420851157 0.0019594012224 0.0019769658339 0.0019947789144 0.002012852889 0.0020311887775 0.0020497916853 0.002068632471 
0.0020877814638 0.0021072108387 0.0021269196951 0.0021469197832 0.0021672054144 0.0021877905782 0.0022086787951 0.0022308363978 0.0022523593791 
0.0014730171785 0.0014850951144 0.0014973242093 0.0015096767244 0.001522165299 0.0015347897813 0.0015475507142 0.0015604498126 0.0015735626799 
0.0015867380764 0.0016000540418 0.0016135113059 0.0016271162042 0.0016408644457 0.0016547975817 0.0016688385174 0.0016830300351 0.0016973729642 
0.0017118683342 0.0017265173266 0.0017413248147 0.001756288751 0.0017714188622 0.0017867093635 0.001802167528 0.0018177974901 0.0018330451624 
0.0018490261207 0.0018651956081 0.0018815624718 0.0018981357472 0.001914919159 0.001931927763 0.0019491653494 0.0019666388972 0.0019843612784 
0.0020023360019 0.0020205669001 0.002039063004 0.0020577955486 0.0020768361806 0.0020961531867 0.0021157569193 0.0021356448943 0.0021558234154 
0.0021762985253 0.0021970706818 0.0022181502021 0.0022405168472 0.0022622396319 0.001476528533 0.0014886783192 0.0015009807548 0.0015134087165 
0.001525973561 0.0015386784231 0.0015515221518 0.0015645060926 0.0015777099666 0.0015909772967 0.0016043901563 0.0016179486944 0.0016316557302 
0.0016455170879 0.0016595636733 0.0016737248918 0.0016880408617 0.0017025118484 0.0017171408281 0.0017319279275 0.0017468766657 0.0017619859736 
0.001777263506 0.001792707043 0.0018083201383 0.001824109477 0.0018395077815 0.0018556495848 0.0018719823957 0.0018885131567 0.001905248205 
0.001922197906 0.0019393706078 0.0019567724242 0.0019744108146 0.0019922963243 0.0020104366606 0.0020288344291 0.0020474636869 0.0020664003443 
0.0020856140207 0.002105107787 0.0021248951103 0.0021449654955 0.0021653327434 0.0021860004005 0.0022069692796 0.0022292211462 0.0022508354838 
0.0022727624595 0.0014804849675 0.001492710426 0.0015050900966 0.0015175951453 0.0015302425456 0.0015430306092 0.001555960022 0.0015691142399 
0.0015823321478 0.0015956971017 0.0016092101708 0.0016228739664 0.0016366902223 0.0016507029088 0.0016648307857 0.0016791127068 0.0016935564829 
0.0017081591748 0.0017229237611 0.0017378511481 0.0017529445378 0.0017682020308 0.0017836320974 0.0017992300163 0.0018150006288 0.0018303834221 
0.001846502699 0.0018628082925 0.0018793076281 0.0018960051568 0.0019129095698 0.0019300301036 0.0019473701145 0.0019649420479 0.001982750964 
0.0020008081872 0.002019120052 0.0020376544703 0.0020564963915 0.0020756110301 0.0020950036239 0.002114683569 0.002134660161 0.0021549228083 
0.0021754860316 0.0021963565969 0.0022175315625 0.0022400072286 0.002261830862 0.0022839742179 0.0014849098743 0.001497209737 0.0015096705005 
0.0015222585237 0.0015349908117 0.001547865398 0.0015608842971 0.0015741358053 0.0015874507137 0.0016009165612 0.0016145342292 0.0016283065241 
0.0016422354181 0.001656363539 0.00167061466 0.0016850239388 0.0016995974273 0.0017143347737 0.0017292384737 0.001744309076 0.001759549235 
0.0017749575567 0.0017905403523 0.0018062966152 0.0018216624954 0.0018377658909 0.0018540487579 0.0018705239992 0.0018871929229 0.0019040624281 
0.0019211406981 0.0019384330198 0.0019559484847 0.0019736951663 0.0019916818208 0.0020099163823 0.0020283692944 0.0020471218648 0.0020661473338 
0.0020854493063 0.0021050317311 0.0021249028788 0.0021450756558 0.0021655412013 0.002186309535 0.0022073866306 0.0022297586481 0.0022514841748 
0.0022735275261 0.0022958970283 0.0014898049289 0.0015021873932 0.0015147332272 0.0015274073686 0.001540227095 0.0015531930155 0.0015663079301 
0.001579660274 0.0015930761317 0.0016066468524 0.0016203735549 0.0016342578715 0.0016483036752 0.0016625521051 0.0016769285588 0.0016914664893 
0.0017061738387 0.0017210487722 0.0017360963553 0.0017513114185 0.0017667002163 0.001782262536 0.0017980033679 0.0018139165196 0.0018294419046 
0.0018457100955 0.0018621634285 0.001878809367 0.0018956501791 0.0019126946983 0.0019299498651 0.0019474207025 0.0019651177773 0.0019830452012 
0.0020012157992 0.0020195957269 0.0020382729639 0.0020572146466 0.0020764305212 0.0020959259479 0.002115707208 0.0021357810822 0.0021561567284 
0.0021768314921 0.0021978122984 0.0022191142815 0.0022417164988 0.0022636672951 0.0022859449446 0.0023085521282 0.0014951785874 0.0015076616159 
0.0015202816093 0.0015330449173 0.0015459579595 0.0015590198926 0.0015723233728 0.0015856899588 0.0015992118663 0.0016128918741 0.0016267305233 
0.001640732123 0.0016548990611 0.0016692713267 0.0016837740544 0.0016984463082 0.0017132904309 0.001728308056 0.0017434990026 0.0017588638832 
0.0017744058828 0.0017901248954 0.0018060220384 0.0018215322613 0.0018377855709 0.0018542217906 0.0018708481594 0.0018876676834 0.0019046873236 
0.0019219116659 0.0019393456557 0.0019570007706 0.0019748824739 0.001992998484 0.0020113166486 0.0020299268599 0.0020487983874 0.0020679363067 
0.0020873525849 0.0021070498915 0.0021270366669 0.0021473228916 0.0021679125534 0.002188804005 0.0022100124689 0.0022325174146 0.0022543805889 
0.0022765706786 0.0022990916385 0.0023219447705 0.0015010343657 0.0015136109443 0.0015263180073 0.0015391761154 0.0015521861332 0.0015653470298 
0.0015787558607 0.0015922288053 0.0016058600756 0.0016196525172 0.0016336085665 0.0016477301303 0.0016620597866 0.0016765213868 0.0016911546211 
0.0017059642827 0.0017209484714 0.0017361094094 0.0017514486295 0.001766966002 0.0017826648687 0.0017985400831 0.001814036104 0.0018302714641 
0.0018466930106 0.0018633040356 0.001880107737 0.0018971042664 0.0019143029905 0.001931709716 0.0019493304412 0.001967172502 0.0019852449267 
0.0020035119647 0.0020220665862 0.0020408758136 0.0020599475686 0.0020792908494 0.0020989138092 0.0021188208406 0.0021390248186 0.0021595269111 
0.0021803410253 0.0022014620827 0.0022238736045 0.0022456499929 0.002267756876 0.0022901924402 0.0023129664718 0.0023360760445 0.0015073708813 
0.0015200414434 0.0015328430182 0.0015457982639 0.0015589086597 0.001572173465 0.0015856915913 0.0015992749785 0.0016130190989 0.0016269287272 
0.0016410050478 0.0016552505457 0.001669705427 0.0016842980957 0.0016990686298 0.0017140154724 0.0017291446886 0.0017444537416 0.0017599432448 
0.0017756181383 0.0017914751359 0.001807516464 0.0018231733971 0.0018395809066 0.0018561751089 0.0018729624553 0.0018899430148 0.0019071229515 
0.0019245060213 0.0019420977291 0.0019599088161 0.0019779454955 0.0019961709443 0.0020146795207 0.0020334354751 0.0020524502927 0.0020717297227 
0.002091286132 0.0021111233445 0.0021312495711 0.0021516757805 0.0021724055206 0.002193450473 0.0022148073604 0.0022374707831 0.0022594923932 
0.0022818497881 0.0023045398464 0.0023275753612 0.0023509531002 0.0015141893731 0.0015269569495 0.0015398570674 0.0015529138275 0.0015661284196 
0.0015795966721 0.0015931293544 0.0016068254299 0.0016206869804 0.0016347168727 0.0016489169844 0.0016632910064 0.0016778801956 0.0016926079401 
0.0017075170375 0.0017226067039 0.0017378835638 0.0017533436981 0.0017689893621 0.0017848231785 0.0018008445128 0.0018164843337 0.0018328757838 
0.0018494560275 0.0018662285695 0.0018831950627 0.0019003598832 0.0019177246323 0.0019352951438 0.0019530807383 0.0019710877036 0.001989275719 
0.0020077446462 0.0020264576262 0.0020454229703 0.0020646506721 0.0020841456568 0.0021039188728 0.0021239809597 0.0021443356135 0.0021649922221 
0.0021859574731 0.0022072389939 0.0022298195803 0.0022517665835 0.0022740458131 0.0022966608499 0.0023196169999 0.0023429230158 0.002366579472 
0.001521492855 0.0015343601523 0.0015473657535 0.0015605250349 0.0015738470078 0.0015874301038 0.00160107704 0.0016148900365 0.0016288713834 
0.0016430250063 0.0016573528885 0.0016718583552 0.0016865825257 0.0017014490203 0.001716499427 0.0017317361984 0.0017471607882 0.0017627789159 
0.0017785851644 0.0017945828312 0.0018107707532 0.0018265797982 0.0018431442452 0.0018599027899 0.0018768551702 0.0018940047379 0.0019113572231 
0.0019289132064 0.0019466780997 0.0019646603197 0.0019828183896 0.002001255428 0.0020199323076 0.0020388561375 0.0020580359577 0.0020774824223 
0.0020971989014 0.0021172010408 0.0021374909381 0.0021580821767 0.0021789788647 0.002200184613 0.0022217179777 0.0022445591836 0.0022667668043 
0.0022893075402 0.0023121956225 0.0023354285923 0.002359011691 0.0023829579558 0.0015293070563 0.0015422631341 0.0015553744958 0.0015686406679 
0.001582176093 0.0015957735708 0.0016095372871 0.0016234702399 0.0016375758857 0.0016518556261 0.0016663153016 0.0016809936489 0.0016958161306 
0.0017108252164 0.001726021531 0.0017414090887 0.0017569898891 0.0017727649004 0.001788737067 0.0018049018078 0.001820690008 0.0018372411019 
0.0018539840761 0.0018709263905 0.00188806354 0.0019054033594 0.0019229454499 0.001940697247 0.0019586602093 0.0019767951003 0.0019952043245 
0.0020138487853 0.0020327388046 0.0020518798707 0.0020712808734 0.0020909517396 0.0021108994922 0.0021311351395 0.0021516625076 0.0021724979693 
0.0021936408664 0.0022150995826 0.0022378675145 0.0022600024227 0.002282477257 0.0023052953941 0.0023284611163 0.0023519805306 0.002375858662 
0.0024000709433 0.0015376092945 0.0015506697763 0.0015638901315 0.0015772668151 0.0015909185843 0.0016046322244 0.0016185167985 0.0016325738342 
0.0016468067473 0.0016612174709 0.001675808981 0.0016906251818 0.0017055897611 0.001720743975 0.0017360924373 0.0017516344407 0.0017673737509 
0.00178331125 0.001799449631 0.0018152185757 0.0018317469764 0.0018484782441 0.0018654073827 0.0018825360977 0.0018998649534 0.001917396487 
0.0019351336434 0.0019530852127 0.0019712011878 0.0019895901992 0.0020082084067 0.0020270671211 0.0020461749227 0.0020655377221 0.0020851669462 
0.0021050688084 0.0021252546757 0.002145730666 0.0021665078988 0.0021875908265 0.0022089867858 0.0022307118158 0.0022537553584 0.0022761604577 
0.00229890739 0.0023220086061 0.0023454615764 0.0023692483117 0.0023934289597 0.0024179804531 0.0015464204868 0.0015595906663 0.0015729215854 
0.001586415926 0.0016001838037 0.0016140174055 0.0016280250089 0.0016422097074 0.0016565722808 0.0016711161225 0.0016858451049 0.0017008023576 
0.001715911075 0.0017312156652 0.0017467159883 0.0017624181837 0.0017783188065 0.0017944236352 0.0018107312579 0.001826675648 0.0018433857652 
0.001860304043 0.0018774206914 0.0018947398305 0.0019122636873 0.0019299930749 0.0019479336442 0.0019660362549 0.0019844080299 0.0020030070225 
0.0020218408725 0.0020409192781 0.0020602502638 0.0020798426212 0.0020997051406 0.0021198447497 0.0021402780133 0.0021610033755 0.0021820347534 
0.0022033772009 0.0022250358512 0.002248002219 0.0022703489984 0.0022930324559 0.0023160647806 0.0023394554184 0.002363180217 0.0023873012007 
0.0024117947795 0.0024366632193 0.0015557508091 0.0015690330386 0.0015824797554 0.00159620149 0.0016099818861 0.0016239385901 0.001638072338 
0.0016523864833 0.0016668817329 0.0016815620342 0.0016964302646 0.0017115331777 0.0017267895798 0.0017422455628 0.0017579039402 0.0017737660996 
0.0017898347398 0.0018061108234 0.0018220270853 0.0018387179096 0.0018556157223 0.0018727216154 0.0018900317564 0.0019075476212 0.0019252721565 
0.0019432059388 0.001961299337 0.0019796593385 0.0019982436811 0.002017057065 0.0020361120458 0.0020554146229 0.0020749789573 0.0020948046668 
0.0021149068114 0.0021352936599 0.0021559736945 0.0021769576045 0.002198248155 0.0022198543418 0.0022417862625 0.0022650347699 0.0022876605052 
0.0023106314176 0.0023339616185 0.0023576231196 0.0023816813886 0.0024061155955 0.0024309277908 0.0024561282681 0.0015656048877 0.0015790025046 
0.0015925675544 0.0016064136692 0.0016203200723 0.0016344010343 0.0016486650299 0.0016631090451 0.0016777397661 0.0016925603125 0.0017076134752 
0.0017228221228 0.0017382305682 0.0017538424978 0.0017696605605 0.0017856883781 0.0018019267405 0.0018183790745 0.0018344733462 0.0018513482864 
0.0018684387447 0.0018857404363 0.0019032479863 0.0019209652514 0.0019388936849 0.0019569831382 0.0019753369381 0.0019939103299 0.0020127094194 
0.0020317486372 0.0020510289015 0.0020705611626 0.0020903574904 0.0021104244868 0.002130774185 0.0021514134839 0.0021723519675 0.0021935964167 
0.0022151574116 0.0022370352651 0.0022592482908 0.0022827863482 0.0023057002792 0.0023289642887 0.002352567749 0.0023765648676 0.0024009368338 
0.0024256927209 0.0024508368952 0.0024763799731 0.0015759838568 0.0015895017495 0.0016031875526 0.0016171614254 0.0016311939398 0.001645402863 
0.0016597990612 0.0016743797459 0.0016891501149 0.0017041128342 0.0017193111861 0.0017346712215 0.0017502334064 0.0017660052393 0.0017819859513 
0.0017981834224 0.0018145974748 0.0018306614582 0.0018475074589 0.0018645736637 0.001881858093 0.0018993592415 0.0019170687675 0.0019349917218 
0.0019530770692 0.0019714325645 0.0019900008311 0.0020087912373 0.0020278122716 0.0020470743208 0.0020665839322 0.0020863510342 0.002106387812 
0.0021267042962 0.0021473065975 0.0021682074226 0.0021894089563 0.0022109260635 0.0022327598884 0.0022549198777 0.0022783962264 0.0023012507928 
0.0023244330861 0.0023480021519 0.002371939331 0.0023962512788 0.0024209459587 0.0024460326089 0.002471521189 0.0024974153531 0.0015868819429 
0.0016005232971 0.0016144522513 0.0016284372398 0.001642599894 0.0016569414345 0.0016714710411 0.0016861913609 0.0017011019512 0.001716210416 
0.0017315588304 0.0017470718499 0.0017627920244 0.001778724014 0.0017948732963 0.001811244349 0.001827272376 0.0018440835936 0.001861119194 
0.0018783789779 0.0018958608847 0.0019135677337 0.001931487704 0.0019495693134 0.0019679186369 0.0019864849982 0.0020052717623 0.0020242861626 
0.0020435327129 0.0020630245803 0.0020827693233 0.0021027779732 0.002123063253 0.0021436331708 0.002164496739 0.0021856618732 0.0022071363601 
0.0022289289557 0.0022510459305 0.0022734926358 0.0022972654229 0.0023203913216 0.0023439057899 0.002367783558 0.002392034784 0.0024166666761 
0.0024416934972 0.00246712224 0.0024929627851 0.0025192172225 0.0015982739813 0.0016120428958 0.0016261027913 0.0016402181664 0.0016545148074 
0.0016689947304 0.0016836599946 0.0016985192 0.0017135756683 0.0017288342903 0.0017443339023 0.0017600019505 0.0017758838134 0.0017919833806 
0.0018083034311 0.0018248497277 0.0018410564989 0.0018580561161 0.0018752844105 0.0018927479077 0.0019104326491 0.0019283431918 0.0019464216478 
0.0019647688203 0.0019833349997 0.0020021211707 0.002021130478 0.0020403711739 0.0020598494261 0.0020795728467 0.0020995595894 0.0021198158389 
0.0021403535222 0.0021611821257 0.0021823132257 0.0022037508543 0.0022255031406 0.0022475778588 0.0022699850105 0.002293700698 0.0023167768361 
0.0023402345349 0.0023640600288 0.0023882492757 0.0024128216211 0.0024377856187 0.0024631525136 0.0024889309571 0.0025151305826 0.002541755782 
0.0016101232287 0.0016240228557 0.0016382179694 0.0016524684806 0.0016669011998 0.0016815204093 0.0016963267607 0.0017113307023 0.001726534848 
0.0017419417076 0.0017575970692 0.0017734271455 0.0017894713612 0.0018057397089 0.0018222331094 0.0018383940132 0.0018553510804 0.0018725426723 
0.0018899684655 0.0019076295793 0.0019255209642 0.0019435881545 0.0019619327109 0.0019804979247 0.0019992841761 0.0020182947188 0.0020375311296 
0.0020570011765 0.0020767133622 0.002096678772 0.0021169072645 0.0021374147192 0.0021582159753 0.0021793121607 0.0022007136082 0.0022224290308 
0.0022444666055 0.002266832151 0.0022895324231 0.0023135274353 0.0023369373452 0.0023607047377 0.0023848438485 0.0024093545023 0.0024342582572 
0.0024595590754 0.0024852733254 0.0025114082024 0.0025379729241 0.0025649819447 0.0016223682649 0.0016365277022 0.0016507368473 0.0016651273962 