# vtk DataFile Version 5.1
vtk output
ASCII
DATASET STRUCTURED_POINTS
DIMENSIONS 50 50 50
SPACING 0.002 0.002 0.002
ORIGIN 0.1742 -0.052672 0.02732
POINT_DATA 125000
FIELD FieldData 1
potential 1 125000 double
<<<<<<< HEAD
0.0075714903535 0.0077009464512 0.0078335408288 0.0079689220711 0.008107486332 0.0082491193935 0.0083940143206 0.0085422650533 0.0086939604958 
0.0088491938909 0.0090080613496 0.0091706792158 0.0093371407151 0.0095075616652 0.0096821038355 0.0098607912248 0.01004375718 0.010231267235 
0.010423078438 0.010619407159 0.01082053969 0.011026490804 0.011236834234 0.01145267318 0.011673744848 0.011900150177 0.012132082125 
0.012369715851 0.012613244579 0.012862884674 0.01311881904 0.013381239647 0.013650312371 0.013926120909 0.014209056571 0.014499018685 
0.014796179972 0.015100655896 0.015412558007 0.015731984726 0.016059068327 0.016393955569 0.016736796174 0.017087743679 0.017446966536 
0.017814598747 0.018190813357 0.018575677021 0.01896926688 0.019371837423 0.0075105265418 0.0076379041876 0.0077681179848 0.0079012414047 
0.0080376824573 0.0081768961513 0.0083192597658 0.0084648717175 0.0086138257389 0.0087661930208 0.0089220770335 0.0090815648469 0.0092447658408 
0.0094117859965 0.0095827200294 0.0097577370784 0.0099368159952 0.010120106935 0.010307739773 0.010499872057 0.010696248716 0.010897340418 
0.01110315588 0.011313293472 0.011528872028 0.011749630928 0.011975684355 0.012207157728 0.01244429494 0.012687295387 0.01293631468 
0.013191546774 0.01345312497 0.01372123489 0.013995908644 0.014277490353 0.014565869272 0.0148612007 0.015163579338 0.015473111509 
0.015789904689 0.016114041236 0.016445736506 0.016785084403 0.017132243741 0.017487329043 0.017850512062 0.018221830596 0.018601377661 
0.018989251984 0.0074469661721 0.0075722643357 0.0077003094743 0.0078311917792 0.0079649791705 0.0081018647147 0.0082419280122 0.0083849098872 
0.0085311174532 0.0086806396206 0.0088335391981 0.008989931912 0.0091498894845 0.0093135208583 0.0094809299228 0.009652177529 0.009827440218 
0.010006701122 0.010190101458 0.010377745304 0.01056974236 0.010765983331 0.010966784368 0.011172144226 0.011382000785 0.011597104865 
0.011817348265 0.012042811736 0.0122737129 0.012510197944 0.012752431084 0.013000622517 0.013254882622 0.013515394383 0.01378215678 
0.014055459804 0.014335349848 0.014621800957 0.014914949394 0.015214895902 0.015521732759 0.015835563558 0.016156510144 0.016484637451 
0.016820176467 0.017163221638 0.01751386681 0.017872206199 0.018238271653 0.018612150432 0.0073801100551 0.0075033113033 0.007629191547 
0.007757811318 0.0078892591558 0.008023703375 0.0081610279219 0.0083013882651 0.0084450569609 0.0085917214185 0.0087416328929 0.0088949177281 
0.0090516363028 0.0092118884118 0.0093757518349 0.0095433344632 0.0097146773848 0.0098899626951 0.010069160906 0.01025240686 0.010439823112 
0.010631501623 0.01082714262 0.011027474201 0.011232359631 0.011441617867 0.011656065144 0.011875607606 0.012100310919 0.012330380757 
0.012565987363 0.012807278335 0.013054394515 0.013307434169 0.013566556972 0.013831734043 0.01410328568 0.014381097031 0.014665270676 
0.014955911781 0.01525307809 0.015556883695 0.015867425658 0.01618480813 0.016509145053 0.016840479142 0.017179036043 0.017524845827 
0.01787795899 0.01823841079 0.0073094351152 0.0074305010358 0.0075541864015 0.0076805367676 0.007809616977 0.0079414969394 0.0080763787335 
0.0082140787533 0.0083548005214 0.0084985929478 0.0086457078784 0.0087958644378 0.0089493291369 0.0091061852162 0.0092665080314 0.00943038786 
0.0095978977523 0.0097691121052 0.0099441529175 0.010123033243 0.01030589252 0.010492828144 0.010683857423 0.010878946186 0.01107835807 
0.011282240585 0.011491047465 0.011704677863 0.011923300275 0.012147051355 0.01237609966 0.01261057996 0.012850635506 0.013096370048 
0.013347907574 0.013605315946 0.013868574676 0.014137977392 0.014413396821 0.014694963508 0.014982736136 0.01527679127 0.015577221308 
0.015884118167 0.016197581296 0.016517725876 0.01684460762 0.017178227733 0.017518793047 0.017866273433 0.0072345987376 0.0073535016845 
0.0074749412413 0.0075989807134 0.0077256757594 0.0078550699081 0.0079873552906 0.0081223872701 0.0082603128984 0.0084012107488 0.0085451237825 
0.0086921439085 0.0088425202542 0.008995962191 0.0091527196524 0.0093128879406 0.009476536194 0.0096437131703 0.0098145326043 0.0099890901945 
0.010167405108 0.010349576818 0.010535794305 0.010726019815 0.010920141614 0.01111872733 0.01132156548 0.011529511265 0.01174208895 
0.011959592155 0.012182161041 0.01240994563 0.01264304886 0.012881595984 0.01312565183 0.013375325944 0.013630590469 0.013891680632 
0.014158564239 0.01443125285 0.014709859105 0.014994407284 0.015284981142 0.015581675217 0.015884569009 0.016193756638 0.016509291628 
0.016831239621 0.01715965778 0.017494450278 0.0071556780144 0.0072723805662 0.0073913289273 0.0075130161954 0.0076372655586 0.0077641482566 
0.0078938196579 0.0080261250415 0.00816123919 0.0082991990635 0.008440063987 0.0085839213079 0.0087308140186 0.0088808266151 0.0090341945508 
0.0091906206724 0.0093503732976 0.0095135471735 0.0096801597421 0.0098503320195 0.010024156248 0.010201663392 0.010383033361 0.010568233349 
0.010757460248 0.010950541252 0.011147993015 0.011349688102 0.011556341536 0.011767672933 0.011983950934 0.012205114912 0.012431368133 
0.01266281802 0.012899529328 0.013141610024 0.013389098521 0.013641962476 0.01390040528 0.014164436693 0.014434032958 0.01470927611 
0.014990220434 0.015276941239 0.015569528289 0.015868036926 0.016172518317 0.016483032659 0.016799648248 0.017122323313 0.0070723388504 
0.0071867988028 0.0073036411518 0.0074227175305 0.007544498099 0.007668808221 0.0077957157778 0.0079253879649 0.0080576463382 0.0081926370987 
0.008330439573 0.008471080137 0.0086146498505 0.0087612104738 0.0089108074128 0.0090635020298 0.0092195376411 0.0093786817425 0.0095411202047 
0.0097069585955 0.0098762390792 0.010049124262 0.010225609016 0.010405880675 0.010589956762 0.010777896731 0.010969831026 0.011165872982 
0.011366408296 0.011571649644 0.011781522641 0.01199614924 0.012215731715 0.012440181529 0.012669678471 0.012904268351 0.013144022186 
0.013388979245 0.013639080448 0.013894544977 0.014155342355 0.014421456194 0.014692958876 0.014969920296 0.01525239433 0.015540462268 
0.015834164211 0.016133536474 0.01643864423 0.016749462702 0.0069851128631 0.0070972888146 0.007211777015 0.0073286241018 0.0074476743959 
0.0075693951639 0.0076936128061 0.0078204877055 0.0079498517451 0.0080818544104 0.0082165507865 0.0083539663514 0.0084941929511 0.0086372736121 
0.0087832683939 0.0089322321014 0.0090842171669 0.0092393188437 0.009397772708 0.0095592808823 0.009724112826 0.009892340835 0.010064095658 
0.01023936865 0.010418392447 0.010601154211 0.010787741562 0.010978258862 0.011172554234 0.011371872278 0.011575546154 0.011783723583 
0.011996552548 0.012214121971 0.012436576179 0.012663802017 0.012895949968 0.013133046607 0.013375127657 0.013622109366 0.013874219102 
0.014131401432 0.014393661746 0.014661064529 0.014933659254 0.01521150801 0.015494675663 0.015783173749 0.016077043692 0.016376259112 
0.0068945114252 0.0070043595452 0.0071164473881 0.0072308265432 0.0073475361435 0.0074666249183 0.0075879159398 0.0077118584548 0.0078384051525 
0.0079673850622 0.0080989593988 0.0082331401675 0.0083700075637 0.008509610444 0.008651995281 0.0087972236087 0.0089453562512 0.0090964529003 
0.0092505892183 0.0094078426387 0.0095682560359 0.009732066783 0.009899069334 0.010069471916 0.01024350727 0.010421078217 0.010602388273 
0.010787462889 0.010976397196 0.011169128724 0.011366731406 0.011568564571 0.011774821892 0.011985626607 0.012200983355 0.012420976189 
0.012645633129 0.012875094249 0.01310919301 0.013347946157 0.013591548669 0.013839933453 0.014093141081 0.014351173212 0.01461411055 
0.014881979217 0.015154847701 0.015432717848 0.015715650447 0.016003599037 0.006801178199 0.0069086729945 0.0070183432278 0.0071302203508 
0.0072443618758 0.0073607770161 0.0074795214562 0.0076004219062 0.0077240370804 0.0078499794576 0.007978404166 0.0081093389213 0.0082428524634 
0.0083789909693 0.0085177905922 0.0086593029668 0.0088036053765 0.0089507438441 0.0091007766029 0.0092538123545 0.0094098644213 0.0095690200518 
0.0097313772669 0.0098971423438 0.01006613173 0.010238675871 0.010414703596 0.010594341084 0.010777864174 0.010965082992 0.011156022892 
0.011351647186 0.011551554832 0.011755662233 0.011964129216 0.012177024563 0.012394361955 0.012616138557 0.012842409189 0.013073224712 
0.013308414731 0.013548197078 0.013792534602 0.014041420607 0.014294889244 0.014553022385 0.014815843728 0.015083366028 0.015355624487 
0.015632630458 0.0067058872183 0.0068110114883 0.0069182381889 0.0070275957536 0.0071391387584 0.0072528831787 0.007368859048 0.0074871212805 
0.0076076779627 0.0077304805448 0.0078557630347 0.0079834690749 0.0081136356263 0.0082463237845 0.0083815636111 0.0085194064492 0.0086599139825 
0.0088031449066 0.008949158012 0.0090980077354 0.0092497884338 0.0094045217705 0.0095623208802 0.0097232465303 0.0098873885617 0.010054890952 
0.010225932852 0.010400316661 0.010578229246 0.010759966558 0.010945349463 0.011134563702 0.011327812483 0.011525512531 0.011727209777 
0.011933111822 0.012143226702 0.012357604369 0.012576202574 0.012799057392 0.013026153505 0.013257448888 0.013493159211 0.013733107552 
0.013977365414 0.014225977202 0.014479012852 0.014736469898 0.014998363262 0.015264670841 0.0066094205844 0.0067121730812 0.006816950352 
0.0069237911682 0.0070327223947 0.0071437924722 0.0072570146591 0.0073724124356 0.00749003124 0.0076100077748 0.0077319687377 0.0078564620423 
0.0079833140262 0.0081125889894 0.0082443074681 0.0083785284624 0.0085153079524 0.0086546894378 0.0087967455362 0.008941523506 0.0090890835479 
0.0092395078496 0.0093928527333 0.0095491924614 0.0097085859168 0.009871156644 0.010037017886 0.010206198015 0.01037890209 0.010555057306 
0.010734867396 0.010918214037 0.011105280774 0.011296233001 0.01149136371 0.011690579121 0.011893630356 0.012100712842 0.01231185203 
0.012526978192 0.012746101305 0.012969170611 0.013196389642 0.013427628522 0.013662987677 0.013902385669 0.014145883844 0.014393574177 
0.014645404204 0.014901371689 0.0065125805343 0.0066129678108 0.0067153038016 0.006819629087 0.0069259745638 0.0070343691909 0.0071448369814 
0.0072574108447 0.0073721053624 0.0074889670097 0.0076081421424 0.0077294559516 0.0078528399025 0.007978751474 0.0081070081072 0.0082376756487 
0.0083707933818 0.0085064112235 0.0086445835162 0.0087853879078 0.0089288465433 0.0090750377296 0.0092240445284 0.009375903062 0.0095306989251 
0.0096885032346 0.0098494127779 0.01001354 0.010180922572 0.010351597377 0.010525839377 0.010703755571 0.010884860353 0.011069557996 
0.011258010306 0.011450461025 0.011646811535 0.011846820817 0.012050624929 0.012258193558 0.012469610591 0.012684792847 0.012903675981 
0.013126484145 0.013353084879 0.013583540447 0.013817870707 0.014056095815 0.014298205821 0.014544182484 0.0064161073888 0.0065141428728 
0.0066140594323 0.0067158957261 0.0068196725178 0.0069254149934 0.0070331607017 0.007142930558 0.0072547523301 0.0073686396986 0.0074847721326 
0.0076029424551 0.0077233154355 0.0078457292417 0.007970596695 0.0080977858794 0.0082273261 0.0083592687922 0.0084936647043 0.0086305744575 
0.0087700308929 0.0089121433918 0.0090568917984 0.0092044102369 0.0093547128604 0.0095079028094 0.0096640346896 0.0098232162358 0.0099855303233 
0.01015103609 0.010319684955 0.010491824309 0.010667391357 0.010846155296 0.011028415539 0.011214422066 0.011403732938 0.011596874001 
0.011793719318 0.011994009224 0.01219785374 0.012405265615 0.012616343806 0.012830859489 0.013049045997 0.013270882543 0.013496318525 
0.013725389394 0.013958117462 0.014194411309 0.0063206566566 0.0064163717894 0.0065138990534 0.0066132751432 0.0067145174098 0.0068176550246 
0.0069227159184 0.007029724146 0.0071387079462 0.0072496987854 0.0073627140671 0.0074779280829 0.007595161013 0.007714532651 0.0078360926351 
0.0079596914208 0.0080857462903 0.00821410847 0.0083448317052 0.008477955655 0.0086135372305 0.0087516420392 0.0088923072412 0.0090355698312 
0.0091815291293 0.0093302419086 0.0094817519169 0.00963614269 0.0097935138915 0.0099538878022 0.010117388173 0.010283927985 0.010453853234 
0.010627015321 0.010802945202 0.010982707609 0.011165836072 0.011352156187 0.011542002438 0.011735229454 0.011931950538 0.012131887897 
0.012335209362 0.012541891748 0.012751884956 0.012965424804 0.013182323625 0.01340260761 0.013626307123 0.013853350542 0.0062267971683 
0.0063202315948 0.006415388661 0.0065123485387 0.0066111036436 0.0067116818215 0.0068141105816 0.0069184141833 0.0070246226774 0.0071327683042 
0.0072428747964 0.0073550957383 0.0074692378823 0.007585462232 0.0077037995566 0.0078242734413 0.0079469370833 0.0080716355794 0.0081987867738 
0.0083282471367 0.0084600619275 0.0085942773179 0.0087309684579 0.0088701563319 0.0090118822167 0.0091562420612 0.009303266692 0.009453025511 
0.0096056005089 0.009761052319 0.0099194351563 0.010080693511 0.01024508981 0.010412628602 0.010583272571 0.01075648957 0.010933405302 
0.011113483353 0.011296475743 0.011482897654 0.011672567444 0.011865428132 0.012061336317 0.012260422127 0.012462691868 0.012668079147 
0.012876710348 0.01308863483 0.013303663685 0.013521795351 0.0061349120004 0.0062261122385 0.0063189981439 0.0064136010589 0.0065099236798 
0.0066079800367 0.0067078396912 0.0068095042377 0.0069130008489 0.0070183682871 0.007125630296 0.0072348193866 0.0073461007814 0.0074592520442 
0.0075744471113 0.0076917124016 0.0078110886201 0.007932598535 0.008056101816 0.0081820082352 0.0083101717103 0.0084406350091 0.0085734598166 
0.0087086661031 0.0088463104434 0.0089864579636 0.0091291444794 0.0092744338395 0.009422370047 0.0095730292473 0.0097264663244 0.0098827476088 
0.010041776941 0.010203806622 0.010368823853 0.010536813606 0.010707166301 0.010881102084 0.011057979785 0.011237849504 0.011420454582 
0.011606294257 0.011795093034 0.011987015961 0.012181867064 0.012379541373 0.012580298467 0.012784034884 0.012990736186 0.013200367131 
0.0060453336445 0.0061343588858 0.0062250082212 0.0063173041551 0.0064112638719 0.0065069082423 0.0066042698613 0.0067033512877 0.0068042158147 
0.0069068833351 0.0070113795336 0.0071177377596 0.0072261185671 0.0073363280833 0.0074484785049 0.0075626160225 0.0076787976298 0.0077970376901 
0.007917358892 0.008039816491 0.0081642726878 0.0082910964552 0.0084201849365 0.0085515462432 0.0086852339647 0.0088212894054 0.0089597797575 
0.0091007401034 0.0092442121731 0.0093902613148 0.0095389220176 0.0096902468423 0.009844310942 0.010001012949 0.010160613028 0.010322955084 
0.010488158118 0.010655557416 0.010826335724 0.010999922512 0.011176339953 0.011355280568 0.011537269142 0.011722084552 0.011909707005 
0.012100245412 0.012293375763 0.012489397729 0.012688150301 0.012889618484 0.0059582509736 0.0060451650179 0.0061336501319 0.0062237129636 
0.0063153741774 0.0064086784133 0.0065036091688 0.0066002219789 0.0066985353723 0.0067985749981 0.0069004009635 0.0070040226479 0.0071094760737 
0.0072169208906 0.0073261221976 0.0074372544683 0.0075503348047 0.0076654011577 0.0077824792157 0.0079015951347 0.0080227973008 0.0081460989759 
0.0082713837417 0.0083990349801 0.0085288947351 0.0086610158945 0.0087954213347 0.0089321841874 0.0090713618294 0.0092129567446 0.0093570281886 
0.0095036177087 0.0096527833888 0.0098045104146 0.0099587575633 0.010115787616 0.010275454063 0.010437710675 0.010602070922 0.010769622125 
0.010939849208 0.01111269646 0.011287949741 0.011466049283 0.011646804737 0.011830182283 0.012016160366 0.012204678094 0.012395984375 
0.012589671834 0.0058738561854 0.0059587219006 0.0060450922985 0.0061329931426 0.0062224333266 0.006313434754 0.0064060243372 0.0065002294114 
0.0065960798714 0.0066936266044 0.0067928598778 0.0068938157667 0.0069965522392 0.0071012127205 0.0072075823777 0.0073157749753 0.007425871988 
0.0075378681452 0.0076517843328 0.007767673846 0.0078855592863 0.0080054462419 0.008127398049 0.0082512807939 0.008377431017 0.0085057469457 
0.0086362223755 0.0087689376712 0.0089039302612 0.0090412459059 0.0091809031584 0.0093229386866 0.0094673546695 0.0096142555982 0.0097635859806 
0.0099153803651 0.01006968578 0.010226539663 0.010385843988 0.010547400379 0.010711352202 0.010878149789 0.011047416741 0.011219126478 
0.01139306253 0.011569732953 0.011748836428 0.01193036517 0.012114229692 0.012300506741 0.0057922492705 0.0058750703223 0.0059594072027 
0.0060452028921 0.006132492515 0.0062212929619 0.0063116135054 0.0064034972366 0.0064969665872 0.0065920550621 0.0066887894794 0.0067871957254 
0.0068873079873 0.0069891561939 0.0070928619164 0.0071982598792 0.0073054502484 0.0074144741808 0.0075253523355 0.0076381168219 0.0077527790191 
0.0078693739505 0.0079879255647 0.0081084905776 0.0082310584124 0.0083555256387 0.0084822105157 0.00861103353 0.0087420034423 0.0088751685298 
0.0090105619004 0.0091482036694 0.0092881451494 0.0094303366098 0.0095748866004 0.0097216744105 0.0098709593878 0.010022526528 0.010176518185 
0.010332799277 0.010491191482 0.010651817277 0.010815121704 0.010980777292 0.011148703614 0.011318690293 0.011491228988 0.011666032549 
0.011843056399 0.012022225326 0.0057133224719 0.0057942241539 0.0058765945221 0.0059603651569 0.0060455752005 0.0061322345578 0.0062203826146 
0.0063100262129 0.0064011965621 0.0064939276357 0.0065882437689 0.0066841768672 0.0067817523728 0.0068809954201 0.0069820468267 0.007084692678 
0.0071890706086 0.007295209868 0.0074031470899 0.0075128728216 0.0076244354713 0.0077378420237 0.0078531374585 0.0079703162521 0.0080894330876 
0.008210500046 0.0083335385294 0.0084584362047 0.0085855371865 0.0087147134781 0.0088460039623 0.0089794217194 0.0091150121523 0.0092527471427 
0.009392658875 0.0095348160125 0.0096790905558 0.0098257150622 0.0099745097726 0.010125573976 0.010278789453 0.01043398655 0.010591256297 
0.010751052342 0.010913002493 0.011077179096 0.011243443461 0.011411572577 0.01158204204 0.011754479451 0.0056371183097 0.0057161683531 
0.0057966380641 0.0058784553449 0.0059616574155 0.0060462628389 0.0061322927577 0.0062197715774 0.0063087323574 0.0063991913094 0.0064911745612 
0.0065847179216 0.0066798433531 0.0067765704647 0.0068749331406 0.006975041396 0.007076720116 0.0071800867928 0.00728516003 0.0073919517257 
0.0075005093795 0.0076108305771 0.0077229412173 0.0078368731246 0.0079526552668 0.0080702621391 0.008189780485 0.008311198704 0.0084345746616 
0.008559776099 0.008687107437 0.0088164918665 0.0089478930217 0.0090813459897 0.0092168582739 0.0093544387395 0.0094941567361 0.009635858436 
0.0097797966593 0.0099258207718 0.010073862695 0.010223989105 0.010375962831 0.010529841763 0.010686124759 0.010844395935 0.011004695903 
0.011167005191 0.011330975136 0.011497115765 0.0055636053866 0.0056409338406 0.0057194949361 0.005799429728 0.0058807015159 0.0059633146382 
0.0060473091409 0.0061327016839 0.0062195144863 0.0063077858097 0.0063975220125 0.0064887525746 0.0065815109409 0.0066758101041 0.006771676851 
0.0068692324733 0.0069682923686 0.0070689680547 0.0071712882903 0.0072752518586 0.0073809046309 0.0074882414804 0.0075972950076 0.0077080823657 
0.0078206229294 0.0079349556765 0.0080510780242 0.0081689850591 0.0082887618904 0.0084104136722 0.0085339590489 0.0086592682339 0.0087866643173 
0.0089160025186 0.0090472958082 0.009180538215 0.009315784704 0.0094529483513 0.0095921128032 0.009733265317 0.0098764429749 0.010021499903 
0.010168518629 0.010317247547 0.010467720332 0.010620437155 0.010775055206 0.010931511292 0.01108980211 0.011249893416 0.005492737883 
0.0055683410737 0.0056451268686 0.0057232392825 0.0058026413931 0.0058833377785 0.0059653638161 0.0060487429487 0.006133489347 0.0062196332514 
0.0063071940431 0.0063962031266 0.0064866730818 0.0065786252113 0.0066720904137 0.0067670711719 0.0068637027102 0.0069617847091 0.0070614330237 
0.0071626723127 0.0072655118705 0.0073699773015 0.0074760768941 0.0075838376988 0.0076932658442 0.0078044079425 0.0079172466434 0.0080318187312 
0.008148134042 0.0082662129432 0.0083861112764 0.0085078220636 0.0086313720452 0.0087566276263 0.00888386423 0.0090129658768 0.0091438765979 
0.0092767412632 0.0094113971437 0.0095479000183 0.0096862931034 0.009826581753 0.0099686340708 0.01011252169 0.010257988775 0.010405052699 
0.010554232549 0.010705147892 0.010857778417 0.011012058518 0.0054244478575 0.0054983841994 0.0055734545451 0.005649805611 0.005727407046 
0.0058062670274 0.005886393606 0.0059678248467 0.0060505794289 0.0061346766994 0.0062201386003 0.0063069919523 0.0063952503901 0.0064849467326 
0.0065760881739 0.0066686832798 0.006762872206 0.0068584433794 0.0069555160764 0.0070541233108 0.0071542585137 0.0072559520667 0.0073591946743 
0.0074640321981 0.0075704659687 0.0076785119754 0.007788215993 0.007899543083 0.008012528673 0.0081272099678 0.00824360766 0.0083617105172 
0.0084815576384 0.0086031545723 0.0087265041845 0.0088514930717 0.0089783514379 0.0091069338063 0.0092373559134 0.0093694635705 0.0095033297773 
0.009638937557 0.0097763210651 0.0099153570696 0.010056082266 0.010198288194 0.010342319793 0.010487569412 0.010634817924 0.010783620691 
0.0053587040982 0.0054310255295 0.0055045014283 0.005579096471 0.0056549572858 0.0057320220128 0.0058103298298 0.0058898792075 0.005970704825 
0.0060528259121 0.0061362602911 0.0062210332527 0.0063071637693 0.0063946628928 0.0064835574578 0.0065738520743 0.0066655673675 0.0067588346508 
0.0068534237915 0.0069494902616 0.007047008696 0.0071460287249 0.007246534703 0.0073485479419 0.0074520919842 0.0075571734759 0.0076638345548 
0.0077720510133 0.007881848527 0.0079932462871 0.0081062671702 0.0082209320522 0.0083372485425 0.0084551883948 0.0085748116087 0.0086961051199 
0.0088190450146 0.0089435135876 0.0090697678258 0.009197733269 0.0093272995103 0.0094585173097 0.0095912880744 0.009725764684 0.0098617786498 
0.0099993471761 0.010138292912 0.010278926812 0.010420622222 0.010564205289 0.0052954524208 0.005366223742 0.0054381009249 0.0055110497315 
0.0055852255792 0.005660574735 0.0057371084894 0.0058148434054 0.005893806622 0.0059740176953 0.0060555011384 0.006138264009 0.0062223291956 
0.0063077207641 0.0063944405182 0.0064825160083 0.0065719489635 0.0066627640108 0.006755086451 0.0068486887261 0.0069436975337 0.0070401329752 
0.0071379929469 0.0072373051213 0.0073380599039 0.0074402970996 0.0075440130643 0.0076492479711 0.0077559704141 0.0078642139323 0.0079739980454 
0.0080853438104 0.0081982590395 0.0083127394971 0.0084287874483 0.0085464174138 0.0086656030582 0.0087863747302 0.0089086669446 0.0090324615834 
0.0091579426606 0.0092849834518 0.0094134503353 0.0095434290487 0.0096750222633 0.0098080014904 0.0099424342307 0.010078123347 0.010215358177 
0.01035355936 0.0052346732462 0.0053039260402 0.0053742675487 0.0054456292371 0.0055181729233 0.0055918539325 0.0056666780102 0.0057426682556 
0.0058198357187 0.0058981939828 0.0059777800451 0.0060586071245 0.0061406857705 0.0062240322756 0.0063086719807 0.0063946039962 0.0064818391269 
0.0065704017219 0.0066604069071 0.0067516471327 0.0068442354864 0.0069381870649 0.0070335052689 0.0071302060578 0.0072282986319 0.0073277879232 
0.0074286828392 0.0075310340621 0.0076347985844 0.0077400237913 0.0078467008094 0.0079548543024 0.0080645070802 0.0081756396255 0.0082882685401 
0.0084023846112 0.0085179937517 0.0086351045954 0.0087536862655 0.0088736791411 0.0089951847284 0.009118079696 0.0092425362852 0.0093683109176 
0.0094955019341 0.0096241887755 0.0097541596226 0.009885467009 0.010017924586 0.010151807238 0.0051763169984 0.0052441201705 0.0053129576016 
0.0053828527473 0.0054537618632 0.0055258235131 0.0055990009833 0.0056732970552 0.0057487286774 0.0058253110205 0.0059030693867 0.0059820149407 
0.0060621701058 0.0061435507774 0.0062261624037 0.0063100380605 0.006395157787 0.0064815493804 0.0065692147252 0.0066582998344 0.0067485568519 
0.0068401172105 0.0069329873386 0.0070271746368 0.0071226930904 0.0072195455808 0.0073177461619 0.0074172955621 0.007518239199 0.007620548273 
0.0077242434859 0.007829351447 0.0079358602366 0.0080437927566 0.0081531451008 0.008263906733 0.008376079882 0.0084896561814 0.0086046415145 
0.0087210208254 0.0088387183738 0.0089578467035 0.0090783556062 0.0092001276584 0.0093232561749 0.0094476194883 0.0095734134464 0.0097003962049 
0.0098286037328 0.0099578513596 0.0051203594459 0.0051867485174 0.0052541501835 0.0053225570745 0.0053919504386 0.0054624557085 0.0055340284691 
0.0056066907612 0.0056804446938 0.005755310291 0.0058312986995 0.0059084380102 0.0059867402389 0.0060662144273 0.0061468825856 0.0062287584592 
0.0063118421423 0.0063961431531 0.0064816801274 0.006568568584 0.0066565876071 0.006745844709 0.0068363629301 0.0069281392877 0.0070211830663 
0.0071155003488 0.0072110967766 0.0073079859574 0.007406202152 0.0075057037571 0.0076065428581 0.0077087110738 0.0078122280013 0.0079170754861 
0.0080232837904 0.0081308315317 0.0082397205673 0.0083499395168 0.0084614775392 0.0085743328629 0.0086884995308 0.0088038893795 0.008920610765 
0.0090386303418 0.009157927668 0.0092783192943 0.0093999406808 0.0095228502724 0.0096468501342 0.0097719846402 0.0050667586809 0.0051317875442 
0.0051977928401 0.0052647688763 0.0053327552371 0.0054016977496 0.0054717319828 0.0055427958507 0.0056149290022 0.0056881334249 0.0057624255889 
0.0058378156962 0.0059143229031 0.0059919702719 0.0060707604963 0.0061507171277 0.0062318316457 0.0063141233491 0.0063976067062 0.0064822743781 
0.0065682524539 0.0066553111097 0.0067435562184 0.0068330126259 0.0069236773837 0.0070155554789 0.0071086530116 0.0072029839493 0.0072985527574 
0.0073953918389 0.0074934801816 0.0075928245839 0.007693461512 0.0077953678939 0.0078985622171 0.008003032182 0.0081087736784 0.0082157809887 
0.0083240306696 0.0084335208552 0.0085442547737 0.0086561767196 0.0087692840497 0.0088836152399 0.0089991323104 0.0091158922414 0.0092336957755 
0.0093525368002 0.0094725502767 0.0095936544441 0.0050154700318 0.0050791861693 0.0051438384157 0.0052094430442 0.005276000355 0.0053434762464 
0.0054120227173 0.0054815628942 0.0055521297109 0.0056237263067 0.0056963752627 0.0057700859192 0.0058448661111 0.0059207419482 0.0059977227211 
0.0060758256958 0.0061550592901 0.0062354284848 0.0063169269632 0.0063995688643 0.0064834752346 0.0065684144337 0.0066544829337 0.0067417059409 
0.0068300838641 0.0069196204345 0.0070103170697 0.0071021809869 0.0071952251844 0.0072894830072 0.0073849261371 0.0074815799118 0.0075794450675 
0.007678537459 0.0077788326774 0.0078803606507 0.007983087289 0.0080870224833 0.0081921352317 0.0082984114422 0.0084058600568 0.008514441772 
0.0086241531149 0.0087349624369 0.0088469268333 0.0089599827028 0.0090741954971 0.0091893756847 0.0093055922078 0.009422905883 0.0049664361852 
0.0050288847659 0.0050922304127 0.0051564916372 0.0052216821419 0.0052877508589 0.0053548423958 0.0054229181667 0.0054919619177 0.0055620129717 
0.0056330676762 0.005705157484 0.0057782790776 0.0058524465508 0.0059276818705 0.006004003964 0.0060814233176 0.0061599346607 0.0062395333776 
0.006320234377 0.0064020352801 0.0064850512853 0.0065690375949 0.0066541110385 0.0067402918913 0.0068275715601 0.0069159554138 0.0070054568304 
0.0070960750555 0.0071878353306 0.0072807563331 0.0073748152081 0.0074700402785 0.0075664247891 0.0076639715176 0.0077626637644 0.0078625089549 
0.0079634982364 0.008065607762 0.0081688154936 0.0082731087325 0.0083785074356 0.0084849625963 0.008592475795 0.0087010119334 0.0088106053675 
0.0089212229617 0.0090329244674 0.0091455291208 0.0092590767447 0.0049195418999 0.0049807774119 0.0050428673123 0.0051058298701 0.0051696974095 
0.0052344727367 0.0053001068556 0.0053667379218 0.0054343270099 0.0055028804712 0.0055724007658 0.0056429166805 0.0057144405423 0.0057869749693 
0.0058605334066 0.0059351345869 0.0060108045823 0.0060875268938 0.0061652993494 0.0062441401979 0.0063240231123 0.0064049604613 0.0064870567943 
0.0065700740788 0.0066541426881 0.0067392558214 0.0068254187593 0.0069126436246 0.0070009323085 0.0070902969693 0.0071807725531 0.0072723604536 
0.007365043623 0.0074588304954 0.0075537373845 0.0076497435967 0.007746820221 0.0078449915242 0.0079442301363 0.0080444925023 0.0081458030769 
0.0082481296875 0.0083514846128 0.0084558256391 0.0085611436424 0.0086674146247 0.0087746909091 0.0088829189332 0.0089921270451 0.0091022240295 
0.0048746609836 0.0049347144505 0.0049955978893 0.0050573222935 0.0051199012181 0.0051833613909 0.0052476509624 0.0053129049855 0.0053790757983 
0.0054461795753 0.0055142213087 0.0055832265455 0.0056531961403 0.0057241548671 0.0057961021554 0.005869055953 0.0059430335062 0.0060180376831 
0.006094057647 0.0061710945398 0.0062491389751 0.0063281884362 0.0064083562865 0.006489396558 0.0065714327073 0.0066544656486 0.0067384926929 
0.0068235256968 0.0069095813913 0.0069966611938 0.0070847803272 0.00717396323 0.007264227286 0.0073555402492 0.0074479054091 0.0075413252043 
0.0076357834141 0.0077312486321 0.0078277351975 0.0079252055207 0.0080236489039 0.0081230630731 0.0082234210822 0.0083247356846 0.0084269892403 
0.0085301426498 0.0086341903375 0.0087391815882 0.0088450579488 0.0089518542769 0.004831608188 0.0048905189079 0.0049502305277 0.0050107596281 
0.0050721132919 0.0051342917459 0.005197339471 0.0052611986449 0.0053260055687 0.0053917079375 0.0054583210124 0.0055258616406 0.005594333639 
0.0056637625848 0.0057341668518 0.0058055352997 0.0058778818399 0.0059512350764 0.00602555668 0.0061008615532 0.0061771340624 0.0062543812888 
0.0063325674956 0.0064118299874 0.0064919057031 0.0065729300985 0.0066549053232 0.0067378384876 0.0068217335969 0.0069066167794 0.0069924879637 
0.0070793862547 0.0071673130254 0.0072562420467 0.0073461774764 0.0074371259599 0.0075290610201 0.0076219623728 0.0077158003541 0.0078105931686 
0.0079062960507 0.0080029137872 0.0081004374295 0.008198846032 0.0082981473146 0.0083983296984 0.0084993667019 0.0086012297279 0.0087039815873 