# vtk DataFile Version 5.1
vtk output
ASCII
DATASET STRUCTURED_POINTS
DIMENSIONS 50 50 50
SPACING 0.002 0.002 0.002
ORIGIN 0.1742 -0.052672 0.02732
POINT_DATA 125000
FIELD FieldData 1
potential 1 125000 double
<<<<<<< HEAD
0.00087451596461 0.0008683533814 0.00086225239002 0.00085621107348 0.00085023043064 0.00084430892743 0.00083844605607 0.00083263980751 0.00082689386322 
0.00082120190361 0.00081556484709 0.00080998313144 0.00080445531607 0.00079898381298 0.00079356708737 0.00078820854903 0.00078290554458 0.00077765989301 
0.00077247290598 0.00076734497063 0.00076227295043 0.00075725630032 0.00075229262832 0.00074738288886 0.00074252526955 0.00073771685215 0.00073296326073 
0.00072826573417 0.00072362483769 0.00071904244085 0.00071450856516 0.00071004975841 0.00070565354976 0.0007013191315 0.00069704706559 0.00069283337094 
0.00068867589132 0.00068457024234 0.00068051280058 0.00067650003604 0.00067252801942 0.00066859430704 0.00066469748692 0.00066083228938 0.00065700832995 
0.00065322097947 0.00064947088386 0.00064575871674 0.00064208435456 0.00063844831965 0.00087377381884 0.0008676304047 0.00086154668433 0.0008555227935 
0.0008495593947 0.00084365418213 0.00083780677113 0.00083201870857 0.00082628496977 0.00082060641891 0.00081498119298 0.0008094100942 0.00080389280585 
0.00079842914835 0.00079302114582 0.00078766753019 0.00078237003562 0.00077712873944 0.00077194578891 0.00076681867207 0.00076174686105 0.00075672942911 
0.00075176535773 0.00074685335487 0.00074199426232 0.00073718838466 0.00073243207991 0.00072773468911 0.00072309417178 0.00071851343927 0.00071398148312 
0.00070952544637 0.00070513250255 0.00070080291256 0.00069653417824 0.00069232649368 0.00068817526266 0.00068407644859 0.0006800263878 0.00067602133932 
0.0006720582271 0.00066813397813 0.00066424749193 0.00066039208873 0.00065657863074 0.00065280172648 0.00064906251174 0.00064536110775 0.00064169758175 
0.00063807258771 0.00087266007634 0.00086654013489 0.00086047834014 0.00085447629534 0.00084853298056 0.00084264836678 0.00083682347855 0.0008310516928 
0.00082533608769 0.00081967461061 0.00081406517699 0.00080850880382 0.00080300428685 0.00079755367145 0.00079215358564 0.0007868102601 0.00078152212814 
0.00077628823745 0.00077110991752 0.00076598661554 0.00076091777803 0.00075590176411 0.00075094069804 0.0007460275364 0.00074116942089 0.00073636159356 
0.000731610569 0.00072691614429 0.00072227978869 0.00071770348318 0.00071317705761 0.00070872645809 0.00070434007793 0.00070001730173 0.00069575688745 
0.00069155726495 0.00068741489558 0.00068332568233 0.00067928605011 0.00067529184823 0.00067134031721 0.00066742846957 0.0006635489697 0.00065971180154 
0.00065591103819 0.0006521472134 0.00064842036292 0.00064473189685 0.00064108088264 0.00063746799251 0.00087109462575 0.00086500172197 0.00085896736728 
0.000852991268 0.00084707590432 0.00084121628885 0.00083541246921 0.00082966408343 0.00082397097273 0.00081833061163 0.00081274077393 0.00080720284088 
0.00080171694202 0.0007962802016 0.00079089650259 0.00078556741513 0.00078028984351 0.00077506600432 0.00076989558448 0.0007647784263 0.00075971725481 
0.00075470650689 0.00074974502917 0.00074483789094 0.00073998087336 0.00073518078323 0.00073043578999 0.0007257474381 0.00072111784699 0.00071653677378 
0.00071203168132 0.00070759072884 0.00070321497034 0.0006989029658 0.00069465449772 0.00069046602024 0.00068633608868 0.00068225994493 0.0006782338983 
0.00067425406821 0.00067031713667 0.00066641518201 0.00066255647 0.00065873444654 0.00065494938222 0.00065120050522 0.00064748853864 0.00064381432455 
0.00064017811393 0.00063657970676 0.00086901575129 0.0008629545417 0.00085695197919 0.00085100918771 0.00084512194379 0.00083929094586 0.00083351650498 
0.00082779593585 0.0008221291057 0.0008165137707 0.00081094907431 0.00080543389276 0.00079996797969 0.00079455249905 0.00078918860471 0.00078387626841 
0.00077861469894 0.00077340632711 0.00076824753042 0.00076314090256 0.00075808693848 0.00075308159402 0.00074813090266 0.00074322878543 0.00073838318129 
0.00073359117049 0.00072885577914 0.00072417752089 0.00071955900891 0.00071499039448 0.00071049797503 0.00070607016108 0.00070170805374 0.00069741131522 
0.00069317820698 0.0006890061682 0.00068489171153 0.00068083281802 0.00067682383233 0.00067286171158 0.00066894293058 0.0006650592362 0.00066121900254 
0.00065741537392 0.00065364779994 0.00064991684327 0.00064622228538 0.00064256467589 0.00063894470689 0.00063536150284 0.00086638509238 0.00086035977148 
0.00085439535305 0.00084848586138 0.00084263370842 0.00083683645202 0.00083109492758 0.0008254065175 0.00081977009799 0.00081418554381 0.00080864771754 
0.00080316102711 0.00079772293052 0.00079233213512 0.00078699120319 0.00078170173996 0.00077645939938 0.00077126644141 0.00076612438317 0.00076103246504 
0.00075598924923 0.00075099888814 0.0007460573737 0.00074117187508 0.00073633888542 0.00073156021633 0.00072683811564 0.0007221745373 0.00071755911102 
0.00071301929603 0.00070854367182 0.00070413412656 0.0006997904004 0.0006955128358 0.00069129888627 0.00068714620873 0.00068305230458 0.00067901367072 
0.00067502554742 0.00067108471411 0.0006671821395 0.00066332578905 0.00065950643555 0.00065572391993 0.00065197694057 0.00064826585618 0.00064459065164 
0.00064095077624 0.00063734871266 0.00063378387696 0.00086318926688 0.00085720478462 0.00085127834567 0.0008454086066 0.00083959470316 0.00083383644654 
0.00082813248979 0.00082248050331 0.00081687955994 0.00081132743772 0.00080582465165 0.00080036953685 0.00079495993896 0.0007896014015 0.00078428827913 
0.00077902220726 0.00077380353772 0.00076863307894 0.00076351143566 0.00075843661838 0.0007534142846 0.0007484385713 0.00074351826797 0.00073864973355 
0.00073383441984 0.00072907400991 0.00072437039273 0.00071972603397 0.00071513086159 0.00071061176542 0.00070615800552 0.00070177074592 0.00069745032777 
0.00069319586511 0.00068900496782 0.00068487681442 0.00068080668851 0.00067679191292 0.00067282832118 0.00066891205789 0.00066503373064 0.00066120130541 
0.0006574060533 0.00065364683991 0.00064992223817 0.00064623323909 0.00064257934883 0.00063896062878 0.00063537851683 0.00063183248912 0.00085943665148 
0.00085349655128 0.00084761364566 0.00084178751897 0.00083601637402 0.00083029926507 0.00082463664972 0.0008190260917 0.0008134631857 0.00080795037709 
0.00080248708279 0.00079706703694 0.00079169147148 0.00078636383748 0.00078108235066 0.00077584554961 0.00077065558888 0.00076551021366 0.00076041445887 
0.00075536658627 0.00075036369327 0.00074541493098 0.00074051717194 0.00073567063502 0.00073087842421 0.00072614147506 0.00072146182384 0.00071682871816 
0.00071227107995 0.0007077777028 0.00070335069369 0.00069899033044 0.00069469687043 0.00069046930626 0.00068630696133 0.00068220624132 0.00067816337406 
0.0006741762974 0.00067024002515 0.00066634549389 0.00066249955622 0.00065869337169 0.00065492354045 0.00065118961819 0.00064749013492 0.00064382536124 
0.00064019433335 0.00063659788501 0.00063303739711 0.00062951254442 0.0008551667598 0.00084927316824 0.00084343747419 0.00083765648551 0.00083193186161 
0.0008262614894 0.00082064169568 0.00081507588066 0.00080955760635 0.00080408599895 0.00079866091309 0.00079327881683 0.00078794350051 0.00078265180479 
0.00077740562679 0.00077220334252 0.00076704305668 0.00076193131243 0.00075686644437 0.00075184448894 0.00074687419543 0.00074195373539 0.00073708344264 
0.00073226520444 0.00072750067326 0.00072279238229 0.00071814189071 0.0007135386107 0.00070901038523 0.00070454763952 0.00070015137109 0.00069582199504 
0.00069155956132 0.00068736326497 0.00068323157532 0.00067916172721 0.00067514978363 0.00067119268459 0.00066728681326 0.0006634213253 0.00065960360625 
0.00065582596537 0.00065208525126 0.00064837825993 0.00064470504325 0.00064106514933 0.00063745904831 0.000633884658 0.00063034664587 0.0006268434534 
0.00085043694776 0.00084459257478 0.00083880552413 0.00083307441479 0.00082739833167 0.00082177625464 0.0008162051027 0.00081068229629 0.00080520939016 
0.00079978214372 0.00079440051406 0.0007890609006 0.00078376643503 0.00077851501699 0.00077330708921 0.00076813990653 0.00076301956352 0.00075794370418 
0.00075290959169 0.00074792594892 0.0007429900234 0.00073810356821 0.0007332668555 0.0007284821202 0.00072375135641 0.00071907650635 0.00071445964729 
0.00070989055347 0.00070539750221 0.00070096847641 0.00069660638025 0.00069231186796 0.00068808392764 0.00068392237377 0.00067982451357 0.00067578817253 
0.00067180939717 0.0006678834151 0.0006640037153 0.00066017502958 0.00065638900765 0.00065264112005 0.00064892957261 0.00064525105691 0.00064160518899 
0.0006379903008 0.00063440945244 0.00063086131845 0.00062734737262 0.00062386735178 0.00084532215967 0.00083953049139 0.00083379628826 0.00082811482246 
0.00082248899741 0.00081691477264 0.00081139114498 0.00080591753097 0.00080049173186 0.00079511034474 0.00078977177355 0.00078447821581 0.00077922747273 
0.00077401982714 0.00076885193736 0.00076372877736 0.00075864916054 0.00075360949916 0.00074861864477 0.0007436741595 0.00073877666572 0.00073392764505 
0.00072912899086 0.00072438288171 0.00071969023003 0.00071505361947 0.00071046252893 0.00070594522405 0.0007014906989 0.00069710112755 0.00069277691246 
0.00068852015984 0.00068432990359 0.00068020471557 0.00067614302318 0.00067214115777 0.00066819731857 0.00066430599625 0.00066045920087 0.00065666298829 
0.00065290806566 0.0006491908812 0.00064550760088 0.00064185842682 0.00063824051155 0.00063465411 0.00063109966911 0.00062757710499 0.00062408797833 
0.00062063221906 0.00083991512204 0.00083417633743 0.00082849226717 0.00082286204712 0.00081728668812 0.00081176275429 0.0008062890262 0.00080086382356 
0.00079548509631 0.00079014989424 0.00078485940134 0.00077961209873 0.00077440747049 0.00076924237729 0.00076412167641 0.00075904301023 0.00075400346336 
0.00074901145491 0.00074406443328 0.00073916236067 0.00073430732972 0.00072950079077 0.00072474432488 0.00072004013741 0.00071539001344 0.00071079633262 
0.0007062476897 0.00070177263097 0.00069735995173 0.00069301203485 0.00068872971428 0.00068451349089 0.0006803613278 0.00067627489191 0.00067225135297 
0.00066828696607 0.00066437864981 0.00066051662098 0.00065670896517 0.00065294562127 0.00064922095487 0.00064553455889 0.00064188255795 0.00063826287903 
0.00063467328937 0.00063111456576 0.00062758691217 0.00062409044442 0.00062062660759 0.00061719844357 0.00083430104094 0.00082861600394 0.00082298557005 
0.0008174090163 0.00081188249289 0.00080640882271 0.00080098524114 0.00079560853722 0.00079027781012 0.00078499013204 0.00077974708621 0.00077454420105 
0.0007693869828 0.00076427165672 0.00075919732501 0.00075416173207 0.00074917286567 0.00074422739193 0.00073932588833 0.00073447007501 0.0007296609642 
0.00072490055691 0.00072019046797 0.00071553199655 0.00071092745167 0.00070636550976 0.00070187556234 0.0006974455197 0.00069307795647 0.00068877432063 
0.00068453390567 0.00068036007857 0.0006762501421 0.00067220354979 0.00066821877713 0.0006642915954 0.00066041348886 0.00065659053557 0.00065281650812 
0.00064908585966 0.00064539423395 0.00064173853549 0.00063811709669 0.00063452643122 0.00063096566071 0.00062743500558 0.00062393435407 0.00062046451087 
0.00061702627012 0.00061362305418 0.00082857925899 0.00082294670192 0.00081736793632 0.00081184222198 0.00080636668128 0.0008009421223 0.00079556714675 
0.00079023933274 0.00078495453018 0.00077971544273 0.00077451785825 0.00076936559711 0.00076425608028 0.00075918873492 0.00075415858823 0.00074917531187 
0.00074423498518 0.00073933785849 0.00073448453068 0.00072967732139 0.000724916536 0.00072020486656 0.00071554267876 0.00071093248374 0.000706376193 
0.0007018621607 0.00069741958294 0.00069303531456 0.00068871342717 0.00068445524152 0.00068026098535 0.0006761307226 0.00067206266084 0.00066805629917 
0.00066410833673 0.00066021855907 0.00065637638803 0.00065258924803 0.00064884841651 0.00064514982872 0.00064148935159 0.00063786457342 0.00063427232699 
0.00063071111235 0.00062717900588 0.00062367606389 0.00062020328833 0.00061676015856 0.00061335067973 0.00060996961672 0.00082283164665 0.00081725072827 
0.00081172308973 0.00080624797956 0.00080082264032 0.00079544570502 0.00079011793325 0.00078483779275 0.0007796006327 0.00077440619999 0.0007692584872 
0.00076415350907 0.00075909239163 0.00075406915356 0.00074909178937 0.00074415802849 0.00073926668013 0.0007344193386 0.00072961588589 0.00072485824558 
0.00072014732314 0.00071548532967 0.00071087276583 0.00070631207262 0.00070179056219 0.00069733917804 0.00069294513878 0.00068861007272 0.00068433523128 
0.00068012334474 0.00067597309707 0.00067188412518 0.00066785816617 0.00066389257723 0.00065998388079 0.00065612494037 0.00065232326185 0.00064857016961 
0.0006448615771 0.0006411943323 0.00063756455138 0.00063396930736 0.00063040688395 0.00062687393646 0.00062337041464 0.00061989564076 0.00061645023819 
0.00061303686587 0.00060965041523 0.00060629404616 0.00081713592757 0.00081160497691 0.00080612648902 0.00080069990113 0.00079532251601 0.00078999457459 
0.00078471233598 0.00077947644915 0.0007742841698 0.0007691392617 0.00076403803877 0.00075898020216 0.00075396269755 0.00074899174351 0.00074406377557 
0.00073917878062 0.00073433705062 0.00072953946917 0.00072478652441 0.00072007846789 0.00071541799692 0.00071080490719 0.00070624257849 0.00070173169256 
0.00069726108958 0.00069285909901 0.00068851352922 0.00068422621786 0.00067999696023 0.00067582943248 0.00067172335816 0.00066767791543 0.0006636930482 
0.00065976682367 0.00065589531924 0.00065207176172 0.00064830476736 0.00064458402453 0.00064090707519 0.0006372702657 0.00063367028553 0.00063010419598 
0.00062657026021 0.00062306566664 0.00061958996597 0.00061614298431 0.00061272783146 0.00060933795432 0.00060597739918 0.00060264582696 0.00081155392511 
0.00080607158817 0.00080064067093 0.00079526103837 0.00078993026067 0.00078464788404 0.00077940768754 0.000774217473 0.00076907356816 0.00076397411716 
0.00075891899103 0.0007539034493 0.00074893610254 0.00074401247934 0.00073913237354 0.00073429530829 0.00072950288816 0.00072475386133 0.00072005035216 
0.00071539250869 0.00071078163358 0.00070621948007 0.00070170713255 0.00069723234908 0.0006928238964 0.00068846841283 0.0006841704972 0.00067992954621 
0.00067574739579 0.00067162410068 0.00066756041481 0.00066355589374 0.00065960982456 0.0006557210172 0.00065188041516 0.00064809690166 0.00064436256468 
0.00064067346253 0.00063702645122 0.00063341918727 0.0006298483259 0.00062631026235 0.00062280446062 0.00061932784094 0.0006158798327 0.00061246012218 
0.00060907121381 0.00060570753826 0.00060237228049 0.00059906438447 0.00080613638184 0.00080070044762 0.00079531574968 0.00078998150579 0.00078469570678 
0.0007794547839 0.00077426177185 0.00076911486447 0.00076401442006 0.00075895877307 0.00075394395547 0.00074897719266 0.00074405630176 0.00073917883167 
0.00073434355052 0.00072955438494 0.00072481016853 0.00072011046792 0.0007154554581 0.00071084639945 0.00070628432271 0.00070177066713 0.00069730507031 
0.00069287803402 0.00068851670251 0.00068420963167 0.00067995698976 0.00067576131403 0.00067162193471 0.00066754093252 0.00066351799633 0.00065955284305 
0.00065564423645 0.00065178477536 0.00064798389953 0.00064423363287 0.00064052973139 0.00063687089413 0.00063325326127 0.00062967391901 0.00062613040429 
0.00062262044289 0.00061914133351 0.00061569192443 0.00061227201701 0.00060888101934 0.00060551546195 0.00060217737015 0.00059886602863 0.00059558311529 
0.0008009185867 0.00079552809522 0.0007901877243 0.00078489693243 0.00077965214003 0.00077445488529 0.0007693059963 0.00076420258312 0.00075914375289 
0.00075412675478 0.00074915784121 0.00074423484998 0.00073935814459 0.00073452590785 0.00072973830098 0.00072499479461 0.00072029645905 0.00071564306632 
0.00071103348034 0.00070647117324 0.00070195605299 0.00069748884698 0.0006930574587 0.00068868953411 0.00068437335337 0.00068011001515 0.00067590091836 
0.00067174705879 0.00066764873864 0.00066360726757 0.00065962283222 0.00065569339087 0.00065182029334 0.00064799447126 0.00064422530431 0.0006405055699 
0.00063683202711 0.00063320080648 0.00062961052707 0.00062605856443 0.00062254217273 0.00061905826017 0.00061560588508 0.00061218301132 0.00060879173451 
0.00060542436172 0.00060208377084 0.0005987704549 0.00059548376162 0.00059222411362 0.00079592652835 0.00079057917894 0.00078527895106 0.00078003084082 
0.00077482848431 0.00076967560411 0.00076456601715 0.00075950385031 0.00075448313184 0.00074951116856 0.00074458558199 0.00073970492225 0.00073487035866 
0.00073008217463 0.00072533617809 0.00072063705711 0.00071598296736 0.00071137390398 0.00070681050225 0.00070229284508 0.0006978219459 0.00069339889481 
0.00068901085319 0.00068468637343 0.00068041234355 0.00067619056716 0.00067202179986 0.00066790716001 0.00066384727471 0.00065984220199 0.00065589261148 
0.00065199791503 0.00064815091172 0.00064436184561 0.00064062243257 0.00063693073691 0.00063328472302 0.00062968044862 0.00062611660878 0.00062259030602 
0.00061909930337 0.00061564102587 0.00061221421818 0.00060881641046 0.00060545018708 0.00060210802189 0.00059879244218 0.00059550268422 0.00059224027318 
0.00058900306395 0.00079117787486 0.00078586815306 0.00078061201197 0.00077540389657 0.00077024236672 0.00076512888813 0.00076006074889 0.00075503433663 
0.00075005810694 0.00074512714613 0.00074024073742 0.00073540114166 0.00073060756231 0.00072586022066 0.00072115815407 0.00071650005129 0.00071188824798 
0.00070732151722 0.00070279978194 0.00069832413349 0.00069389540731 0.00068950014409 0.00068516690677 0.0006808821872 0.00067664744696 0.00067246432593 
0.00066833278285 0.00066425426142 0.0006602292174 0.00065625822575 0.00065234103718 0.00064847770323 0.00064465972363 0.00064089898931 0.00063718659759 
0.0006335213956 0.00062990030169 0.00062632120113 0.00062278228817 0.00061928018517 0.00061581292913 0.00061237922462 0.00060897701969 0.00060560605115 
0.00060226078216 0.00059894311778 0.000595651426 0.00059238568394 0.0005891454625 0.00058593030819 0.0007866770678 0.00078141125118 0.00077619491494 
0.00077102407017 0.00076590348194 0.00076082857517 0.0007557937436 0.00075081033458 0.0007458728195 0.00074098134867 0.00073613418588 0.00073133380062 
0.00072657935899 0.00072187105565 0.00071720885148 0.00071259124709 0.00070801904633 0.00070349185771 0.00069901000275 0.0006945739697 0.00069018389241 
0.00068582735518 0.00068153177604 0.00067728457795 0.00067308645261 0.00066893858512 0.00066484117178 0.00066079618272 0.00065680310434 0.00065286279613 
0.00064897552995 0.00064513382181 0.00064134845602 0.00063761290068 0.00063392535444 0.00063028364827 0.00062668617635 0.00062312975286 0.00061961370593 
0.00061613463066 0.00061269017551 0.00060927872857 0.00060590214569 0.0006025517502 0.00059922964453 0.00059593436522 0.00059266595626 0.00058942278496 
0.00058620414305 0.00058301019996 0.00078243526607 0.00077720657096 0.00077202639575 0.00076689531617 0.0007618121737 0.00075677054087 0.00075177912866 
0.00074683335444 0.00074193308457 0.00073707889917 0.00073227024494 0.00072750631612 0.00072278962711 0.00071811854605 0.00071349373841 0.00070891291862 
0.00070437808999 0.00069988801801 0.00069544363611 0.00069104396564 0.00068667666677 0.00068236968109 0.00067811009813 0.00067389712346 0.00066973296512 
0.00066561735651 0.00066155171324 0.00065753697102 0.00065357266613 0.00064965996774 0.00064579305933 0.00064198216974 0.0006382212396 0.00063450790196 
0.00063084256503 0.00062722239461 0.00062364586836 0.00062011051873 0.00061661489093 0.00061315646812 0.00060973343845 0.00060634613393 0.00060298763742 
0.00059965877183 0.00059635815657 0.00059308584856 0.00058983851273 0.00058661627398 0.00058341923558 0.00058024581099 0.00077844693727 0.00077325448084 
0.00076811328886 0.00076301428303 0.00075796750686 0.00075296634543 0.00074801076005 0.00074310102209 0.00073823715855 0.00073341910028 0.00072864603372 
0.00072391808855 0.00071923728276 0.00071460142488 0.00071001144135 0.00070546635726 0.00070096662194 0.00069651158569 0.00069210191133 0.00068773667564 
0.00068340346601 0.00067912948133 0.00067490122135 0.00067072057019 0.00066658722163 0.00066250097084 0.00065846408951 0.00065447645195 0.00065053882469 
0.00064665124457 0.00064280691546 0.0006390194253 0.0006352793718 0.00063158641143 0.00062794017569 0.00062433909803 0.0006207812896 0.00061726466257 
0.00061378796348 0.00061034805015 0.00060694679689 0.00060357673042 0.00060023797034 0.00059692887067 0.00059364912469 0.00059039557444 0.00058716911285 
0.00058396773644 0.00058079078139 0.00057763721886 0.00077471339744 0.00076955658413 0.00076444580092 0.00075938651439 0.00075437449092 0.00074940794409 
0.00074448715093 0.00073961213687 0.00073478285999 0.0007299993483 0.00072526070693 0.00072056786489 0.00071591937281 0.00071131759786 0.0007067603863 
0.00070224866573 0.00069778173937 0.00069335970769 0.00068898207406 0.00068463540836 0.00068034749444 0.00067610387272 0.00067190653189 0.00066775463943 
0.00066364920682 0.0006595911639 0.00065558054544 0.00065161740589 0.00064770295278 0.00064383106316 0.00064001357786 0.0006362443939 0.00063252296481 
0.00062884807611 0.0006252187038 0.00062163433448 0.00061809265864 0.000614592509 0.00061113200647 0.00060770876786 0.00060432492705 0.00060097196407 
0.00059765295242 0.00059436266725 0.00059110018726 0.00058786614776 0.00058465875712 0.00058147609577 0.00057831860528 0.00057518350217 0.00077122841683 
0.00076610369717 0.00076103093743 0.00075600461745 0.00075102610967 0.000746092532 0.00074120504134 0.00073636365524 0.00073156704443 0.00072681637785 
0.00072211035078 0.00071744967927 0.00071283277033 0.00070826274977 0.00070373758315 0.00069925670119 0.00069482117185 0.00069042944188 0.00068606794335 
0.0006817649944 0.00067750624805 0.00067329177349 0.00066912217582 0.00066499782315 0.00066091841751 0.00065688516958 0.00065289786944 0.00064895740748 
0.00064505794013 0.00064121097281 0.00063741185398 0.00063366115067 0.00062995605516 0.00062629663963 0.00062268193866 0.00061911182234 0.00061558422875 
0.00061209851525 0.00060865203743 0.00060524628471 0.00060187435027 0.00059853699482 0.00059523243314 0.00059195884745 0.00058871351851 0.00058549632341 
0.0005823062492 0.0005791410824 0.00057600063945 0.00057288332072 0.00076798819374 0.00076290029045 0.00075785901568 0.00075286506267 0.00074791863065 
0.00074301741101 0.00073816163636 0.00073335167805 0.00072858666052 0.00072386700822 0.0007191919606 0.00071456222532 0.00070997697683 0.00070543567774 
0.00070094023585 0.00069648840652 0.00069208191197 0.0006877184943 0.00068338539201 0.0006791101676 0.0006748791617 0.00067069177296 0.00066654777589 
0.00066244821241 0.0006583930018 0.00065438225804 0.00065041694049 0.00064649661186 0.0006426152156 0.00063878630112 0.00063500345913 0.00063126628685 
0.0006275749312 0.00062392858668 0.00062032671468 0.00061676903004 0.00061325318353 0.00060977874458 0.00060634779584 0.00060295174932 0.00059959236725 
0.00059626851236 0.00059297728621 0.00058971794066 0.00058648829469 0.0005832867663 0.00058011205085 0.00057696264764 0.00057383831881 0.0005707375405 
0.00076499821463 0.00075994044695 0.00075492988297 0.00074996657289 0.0007450505576 0.00074017938202 0.00073535404048 0.00073057403587 0.00072583847165 
0.00072114796884 0.00071650214527 0.00071190123563 0.00070734470466 0.00070283238085 0.0006983630539 0.00069393902148 0.00068955840653 0.00068520880377 
0.00068091609519 0.00067666682928 0.0006724609632 0.00066829877434 0.00066417906916 0.00066010247491 0.00065606892994 0.00065207884486 0.00064813352067 
0.00064422561765 0.00064036727182 0.00063655367364 0.00063278468207 0.00062906080273 0.00062538168899 0.00062174652594 0.000618155102 0.00061460735219 
0.00061110114938 0.00060764006216 0.00060421536125 0.00060083007739 0.00059748172547 0.00059416869906 0.00059088952826 0.00058764195334 0.00058442556053 
0.00058123758333 0.00057807692261 0.00057494225955 0.00057183143727 0.00056874559956 0.00076225329623 0.00075722448241 0.00075224293545 0.00074730792814 
0.00074242008167 0.00073757809589 0.00073278092254 0.00072802880111 0.00072332123411 0.00071865811446 0.00071403990714 0.00070946552703 0.00070493525437 
0.0007004492605 0.00069600576611 0.0006916066528 0.00068725174922 0.00068292668557 0.00067865924169 0.00067443419085 0.00067025232456 0.00066611269606 
0.00066201522986 0.00065796037388 0.0006539469586 0.00064997677897 0.0006460425605 0.00064215701258 0.00063831402627 0.00063451394959 0.00063075756061 
0.00062704470076 0.0006233758753 0.00061975043621 0.00061616790767 0.00061262792708 0.00060912994545 0.00060567676756 0.00060226016029 0.00059888322474 
0.00059554349964 0.00059223972032 0.00058896986643 0.00058573279766 0.00058252762597 0.00057935128836 0.00057620263803 0.00057308042167 0.00056998353413 
0.00056691063834 0.00075975419684 0.00075475175155 0.00074979730179 0.00074488899369 0.00074002767712 0.00073521193505 0.00073044129666 0.00072571560093 
0.00072103399371 0.00071639645145 0.00071180291898 0.00070725329486 0.00070274793564 0.00069828595156 0.00069386761371 0.00068949130539 0.00068514611251 
0.00068085785224 0.00067661298364 0.0006724108983 0.0006682507532 0.00066413284037 0.00066005637501 0.00065602136287 0.00065202773868 0.0006480741442 
0.00064415589501 0.00064028516567 0.0006364552861 0.00063266800384 0.00062892202478 0.00062521888876 0.0006215587733 0.00061794066701 0.00061436536454 
0.00061083189456 0.00060734396275 0.00060389418308 0.00060048444856 0.0005971131025 0.00059377987996 0.00059048386336 0.00058722180533 0.00058399318957 
0.00058079615351 0.00057762957881 0.00057449120599 0.00057138034747 0.00056829504368 0.0005652344757 0.00075750041651 0.0007525232894 0.00074759356911 
0.00074271014734 0.00073787322819 0.00073308183814 0.00072833547952 0.00072363404286 0.0007189759327 0.00071436196005 0.00070979188424 0.00070526499697 
0.00070078142292 0.00069634206127 0.00069194507742 0.00068759209885 0.0006832674082 0.00067900078526 0.00067477666387 0.00067059630967 0.00066645679568 
0.00066235909593 0.00065830180008 0.00065428503461 0.0006503085285 0.00064636517148 0.00064246770304 0.00063860969168 0.00063479200933 0.0006310148203 
0.00062727868562 0.0006235836792 0.00061993039864 0.00061631913893 0.00061274974118 0.00060922436838 0.000605738644 0.00060229349702 0.00059888855063 
0.00059552274093 0.00059219440683 0.00058890283716 0.0005856469691 0.00058242489104 0.00057923482262 0.00057607542047 0.00057294604263 0.0005698443725 
0.000566769275 0.00056371897843 0.00075549345196 0.00075053910856 0.00074563271544 0.0007407718612 0.00073595750868 0.00073118810245 0.00072646386953 
0.00072178390918 0.00071714781319 0.00071255501021 0.00070800539067 0.00070349962962 0.00069903607079 0.00069461616726 0.00069023971851 0.00068589249597 
0.00068160140251 0.00067735487921 0.00067315071615 0.00066898959386 0.00066486943805 0.00066078984188 0.00065675042132 0.00065275103683 0.00064878420163 
0.00064486166135 0.00064097692332 0.00063713066156 0.00063332358115 0.00062955541616 0.00062582719602 0.00062213925502 0.00061849219705 0.00061488589639 
0.00061132379702 0.00060779991172 0.00060431760182 0.00060087629397 0.00059747476706 0.0005941121769 0.00059078813044 0.00058749977628 0.00058424776205 
0.00058103014495 0.00057784593094 0.00057469232636 0.00057156967398 0.00056847563282 0.00056540813046 0.00056236729119 0.00075373221104 0.00074879886258 
0.00074391349089 0.00073907356897 0.00073427956235 0.00072953039955 0.0007248260412 0.00072016483826 0.00071554751024 0.00071097387282 0.00070644345478 
0.00070195549888 0.00069751026733 0.00069310833129 0.00068873593904 0.00068442056205 0.00068014819686 0.00067591816411 0.00067173275548 0.00066758890934 
0.00066348676714 0.00065942453318 0.0006554016906 0.00065141732291 0.00064746474369 0.00064355524984 0.00063968256493 0.00063584674485 0.00063204827211 
0.00062828832813 0.00062456676111 0.00062088438623 0.00061724200504 0.00061364301429 0.00061008172204 0.00060656102103 0.00060308136251 0.00059964246479 
0.00059624360131 0.00059288310017 0.0005895614526 0.00058627571163 0.00058302615646 0.00057981141345 0.00057663025438 0.00057348125406 0.00057036307212 
0.00056727486225 0.00056421444693 0.00056118176959 0.00075221440781 0.00074730087494 0.00074243359234 0.00073761271185 0.00073283647579 0.00072810437269 
0.00072341738954 0.0007187737003 0.00071417380578 0.00070961656473 0.00070510204759 0.00070063041759 0.00069620092729 0.00069181474736 0.00068745800121 
0.00068315881958 0.00067890290144 0.00067468947006 0.00067052000861 0.00066639245275 0.00066230649712 0.00065826024068 0.00065425179092 0.00065027529903 
0.00064634113592 0.0006424438981 0.00063858182133 0.00063475465683 0.0006309641214 0.00062721048318 0.00062349424078 0.00061981633862 0.0006161808861 
0.00061258213325 0.00060902331638 0.00060550549059 0.00060202778755 0.00059859102264 0.00059519355362 0.00059183445856 0.00058851343144 0.00058522920069 
0.00058198085333 0.00057876759131 0.00057558868043 0.00057244254518 0.00056932784887 0.0005662437487 0.00056318927066 0.00056016296162 0.00075093542496 
0.00074603923075 0.00074118845514 0.00073638331121 0.00073162300938 0.00072690614427 0.00072223386776 0.00071760551426 0.00071301955588 0.00070847661479 
0.00070397619277 0.00069951843824 0.00069510278004 0.0006907162006 0.00068638691401 0.00068210184445 0.00067786067727 0.0006736627905 0.00066950670942 
0.00066539394544 0.00066132181867 0.0006572901585 0.00065328934972 0.00064933119212 0.00064540892327 0.00064152116957 0.00063766788241 0.00063384914561 
0.0006300648958 0.00062631649084 0.00062260473995 0.00061893039623 0.00061529803013 0.00061170200819 0.0006081452728 0.00060462912652 0.00060115324455 
0.00059771717204 0.00059432050371 0.00059096228362 0.00058764101035 0.00058435712396 0.00058110928846 0.00057789688222 0.00057471873678 0.00057157281754 