# vtk DataFile Version 5.1
vtk output
ASCII
DATASET STRUCTURED_POINTS
DIMENSIONS 50 50 50
SPACING 0.002 0.002 0.002
ORIGIN 0.1742 -0.052672 0.02732
POINT_DATA 125000
FIELD FieldData 1
potential 1 125000 double
0.0003478565997 0.00034649357082 0.00034513801333 0.00034378973844 0.00034244904012 0.00034111629793 0.00033979075957 0.00033847257476 0.00033716212562 
0.00033585884636 0.00033456275122 0.00033327418134 0.00033199268334 0.00033071939725 0.00032945423585 0.00032819794074 0.00032695045756 0.00032571181956 
0.00032448235707 0.00032326208101 0.0003220500317 0.00032084578644 0.0003196482935 0.00031845790617 0.00031727370647 0.0003160952136 0.0003149235782 
0.00031375894916 0.00031260220715 0.00031145402838 0.00031031498447 0.00030918703524 0.00030806993371 0.00030696360274 0.00030586867362 0.00030478376762 
0.00030370886773 0.00030264138964 0.00030158062186 0.00030052537782 0.00029947407529 0.00029842567827 0.00029737963761 0.00029633589624 0.00029529443361 
0.00029425568461 0.00029322044616 0.00029218970924 0.00029116418941 0.00029014522023 0.00034944335745 0.00034807187824 0.00034670753677 0.00034535060762 
0.00034400161672 0.00034266033061 0.00034132602845 0.00033999950641 0.0003386802055 0.00033736794312 0.00033606265925 0.00033476450951 0.0003334739164 
0.00033219084617 0.00033091594305 0.00032964946182 0.0003283919023 0.00032714268987 0.00032590281662 0.00032467157186 0.00032344853714 0.00032223330497 
0.00032102534572 0.00031982412765 0.00031863003524 0.00031744244348 0.00031626135187 0.00031508816449 0.00031392326193 0.00031276762281 0.00031162130214 
0.00031048649686 0.00030936273815 0.00030825033131 0.00030714855977 0.00030605756904 0.00030497584579 0.00030390262273 0.00030283540025 0.00030177359885 
0.0003007156124 0.00029966063199 0.00029860816086 0.00029755760041 0.00029650954787 0.00029546421798 0.00029442264013 0.00029338562864 0.0002923540237 
0.00029132922266 0.00035089318326 0.00034951432405 0.00034814235413 0.00034677794952 0.0003454211368 0.00034407233596 0.00034273090461 0.00034139632164 
0.00034006924437 0.00033874926215 0.00033743573222 0.00033612928474 0.00033482993338 0.00033353818198 0.00033225390712 0.00033097805213 0.00032971061866 
0.00032845152397 0.00032720122936 0.0003259595208 0.00032472608998 0.00032350022604 0.00032228202084 0.00032107058175 0.00031986647528 0.0003186694362 
0.0003174798913 0.00031629867626 0.00031512632424 0.00031396377046 0.00031281098968 0.00031166975571 0.00031053992229 0.000309421461 0.00030831390741 
0.00030721685151 0.0003061290609 0.00030504907863 0.00030397642284 0.00030290813566 0.00030184389469 0.0003007825487 0.0002997235341 0.00029866690069 
0.0002976125969 0.0002965613672 0.00029551382359 0.00029447123 0.00029343422575 0.00029240414948 0.00035217650196 0.00035079102134 0.00034941276867 
0.00034804185592 0.00034667884908 0.00034532361108 0.0003439752398 0.0003426340734 0.00034130025971 0.00033997320284 0.00033865257201 0.00033733864017 
0.00033603179801 0.00033473180217 0.00033343946868 0.00033215513601 0.00033087855214 0.00032961015712 0.00032835002006 0.00032709808612 0.00032585486014 
0.00032461912144 0.0003233905147 0.00032216948968 0.00032095601626 0.00031975051099 0.00031855319323 0.00031736428265 0.00031618498045 0.00031501538091 
0.00031385718285 0.00031271031268 0.00031157516189 0.00031045125298 0.00030933856577 0.00030823568963 0.00030714229247 0.00030605662769 0.00030497750354 
0.00030390388453 0.00030283362145 0.00030176618696 0.0003007013386 0.0002996387382 0.00029857883818 0.00029752205855 0.00029646921997 0.00029542143683 
0.00029437993134 0.00029334555084 0.0003532704009 0.00035187933956 0.00035049577868 0.00034911977706 0.00034775112175 0.00034639010154 0.00034503653716 
0.00034368974387 0.00034235010586 0.00034101700343 0.00033969024032 0.00033836984487 0.00033705602361 0.00033574909372 0.0003344493459 0.00033315723111 
0.00033187233536 0.00033059551207 0.00032932632623 0.00032806509554 0.00032681214441 0.00032556649318 0.00032432908112 0.00032309908228 0.00032187733047 
0.00032066373759 0.00031945915012 0.00031826366873 0.00031707819692 0.00031590308488 0.00031473957529 0.00031358757091 0.00031244741312 0.00031131890912 
0.00031020145689 0.00030909391763 0.00030799517512 0.00030690464225 0.00030581994072 0.00030474025775 0.00030366508288 0.00030259215517 0.00030152178204 
0.00030045390359 0.00029938870843 0.00029832697927 0.00029726946493 0.00029621731597 0.00029517176111 0.00029413354164 0.00035416042428 0.00035276457133 
0.00035137667476 0.00034999607906 0.00034862308159 0.00034725746812 0.00034589925696 0.00034454793718 0.00034320325012 0.00034186550266 0.00034053316939 
0.00033920744954 0.00033788795488 0.00033657481555 0.00033526833194 0.00033396947588 0.00033267713269 0.0003313920193 0.0003301147368 0.00032884502432 
0.00032758312634 0.00032632905436 0.00032508310186 0.00032384562645 0.00032261631514 0.00032139564308 0.00032018433846 0.00031898298875 0.00031779163953 
0.00031661209674 0.0003154439035 0.00031428776021 0.00031314343788 0.00031201093833 0.00031088923573 0.00030977731491 0.0003086744267 0.00030757901231 
0.00030648958553 0.00030540503887 0.00030432415727 0.00030324725915 0.00030217172975 0.00030109910733 0.00030002920099 0.00029896304567 0.0002979014614 
0.00029684533097 0.00029579621387 0.00029475503602 0.00035484099999 0.00035344139135 0.00035204966748 0.00035066534573 0.00034928882666 0.00034791958708 
0.00034655781816 0.00034520261025 0.00034385406325 0.0003425117684 0.00034117535748 0.00033984484935 0.00033852013979 0.00033720210062 0.00033589015251 
0.00033458478149 0.00033328570902 0.00033199365417 0.00033070894791 0.00032943166041 0.00032816238176 0.00032690064074 0.00032564760736 0.00032440292997 
0.00032316705207 0.00032194033408 0.00032072330878 0.00031951679031 0.00031832088511 0.00031713712403 0.00031596517866 0.00031480553977 0.000313657963 
0.00031252202003 0.00031139673934 0.00031028168166 0.00030917478849 0.00030807527295 0.00030698167939 0.00030589286242 0.00030480758104 0.00030372610269 
0.00030264633434 0.00030156928355 0.00030049531972 0.0002994253426 0.0002983602288 0.00029730089411 0.00029624897125 0.00029520505252 0.0003553168215 
0.00035391408847 0.0003525190814 0.00035113192102 0.00034975255773 0.00034838020831 0.0003470152782 0.00034565743325 0.0003443054653 0.00034295977558 
0.00034161986791 0.00034028522782 0.00033895628504 0.00033763338372 0.00033631645725 0.00033500545878 0.00033370091742 0.00033240300589 0.00033111217491 
0.00032982865233 0.00032855238123 0.00032728461893 0.00032602531694 0.00032477443093 0.00032353303291 0.00032230121936 0.00032107959973 0.00031986817867 
0.00031866897518 0.00031748195491 0.00031630721327 0.0003151447088 0.00031399437697 0.00031285557574 0.00031172805669 0.00031060984038 0.0003094996981 
0.00030839688804 0.00030729969051 0.00030620701185 0.00030511795338 0.00030403183517 0.00030294889685 0.00030186796359 0.00030079047645 0.00029971735608 
0.00029864916755 0.00029758720543 0.00029653300469 0.00029548717403 0.00035560237556 0.00035419576478 0.00035279819885 0.00035140820846 0.00035002647884 
0.00034865201691 0.00034728450251 0.00034592412805 0.00034456978237 0.00034322114839 0.00034187827886 0.00034054039453 0.00033920806943 0.00033788100047 
0.00033655994266 0.00033524470964 0.00033393501392 0.00033263227283 0.00033133638913 0.0003300472963 0.00032876602454 0.00032749267314 0.0003262281392 
0.00032497254805 0.00032372637678 0.00032249053726 0.00032126532633 0.00032005075253 0.00031884840084 0.00031765880988 0.00031648177679 0.00031531724164 
0.00031416474037 0.00031302394195 0.00031189400339 0.00031077342142 0.00030966081693 0.00030855507293 0.00030745509777 0.00030635896388 0.00030526651717 
0.0003041771287 0.00030309054054 0.00030200704278 0.00030092655534 0.00029985049127 0.00029878004724 0.00029771567453 0.00029665942216 0.00029561183177 
0.00035571797757 0.00035430884187 0.00035290870727 0.00035151664207 0.000350132699 0.00034875631859 0.00034738686641 0.00034602368165 0.00034466711765 
0.00034331600002 0.00034197053021 0.00034062993277 0.00033929457544 0.00033796431827 0.00033663982398 0.00033532045228 0.00033400734562 0.00033270064775 
0.00033140018925 0.00033010723765 0.00032882194867 0.0003275450562 0.00032627668001 0.00032501743489 0.00032376800424 0.00032252894336 0.00032130087139 
0.0003200838344 0.00031887962814 0.00031768748699 0.0003165085579 0.00031534242151 0.00031418834753 0.00031304620907 0.00031191429013 0.00031079175561 
0.00030967704132 0.00030856868225 0.0003074659104 0.00030636722718 0.00030527232143 0.0003041800046 0.00030309074963 0.00030200433914 0.00030092192324 
0.00029984341665 0.00029877080639 0.00029770493086 0.0002966472623 0.00029559847591 0.0003556931107 0.00035428256021 0.00035287953992 0.00035148532476 
0.00035009938359 0.0003487206436 0.00034734874386 0.00034598370593 0.00034462499159 0.00034327151736 0.00034192334867 0.00034058034765 0.00033924251956 
0.00033790997379 0.00033658259566 0.00033526057707 0.00033394455339 0.00033263433215 0.00033133118885 0.00033003525641 0.00032874692187 0.00032746677662 
0.00032619549592 0.00032493382628 0.00032368197013 0.00032244076932 0.0003212103474 0.00031999238762 0.00031878676512 0.00031759406865 0.00031641376923 
0.0003152464383 0.00031409145299 0.00031294760241 0.00031181412584 0.00031068977737 0.00030957315806 0.0003084627681 0.00030735768118 0.00030625691501 
0.00030515938195 0.00030406473984 0.00030297292449 0.0003018843815 0.00030079929313 0.00029971972212 0.00029864556685 0.00029757834665 0.00029651959232 
0.00029546985239 0.0003555616726 0.00035414880382 0.0003527442595 0.00035134655447 0.00034995841652 0.00034857743271 0.00034720348828 0.00034583616342 
0.00034447480988 0.00034311911261 0.00034176868013 0.00034042351018 0.00033908356114 0.0003377485908 0.00033641922054 0.0003350949981 0.00033377644103 
0.00033246447174 0.00033115950572 0.00032986135126 0.00032857095347 0.0003272888314 0.00032601571465 0.00032475223581 0.00032349900008 0.00032225682226 
0.00032102530021 0.00031980641481 0.00031859991333 0.00031740644909 0.0003162256454 0.00031505784885 0.00031390134794 0.00031275636936 0.00031162171599 
0.00031049583659 0.00030937753504 0.00030826520924 0.00030715832771 0.00030605543447 0.00030495558582 0.00030385892365 0.00030276502443 0.00030167481884 
0.00030058809941 0.00029950654099 0.00029843179449 0.00029736349917 0.00029630382472 0.00029525353966 0.00035535775446 0.0003539424789 0.00035253553851 
0.00035113701772 0.00034974446138 0.00034836098073 0.00034698486382 0.00034561493229 0.00034425105664 0.000342892897 0.00034154016696 0.00034019255793 
0.00033885064515 0.00033751405109 0.00033618277944 0.00033485677943 0.00033353703042 0.0003322236192 0.00033091695432 0.00032961778562 0.00032832626622 
0.00032704327402 0.00032576943692 0.00032450520246 0.00032325127834 0.00032200765216 0.0003207765387 0.00031955723437 0.0003183505478 0.00031715675586 
0.00031597521942 0.00031480659675 0.00031364945621 0.00031250338417 0.0003113674339 0.00031023998935 0.00030911968825 0.0003080055706 0.00030689667372 
0.00030579190641 0.00030469038053 0.0003035919345 0.00030249695315 0.00030140519182 0.00030031752297 0.00029923494162 0.00029815921389 0.00029709008423 
0.0002960296075 0.00029497870409 0.00035511744083 0.00035369927369 0.00035228932274 0.00035088778252 0.00034949257015 0.00034810598485 0.00034672670432 
0.00034535417184 0.00034398729535 0.00034262632116 0.00034127115226 0.00033992162695 0.00033857772814 0.00033723959395 0.00033590634535 0.00033457946775 
0.00033325881129 0.00033194444863 0.00033063698632 0.00032933730708 0.00032804533463 0.00032676235899 0.00032548816415 0.00032422384208 0.00032296995021 
0.00032172633355 0.0003204950362 0.00031927557505 0.00031806851563 0.00031687457222 0.00031569323418 0.00031452397374 0.00031336591677 0.00031221870262 
0.00031108090143 0.00030995179613 0.00030882976895 0.00030771385875 0.00030660301209 0.00030549636675 0.00030439313573 0.00030329333743 0.00030219683173 
0.00030110410417 0.00030001558849 0.00029893212004 0.00029785546412 0.00029678667579 0.0002957257659 0.00029467422821 0.00035487261035 0.00035345099596 
0.00035203776197 0.00035063304683 0.00034923565668 0.00034784436424 0.00034646146298 0.00034508566434 0.00034371587574 0.0003423518866 0.00034099420046 
0.00033964217894 0.00033829648227 0.000336956225 0.00033562193928 0.00033429416511 0.00033297265871 0.00033165814212 0.00033035030943 0.0003290503682 
0.00032775853878 0.00032647552059 0.00032520154678 0.00032393743236 0.00032268311128 0.00032144057968 0.00032020956957 0.00031899049393 0.00031778355425 
0.00031658971097 0.00031540757834 0.00031423723517 0.00031307835024 0.0003119299976 0.00031079059369 0.00030965938418 0.00030853551596 0.0003074176326 
0.00030630465733 0.00030519611958 0.00030409130925 0.00030298997755 0.00030189252458 0.00030079867843 0.00029970948652 0.00029862576253 0.0002975486251 
0.00029647892137 0.00029541816514 0.00029436585387 0.00035465274668 0.00035322716304 0.0003518099132 0.00035040126202 0.00034899992803 0.00034760628871 
0.00034621830515 0.00034483852056 0.00034346496798 0.00034209805594 0.00034073738183 0.00033938290194 0.00033803465719 0.00033669318886 0.00033535776494 
0.0003340289251 0.00033270678192 0.00033139170451 0.00033008404981 0.0003287837499 0.00032749228717 0.00032620945448 0.00032493596689 0.00032367232512 
0.00032241865012 0.00032117668578 0.00031994603393 0.00031872719861 0.00031752032187 0.00031632555492 0.00031514284451 0.00031397160586 0.00031281159613 
0.00031166171623 0.00031052042833 0.00030938723779 0.00030826124096 0.00030714100539 0.00030602603428 0.00030491557711 0.00030380910378 0.00030270640711 
0.0003016077571 0.00030051305093 0.0002994232069 0.00029833920514 0.00029726173931 0.00029619155586 0.0002951296852 0.00029407734348 0.00035448171695 
0.00035305173505 0.00035163007031 0.00035021693147 0.00034881125653 0.00034741318469 0.00034602195214 0.00034463686032 0.00034325978236 0.00034188944802 
0.00034052561642 0.0003391680499 0.00033781755527 0.0003364739309 0.00033513696382 0.00033380673735 0.00033248394021 0.00033116842271 0.00032986051791 
0.00032856059533 0.00032726898451 0.00032598673111 0.00032471384764 0.00032345017437 0.0003221975114 0.00032095551984 0.00031972512167 0.00031850622021 
0.00031729939814 0.00031610414896 0.0003149204062 0.0003137478596 0.00031258599414 0.00031143417402 0.00031029105588 0.00030915559853 0.00030802718504 
0.00030690472042 0.00030578735231 0.0003046748859 0.00030356677479 0.00030246243058 0.00030136272733 0.00030026731303 0.00029917697422 0.00029809236442 
0.00029701428928 0.0002959436161 0.00029488104672 0.00029382727094 0.00035437913446 0.00035294413951 0.00035151778309 0.00035009959258 0.00034868913384 
0.00034728603503 0.0003458905824 0.00034450082503 0.00034311942207 0.00034174490958 0.00034037717246 0.0003390166247 0.0003376637385 0.00033631788191 
0.00033497866645 0.00033364719878 0.00033232341684 0.00033100732008 0.00032969898519 0.00032839893331 0.00032710740651 0.00032582528799 0.00032455236417 
0.00032328884038 0.00032203627069 0.00032079472821 0.00031956401787 0.0003183451637 0.00031713725749 0.00031594115014 0.00031475620839 0.00031358222622 
0.00031241845117 0.0003112641842 0.00031011862899 0.00030898091044 0.0003078495793 0.00030672462476 0.00030560509328 0.00030449036942 0.00030338014689 
0.00030227454781 0.00030117335679 0.0003000770535 0.00029898636452 0.00029790085905 0.00029682206021 0.00029575058338 0.00029468655937 0.00029363148216 
0.00035435921848 0.00035291897188 0.00035148707864 0.0003500635246 0.00034864782536 0.0003472396587 0.00034583905758 0.00034444578485 0.00034305854875 
0.0003416794497 0.00034030794483 0.0003389439362 0.00033758820691 0.00033623973971 0.00033489889559 0.00033356550962 0.00033224016616 0.00033092288823 
0.00032961358923 0.00032831287426 0.00032702111297 0.00032573830307 0.00032446494035 0.00032320171382 0.0003219488625 0.000320706684 0.0003194756932 
0.00031825564923 0.00031704668701 0.00031584916322 0.00031466270921 0.00031348634304 0.00031232063794 0.00031116377811 0.00031001536528 0.00030887486686 
0.00030774120355 0.00030661322378 0.00030549097274 0.00030437399103 0.00030326203316 0.00030215450586 0.0003010520471 0.00029995462401 0.00029886284963 
0.00029777663591 0.00029669660725 0.00029562395144 0.00029455880507 0.0002935021569 0.00035443186984 0.00035298584084 0.00035154832113 0.00035011927728 
0.00034869798533 0.00034728477699 0.0003458786064 0.00034448021781 0.00034308870099 0.00034170430828 0.00034032885723 0.00033896111334 0.00033760167883 
0.00033625060102 0.00033490668801 0.0003335712051 0.00033224395159 0.00033092493615 0.00032961449491 0.00032831266518 0.00032701981134 0.00032573625408 
0.00032446166796 0.00032319772338 0.00032194392513 0.00032070084543 0.00031946855871 0.00031824712032 0.00031703663313 0.00031583711227 0.00031464824916 
0.00031346993489 0.00031230109961 0.00031114151686 0.00030999018532 0.00030884642033 0.00030770984229 0.00030657915267 0.0003054542162 0.00030433479692 
0.00030322059749 0.00030211131209 0.00030100718663 0.00029990815391 0.00029881493648 0.00029772744446 0.00029664630297 0.00029557162263 0.00029450532766 
0.00029344662565 0.00035460428832 0.00035315188242 0.00035170856211 0.00035027327949 0.0003488463999 0.00034742732195 0.0003460157988 0.00034461162359 
0.00034321582902 0.00034182690012 0.00034044684663 0.00033907505652 0.00033771184136 0.00033635704279 0.00033501049575 0.00033367187993 0.00033234193393 
0.00033102074403 0.00032970808906 0.00032840439456 0.00032710999662 0.00032582425359 0.0003245488675 0.00032328322715 0.00032202776596 0.00032078313643 
0.0003195488091 0.00031832532963 0.0003171126501 0.00031591083904 0.00031471950615 0.00031353837997 0.00031236620512 0.00031120342905 0.00031004877862 
0.00030890189915 0.00030776188758 0.00030662809596 0.00030550065999 0.00030437854045 0.00030326169361 0.00030215035037 0.0003010444593 0.00029994344291 
0.00029884825983 0.00029775924648 0.0002966763498 0.0002956000657 0.00029453140165 0.00029347042249 0.00035488033495 0.00035342164406 0.0003519721017 
0.0003505305088 0.0003490976289 0.0003476725203 0.00034625468295 0.00034484543094 0.00034344430459 0.00034205147296 0.00034066558103 0.00033928949846 
0.00033792169397 0.00033656275582 0.00033521274354 0.00033387097713 0.00033253809347 0.00033121388848 0.00032989861467 0.00032859240936 0.00032729547083 
0.00032600741115 0.00032472962216 0.00032346199732 0.00032220425826 0.00032095704252 0.00031972009808 0.00031849416727 0.00031727853003 0.00031607398728 
0.00031487963759 0.00031369483122 0.00031251941712 0.00031135296109 0.00031019484773 0.00030904429508 0.00030790089397 0.00030676387063 0.00030563342084 
0.00030450862146 0.00030338910655 0.00030227503361 0.00030116679982 0.00030006373518 0.00029896627641 0.00029787476919 0.00029678976401 0.00029571134584 
0.0002946399861 0.0002935762515 0.00035526233776 0.0003537969087 0.00035234054775 0.00035089255999 0.00034945321659 0.00034802155938 0.00034659838946 
0.00034518342087 0.00034377665892 0.00034237842386 0.00034098864965 0.00033960642619 0.00033823414461 0.00033687067959 0.00033551644289 0.0003341705191 
0.0003328338768 0.00033150611342 0.00033018763493 0.00032887797346 0.00032757723271 0.00032628675524 0.00032500617839 0.00032373545351 0.00032247513328 
0.00032122459485 0.00031998474472 0.00031875559576 0.0003175368975 0.00031632869991 0.0003151305761 0.00031394219043 0.0003127631602 0.00031159255815 
0.00031043066412 0.00030927629744 0.00030812926312 0.0003069887766 0.00030585472915 0.00030472667452 0.0003036043167 0.00030248752968 0.00030137620032 
0.00030027050029 0.00029917038688 0.00029807667557 0.00029698864886 0.00029590728388 0.00029483324201 0.00029376636872 0.00035575062145 0.00035427829439 
0.00035281512286 0.00035135995106 0.00034991406822 0.00034847638908 0.00034704695901 0.00034562598078 0.0003442135135 0.0003428096883 0.0003414142959 
0.00034002684795 0.00033864951086 0.00033728101575 0.00033592177383 0.00033457149924 0.0003332304564 0.00033189856001 0.00033057597899 0.00032926255321 
0.00032795808708 0.00032666379758 0.00032537906172 0.00032410494691 0.00032284100214 0.00032158665328 0.00032034317075 0.00031911032103 0.00031788795298 
0.00031667578545 0.00031547320978 0.0003142809726 0.00031309768943 0.00031192293253 0.00031075660458 0.00030959819232 0.0003084471462 0.00030730290867 
0.0003061653597 0.00030503361719 0.00030390791811 0.00030278804496 0.00030167363401 0.00030056459576 0.00029946160357 0.00029836402269 0.00029727308395 
0.0002961888194 0.00029511139365 0.00029404098884 0.00035634588761 0.00035486640471 0.00035339553462 0.00035193385292 0.00035048112376 0.00034903668471 
0.00034760076506 0.00034617347478 0.00034475485098 0.00034334488382 0.000341943719 0.00034055167985 0.0003391674047 0.00033779366035 0.00033642886773 
0.00033507355921 0.00033372752037 0.00033239081667 0.00033106349989 0.0003297449781 0.00032843675543 0.0003271376352 0.00032584915782 0.00032457038074 
0.00032330198903 0.00032204400922 0.00032079637281 0.0003195588871 0.00031833197989 0.00031711501054 0.00031590814894 0.00031471095822 0.00031352308264 
0.00031234383906 0.00031117299904 0.00031001021679 0.00030885481365 0.00030770645481 0.0003065647395 0.00030542907471 0.00030429977571 0.0003031761036 
0.00030205878795 0.0003009464227 0.00029983920026 0.00029873844667 0.00029764386351 0.00029655569326 0.00029547464045 0.00029440024618 0.00035704729261 
0.00035556008091 0.00035408210175 0.00035261290107 0.00035115302452 0.00034970159728 0.00034825887248 0.00034682511031 0.0003453998266 0.00034398362913 
0.0003425762955 0.00034117796976 0.00033978716544 0.00033840746316 0.00033703712591 0.00033567594002 0.0003343245361 0.0003329824005 0.00033164904089 
0.00033032611392 0.00032901275915 0.00032770919312 0.0003264157685 0.00032513244566 0.00032385915215 0.00032259645369 0.00032134382716 0.00032010144274 
0.00031886942752 0.00031764736874 0.00031643579615 0.00031523392423 0.00031404107532 0.00031285707264 0.00031168135562 0.00031051384792 0.00030935373815 
0.00030820101868 0.00030705483538 0.00030591500068 0.00030478133432 0.00030365358266 0.00030253153987 0.00030141528278 0.00030030421788 0.00029919920475 
0.00029810065267 0.00029700815112 0.00029592257865 0.00029484395147 0.00035785439854 0.00035635955106 0.00035487359128 0.00035339686792 0.00035192956555 
0.00035047061064 0.00034902071925 0.00034757980745 0.00034614768134 0.00034472465092 0.00034331062234 0.00034190577313 0.00034051010542 0.00033912266812 
0.00033774600718 0.0003363785551 0.00033502113736 0.00033367298901 0.0003323338936 0.00033100522439 0.00032968656149 0.00032837785178 0.00032707881504 
0.00032579028714 0.00032451196333 0.00032324384523 0.00032198606705 0.00032073843367 0.00031950053617 0.00031827332003 0.00031705612063 0.00031584838602 
0.00031465003189 0.00031346068777 0.00031227991374 0.00031110746596 0.00030994232898 0.00030878443244 0.00030763381165 0.00030648932381 0.00030535094637 
0.00030421870487 0.00030309196027 0.00030197097717 0.00030085585407 0.0002997464969 0.00029864322704 0.00029754606423 0.00029645556649 0.00029537221722 
0.00035876763319 0.00035726429848 0.00035577025879 0.00035428559052 0.00035281043118 0.00035134394441 0.00034988656768 0.00034843820797 0.00034699865009 
0.00034556819071 0.00034414702395 0.00034273511838 0.00034133250677 0.00033993931206 0.00033855435075 0.00033718033132 0.00033581610478 0.00033446128758 
0.00033311663042 0.00033178182117 0.00033045699517 0.00032914257011 0.00032783778252 0.00032654336495 0.00032525884374 0.00032398484435 0.0003227213963 
0.000321467907 0.00032022459942 0.00031899129722 0.00031776794679 0.00031655463352 0.00031535076938 0.00031415581886 0.00031296938295 0.00031179146086 
0.00031062088422 0.00030945810817 0.0003083018039 0.00030715244992 0.00030600924492 0.00030487182037 0.00030374037773 0.00030261423302 0.00030149428157 
0.00030037990076 0.00029927161947 0.0002981695345 0.00029707348917 0.00029598473411 0.00035978756781 0.00035827558918 0.0003567730194 0.00035527969052 
0.00035379604653 0.00035232164966 0.00035085620817 0.00034939978434 0.00034795233788 0.00034651414188 0.00034508526107 0.0003436658181 0.00034225555845 
0.00034085492991 0.00033946260549 0.00033808120751 0.00033670989583 0.00033534788661 0.00033399676967 0.00033265538125 0.00033132434517 0.00033000322858 
0.00032869234116 0.00032739164152 0.00032610084379 0.0003248208581 0.00032355070877 0.00032229106067 0.00032104159343 0.00031980183332 0.00031857237205 
0.00031735271253 0.00031614275628 0.00031494187852 0.00031374962081 0.00031256567615 0.00031138956487 0.00031022128564 0.0003090595312 0.00030790481724 
0.00030675617451 0.00030561351501 0.00030447642448 0.00030334509742 0.00030221991014 0.0003011002497 0.00029998640055 0.00029887868153 0.00029777724383 
0.00029668252554 0.0003609150884 0.00035939339282 0.00035788173158 0.00035637934027 0.00035488676869 0.00035340353335 0.00035192989322 0.00035046500505 
0.00034900921203 0.00034756267277 0.00034612523629 0.00034469723987 0.00034327892552 0.00034187017046 0.00034047139026 0.00033908108966 0.00033770157829 
0.00033633273645 0.00033497422935 0.00033362617539 0.00033228802834 0.00033096042841 0.0003296428595 0.00032833555229 0.00032703851343 0.00032575137263 
0.00032447453505 0.00032320829391 0.00032195174821 0.00032070578633 0.00031946928847 0.00031824301502 0.00031702655238 0.00031581908443 0.00031462064768 
0.00031343052478 0.0003122488133 0.00031107453801 0.00030990734449 0.00030874652686 0.0003075920635 0.00030644419473 0.00030530137176 0.00030416443609 
0.00030303300021 0.00030190745877 0.00030078759606 0.00029967382222 0.00029856640465 0.00029746568867 0.00036215030705 0.00036061886832 0.00035909758859 
0.0003575857041 0.00035608352063 0.00035459086836 0.00035310752113 0.00035163364784 0.00035016870393 0.00034871316153 0.00034726698699 0.00034583013083 
0.00034440282321 0.00034298563001 0.00034157810273 0.00034018098421 0.00033879211612 0.0003374155192 0.00033604919322 0.00033469408921 0.00033334897569 
0.00033201426142 0.00033068959228 0.00032937524015 0.00032807117586 0.0003267769427 0.00032549326137 0.00032421939021 0.00032295582935 0.00032170247893 
0.00032045927207 0.00031922578548 0.00031800075992 0.00031678671347 0.00031558170218 0.00031438520131 0.00031319735014 0.00031201691524 0.00031084369809 
0.00030967713269 0.00030851661339 0.00030736200959 0.00030621341246 0.00030507033905 0.00030393265356 0.00030280055713 0.00030167437062 0.00030055424884 
0.00029944040303 0.00029833286943 0.00036349444351 0.0003619524714 0.00036042082905 0.00035889859517 0.0003573862838 0.00035588348947 0.00035439021083 
0.00035290635738 0.00035143186277 0.0003499664916 0.00034851042452 0.00034706427602 0.00034562743975 0.00034420077335 0.00034278449926 0.00034137774025 
0.00033998095271 0.00033859625669 0.0003372222684 0.00033585940479 0.00033450671965 0.00033316292704 0.00033183094501 0.00033050945222 0.00032919786251 
0.0003278964332 0.00032660489839 0.00032532352248 0.0003240523287 0.0003227912431 0.00032154051036 0.00032029982315 0.0003190690657 0.00031784780259 
0.00031663594072 0.00031543282287 0.00031423814548 0.00031305147245 0.00031187187817 0.00031069900166 0.00030953262114 0.0003083714206 0.00030721629706 
0.0003060665995 0.00030492262694 0.00030378361295 0.0003026506743 0.00030152350898 0.0003004022752 0.00029928766622 0.000364946751 0.00036339365471 
0.0003618511404 0.00036031819285 0.00035879507164 0.00035728147784 0.00035577762654 0.00035428282421 0.00035279767011 0.00035132194002 0.00034985584298 
0.00034839920184 0.0003469523938 0.00034551449761 0.00034408783745 0.00034267233506 0.00034126757705 0.00033987280597 0.00033849101034 0.00033711960555 
0.00033575924349 0.00033440930723 0.00033306976629 0.00033174040204 0.00033042101855 0.00032911161792 0.00032781237542 0.00032652294099 0.00032524348965 
0.0003239746968 0.00032271596254 0.00032146741479 0.00032022880217 0.00031900039534 0.0003177813599 0.00031657128357 0.00031536994563 0.00031417664081 
0.00031299073619 0.00031181133625 0.0003106385179 0.00030947081296 0.000308308883 0.00030715226406 0.00030600095425 0.00030485498947 0.00030371442205 
0.00030257974893 0.00030145095188 0.00030032885753 0.00036650658784 0.00036494212883 0.00036338769351 0.00036184335202 0.00036030849758 0.00035878318724 
0.00035726785787 0.00035576055374 0.00035426426284 0.00035277726835 0.00035129990963 0.00034983246163 0.00034837478202 0.00034692773695 0.00034549067284 
0.00034406539703 0.00034265152025 0.0003412479083 0.0003398568362 0.00033847704252 0.00033710853312 0.00033575073233 0.00033440295299 0.00033306542989 
0.00033173782483 0.00033042075671 0.00032911304467 0.00032781521457 0.00032652735098 0.00032524980576 0.00032398260099 0.0003227257805 0.00032147963405 
0.00032024325317 0.00031901676458 0.00031779985164 0.00031659162204 0.00031539173675 0.00031419924067 0.00031301326139 0.00031183336329 0.00031065917374 
0.00030949005782 0.00030832623177 0.00030716756412 0.00030601394819 0.00030486557679 0.00030372277763 0.00030258606167 0.00030145575886 0.00036817177648 
0.00036659514809 0.00036502709481 0.00036347021345 0.00036192317595 0.00036038547285 0.00035885769323 0.00035733979537 0.00035583110333 0.00035433218771 
0.00035284314659 0.0003513640339 0.00034989497498 0.0003484359696 0.00034698865254 0.00034555324806 0.00034412955626 0.00034271746646 0.00034131594104 
0.00033992739793 0.00033855003366 0.00033718408215 0.00033582812307 0.00033448229398 0.00033314655096 0.00033182037431 0.00033050401119 0.00032919760169 
0.00032790076878 0.00032661437035 0.00032533839435 0.00032407304157 0.00032281873135 0.00032157476384 0.0003203405135 0.00031911633219 0.00031790124728 
0.00031669445816 0.00031549524561 0.00031430268182 0.00031311567214 0.00031193434839 0.00031075826391 0.00030958704508 0.00030842052032 0.00030725840808 