# vtk DataFile Version 5.1
vtk output
ASCII
DATASET STRUCTURED_POINTS
DIMENSIONS 50 50 50
SPACING 0.002 0.002 0.002
ORIGIN 0.1742 -0.052672 0.02732
POINT_DATA 125000
FIELD FieldData 1
potential 1 125000 double
<<<<<<< HEAD
0.0004060131183 0.00040419062412 0.00040237834686 0.00040057563302 0.00039878318431 0.00039700045261 0.00039522751667 0.00039346370433 0.00039171042312 
0.00038996598875 0.00038823064757 0.00038650463672 0.00038478764298 0.00038308066816 0.0003813834535 0.00037969715332 0.00037802124636 0.00037635606128 
0.00037470235498 0.00037306011313 0.0003714283136 0.000369806762 0.00036819449462 0.00036659212249 0.00036499905255 0.00036341480272 0.00036184158663 
0.00036027970384 0.00035873030116 0.00035719474889 0.00035567328362 0.00035416955226 0.00035268293119 0.00035121356611 0.0003497623648 0.00034832810074 
0.00034691036959 0.00034550787211 0.00034411958881 0.00034274456492 0.00034138171953 0.00034003036832 0.00033869049668 0.00033736219801 0.00033604629219 
0.00033474308225 0.00033345326588 0.00033217734352 0.00033091549987 0.00032966825028 0.00040590236376 0.00040408575119 0.00040227866546 0.00040048134934 
0.00039869445507 0.00039691690319 0.00039514885194 0.00039339084126 0.0003916416694 0.0003899015257 0.0003881699073 0.00038644714342 0.0003847333749 
0.00038302872452 0.00038133392503 0.00037964905324 0.00037797421066 0.0003763098644 0.00037465671335 0.00037301387993 0.00037138115889 0.00036975829688 
0.00036814493622 0.00036654063235 0.00036494634816 0.00036336178695 0.00036178676423 0.00036022403126 0.00035867397405 0.00035713832108 0.00035561684249 
0.00035411348726 0.00035262744999 0.00035115941306 0.0003497088008 0.00034827629357 0.00034686043753 0.00034546007556 0.00034407416229 0.00034270171619 
0.00034134179861 0.0003399937445 0.00033865753816 0.00033733267117 0.0003360205177 0.00033472107246 0.00033343522601 0.00033216324462 0.00033090543242 
0.00032966233772 0.00040564033743 0.00040383087258 0.00040203049501 0.00040023994717 0.00039845902706 0.00039668803601 0.00039492707433 0.00039317436089 
0.00039143089689 0.00038969614003 0.00038796941994 0.00038625121332 0.00038454133178 0.00038284047895 0.00038114804865 0.00037946571065 0.00037779324658 
0.00037613043775 0.00037447782912 0.00037283525659 0.00037120250095 0.00036957881939 0.00036796512952 0.00036635956986 0.00036476404671 0.00036317808655 
0.00036160325508 0.00036004053559 0.00035849105718 0.00035695603416 0.00035543566404 0.00035393341279 0.00035244894762 0.00035098262754 0.00034953432796 
0.00034810407583 0.00034669084676 0.00034529342895 0.00034391094054 0.00034254197465 0.00034118596719 0.00033984216011 0.00033850982527 0.00033718990764 
0.00033588221537 0.00033458746597 0.00033330596638 0.00033203867821 0.00033078539373 0.00032954668353 0.00040519388605 0.00040339247113 0.00040160040769 
0.00039981775605 0.00039804524278 0.00039628196888 0.00039452758499 0.00039278213538 0.00039104578775 0.00038931754224 0.00038759685304 0.00038588425358 
0.00038417993267 0.00038248313988 0.00038079539752 0.00037911692007 0.00037744696095 0.00037578646057 0.00037413527927 0.00037249339603 0.00037086181008 
0.00036923861741 0.00036762363867 0.00036601826192 0.00036442224149 0.00036283702286 0.00036126300029 0.00035970112731 0.00035815277246 0.00035661808936 
0.00035510096766 0.00035360110798 0.00035211950451 0.00035065604269 0.00034921121487 0.00034778399918 0.00034637447336 0.00034498109199 0.00034360288726 
0.00034223861072 0.00034088742777 0.00033954837752 0.00033822170212 0.00033690698266 0.00033560474263 0.00033431516105 0.00033303885358 0.00033177646159 
0.00033052844618 0.00032929487575 0.00040453752649 0.00040274536485 0.00040096274202 0.00039918989869 0.00039742601657 0.00039567124552 0.00039392594697 
0.00039218894487 0.00039046050228 0.00038873988747 0.00038702687415 0.00038532111247 0.00038362262364 0.00038193220759 0.0003802498254 0.00037857581552 
0.00037691004545 0.00037525336343 0.00037360466853 0.00037196478602 0.00037033404726 0.00036871124822 0.00036709811686 0.0003654933976 0.0003638990334 
0.00036231496143 0.00036074273044 0.00035918290275 0.00035763700549 0.00035610533747 0.00035459135007 0.00035309482071 0.00035161674532 0.00035015753112 
0.00034871703287 0.00034729474784 0.00034588966253 0.00034450168024 0.0003431287015 0.00034177008643 0.0003404248248 0.00033909179601 0.00033777129503 
0.00033646279218 0.00033516642761 0.000333882898 0.00033261245369 0.00033135570057 0.00033011314699 0.00032888472819 0.00040365524185 0.00040187332948 
0.0004001015965 0.00039833864117 0.00039658516204 0.00039484036959 0.0003931048336 0.00039137751326 0.00038965814287 0.00038794677468 0.00038624156073 
0.00038454418948 0.00038285396365 0.00038117060266 0.00037949461141 0.00037782687002 0.00037616610002 0.00037451302296 0.00037286829083 0.00037123163055 
0.00036960298356 0.00036798312062 0.00036637180245 0.00036477051045 0.0003631787461 0.00036159749457 0.00036002806255 0.00035847164004 0.00035692838173 
0.00035540196736 0.0003538923033 0.0003524007039 0.0003509276136 0.00034947375508 0.00034803862359 0.00034662185206 0.00034522295684 0.00034384095601 
0.00034247441795 0.00034112249144 0.00033978380304 0.00033845832135 0.0003371445638 0.00033584297384 0.00033455335874 0.00033327632422 0.0003320122078 
0.00033076115977 0.00032952438572 0.00032830194955 0.00040254099649 0.0004007705537 0.00039900976642 0.00039725819152 0.00039551571737 0.00039378233797 
0.00039205782919 0.00039034116435 0.00038863222181 0.00038693019309 0.00038523527803 0.0003835470479 0.00038186508616 0.00038019074759 0.00037852269699 
0.00037686117982 0.00037520659976 0.00037355931231 0.00037191953963 0.00037028707963 0.00036866324087 0.00036704692184 0.00036544031324 0.00036384283026 
0.00036225527204 0.00036067844409 0.00035911346419 0.00035756184134 0.00035602381735 0.00035450282885 0.00035299902794 0.00035151351932 0.00035004693551 
0.00034859952355 0.00034717087735 0.00034576135388 0.00034436937731 0.00034299439545 0.00034163528579 0.00034029094031 0.00033895977175 0.00033764177456 
0.00033633565865 0.00033504142743 0.00033375899407 0.00033248894745 0.00033123154209 0.00032998711058 0.00032875657534 0.00032753986555 0.00040119916859 
0.00039944090008 0.00039769206453 0.00039595281263 0.00039422247781 0.00039250078841 0.00039078796016 0.00038908338975 0.00038738530017 0.0003856946139 
0.00038401106408 0.00038233275981 0.00038066047195 0.00037899475777 0.00037733533585 0.00037568174779 0.00037403498018 0.00037239455992 0.0003707615337 
0.00036913580699 0.00036751695697 0.00036590720312 0.00036430621458 0.00036271417769 0.00036113253009 0.00035956184195 0.00035800323168 0.0003564566718 
0.00035492645563 0.00035341249932 0.00035191618508 0.00035043814905 0.00034897906684 0.00034753919232 0.0003461189211 0.00034471716609 0.00034333307697 
0.00034196631049 0.00034061526434 0.00033927871524 0.00033795609165 0.00033664607489 0.00033534774042 0.00033406126562 0.00033278648208 0.00033152386335 
0.00033027336818 0.00032903566859 0.00032781164046 0.00032660133982 0.00039964542599 0.00039789941925 0.00039616344638 0.00039443644546 0.00039271904165 
0.00039101046466 0.00038930959733 0.0003876176235 0.00038593220437 0.00038425313642 0.00038258043408 0.00038091309653 0.00037925189345 0.00037759611792 
0.0003759464841 0.00037430247209 0.00037266381922 0.00037103224088 0.00036940763585 0.00036778906084 0.0003661786171 0.0003645762968 0.00036298257307 
0.00036139817189 0.00035982391831 0.00035826109963 0.00035671060675 0.00035517242708 0.00035365026031 0.00035214493501 0.00035065728594 0.00034918802995 
0.00034773774796 0.00034630678922 0.00034489516627 0.00034350225113 0.00034212710454 0.0003407689972 0.00033942699365 0.00033809880611 0.00033678449281 
0.00033548296001 0.00033419338391 0.00033291490846 0.00033164786867 0.00033039251555 0.00032914939721 0.00032791796944 0.00032670034525 0.00032549614285 
0.00039790343287 0.00039617031606 0.00039444720672 0.00039273360665 0.00039102927008 0.00038933391296 0.00038764657388 0.00038596619275 0.00038429345647 
0.00038262672038 0.00038096612169 0.00037931063278 0.00037766076595 0.00037601621775 0.00037437709047 0.00037274294266 0.00037111523781 0.00036949356627 
0.00036787757585 0.00036626930939 0.00036466842151 0.00036307580849 0.00036149152261 0.00035991658211 0.00035835196189 0.00035679863156 0.00035525776477 
0.00035372943073 0.00035221755176 0.00035072162926 0.00034924371211 0.00034778445502 0.00034634403465 0.00034492314871 0.00034352108866 0.00034213772487 
0.00034077202764 0.00033942272474 0.00033808935799 0.00033677056946 0.00033546545723 0.00033417249144 0.00033289136682 0.00033162113563 0.00033036191 
0.00032911353182 0.00032787746146 0.00032665351606 0.00032544260895 0.00032424482767 0.00039600429441 0.00039428492647 0.00039257549926 0.00039087486866 
0.00038918390527 0.0003875012429 0.00038582650824 0.00038415956504 0.00038249964627 0.00038084541692 0.00037919675741 0.00037755371033 0.00037591599225 
0.00037428367957 0.000372655966 0.0003710339453 0.00036941767659 0.00036780649096 0.00036620239037 0.00036460528251 0.00036301541723 0.0003614334216 
0.00035986015049 0.000358296614 0.00035674315274 0.00035520113084 0.00035367047222 0.00035215494607 0.00035065451978 0.00034917048883 0.00034770351208 
0.00034625522839 0.0003448258205 0.00034341520069 0.00034202344678 0.00034064980562 0.00033929401199 0.00033795449949 0.00033663033825 0.00033532074468 
0.0003340242436 0.00033273986979 0.00033146649872 0.00033020442095 0.00032895288901 0.00032771240508 0.00032648354153 0.00032526651099 0.00032406228568 
0.00032287097861 0.00039398603485 0.00039228001159 0.00039058336615 0.00038889570959 0.00038721778316 0.00038554825126 0.00038388668195 0.0003822325037 
0.00038058493099 0.00037894346271 0.00037730756105 0.00037567719083 0.00037405216721 0.00037243183294 0.00037081714315 0.00036920769973 0.00036760313492 
0.00036600529701 0.00036441396691 0.00036282917794 0.00036125178713 0.00035968237441 0.00035812170921 0.00035657065097 0.00035503008432 0.00035350116923 
0.00035198347756 0.00035048078392 0.00034899298121 0.00034752153482 0.00034606720301 0.00034463101613 0.00034321245803 0.00034181303301 0.00034043223746 
0.00033906924321 0.00033772339727 0.00033639320872 0.00033507869691 0.00033377817225 0.00033248981559 0.00033121375867 0.00032994883122 0.00032869472089 
0.00032745074764 0.00032621762475 0.00032499580599 0.00032378559361 0.000322587957 0.00032140335231 0.0003918846036 0.00039019191985 0.00038850872075 
0.00038683488314 0.00038516892909 0.00038351226759 0.00038186366819 0.00038022201005 0.00037858696321 0.00037695800637 0.0003753348499 0.00037371665006 
0.00037210463449 0.00037049796051 0.00036889627601 0.00036729946537 0.00036570917304 0.00036412484219 0.00036254686604 0.00036097588421 0.00035941230092 
0.00035785695083 0.00035631052997 0.00035477358337 0.00035324711332 0.00035173076271 0.00035022852416 0.00034873978532 0.00034726605923 0.00034580819186 
0.00034436657533 0.00034294304679 0.00034153710777 0.00034014921093 0.00033877958889 0.00033742708733 0.0003360907831 0.00033477004327 0.00033346468368 
0.00033217297743 0.0003308935554 0.00032962559355 0.0003283688968 0.00032712231466 0.00032588589806 0.00032466008978 0.00032344515311 0.00032224178051 
0.00032105056439 0.00031987223195 0.00038974052017 0.00038806053699 0.0003863899146 0.00038472852173 0.00038307530357 0.00038143081471 0.00037979436977 
0.00037816519928 0.00037654212322 0.00037492546171 0.00037331456062 0.00037170984638 0.00037011092255 0.00036851758013 0.00036692871407 0.00036534656862 
0.00036377041824 0.00036220038085 0.00036063679334 0.00035908055597 0.00035753177021 0.00035599157785 0.00035446008812 0.00035293833498 0.00035142714889 
0.00034992596685 0.00034843867537 0.00034696438124 0.00034550488138 0.00034406121714 0.00034263407815 0.0003412238996 0.00033983048349 0.00033845451114 
0.00033709522986 0.00033575335092 0.00033442705847 0.00033311622654 0.00033181976372 0.00033053650645 0.00032926525225 0.00032800544269 0.00032675610837 
0.00032551715162 0.00032428809103 0.00032306927932 0.00032186155448 0.00032066488282 0.00031948043955 0.00031830795492 0.00038758807384 0.00038592030457 
0.00038426192303 0.00038261280175 0.00038097201671 0.00037933882154 0.00037771395124 0.00037609670452 0.00037448578021 0.00037288074971 0.00037128277408 
0.00036969062333 0.00036810493355 0.00036652419069 0.00036494994044 0.00036338215547 0.00036182037384 0.00036026529663 0.0003587168243 0.00035717580997 
0.00035564249869 0.00035411789379 0.00035260209919 0.00035109614935 0.00034959907534 0.00034811514714 0.00034664350328 0.00034518507757 0.00034374065577 
0.00034231182755 0.0003408983205 0.00033950074435 0.00033812029068 0.00033675650704 0.00033540883564 0.000334076934 0.00033276063077 0.00033145913007 
0.00033017123208 0.00032889617958 0.00032763288489 0.00032638057388 0.00032513898192 0.00032390703705 0.0003226852102 0.00032147360215 0.00032027268844 
0.00031908306264 0.00031790468405 0.00031673806092 0.00038545942704 0.00038380323549 0.0003821563018 0.00038051860584 0.00037888917983 0.00037726811648 
0.00037565400562 0.00037404775514 0.00037244791969 0.00037085543225 0.00036926941269 0.00036768994452 0.00036611642743 0.0003645499416 0.00036298981898 
0.00036143621109 0.00035988913879 0.00035834899515 0.00035681603414 0.00035529028937 0.00035377289717 0.00035226380548 0.0003507641693 0.00034927431483 
0.00034779384141 0.00034632610065 0.00034487033535 0.00034342752206 0.00034199798207 0.0003405832639 0.00033918389094 0.00033780001792 0.00033643231346 
0.00033508055872 0.0003337438 0.00033242207067 0.00033111569054 0.00032982294255 0.00032854354734 0.00032727647376 0.00032602085914 0.00032477596583 
0.00032354152624 0.00032231673766 0.00032110183558 0.00031989720742 0.00031870344398 0.00031751999106 0.00031634792259 0.00031518722812 0.00038338041683 
0.00038173530842 0.00038009928429 0.00037847242344 0.00037685387505 0.00037524351982 0.00037364001463 0.00037204436814 0.00037045644926 0.00036887551111 
0.00036730148215 0.00036573351564 0.00036417324041 0.00036261986789 0.00036107339613 0.00035953363815 0.00035800126614 0.0003564758617 0.00035495811444 
0.00035344816279 0.0003519464636 0.00035045371162 0.00034897035402 0.00034749543647 0.00034603232724 0.00034457989492 0.00034313995206 0.00034171250289 
0.00034029861911 0.00033889844054 0.00033751281047 0.00033614205017 0.00033478647951 0.00033344626888 0.00033212033723 0.00033080902273 0.00032951196835 
0.00032822809614 0.00032695662137 0.00032569738009 0.00032444940118 0.00032321156939 0.00032198428733 0.00032076660084 0.00031955874623 0.000318360816 
0.00031717346841 0.0003159964528 0.00031483046427 0.00031367507552 0.00038137213134 0.00037973737413 0.00037811183884 0.00037649532538 0.0003748871285 
0.00037328643588 0.00037169407263 0.00037010875049 0.0003685314426 0.00036696141885 0.00036539801243 0.00036384252591 0.00036229505976 0.00036075452054 
0.00035922068076 0.00035769494899 0.00035617696474 0.00035466655083 0.00035316385422 0.00035166926865 0.00035018317944 0.00034870613197 0.00034723799968 
0.00034577883209 0.00034433141586 0.00034289529549 0.00034147056044 0.00034005848681 0.00033865880116 0.00033727277435 0.00033590067778 0.00033454288475 
0.00033319939296 0.0003318698031 0.0003305547442 0.00032925363988 0.00032796525726 0.00032669001459 0.00032542678898 0.00032417497061 0.00032293398191 
0.00032170358867 0.00032048299885 0.00031927224132 0.00031807166566 0.00031688036291 0.00031569921478 0.0003145284257 0.00031336784871 0.00031221861808 
0.00037944941557 0.00037782473543 0.00037620911145 0.00037460234 0.00037300358644 0.0003714130759 0.00036983075873 0.00036825610593 0.0003666886508 
0.00036512849971 0.00036357649208 0.00036203255314 0.00036049705491 0.00035896918445 0.00035744911648 0.00035593665625 0.00035443230282 0.00035293599557 
0.00035144728415 0.00034996743609 0.00034849649698 0.00034703450075 0.00034558084446 0.00034413817957 0.00034270595212 0.00034128459973 0.00033987482245 
0.00033847691324 0.00033709127785 0.00033571873453 0.00033435973429 0.0003330138447 0.00033168220875 0.00033036359125 0.00032905858188 0.00032776694078 
0.00032648794436 0.00032522055794 0.00032396505469 0.00032272081894 0.00032148729932 0.00032026361777 0.00031905004237 0.00031784614651 0.00031665231092 
0.00031546753856 0.00031429240369 0.00031312762102 0.00031197301403 0.00031082920014 0.00037762311259 0.00037600786641 0.00037440113383 0.00037280392893 
0.00037121479866 0.00036963449603 0.00036806113642 0.00036649629496 0.00036493853154 0.00036338916872 0.00036184839584 0.00036031562101 0.00035879131671 
0.00035727585446 0.00035576741326 0.00035426793782 0.00035277676259 0.00035129390343 0.00034981962728 0.00034835390867 0.00034689712502 0.00034544956874 
0.00034401020168 0.00034258214588 0.00034116422355 0.00033975716759 0.00033836126538 0.00033697697181 0.0003356047824 0.00033424494806 0.0003328980264 
0.00033156422678 0.00033024307293 0.00032893533195 0.0003276401721 0.00032635751829 0.00032508717884 0.00032382813177 0.00032258033546 0.00032134343521 
0.00032011695731 0.00031890033508 0.00031769354649 0.00031649611299 0.00031530867931 0.00031413029613 0.0003129614696 0.0003118021712 0.00031065362829 
0.00030951498308 0.00037590083455 0.00037429360303 0.00037269647164 0.00037110797989 0.00036952811491 0.00036795660751 0.00036639303028 0.00036483675418 
0.00036328967673 0.00036175073489 0.00036021981711 0.00035869782435 0.0003571845498 0.00035568028672 0.00035418450519 0.0003526967858 0.00035121818528 
0.00034974817212 0.00034828673775 0.00034683428041 0.00034539109027 0.00034395574008 0.00034253142067 0.00034111678255 0.00033971229293 0.00033831870566 
0.00033693576425 0.00033556425607 0.00033420450814 0.00033285691402 0.00033152167494 0.00033019918423 0.00032888829703 0.00032759054506 0.00032630474888 
0.00032503108931 0.00032376890972 0.00032251788311 0.00032127796692 0.00032004827902 0.00031882849615 0.00031761884725 0.00031641893128 0.0003152281629 
0.00031404648579 0.00031287445965 0.00031171164822 0.0003105584223 0.00030941504903 0.00030828158928 0.00037428535089 0.00037268751028 0.00037109904901 
0.00036951889775 0.00036794797869 0.00036638519553 0.00036482924921 0.00036328304168 0.00036174532949 0.00036021629821 0.00035869526987 0.00035718351081 
0.00035568067272 0.00035418696884 0.00035270246534 0.00035122660656 0.00034975963113 0.00034830151658 0.00034685240036 0.00034541241782 0.00034398161886 
0.00034255894051 0.0003411471481 0.00033974527665 0.00033835349625 0.00033697223407 0.00033560143442 0.00033424211004 0.00033289408807 0.00033155788096 
0.00033023382784 0.00032892114767 0.00032762072809 0.00032633228552 0.00032505560236 0.00032379032746 0.00032253639285 0.00032129303669 0.00032006060188 
0.00031883822932 0.00031762544474 0.00031642214447 0.00031522895444 0.00031404441132 0.00031286900651 0.0003117025946 0.00031054573232 0.00030939824362 
0.0003082600611 0.00030713159473 0.0003727799968 0.0003711898251 0.00036960931298 0.00036803763689 0.00036647495225 0.00036491976526 0.00036337399578 
0.00036183668521 0.00036030792544 0.00035878806618 0.00035727701309 0.00035577442893 0.00035428161708 0.00035279797165 0.00035132387916 0.0003498583223 
0.00034840227427 0.00034695526109 0.00034551769673 0.00034408903854 0.00034266854527 0.00034125897669 0.00033985936903 0.00033846913051 0.00033708929434 
0.00033571943958 0.00033436024712 0.00033301216035 0.000331674981 0.00033034937561 0.00032903511026 0.00032773267091 0.0003264419269 0.0003251622228 
0.00032389421379 0.0003226372046 0.00032139107105 0.00032015535276 0.00031892998926 0.00031771448964 0.00031650865389 0.00031531231241 0.00031412483316 
0.00031294640241 0.0003117768712 0.00031061692139 0.0003094654069 0.00030832304414 0.0003071903401 0.00030606684047 0.00037138360343 0.00036980140087 
0.0003682290621 0.00036666433318 0.00036510966268 0.00036356347157 0.00036202583253 0.00036049696592 0.00035897698441 0.00035746599147 0.0003559637785 
0.00035447044663 0.00035298707553 0.00035151282161 0.00035004814667 0.00034859276593 0.00034714686123 0.00034571027875 0.00034428321942 0.00034286534455 
0.00034145574215 0.00034005697191 0.00033866766467 0.00033728869523 0.000335919633 0.00033456034782 0.00033321185278 0.00033187403983 0.00033054731304 
0.0003292317782 0.00032792670054 0.0003266340352 0.00032535206169 0.00032408099001 0.00032282099442 0.00032157186953 0.00032033333443 0.00031910490998 
0.00031788667999 0.00031667780321 0.00031547873899 0.00031428876325 0.0003131075056 0.00031193482929 0.00031077141535 0.00030961623305 0.00030847049504 
0.0003073337605 0.00030620609812 0.00030508759842 0.00037009693971 0.00036852224465 0.00036695613021 0.00036539989299 0.00036385279808 0.0003623142413 
0.00036078449667 0.00035926368745 0.00035775188648 0.00035624922253 0.00035475556175 0.00035327130214 0.00035179598448 0.00035033077659 0.0003488748772 
0.00034742881348 0.00034599225069 0.0003445653187 0.00034314790526 0.00034173867646 0.00034034047696 0.00033895150067 0.00033757276895 0.00033620359579 
0.00033484442018 0.00033349560474 0.00033215706252 0.00033082879023 0.00032951139541 0.00032820440528 0.00032690879341 0.0003256242106 0.00032435062217 
0.00032308774953 0.00032183550541 0.00032059395222 0.00031936254562 0.00031814118436 0.00031692958623 0.00031572721174 0.0003145346574 0.00031335061379 
0.00031217614527 0.00031100956586 0.00030985097136 0.00030870161972 0.00030756122832 0.0003064294797 0.00030530711746 0.00030419330445 0.00036891829165 
0.00036735008311 0.000365791774 0.00036424240378 0.00036270249875 0.00036117107571 0.00035964878093 0.00035813572941 0.00035663149579 0.00035513668329 
0.00035365094557 0.00035217465734 0.00035070718436 0.00034925021247 0.00034780294256 0.00034636516172 0.00034493752318 0.00034351935487 0.00034210942378 
0.00034071076685 0.00033932174539 0.00033794240146 0.00033657298489 0.00033521344133 0.00033386357577 0.00033252396543 0.00033119440883 0.00032987525412 
0.00032856616065 0.00032726786315 0.00032598059782 0.0003247046722 0.00032343900714 0.00032218389493 0.00032093900049 0.0003197045934 0.00031848007544 
0.00031726559422 0.00031606037472 0.00031486460886 0.00031367773121 0.00031249966122 0.00031133026953 0.00031016941293 0.00030901645 0.00030787213598 
0.00030673679216 0.00030560995298 0.00030449216864 0.00030338314345 0.0003678461468 0.00036628531918 0.00036473333858 0.00036319068503 0.00036165756829 
0.00036013315499 0.00035861783106 0.00035711177151 0.00035561480604 0.00035412720423 0.00035264885623 0.00035118014661 0.00034972092856 0.00034827100775 
0.00034683146957 0.00034540146854 0.00034398186705 0.00034257172583 0.00034117013135 0.0003397798651 0.00033839960687 0.00033702918266 0.00033566824803 
0.00033431728978 0.00033297623046 0.00033164505676 0.00033032415986 0.00032901328792 0.000327711982 0.00032642191863 0.000325142476 0.00032387343174 
0.00032261504312 0.00032136702548 0.0003201292516 0.00031890179452 0.00031768379999 0.00031647539838 0.0003152769599 0.0003140869819 0.0003129058039 
0.00031173343766 0.00031056928217 0.00030941359865 0.00030826628849 0.00030712726608 0.00030599668193 0.00030487442467 0.00030376126107 0.00030265690876 
0.00036688181465 0.00036532679698 0.00036378100056 0.00036224453253 0.00036071769234 0.0003591996307 0.00035769090455 0.00035619140438 0.00035470095933 
0.00035321996083 0.00035174840171 0.00035028654519 0.00034883431077 0.00034739179524 0.00034595857623 0.00034453589997 0.00034312306943 0.00034171947987 
0.00034032695384 0.00033894447812 0.00033757196855 0.00033620970964 0.00033485691884 0.00033351393264 0.00033218067563 0.00033085730642 0.00032954435388 
0.00032824080199 0.00032694759781 0.00032566479605 0.00032439231696 0.00032313050508 0.00032187914696 0.00032063785249 0.00031940660249 0.00031818546683 
0.00031697359195 0.00031577187941 0.00031457856903 0.00031339453029 0.00031221901768 0.00031105185072 0.00030989308109 0.00030874221354 0.00030760002842 
0.00030646586885 0.00030534008659 0.00030422273526 0.00030311344442 0.00030201352002 0.00036602461935 0.00036447513006 0.00036293496198 0.00036140393816 
0.00035988263988 0.00035837068965 0.00035686779484 0.0003553741579 0.00035388980501 0.00035241477872 0.00035094950684 0.00034949367056 0.00034804754753 
0.00034661139588 0.00034518455489 0.00034376820203 0.00034236224033 0.00034096517992 0.00033958001594 0.00033820466211 0.00033683963979 0.0003354844293 
0.00033413899347 0.0003328035674 0.00033147756787 0.00033016177807 0.00032885522033 0.00032755912456 0.00032627293968 0.00032499676933 0.00032373104466 
0.00032247564054 0.00032123067797 0.00031999579713 0.00031877075898 0.00031755540168 0.00031634949738 0.00031515346242 0.00031396572167 0.00031278711482 
0.00031161683124 0.00031045481263 0.00030930072831 0.00030815486039 0.00030701751699 0.00030588809588 0.00030476679969 0.00030365382987 0.00030254937244 
0.00030145329726 0.00036527517008 0.00036373027974 0.00036219517521 0.00036066914617 0.00035915290679 0.00035764602088 0.00035614850136 0.00035466032113 
0.00035318137121 0.00035171176781 0.00035025168705 0.00034880128891 0.00034736084084 0.00034593019921 0.00034450976557 0.00034309884626 0.00034169755432 
0.00034030795819 0.00033892900384 0.00033756044378 0.0003362018687 0.00033485350682 0.00033351501543 0.00033218637566 0.00033086754075 0.00032955801374 
0.00032825784685 0.00032696814765 0.00032568804375 0.00032441840112 0.00032315855037 0.00032190910426 0.0003206700287 0.00031944071976 0.00031822141177 
0.00031701156212 0.00031581180435 0.00031462078638 0.00031343855674 0.00031226458998 0.00031109908178 0.00030994220778 0.00030879284035 0.00030765160251 
0.00030651832164 0.00030539335049 0.00030427636553 0.00030316778379 0.00030206755905 0.00030097593429 0.00036463355748 0.00036309314213 0.00036156229626 
0.00036004083788 0.00035852890983 0.0003570265296 0.00035553358218 0.00035405015397 0.0003525757977 0.00035111093727 0.00034965574841 0.00034821009678 
0.00034677423193 0.00034534870008 0.00034393304827 0.00034252807781 0.00034113160215 0.00033974765797 0.00033837417614 0.00033701200373 0.0003356595628 
0.00033431751694 0.00033298519543 0.00033166269984 0.00033034993258 0.00032904604898 0.00032775229424 0.00032646800568 0.00032519368851 0.00032392936312 
0.00032267517619 0.00032143105628 0.00032019711816 0.00031897325975 0.00031775921842 0.00031655482236 0.0003153599114 0.00031417381553 0.00031299646789 
0.00031182755021 0.00031066653749 0.00030951354414 0.00030836875197 0.00030723183846 0.00030610270466 0.00030498158007 0.0003038688805 0.0003027644259 
0.00030166839244 0.00030058060247 0.00036410070566 0.0003625639578 0.00036103711766 0.00035951938203 0.00035801135371 0.00035651275031 0.00035502371519 
0.00035354410522 0.00035207386691 0.00035061298704 0.00034916157916 0.00034772020685 0.00034628835016 0.00034486679138 0.00034345575567 0.00034205378797 
0.00034066345226 0.00033928463166 0.00033791662599 0.0003365596807 0.00033521294181 0.0003338763068 0.00033254966298 0.00033123295132 0.00032992524133 
0.00032862729796 0.00032733849927 0.0003260593089 0.00032479002073 0.00032353043513 0.00032228103998 0.00032104175096 0.0003198126815 0.00031859342328 
0.00031738437627 0.00031618446982 0.00031499400441 0.00031381264929 0.00031263976859 0.0003114750936 0.00031031867596 0.00030916951087 0.0003080285594 
0.00030689548024 0.00030577052131 0.00030465314012 0.00030354427154 0.00030244367291 0.00030135111082 0.0003002673131 0.00036367639903 0.00036214285533 
0.00036061930487 0.00035910495285 0.00035760019469 0.00035610481745 0.0003546190431 0.00035314229808 0.00035167511657 0.00035021758236 0.00034876973065 
0.00034733142367 0.00034590303914 0.00034448503853 0.00034307627341 0.0003416795832 0.00034029375519 0.00033891866298 0.00033755562556 0.00033620321622 
0.00033486173759 0.00033353031443 0.00033220878981 0.00033089693276 0.00032959404644 0.000328300762 0.00032701668303 0.00032574188764 0.00032447662308 
0.00032322145379 0.00032197614671 0.00032074089734 0.00031951582115 0.00031830120782 0.00031709607491 0.00031590041658 0.00031471411842 0.00031353686161 
0.00031236824314 0.00031120747721 0.00031005502203 0.00030890969248 0.00030777228563 0.0003066426512 0.00030552092317 0.00030440719387 0.0003033015579 
0.00030220445971 0.00030111558725 0.00030003562515 0.00036335990615 0.00036182933348 0.00036030818803 0.00035879668255 0.00035729434801 0.00035580119109 
0.0003543178948 0.00035284382056 0.0003513793454 0.00034992424424 0.00034847875912 0.00034704318519 0.00034561740027 0.00034420222199 0.00034279634003 
0.00034140300981 0.00034002088671 0.00033864988138 0.00033729066494 0.00033594256536 0.00033460554999 0.0003332787896 0.0003319615668 0.00033065359662 
0.00032935515631 0.00032806628258 0.00032678616758 0.00032551491892 0.00032425324562 0.00032300138884 0.00032175940655 0.00032052753804 0.00031930640243 
0.00031809498389 0.0003168934065 0.00031570173109 0.00031451917012 0.00031334587492 0.00031218090566 0.00031102379339 0.00030987444198 0.00030873270543 
0.0003075984253 0.00030647193492 0.00030535340075 0.00030424280626 0.00030314031103 0.00030204626498 0.00030096095782 0.0002998843702 0.00036314928506 
0.00036162102567 0.00036010190605 0.00035859220795 0.00035709184353 0.00035560045172 0.00035411875011 0.00035264666971 0.00035118372941 0.00034973046716 
0.00034828687378 0.00034685320428 0.00034542948474 0.00034401493683 0.00034261272757 0.00034122210061 0.00033984324795 0.00033847590947 0.00033711962245 
0.00033577528425 0.000334441817 0.00033311928997 0.00033180567471 0.00033050181944 0.00032920720925 0.0003279213388 0.00032664434712 0.00032537639653 
0.00032411747268 0.00032286828908 0.00032162906637 0.00032039994402 0.00031918175577 0.00031797346947 0.00031677501756 0.00031558655448 0.00031440749938 
0.00031323734958 0.00031207566217 0.00031092190257 0.00030977536026 0.00030863657255 0.00030750534078 0.00030638175756 0.00030526588424 0.00030415747841 