# vtk DataFile Version 5.1
vtk output
ASCII
DATASET STRUCTURED_POINTS
DIMENSIONS 50 50 50
SPACING 0.002 0.002 0.002
ORIGIN 0.1742 -0.052672 0.02732
POINT_DATA 125000
FIELD FieldData 1
potential 1 125000 double
<<<<<<< HEAD
0.0037707867885 0.0038081179455 0.0038457947916 0.0038838229649 0.0039222058965 0.0039609429131 0.0040000308618 0.004039480411 0.0040792820344 
0.0041194402801 0.0041599557077 0.0042008234678 0.0042420489288 0.0042836339975 0.0043255808705 0.0043678903603 0.0044105524509 0.0044535769953 
0.0044969486251 0.0045406628775 0.0045846953083 0.004629034385 0.0046736573254 0.004718579831 0.0047637791861 0.0048092622686 0.0048550391175 
0.004901121186 0.0049474713226 0.004994213554 0.0050413251996 0.005088820836 0.0051367080499 0.0051849891016 0.0052336704524 0.0052827312877 
0.0053321578373 0.0053819293416 0.0054320228149 0.0054824299395 0.0055332265178 0.0055842092723 0.0056354650994 0.0056870114395 0.0057388426124 
0.0057909655494 0.0058433874023 0.0058961069872 0.0059491173077 0.0060024207007 0.0038217526453 0.0038599330787 0.0038984729868 0.0039373763459 
0.0039766483578 0.004016288463 0.0040562904603 0.0040966704221 0.0041374126559 0.0041785269581 0.004219999396 0.0042618349007 0.0043040406667 
0.0043466156673 0.004389557777 0.0044328754072 0.0044765582398 0.0045206038032 0.0045650080424 0.0046097607763 0.0046548415749 0.0047002429292 
0.0047459475533 0.0047919520635 0.0048382704059 0.0048848368463 0.0049317584737 0.0049790040298 0.0050265904593 0.005074555103 0.0051229009199 
0.0051716575151 0.0052208267661 0.005270420841 0.0053204242022 0.0053708356812 0.0054216347341 0.005472798292 0.005524310962 0.0055762492082 
0.0056284049046 0.0056808653753 0.0057336177158 0.0057866755271 0.005840039464 0.0058937112381 0.0059477094827 0.0060020124428 0.0060566215008 
0.0061115403368 0.0038714859686 0.0039105233151 0.0039499310822 0.0039897179258 0.0040298842356 0.004070434339 0.004111366042 0.0041526818943 
0.0041943722245 0.0042364443477 0.0042788853411 0.0043216986667 0.0043648938668 0.0044084641366 0.0044524165443 0.0044967470286 0.0045414513282 
0.0045865252834 0.0046319655602 0.0046777635872 0.004723904693 0.0047703759033 0.0048171238521 0.0048642281809 0.0049116573279 0.0049594041588 
0.0050074823976 0.0050559148791 0.0051047149865 0.0051539117515 0.0052035191978 0.0052535537493 0.0053040257079 0.0053549459047 0.0054062975184 
0.0054580796173 0.0055102691909 0.0055628494225 0.0056159063919 0.005669205307 0.0057228519301 0.0057768191917 0.0058311085477 0.005885716674 
0.0059406441106 0.0059959108049 0.0060514946836 0.0061074121098 0.0061636493451 0.0062202026158 0.0039196257073 0.0039595175376 0.0039997974774 
0.0040404724015 0.0040815367472 0.0041230064999 0.0041648666271 0.0042071172641 0.0042497620551 0.0042927927181 0.004336210617 0.0043800116667 
0.0044242015837 0.0044687770013 0.0045137394877 0.0045590887531 0.0046048151859 0.0046509227625 0.0046974053435 0.0047442095855 0.0047914138851 
0.0048389557599 0.0048868318328 0.0049350423675 0.0049835945655 0.0050324968368 0.0050817544992 0.0051313798941 0.0051814064635 0.0052318480424 
0.0052827263823 0.0053340579819 0.0053858554156 0.0054381133865 0.0054908351079 0.0055440016112 0.0055976018772 0.0056516269744 0.0057061496724 
0.0057609478736 0.0058161068123 0.0058716117502 0.0059274546122 0.0059836459301 0.006040167159 0.0060970302109 0.0061542429828 0.0062117872641 
0.0062696830455 0.0063279126879 0.0039658951428 0.0040066398181 0.0040477906676 0.0040893526487 0.0041313162736 0.0041736923142 0.0042164829566 
0.0042596712399 0.0043032707263 0.0043472698493 0.0043916599862 0.0044364495575 0.0044816343652 0.0045272144442 0.0045731893969 0.0046195559944 
0.0046662815635 0.0047134237143 0.0047609500568 0.0048088424887 0.0048571099128 0.0049057173697 0.0049546950528 0.0050040277461 0.0050537183374 
0.0051037806097 0.0051542184715 0.0052050583336 0.0052563204798 0.005308024149 0.0053601887008 0.0054128284183 0.0054659565904 0.0055195707331 
0.0055736763485 0.0056282513903 0.0056832932171 0.005738885089 0.0057947902576 0.0058511014082 0.0059077941309 0.0059648550193 0.0060222892653 
0.0060800701521 0.0061382022411 0.0061966966795 0.0062555415209 0.0063147551085 0.0063743227465 0.0064342315859 0.0040101163942 0.0040517037816 
0.0040937218114 0.0041361551538 0.0041790190125 0.0042223009397 0.0042660147241 0.0043101465802 0.0043546971795 0.0043996625105 0.0044450284259 
0.0044908044824 0.0045369841804 0.0045835412308 0.0046305261487 0.0046779126196 0.0047256966847 0.0047738762179 0.0048224468381 0.0048713946482 
0.0049207286562 0.0049704302414 0.0050205148576 0.0050709795529 0.0051218218051 0.0051730533371 0.0052246861566 0.0052767500168 0.0053292608398 
0.0053822374283 0.005435696159 0.0054896618711 0.0055441371272 0.0055991317189 0.0056546297849 0.005710633245 0.0057672318619 0.0058241954386 
0.005881607066 0.0059394497294 0.0059976962565 0.0060563517663 0.0061153682339 0.0061747610007 0.0062345161562 0.0062946561856 0.0063551658127 
0.0064160479252 0.006477299086 0.0065389090751 0.0040522248209 0.0040946512334 0.0041375152698 0.0041808217428 0.0042245744143 0.0042687661758 
0.0043134020003 0.0043584702026 0.004403966288 0.004449887739 0.0044962030595 0.004542961005 0.004590132733 0.0046377209725 0.0046857242767 
0.0047341333437 0.0047829468886 0.0048321605856 0.0048817795104 0.0049318024061 0.0049822188403 0.0050330211573 0.0050842247004 0.0051358242741 
0.0051878316555 0.0052402462408 0.0052930939556 0.0053463950711 0.0054001662456 0.0054544281967 0.0055092050884 0.0055645153214 0.0056203570052 
0.0056767391487 0.0057336497211 0.0057912044611 0.0058491652862 0.0059076295154 0.0059665605653 0.0060259465282 0.0060857725896 0.0061460046358 
0.0062066301254 0.0062676451229 0.006329054516 0.006390854771 0.006453040998 0.0065156005017 0.0065785529754 0.0066418711376 0.0040922809665 
0.0041355369654 0.0041792436101 0.0042234190249 0.0042680558579 0.004313146465 0.0043586914076 0.0044046925759 0.0044511112806 0.0044979870108 
0.0045452933072 0.0045930285288 0.0046411955476 0.0046897910438 0.004738806074 0.0047882304527 0.0048380780968 0.0048883526302 0.0049390394831 
0.004990137341 0.0050416460832 0.0050935623391 0.0051459042923 0.0051986577819 0.0052518469078 0.0053054658601 0.0053595442466 0.0054140969647 
0.0054691534252 0.0055247281589 0.0055808434456 0.0056375072172 0.0056947318615 0.0057525159589 0.0058109828771 0.0058698912008 0.0059293357706 
0.0059893045242 0.0060497741083 0.0061107274269 0.0061721269625 0.0062339592358 0.0062962047581 0.0063588616476 0.006421932453 0.0064854088259 
0.0065492811708 0.0066135514236 0.0066782210131 0.0067432763342 0.0041304599525 0.0041745338785 0.004219087923 0.0042641198752 0.004309629421 
0.0043555998473 0.0044020550418 0.0044489745689 0.0044963516219 0.004544178575 0.0045924576661 0.0046411766952 0.0046903394903 0.0047399316354 
0.0047899628768 0.0048404278358 0.0048913241725 0.0049426586123 0.0049944216234 0.005046614418 0.0050992343653 0.0051522894647 0.0052057849923 
0.0052597240574 0.0053141069651 0.0053689625165 0.0054242983036 0.0054801355427 0.0055364946342 0.0055934000643 0.0056508716964 0.0057089211764 
0.0057675450887 0.0058267657033 0.0058866817345 0.0059470694619 0.0060080205172 0.0060695187879 0.0061315555764 0.0061940633519 0.0062570641272 
0.0063205119772 0.0063844072684 0.00644873012 0.0065134744737 0.0065786373852 0.0066442274063 0.0067102194996 0.0067766169861 0.0068434116741 
0.0041670652153 0.0042119522624 0.0042573390502 0.0043032107726 0.0043495886435 0.004396462295 0.0044438237522 0.0044916600126 0.0045399755905 
0.0045887553919 0.0046380076011 0.0046877090356 0.0047378602096 0.0047884696977 0.0048395277666 0.004891035069 0.0049429973238 0.0049954106951 
0.0050482699333 0.0051015802044 0.005155339334 0.0052095632707 0.0052642463833 0.0053193969988 0.0053750158279 0.0054311291274 0.0054877501443 
0.0055448939661 0.0056025935618 0.005660859721 0.0057197125429 0.0057791677758 0.005839225603 0.0059000135992 0.0059613021027 0.00602319398 
0.0060856657391 0.0061487222192 0.0062123209241 0.0062764303904 0.006341050396 0.0064061441707 0.0064717042732 0.0065377185007 0.0066041624145 
0.0066710407968 0.0067383493167 0.0068060813288 0.0068742397178 0.0069428145794 0.0042024514554 0.0042481439781 0.0042943628125 0.004341094254 
0.0043883440514 0.0044361023875 0.0044843622859 0.0045331222252 0.0045823765653 0.0046321164036 0.0046823311051 0.0047330178847 0.0047841834363 
0.0048358207078 0.0048879255686 0.0049404956703 0.004993539986 0.0050470496043 0.0051010288611 0.0051554852043 0.0052104190331 0.00526583125 
0.0053217298087 0.0053781204737 0.00543501161 0.005492425052 0.0055503706231 0.0056088753516 0.0056679485539 0.0057276181593 0.0057878913382 
0.0058487857269 0.0059104243118 0.0059725896938 0.0060353836487 0.0060988085241 0.0061628566527 0.0062274854031 0.0062926752307 0.0063584166465 
0.0064246807283 0.006491439701 0.0065586887933 0.0066264010278 0.0066945657246 0.0067631758895 0.006832240655 0.0069017468931 0.0069717028597 
0.007041977484 0.0042370576523 0.0042835722975 0.0043306234323 0.004378203373 0.0044263222792 0.0044749696738 0.0045241392928 0.0045738271546 
0.0046240217574 0.0046747140625 0.0047259082021 0.004777601412 0.0048297865029 0.0048824665303 0.0049356328642 0.0049892907731 0.0050434386671 
0.0050980788512 0.0051532215958 0.0052088545632 0.0052649862404 0.0053216266862 0.0053787871656 0.0054364624196 0.0054946714495 0.0055534349717 
0.0056127472861 0.0056726418189 0.0057331323239 0.0057942405644 0.0058559790401 0.0059184792258 0.0059815099906 0.0060452019733 0.0061095509274 
0.0061745508125 0.006240175868 0.0063064098294 0.0063732396759 0.0064406371002 0.0065085747998 0.006577040752 0.0066460007398 0.0067154510078 
0.006785371578 0.006855763883 0.0069266213442 0.0069978321824 0.0070696225758 0.0071418657352 0.0042713495481 0.0043186855066 0.0043665712318 
0.0044150150853 0.0044640042748 0.0045135475421 0.0045636362203 0.0046142542985 0.0046653976644 0.0047170667674 0.004769257245 0.004821965572 
0.0048751922066 0.0049289368932 0.0049831901613 0.0050379619212 0.0050932548309 0.0051490494376 0.0052053746642 0.0052622287199 0.0053196132189 
0.0053775330568 0.005435998766 0.0054950119965 0.0055545820914 0.005614724975 0.0056754674883 0.0057368043218 0.0057987640584 0.0058613617373 
0.0059246023293 0.0059886288093 0.0060532167407 0.0061184749633 0.0061844282923 0.0062510346266 0.0063182855186 0.0063861762319 0.0064546840679 
0.0065237821245 0.0065934345866 0.006663635865 0.0067343635807 0.0068055949662 0.0068773237738 0.0069495434534 0.0070221364501 0.0070953610549 
0.0071690209139 0.0072431325409 0.0043057854021 0.0043539524319 0.0044026867088 0.0044519950376 0.0045018771431 0.004552326953 0.0046033319058 
0.0046548963752 0.0047070063555 0.0047596691309 0.0048128781741 0.0048666303207 0.0049209223009 0.0049757571793 0.005031131058 0.0050870468856 
0.005143505552 0.0052005122512 0.0052580686746 0.0053161862371 0.0053748620531 0.0054341197612 0.0054939345407 0.0055543308457 0.0056153158727 
0.0056768993552 0.0057391010613 0.0058019344509 0.0058654029715 0.0059295450844 0.0059944697101 0.0060599735093 0.0061261628912 0.0061930605108 
0.0062606429648 0.0063289043235 0.0063978453587 0.0064674394377 0.0065376686054 0.0066085066824 0.0066799331008 0.0067519297828 0.006824476387 
0.0068975510892 0.0069711438867 0.0070451328202 0.0071197911707 0.0071949102272 0.0072705155244 0.0073466000477 0.0043407898299 0.0043897991423 
0.0044393975621 0.0044895942002 0.0045403838053 0.0045917434584 0.0046436937579 0.0046962284336 0.0047493362954 0.0048030151728 0.0048572653674 
0.0049120819576 0.0049674758026 0.005023431526 0.0050799556342 0.0051370576976 0.0051947297382 0.0052529934129 0.0053118302199 0.0053712641458 
0.0054312743445 0.0054918944922 0.0055531111734 0.0056149384502 0.0056773918905 0.0057404775241 0.0058042017534 0.0058685868322 0.0059336405569 
0.0059994885611 0.0060659263767 0.006133069919 0.0062009345928 0.0062695078974 0.0063387806614 0.0064087637487 0.006479439253 0.0065507981568 
0.0066228114566 0.0066954568115 0.0067687189035 0.0068425703149 0.0069169990408 0.0069919895219 0.0070674340905 0.0071435125655 0.0072201088907 
0.0072972262813 0.0073748585698 0.0074529782956 0.004376750921 0.0044266229359 0.0044771029759 0.0045282086722 0.0045799152978 0.0046322315372 
0.0046851513951 0.0047386786178 0.0047928039774 0.0048475280287 0.0049028495336 0.0049587647633 0.005015292473 0.0050724200699 0.0051301396285 
0.0051884661669 0.0052473999533 0.0053069468907 0.0053671124624 0.005427888759 0.005489298958 0.0055513450177 0.0056140183205 0.0056773384051 
0.0057413123121 0.0058059540497 0.0058712638382 0.0059372607795 0.0060040622368 0.0060714549629 0.006139573857 0.0062084203316 0.0062780135163 
0.0063483239739 0.0064193693827 0.006491135837 0.006563625025 0.0066368072728 0.0067106780074 0.0067852069347 0.0068603705398 0.00693615433 
0.0070125394781 0.0070894196745 0.0071669643832 0.0072450850115 0.0073237494094 0.0074029571992 0.0074827022152 0.007562956706 0.0044139920683 
0.0044647520583 0.0045161511904 0.0045681805709 0.0046208380426 0.0046741310429 0.004728055207 0.0047826059231 0.0048377835201 0.0048935909993 
0.004950027418 0.0050070849303 0.0050647734997 0.0051230936746 0.0051820527113 0.0052416438963 0.0053018864234 0.0053627740969 0.0054243097853 
0.005486503461 0.005549355765 0.0056128727684 0.0056770683046 0.0057419361891 0.0058074921986 0.005873742671 0.0059406961726 0.0060083627264 
0.0060768685637 0.0061459814721 0.0062158484851 0.0062864678813 0.0063578385536 0.0064299652345 0.0065028522017 0.0065764836295 0.0066508606057 
0.0067259479065 0.006801735875 0.0068782180384 0.0069553646444 0.0070330652574 0.0071114989721 0.0071905420278 0.0072701998923 0.0073504433814 
0.0074312616885 0.0075126564274 0.0075946094513 0.0076769194061 0.0044527881533 0.0045044660786 0.0045567997578 0.0046097916652 0.0046634377658 
0.0047177386245 0.0047727040699 0.0048283065703 0.0048845736088 0.0049415001416 0.0049990780809 0.0050573129513 0.0051162172856 0.005175783509 
0.0052360200327 0.0052969360257 0.0053585300262 0.0054208069021 0.005483767531 0.0055474245684 0.005611775802 0.005676829434 0.0057425934833 
0.005809065836 0.0058762588862 0.0059441844319 0.0060128399396 0.0060823597706 0.0061524974663 0.0062234090242 0.0062950968258 0.0063675616874 
0.0064407930962 0.0065148147781 0.0065896084441 0.0066651820595 0.0067415037582 0.0068185785415 0.0068963819816 0.0069749009754 0.0070540300258 
0.0071339321511 0.0072144935108 0.0072957099116 0.0073775743989 0.0074600466891 0.0075431329672 0.0076268168161 0.0077109117669 0.0077957282377 
0.0044933317501 0.0045459593453 0.0045992711391 0.0046532633113 0.0047079325278 0.0047632801563 0.0048193020667 0.0048760147714 0.004933413061 
0.0049914920462 0.0050502605229 0.0051097184224 0.0051698825561 0.0052307488964 0.0052923262098 0.0053546042013 0.0054176008124 0.0054813196516 
0.0055457646692 0.0056109317155 0.0056768417176 0.0057434804565 0.0058108728543 0.0058790070525 0.0059478979467 0.0060175509599 0.0060880900142 
0.0061592781463 0.0062312530675 0.0063040215579 0.0063775979836 0.0064519665747 0.0065271516002 0.0066031429665 0.0066799225619 0.0067575107066 
0.0068358849754 0.0069150313046 0.0069949353009 0.0070755010573 0.0071568907141 0.0072389929977 0.0073217974286 0.0074052938218 0.007489457894 
0.0075742859327 0.0076597384748 0.0077458175468 0.0078323353476 0.0079196657812 0.0045357836745 0.0045893973381 0.0046437198442 0.0046987469521 
0.0047544686183 0.0048109041093 0.0048680582474 0.0049259125213 0.004984475608 0.0050437564319 0.005103765052 0.0051644993961 0.0052259676855 
0.0052881868771 0.0053511392854 0.0054148395417 0.0054792957917 0.0055445078522 0.0056104848215 0.0056772276428 0.0057447458316 0.0058130313664 
0.0058821026147 0.0059519604872 0.006022609298 0.0060940705779 0.006166418905 0.0062394721734 0.0063133466758 0.0063880483726 0.0064635701729 
0.0065399331498 0.0066171403087 0.0066951747374 0.0067740367576 0.0068537256159 0.0069342404926 0.0070155517918 0.0070975726322 0.0071804655973 
0.0072641265311 0.0073485325857 0.0074337041341 0.0075195754484 0.0076061578851 0.007693418737 0.0077813518039 0.0078697985309 0.0079591029554 
0.0080489475731 0.0045802408713 0.0046348873029 0.0046902618917 0.0047463549007 0.0048031901379 0.0048607654367 0.004919066722 0.0049781036802 
0.0050378913419 0.0050984318323 0.0051597281685 0.0052217901161 0.0052846200939 0.0053482313524 0.0054126214903 0.0054777888053 0.005543757864 
0.0056105179938 0.0056780855343 0.0057464554065 0.0058156418378 0.0058856359242 0.0059564577697 0.006028095213 0.006100569151 0.0061739772924 
0.0062481162685 0.0063230954799 0.0063989418655 0.0064756365866 0.0065532007751 0.0066316426729 0.0067109410893 0.0067911080851 0.0068721349656 
0.0069540289784 0.007036831284 0.0071202560826 0.0072046770871 0.0072899212121 0.0073759550887 0.0074627880179 0.0075504039164 0.0076387741785 
0.0077278893367 0.0078177410701 0.0079082898967 0.0079994422687 0.0080913579687 0.0081839151085 0.0046267993056 0.0046825011735 0.0047389691374 
0.0047961886216 0.0048541788808 0.004912915228 0.0049724207256 0.0050327000016 0.0050937584143 0.0051556033179 0.0052182412285 0.0052816769271 
0.0053459187371 0.005410982251 0.0054768609549 0.0055435593465 0.0056110940084 0.0056794620913 0.0057486739477 0.0058187303271 0.0058896463538 
0.0059614070256 0.006034024546 0.0061075193562 0.0061819709751 0.0062572008772 0.0063332890627 0.0064102836858 0.006488171074 0.0065669501607 
0.0066466333584 0.006727216042 0.006808699456 0.0068910879423 0.0069743787979 0.0070586272664 0.0071435510469 0.0072295068117 0.0073163375402 
0.0074040326273 0.0074925560239 0.0075819198189 0.0076721132688 0.0077631010544 0.0078548741614 0.0079474096858 0.0080406190238 0.0081346421312 
0.008229348262 0.0083247570184 0.0046754904771 0.0047323064264 0.0047899126843 0.0048483025528 0.0049074679783 0.004967429393 0.0050281916624 
0.0050897588931 0.0051521364295 0.0052153387137 0.0052793686313 0.0053442314659 0.0054099404948 0.0054765081007 0.0055439331431 0.0056122151627 
0.0056813761821 0.00575141044 0.0058223404439 0.0058941390086 0.0059668340922 0.0060404250166 0.0061149246673 0.0061903053382 0.0062667272211 
0.0063439418414 0.006422077881 0.006501148666 0.0065811427057 0.0066620774985 0.0067439592669 0.0068267762933 0.0069105456098 0.006995252697 
0.0070809658984 0.0071673859526 0.0072549055853 0.0073433380558 0.007432684043 0.007522936489 0.0076140707593 0.0077060935189 0.0077989775729 
0.0078927067265 0.0079872559907 0.0080827113812 0.0081787118113 0.0082756369246 0.0083734070703 0.0084718522753 0.0047263663721 0.0047843345143 
0.0048431268971 0.0049027112543 0.0049631190893 0.0050243504355 0.0050864143423 0.0051493184 0.0052130701144 0.005277681648 0.0053431533085 
0.0054095050311 0.0054767403232 0.0055448661387 0.0056138948222 0.0056838185202 0.005754664383 0.0058264365331 0.0058991251973 0.005972737578 
0.0060472887836 0.0061227838512 0.0061991916038 0.0062766841395 0.0063550124709 0.0064342967522 0.0065145474389 0.0065957669097 0.0066779709086 
0.0067611461132 0.0068452971483 0.0069304431241 0.0070165787447 0.0071037646848 0.0071916978893 0.0072807747372 0.0073708309792 0.0074618565213 
0.0075538493571 0.0076467831425 0.0077406499818 0.0078354597751 0.0079311680706 0.0080277640897 0.0081253139777 0.0082234823174 0.0083227756411 
0.0084227748477 0.0085235770988 0.0086251166415 0.0047794568094 0.0048386317539 0.0048986325698 0.0049594716744 0.0050211658971 0.0050837135554 
0.0051471293095 0.0052114248722 0.005276601143 0.0053426724846 0.0054096488115 0.0054775359421 0.0055463518509 0.0056160996846 0.0056867824581 
0.0057584213348 0.005831014622 0.005904568014 0.0059790892785 0.006054583684 0.0061310660674 0.0062085015605 0.0062870425886 0.0063664682042 
0.0064468944343 0.0065283317213 0.0066107833795 0.0066942329958 0.0067787034453 0.0068642022195 0.0069507296588 0.0070382916801 0.0071269494501 
0.0072164047726 0.0073070697683 0.0073987589413 0.0074914755015 0.0075852129455 0.0076799610975 0.0077756909993 0.0078724292138 0.0079701320371 
0.0080687991741 0.0081684928061 0.0082689809418 0.0083704194813 0.0084727554313 0.00857596728 0.0086800102329 0.0087848573575 0.0048347911704 
0.0048951977064 0.0049564620279 0.0050185987336 0.0050816261623 0.0051455457183 0.005210365669 0.0052761026144 0.0053427554412 0.0054103441834 
0.005478876813 0.005548360189 0.0056188045703 0.0056902276936 0.0057626455972 0.0058360464877 0.005910448712 0.0059858598973 0.0060622810845 
0.0061397353887 0.0062181958676 0.0062976799936 0.0063783094403 0.0064598833817 0.0065424857423 0.0066261477433 0.0067108568822 0.0067966283985 
0.0068834654904 0.0069713619076 0.0070603558537 0.0071505040202 0.0072414887193 0.0073337353716 0.0074270627813 0.0075214757854 0.0076169657969 
0.007713532678 0.0078111531009 0.0079098239709 0.0080095464262 0.0081103105627 0.0082121321625 0.0083150141293 0.0084185878159 0.0085232830087 
0.0086289443966 0.008735487678 0.0088429562813 0.0089512766296 0.0048923797076 0.0049540674289 0.0050166451936 0.0050801307722 0.0051445414387 
0.0052098673224 0.005276142219 0.0053433670934 0.0054115539225 0.0054807155203 0.0055508595911 0.0056220049819 0.0056941581012 0.0057673258858 
0.0058415255141 0.0059167540403 0.0059930382968 0.0060703772026 0.0061487813006 0.0062282452977 0.0063087782609 0.0063904949799 0.006473182446 
0.0065569579674 0.0066418269827 0.0067277950495 0.0068148557987 0.0069030292807 0.0069923187894 0.0070827415846 0.0071743696097 0.0072668683821 
0.007360696067 0.0074556680238 0.0075517825031 0.0076490387657 0.0077474217357 0.0078469286857 0.0079475641276 0.0080493218452 0.0081521643516 
0.0082562863835 0.0083612620262 0.00846716054 0.0085742528939 0.0086823851293 0.008791472864 0.0089015621079 0.0090126046262 0.0091245696406 
0.004952256915 0.0050152715192 0.0050792134739 0.0051440967564 0.0052099360891 0.0052767381374 0.0053445197641 0.0054132911263 0.0054830623943 
0.0055538525596 0.0056256719308 0.0056985343166 0.005772443367 0.0058474165397 0.005923460222 0.0060005928588 0.006078821275 0.0061581620856 
0.0062386221552 0.0063201771637 0.0064028551627 0.006486774541 0.0065717107061 0.0066577867659 0.0067449910837 0.0068333464129 0.0069228645528 
0.0070135422859 0.0071053911155 0.007198493326 0.0072925069328 0.0073879188152 0.0074845286764 0.0075823431168 0.0076813549031 0.0077815708146 
0.0078829640537 0.0079855773083 0.0080893439855 0.0081944349231 0.0083006021907 0.0084078269743 0.008516212254 0.0086255450938 0.008736169937 
0.0088478281048 0.0089605822946 0.0090743620577 0.0091891524141 0.0093049545707 0.0050144900719 0.0050788789118 0.0051442291748 0.0052105501553 
0.0052778673041 0.0053461917388 0.0054155318127 0.0054859020119 0.0055573196255 0.0056297888781 0.0057033448693 0.0057779761309 0.0058537006278 
0.005930545598 0.0060085130984 0.0060876183821 0.0061678791507 0.0062492974178 0.006331870852 0.0064155999651 0.0065006186162 0.006586708817 
0.0066739688893 0.0067624380651 0.00685208083 0.0069429309463 0.0070349861425 0.0071282687234 0.007222837965 0.0073183748178 0.0074153562846 
0.0075135912337 0.0076131005339 0.0077138694106 0.0078159020539 0.0079191995402 0.0080237637726 0.0081295729496 0.0082367642734 0.008345120869 
0.0084546264163 0.0085653311343 0.0086770940924 0.0087902109675 0.0089044857319 0.009019926786 0.0091364839077 0.0092541398698 0.009372889015 
0.0094923529039 0.0050791154877 0.0051449165314 0.0052117205428 0.005279530616 0.0053483774447 0.0054182682688 0.0054892230618 0.0055612495143 
0.0056343696105 0.0057085905247 0.0057839214306 0.0058603856507 0.0059380039431 0.0060167847106 0.0060967544225 0.0061779058963 0.0062602639033 
0.0063438180664 0.0064285823071 0.0065146884873 0.0066019088666 0.006690368726 0.0067800768189 0.0068710158925 0.0069631926688 0.0070566240088 
0.0071513162634 0.0072473720853 0.0073444211831 0.0074429755648 0.0075428327192 0.0076440192374 0.0077465359015 0.007850379888 0.0079555762873 
0.0080620826708 0.0081699226255 0.0082792399665 0.0083897785842 0.0085015552809 0.0086146079123 0.0087290014066 0.0088444848417 0.0089613543213 
0.0090794403441 0.0091987878176 0.0093193170218 0.0094406930972 0.0095635938216 0.0096875945668 0.0051461645373 0.0052134316235 0.0052817336967 
0.0053510877465 0.0054215116214 0.0054930265863 0.0055656464905 0.0056393913119 0.0057142665584 0.0057902856516 0.0058674618473 0.0059458342371 
0.0060254031118 0.0061062000022 0.0061882210392 0.0062714992717 0.0063560144003 0.0064417936307 0.0065288348049 0.0066173006395 0.006706934826 
0.0067978752432 0.0068900887993 0.006983592357 0.0070783983402 0.0071745155116 0.0072720446137 0.0073706088706 0.0074707229384 0.0075722038855 
0.0076750605752 0.0077793125475 0.0078849732348 0.0079920270208 0.008100483141 0.0082105072885 0.0083218167808 0.0084344763323 0.0085485991361 
0.0086640170299 0.0087807923031 0.0088987967219 0.0090182737266 0.0091390661189 0.0092611783767 0.0093846169889 0.0095090027797 0.0096350020198 
0.0097622248525 0.0098905956002 0.0052156852954 0.0052844652602 0.0053543222467 0.0054252638725 0.0054973230736 0.0055705145976 0.0056448565869 
0.0057203699729 0.0057970473395 0.0058749268531 0.0059540224294 0.0060343714711 0.0061159576965 0.0061988237051 0.006282979327 0.0063684397639 
0.0064552093603 0.0065432872917 0.0066328372252 0.0067236281332 0.0068157736713 0.0069092541854 0.0070040825955 0.0071002550508 0.0071978051415 
0.0072968021411 0.0073968810703 0.007498561282 0.007601652778 0.0077061716037 0.0078121494916 0.0079195949916 0.0080285500677 0.0081389331074 
0.0082509853226 0.0083643463296 0.0084791850264 0.0085955732674 0.0087133438599 0.0088325661219 0.0089532312932 0.009075188872 0.0091986834519 
0.0093236094903 0.0094499509006 0.0095773611023 0.0097064395682 0.0098368524275 0.0099685815438 0.010101526559 0.0052877020555 0.005358041807 
0.0054295017681 0.0055020910453 0.0055758371869 0.0056507607842 0.0057268862995 0.0058042018259 0.005882757215 0.005962566361 0.0060436536587 
0.006126019535 0.0062097004794 0.006294710142 0.0063810726795 0.0064687873169 0.0065578808265 0.0066483675154 0.0067403905876 0.0068337141197 
0.0069284473276 0.0070245871647 0.0071221260095 0.0072210783018 0.0073214638095 0.0074231388916 0.0075263876084 0.0076310927374 0.0077372704587 
0.0078450076575 0.0079542284349 0.008064980103 0.0081772901127 0.008291334107 0.0084067752751 0.0085237808491 0.0086424138733 0.0087625280962 
0.0088842139386 0.0090073942558 0.0091321506531 0.0092582127902 0.0093859292985 0.0095151506311 0.0096455890255 0.0097777818552 0.0099114187868 
0.010046500026 0.010182884395 0.01032080714 0.0053622234484 0.005434179774 0.0055072907817 0.0055815772255 0.0056570611655 0.0057337674491 
0.0058117168447 0.0058909255453 0.0059714204311 0.0060532151037 0.0061363332036 0.0062208043144 0.0063066369743 0.006393871259 0.0064824986784 
0.0065725693453 0.0066640758102 0.0067571810755 0.0068516497089 0.0069476006505 0.007045008911 0.0071438990938 0.0072442514083 0.0073460863963 
0.0074492748016 0.0075541332155 0.0076604515248 0.0077682943863 0.0078776955187 0.007988677468 0.0081012555797 0.0082156372212 0.0083314769653 
0.0084489778156 0.0085681285618 0.0086890044945 0.0088114509034 0.0089355615918 0.0090612885729 0.0091886445244 0.0093174384208 0.0094479692675 
0.009579767881 0.0097135418497 0.0098488561933 0.0099857239389 0.010124060502 0.010264001573 0.010405524998 0.010548497471 0.0054392345759 
0.0055128561514 0.0055876731021 0.00566370706 0.0057409838821 0.0058195265659 0.0058993601102 0.005980517202 0.0060629946045 0.006146838955 
0.0062320704116 0.0063187027052 0.006406756445 0.0064962721271 0.0065872669893 0.0066797719434 0.0067739071954 0.0068694735295 0.0069665889013 
0.0070652387759 0.0071654359562 0.0072671783363 0.0073704930803 0.0074751811324 0.0075815504343 0.0076894823963 0.007798982969 0.0079100963821 
0.0080228245407 0.0081372201302 0.0082534843641 0.0083712688969 0.0084907924228 0.008612064039 0.0087351509245 0.0088599205026 0.0089864289079 
0.0091146717021 0.0092446532452 0.0093763192223 0.0095095066806 0.0096442287439 0.009780997073 0.0099194440323 0.010059526503 0.010201185321 
0.010344607688 0.010489727976 0.010636449039 0.01078474992 0.0055186490448 0.0055939876389 0.0056705581603 0.0057483818165 0.0058275135113 
0.0059079558421 0.0059897407414 0.006072881016 0.0061574187415 0.0062433838639 0.0063307769886 0.0064196261091 0.0065099921071 0.0066018850262 
0.00669531267 0.006790316925 0.0068870463051 0.0069852789359 0.0070851192909 0.0071866275753 0.0072897049059 0.0073943982086 0.0075005630553 
0.007608474714 0.0077180039249 0.0078291635722 0.0079419693184 0.0080564562844 0.0081726523227 0.0082907684203 0.0084104870016 0.0085320019128 
0.0086553515032 0.0087805437268 0.0089076652743 0.0090365543382 0.0091672824591 0.0092998342801 0.0094342397165 0.0095702566988 0.0097078823994 
0.0098476583239 0.009989221616 0.010132513408 0.010277528049 0.010424458671 0.010573111806 0.010723532735 0.010875700018 0.011029580928 
0.0056003267938 0.005677431658 0.0057558008174 0.0058354900377 0.005916524722 0.0059989226208 0.0060827044554 0.0061679039456 0.0062545587726 
0.0063426749843 0.0064323043518 0.0065234839261 0.0066162097773 0.0067105385623 0.0068064704006 0.0069041877718 0.0070035148702 0.0071044912298 
0.0072071562686 0.007311522544 0.0074175832893 0.0075251785701 0.0076346043636 0.0077457137479 0.0078585108923 0.0079730185805 0.0080892453346 
0.0082072274112 0.0083272050991 0.0084488172101 0.0085722893401 0.0086976792106 0.0088250306833 0.0089543829541 0.0090856124712 0.0092187884549 
0.0093539132926 0.0094909865305 0.0096299600997 0.0097703394555 0.0099131387655 0.010057800934 0.01020432531 0.010352643834 0.010503030977 
0.010655238693 0.010809358574 0.010965361177 0.011123231119 0.011283042668 0.0056840461776 0.005762956284 0.0058431986688 0.0059248116588 
0.0060077998991 0.0060921924878 0.0061780289839 0.0062653464218 0.0063541617516 0.0064445286668 0.0065364647237 0.0066299943623 0.0067251651026 