# vtk DataFile Version 5.1
vtk output
ASCII
DATASET STRUCTURED_POINTS
DIMENSIONS 50 50 50
SPACING 0.002 0.002 0.002
ORIGIN 0.1742 -0.052672 0.02732
POINT_DATA 125000
FIELD FieldData 1
potential 1 125000 double
0.00040541587314 0.00040360057726 0.00040179605625 0.00040000170358 0.0003982178293 0.00039644531282 0.00039468264784 0.00039292982596 0.00039118837407 
0.00038945664415 0.00038773494067 0.00038602366431 0.00038432227373 0.00038263225046 0.00038095329204 0.00037928662191 0.00037763217983 0.00037598955547 
0.00037436008256 0.00037274373488 0.00037113952701 0.00036954727639 0.00036796600612 0.00036639629795 0.00036483748668 0.00036328889477 0.00036175265162 
0.00036022880229 0.00035871852862 0.00035722256346 0.00035574100919 0.00035427723662 0.00035283025746 0.00035139980963 0.00034998644745 0.00034858835098 
0.00034720488096 0.00034583359924 0.00034447305742 0.000343121619 0.00034177720132 0.00034043852637 0.00033910473846 0.00033777527938 0.00033645052017 
0.00033513056763 0.00033381622325 0.00033250859007 0.00033120822424 0.00032991668349 0.00040529468196 0.0004034852151 0.00040168587001 0.00039989687492 
0.00039811893843 0.00039635163264 0.00039459392989 0.00039284702705 0.00039110984978 0.00038938225797 0.0003876645604 0.00038595668553 0.00038425920183 
0.00038257199609 0.00038089608914 0.00037923160439 0.00037757911293 0.00037593837629 0.00037431066619 0.00037269511345 0.00037109155949 0.00036949976886 
0.00036791938508 0.0003663499292 0.00036479219452 0.00036324578766 0.00036171035833 0.00036018840878 0.0003586801808 0.00035718683538 0.00035570790412 
0.00035424699479 0.00035280289576 0.00035137581932 0.00034996475072 0.00034856973946 0.00034718879155 0.00034582038775 0.00034446225668 0.00034311302075 
0.00034177077036 0.00034043431623 0.0003391028662 0.00033777534001 0.00033645273648 0.00033513492323 0.00033382295832 0.00033251774838 0.00033121998079 
0.00032993125763 0.00040502270635 0.00040322030381 0.00040142761559 0.0003996453597 0.00039787355992 0.00039611265614 0.00039436209357 0.00039262057714 
0.00039088923784 0.00038916758339 0.00038745489549 0.0003857520074 0.00038405869917 0.00038237588532 0.00038070286775 0.00037904158723 0.00037739183794 
0.00037575364162 0.0003741275726 0.00037251355068 0.00037091141609 0.00036932045293 0.00036774157755 0.00036617289052 0.00036461614165 0.00036307068799 
0.00036153793568 0.00036001854482 0.00035851331412 0.00035702326866 0.00035554787816 0.00035409034054 0.00035264980982 0.00035122612391 0.00034981865377 
0.00034842673609 0.00034704877613 0.00034568291305 0.00034432786362 0.00034298103903 0.00034164133547 0.00034030731164 0.00033897781278 0.00033765324804 
0.00033633314587 0.00033501818781 0.00033370910495 0.00033240697251 0.00033111253503 0.00032982722499 0.00040456685121 0.00040277244068 0.00040098798808 
0.00039921357217 0.00039745015249 0.00039569694957 0.0003939529883 0.00039221878536 0.00039049464943 0.00038877951703 0.00038707315757 0.00038537610748 
0.00038368865614 0.00038201019669 0.00038034240955 0.00037868554042 0.00037703933347 0.00037540424301 0.00037378054775 0.00037216831982 0.00037056862854 
0.00036897964055 0.00036740111155 0.00036583443021 0.00036427916074 0.00036273660803 0.00036120691908 0.0003596903397 0.00035818859594 0.0003567011449 
0.00035523117983 0.00035377795293 0.00035234194234 0.00035092240822 0.00034951926826 0.00034813075319 0.00034675633371 0.00034539380406 0.00034404154589 
0.00034269794472 0.00034136107662 0.0003400295017 0.00033870324771 0.00033738148455 0.00033606458597 0.00033475300682 0.00033344724647 0.00033214870158 
0.0003308585866 0.00032957777747 0.00040390170889 0.00040211647528 0.00040034141159 0.0003985768741 0.00039682186395 0.00039507711656 0.00039334222459 
0.00039161647614 0.00038990028177 0.00038819285404 0.0003864942751 0.00038480420787 0.00038312279691 0.00038145097578 0.00037978891725 0.0003781372529 
0.00037649538778 0.00037486473516 0.00037324430016 0.00037163495902 0.00037003715709 0.00036844974382 0.0003668744686 0.00036530995504 0.0003637580566 
0.0003622184976 0.00036069253792 0.00035918037585 0.00035768310313 0.00035620063086 0.00035473561344 0.00035328731027 0.00035185611479 0.00035044172789 
0.00034904336099 0.00034765969755 0.0003462890876 0.00034493076834 0.00034358201422 0.00034224162348 0.00034090843151 0.00033958023141 0.00033825728278 
0.00033693906188 0.00033562583274 0.00033431803041 0.00033301651217 0.0003317224598 0.00033043712633 0.00032916122036 0.00040301131254 0.00040123623541 
0.00039947196484 0.00039771726045 0.00039597254243 0.00039423769092 0.00039251250587 0.00039079639965 0.00038908914008 0.00038739108005 0.00038570032716 
0.00038401870983 0.00038234565706 0.00038068102841 0.00037902545975 0.0003773804415 0.00037574389501 0.000374117259 0.00037250126677 0.00037089577327 
0.0003693008152 0.00036771723049 0.00036614479795 0.00036458490784 0.00036303693978 0.00036150164059 0.00035998004553 0.00035847291806 0.00035697989161 
0.00035550426944 0.00035404494067 0.00035260275974 0.00035117744128 0.00034976891843 0.00034837596987 0.00034699735454 0.0003456319201 0.00034427801245 
0.00034293361914 0.00034159740686 0.00034026762663 0.00033894434277 0.00033762517233 0.0003363113133 0.0003350021549 0.0003336988448 0.00033240217553 
0.0003311129042 0.00032983294783 0.00032856316204 0.00040188965995 0.00040012592434 0.00039837266896 0.00039662905333 0.00039489565184 0.00039317169641 
0.00039145741925 0.00038975178114 0.00038805496777 0.0003863661765 0.00038468566349 0.00038301314894 0.00038134834112 0.0003796927727 0.00037804517454 
0.00037640645178 0.00037477622566 0.00037315551035 0.0003715447194 0.00036994374946 0.00036835401618 0.00036677448984 0.00036520740834 0.00036365207419 
0.00036210919038 0.00036057932263 0.00035906324316 0.00035756204166 0.00035607538768 0.00035460626933 0.00035315374087 0.00035171842697 0.00035030005896 
0.00034889809617 0.00034751131986 0.00034613915623 0.00034477932503 0.00034343061316 0.00034209135912 0.00034076005733 0.00033943487266 0.00033811605361 
0.00033680166132 0.00033549236723 0.00033418807117 0.00033288993284 0.0003315987338 0.00033031541831 0.00032904166632 0.0003277780857 0.00040054103102 
0.000398789414 0.00039704793882 0.00039531651986 0.00039359511178 0.00039188271063 0.00039017990105 0.00038848631113 0.00038680017863 0.00038512258497 
0.00038345329062 0.00038179060259 0.00038013532807 0.00037848821317 0.00037684910965 0.00037521809767 0.00037359568674 0.00037198176122 0.00037037766997 
0.00036878342508 0.00036719872089 0.00036562589256 0.00036406458842 0.000362514981 0.00036097837078 0.00035945507905 0.00035794589484 0.0003564503151 
0.00035497204348 0.0003535105086 0.00035206594637 0.00035063830923 0.00034922746869 0.00034783276343 0.00034645371198 0.00034508824162 0.00034373477781 
0.00034239232192 0.00034105878151 0.00033973261666 0.00033841314309 0.00033709914806 0.00033579033959 0.00033448610148 0.00033318742965 0.00033189522381 
0.00033061003345 0.00032933316221 0.00032806622475 0.00032680989858 0.00039898117557 0.00039724180269 0.00039551289769 0.00039379356558 0.00039208489559 
0.00039038535477 0.00038869440446 0.0003870132325 0.00038533957601 0.00038367340061 0.00038201473704 0.00038036272255 0.00037871827531 0.00037708080591 
0.00037545122684 0.00037382946719 0.00037221475117 0.00037060948033 0.0003690134246 0.00036742597839 0.00036584934641 0.0003642836179 0.00036272929173 
0.00036118707013 0.00035965764182 0.00035814208181 0.00035664092474 0.00035515366341 0.00035368340894 0.00035223040352 0.00035079440827 0.00034937536401 
0.000347972855 0.00034658642322 0.00034521499915 0.00034385707073 0.00034251090147 0.0003411751212 0.00033984834736 0.00033852806417 0.00033721432586 
0.00033590648618 0.00033460359415 0.00033330562154 0.00033201311237 0.00033072712195 0.00032944882192 0.00032817836763 0.0003269185256 0.00032566951277 
0.00039723354617 0.00039550695475 0.00039379069261 0.00039208461726 0.00039038872902 0.00038870226238 0.00038702461191 0.00038535484637 0.00038369360897 
0.00038203944518 0.00038039256987 0.00037875206934 0.00037711858781 0.00037549194 0.00037387274078 0.00037225999074 0.00037065573178 0.00036905978976 
0.00036747175308 0.00036589390244 0.00036432610334 0.00036276932474 0.00036122367009 0.00035969009672 0.0003581695352 0.00035666270622 0.00035517043856 
0.0003536923232 0.00035223167083 0.00035078738582 0.00034936042096 0.0003479505747 0.0003465570375 0.00034517960479 0.00034381648722 0.0003424666287 
0.00034112821537 0.00033979931567 0.00033847908484 0.00033716602206 0.00033585958493 0.00033455798566 0.00033326172739 0.00033197033631 0.00033068482007 
0.00032940529548 0.00032813407929 0.00032687168732 0.00032561966417 0.00032437865325 0.00039532944191 0.0003936161842 0.00039191346041 0.00039022011332 
0.0003885373974 0.00038686343348 0.00038519812441 0.00038354145214 0.00038189272611 0.00038025071082 0.0003786154139 0.00037698692946 0.00037536512242 
0.00037375019001 0.00037214181148 0.0003705405407 0.00036894699039 0.00036736060956 0.00036578367374 0.00036421604018 0.00036265814998 0.00036111083448 
0.00035957494342 0.00035805151441 0.00035654078492 0.00035504391798 0.00035356050905 0.00035209386148 0.00035064333786 0.00034920963747 0.00034779227954 
0.00034639211365 0.00034500827867 0.00034363962601 0.00034228526542 0.00034094349625 0.00033961326056 0.00033829234636 0.0003369794903 0.00033567411576 
0.00033437432614 0.00033307985353 0.00033179010725 0.00033050609713 0.0003292275881 0.00032795632327 0.00032669289699 0.00032543848212 0.00032419466223 
0.00032296205004 0.00039330634837 0.00039160623367 0.00038991603353 0.00038823537807 0.00038656556052 0.00038490445096 0.00038325200959 0.00038160777811 
0.00037997103509 0.00037834138099 0.00037671841122 0.00037510210855 0.0003734924434 0.00037188885274 0.00037029278814 0.00036870329815 0.00036712056137 
0.00036554653255 0.00036398127697 0.00036242470997 0.00036087795686 0.00035934166201 0.00035781676572 0.00035630408236 0.00035480442861 0.00035331878902 
0.00035184643453 0.00035039070244 0.00034895090869 0.0003475278971 0.00034612132697 0.00034473143893 0.00034335663363 0.00034199740768 0.00034065220775 
0.00033931929875 0.00033799726306 0.00033668402257 0.00033537958245 0.00033408161004 0.0003327888219 0.00033150179118 0.00033021997614 0.00032894377015 
0.00032767307858 0.00032640957884 0.00032515462004 0.00032390854865 0.00032267316099 0.00032144958335 0.00039120025491 0.00038951325775 0.00038783630761 
0.00038616960208 0.00038451106346 0.00038286249279 0.00038122278674 0.00037959071961 0.00037796612921 0.0003763485307 0.00037473781079 0.00037313312634 
0.0003715358472 0.00036994521444 0.0003683613512 0.00036678359264 0.00036521411247 0.00036365246024 0.00036209914151 0.00036055504566 0.00035902048502 
0.0003574964836 0.00035598389334 0.00035448323747 0.0003529954758 0.00035152008876 0.00035006081174 0.00034861662225 0.00034718848882 0.00034577666794 
0.00034438046131 0.00034300092028 0.00034163654452 0.00034028678866 0.00033895069141 0.0003376264242 0.00033631220815 0.00033500724457 0.0003337104153 
0.00033242029549 0.00033113581708 0.00032985661403 0.0003285831155 0.00032731488684 0.00032605276598 0.00032479776554 0.00032355130815 0.00032231403501 
0.00032108730756 0.00031987250815 0.00038905156231 0.00038737707028 0.00038571246029 0.00038405793264 0.00038241185082 0.00038077514597 0.00037914717139 
0.00037752730788 0.00037591425717 0.00037430849021 0.00037270949674 0.00037111770604 0.0003695328497 0.00036795508519 0.00036638288198 0.00036481884688 
0.00036326240823 0.00036171377296 0.00036017340663 0.00035864247169 0.00035712093516 0.00035561019036 0.00035411033759 0.00035262254494 0.00035114756995 
0.00034968472741 0.00034823767183 0.00034680516109 0.00034538843691 0.00034398804442 0.00034260357095 0.00034123470817 0.00033988029443 0.00033854007926 
0.00033721219932 0.00033589654307 0.00033459069664 0.00033329428597 0.00033200538667 0.00033072316767 0.00032944670381 0.00032817591324 0.00032691044891 
0.00032565088951 0.00032439753867 0.00032315125029 0.00032191374212 0.00032068577226 0.00031946834875 0.00031826210465 0.00038689446541 0.0003852319582 
0.00038357935067 0.00038193681857 0.0003803028818 0.00037867715132 0.00037706040137 0.00037545199235 0.00037385069938 0.00037225611177 0.00037066948703 
0.00036908965963 0.00036751736644 0.00036595140226 0.00036439291416 0.00036284221113 0.00036129900479 0.00035976402877 0.00035823728932 0.00035671980722 
0.00035521202227 0.00035371479191 0.0003522284166 0.00035075392623 0.00034929041871 0.00034784202621 0.00034640768438 0.000344987997 0.00034358330105 
0.00034219466121 0.00034082082105 0.00033946163321 0.00033811739267 0.00033678679387 0.00033546822652 0.00033416051712 0.00033286338114 0.00033157481268 
0.00033029372867 0.00032901947043 0.00032775119712 0.00032648858711 0.00032523197969 0.00032398092263 0.0003227365789 0.00032149965176 0.00032027130788 
0.00031905262013 0.00031784428033 0.00031664673287 0.00038476096851 0.0003831098365 0.00038146843332 0.0003798370458 0.00037821417249 0.00037660025103 
0.00037499390492 0.00037339609249 0.00037180540834 0.00037022289068 0.00036864771027 0.00036707994922 0.00036551908983 0.00036396659925 0.00036242131408 
0.00036088381085 0.00035935413026 0.0003578327429 0.00035632006863 0.00035481619875 0.00035332247736 0.00035183870757 0.00035036622111 0.00034890539183 
0.00034745576246 0.00034602069911 0.00034459922554 0.00034319202454 0.00034179899647 0.00034042124556 0.00033905834446 0.00033770980703 0.00033637541809 
0.00033505411813 0.00033374409342 0.00033244497672 0.00033115579959 0.00032987493062 0.00032860181282 0.00032733553186 0.00032607545508 0.00032482126405 
0.00032357321973 0.0003223311191 0.00032109578093 0.00031986828857 0.00031864955423 0.00031743976686 0.00031624024194 0.00031505183294 0.0003826768729 
0.00038103659834 0.00037940585712 0.0003777850202 0.00037617272899 0.00037456919464 0.00037297309961 0.00037138548644 0.0003698062795 0.00036823481229 
0.00036667103844 0.00036511418313 0.0003635659072 0.00036202574926 0.00036049323583 0.00035896856236 0.00035745242803 0.00035594452697 0.00035444563317 
0.00035295594836 0.00035147600734 0.0003500067033 0.00034854829467 0.00034709999381 0.00034566516503 0.00034424256948 0.00034283395016 0.0003414390102 
0.000340058439 0.00033869198952 0.00033733961744 0.00033600105547 0.00033467586322 0.00033336338967 0.00033206219336 0.00033077120568 0.00032948985856 
0.00032821691485 0.00032695136029 0.00032569305428 0.0003244413189 0.00032319538031 0.00032195608172 0.00032072306076 0.00031949705707 0.00031827868951 
0.00031706905053 0.00031586844309 0.000314677813 0.00031349754785 0.00038066317608 0.00037903302516 0.00037741277568 0.00037580175622 0.0003741995196 
0.00037260531866 0.00037102001244 0.00036944235364 0.00036787333655 0.00036631228906 0.00036475857009 0.00036321360755 0.00036167746405 0.00036014939822 
0.00035862867863 0.00035711707519 0.00035561423429 0.00035412013232 0.00035263493437 0.00035115910071 0.00034969308096 0.00034823761018 0.00034679236415 
0.00034535754547 0.00034393594634 0.00034252704774 0.00034113076124 0.00033974821976 0.00033837875865 0.00033702331579 0.00033568134357 0.00033435269952 
0.00033303668605 0.00033173258347 0.00033043966229 0.00032915700862 0.00032788298073 0.00032661775867 0.00032536020056 0.00032410963433 0.00032286566706 
0.00032162841668 0.00032039754312 0.00031917348218 0.00031795705042 0.00031674780092 0.00031554692859 0.00031435521037 0.00031317280079 0.00031200110923 
0.00037873534874 0.00037711503874 0.00037550379 0.00037390222162 0.00037230914582 0.00037072482401 0.00036914922021 0.00036758185158 0.0003660222657 
0.00036447061513 0.00036292779413 0.00036139377975 0.00035986926094 0.000358352894 0.00035684514961 0.00035534587776 0.00035385571264 0.00035237459946 
0.0003509021404 0.00034943965182 0.00034798723423 0.00034654496626 0.00034511243711 0.00034369204452 0.0003422833679 0.00034088678584 0.0003395028785 
0.00033813167921 0.00033677337579 0.0003354284567 0.0003340966224 0.00033277699998 0.00033147049331 0.00033017449667 0.00032888950176 0.00032761461208 
0.00032634880297 0.00032509071221 0.00032384059815 0.00032259792146 0.000321362309 0.00032013307911 0.0003189109008 0.0003176956937 0.00031648823827 
0.00031528791651 0.00031409556838 0.00031291242022 0.00031173856918 0.00031057485973 0.00037690286245 0.00037529171761 0.00037368974649 0.00037209747197 
0.000370513741 0.00036893931516 0.00036737234017 0.00036581440264 0.00036426348884 0.00036272220124 0.00036119013627 0.00035966675958 0.00035815281717 
0.00035664823358 0.00035515138951 0.00035366429068 0.00035218639456 0.00035071771915 0.0003492585676 0.00034780895695 0.00034636930712 0.00034493995102 
0.00034352001428 0.0003421123689 0.00034071596778 0.00033933146959 0.00033795906236 0.00033659900035 0.00033525146197 0.00033391654573 0.00033259407588 
0.00033128429026 0.00032998538402 0.00032869800898 0.00032742090777 0.00032615345776 0.00032489522447 0.00032364491169 0.00032240233248 0.00032116739378 
0.00031993966757 0.00031871881572 0.00031750499265 0.0003162981335 0.00031509917774 0.00031390749117 0.00031272389315 0.00031154846158 0.00031038310193 
0.00030922693127 0.00037517392817 0.00037357055523 0.00037197791624 0.00037039410914 0.00036881936603 0.0003672534338 0.00036569590832 0.00036414618837 
0.0003626062135 0.00036107494738 0.00035955229747 0.00035803919604 0.00035653576444 0.00035504174393 0.00035355685241 0.00035208084869 0.00035061416056 
0.00034915744668 0.00034771014437 0.0003462726956 0.00034484542217 0.00034342692503 0.00034202041632 0.00034062469841 0.00033923993287 0.00033786696149 
0.00033650541032 0.0003351558949 0.00033381849633 0.00033249341832 0.00033118058112 0.0003298793494 0.0003285884977 0.00032730911658 0.00032603967836 
0.00032477988084 0.00032352886187 0.00032228603562 0.00032105146189 0.00031982406418 0.00031860386037 0.00031739113162 0.00031618568885 0.00031498720477 
0.00031379595796 0.00031261268606 0.00031143720849 0.00031027003984 0.00030911197919 0.00030796316483 0.00037355130823 0.00037195709196 0.00037037287052 
0.00036879713945 0.00036723106843 0.00036567357732 0.00036412337921 0.00036258341873 0.00036105247084 0.00035953074431 0.00035801758747 0.00035651455386 
0.0003550207265 0.00035353667765 0.00035206257186 0.00035059777384 0.00034914260163 0.00034769699187 0.00034626115394 0.00034483522891 0.00034341929556 
0.00034201231038 0.00034061705239 0.00033923269401 0.00033785908391 0.00033649674649 0.00033514551365 0.00033380623731 0.00033247806184 0.00033116268714 
0.00032985857471 0.00032856510222 0.00032728283759 0.00032601106434 0.00032474930209 0.00032349677398 0.00032225320456 0.00032101777007 0.00031979072687 
0.00031857115771 0.0003173586608 0.00031615338609 0.00031495605671 0.00031376540372 0.00031258209204 0.00031140623456 0.00031023863587 0.00030907913121 
0.00030792817272 0.00030678622468 0.00037203832638 0.00037045174391 0.00036887502833 0.00036730751264 0.0003657494161 0.00036419923766 0.00036265886918 
0.00036112751435 0.00035960521199 0.00035809233317 0.00035658880335 0.00035509456902 0.0003536104229 0.00035213600312 0.00035067182039 0.00034921679487 
0.00034777192705 0.0003463368025 0.00034491178511 0.00034349640088 0.00034208989745 0.00034069505627 0.00033931091952 0.00033793701954 0.00033657406994 
0.00033522172804 0.00033388057435 0.00033255090534 0.00033123275685 0.00032992579374 0.00032862970863 0.00032734480044 0.00032607056727 0.00032480612588 
0.00032355186515 0.00032230668542 0.00032107041487 0.00031984235572 0.00031862243774 0.00031741023062 0.00031620540679 0.00031500809525 0.00031381766285 
0.00031263458133 0.00031145871649 0.00031029088422 0.00030913025115 0.00030797759862 0.00030683376301 0.00030569835202 0.00037063380621 0.00036905498176 
0.00036748607889 0.00036592526435 0.00036437492902 0.00036283350328 0.0003613010843 0.00035977791275 0.00035826412688 0.00035675983263 0.00035526487008 
0.00035377954097 0.00035230443063 0.00035083908729 0.00034938391447 0.00034793866192 0.00034650345877 0.00034507821588 0.00034366312244 0.00034225789597 
0.00034086157643 0.00033947675416 0.00033810204985 0.00033673832011 0.00033538524205 0.00033404231908 0.00033271061793 0.00033139033652 0.00033008092438 
0.00032878249772 0.00032749419263 0.00032621771305 0.0003249510478 0.00032369410602 0.00032244693126 0.00032120901205 0.00031997991973 0.00031875911099 
0.00031754656464 0.00031634141589 0.00031514416283 0.00031395405866 0.00031277101769 0.00031159488855 0.00031042638493 0.00030926482545 0.0003081113517 
0.00030696585724 0.00030582840152 0.00030469929312 0.00036933839223 0.00036776684063 0.00036620400147 0.00036465145492 0.00036310846487 0.00036157444669 
0.00036004969473 0.00035853435236 0.0003570285086 0.00035553231457 0.00035404566029 0.00035256908677 0.00035110181194 0.00034964524138 0.00034819852048 
0.00034676222557 0.0003453360218 0.00034392002192 0.00034251414604 0.00034111704347 0.00033973160823 0.00033835597738 0.00033699118512 0.00033563651103 
0.00033429250162 0.00033295916167 0.00033163689691 0.00033032467412 0.00032902351653 0.00032773254099 0.00032645263096 0.00032518320775 0.0003239240058 
0.00032267448598 0.00032143443182 0.00032020367426 0.00031898156334 0.00031776784092 0.00031656218003 0.00031536402775 0.00031417398533 0.00031299079586 
0.00031181561547 0.00031064661621 0.00030948421835 0.00030832969901 0.00030718274347 0.00030604337119 0.0003049123032 0.00030378900365 0.0003681505251 
0.00036658521806 0.00036503000814 0.00036348407972 0.00036194807013 0.00036042098156 0.0003589034822 0.00035739570486 0.0003558972401 0.00035440870191 
0.00035292994249 0.00035146101156 0.00035000139146 0.00034855282189 0.00034711450645 0.00034568625491 0.00034426871154 0.00034286119952 0.00034146249586 
0.00034007564175 0.00033869897369 0.00033733257016 0.00033597660957 0.0003346310368 0.00033329575453 0.0003319714263 0.00033065699863 0.00032935315238 
0.00032805952042 0.00032677647053 0.00032550429289 0.00032424283328 0.00032299091666 0.00032174868699 0.00032051569568 0.0003192919393 0.00031807667303 
0.00031687002971 0.00031567115424 0.00031448016781 0.00031329645814 0.00031212004275 0.00031095065518 0.00030978838358 0.00030863265978 0.00030748414091 
0.00030634335446 0.00030520983058 0.00030408422163 0.00030296651885 0.00036706870348 0.00036551042716 0.00036396133518 0.00036242194479 0.00036089253699 
0.00035937228701 0.00035786159634 0.0003563606578 0.00035486931674 0.00035338790225 0.00035191637148 0.00035045484411 0.0003490033652 0.00034756172366 
0.00034613100824 0.00034471037629 0.00034330072483 0.0003419010905 0.00034051054794 0.0003391318918 0.00033776378417 0.00033640602257 0.00033505827004 
0.00033372109007 0.00033239457409 0.00033107796408 0.00032977174765 0.00032847572073 0.00032718941846 0.00032591413662 0.00032464921154 0.00032339424875 
0.00032214929993 0.00032091397918 0.00031968800238 0.0003184713006 0.00031726279698 0.00031606254854 0.00031487095344 0.00031368636936 0.00031250905589 
0.00031133914033 0.00031017587601 0.00030901962302 0.00030787039346 0.00030672800746 0.00030559281837 0.00030446463624 0.00030334422412 0.00030223170717 
0.00036609393656 0.0003645412881 0.00036299820037 0.00036146485044 0.00035994154714 0.00035842750503 0.00035692328271 0.00035542879425 0.00035394390806 
0.00035246892232 0.00035100416382 0.00034954942846 0.00034810488216 0.00034667059251 0.000345246154 0.00034383281411 0.00034243000558 0.00034103688623 
0.00033965538021 0.00033828444751 0.00033692404222 0.00033557438453 0.00033423465991 0.00033290569028 0.00033158633347 0.00033027737362 0.00032897892017 
0.00032769002139 0.00032641161613 0.00032514344813 0.00032388535349 0.00032263755133 0.00032139963956 0.00032017115099 0.00031895185545 0.00031774177596 
0.00031653980709 0.00031534679471 0.00031416094722 0.0003129829656 0.00031181214892 0.00031064809944 0.00030949112892 0.0003083405734 0.00030719712178 
0.00030606027623 0.00030493042012 0.00030380764838 0.00030269158259 0.00030158370395 0.0003652256327 0.00036367836502 0.00036214076473 0.00036061272434 
0.00035909486241 0.00035758681811 0.00035608837822 0.00035459968862 0.00035312075223 0.00035165197633 0.00035019327688 0.00034874471206 0.00034730630268 
0.00034587841409 0.00034446040116 0.00034305344739 0.00034165745197 0.00034027090386 0.00033889685782 0.00033753315746 0.00033618030351 0.00033483779895 
0.00033350603124 0.00033218418719 0.00033087218009 0.00032957084485 0.00032827885557 0.00032699749367 0.00032572619785 0.00032446479357 0.00032321360852 
0.0003219724134 0.00032074122718 0.00031951950007 0.00031830687039 0.00031710309535 0.00031590772392 0.00031472113695 0.00031354160637 0.00031236991095 
0.00031120501132 0.00031004704401 0.00030889555 0.00030775072418 0.00030661284525 0.00030548117066 0.00030435620669 0.00030323804991 0.00030212685246 
0.00030102291184 0.00036446440454 0.00036292161343 0.00036138896852 0.0003598658286 0.00035835294943 0.00035684995039 0.00035535695067 0.00035387363569 
0.00035240019984 0.00035093685456 0.00034948340182 0.00034804023654 0.00034660758385 0.00034518532482 0.00034377386018 0.00034237249931 0.00034098135106 
0.0003396024848 0.00033823481454 0.00033687816394 0.00033553200718 0.00033419708978 0.00033287204324 0.00033155727941 0.00033025270475 0.00032895779845 
0.00032767264508 0.00032639814553 0.00032513319392 0.00032387869268 0.00032263379876 0.00032139908359 0.00032017434709 0.00031895883744 0.00031775267907 
0.00031655521867 0.00031536685028 0.00031418618189 0.00031301310016 0.00031184699498 0.00031068782787 0.00030953592604 0.00030838986356 0.00030725035567 
0.00030611705144 0.00030499025108 0.00030386976242 0.00030275601379 0.00030164903997 0.00030054913403 0.00036381029396 0.00036227189012 0.00036074358229 
0.00035922497061 0.00035771640555 0.00035621788259 0.00035472926718 0.00035325081867 0.00035178203938 0.00035032352424 0.00034887508245 0.00034743681446 
0.00034600892014 0.00034459197387 0.00034318552215 0.00034179036808 0.00034040432486 0.00033903142727 0.00033766959688 0.00033631966879 0.0003349805718 
0.00033365187479 0.00033233341247 0.00033102525974 0.00032972728942 0.00032843858551 0.00032716041654 0.00032589184219 0.00032463331379 0.00032338477664 
0.00032214630182 0.00032091771849 0.0003196982615 0.00031848912417 0.0003172891963 0.00031609823608 0.00031491580027 0.00031374117597 0.00031257410242 
0.00031141400773 0.00031026050776 0.00030911343797 0.0003079728147 0.00030683825306 0.00030570956186 0.00030458692568 0.00030347066055 0.0003023608583 
0.00030125763292 0.00030016093605 0.00036326433799 0.00036172956579 0.00036020514093 0.00035869028914 0.00035718561913 0.00035569092098 0.00035420628951 
0.00035273176239 0.00035126739423 0.00034981283365 0.00034836836165 0.00034693459371 0.00034551095899 0.00034409827159 0.00034269675789 0.00034130496579 
0.00033992545984 0.00033855812175 0.0003372022421 0.00033585857566 0.00033452518884 0.00033320181819 0.00033188966037 0.00033058798491 0.00032929573021 
0.00032801369043 0.00032674127134 0.00032547865486 0.00032422596802 0.00032298313936 0.00032175047719 0.00032052778534 0.00031931503105 0.00031811169604 
0.00031691802658 0.00031573286749 0.00031455621537 0.00031338764699 0.00031222621159 0.00031107177473 0.0003099240847 0.00030878188887 0.00030764602114 
0.00030651587942 0.00030539178644 0.00030427304122 0.00030316056955 0.0003020540554 0.00030095363648 0.0002998599459 0.00036282609348 0.00036129453106 
0.00035977347262 0.00035826203765 0.00035676072266 0.00035526927765 0.00035378811218 0.00035231659721 0.00035085548125 0.00034940446776 0.00034796381037 
0.00034653340048 0.00034511356529 0.00034370415184 0.00034230531422 0.00034091925366 0.00033954475572 0.0003381816917 0.00033683191253 0.00033549288945 
0.00033416545664 0.00033284871626 0.0003315425527 0.00033024651521 0.00032895999387 0.00032768352067 0.00032641684225 0.00032515968964 0.00032391219217 
0.00032267498264 0.00032144768971 0.00032023037635 0.00031902303715 0.00031782582813 0.00031663758246 0.00031545816803 0.00031428737181 0.00031312449335 
0.00031196886429 0.00031081979812 0.00030967733463 0.00030854011951 0.00030740872731 0.00030628275284 0.00030516225798 0.00030404719108 0.00030293761549 
0.0003018339403 0.00030073617689 0.00029964506127 0.00036249491181 0.00036096644584 0.0003594478596 0.00035793940158 0.00035644057314 0.00035495159044 
0.0003534730893 0.00035200383459 0.00035054563308 0.00034909734496 0.00034765939361 0.00034623203957 0.00034481520236 0.00034340970809 0.00034201425618 
0.00034063210855 0.00033926248355 0.00033790416395 0.00033655838239 0.00033522445567 0.00033390237412 0.00033259120597 0.00033129022031 0.00032999916896 
0.00032871819915 0.0003274473466 0.00032618566182 0.00032493349784 0.00032369100259 0.00032245851977 0.00032123607027 0.00032002374004 0.00031882203506 
0.00031762975239 0.00031644687242 0.00031527326927 0.00031410805454 0.00031295076839 0.00031180071016 0.00031065694877 0.00030951911826 0.00030838679124 
0.00030725953273 0.00030613737064 0.0003050203349 0.00030390831514 0.00030280145262 0.00030170002001 0.00030060445928 0.0002995151147 0.00036226895954 
0.00036074292462 0.00035922591782 0.00035771936029 0.00035622277412 0.00035473576776 0.00035325909762 0.0003517928775 0.00035033635492 0.00034889022115 
0.00034745456747 0.00034602954117 0.0003446152399 0.00034321090587 0.00034181971402 0.00034044148606 0.00033907527563 0.00033772140081 0.00033637939758 
0.00033505019559 0.00033373258894 0.00033242672389 0.00033113051064 0.00032984479128 0.0003285689675 0.00032730247863 0.00032604547437 0.00032479805621 
0.00032355991567 0.00032233183591 0.00032111386262 0.00031990611979 0.00031870926219 0.00031752209421 0.00031634437352 0.00031517605288 0.00031401624288 
0.00031286434674 0.00031171954502 0.00031058095577 0.00030944758984 0.00030831960966 0.0003071964568 0.00030607795494 0.00030496389564 0.00030385384959 