# vtk DataFile Version 5.1
vtk output
ASCII
DATASET STRUCTURED_POINTS
DIMENSIONS 50 50 50
SPACING 0.002 0.002 0.002
ORIGIN 0.1742 -0.052672 0.02732
POINT_DATA 125000
FIELD FieldData 1
potential 1 125000 double
<<<<<<< HEAD
0.00069464426901 0.00069044530849 0.00068628026448 0.00068214865379 0.00067805084558 0.00067398540147 0.00066995278611 0.00066595191442 0.00066198215285 
0.00065804227099 0.00065413162237 0.00065025016521 0.00064639661317 0.00064257240719 0.00063877684999 0.00063501086587 0.00063127317928 0.00062756471532 
0.00062388468223 0.00062023268953 0.00061660634343 0.00061300417726 0.00060942378117 0.00060586526547 0.00060232648527 0.00059880648752 0.00059530726544 
0.00059182970787 0.00058837550328 0.00058494721957 0.00058154660924 0.00057817883699 0.00057484465368 0.00057154553123 0.00056828420795 0.00056505996977 
0.00056187351663 0.00055872384641 0.00055561035524 0.00055253249173 0.00054948908631 0.00054647951765 0.0005435040666 0.00054056379723 0.00053765897984 
0.00053479048387 0.0005319591174 0.0005291655012 0.00052640943211 0.00052369108064 0.00069900812663 0.00069477269932 0.00069057083784 0.000686402876 
0.00068226910368 0.00067816832437 0.00067409936093 0.00067006328131 0.00066605800932 0.00066208283756 0.00065813605802 0.00065421813364 0.00065032875934 
0.00064646780723 0.00064263553071 0.00063883192372 0.00063505717039 0.00063131022089 0.00062759202584 0.00062390077191 0.00062023499926 0.00061659331441 
0.00061297417543 0.00060937633372 0.0006057999891 0.00060224390158 0.00059870809595 0.000595195799 0.00059170789288 0.00058824759935 0.00058481574339 
0.00058141807306 0.0005780549484 0.00057472862041 0.00057143939799 0.00056818959047 0.00056497804751 0.00056180402992 0.00055866675837 0.00055556556774 
0.00055249962477 0.00054946811791 0.00054647163103 0.00054350981453 0.00054058421176 0.00053769507797 0.00053484358827 0.00053203000586 0.00052925427213 
0.00052651677887 0.00070306878519 0.00069880011494 0.00069456466459 0.00069036366236 0.00068619650248 0.0006820631689 0.0006779627299 0.00067389294464 
0.00066985517228 0.00066584743155 0.00066186767598 0.0006579165197 0.00065399348713 0.00065009857818 0.00064623148727 0.00064239318545 0.00063858280898 
0.00063479974152 0.00063104443584 0.00062731577322 0.00062361262711 0.00061993317096 0.00061627670864 0.00061264144664 0.00060902819811 0.00060543641811 
0.00060186663596 0.00059832140579 0.0005948021868 0.00059131150543 0.00058785089366 0.00058442496688 0.00058103504081 0.0005776827006 0.00057436887857 
0.00057109487672 0.00056786011987 0.00056466363286 0.00056150508501 0.00055838277246 0.00055529661954 0.00055224566871 0.0005492295845 0.00054624922498 
0.00054330479155 0.00054039735158 0.00053752709809 0.00053469542887 0.00053190155952 0.00052914593499 0.00070676192321 0.0007024625199 0.00069819749295 
0.00069396658184 0.00068977036563 0.00068560777393 0.00068147746947 0.00067737899065 0.0006733113086 0.00066927392453 0.00066526459121 0.0006612831117 
0.0006573299929 0.00065340384336 0.00064950541803 0.00064563518919 0.00064179120461 0.00063797462143 0.00063418450452 0.00063042030224 0.00062668210858 
0.00062296722046 0.00061927466058 0.00061560449981 0.00061195671125 0.00060833204718 0.00060473098452 0.00060115491217 0.0005976062059 0.00059408608565 
0.00059059978291 0.00058714839195 0.00058373423309 0.00058035833841 0.00057702251532 0.0005737262378 0.00057047070071 0.00056725440581 0.00056407669709 
0.00056093615566 0.00055783209753 0.00055476388874 0.00055173114893 0.00054873391658 0.00054577323072 0.00054284904726 0.00053996241666 0.0005371138525 
0.00053430381684 0.00053153201151 0.00071003743541 0.00070571086347 0.00070141939098 0.0006971625585 0.00069293997011 0.00068875087298 0.00068459526366 
0.00068047092343 0.00067637775564 0.00067231350773 0.00066827762039 0.00066426936103 0.0006602885119 0.00065633476023 0.00065240790568 0.00064850818225 
0.0006446346181 0.00064078755754 0.00063696570415 0.00063316915549 0.0006293978766 0.00062564935618 0.00062192477495 0.00061822246543 0.00061454372645 
0.00061088840664 0.00060725838705 0.00060365430667 0.00060007897217 0.00059653383848 0.00059302335046 0.00058954870527 0.00058611231966 0.0005827159099 
0.00057936023582 0.00057604524197 0.00057277102239 0.0005695380231 0.00056634348382 0.00056318715118 0.00056006795977 0.0005569849491 0.00055393792476 
0.00055092658162 0.00054795110461 0.00054501263517 0.0005421113541 0.00053924792806 0.00053642302466 0.00053363608704 0.00071286384134 0.00070851292578 
0.00070419839544 0.00069991833992 0.00069567317238 0.00069146121111 0.00068728285927 0.00068313627758 0.00067902007715 0.00067493427183 0.00067087422537 
0.00066684293956 0.00066283811808 0.00065885981571 0.00065490764813 0.00065098200983 0.00064708166682 0.00064320624178 0.00063935639245 0.00063553080298 
0.00063172956755 0.00062795181106 0.00062419784633 0.00062046786614 0.00061676122059 0.00061307888747 0.00060942259668 0.00060579400534 0.00060219409707 
0.00059862764187 0.00059509578851 0.00059160132092 0.0005881457641 0.00058473140531 0.00058135828436 0.00057802672257 0.00057473744183 0.00057148930892 
0.00056828095926 0.00056511146619 0.00056197935861 0.00055888470658 0.00055582504793 0.00055280146178 0.00054981368333 0.00054686253047 0.00054394840613 
0.00054107149017 0.00053823295722 0.00053543266395 0.0007152289751 0.00071085741 0.00070652206253 0.00070222198906 0.000697956776 0.00069372588691 
0.00068952850961 0.00068536244129 0.00068122687532 0.00067712054863 0.00067304180643 0.00066898930645 0.00066496337911 0.00066096442795 0.00065699081925 
0.0006530419595 0.00064911782882 0.00064521834064 0.00064134344977 0.00063749257434 0.00063366618068 0.00062986276832 0.00062608391039 0.00062232886277 
0.0006185981637 0.00061489278499 0.00061121403708 0.00060756414842 0.00060394416744 0.00060035849726 0.00059680878152 0.00059329731265 0.00058982599987 
0.00058639620946 0.00058300837837 0.00057966401359 0.00057636126038 0.00057310070822 0.00056988076226 0.00056670032538 0.00056355772939 0.00056045241592 
0.0005573826593 0.00055434862036 0.00055135025016 0.00054838816303 0.00054546271038 0.00054257406882 0.00053972360672 0.00053691077851 0.00071714367451 
0.00071275387625 0.00070840042968 0.00070408332307 0.00069980135978 0.00069555340013 0.00069133925816 0.00068715730087 0.00068300482864 0.00067888165245 
0.00067478596981 0.00067071548501 0.00066667182147 0.00066265428139 0.00065866191876 0.0006546931888 0.00065074914264 0.00064682955138 0.00064293393146 
0.00063906212264 0.00063521331325 0.00063138931206 0.00062758949644 0.00062381325086 0.00062006273808 0.00061633820803 0.00061264117294 0.0006089723867 
0.00060533701803 0.00060173593752 0.00059817182858 0.00059464647388 0.00059116195134 0.00058771937023 0.00058432070103 0.00058096483926 0.00057765127128 
0.00057438073058 0.00057115130742 0.00056796153345 0.00056481016146 0.00056169583471 0.00055861736336 0.00055557429399 0.00055256670056 0.00054959534872 
0.00054665966815 0.00054376067731 0.00054089956727 0.00053807583784 0.00071864977079 0.00071423104567 0.00070986225674 0.00070552943689 0.00070123288223 
0.00069697117981 0.0006927424856 0.00068854613621 0.00068438004482 0.00068024220386 0.00067613247098 0.00067204822242 0.00066798925442 0.00066395553943 
0.00065994739939 0.00065596300622 0.00065200200986 0.00064806542196 0.00064415289757 0.00064026342599 0.00063639796629 0.0006325561056 0.00062873925099 
0.00062494707296 0.00062118029134 0.00061744091478 0.00061372979542 0.00061004769133 0.00060639910703 0.00060278595966 0.00059921040917 0.00059567436432 
0.00059217940889 0.00058872715592 0.00058531882975 0.00058195408067 0.00057863228723 0.00057535325818 0.00057211628858 0.00056891853467 0.0005657596047 
0.00056263778467 0.00055955229641 0.00055650132162 0.00055348557742 0.00055050519509 0.00054756101663 0.00054465223243 0.00054178100526 0.00053894693277 
0.00071977224299 0.00071533867243 0.00071095548628 0.00070660932059 0.00070229977438 0.00069802560068 0.00069378460433 0.00068957480046 0.00068539638426 
0.00068124617588 0.00067712395785 0.00067302735419 0.00066895639822 0.00066490909961 0.0006608875106 0.00065688951849 0.00065291589124 0.00064896604913 
0.0006450393411 0.00064113705338 0.00063725876939 0.00063340514724 0.00062957593981 0.00062577191234 0.00062199399905 0.00061824343774 0.00061452178343 
0.00061082981848 0.00060717249369 0.00060354930785 0.00059996504481 0.00059642102207 0.00059291832655 0.00058945919316 0.00058604327169 0.00058267144674 
0.00057934289368 0.0005760566646 0.00057281265182 0.00056960856248 0.00056644348744 0.0005633149859 0.00056022281063 0.00055716519812 0.00055414194893 
0.00055115344461 0.00054820059346 0.0005452834315 0.00054240324809 0.00053955988734 0.00072058575393 0.00071615123432 0.00071174302055 0.00070738465336 
0.00070306297136 0.00069877644342 0.00069452316944 0.00069030261821 0.00068611305218 0.00068195156718 0.00067781759302 0.00067371025922 0.000669628675 
0.000665572341 0.00066153918856 0.000657531078 0.00065354722304 0.00064958652224 0.00064565031106 0.00064173846051 0.00063785087032 0.00063398770833 
0.00063014980398 0.00062633804724 0.00062255261256 0.0006187949745 0.00061506584548 0.0006113692686 0.00060770605513 0.00060407881856 0.00060048895138 
0.00059693941173 0.0005934317302 0.00058996648886 0.00058654497367 0.00058316740087 0.00057983289709 0.00057654087266 0.00057329081491 0.00057008097472 
0.00056690961932 0.00056377488442 0.00056067583044 0.00055761144042 0.00055458094378 0.00055158494909 0.00054862419806 0.00054569876042 0.00054281007273 
0.00053995777371 0.00072116507712 0.00071671786449 0.00071230951729 0.00070792594117 0.0007035923199 0.00069929421484 0.00069503017229 0.00069079859872 
0.00068659762302 0.00068242567217 0.00067828154219 0.00067416462476 0.00067007402481 0.00066600849997 0.00066196786518 0.00065795070086 0.0006539584372 
0.00064999112815 0.00064604857915 0.00064213001337 0.00063823621217 0.00063436755024 0.00063052444766 0.00062670792781 0.00062291866875 0.00061915828288 
0.00061542579889 0.00061172632099 0.00060806021247 0.00060443011126 0.00060083774808 0.00059728578421 0.00059377387857 0.00059030482888 0.0005868794794 
0.00058349736045 0.00058015835754 0.00057686116687 0.0005736057845 0.00057039025551 0.00056721240496 0.00056407152772 0.00056096526577 0.00055789426315 
0.00055485647804 0.00055185309271 0.00054888448606 0.00054595085615 0.00054305378608 0.0005401930507 0.00072158598872 0.00071712620603 0.00071270533507 
0.00070832290817 0.00070396340547 0.00069965353568 0.00069537871822 0.00069113584704 0.00068692400682 0.00068274176612 0.00067858785353 0.00067446139297 
0.00067036254434 0.00066628978308 0.0006622417685 0.00065821890207 0.00065422054624 0.00065024808029 0.00064630050612 0.00064237828019 0.00063848129221 
0.00063461030718 0.0006307655581 0.00062694758094 0.00062315726408 0.00061939424527 0.00061566336109 0.00061196356068 0.00060829739574 0.00060466700438 
0.00060107339607 0.00059751981569 0.00059400630355 0.00059053478006 0.00058710640991 0.00058372037625 0.00058037658472 0.00057707449978 0.00057381370581 
0.00057059243225 0.00056740858271 0.00056426109488 0.00056114916718 0.00055807087498 0.00055502603744 0.00055201525537 0.0005490386347 0.00054609658853 
0.00054319086958 0.00054032151296 0.00072192759103 0.00071745414267 0.00071301984467 0.00070862419006 0.00070425240988 0.00069992964502 0.00069564232201 
0.00069138813909 0.00068716464348 0.00068297153743 0.00067880796932 0.00067467309002 0.0006705660945 0.0006664862094 0.00066243153616 0.00065840402791 
0.00065440258596 0.00065042550389 0.00064647510443 0.00064255100383 0.00063865280438 0.00063478192127 0.00063093713226 0.00062711995284 0.00062333100813 
0.00061956956098 0.00061584004055 0.00061214181361 0.00060847668063 0.00060484764989 0.00060125570184 0.00059770210664 0.00059418781893 0.00059071466963 
0.00058728314301 0.00058389383235 0.00058054590586 0.00057723903956 0.00057397258777 0.00057074516149 0.00056755475005 0.00056440056491 0.00056128121786 
0.0005581958364 0.00055514353038 0.00055212468646 0.00054914073478 0.00054619109582 0.0005432769416 0.00054039863805 0.00072226015036 0.00071777198723 
0.00071332351226 0.00070891419637 0.00070454162601 0.00070019202847 0.00069589071932 0.00069162421125 0.00068738912554 0.00068318474345 0.00067901108291 
0.00067486666382 0.0006707520675 0.00066666434712 0.00066260445385 0.0006585725241 0.00065456722838 0.00065058926873 0.00064663606265 0.0006427112164 
0.00063881311198 0.00063494269075 0.00063109942532 0.00062728420713 0.00062349640881 0.00061973951472 0.00061601310121 0.00061231819713 0.00060865604281 
0.0006050297728 0.00060143895227 0.00059788573811 0.00059437171745 0.00059089792031 0.00058746394512 0.00058407093684 0.00058071889433 0.00057740716105 
0.0005741346394 0.00057090059124 0.0005677033751 0.00056454163273 0.00056141494589 0.00055832143178 0.00055526134161 0.00055223484904 0.00054924254611 
0.00054628464402 0.00054336160883 0.00054047376091 0.00072264939266 0.00071814480433 0.00071368015751 0.0007092552104 0.00070486733004 0.0007005166818 
0.00069618769768 0.0006919066907 0.00068765815561 0.00068344224103 0.00067925753458 0.00067510320996 0.00067097935577 0.00066688541871 0.00066282006407 
0.00065878310303 0.00065477438036 0.00065079375148 0.00064684086369 0.00064291365701 0.00063901637166 0.00063514716023 0.00063130607575 0.00062749349931 
0.00062370916376 0.000619956084 0.00061623339583 0.00061254230032 0.00060888382329 0.00060525913102 0.00060167049434 0.00059811843984 0.00059460499189 
0.00059113044794 0.00058769452719 0.00058429806853 0.00058094201081 0.00057762461544 0.00057434609962 0.0005711050861 0.00056790038014 0.00056473087152 
0.00056159588874 0.00055849393699 0.00055542547238 0.0005523905666 0.00054938978013 0.00054642271975 0.0005434905077 0.0005405929145 0.00072314767283 
0.00071862534916 0.00071414320626 0.00070970096106 0.00070529647582 0.00070092926301 0.00069659727552 0.00069228794788 0.00068802581842 0.00068379694074 
0.00067960033916 0.00067543472902 0.00067130154253 0.00066719907368 0.00066312694124 0.00065908417489 0.00065507169848 0.00065108832721 0.00064713356891 
0.00064320752336 0.0006393088584 0.00063544095493 0.00063160219575 0.0006277912016 0.00062401115124 0.00062026100219 0.00061654205902 0.00061285440504 
0.00060919973356 0.00060557811863 0.00060199125845 0.00059844033448 0.00059492649369 0.00059145101083 0.00058801310679 0.00058461376774 0.00058125311765 
0.00057793032293 0.00057464483593 0.00057139665201 0.00056818414969 0.00056500583013 0.00056186249277 0.00055875201179 0.0005556746419 0.0005526306189 
0.00054962011818 0.00054664352048 0.00054370133616 0.00054079243681 0.00072379869843 0.00071925662391 0.0007147554109 0.00071029425238 0.00070587157241 
0.00070148613856 0.00069713769306 0.00069281125477 0.00068853333411 0.00068428935873 0.00068007890636 0.00067590160482 0.00067175822135 0.00066764659404 
0.00066356580584 0.00065951693058 0.00065549941972 0.00065151229691 0.00064755475536 0.00064362725761 0.0006397282402 0.00063586071049 0.00063202282464 
0.00062821359552 0.00062443576346 0.00062068899455 0.00061697260546 0.00061328862455 0.000609635896 0.00060601680863 0.00060243184494 0.00059888218155 
0.00059536840091 0.0005918909059 0.00058845081029 0.00058504830547 0.00058168240946 0.00057835389891 0.00057506190336 0.00057180560039 0.00056858461959 
0.00056539811061 0.00056224499883 0.00055912534131 0.00055603927187 0.00055298489166 0.00054996436454 0.00054697740522 0.00054402349163 0.00054110453255 
0.00072463335257 0.00072007031535 0.00071554839234 0.00071106670697 0.00070662426361 0.00070221937078 0.00069785188998 0.00069352085807 0.00068921258087 
0.00068495213588 0.00068072715024 0.00067653650835 0.00067238108556 0.00066825903004 0.00066417005506 0.00066011317429 0.00065608863185 0.00065209594646 
0.0006481342728 0.00064420364529 0.00064030408941 0.00063643379144 0.00063259481004 0.00062878722515 0.00062501051223 0.00062126479743 0.00061755067095 
0.00061386800339 0.00061021712941 0.00060659949738 0.0006030160558 0.00059946591554 0.00059595200141 0.00059247320548 0.00058903001187 0.00058562372533 
0.00058225344109 0.00057891842843 0.00057561907919 0.00057235498567 0.00056912559673 0.0005659296439 0.00056276725526 0.00055963765168 0.00055654128986 
0.00055347684759 0.00055044501583 0.00054744667929 0.00054448156004 0.00054155062643 0.00072567561357 0.00072108957102 0.0007165447747 0.00071204146924 
0.00070757730262 0.00070315231681 0.00069876421471 0.0006944137695 0.00069009955401 0.000685809384 0.00068156849547 0.00067736304117 0.00067319354002 
0.00066905987747 0.00066495912012 0.00066089289674 0.0006568600624 0.00065285994502 0.00064889254718 0.0006449571788 0.00064105365409 0.00063718198783 
0.00063333878095 0.00062953017297 0.00062575272882 0.00062200715431 0.00061829310184 0.00061461088877 0.00061096085302 0.00060734340167 0.00060375953834 
0.00060020971802 0.00059669399314 0.00059321335529 0.00058976737425 0.00058635636441 0.00058298104402 0.00057963983854 0.00057633359132 0.00057306133989 
0.00056982293411 0.00056661741889 0.00056344515518 0.00056030485569 0.00055719735819 0.00055412170353 0.00055107847111 0.000548067498 0.00054509087568 
0.00054214695509 0.00072694074667 0.00072232984978 0.00071776134692 0.00071323360076 0.00070874706947 0.0007042995654 0.00069989014209 0.00069551812536 
0.00069118505513 0.00068687636742 0.00068261778654 0.00067839609257 0.00067421121368 0.00067006282669 0.00066595022903 0.00066187145762 0.0006578283067 
0.00065381909162 0.00064984310923 0.00064590057667 0.00064199137698 0.00063811340893 0.00063426929724 0.00063045528935 0.00062667507935 0.00062292760471 
0.00061921178828 0.00061552843882 0.00061187751764 0.0006082595496 0.00060467478564 0.00060112408553 0.00059760583761 0.00059412254418 0.00059067291606 
0.00058725789522 0.00058387660772 0.00058052894477 0.00057721558442 0.00057393513884 0.00057068721544 0.00056747213337 0.00056428956827 0.00056113792196 
0.00055801850214 0.00055493127118 0.00055187563154 0.00054885235146 0.00054586212129 0.00054290468647 0.00072843824611 0.00072380104735 0.00071920705197 
0.0007146540479 0.0007101431916 0.00070567167713 0.00070123839289 0.00069684513359 0.00069249073796 0.00068817504283 0.00068388398797 0.00067964415229 
0.0006754419165 0.00067127738789 0.0006671500072 0.00066305775519 0.00065900175868 0.00065498075551 0.00065099451616 0.0006470426358 0.00064312482923 
0.00063923948599 0.00063538874768 0.00063157118459 0.0006277848305 0.00062403302349 0.0006203135687 0.00061662774767 0.0006129745444 0.00060935460978 
0.00060576826217 0.00060221449414 0.0005986937811 0.00059520690074 0.00059175345678 0.00058833329614 0.00058494652628 0.00058159215754 0.00057827127018 
0.0005749825637 0.00057172535529 0.0005684997145 0.00056530609847 0.00056214305895 0.00055901135227 0.00055591090809 0.00055284249423 0.00054980596133 
0.00054680139542 0.00054382972724 0.00073017334423 0.00072550801821 0.00072088642857 0.00071630694768 0.00071176980347 0.00070727242681 0.0007028159877 
0.00069839922471 0.00069402187896 0.00068968415682 0.00068538542729 0.00068111211651 0.0006768910672 0.00067270819597 0.00066856366266 0.00066445521245 
0.0006603843883 0.0006563495055 0.00065235089942 0.00064838679119 0.00064445678644 0.00064056308112 0.00063670384759 0.00063287835489 0.00062908735709 
0.0006253275623 0.00062160331632 0.00061791288313 0.00061425542812 0.00061063185227 0.00060704180877 0.00060348493983 0.00059996124239 0.00059646968494 
0.0005930118896 0.00058958649754 0.00058619368814 0.00058283268713 0.00057950365158 0.00057620590367 0.00057293941995 0.00056970343906 0.00056649803366 
0.00056332283169 0.00056017812506 0.00055706531019 0.00055398250362 0.00055093155726 0.0005479129964 0.00054492652159 0.00073214771881 0.00072745278043 
0.00072280269631 0.00071819413117 0.00071362956197 0.00070910607524 0.00070462339035 0.00070018152859 0.00069578010337 0.00069141900705 0.0006870970723 
0.00068280196539 0.00067856013837 0.00067435677741 0.00067019257298 0.00066606615629 0.00066197802298 0.00065792709461 0.00065391330821 0.00064993550679 
0.00064599268516 0.00064208673026 0.00063821557605 0.00063438078001 0.00063058066671 0.00062681255351 0.00062308128628 0.00061938439871 0.00061572187351 
0.00061209334488 0.00060849770514 0.00060493669694 0.00060140830538 0.00059791209072 0.00059444861458 0.00059101759245 0.00058761832842 0.00058425027077 
0.0005809134855 0.00057760643212 0.00057432988756 0.00057108362887 0.00056786654096 0.00056467867916 0.00056152125666 0.00055839302997 0.00055529654386 
0.00055223122105 0.00054919780589 0.00054619599234 0.00073436361813 0.00072963750779 0.00072495576823 0.00072031825667 0.00071572456101 0.00071117255572 
0.00070666231728 0.00070219364949 0.00069776621961 0.00069337941021 0.00068903302464 0.00068472732091 0.00068044847591 0.00067622333708 0.00067203713932 
0.00066789046549 0.00066378269685 0.00065971327816 0.00065568185453 0.00065168655043 0.00064772982649 0.0006438085721 0.00063992533087 0.00063607761828 
0.00063226590032 0.00062849045778 0.00062474845936 0.00062104311029 0.00061737290457 0.00061373702364 0.0006101356193 0.00060656808372 0.00060303396371 
0.00059953227175 0.00059606283162 0.0005926255291 0.00058921920954 0.0005858436915 0.00058249830061 0.00057918197201 0.00057589552889 0.00057263768702 
0.00056940938065 0.00056620922804 0.00056303702847 0.00055989533245 0.00055678417131 0.00055370339522 0.00055065493057 0.00054763711031 0.00073681934783 
0.00073206012373 0.00072734667646 0.00072267718674 0.00071805268647 0.00071347077228 0.00070893128594 0.00070443456279 0.00069997889584 0.00069556534374 
0.00069119246629 0.0006868607725 0.00068255553544 0.000678306034 0.00067409684988 0.0006699271273 0.00066579782852 0.00066170752771 0.00065765462296 
0.00065364214903 0.00064966768471 0.00064573095183 0.00064183209918 0.00063797068718 0.00063414549723 0.00063035759851 0.00062660596768 0.00062288876563 
0.00061920891198 0.00061556422747 0.00061195502021 0.00060838068582 0.00060483971696 0.00060133151624 0.00059785506142 0.00059441067446 0.00059099681767 
0.00058761347142 0.00058425906084 0.00058093335719 0.00057763620202 0.00057436707939 0.00057112604229 0.00056791297462 0.00056472721771 0.00056157084713 
0.00055844462248 0.00055534825378 0.00055228338842 0.0005492498363 0.00073951512573 0.00073472187953 0.00072997394994 0.00072527153645 0.00072061466956 
0.00071600037858 0.00071142981637 0.00070690243361 0.00070241717194 0.00069797425909 0.00069357304467 0.00068921378977 0.00068489567422 0.00068060582505 
0.00067637087978 0.00067217611679 0.00066802290669 0.00066390937979 0.00065983464428 0.00065580100239 0.0006518072638 0.00064785239114 0.00064393559353 
0.00064005741193 0.0006362174428 0.00063241512806 0.00062865066528 0.0006249230108 0.00062122920043 0.00061757467183 0.00061395603305 0.00061037208259 
0.0006068224263 0.00060330611112 0.00059982216669 0.00059636999664 0.00059294773496 0.00058955514194 0.00058619198941 0.00058285628092 0.00057954815465 
0.00057626750211 0.00057301336087 0.0005697868529 0.00056658786918 0.00056341714834 0.00056027525177 0.00055716317514 0.00055408209944 0.0005510324531 
0.00074245258946 0.00073762235877 0.00073283871298 0.00072810146969 0.00072341035959 0.00071876282334 0.00071415946689 0.00070959981506 0.00070508260153 
0.00070060837841 0.00069617649214 0.00069178737113 0.00068744012617 0.00068313488143 0.00067885791354 0.0006746364076 0.00067045603922 0.00066631666526 
0.00066221930161 0.00065816261335 0.0006541465444 0.00065017126446 0.00064623497382 0.00064233813815 0.00063848013795 0.00063466114994 0.00063088160334 
0.00062713963868 0.00062343500351 0.00061976601068 0.00061613533139 0.00061254115303 0.00060898206471 0.00060545644585 0.00060196313906 0.00059850188638 
0.00059507023125 0.0005916687011 0.00058829444887 0.00058494859477 0.0005816293742 0.00057833642814 0.00057506993425 0.0005718292542 0.00056861659911 
0.00056543102088 0.00056227405394 0.00055914639232 0.00055604827065 0.0005529819867 0.00074563356453 0.00074076511086 0.00073594395312 0.00073116926049 
0.00072644141676 0.00072175892672 0.0007171205448 0.00071252623196 0.00070797530704 0.00070346748337 0.00069900320435 0.00069458143967 0.00069020249073 
0.00068586633264 0.00068155916276 0.00067730792474 0.00067309980956 0.00066893266832 0.00066480938451 0.00066072755365 0.00065668778928 0.00065268888279 
0.00064873068152 0.00064481337263 0.00064093547411 0.0006370983925 0.00063330032326 0.00062954189362 0.00062582214939 0.00062213828177 0.00061849445319 
0.00061488748802 0.0006113165848 0.00060778007347 0.00060427636023 0.00060080423718 0.00059736255958 0.00059395068189 0.00059056573843 0.00058720862218 
0.00058387761522 0.00058057234699 0.00057729231341 0.00057403811457 0.00057081131743 0.00056761130141 0.00056443877763 0.00056129525387 0.00055818143561 
0.00055509805239 0.00074906088093 0.00074415077976 0.00073928987589 0.00073447595046 0.00072970953183 0.00072498894346 0.0007203139638 0.00071568329234 
0.00071109632562 0.00070655310688 0.00070205326372 0.00069759677556 0.00069318412631 0.0006888146268 0.0006844889308 0.00068019281643 0.00067595275449 
0.00067175722866 0.00066760519253 0.00066349659888 0.00065943024514 0.00065540645128 0.00065142453303 0.0006474843177 0.00064358538947 0.00063972647863 
0.00063590818443 0.00063213082546 0.00062839268311 0.00062469490913 0.00062103303364 0.00061741129431 0.00061382667816 0.00061027672133 0.00060676075199 
0.0006032765221 0.00059982390112 0.00059640017003 0.00059300426599 0.00058963430858 0.00058629055181 0.00058297318332 0.00057967974262 0.00057641194591 
0.00057316976891 0.00056995465818 0.00056676668591 0.00056360732167 0.00056047720117 0.00055737749591 0.00075273525395 0.00074778282452 0.00074287955711 
0.00073802437027 0.00073321704161 0.00072845632977 0.00072374142058 0.00071907208799 0.00071444659594 0.00070986549474 0.00070532878648 0.00070083551603 
0.00069638606645 0.00069198152158 0.00068762046857 0.00068330443725 0.00067901806427 0.00067479110739 0.00067060826602 0.00066647096771 0.00066237645525 
0.00065832592134 0.00065431779645 0.00065035236946 0.00064642911715 0.00064254682655 0.0006387065707 0.00063490711406 0.00063114889643 0.0006274314404 
0.00062375394716 0.00062011297665 0.00061651193624 0.00061294725084 0.0006094170373 0.00060591913594 0.00060245358402 0.0005990168333 0.00059560804515 
0.00059222579482 0.0005888684447 0.00058553612606 0.0005822290949 0.00057894690399 0.00057568983484 0.00057245885012 0.00056925575594 0.00056608046224 
0.00056293434007 0.00055981764198 0.00075665949151 0.00075166217329 0.00074671529195 0.00074181614666 0.0007369658459 0.00073216240651 0.0007274057167 
0.00072269466825 0.00071802863556 0.00071340716153 0.00070883000984 0.00070429805308 0.00069980967459 0.00069536679524 0.00069096954492 0.00068661573175 
0.00068229564903 0.00067803555057 0.00067382063152 0.00066965174995 0.00066552748973 0.00066144724822 0.00065741102902 0.00065341868758 0.00064946882673 
0.00064556146905 0.0006416957216 0.00063787243613 0.00063409145483 0.00063035180335 0.00062665351914 0.00062299520052 0.00061937398784 0.00061579161355 
0.00061224490831 0.00060873160579 0.00060525042137 0.00060179946161 0.00059837634901 0.00059497962238 0.00059160875681 0.00058826127867 0.0005849391593 
0.0005816417788 0.00057837000391 0.00057512307772 0.0005719038944 0.00056871250711 0.00056554911734 0.00056241567699 0.00076083333546 0.00075578899228 
0.00075079596471 0.00074585162172 0.00074095581121 0.00073610764901 0.00073130668152 0.0007265510968 0.00072184139396 0.00071717727822 0.00071255854743 
0.00070798433512 0.00070345528618 0.0006989722639 0.00069453422982 0.00069014355411 0.00068579952357 0.00068148980866 0.00067724141069 0.00067303890436 
0.00066888281085 0.00066477187161 0.00066070547014 0.00065668337771 0.0006527046648 0.00064876918292 0.00064487664431 0.00064102669564 0.00063721966698 
0.00063345600577 0.00062973406605 0.00062605344032 0.00062241066318 0.00061880891194 0.0006152435785 0.00061171259347 0.0006082143853 0.00060474701418 
0.00060130830696 0.00059789581744 0.00059450963276 0.00059114677331 0.00058780868736 0.00058449518328 0.00058120674961 0.00057794397153 0.00057470771437 
0.00057149961629 0.00056831943723 0.00056516912363 0.00076525526402 0.00076016266512 0.00075512039786 0.00075012833965 0.00074518460591 0.00074028857007 
0.00073544070084 0.00073063921306 0.00072588413189 0.00072117455119 0.00071651064208 0.0007118927828 0.00070732017397 0.00070279475227 0.00069831486295 
0.00069388429735 0.00068950170073 0.00068515452497 0.00068086921747 0.00067663171653 0.00067244162592 0.00066829810254 0.00066419914544 0.00066014510588 
0.00065613505157 0.00065217023682 0.00064824809283 0.00064436884557 0.00064053355187 0.00063674203326 0.00063299363671 0.00062928772767 0.00062562392593 
0.00062199732609 0.00061841070882 0.00061486040103 0.0006113432299 0.00060785815356 0.00060440184901 0.00060097217853 0.00059756827172 0.0005941891097 
0.00059083382733 0.00058750336369 0.00058419799509 0.00058091808173 0.00057766454296 0.00057443869186 0.00057124164017 0.00056807366228 0.00076992018514 
0.00076477695933 0.00075968393995 0.00075464111993 0.00074964753845 0.00074470149328 0.00073980394865 0.00073495394808 0.0007301500963 0.00072539292867 
0.00072068225293 0.00071601793419 0.00071139987274 0.00070682809811 0.0007023058927 0.00069783323647 0.0006934103553 0.00068903683497 0.00068469963021 
0.00068042514907 0.00067619877744 0.00067202059559 0.00066788765401 0.00066380001333 0.0006597575082 0.00065575885153 0.00065180447578 0.00064789434239 
0.00064402789334 0.00064020622282 0.00063642886589 0.0006326952085 0.00062900521906 0.00062535626406 0.00062174382296 0.00061817134884 0.00061463364151 
0.00061112806685 0.0006076524354 0.00060420435625 0.00060078135593 0.00059738370454 0.00059401073827 0.00059066217956 0.00058733846132 0.00058403970551 