# vtk DataFile Version 5.1
vtk output
ASCII
DATASET STRUCTURED_POINTS
DIMENSIONS 50 50 50
SPACING 0.002 0.002 0.002
ORIGIN 0.1742 -0.052672 0.02732
POINT_DATA 125000
FIELD FieldData 1
potential 1 125000 double
<<<<<<< HEAD
0.0059443052116 0.0058520385259 0.0057617060586 0.005673240706 0.0055866121634 0.0055017666879 0.0054186560983 0.005337232628 0.0052572503769 
0.005179077944 0.0051024456306 0.005027335843 0.0049536917781 0.0048815050025 0.0048106946242 0.0047413067564 0.0046733317512 0.0046065807248 
0.0045411628777 0.0044770364798 0.0044141405213 0.0043524464007 0.0042919100806 0.0042325093697 0.0041742041028 0.0041167722986 0.0040602655019 
0.0040051124588 0.0039509768014 0.0038978433061 0.0038462187726 0.0037950692183 0.0037448988461 0.0036956942061 0.0036474490364 0.003600135732 
0.0035537386685 0.0035082271171 0.0034635766014 0.0034197615706 0.0033767525108 0.0033345298123 0.0032930760456 0.0032523674071 0.0032124139651 
0.0031731947433 0.003134698682 0.0030969213278 0.0030598484 0.003023468974 0.0059066469194 0.0058155765616 0.0057263833004 0.0056390235682 
0.0055534556459 0.0054696320297 0.0053875069332 0.0053068215335 0.0052279627463 0.0051506679341 0.0050748733098 0.0050005676989 0.0049277037005 
0.00485622868 0.0047861628715 0.0047175126819 0.0046500948009 0.0045839963606 0.0045191927791 0.0044556310583 0.0043932804277 0.0043321060787 
0.0042720770639 0.0042131573617 0.0041551481293 0.0040983728108 0.0040422928834 0.0039875778274 0.0039338654378 0.0038811512286 0.003829935748 
0.0037791886997 0.0037294125025 0.0036805989378 0.0036327253232 0.0035857896467 0.0035397596921 0.0034946071483 0.0034503079718 0.003406834504 
0.0033641656783 0.0033222744143 0.0032811474746 0.0032407527724 0.0032011085461 0.0031621877997 0.0031239871552 0.003086495423 0.0030497005462 
0.0030135932548 0.0058666367381 0.0057768008838 0.0056887816959 0.0056025613637 0.0055180895968 0.0054353232211 0.0053540054152 0.0052745123575 
0.0051966016321 0.0051202156367 0.0050452946591 0.0049718283974 0.0048997466051 0.0048290719948 0.0047597684605 0.0046917602937 0.0046250613121 
0.0045596266464 0.0044954409975 0.0044324725381 0.0043706901425 0.0043100611152 0.0042505743702 0.0041919651932 0.0041346240992 0.004077986992 
0.0040227159834 0.0039684591107 0.0039151969965 0.0038629248476 0.0038121451075 0.0037618199794 0.0037124620994 0.0036640556911 0.0036165900811 
0.0035700474737 0.0035244040192 0.0034796323271 0.0034357060207 0.0033925990018 0.0033502890464 0.0033087525256 0.0032679548872 0.0032279106956 
0.0031885934736 0.0031499923985 0.0031120999998 0.0030749111326 0.0030384090943 0.0030025852664 0.0058237386556 0.0057351670528 0.0056483773034 
0.0055633351409 0.005479781315 0.0053981225345 0.0053180776201 0.0052396104186 0.0051626826065 0.0050872392615 0.005013218231 0.0049406248233 
0.0048694172474 0.0047995013029 0.0047310225765 0.0046637771022 0.0045977838166 0.004533033564 0.004469500161 0.0044071504606 0.004345987447 
0.0042859348855 0.0042267844618 0.0041689075586 0.0041117387037 0.0040559560401 0.0040011846982 0.0039474128011 0.0038946269641 0.0038433404441 
0.003792504409 0.0037426337896 0.0036937232876 0.0036457555935 0.003598722615 0.0035525989261 0.0035073692424 0.0034630035155 0.003419476032 
0.0033767613329 0.0033348348091 0.0032936615501 0.0032532452844 0.0032135574344 0.0031745912316 0.0031363277928 0.003098763962 0.0030618929678 
0.0030257027389 0.0029901820306 0.0057775373614 0.005690275933 0.0056047608866 0.0055207202192 0.0054385831237 0.0053580627357 0.0052791279431 
0.0052017310981 0.0051258324241 0.0050513601002 0.00497831341 0.004906637415 0.0048362745112 0.0047673329986 0.0046996025206 0.0046331428328 
0.0045679094498 0.004503899311 0.004441051501 0.0043793669812 0.0043188198654 0.0042591745193 0.0042008140973 0.0041431578366 0.0040869001098 
0.0040316550362 0.0039774155101 0.0039241624033 0.0038718868309 0.0038211054297 0.0037707620399 0.0037213741593 0.0036729385273 0.0036254435807 
0.0035788719717 0.0035332022384 0.0034884122769 0.0034444838724 0.0034013836516 0.0033590882939 0.0033175731083 0.0032768017249 0.0032367786706 
0.0031974740809 0.0031588746398 0.00312097562 0.0030837637684 0.0030472300887 0.0030113687565 0.0029761616882 0.0057277892017 0.0056418811245 
0.0055574516387 0.0054749195024 0.0053940181517 0.005314687838 0.0052369050085 0.0051606075587 0.0050857674476 0.0050123587242 0.0049402747644 
0.0048695791909 0.0048001866731 0.0047321452822 0.0046652797112 0.0045996645863 0.0045352246509 0.0044719562608 0.0044098487591 0.004348867481 
0.0042887910656 0.0042299985503 0.0041719117184 0.0041152328041 0.0040595673245 0.0040049037333 0.003951231196 0.0038985356822 0.0038473362944 
0.0037965649294 0.0037467476142 0.003697883384 0.0036499588498 0.0036029677834 0.0035568879652 0.0035116997064 0.0034673856611 0.0034239222749 
0.0033812783318 0.0033394314801 0.0032983412716 0.0032580146415 0.0032184073667 0.0031795102429 0.0031413062424 0.0031037896462 0.0030669486086 
0.0030307674732 0.0029952531313 0.0029603893759 0.005674148823 0.0055896561306 0.0055068265293 0.0054256181136 0.0053459847487 0.005267900061 
0.0051913061752 0.0051161766709 0.0050424585336 0.0049700945968 0.0048991029836 0.0048294170786 0.0047610730367 0.0046939207142 0.0046279635654 
0.0045632019108 0.0044996010527 0.0044371446425 0.0043758127271 0.0043153738308 0.0042562241304 0.0041977680131 0.0041407263577 0.0040846993862 
0.004029671335 0.0039756319533 0.0039225682223 0.0038704704883 0.0038198564614 0.0037696596745 0.0037204112287 0.0036721029431 0.0036247282856 
0.0035782728576 0.0035327158151 0.0034880466471 0.0034442361774 0.0034012668953 0.0033591096364 0.0033177386063 0.003277112567 0.0032372377298 
0.0031980739518 0.0031596062859 0.0031218139235 0.0030847014714 0.0030482517139 0.0030124546658 0.0029773076434 0.0029427984962 0.0056172016013 
0.0055341581327 0.0054527342405 0.0053728855982 0.0052945627773 0.005217745567 0.0051424073818 0.0050684887769 0.0049958989643 0.0049246961811 
0.0048548202747 0.0047861843882 0.0047188556274 0.0046526669577 0.0045876699835 0.0045238180433 0.004461103603 0.0043992923303 0.0043387885711 
0.0042793523944 0.0042205983056 0.0041632599231 0.0041069374352 0.0040516065461 0.0039972645663 0.0039438936702 0.0038914827345 0.0038405550107 
0.0037900329658 0.0037404520882 0.0036918094058 0.0036440953095 0.003597301323 0.003551411407 0.0035064172137 0.003462295006 0.0034190167104 
0.003376570658 0.0033349253346 0.003294039885 0.0032539156692 0.0032145144471 0.0031758088478 0.0031377890341 0.0031004398924 0.003063753182 
0.0030277125692 0.0029923127423 0.0029575516599 0.0029234172248 0.0055569671703 0.0054754076882 0.0053954225627 0.0053169498462 0.0052399967483 
0.005164514156 0.0050904109428 0.0050177342935 0.004946398832 0.0048763564864 0.0048075847921 0.004740114468 0.0046737767848 0.0046086075455 
0.0045445973977 0.0044817069714 0.0044197017938 0.0043589998359 0.0042993622765 0.0042403922367 0.0041828285265 0.0041262804235 0.0040707191943 
0.0040161363975 0.0039625194037 0.003909859506 0.0038581447297 0.0038078971525 0.0037580403487 0.0037091142298 0.0036611118121 0.0036140232652 
0.0035678410787 0.003522551611 0.0034781424878 0.0034345936472 0.0033918776496 0.0033499763452 0.0033088658903 0.0032685005429 0.0032288778126 
0.0031899719606 0.0031517573937 0.0031142042517 0.003077310087 0.0030410605637 0.0030054486193 0.0029704528203 0.0029360910634 0.002902344409 
0.0054938544112 0.0054137900789 0.0053352598678 0.0052582326685 0.005182670053 0.0051085126844 0.005035753271 0.0049643174077 0.0048942100969 
0.0048253621477 0.0047577499336 0.0046914069556 0.0046261559716 0.0045620438332 0.0044990561002 0.004436940691 0.0043761206059 0.0043163513525 
0.0042572402229 0.0041995331128 0.0041428291322 0.0040871110087 0.0040323595803 0.0039785670783 0.0039257212914 0.0038738131705 0.0038228298254 
0.0037732988474 0.0037241467731 0.003675904852 0.0036285706036 0.0035821403888 0.0035365986448 0.0034919364868 0.0034481380158 0.0034051849869 
0.0033630521229 0.0033217068909 0.0032811341454 0.0032413208786 0.0032022307794 0.0031638342181 0.0031261137809 0.0030890452805 0.0030526188339 
0.0030168141836 0.0029816409958 0.0029470816233 0.0029131350069 0.0028797898446 0.0054283638312 0.0053498343153 0.0052728183248 0.0051972023289 
0.0051230455754 0.0050502593794 0.0049788082912 0.0049086800819 0.0048398241778 0.0047721887759 0.0047058272612 0.0046405527756 0.0045764121659 
0.0045133933404 0.0044512410358 0.0043903698824 0.0043305452846 0.0042713624852 0.004213580771 0.0041567924251 0.0041009776739 0.0040461240486 
0.0039922195464 0.0039392543038 0.0038872151942 0.0038360927169 0.0037864187863 0.0037371008615 0.0036886815106 0.003641159125 0.0035945245535 
0.0035487747633 0.0035038979031 0.0034598813832 0.0034167129562 0.0033743652875 0.0033328305704 0.0032920725261 0.0032520640154 0.0032128009819 
0.0031742445922 0.0031363689869 0.0030991448042 0.0030625710496 0.0030266215328 0.002991289119 0.0029565666436 0.0029224450384 0.0028889236002 
0.002855994754 0.0053611578725 0.005284166916 0.0052085954054 0.0051344620729 0.0050617124636 0.0049903000218 0.0049201873056 0.0048513529382 
0.0047837512077 0.0047174264967 0.0046521756786 0.0045880603793 0.0045250585416 0.0044629198938 0.0044020619977 0.0043422385638 0.0042830489169 
0.0042252537012 0.0041684466188 0.0041125995946 0.0040577052405 0.0040037515343 0.0039507234878 0.003898614876 0.0038474129642 0.0037971102735 
0.0037482306283 0.0036996914152 0.0036520311552 0.0036052488456 0.0035593385194 0.0035142904999 0.0034700866608 0.0034267334375 0.0033842118502 
0.0033424952239 0.003301566552 0.0032613851012 0.0032219630071 0.0031832571746 0.0031452321651 0.0031078807072 0.0030711788951 0.0030351043065 
0.0029996379298 0.0029647762013 0.0029305110394 0.0028968346442 0.0028637447965 0.0028313368913 0.0052927682561 0.0052173226012 0.0051432797798 
0.0050706077528 0.0049992588708 0.0049292099398 0.0048604432153 0.0047929025345 0.0047265622893 0.0046614628416 0.0045974065093 0.0045342332562 
0.0044723808235 0.0044115815017 0.0043518076879 0.0042926596981 0.0042349044207 0.0041781281371 0.0041223040096 0.0040674246617 0.0040134746123 
0.0039604438778 0.0039083214036 0.0038570910993 0.003806748169 0.0037578227062 0.0037092184334 0.0036614776525 0.0036145966306 0.0035685751539 
0.0035233907538 0.0034790592958 0.0034355583503 0.0033928791128 0.0033510103327 0.0033099253671 0.0032695939055 0.0032300126859 0.0031911654723 
0.003153018897 0.0031155455926 0.0030787218941 0.003042535894 0.0030069601903 0.0029719820822 0.002937595353 0.0029037913226 0.0028705641802 
0.0028379131893 0.0028059290253 0.0052239459116 0.0051500224502 0.0050774589072 0.0050062245733 0.0049362798556 0.0048675876738 0.0048001433079 
0.0047338952401 0.0046688900141 0.0046049228442 0.0045418399023 0.0044800675781 0.0044193536658 0.0043596725819 0.0043005979295 0.0042429194999 
0.0041862139599 0.0041304603852 0.0040756361482 0.0040217384232 0.0039687453517 0.0039166540719 0.003865442673 0.0038151069295 0.0037656384787 
0.0037175640446 0.0036697923941 0.0036228530478 0.0035767605568 0.003531505915 0.0034870782849 0.0034434714472 0.0034006709075 0.0033586685436 
0.0033174448618 0.0032769942964 0.0032372763057 0.003198296413 0.0031600241991 0.0031224350592 0.0030855006775 0.003049207686 0.003013532365 
0.0029784581142 0.0029439676057 0.002910054299 0.0028767151237 0.0028439415362 0.0028118262737 0.0027801690702 0.0051552113182 0.0050827928245 
0.005011693876 0.0049418839358 0.0048733101009 0.0048059727247 0.0047398288991 0.0046748525381 0.0046110902968 0.0045481085992 0.0044864399925 
0.0044258270976 0.0043662533014 0.0043072841419 0.0042497031019 0.0041930980907 0.0041374361535 0.0040827087347 0.0040288912218 0.0039759743938 
0.0039239452108 0.0038727938249 0.003822503053 0.0037730673228 0.0037250145571 0.0036772500829 0.003630315944 0.0035842030795 0.0035389037623 
0.00349442106 0.0034507385664 0.0034078448496 0.0033657459452 0.0033244261449 0.0032838598036 0.0032440250631 0.0032049298509 0.003166541558 
0.0031288385278 0.003091802242 0.0030554061151 0.0030196338852 0.0029844699565 0.0029498899979 0.0029158859943 0.0028824460565 0.00284957036 
0.0028173450162 0.0027855677628 0.0027543348346 0.0050870984659 0.0050161549302 0.0049464890329 0.0048780724651 0.0048108574718 0.004744845501 
0.0046799828739 0.0046163456196 0.0045534817971 0.0044919315497 0.0044314347875 0.0043719639214 0.0043131136584 0.0042556517759 0.0041991583552 
0.0041436085032 0.0040889862047 0.004035278061 0.0039824626332 0.0039305215526 0.0038794508439 0.0038292270044 0.0037798541653 0.0037313157405 
0.0036841462237 0.0036372389621 0.0035911383881 0.0035458384366 0.0035013212413 0.0034576003002 0.0034146614081 0.0033724940839 0.0033310919238 
0.003290444419 0.0032505258219 0.0032113139959 0.0031728247094 0.0031350174349 0.0030978787691 0.0030613866953 0.0030255237157 0.0029902681482 
0.0029556067231 0.002921517634 0.0028879928673 0.0028550224676 0.0028227049642 0.0027908250151 0.0027594828047 0.002728670949 0.0050200229844 
0.0049505242591 0.0048822596656 0.0048152003579 0.0047493246076 0.0046846018849 0.0046208545805 0.0045583573253 0.0044969314863 0.0044365545653 
0.0043772096794 0.0043184637128 0.0042611194887 0.0042047432851 0.0041493119664 0.0040948027909 0.00404120781 0.0039884982889 0.0039366671241 
0.0038856942991 0.0038355695831 0.0037862828824 0.0037378197589 0.0036907193431 0.0036438612777 0.0035977888548 0.003552513904 0.0035080143684 
0.003464287026 0.003421323019 0.0033791166063 0.0033376582056 0.0032969392764 0.0032569519735 0.0032176593882 0.0031790801013 0.0031411839712 
0.0031039513016 0.0030673673339 0.0030314133617 0.0029960740147 0.0029613263534 0.0029271611427 0.002893557404 0.0028605052377 0.0028280013804 
0.0027961301161 0.0027646899595 0.0027337752619 0.0027033765899 0.0049543316334 0.0048862369825 0.0048193345116 0.0047536148789 0.0046890375446 
0.0046253431467 0.0045630705773 0.0045017685615 0.0044415122626 0.004382283014 0.0043236542135 0.0042664200617 0.0042101619658 0.0041548461013 
0.0041004413306 0.0040469601267 0.0039943733207 0.0039426589198 0.0038917939787 0.0038417708489 0.0037925759836 0.0037441986644 0.0036966170516 
0.0036503826269 0.0036043732697 0.0035591415281 0.0035146711682 0.0034709612919 0.0034279957786 0.003385775299 0.0033442888089 0.0033035276903 
0.0032634825609 0.0032241261481 0.0031854740765 0.0031475009555 0.0031101859242 0.0030735182562 0.0030374783356 0.0030020524298 0.0029672254909 
0.0029329804313 0.0028993003534 0.0028661726132 0.002833594049 0.0028016368039 0.0027701093353 0.0027391010232 0.0027086031128 0.0026786176923 
0.0048902585047 0.004823539527 0.0047579684639 0.0046935440958 0.0046299985487 0.0045678654963 0.0045066995981 0.0044465683045 0.0043874601721 
0.0043289427489 0.0042718139804 0.0042156562123 0.0041604521667 0.0041061740439 0.0040528044906 0.0040003208207 0.0039487129427 0.0038979562027 
0.0038480272988 0.0037989288254 0.0037506397302 0.0037031508387 0.0036569993148 0.0036110547204 0.003565875037 0.0035214484582 0.0034777659032 
0.0034348221216 0.0033926032846 0.0033511065052 0.0033103240411 0.003270237557 0.0032308518502 0.0031921307192 0.0031540903842 0.003116707686 
0.0030799671001 0.0030438483549 0.0030083406309 0.002973434835 0.002939112806 0.0029053563055 0.0028721560594 0.0028394972749 0.0028074697584 
0.0027758598863 0.002744764223 0.002714177122 0.0026840929849 0.0026545063853 0.0048279819126 0.0047625840156 0.0046980799575 0.004634925595 
0.0045729438073 0.0045119209198 0.0044519074207 0.0043929194547 0.0043345182016 0.0042775102562 0.004221461868 0.0041663511175 0.004112172985 
0.0040589078946 0.0040065147384 0.0039550037542 0.0039043470071 0.0038545239796 0.0038055205084 0.0037573195984 0.0037099095145 0.0036632808787 
0.0036179660631 0.0035728470818 0.0035284690477 0.0034848259096 0.0034419085079 0.0033997088245 0.0033582163387 0.0033174203805 0.0032773180659 
0.0032378991001 0.0031991349578 0.0031610457992 0.0031236030673 0.0030867951718 0.0030506115577 0.0030150296611 0.0029800503943 0.0029456510943 
0.00291182092 0.0028785446967 0.0028458138679 0.0028136094346 0.0027820252241 0.0027508506793 0.0027201795516 0.0026900036575 0.0026603243227 
0.0026311259158 0.0047676073422 0.004703260413 0.0046402619692 0.0045783291223 0.0045175450419 0.0044576848219 0.0043988202212 0.004340536552 
0.004283638443 0.0042276944802 0.004172678239 0.0041185894792 0.0040654088036 0.0040131183396 0.0039616984179 0.0039111226333 0.0038613890958 
0.0038124709866 0.0037643504112 0.00371701732 0.0036704603768 0.0036252194706 0.0035801601212 0.0035358326483 0.0034922311406 0.0034493477223 
0.0034071695412 0.0033656891622 0.0033248962508 0.0032847847789 0.0032453438431 0.0032065681043 0.0031684223032 0.0031309338216 0.0030940704203 
0.0030578257043 0.0030221809536 0.0029871300377 0.0029526614305 0.002918757798 0.0028854081356 0.0028526030318 0.0028203292825 0.002788666241 
0.0027574165286 0.0027266675714 0.0026964097909 0.0026666395106 0.002637348646 0.0026085307037 0.0047089535638 0.0046461164752 0.0045843407371 
0.0045236943746 0.0044639768313 0.0044052465912 0.0043470733385 0.004290284701 0.0042344426655 0.0041795330036 0.0041255329162 0.0040724327313 
0.0040202188462 0.003968874601 0.0039183842906 0.0038687189646 0.0038198764225 0.0037718301356 0.0037245662889 0.0036780736747 0.0036323327023 
0.0035878911202 0.003543614085 0.0035000552617 0.0034572047587 0.0034150520216 0.0033735867313 0.0033328038343 0.0032926882947 0.0032532354624 
0.0032144390869 0.0031762656095 0.0031387358332 0.0031018275056 0.0030655294307 0.0030298289875 0.0029947157174 0.0029601761863 0.0029262064907 
0.00289278747 0.0028599090107 0.0028275586026 0.0027958272214 0.0027645015552 0.0027336749918 0.0027033367066 0.002673484991 0.0026441053518 
0.0026151932699 0.0025867458582 0.0046525362965 0.0045909065783 0.004530413814 0.0044708250838 0.0044122340603 0.004354194111 0.0042975210652 
0.0042417842326 0.0041869665725 0.004133057805 0.0040800380992 0.0040278962453 0.0039766210976 0.0039261918608 0.0038765969553 0.0038278099101 
0.0037798249816 0.0037326186877 0.0036861812674 0.0036404934707 0.0035961023731 0.0035518702921 0.0035083518239 0.0034655318069 0.0034234048519 
0.003381957524 0.0033411818568 0.0033010698502 0.0032616075836 0.0032227905377 0.0031845960905 0.0031470363821 0.0031100916738 0.00307374368 
0.003037993474 0.0030028218349 0.0029682249097 0.0029341861421 0.0029006995661 0.0028677514896 0.0028353317439 0.0028035248091 0.0027721273253 
0.002741224062 0.0027108080098 0.0026808772172 0.0026514135248 0.0026224132681 0.0025938752395 0.0025657892009 0.0045980823396 0.0045377385584 
0.004478297366 0.0044194119197 0.0043619208724 0.0043053654304 0.0042497337425 0.0041950142157 0.0041411941907 0.0040882582088 0.0040361867326 
0.0039849733929 0.0039346054384 0.0038850595984 0.0038363279831 0.0037883904734 0.0037412338854 0.0036948388548 0.0036491976087 0.0036042858405 
0.0035606522659 0.0035171623255 0.0034743675244 0.0034322616185 0.0033908310701 0.0033500608663 0.0033099487144 0.0032704820125 0.0032316530732 
0.0031934513487 0.0031558474008 0.0031188731412 0.0030824884178 0.0030466867979 0.0030114624371 0.0029768082545 0.002942709706 0.0029091576348 
0.0028761440213 0.0028436517367 0.0028117743554 0.002780304968 0.002749329607 0.0027188372985 0.002688825292 0.0026592776318 0.0026301959089 
0.0026015690079 0.0025733935335 0.0025456596916 0.0045455889714 0.0044863853807 0.0044276388456 0.0043702674313 0.0043138326556 0.0042583117988 
0.0042036917137 0.0041499603378 0.0040971046712 0.0040451114674 0.0039939596828 0.003943644999 0.0038941481395 0.0038454610725 0.0037975610038 
0.0037504408606 0.0037040820245 0.0036584734248 0.0036135925885 0.0035699914786 0.0035265261993 0.0034837505099 0.0034416595517 0.0034002372698 
0.0033594746959 0.0033193628531 0.0032798908372 0.0032410462514 0.0032028230881 0.0031651938404 0.0031281800481 0.0030917582398 0.0030559176799 
0.003020646664 0.0029859336951 0.0029517782437 0.0029181627523 0.0028850822221 0.0028525242439 0.00282047645 0.0027890327954 0.0027579834802 
0.0027274263035 0.0026973369562 0.0026677088182 0.00263854377 0.0026098325658 0.0025815653592 0.0025537435965 0.0025263511325 0.0044951180455 
0.004436504402 0.004379261157 0.0043229336879 0.00426752782 0.0042130087964 0.0041593683694 0.0041065964718 0.0040546714883 0.0040035888636 
0.0039533259596 0.0039038764165 0.0038552244675 0.0038073631099 0.0037602726267 0.0037139402229 0.0036683552224 0.003623495006 0.0035799145655 
0.0035364632645 0.0034937030377 0.0034516190467 0.0034102018624 0.0033694416123 0.003329323944 0.0032898417521 0.0032509818494 0.0032127387941 
0.0031750842295 0.0031380356798 0.0031015759269 0.0030656997533 0.0030303846122 0.0029956214202 0.0029614066119 0.002927732619 0.00289458726 
0.0028619637777 0.0028298479905 0.0027983299373 0.0027672076118 0.0027365689928 0.002706403896 0.0026767033486 0.0026474558235 0.002618658668 
0.0025903070962 0.002562390971 0.0025349081146 0.0025078490938 0.0044460153841 0.0043888969491 0.0043326875643 0.0042773830417 0.0042229722095 
0.0041694266124 0.0041167337604 0.0040648863034 0.0040138650209 0.0039636620518 0.0039142579033 0.0038656485173 0.0038178153267 0.0037707487945 
0.0037244395516 0.0036788631132 0.0036340198181 0.0035898821934 0.0035470065907 0.0035042496176 0.0034621706196 0.0034207524062 0.0033799840184 
0.0033398582462 0.0033003617559 0.0032614837446 0.0032232180707 0.0031855516011 0.0031484550767 0.0031119578447 0.0030760322976 0.0030406695736 
0.0030058571839 0.0029715887917 0.0029378542945 0.0029046488936 0.0028719554599 0.0028397703883 0.0028081849202 0.0027769882291 0.0027462719127 
0.0027160323262 0.0026862515828 0.0026569284761 0.0026280509346 0.0025996135834 0.0025716096851 0.0025440344396 0.00251688418 0.0024901504841 
0.0043992010337 0.0043431085663 0.0042879083549 0.0042335911872 0.0041801426794 0.0041275336425 0.0040757592866 0.0040248060996 0.0039746552629 
0.0039252993905 0.0038767262815 0.0038289247544 0.0037818818058 0.0037355836259 0.0036900195525 0.0036451781536 0.0036010414838 0.003558171869 
0.0035154102922 0.0034733211504 0.0034318950509 0.0033911185918 0.0033509770247 0.0033114614137 0.0032725603315 0.00323426433 0.0031965714499 
0.0031594437838 0.0031229042002 0.003086934073 0.0030515228302 0.0030166602814 0.0029823363717 0.0029485428689 0.0029152715906 0.0028825151275 
0.0028502590408 0.0028186015769 0.0027873302704 0.0027565413879 0.0027262230318 0.0026963661586 0.0026669619465 0.0026380022555 0.0026094829546 
0.0025813942887 0.0025537308316 0.0025264879301 0.0024996548545 0.0024732378246 0.0043542195828 0.004299126171 0.0042449019392 0.0041915339666 
0.0041390109603 0.0040873131038 0.0040364219789 0.0039863300152 0.0039370206054 0.003888484422 0.0038407128043 0.0037936880432 0.0037474016619 
0.0037018455972 0.0036570034015 0.0036128597114 0.0035694142911 0.0035272114222 0.0034851099691 0.0034436651216 0.0034028692339 0.0033627063679 
0.0033231664262 0.0032842408552 0.0032459134684 0.0032081845298 0.0031710181166 0.0031344387383 0.0030984210622 0.0030629577611 0.0030280413175 
0.0029936576827 0.0029598059608 0.0029264722994 0.0028936471579 0.0028613224112 0.0028294908813 0.002798245691 0.0027673779708 0.0027369820053 
0.0027070454893 0.0026775620769 0.0026485208468 0.0026199160822 0.0025917451458 0.002563994051 0.0025366592197 0.0025097362133 0.0024832220622 
0.0024571104161 0.004311062879 0.0042569285927 0.0042036453775 0.0041511944641 0.0040995658912 0.0040487399702 0.0039987013303 0.0039494415063 
0.0039009432809 0.0038531959883 0.0038061898403 0.0037599134148 0.0037143612876 0.0036695172512 0.0036253665999 0.0035819013195 0.0035396838061 
0.0034975567728 0.0034560875297 0.0034152642985 0.0033750725028 0.0033355040265 0.0032965447898 0.0032581858502 0.0032204187666 0.0031832225317 
0.0031465810671 0.0031105145004 0.0030749955524 0.0030400223375 0.0030055764654 0.0029716590101 0.0029382591612 0.0029053630327 0.0028729679298 
0.0028410615907 0.0028097404349 0.0027787979012 0.0027483214957 0.002718300789 0.0026887334523 0.0026596125957 0.0026309236672 0.0026026633428 
0.0025748242191 0.0025474009062 0.0025203852261 0.0024937786449 0.0024675702953 0.0024417558684 0.0042697065939 0.0042165005155 0.0041641240426 
0.0041125551721 0.0040617887823 0.0040118024463 0.0039625844125 0.0039141248335 0.0038664021355 0.0038194149988 0.0037731501652 0.0037275941298 
0.0036827377224 0.0036385797259 0.0035950925281 0.0035522827302 0.0035106945275 0.0034691922198 0.0034283312007 0.0033881072806 0.003348499589 
0.0033095024834 0.0032711010305 0.0032332867779 0.003196050747 0.0031593587147 0.0031232379912 0.0030876618533 0.0030526238905 0.0030181138472 
0.0029841277794 0.0029506540972 0.0029176857085 0.0028852158845 0.0028532353668 0.002821828605 0.0027908053826 0.0027602465641 0.0027301460181 
0.0027004952185 0.0026712853583 0.0026425098666 0.0026141622931 0.0025862346365 0.0025587194142 0.0025316106898 0.0025049079214 0.0024786032848 
0.0024526913618 0.0024271648172 0.0042301418732 0.0041778273664 0.004126323974 0.0040756059583 0.0040256680572 0.0039764866039 0.0039280566632 
0.0038803614245 0.0038333906299 0.0037871302994 0.0037415724917 0.0036967102121 0.0036525237603 0.003609016629 0.0035661743019 0.0035245524258 
0.0034830070401 0.0034421057337 0.0034018315674 0.0033621816483 0.0033231368111 0.0032846874071 0.0032468231355 0.0032095373166 0.003172793845 
0.0031366165081 0.0031009787806 0.0030658729028 0.003031293794 0.0029972339112 0.0029636831108 0.0029306362408 0.0028980857113 0.002866021584 
0.0028345332075 0.0028034199087 0.0027727749385 0.0027425884048 0.0027128502833 0.0026835525455 0.0026546910383 0.0026262499795 0.002598229878 
0.0025706219538 0.0025434228003 0.0025166182095 0.0024902164796 0.0024642051936 0.0024385758191 0.0024133302723 0.0041923443783 0.0041408894473 
0.0040902257738 0.0040403252708 0.0039911825213 0.0039427787954 0.0038951039669 0.0038481399544 0.0038018812983 0.0037563209313 0.0037114447594 
0.0036672405752 0.003623701747 0.003580820806 0.0035391596967 0.0034975667103 0.0034566089667 0.0034162792209 0.0033765731385 0.0033374725074 
0.0032989692197 0.0032610493452 0.0032237043331 0.0031869179289 0.0031506644562 0.0031149645558 0.0030797920088 0.0030451394403 0.003010997687 
0.0029773674197 0.002944234762 0.0029115949691 0.0028794427823 0.0028478655098 0.0028166628602 0.002785923261 0.0027556429012 0.0027258134525 
0.0026964261468 0.0026674682314 0.0026389395074 0.0026108241998 0.0025831197895 0.0025558209104 0.0025289199562 0.0025024137847 0.0024762979887 
0.0024505685272 0.0024252175315 0.0024002448298 0.0041562823891 0.0041056614605 0.0040557984166 0.0040066863999 0.0039583045459 0.0039106388 
0.0038636860193 0.0038174273175 0.0037718598267 0.003726965236 0.0036827359466 0.003639165007 0.003596243217 0.0035539630245 0.0035128838976 
0.0034718680318 0.0034314755088 0.0033916986204 0.0033525328271 0.0033139622296 0.0032759802859 0.0032385712934 0.003201717364 0.0031653978528 
0.003129627849 0.0030943881085 0.003059662438 0.0030254375497 0.0029917209754 0.0029584980782 0.0029257640723 0.0028935137631 0.0028618388679 
0.0028305385375 0.0027997000732 0.0027693220994 0.0027393929449 0.002709909434 0.002680857386 0.002652228579 0.0026240185523 0.0025962156378 
0.0025688159754 0.0025418116574 0.0025152030959 0.0024889826219 0.0024631442862 0.002437686036 0.0024126043633 0.0023878927218 0.0041219222182 
0.0040720971031 0.0040230057453 0.003974641309 0.0039269900533 0.0038800340035 0.0038337716268 0.0037881917076 0.0037432750313 0.0036990176545 
0.0036554091594 0.003612444786 0.0035701135007 0.0035289728083 0.0034878852118 0.0034474214348 0.0034075708266 0.003368326101 0.0033296773699 
0.0032916177793 0.0032541311153 0.0032172113896 0.0031808181405 0.0031449766618 0.0031096603196 0.0030748552149 0.0030405519872 0.0030067465479 
0.0029734309105 0.0029405986831 0.0029082466595 0.0028763687709 0.0028450579074 0.0028141160303 0.0027836290906 0.0027535952674 0.0027240058829 
0.0026948502188 0.0026661215671 0.002637810117 0.0026099047331 0.0025824035243 0.0025552957152 0.0025285809885 0.0025022514714 0.0024762977793 
0.0024507269281 0.0024255306128 0.002400707238 0.002376247976 0.004089176532 0.0040401161412 0.0039917666148 0.0039441253018 0.0038971738864 
0.0038508965928 0.0038052994796 0.0037603566446 0.0037160675822 0.0036724202478 0.0036294068514 0.0035870232158 0.003545253435 0.0035046608996 
0.0034641135503 0.0034241768727 0.0033848434449 0.0033461065655 0.0033079546549 0.0032703834834 0.0032333772974 0.0031969197175 0.0031609869556 
0.0031255900747 0.0030907058308 0.0030563190628 0.0030224243129 0.0029890180243 0.0029560847574 0.0029236243344 0.0028916369454 0.0028602101979 
0.0028291529997 0.0027985535907 0.0027684069674 0.0027387029914 0.0027094361292 0.0026805993676 0.0026521820412 0.0026241694906 0.0025965630089 
0.0025693488898 0.0025425256835 0.0025160845362 0.0024900214658 0.0024643335274 0.0024390211176 0.0024140788479 0.0023895022367 0.002365286674 
0.0040579381882 0.0040096136182 0.0039619780187 0.0039150297256 0.0038687450858 0.0038231288427 0.0037781608448 0.0037338353305 0.0036901449442 
0.0036470801687 0.0036046363134 0.0035628107227 0.0035221416066 0.0034815108422 0.0034414792731 0.0034020491398 0.0033632097762 0.0033249620208 
0.0032872883009 0.0032501845514 0.0032136357111 0.0031776117455 0.0031421307783 0.0031071629728 0.0030726901279 0.0030387101733 0.0030052064405 
0.002972177617 0.0029396130757 0.0029075119862 0.0028759610489 0.0028447809998 0.0028140602575 0.0027837915197 0.0027539683928 0.0027245807726 
0.0026956282474 0.0026670980387 0.0026389790253 0.0026112632678 0.0025839404312 0.0025570066733 0.0025304543227 0.0025042770574 0.0024784728033 
0.002453038148 0.0024279725065 0.002403272073 0.0023789345758 0.0023549561993 0.0040280490504 0.0039804359832 0.0039334867018 0.0038872102766 