# vtk DataFile Version 5.1
vtk output
ASCII
DATASET STRUCTURED_POINTS
DIMENSIONS 50 50 50
SPACING 0.002 0.002 0.002
ORIGIN 0.1742 -0.052672 0.02732
POINT_DATA 125000
FIELD FieldData 1
potential 1 125000 double
0.0075850843766 0.0077150538366 0.007848188835 0.0079841414542 0.0081232961762 0.0082655661953 0.0084111340798 0.0085600958361 0.0087125474446 
0.0088685829449 0.0090283029732 0.0091918288077 0.0093593362613 0.009530792137 0.0097064401228 0.0098863091286 0.010070538824 0.010259398532 
0.010452651636 0.010650520086 0.010853294101 0.011060991858 0.011273189568 0.011490984748 0.011714125563 0.011942702373 0.012176904167 
0.012416890238 0.012662854459 0.012914989118 0.013173452643 0.013438436502 0.013710075196 0.013988427788 0.014273868905 0.014566254512 
0.014865736914 0.015172401193 0.015486328137 0.015807741271 0.016136432095 0.016472669125 0.016816573243 0.017168274436 0.017527925156 
0.017895652441 0.018271632212 0.018655944195 0.019048685957 0.019450138441 0.0075239522259 0.007651838047 0.0077825886023 0.007916278481 
0.0080533174231 0.0081931653024 0.0083362000053 0.0084825220765 0.0086322328323 0.0087853928782 0.0089421336074 0.0091025349837 0.0092667126005 
0.0094348581241 0.0096069136502 0.0097831323306 0.0099635001084 0.01014817187 0.010337284787 0.010531001306 0.010729073265 0.010931974846 
0.011139718213 0.011351902325 0.011569638168 0.011792673082 0.012021110273 0.012255061711 0.012494756988 0.012740381714 0.012992058841 
0.01324997854 0.013514239105 0.013784997611 0.01406226474 0.014346338092 0.014637083528 0.014934625563 0.015239026783 0.015550515871 
0.015868869169 0.016194290017 0.016526968946 0.016866980241 0.017214470605 0.017569551097 0.017932399442 0.018303068202 0.01868167207 
0.0190683367 0.0074602225759 0.0075860219061 0.0077145986154 0.0078460427913 0.0079804251373 0.0081179407375 0.0082586720802 0.0084023623133 
0.0085493260545 0.0086996533036 0.0088534116309 0.0090107225946 0.0091716624958 0.009336347588 0.0095049720374 0.0096774375688 0.0098539985324 
0.01003466668 0.010219579712 0.010408848574 0.010602588652 0.010800696678 0.011003492959 0.011210976869 0.011423085478 0.011640559424 
0.011863294634 0.012091351901 0.012324930858 0.012564163838 0.012809176253 0.013060171597 0.013317219391 0.01358047002 0.013849896934 
0.014125739189 0.014408017501 0.014696673165 0.014991811695 0.015293652577 0.015601969145 0.01591698492 0.016238803755 0.01656747582 
0.016903225609 0.017246148441 0.017596347661 0.017953933725 0.018318961818 0.018691546225 0.007393191423 0.0075168890908 0.0076432938177 
0.0077724702297 0.0079045083222 0.008039578361 0.0081775677713 0.0083186334873 0.0084630558772 0.0086105240928 0.0087612947584 0.0089154994835 
0.0090732039576 0.0092345152297 0.0093996020517 0.0095684140694 0.0097410821473 0.0099177949249 0.010098531625 0.010283434994 0.010472634892 
0.010666229908 0.010863923687 0.011066447479 0.011273663187 0.01148538573 0.01170241866 0.011924649776 0.012152146108 0.012385072344 
0.012623579138 0.012867766824 0.013117762164 0.013373615133 0.013635455331 0.013903198309 0.014177136187 0.014457119976 0.014743221632 
0.015035520071 0.015334199027 0.015639060854 0.015950335954 0.016268120691 0.016592528408 0.016923608193 0.017261598454 0.01760654858 
0.0179585331 0.018317612626 0.0073223340196 0.0074438908496 0.0075680964871 0.0076949956366 0.0078246603076 0.0079571612363 0.0080927025368 
0.0082311033797 0.0083725754543 0.0085171684048 0.0086651396673 0.0088162145188 0.0089706652623 0.0091285819188 0.0092900470401 0.0094552461586 
0.0096240893321 0.0097967436907 0.0099733405127 0.010153901034 0.010338573382 0.01052746221 0.01072059069 0.010917926891 0.011119734656 
0.011326156211 0.01153763633 0.011754054624 0.011975565287 0.012202272184 0.012434316026 0.012671780624 0.012914790425 0.013163395125 
0.013417683889 0.013677664134 0.013943284759 0.014214804072 0.014492064977 0.014775174553 0.015064319554 0.015359279244 0.01566028134 
0.015967419875 0.016280800287 0.016600549061 0.016926739412 0.017259393781 0.017598744408 0.017944786038 0.0072473068573 0.0073666944728 
0.007488647566 0.0076132315604 0.0077405024315 0.007870511036 0.0080034495136 0.0081391761472 0.0082778449197 0.0084195387181 0.0085643031803 
0.0087122368231 0.0088635945387 0.0090180936046 0.009175990452 0.0093373909515 0.0095024595934 0.009671080211 0.0098434624137 0.010019711479 
0.010199856092 0.010384004174 0.010572351176 0.010764863193 0.010961428592 0.011162609586 0.011368186599 0.011578996591 0.011794537052 
0.012015080059 0.012240715385 0.012471552729 0.012707666071 0.012949120945 0.013195942372 0.013448174993 0.013705757455 0.013968888748 
0.014237508086 0.014511607163 0.014791286987 0.015076713505 0.015367686683 0.015664452938 0.01596710379 0.016275751986 0.016590472348 
0.016911354401 0.017238479865 0.017571780278 0.0071681869167 0.0072853660904 0.0074048219591 0.007527045925 0.0076518657915 0.007779354386 
0.0079096695817 0.0080426613035 0.0081785105988 0.0083172580279 0.0084589658424 0.0086037281874 0.0087515941101 0.0089026556801 0.009057154073 
0.0092148044168 0.0093758804602 0.0095405798876 0.0097087509323 0.0098806132509 0.010056269187 0.010235759434 0.010419271458 0.01060677683 
0.01079847409 0.010994186389 0.011194418325 0.011399026992 0.011608699406 0.011823123867 0.012042520564 0.012266794724 0.012496080227 
0.012730454465 0.012969925935 0.013214533324 0.013464278885 0.013719093369 0.013979153289 0.014244452212 0.014514960745 0.01479090532 
0.015072074434 0.015358697114 0.015650884394 0.015948715631 0.016252267317 0.016561624822 0.016876884591 0.01719802882 0.0070845619438 
0.0071995691243 0.007316909295 0.007436514514 0.007558857377 0.0076837645839 0.0078113079254 0.0079416566503 0.0080746378091 0.0082104050289 
0.0083490386938 0.008490572529 0.0086351023024 0.0087826974833 0.0089334104846 0.0090873134552 0.0092446567607 0.0094053088853 0.0095692898851 
0.0097368030744 0.0099079015598 0.01008275885 0.01026137791 0.010443952374 0.010630501951 0.010821082064 0.011015813205 0.011214789463 
0.011418369444 0.011626733701 0.011839755326 0.012057505496 0.012280128805 0.012507496819 0.012739728297 0.01297679573 0.013218731806 
0.013465538613 0.013717131813 0.013973718347 0.014235267891 0.014501910513 0.014773471546 0.015050175004 0.015332104938 0.015619371435 
0.01591204369 0.016210185231 0.01651388985 0.016823155762 0.0069971228562 0.0071097579431 0.0072248119801 0.007342177825 0.0074617804167 
0.0075840881963 0.0077089306719 0.0078364714762 0.0079665455446 0.0080993105749 0.008234823747 0.0083731156195 0.0085142847797 0.00865838013 
0.008805471356 0.0089556204654 0.0091088887055 0.0092653827045 0.0094254394676 0.0095885934138 0.0097552137291 0.0099253842334 0.010099245334 
0.010276795423 0.010458269653 0.010643653311 0.010833023801 0.011026466278 0.011223801121 0.011426234579 0.01163305454 0.011844351687 
0.012060210279 0.012280664243 0.012505796991 0.012735434878 0.012969678975 0.013208518669 0.013451966333 0.013699929514 0.013952641258 
0.014210063938 0.014472362676 0.014739368389 0.015011295739 0.015288240588 0.015570299254 0.015857514541 0.01614995402 0.016447614759 
0.0069063006203 0.007016599123 0.0071291640552 0.0072441280302 0.0073613781424 0.0074810418136 0.0076029455371 0.0077275419915 0.0078547834886 
0.0079845095917 0.0081168826069 0.0082519203817 0.0083897087965 0.0085303025337 0.0086737578373 0.0088201418468 0.0089695254603 0.009121978923 
0.0092775876385 0.0094365351006 0.0095986917425 0.0097643974953 0.0099334579066 0.010106087772 0.010282525441 0.010462671524 0.010646720044 
0.010834678342 0.01102661269 0.011222422853 0.011423133463 0.01162804393 0.011837282512 0.012050916626 0.012268884617 0.01249120847 
0.012717866737 0.012948961663 0.0131843062 0.013423911664 0.013667983714 0.013916476838 0.014169593763 0.014427116907 0.014689291492 
0.014956181601 0.015227889265 0.015504448516 0.015785946229 0.016072358977 0.006812741115 0.0069206761272 0.0070308134783 0.0071431864703 
0.0072579317292 0.0073749094719 0.0074942521472 0.0076157906503 0.0077400846212 0.0078667540045 0.0079959585998 0.0081277275781 0.0082621367804 
0.0083992385238 0.0085390773141 0.0086817103447 0.008827224535 0.0089756754635 0.0091271323395 0.0092817147802 0.0094395432986 0.0096005308857 
0.0097648777694 0.0099327997035 0.010104118506 0.010279163513 0.01045785554 0.010640303189 0.010826753118 0.011016978107 0.011210952206 
0.011409581995 0.011612399325 0.011819245309 0.01203023425 0.012245367393 0.012464603589 0.012687905545 0.01291530951 0.013146864368 
0.013382412679 0.01362219959 0.01386622326 0.014114645754 0.014367288845 0.014624400372 0.014886039039 0.015152249605 0.015423093428 
0.015698603562 0.0067172192198 0.0068227735201 0.0069304562635 0.0070402979499 0.0071523565152 0.007266722781 0.007383281692 0.0075021650099 
0.0076233824639 0.0077468919561 0.0078729325737 0.0080014480084 0.0081324824799 0.0082661019231 0.008402345389 0.0085412691097 0.0086829441868 
0.0088274371172 0.0089748184282 0.0091251514557 0.0092785431996 0.0094351242201 0.0095948297813 0.0097578229453 0.0099241996585 0.010094104226 
0.010267708555 0.010444798784 0.010625534855 0.010810172568 0.010998484207 0.011190598661 0.011386650404 0.01158699422 0.011791090671 
0.011999117952 0.012211021835 0.012426822641 0.012646452708 0.012869951506 0.013097320232 0.01332854588 0.013563882349 0.013803317144 
0.014046721619 0.014294302186 0.014546164524 0.014802336282 0.01506285947 0.015327732326 0.0066205188215 0.0067236907083 0.0068289136578 
0.0069362268687 0.0070456591585 0.0071572616507 0.0072711232156 0.0073871244124 0.0075053861355 0.007626046334 0.0077487416745 0.0078740176686 
0.0080017078395 0.0081318802622 0.0082645641128 0.0083998225614 0.0085377200623 0.008678308533 0.0088216700164 0.0089678616254 0.0091169546008 
0.0092691375553 0.0094242929495 0.0095825959002 0.0097441120646 0.0099089661775 0.010077265448 0.010249023069 0.010424418176 0.010603339873 
0.010785942644 0.010972052821 0.011161790337 0.011355262206 0.011552657983 0.011753877087 0.01195860388 0.012167002645 0.012379087507 
0.012594780137 0.012814115133 0.013037070569 0.013263888204 0.013494480482 0.013729111003 0.013967500367 0.014209862755 0.014456320092 
0.014706844891 0.014961456161 0.0065234440568 0.0066242407953 0.0067270102597 0.0068317954136 0.0069386283537 0.0070475404836 0.0071585579328 
0.0072717872681 0.0073871043557 0.0075046279416 0.0076245114906 0.00774658005 0.0078707710195 0.0079975450722 0.008126726875 0.0082583872171 
0.0083925717556 0.0085293377444 0.0086687484226 0.0088108916353 0.0089557987827 0.0091035617186 0.0092543670432 0.0094080744888 0.0095648686206 
0.0097248226237 0.0098880282713 0.010054585137 0.010224503842 0.010397788401 0.010574663105 0.010755182004 0.010938799434 0.011125865752 
0.011316447598 0.0115107642 0.011708674132 0.011909900884 0.012114566028 0.012322642764 0.012534239588 0.012749290844 0.012967774728 
0.013189955877 0.013415859277 0.013645355387 0.013878612147 0.014115678695 0.014356567586 0.014601281661 0.0064267377605 0.0065251712438 
0.0066255095916 0.0067277930513 0.0068320434345 0.0069382881791 0.0070465668728 0.007156902738 0.0072693941157 0.0073839207302 0.0075007351114 
0.0076196326056 0.0077407807003 0.007864021337 0.0079897726775 0.008117908126 0.0082484631492 0.0083814946991 0.0085170614019 0.0086552334917 
0.0087960532988 0.0089396399659 0.0090859838627 0.0092353246078 0.0093874943363 0.009542691464 0.0097009663207 0.0098624138382 0.010027095354 
0.010195034466 0.010366139459 0.010540703773 0.010718608817 0.010899576256 0.01108382574 0.011271546185 0.011462300331 0.011656564161 
0.011854201092 0.012054955822 0.012258955354 0.012466239901 0.01267695228 0.01289088502 0.013108317845 0.013329377702 0.013553822802 
0.013781825506 0.014013431536 0.014248567217 0.0063310554774 0.0064271579971 0.006525095339 0.0066249058396 0.0067266077388 0.0068302323924 
0.0069358095191 0.0070433651797 0.0071529297934 0.0072646027814 0.0073782744577 0.007494186824 0.0076121621345 0.0077323243117 0.0078547275182 
0.0079792276421 0.0081062446911 0.0082356362829 0.0083674642121 0.0085017751711 0.0086386348774 0.008778118191 0.0089202715081 0.0090651405283 
0.0092129275102 0.009363501823 0.0095169968082 0.0096734842595 0.0098330426891 0.0099956642317 0.010161430428 0.010330208124 0.01050228844 
0.010677476239 0.01085523676 0.011036581339 0.011221028174 0.011408382023 0.011598959402 0.011792619605 0.011989491633 0.012189323472 
0.012392313997 0.012598474754 0.012807788997 0.013020644581 0.013236648183 0.013455967717 0.013678652203 0.01390464909 0.0062369684171 
0.0063307794315 0.0064263351591 0.0065237167659 0.0066229177162 0.0067239678728 0.0068268962088 0.006931728797 0.0070384977754 0.0071472382052 
0.0072580366908 0.0073709287452 0.0074857816844 0.0076027619003 0.0077219025974 0.0078432319841 0.0079668071828 0.008092478717 0.0082206702489 
0.0083512448947 0.0084842554993 0.008619756833 0.0087578318 0.008898509431 0.0090418365195 0.0091880077181 0.0093368600045 0.0094885456401 
0.0096431272892 0.0098006379355 0.0099610934071 0.010124395507 0.010290759538 0.010460139536 0.010632460832 0.010807134716 0.010985241054 
0.011166268372 0.011349938859 0.011536771221 0.011726598287 0.011919385463 0.012115016235 0.012313652967 0.012515331211 0.012720013256 
0.012927955502 0.013139033567 0.013353159004 0.01357035725 0.0061448608319 0.0062364272495 0.0063297004386 0.0064247125604 0.0065214674616 
0.0066199810168 0.0067203239319 0.0068224998646 0.006926537306 0.0070324771551 0.0071403450413 0.0072502354827 0.0073621979782 0.0074760708087 
0.0075920312478 0.0077101091699 0.0078303483051 0.0079527771923 0.0080772602142 0.00820421213 0.0083334937683 0.0084651553402 0.0085992652692 
0.0087358501979 0.0088749714779 0.0090166956817 0.009161151431 0.0093082023637 0.0094579684668 0.0096105011203 0.0097658204481 0.0099239548707 
0.010084765887 0.010248464147 0.010415004213 0.010584314922 0.010755755313 0.010930553995 0.011108063794 0.011288327558 0.011471102548 
0.011656905638 0.011845487794 0.012037038345 0.012231387972 0.012428456484 0.012628525364 0.012831613354 0.013037522036 0.01324632989 
0.0060550812493 0.006144462354 0.0062354731315 0.0063281660193 0.0064225449743 0.0065186322877 0.0066164613269 0.0067160369188 0.0068174229459 
0.006920641483 0.0070257200944 0.0071326948248 0.0072417834427 0.007352682647 0.0074655617152 0.0075804705534 0.007697470454 0.0078165787992 
0.007937822398 0.0080612614512 0.00818676408 0.0083147040315 0.008444986479 0.0085776228607 0.0087126712466 0.008850173541 0.0089901932464 
0.0091328520577 0.0092779858649 0.0094257315328 0.0095760926506 0.0097290885147 0.0098847579702 0.010042961565 0.010203936729 0.010367474621 
0.010533682883 0.010701863147 0.010873221996 0.011047189407 0.011223791712 0.011402736716 0.011584568533 0.011769088075 0.011956297727 
0.01214632739 0.012338872097 0.012534345896 0.012732412378 0.012933163169 0.0059677890931 0.0060550477397 0.0061438993119 0.0062343473896 
0.0063264153486 0.0064201485906 0.0065155318801 0.0066126216511 0.0067114241552 0.0068119946941 0.0069143807612 0.0070185943608 0.0071246728998 
0.0072328291683 0.0073427256367 0.0074545912297 0.0075684476283 0.0076843353679 0.0078022833595 0.0079223218452 0.0080445038159 0.0081688473984 
0.0082952419707 0.0084240732642 0.008555186731 0.0086886349329 0.0088244369813 0.0089626569318 0.0091034333425 0.0092465602667 0.0093921628 
0.0095402548695 0.0096908613116 0.0098439364281 0.0099994205507 0.010157530277 0.010318111169 0.01048108662 0.010645987918 0.010813909397 
0.010984336883 0.011157228261 0.011332381796 0.011510257245 0.011690682913 0.011873642846 0.012059131892 0.012247102829 0.012437912986 
0.012630981723 0.0058831919332 0.0059683927 0.0060551182666 0.0061433944912 0.0062332294271 0.006324646529 0.0064176739412 0.0065123401944 
0.0066086764545 0.006706735122 0.0068065074423 0.0069080313399 0.0070113683068 0.0071166600655 0.0072236932353 0.0073326325922 0.0074434543767 
0.0075562290208 0.0076709670498 0.007787725544 0.0079065306283 0.0080273917293 0.0081503758361 0.0082753535163 0.0084026602155 0.0085321945194 
0.0086639458153 0.0087979861032 0.008934339685 0.0090730353365 0.0092141657999 0.0093575496423 0.0095032579348 0.0096513686327 0.0098018124696 
0.0099545824802 0.010109719617 0.01026723346 0.010427058869 0.010588968756 0.010753136714 0.010920011364 0.011089228962 0.011260780047 
0.011434463983 0.011610799545 0.011789501093 0.011970572656 0.01215393906 0.012339773795 0.0058013956532 0.0058845373666 0.0059692198558 
0.0060553794354 0.0061430521475 0.0062322568378 0.0063230016535 0.0064153317786 0.0065092707282 0.0066048531535 0.0067021071051 0.0068010608015 
0.0069017478073 0.0070042001773 0.0071085425943 0.0072146088893 0.0073225452562 0.0074323081117 0.0075439647773 0.0076575496271 0.0077730769048 
0.0078905848743 0.0080101000168 0.0081316818554 0.0082553186275 0.0083809067644 0.0085087591614 0.0086387888433 0.0087709821228 0.0089053945512 
0.0090420264303 0.0091809746521 0.009322077419 0.0094653566739 0.009610911786 0.0097585837187 0.0099086278976 0.010060823388 0.010215291245 
0.010371930273 0.010530543538 0.01069127666 0.010854578962 0.011020133712 0.011187872434 0.011357597345 0.011529811084 0.011704236615 
0.011880841831 0.012059642249 0.0057222819525 0.0058034961912 0.0058862029509 0.0059703273335 0.0060559097242 0.006142960566 0.0062315205455 
0.0063215967349 0.0064132216086 0.0065064301817 0.0066012478274 0.0066977088507 0.0067958374794 0.0068956614635 0.0069973232879 0.0071006091179 
0.0072056584452 0.0073125410744 0.0074212173192 0.0075317200986 0.0076440994088 0.0077583644689 0.0078745621791 0.0079926886921 0.0081127972325 
0.0082348982354 0.008359008683 0.008485009222 0.0086132335238 0.0087435394782 0.0088759491535 0.00901045842 0.0091471886829 0.0092859060119 
0.0094267295257 0.0095696911742 0.0097146656943 0.0098618756652 0.010011122848 0.010162541844 0.010315989567 0.010471322439 0.010628627338 
0.010788372973 0.01095019335 0.011114171213 0.011280176996 0.011447997228 0.011618116856 0.011790171063 0.0056458991779 0.0057252551222 
0.0058060505248 0.005888212282 0.0059717766217 0.0060567626967 0.0061431924377 0.0062310910614 0.0063204935376 0.0064114148885 0.0065038839081 
0.0065979365197 0.0066935945865 0.0067908810676 0.0068898306198 0.006990553995 0.0070928756455 0.0071969164082 0.0073026953233 0.0074102586738 
0.0075195898845 0.0076307213424 0.0077436800151 0.0078584980807 0.0079752047286 0.0080937697423 0.0082142767446 0.0083367079049 0.0084611108296 
0.0085873411608 0.0087156896661 0.0088460651186 0.008978415052 0.0091128527269 0.0092491972013 0.0093875177653 0.0095278842004 0.0096701380271 
0.0098145275373 0.0099608854337 0.010109179815 0.010259456001 0.010411502256 0.010565373748 0.010721572739 0.010879698965 0.011039796906 
0.011201855997 0.011365534252 0.011531348706 0.0055722150092 0.0056498475001 0.0057287214309 0.0058089920779 0.0058906168172 0.0059736005886 
0.006057984093 0.0061437847383 0.0062310255022 0.0063197464824 0.0064099535527 0.0065016767147 0.0065949503914 0.0066897898247 0.00678622145 
0.006884368658 0.0069840479249 0.0070853695737 0.0071883654491 0.007293034406 0.0073994515305 0.0075075563681 0.0076174106413 0.0077290311835 
0.0078424369325 0.0079576630056 0.0080747033138 0.0081935450557 0.0083142670194 0.0084368625756 0.0085613394685 0.008687555589 0.0088158204763 
0.008945976047 0.0090781274861 0.0092120568418 0.0093479119871 0.0094855993264 0.00962520059 0.009766685191 0.0099101256726 0.010055362811 
0.010202474436 0.010351231591 0.010501665955 0.010654283062 0.010808746005 0.010964996436 0.011123042981 0.011282856042 0.0055011856828 
0.0055770858416 0.0056541778844 0.0057326171211 0.0058123636014 0.0058934214158 0.0059758265597 0.0060596031568 0.0061447660425 0.0062313461807 
0.0063193644657 0.006408853066 0.0064998226204 0.0065922975484 0.0066863090402 0.0067818616097 0.0068790896565 0.0069777937776 0.0070780907953 
0.0071800066539 0.0072835503205 0.0073887711257 0.0074956306567 0.0076041792654 0.007714422259 0.0078264026075 0.0079400984913 0.00805554072 
0.0081727329784 0.0082916854563 0.0084124453082 0.0085349940214 0.0086593471263 0.0087853620934 0.0089133148706 0.009043060983 0.0091746372883 
0.0093080051139 0.0094430889343 0.0095799419239 0.0097185895155 0.0098590765514 0.010001245263 0.010145191986 0.010290655495 0.010437656853 
0.010586721078 0.010737473053 0.010889897731 0.011043936814 0.0054327418152 0.0055069685059 0.005582338422 0.0056590091419 0.0057369468897 
0.0058161599327 0.0058966566942 0.0059784757975 0.0060616365873 0.0061461602231 0.0062320670813 0.0063193853029 0.0064081299613 0.00649833509 
0.0065900067582 0.0066831547194 0.0067779213245 0.0068740946536 0.0069717934261 0.0070710519645 0.0071718641412 0.007274259577 0.0073782300228 
0.0074838344211 0.0075910409928 0.007699879116 0.0078103899096 0.0079225339343 0.0080363418062 0.0081518401321 0.00826904261 0.0083879289331 
0.0085085280501 0.0086308387953 0.0087548555178 0.0088804680253 0.0090078787262 0.0091370373451 0.0092678823058 0.0094003430731 0.0095344741683 
0.0096702970811 0.0098078294562 0.0099469405224 0.010087690187 0.010229863479 0.010373810905 0.010518928173 0.010666000192 0.010814589045 
0.0053668524448 0.0054394582334 0.00551323289 0.0055881362004 0.0056643257645 0.0057417358833 0.0058204056009 0.0059003343252 0.005981557596 
0.0060640943076 0.0061479637455 0.0062331904889 0.0063197953551 0.0064077895598 0.0064972006053 0.006588033518 0.0066803102941 0.0067741621989 
0.0068693591703 0.0069660553862 0.0070642283592 0.0071639255195 0.0072651303224 0.0073678653913 0.0074721497019 0.0075779955203 0.0076854234882 
0.0077944148158 0.0079049901299 0.00801716172 0.0081309439535 0.008246350493 0.0083633813822 0.0084820022087 0.0086022642151 0.008724159689 
0.0088476376425 0.008972587013 0.0090992626172 0.009227672876 0.0093575346121 0.0094889652447 0.009621905121 0.0097564893656 0.0098925413689 
0.010030101342 0.010168986176 0.010309510294 0.01045105195 0.010594440139 0.0053034632914 0.0053745135501 0.0054466837147 0.0055199346563 
0.0055944334293 0.0056701208439 0.0057470101302 0.0058251167452 0.0059044684464 0.0059850876715 0.0060669964527 0.0061502044382 0.0062347339376 
0.0063206099409 0.0064078347174 0.0064964363641 0.0065864168909 0.0066778006279 0.0067707163857 0.0068649330662 0.0069605766064 0.0070576696056 
0.0071562079063 0.0072562158187 0.0073576842835 0.0074606505083 0.0075651072032 0.0076710851439 0.0077785527779 0.0078875370717 0.0079980507317 
0.0081101091182 0.0082237136051 0.0083388522772 0.0084555215395 0.0085737411197 0.0086934584581 0.0088147112598 0.0089374283933 0.0090615908128 
0.0091874639887 0.009314734059 0.0094433887249 0.0095734950135 0.0097051566848 0.0098381359463 0.0099725257392 0.010108120483 0.010245212009 
0.010383231359 0.0052425550508 0.0053120816574 0.0053827109079 0.005454369209 0.0055272300321 0.0056012440358 0.0056764172163 0.0057527721692 
0.00583032248 0.0059090811561 0.0059890850807 0.0060703489052 0.0061528836597 0.0062367059744 0.0063218416628 0.0064082902197 0.0064960626964 
0.0065851837141 0.0066757671547 0.0067676107413 0.0068608205535 0.006955414754 0.0070513946434 0.0071487740275 0.0072475602469 0.0073477571738 
0.0074493704303 0.007552446615 0.0076569296386 0.0077628734867 0.0078702586042 0.0079791062943 0.0080894326764 0.0082012115434 0.0083144551617 
0.0084291577763 0.008545300007 0.0086628977515 0.00878191431 0.0089022879789 0.0090241175506 0.0091472784211 0.0092720023252 0.0093979226674 
0.0095251986906 0.0096539007331 0.0097838389123 0.0099150604176 0.010047382757 0.010181084947 0.0051840778624 0.0052521501501 0.0053212710015 
0.0053914634434 0.0054626796005 0.0055350685974 0.0056085887313 0.0056832444767 0.0057590530795 0.0058360300596 0.0059142002395 0.0059935763947 
0.0060741812501 0.0061560311431 0.0062391319048 0.0063235169093 0.0064091666568 0.0064961089515 0.0065843457006 0.0066740223227 0.0067648941458 
0.0068570859853 0.0069506054623 0.0070454596368 0.0071416611643 0.0072392093197 0.0073381145046 0.007438374771 0.0075400310013 0.0076430493541 
0.007747431414 0.0078532258927 0.0079604007604 0.0080689775375 0.0081789450633 0.0082902983775 0.0084030136048 0.0085170894813 0.0086325252127 
0.0087493027539 0.0088673434658 0.0089867567205 0.0091074700265 0.0092294827454 0.0093527101333 0.0094771093738 0.0096028671861 0.0097297679742 
0.0098578378963 0.0099868993815 0.0051280078159 0.0051946616853 0.0052623422145 0.0053310425702 0.0054007379604 0.0054715660249 0.0055434767836 
0.0056164942665 0.0056906206457 0.005765875871 0.0058422714655 0.0059198367628 0.0059985840285 0.006078522742 0.006159675462 0.0062420562315 
0.0063256653661 0.0064105125374 0.0064966163335 0.0065840924699 0.006672718683 0.0067626019691 0.0068537648147 0.0069462030177 0.0070399225145 
0.0071349298705 0.0072312260803 0.0073288214242 0.0074277449447 0.0075279540006 0.007629494924 0.0077323546918 0.0078365234132 0.0079420223184 
0.0080488561478 0.0081570091557 0.0082664567277 0.0083771938086 0.0084892027295 0.0086024787104 0.0087170116234 0.0088327079178 0.0089496734739 
0.0090678498534 0.0091872582575 0.009307770196 0.009429370171 0.0095521822883 0.0096760371751 0.0098009702828 0.0050743022203 0.0051395918919 
0.0052058727914 0.0052731378637 0.0053414280191 0.0054106832666 0.0054810522659 0.0055524671957 0.0056249696708 0.0056985596993 0.0057732558756 
0.0058490688356 0.0059260180961 0.0060041256334 0.0060833979933 0.0061638574131 0.0062454955518 0.0063283319467 0.0064123820132 0.0064976360658 
0.0065842203054 0.0066719051593 0.0067607979541 0.0068509149814 0.0069422568881 0.0070348245106 0.0071286240317 0.0072236642422 0.0073199462135 
0.0074174989077 0.0075162973469 0.0076163434998 0.0077176693813 0.0078202470846 0.0079240568877 0.008029142795 0.00813547892 0.0082430295266 
0.0083517772165 0.0084617152301 0.0085728403958 0.00868509247 0.0087984648719 0.0089129710408 0.0090286107008 0.009145419683 0.0092631988891 
0.0093820064629 0.0095018582173 0.0096227394124 0.0050229160914 0.0050868902376 0.0051518140657 0.0052177044665 0.0052845616137 0.0053523476135 
0.0054212257611 0.0054911125842 0.0055620452363 0.0056340256146 0.0057070764531 0.005781208088 0.005856429062 0.0059327659085 0.0060102285236 
0.006088834574 0.0061685938295 0.0062495093255 0.0063315757409 0.0064148069796 0.006499323786 0.0065848936746 0.0066716116354 0.0067595048808 
0.0068485670791 0.0069388026 0.0070302078354 0.0071227921177 0.0072165616539 0.0073115474159 0.0074077170236 0.0075050915928 0.0076036679186 
0.0077034556835 0.0078044259242 0.0079066030107 0.0080099595037 0.0081144286054 0.008220072443 0.0083268285693 0.0084346994278 0.0085436391469 
0.0086536381949 0.0087646589015 0.0088767348515 0.008989841748 0.0091040263743 0.0092190970907 0.0093351185877 0.0094522483352 0.0049737926596 
0.0050364956763 0.005100108272 0.0051646517035 0.0052301398848 0.005296516096 0.0053639368311 0.0054323589187 0.0055017664425 0.005572199122 
0.0056436555853 0.0057161659738 0.0057897284839 0.0058643579862 0.0059400768527 0.0060169056936 0.0060948531948 0.0061739153497 0.006254087595 
0.0063353852486 0.0064178037879 0.006501459105 0.006586105721 0.0066718593048 0.0067587388906 0.0068467321725 0.0069358429248 0.0070260817704 
0.0071174452146 0.0072099557678 0.0073036272895 0.0073984337065 0.0074943986478 0.0075915104021 0.0076897663511 0.007789143981 0.0078896564491 
0.0079912642314 0.0080939477213 0.0081976227322 0.0083023725978 0.0084081594655 0.0085149265608 0.0086226691921 0.0087313471265 0.0088409708785 
0.0089515482436 0.009063121733 0.0091755151383 0.0092887643459 0.0049268135036 0.0049883007266 0.0050506558926 0.0051138987599 0.0051780616639 
0.0052431480775 0.0053091039906 0.0053760797942 0.0054440316943 0.0055129663439 0.0055828875485 0.0056538258955 0.0057257923709 0.0057987913573 
0.0058728381404 0.0059479496986 0.0060241538452 0.0061014348511 0.006179789604 0.0062592361645 0.0063397491861 0.0064213404112 0.0065041118228 
0.0065878255771 0.0066726102754 0.0067584572743 0.0068453710951 0.0069333592434 0.0070224208046 0.0071125639101 0.0072038219908 0.0072961913871 
0.0073896510136 0.0074842042124 0.0075798612611 0.0076765951519 0.0077743829871 0.0078732167675 0.0079730725517 0.0080738974712 0.0081757067459 
0.008278458515 0.0083820888867 0.0084866784334 0.0085921460028 0.0086984442415 0.0088056666945 0.008913742679 0.0090227066078 0.0091324758298 
0.004881855501 0.0049421575831 0.0050033046492 0.0050653073165 0.0051281796774 0.0051919493198 0.0052565595156 0.0053221574035 0.0053886907533 
0.0054561761469 0.005524619898 0.0055940484382 0.0056644634751 0.0057358932612 0.0058083330676 0.0058818041261 0.0059563246435 0.0060318962181 
0.006108510186 0.0061861670453 0.0062648580781 0.006344578401 0.0064254409099 0.0065071996935 0.006589976166 0.0066737692 0.0067585749363 
0.0068444035131 0.0069312658213 0.0070191605745 0.0071081009713 0.0071981054498 0.0072891889251 0.0073813129925 0.0074744747197 0.0075686724028 
0.0076638781845 0.0077600645728 0.0078572152934 0.0079552925169 0.0080542744669 0.008154147509 0.0082548756031 0.0083564585145 0.0084588727266 
0.008561995714 0.008665951749 0.0087707641762 0.0088763582049 0.0089827803473 0.0048387367361 0.0048978883861 0.0049578615051 0.0050186671824 
0.0050803127926 0.0051427994825 0.005206172892 0.0052703698133 0.0053355396307 0.0054016247831 0.0054686418523 0.0055366087395 0.0056055314297 
0.0056754343142 0.005746338475 0.0058182341533 0.0058911328116 0.0059650664378 0.0060399964537 0.0061159389642 0.0061928761318 0.0062708157166 
0.0063497212703 0.0064297284773 0.0065105737957 0.0065923901758 0.006675178709 0.0067589424847 0.0068436845792 0.0069294263289 0.0070161626191 
0.0071039297157 0.0071927238489 0.0072825133564 0.0073732964681 0.0074650747488 0.007557809204 0.0076514824438 0.0077460333335 0.0078414785904 
0.007937761818 0.0080348721548 0.0081327896383 0.0082314819116 0.0083309481282 0.0084311714852 0.0085321020021 0.0086337593805 0.0087361062868 