# vtk DataFile Version 5.1
vtk output
ASCII
DATASET STRUCTURED_POINTS
DIMENSIONS 50 50 50
SPACING 0.002 0.002 0.002
ORIGIN 0.1742 -0.052672 0.02732
POINT_DATA 125000
FIELD FieldData 1
potential 1 125000 double
0.00069591139009 0.00069171835463 0.00068756079697 0.00068343834134 0.00067935109148 0.00067529937335 0.00067128124494 0.00066729685762 0.00066334582342 
0.00065942703258 0.00065553997108 0.00065168506825 0.0006478605949 0.00064406874445 0.00064030893612 0.00063658228716 0.00063288846845 0.00062922698124 
0.00062559824071 0.00062200186051 0.00061843554929 0.00061489789851 0.00061138649134 0.00060790150417 0.00060444045489 0.00060100212443 0.00059758834218 
0.00059419948651 0.00059083727701 0.00058750281466 0.00058419757456 0.00058092599899 0.0005776879532 0.00057448389626 0.0005713156393 0.00056818110334 
0.00056508349627 0.00056201295629 0.00055897109692 0.00055595587177 0.0005529640861 0.00054999403956 0.00054704431137 0.0005441147422 0.00054120478816 
0.00053831500716 0.00053544647573 0.00053260081443 0.00052977904739 0.00052698313607 0.00070027791514 0.00069604873527 0.00069185475779 0.00068769630408 
0.00068357380169 0.00067948724386 0.00067543335543 0.00067141442427 0.00066742863378 0.00066347515481 0.00065955293041 0.00065566230648 0.00065180367859 
0.00064797644695 0.00064418152894 0.00064041907594 0.00063669023182 0.00063299259212 0.00062932829831 0.00062569556752 0.00062209305959 0.00061851943888 
0.0006149731811 0.00061145298042 0.00060795879529 0.00060448902909 0.00060104344292 0.00059762475729 0.00059423362599 0.00059087183865 0.00058753978219 
0.00058424236654 0.0005809790023 0.00057775082618 0.00057455705272 0.0005713985935 0.0005682730091 0.00056518191423 0.00056211546929 0.00055907535114 
0.00055605875643 0.00055306394908 0.00055008992845 0.00054713527402 0.00054420085187 0.00054128673221 0.0005383944768 0.0005355254063 0.00053268072216 
0.0005298626183 0.00070434079002 0.00070007865377 0.00069585143053 0.00069166032813 0.0006875050668 0.00068338623175 0.0006793014244 0.00067524940642 
0.00067123181411 0.00066724680357 0.0006632923834 0.00065936964224 0.00065547821446 0.00065161866581 0.00064779034375 0.00064399485398 0.00064023188461 
0.00063650040292 0.00063280140827 0.0006291339746 0.00062549711295 0.00062188905831 0.00061830913091 0.00061475545532 0.00061122855577 0.00060772754036 
0.00060425258587 0.0006008055645 0.00059738729299 0.00059399986361 0.00059064316205 0.00058732120315 0.0005840341572 0.00058078240977 0.00057756569272 
0.00057438380643 0.00057123484853 0.00056811640639 0.00056503051612 0.00056196642417 0.00055892632957 0.00055590779418 0.00055290982468 0.00054993218527 
0.00054697458462 0.00054403807456 0.00054112346778 0.00053823294436 0.00053536733341 0.000532528747 0.00070803549278 0.00070374295433 0.00069948647556 
0.00069526581221 0.00069108190933 0.00068693424821 0.00068282007776 0.00067873992585 0.00067469304743 0.00067067898939 0.00066669587725 0.00066274368931 
0.00065882316834 0.00065493323051 0.00065107513819 0.00064724916009 0.00064345447138 0.00063969134028 0.00063595966567 0.0006322590942 0.00062858988001 
0.00062494946439 0.00062133672358 0.00061775173788 0.00061419411448 0.00061066428745 0.00060716223978 0.00060368837204 0.00060024479343 0.00059683189189 
0.00059345317619 0.00059010888939 0.00058680016161 0.00058352665131 0.00058028884717 0.00057708461935 0.00057391379212 0.000570773414 0.00056766143845 
0.00056457895697 0.00056151639804 0.0005584755117 0.0005554556313 0.00055245593769 0.0005494772234 0.00054651974935 0.00054358493725 0.0005406745221 
0.00053779045307 0.00053493399202 0.00071131179757 0.0007069924011 0.00070270983546 0.00069846374222 0.00069425364917 0.00069007986372 0.00068594083378 
0.00068183530503 0.00067776347306 0.00067372313862 0.00066971412123 0.00066573586895 0.00066178843828 0.00065787181594 0.00065398637893 0.00065013273594 
0.00064630910882 0.00064251703423 0.00063875544376 0.00063502451454 0.00063132446579 0.00062765288769 0.00062401099937 0.00062039689273 0.00061681166389 
0.00061325471201 0.00060972733364 0.00060622940603 0.00060276279478 0.00059932831023 0.00059592847516 0.00059256350413 0.0005892344652 0.00058594156196 
0.00058268410607 0.00057946033043 0.00057626890171 0.00057310883948 0.00056997603177 0.00056686905159 0.00056378980125 0.00056072851646 0.00055768819243 
0.00055466872632 0.00055167020361 0.00054869388101 0.00054574084963 0.00054281292244 0.00053991223082 0.00053703970437 0.00071413813707 0.00070979469088 
0.00070548936541 0.00070122041304 0.0006969880283 0.00069279170415 0.00068863030593 0.00068450293252 0.0006804083837 0.00067634706903 0.00067231438664 
0.00066831365727 0.00066434286086 0.0006604023583 0.00065649205428 0.00065261371352 0.000648764322 0.00064494500336 0.00064115663023 0.00063739815248 
0.00063366985104 0.00062997097745 0.00062630187624 0.00062266253764 0.00061905203442 0.00061547085185 0.00061192015253 0.00060840071834 0.0006049124492 
0.00060145933571 0.00059804044768 0.00059465752557 0.00059131054671 0.00058800013626 0.00058472475506 0.00058148290931 0.00057827385071 0.00057509500491 
0.0005719437687 0.00056881820388 0.00056571606123 0.0005626409285 0.00055958176203 0.00055654437885 0.00055352825351 0.00055053497118 0.00054756583865 
0.00054462222908 0.00054170671795 0.00053882066878 0.00071650231304 0.00071213846701 0.00070781280938 0.00070352391383 0.0006992726108 0.00069505681749 
0.00069087666241 0.00068673002317 0.00068261650928 0.00067853499303 0.00067448395092 0.00067046236108 0.00066647083446 0.00066251018124 0.00065857887551 
0.00065467781357 0.00065080518204 0.0006469624011 0.00064314975434 0.00063936689217 0.0006356144889 0.00063189117798 0.00062819860221 0.00062453577486 
0.00062090300143 0.00061730074932 0.00061372960701 0.00061019093646 0.00060668462008 0.00060321418899 0.0005997788604 0.0005963800445 0.00059301776448 
0.00058969167346 0.00058640047297 0.00058314376329 0.00057991814865 0.00057672281695 0.00057355503289 0.00057041285493 0.00056729409398 0.00056420207423 
0.00056112694783 0.0005580732262 0.00055504166148 0.00055203358076 0.00054905036999 0.00054609340283 0.00054316551905 0.00054026746038 0.00071841501935 
0.00071403331283 0.00070968973081 0.00070538407307 0.0007011162421 0.00069688361576 0.00069268686593 0.00068852464191 0.00068439436747 0.00068029618065 
0.00067622836155 0.00067218904347 0.00066817991281 0.0006642006968 0.00066025074169 0.00065632959158 0.00065243752794 0.00064857480173 0.00064474161907 
0.00064093806772 0.00063716357126 0.00063342013603 0.00062970708822 0.00062602373717 0.00062237194236 0.00061875141606 0.00061516297939 0.00061160640125 
0.0006080856559 0.00060460066068 0.00060115163873 0.00059773895171 0.00059436313854 0.00059102330203 0.00058771956947 0.00058444881527 0.00058120896894 
0.00057799938435 0.00057481711084 0.00057166001064 0.00056852657167 0.00056541559333 0.00056233032974 0.00055926234841 0.00055621733769 0.00055319680669 
0.00055020133043 0.00054723315509 0.00054429489492 0.00054138722144 0.00071991832368 0.00071550802409 0.0007111491745 0.00070682800575 0.0007025457346 
0.00069829947771 0.00069408838885 0.00068991191262 0.00068576812295 0.00068165537319 0.00067757351783 0.00067352026421 0.00066949572504 0.00066550013595 
0.00066153424483 0.000657597129 0.00065368745501 0.00064980777927 0.00064595723389 0.0006421355787 0.00063834399442 0.00063458223679 0.00063085175065 
0.00062715210318 0.00062348370269 0.00061984809271 0.00061624537072 0.00061267527188 0.00060914109606 0.00060564364778 0.00060218273161 0.00059875875453 
0.00059537116045 0.00059202003167 0.00058870428319 0.00058542170818 0.00058217001716 0.00057894767664 0.00057575303842 0.00057258276334 0.00056943641779 
0.00056631280255 0.0005632115493 0.00056013558325 0.0005570791212 0.00055404729878 0.00055104216256 0.00054806423332 0.0005451169408 0.00054220099049 
0.00072103683131 0.00071661212328 0.00071223901627 0.00070790473447 0.00070360952799 0.00069935096574 0.00069512764563 0.00069093786683 0.00068678171804 
0.0006826564034 0.00067856188823 0.00067449603753 0.00067045917513 0.00066644957363 0.00066247031786 0.0006585182306 0.00065459526174 0.00065070146938 
0.00064683578602 0.0006430001565 0.00063919452029 0.00063541969805 0.00063167548761 0.00062796249168 0.00062428151916 0.00062063325387 0.00061701851716 
0.000613437096 0.0006098926942 0.00060638366427 0.00060291241222 0.00059947860641 0.00059608135283 0.00059272074421 0.00058939457426 0.00058610165147 
0.00058283952232 0.00057960585302 0.00057639973881 0.00057321855265 0.00057006171092 0.00056692698533 0.00056381529431 0.00056072585547 0.00055766360877 
0.00055462252483 0.00055160864348 0.00054862331881 0.00054566903965 0.0005427466643 0.00072184593782 0.00071742011337 0.00071302233498 0.00070867597313 
0.00070436874973 0.00070009802084 0.00069586242842 0.00069166171165 0.00068749429314 0.00068335746224 0.00067925090954 0.00067517390164 0.00067112586388 
0.00066710655313 0.00066311488738 0.00065915169906 0.00065521733389 0.00065131094216 0.00064743456553 0.00064358767164 0.00063977071899 0.00063598420842 
0.0006322289339 0.00062850580191 0.00062481472089 0.00062115671259 0.00061753177956 0.00061394299303 0.00061038993279 0.00060687406915 0.00060339433853 
0.00059995216693 0.00059654696897 0.00059317720006 0.00058984184468 0.0005865395919 0.00058326776471 0.00058002441304 0.00057680834081 0.0005736177837 
0.000570450949 0.00056730693066 0.0005641858097 0.00056108793619 0.00055801348136 0.0005549691674 0.000551948478 0.0005489568961 0.00054599700405 
0.00054306933116 0.0007224198726 0.000717981545 0.00071358364427 0.00070921213078 0.00070489335039 0.00070061099618 0.00069636458976 0.00069215272579 
0.00068797367208 0.00068382604888 0.00067970892358 0.00067562176071 0.00067156398463 0.00066753456481 0.0006635343218 0.000659560768 0.00065561646863 
0.00065170169655 0.00064781700958 0.00064396105953 0.0006401353345 0.00063634033149 0.00063257671802 0.00062884540198 0.00062514687363 0.00062148233317 
0.00061785014946 0.00061425451506 0.00061069460432 0.00060717187459 0.00060368568183 0.00060023716242 0.00059682377192 0.00059344629361 0.00059010337467 
0.00058679245001 0.00058351228198 0.00058026015431 0.00057703560051 0.00057383620095 0.00057066039765 0.00056750836018 0.00056437894086 0.00056127410345 
0.00055819287967 0.00055513844465 0.00055211636542 0.0005491196385 0.0005461549886 0.00054322347364 0.00072283463907 0.00071838391795 0.00071397381432 
0.00070960431386 0.00070525869232 0.00070096452712 0.00069670749462 0.00069248415502 0.00068829399125 0.00068413564519 0.00068000819392 0.00067591079194 
0.00067184389055 0.00066780616509 0.00066379722969 0.00065981644387 0.00065586423813 0.00065194223702 0.00064804965875 0.00064418765685 0.00064035557436 
0.00063655474273 0.00063278560493 0.00062904862915 0.00062534456186 0.00062167264543 0.00061803716016 0.00061443617647 0.00061087112952 0.00060734303711 
0.00060385055341 0.00060039542327 0.00059697563942 0.0005935910809 0.0005902406315 0.00058692187883 0.00058363284405 0.00058037266981 0.00057713972446 
0.0005739323977 0.00057074916027 0.00056758985993 0.0005644549014 0.00056134372551 0.0005582576114 0.000555198176 0.00055217151142 0.0005491704265 
0.00054620172825 0.00054326667574 0.00072316944324 0.00071870540426 0.0007142819658 0.0007098993436 0.00070554151166 0.00070123443947 0.00069696458058 
0.00069272996506 0.0006885277942 0.00068435813008 0.0006802204094 0.000676113805 0.00067203778425 0.00066799231344 0.00066397469034 0.00065998760519 
0.00065603029347 0.00065210124222 0.00064820305433 0.00064433605255 0.00064049920819 0.00063669458177 0.00063292094086 0.00062917995432 0.00062547207002 
0.0006217962402 0.00061815637937 0.00061455109326 0.00061098106703 0.00060744835487 0.00060395158061 0.00060049058423 0.00059706437339 0.00059367286335 
0.00059031437427 0.00058698784098 0.00058369111326 0.00058042273045 0.00057718180411 0.00057396691028 0.00057077659884 0.00056761101854 0.00056446998513 
0.00056135391086 0.00055826334408 0.00055519952542 0.00055216567837 0.00054916620786 0.00054619444292 0.00054325613251 0.00072349472659 0.00071901613792 
0.00071457873629 0.0007101825775 0.00070582407028 0.00070149011791 0.00069720616454 0.00069295880618 0.00068874476073 0.0006845634737 0.00068041499152 
0.00067629803909 0.00067221343152 0.00066815883233 0.00066413442989 0.00066014105258 0.00065617774888 0.00065224529773 0.0006483413343 0.00064446982542 
0.00064062969673 0.00063682121776 0.0006330444067 0.00062930012808 0.00062558775505 0.00062191048032 0.0006182674112 0.00061465887072 0.00061108515718 
0.00060754843916 0.00060404613106 0.00060057895415 0.00059714670443 0.00059374865742 0.00059038236905 0.00058704739263 0.00058374286767 0.0005804667662 
0.00057721750172 0.00057399513067 0.00057079824916 0.00056762639355 0.00056448030745 0.00056135928282 0.00055826483561 0.00055519808848 0.00055216109428 
0.00054915470885 0.00054618434937 0.00054324266928 0.00072387602374 0.00071938135378 0.00071492802609 0.00071051638954 0.0007061426718 0.00070180772201 
0.00069749596818 0.00069323389367 0.00068900600451 0.00068481263975 0.00068065260184 0.00067652491166 0.00067242990792 0.00066836780851 0.00066433631379 
0.00066033611171 0.00065636709527 0.00065242929676 0.00064852270367 0.00064464538016 0.0006408021534 0.00063699048698 0.00063321095091 0.00062946397389 
0.00062574914362 0.00062206938949 0.00061842338038 0.00061481168671 0.00061123445843 0.00060769203278 0.00060418463044 0.00060071156646 0.0005972731168 
0.00059386788752 0.00059049393151 0.0005871508713 0.00058383808578 0.00058055346176 0.00057729650581 0.00057406672411 0.00057086313026 0.00056768545216 
0.00056453403915 0.00056140850521 0.00055831034472 0.00055524082005 0.00055220089954 0.00054919161731 0.00054621422972 0.00054327370514 0.00072436591781 
0.00071985386421 0.00071538333281 0.00071095458964 0.00070656440954 0.00070221294965 0.00069789817837 0.00069360753869 0.00068936573943 0.00068515895676 
0.00068098622359 0.00067684645959 0.00067274118442 0.00066866924957 0.0006646294188 0.00066062148718 0.00065664645598 0.00065270336275 0.00064879190138 
0.00064491230247 0.00064106336386 0.00063724904193 0.00063346692342 0.00062971610788 0.00062599971249 0.00062231644955 0.00061866738206 0.00061505197248 
0.00061147112688 0.0006079241947 0.00060441096474 0.00060093152698 0.0005974855332 0.00059407266418 0.00059069096801 0.00058733971254 0.00058401827266 
0.00058072540544 0.00057746030217 0.00057422278073 0.00057101251231 0.00056782837158 0.00056467201051 0.00056154238602 0.00055844059915 0.00055536772766 
0.00055232443737 0.00054931219496 0.00054633159008 0.00054338659465 0.00072500810991 0.00072047671592 0.00071598797882 0.00071154007058 0.00070713188656 
0.00070276228364 0.00069843104421 0.00069412319646 0.00068986534471 0.000685642992 0.00068145576131 0.00067730350009 0.00067318695324 0.00066910467845 
0.00066505468551 0.00066103882527 0.00065705657111 0.00065310725168 0.00064919010034 0.00064530571469 0.00064145262956 0.00063763441301 0.00063384838767 
0.00063009403118 0.00062637404779 0.00062268791628 0.00061903457783 0.00061541567975 0.00061182927911 0.00060827717015 0.00060475806951 0.00060127222359 
0.00059781887595 0.00059439736129 0.00059100717001 0.00058764748761 0.00058431665523 0.00058101514939 0.00057774208866 0.00057449675603 0.0005712788788 
0.00056808905002 0.00056492671123 0.00056179262 0.00055868765099 0.00055561055361 0.0005525637344 0.00054954785257 0.00054656261888 0.00054361011466 
0.00072583393674 0.00072128205498 0.00071677264983 0.00071230450636 0.00070787683484 0.00070348796021 0.00069913772493 0.00069482522796 0.0006905367493 
0.00068629751959 0.00068209521722 0.0006779288425 0.00067379986186 0.00066970543629 0.00066564586382 0.0006616201857 0.00065762895016 0.00065367168815 
0.00064974765358 0.00064585696622 0.00064199974038 0.00063817421914 0.00063438300066 0.00063062521349 0.00062690075173 0.00062320956354 0.00061955195568 
0.00061592726861 0.0006123353222 0.00060877700581 0.00060525165871 0.00060175762734 0.00059829693079 0.00059486689071 0.00059146737928 0.00058809864405 
0.00058475936144 0.00058144841081 0.00057816637514 0.00057491307117 0.00057168852175 0.00056849151913 0.00056532370117 0.00056218447188 0.00055907484475 
0.00055599394199 0.00055294250029 0.00054992217541 0.00054693276048 0.0005439752357 0.00072686661557 0.00072229222345 0.0007177607653 0.00071327141341 
0.00070882237288 0.00070441362206 0.00070004288489 0.00069571092819 0.00069141603879 0.00068714675873 0.00068292809048 0.00067874626029 0.00067460232054 
0.00067049525357 0.00066642255176 0.00066238598571 0.00065838457763 0.0006544176817 0.00065048536736 0.00064658699141 0.0006427224308 0.00063889174495 
0.00063509200858 0.00063132841038 0.00062759792729 0.00062390104792 0.00062023718553 0.0006166062154 0.00061300785984 0.0006094422343 0.00060590882008 
0.00060240774021 0.00059893760524 0.00059549879074 0.00059209021417 0.00058871141465 0.00058536289529 0.0005820428715 0.00057875222459 0.0005754906384 
0.0005722582962 0.00056905477296 0.0005658803573 0.00056273520055 0.00055962004549 0.00055653417573 0.00055347832187 0.00055045192723 0.00054745806869 
0.00054449449586 0.00072812174152 0.00072352311343 0.00071896848852 0.00071445523029 0.00070998423187 0.00070555325966 0.00070116136169 0.00069680789218 
0.00069249444156 0.00068820643544 0.0006839697045 0.00067977104823 0.00067561103702 0.00067148823856 0.00066740244404 0.00066335199649 0.00065933826673 
0.00065536031506 0.00065141708546 0.00064750885494 0.00064363553682 0.00063979503372 0.00063598996235 0.00063221700041 0.0006284787661 0.0006247745252 
0.0006211028967 0.00061746431547 0.00061385823933 0.00061028491282 0.00060674340912 0.00060323378673 0.0005997539054 0.00059630562279 0.00059288722368 
0.00058949910381 0.00058614034303 0.00058281074374 0.00057951153684 0.00057624138703 0.00057300062666 0.0005697898774 0.00056660919209 0.00056345684599 
0.00056033531003 0.00055724402049 0.00055418233809 0.0005511505178 0.00054814993104 0.00054517973138 0.00072960886684 0.0007249846748 0.00072040521344 
0.00071586727125 0.00071137242897 0.00070691782799 0.00070250233341 0.00069812778494 0.00069379303395 0.00068949793594 0.00068522843092 0.00068101172781 
0.00067683294843 0.00067269308014 0.00066859164589 0.00066452644823 0.00066049874328 0.00065650718337 0.00065255164244 0.00064863164966 0.00064474694006 
0.00064089588002 0.00063708057188 0.00063329998725 0.00062955101738 0.00062583734493 0.00062215648072 0.00061850934908 0.00061489421934 0.00061131230095 
0.00060776195152 0.00060424215261 0.00060075290056 0.00059729442799 0.00059386619417 0.00059046771535 0.0005870991589 0.00058375993534 0.00058045155482 
0.0005771727938 0.00057392359739 0.0005707045195 0.00056751621451 0.00056435740027 0.00056122831066 0.00055812974057 0.00055506173594 0.00055202335584 
0.00054901518654 0.0005460374049 0.00073133330293 0.00072668220697 0.00072207549692 0.000717511728 0.00071299116921 0.00070851115405 0.00070407263049 
0.00069967481993 0.00069531723162 0.00069100009572 0.00068672279852 0.00068247227853 0.00067827444188 0.00067411561649 0.00066999619346 0.00066591376888 
0.00066186991183 0.00065786299303 0.0006538932426 0.00064995892329 0.00064605955131 0.00064219730135 0.0006383702616 0.00063457807573 0.00063082034016 
0.00062709403592 0.00062340324645 0.00061974589123 0.00061612100141 0.00061252876892 0.00060896809055 0.0006054384801 0.00060193952046 0.00059847005348 
0.00059503166935 0.00059162285229 0.00058824426947 0.00058489529899 0.00058157674562 0.00057828848678 0.00057503072282 0.00057180327555 0.00056860626873 
0.00056543965677 0.00056230314111 0.00055919737121 0.00055612106531 0.00055307483661 0.00055005917148 0.00054707293506 0.00073329682042 0.0007286170616 
0.00072398235691 0.00071939025182 0.00071484290406 0.00071033733956 0.00070587325892 0.00070145068224 0.00069706924357 0.00069272882577 0.00068842833537 
0.00068415578226 0.000679936722 0.00067575702842 0.00067161726604 0.00066751610553 0.00066345389275 0.00065942963092 0.00065544316301 0.00065149335871 
0.0006475790517 0.00064370209937 0.00063986030228 0.00063605507762 0.00063228505252 0.00062854627855 0.00062484384703 0.00062117523413 0.00061753978264 
0.00061393645559 0.00061036408376 0.00060682413863 0.00060331439043 0.00059983430737 0.00059638468918 0.00059296545239 0.00058957632857 0.00058621741456 
0.00058288932764 0.00057959107449 0.00057632388183 0.00057308783162 0.00056988214492 0.0005667065919 0.0005635619721 0.00056044677203 0.00055736205262 
0.000554307856 0.0005512833326 0.00054828768812 0.00073550148788 0.00073079152265 0.00072612630047 0.00072150607964 0.00071693033214 0.0007123968809 
0.00070790577327 0.00070345681002 0.00069904966355 0.00069468373853 0.00069035887623 0.00068607560455 0.00068181941127 0.00067761766723 0.00067345542341 
0.00066933332965 0.00066525071942 0.00066120695532 0.00065720165059 0.00065323281521 0.00064930290317 0.00064540858153 0.00064155231301 0.00063773139416 
0.00063394659059 0.00063019690682 0.00062647998396 0.00062279815328 0.00061915014263 0.00061553425205 0.0006119506641 0.00060839859695 0.00060487755748 
0.00060138660096 0.0005979260077 0.00059449603682 0.0005910962144 0.00058772696458 0.00058438837586 0.00058108012032 0.00057780345534 0.0005745575319 
0.00057134370363 0.00056815934868 0.00056500443591 0.00056188075065 0.00055878665069 0.0005557225524 0.00055268850464 0.00054968251702 0.00073794630604 
0.0007332042106 0.00072850831896 0.00072385692812 0.00071925116422 0.00071468849702 0.00071016873804 0.00070569222069 0.00070125723236 0.00069686484802 
0.00069251400621 0.00068820456339 0.00068392197303 0.00067969566139 0.00067551015863 0.00067136460415 0.00066725989412 0.00066319452809 0.00065916682164 
0.00065517972773 0.00065123066151 0.00064731927281 0.00064344542609 0.00063960855495 0.00063580767717 0.00063204281202 0.00062831260636 0.00062461514832 
0.00062095334066 0.00061732420279 0.00061372864356 0.00061016495443 0.00060663216077 0.0006031300378 0.0005996581087 0.00059621717586 0.00059280643974 
0.00058942682886 0.0005860776216 0.00058275928013 0.00057947219009 0.00057621625397 0.0005729913136 0.00056979729553 0.00056663278642 0.0005634987602 
0.00056039522128 0.00055732001553 0.00055427460718 0.00055125779219 0.00074063169611 0.00073585632383 0.00073112690661 0.00072644353722 0.00072180623444 
0.00071721193964 0.00071266175991 0.00070815514539 0.00070369103768 0.00069926979171 0.00069489085208 0.00069055395896 0.00068625867538 0.00068199200979 
0.00067778067181 0.00067360985328 0.00066948093091 0.00066539191548 0.00066134178634 0.00065733276973 0.00065336350781 0.0006494327631 0.00064553958714 
0.00064168472264 0.00063786684723 0.00063408548548 0.0006303397771 0.00062662888398 0.00062294984316 0.00061930729063 0.00061569799436 0.0006121207558 
0.00060857531415 0.00060506124884 0.0006015781976 0.00059812628004 0.00059470441927 0.00059131341058 0.00058795411651 0.00058462523646 0.00058132743587 
0.00057806114629 0.00057482519868 0.00057162037747 0.0005684459243 0.00056530137421 0.00056218643694 0.00055910039727 0.00055604237379 0.00055301349648 
0.00074355898262 0.00073874766154 0.00073398349829 0.00072926625631 0.00072459551741 0.00071996873168 0.00071538644418 0.00071084817705 0.00070635273132 
0.00070190046051 0.00069749135213 0.00069312492695 0.00068880078549 0.00068451894654 0.00068026566555 0.00067606815791 0.0006719124982 0.00066779749737 
0.00066372451005 0.00065969203559 0.00065569994692 0.00065174813457 0.00064783454699 0.00064395976853 0.00064012215736 0.0006363225595 0.0006325599243 
0.00062883261791 0.0006251403674 0.00062148081387 0.00061785672352 0.00061426643257 0.0006107086899 0.00060718254131 0.00060368738844 0.00060022401093 
0.00059679077328 0.00059338934178 0.00059001803198 0.00058667868523 0.00058337031107 0.00058009269101 0.00057684619091 0.00057362955882 0.00057044408589 
0.00056728775664 0.00056416086268 0.00056106261605 0.0005579915655 0.00055494844406 0.00074673048786 0.00074188194092 0.00073708122122 0.00073232740857 
0.00072762079983 0.00072295979919 0.00071834326907 0.00071377098898 0.00070924223096 0.00070475741329 0.00070031597708 0.00069591788859 0.00069156245611 
0.00068725007122 0.00068296690206 0.00067873993531 0.00067455624841 0.00067041356978 0.00066631477134 0.00066225719691 0.00065824127954 0.00065426566904 
0.00065033020149 0.00064643414159 0.0006425760857 0.00063875752401 0.00063497540074 0.00063123049452 0.00062752182068 0.0006238459743 0.00062020714717 
0.00061660235324 0.00061303121223 0.00060949250203 0.0006059854311 0.00060250981983 0.00059906550872 0.00059565311334 0.00059227076804 0.00058892034973 
0.00058560065514 0.0005823118455 0.00057905326434 0.00057582492768 0.00057262747668 0.00056945886422 0.00056631872058 0.00056320678858 0.00056012193104 
0.0005570643238 0.00075014943361 0.00074526010017 0.00074042048329 0.0007356282525 0.00073088384663 0.00072618557083 0.00072153357265 0.00071692546997 
0.00071236146732 0.00070784180861 0.00070336538769 0.00069893266466 0.0006945440369 0.00069019883508 0.00068589769188 0.00068162630581 0.00067741114645 
0.00067324058152 0.00066911338167 0.00066502950055 0.0006609873677 0.00065698746274 0.00065302825633 0.00064910952122 0.00064523052846 0.00064138973642 
0.00063758778954 0.00063382416565 0.00063009663878 0.00062640656379 0.00062274930645 0.00061912944209 0.00061554423342 0.00061199178738 0.00060847228953 
0.00060498451689 0.00060152932366 0.00059810531865 0.00059471247446 0.00059134990207 0.00058801839788 0.00058471864389 0.00058144781065 0.00057820723752 
0.00057499570924 0.00057181342037 0.00056865894876 0.00056553216489 0.00056243212707 0.00055935834884 0.00075381673617 0.00074888577006 0.00074400503729 
0.00073917226885 0.00073438772778 0.00072964995533 0.00072495805881 0.00072031208941 0.0007157102037 0.00071115329736 0.00070664066008 0.0007021718175 
0.00069774705566 0.00069336749309 0.00068903169214 0.0006847411501 0.00068048038696 0.00067627916021 0.00067212198644 0.00066801015216 0.00066394103472 
0.00065991491107 0.00065593029721 0.00065198721523 0.00064808486163 0.00064422168435 0.0006403987826 0.00063661375503 0.00063286712626 0.00062915828705 
0.00062548649205 0.00062184848245 0.0006182450133 0.00061467898734 0.00061114640111 0.00060764620365 0.00060417937161 0.00060074368454 0.00059733931615 
0.00059396568592 0.00059062201444 0.00058730854971 0.00058402529769 0.00058077121216 0.00057754548043 0.00057434774118 0.00057117811774 0.00056803512987 
0.00056491835514 0.00056182650873 0.00075773592607 0.00075276058076 0.00074783635416 0.00074296028165 0.00073813329091 0.0007333533959 0.00072862033815 
0.0007239332943 0.0007192918538 0.00071469489693 0.0007101425322 0.00070563575598 0.00070117285072 0.0006967557866 0.00069238467771 0.00068805729457 
0.00068376383317 0.00067953054348 0.00067534244359 0.00067120056413 0.00066710263898 0.0006630453782 0.00065903411921 0.00065506574525 0.00065113833542 
0.00064725176631 0.00064340523098 0.00063959845784 0.00063583094659 0.00063210218831 0.00062841197972 0.00062475907026 0.00062114091254 0.0006175598415 
0.00061401344899 0.00061050054719 0.00060702070855 0.00060357326373 0.00060015679299 0.00059677094688 0.00059341569588 0.00059008856257 0.00058679134364 
0.00058352252308 0.00058028217827 0.00057706801709 0.00057388132651 0.00057072041427 0.00056758424047 0.00056447290775 0.00076190599633 0.00075688388729 
0.00075191397392 0.00074699306169 0.00074212103273 0.00073729678186 0.00073252014078 0.00072778913781 0.00072310469118 0.00071846576013 0.00071387259387 
0.00070932439437 0.00070482171838 0.00070036279156 0.00069595193969 0.00069158884134 0.00068727271733 0.00068299112236 0.00067877135451 0.00067459710456 
0.00067046907183 0.00066638578598 0.0006623465467 0.00065835046796 0.00065439659134 0.00065048435652 0.00064661382348 0.00064278336069 0.00063899305684 
0.00063524372515 0.00063153352966 0.00062786214651 0.00062422643087 0.00062063009029 0.00061706919293 0.00061354259355 0.00061004987199 0.00060658980534 
0.00060316118303 0.00059976257184 0.00059639429945 0.00059305358853 0.00058974150768 0.00058645699706 0.00058319948442 0.00057996808317 0.00057676207885 
0.00057358148773 0.00057042474589 0.00056729229601 0.00076632579752 0.0007612556441 0.00075623658549 0.00075126825164 0.00074634848663 0.00074147691148 
0.00073665384149 0.00073187489691 0.00072714561732 0.00072246194469 0.00071782443863 0.00071323340624 0.00070868815386 0.00070419061984 0.00069973915809 
0.00069533753896 0.00069098471431 0.00068666732376 0.00068241212032 0.00067820487541 0.00067404513373 0.00066993164555 0.00066586222535 0.00066183713603 
0.00065785498626 0.00065391685696 0.00065001970433 0.00064616436123 0.00064235016568 0.00063857735674 0.0006348455184 0.00063115395167 0.00062750256677 
0.00062388682617 0.0006203101837 0.00061676972321 0.00061326332404 0.00060979034069 0.00060634874605 0.00060293682494 0.00059955402614 0.00059619926629 
0.00059287119962 0.00058956977776 0.0005862942722 0.0005830435885 0.00057981720126 0.00057661466694 0.00057343587574 0.00057027998084 0.00077099037726 
0.0007658694461 0.00076079712849 0.0007557779575 0.00075080866481 0.00074588734346 0.00074101496596 0.00073619086918 0.00073141311187 0.00072668252667 
0.00072199914383 0.0007173626143 0.00071277300304 0.00070823036281 0.00070373799131 0.00069929621221 0.00069490450249 0.00069056274142 0.00068625774827 
0.00068201599861 0.00067782240352 0.00067367711198 0.00066957688402 0.00066552160248 0.00066151075536 0.00065754278876 0.00065361804076 0.00064973637425 
0.00064589615383 0.00064209887074 0.00063834375953 0.00063463063896 0.00063095950169 0.00062732806357 0.00062373231766 0.00062017636097 0.00061665573217 
0.00061316848657 0.00060971305146 0.00060628740754 0.00060288927952 0.00059951866972 0.00059617426163 0.00059285489619 0.00058955970377 0.00058628735474 