# vtk DataFile Version 5.1
vtk output
ASCII
DATASET POLYDATA
POINTS 252 double
0.57499998808 0.16750000417 9.5409791179e-17 0.57499998808 0.23749999702 9.5253662444e-17 0.56000000238 0.15250000358 -0.014999999665 
0.74500000477 0.16750000417 1.3305328531e-16 0.57499998808 0.16750000417 9.6248245823e-17 0.75999999046 0.15250000358 -0.014999999665 
0.56000000238 0.15250000358 -0.014999999665 0.74500000477 0.16750000417 1.3305328531e-16 0.75999999046 0.15250000358 -0.014999999665 
0.74500000477 0.23749999702 1.2836953722e-16 0.67000001669 0.23749999702 1.1639994259e-16 0.64999997616 0.23749999702 1.1275702594e-16 
0.74500000477 0.16750000417 1.3305328531e-16 0.57499998808 0.16750000417 1.0208855348e-16 0.57499998808 0.23749999702 9.9096118347e-17 
0.74500000477 0.23749999702 1.3006085018e-16 0.35499998927 0.23749999702 4.6455895878e-17 0.34000000358 0.15250000358 -0.014999999665 
0.35499998927 0.16750000417 5.5511151231e-17 0.34000000358 0.15250000358 -0.014999999665 0.54000002146 0.15250000358 -0.014999999665 
0.35499998927 0.16750000417 4.3368086899e-17 0.52499997616 0.16750000417 6.2450045135e-17 0.54000002146 0.15250000358 -0.014999999665 
0.52499997616 0.23749999702 7.0532870697e-17 0.52499997616 0.16750000417 8.1532003371e-17 0.44999998808 0.23749999702 6.7550129772e-17 
0.43000000715 0.23749999702 6.2883726004e-17 0.52499997616 0.16750000417 8.4203479112e-17 0.35499998927 0.16750000417 4.4539012316e-17 
0.35499998927 0.23749999702 4.5384691013e-17 0.52499997616 0.23749999702 8.504915781e-17 0.2349999994 0.23749999702 1.9810542228e-17 
0.21999999881 0.15250000358 -0.014999999665 0.2349999994 0.16750000417 8.6736173799e-17 0.21999999881 0.15250000358 -0.014999999665 
0.31999999285 0.15250000358 -0.014999999665 0.2349999994 0.16750000417 2.2551405188e-17 0.30500000715 0.16750000417 2.9490299092e-17 
0.31999999285 0.15250000358 -0.014999999665 0.30500000715 0.23749999702 1.906759923e-17 0.30500000715 0.16750000417 2.9490299092e-17 
0.28000000119 0.23749999702 2.9802549847e-17 0.25999999046 0.23749999702 2.602085214e-17 0.30500000715 0.16750000417 3.5353662985e-17 
0.2349999994 0.16750000417 2.2117726645e-17 0.2349999994 0.23749999702 2.1293734232e-17 0.30500000715 0.23749999702 3.4529670572e-17 
0.014999999665 0.23749999702 -2.9039270591e-17 9.7698892502e-17 0.15250000358 -0.014999999665 0.014999999665 0.16750000417 1.5612511284e-17 
3.6672053223e-17 0.15250000358 -0.014999999665 0.20000000298 0.15250000358 -0.014999999665 0.014999999665 0.16750000417 -2.602085214e-17 
0.18500000238 0.16750000417 -6.9388939039e-18 0.20000000298 0.15250000358 -0.014999999665 0.18500000238 0.23749999702 -1.7670630325e-18 
0.18500000238 0.16750000417 6.9388939039e-18 0.1099999994 0.23749999702 -7.9450333876e-18 0.090000003576 0.23749999702 -1.301042607e-17 
0.18500000238 0.16750000417 8.7083118163e-18 0.014999999665 0.16750000417 -3.4347535653e-17 0.014999999665 0.23749999702 -3.2005653581e-17 
0.18500000238 0.23749999702 1.1050193888e-17 -0.20499999821 0.23749999702 -7.7889086718e-17 -0.21999999881 0.15250000358 -0.014999999665 
-0.20499999821 0.16750000417 -9.7144514655e-17 -0.21999999881 0.15250000358 -0.014999999665 -0.019999999553 0.15250000358 -0.014999999665 
-0.20499999821 0.16750000417 -8.1532003371e-17 -0.035000000149 0.16750000417 -6.4184768611e-17 -0.019999999553 0.15250000358 -0.014999999665 
-0.035000000149 0.23749999702 -3.8281655705e-17 -0.035000000149 0.16750000417 -3.9898639947e-17 -0.1099999994 0.23749999702 -5.6794849515e-17 
-0.12999999523 0.23749999702 -6.0715321659e-17 -0.035000000149 0.16750000417 -4.0141500175e-17 -0.20499999821 0.16750000417 -7.3465519972e-17 
-0.20499999821 0.23749999702 -7.5417095851e-17 -0.035000000149 0.23749999702 -4.2093076054e-17 -0.32499998808 0.16750000417 -1.0408340856e-16 
-0.32499998808 0.23749999702 -1.0475994611e-16 -0.34000000358 0.15250000358 -0.014999999665 -0.25499999523 0.16750000417 -8.8991312994e-17 
-0.32499998808 0.16750000417 -1.035340808e-16 -0.23999999464 0.15250000358 -0.014999999665 -0.34000000358 0.15250000358 -0.014999999665 
-0.25499999523 0.16750000417 -8.8991312994e-17 -0.23999999464 0.15250000358 -0.014999999665 -0.25499999523 0.23749999702 -9.0205620751e-17 
-0.28000000119 0.23749999702 -9.4542429441e-17 -0.30000001192 0.23749999702 -9.9746599869e-17 -0.25499999523 0.16750000417 -8.8991312994e-17 
-0.32499998808 0.16750000417 -1.0720589786e-16 -0.32499998808 0.23749999702 -1.0625180321e-16 -0.25499999523 0.23749999702 -8.8037218345e-17 
1 0.1174999997 1.8967465851e-16 -1 0.1174999997 -2.5441455134e-16 1 0.067500002682 1.8967465851e-16 
-1 0.067500002682 -2.5441455134e-16 1 -0.067500002682 1.8967465851e-16 -1 -0.067500002682 -2.5441455134e-16 
1 -0.10249999911 1.8967465851e-16 -1 -0.10249999911 -2.5441455134e-16 1 -0.052499998361 -0.014999999665 
-1 -0.052499998361 -0.014999999665 1 -0.067500002682 1.9081958236e-16 -1 -0.067500002682 -2.9490299092e-17 
1 -0.10249999911 1.8967465851e-16 -1 -0.10249999911 -2.5441455134e-16 1 -0.1174999997 -0.014999999665 
-1 -0.1174999997 -0.014999999665 1 0.13249999285 -0.014999999665 -1 0.13249999285 -0.014999999665 
1 0.1174999997 1.8735013541e-16 -1 0.1174999997 -3.2959746044e-17 1 0.067500002682 1.8967465851e-16 
-1 0.067500002682 -2.5441455134e-16 1 0.052499998361 -0.014999999665 -1 0.052499998361 -0.014999999665 
1 0.017500000075 1.8967465851e-16 -1 0.017500000075 -2.5441455134e-16 1 -0.017500000075 1.8967465851e-16 
-1 -0.017500000075 -2.5441455134e-16 1 -0.017500000075 1.8967465851e-16 -1 -0.017500000075 -2.5441455134e-16 
1 -0.032499998808 -0.014999999665 -1 -0.032499998808 -0.014999999665 1 0.032499998808 -0.014999999665 
-1 0.032499998808 -0.014999999665 1 0.017500000075 1.9081958236e-16 -1 0.017500000075 -3.2959746044e-17 
-0.44499999285 0.23749999702 -1.3117979402e-16 -0.46000000834 0.15250000358 -0.014999999665 -0.44499999285 0.16750000417 -1.2836953722e-16 
-0.46000000834 0.15250000358 -0.014999999665 -0.36000001431 0.15250000358 -0.014999999665 -0.44499999285 0.16750000417 -1.301042607e-16 
-0.375 0.16750000417 -1.2143064332e-16 -0.36000001431 0.15250000358 -0.014999999665 -0.375 0.23749999702 -9.8832308016e-17 
-0.375 0.16750000417 -1.1275702594e-16 -0.40000000596 0.23749999702 -1.2118778309e-16 -0.41999998689 0.23749999702 -1.2576745201e-16 
-0.375 0.16750000417 -1.1563667326e-16 -0.44499999285 0.16750000417 -1.3166552812e-16 -0.44499999285 0.23749999702 -1.3149204498e-16 
-0.375 0.23749999702 -1.1546319012e-16 -0.56499999762 0.23749999702 -1.5782514767e-16 -0.57999998331 0.15250000358 -0.014999999665 
-0.56499999762 0.16750000417 -1.9602375279e-16 -0.57999998331 0.15250000358 -0.014999999665 -0.47999998927 0.15250000358 -0.014999999665 
-0.56499999762 0.16750000417 -1.5785983631e-16 -0.49500000477 0.16750000417 -1.5092094241e-16 -0.47999998927 0.15250000358 -0.014999999665 
-0.49500000477 0.23749999702 -1.5171372594e-16 -0.49500000477 0.16750000417 -1.4224732503e-16 -0.51999998093 0.23749999702 -1.4783313674e-16 
-0.54000002146 0.23749999702 -1.5178830415e-16 -0.49500000477 0.16750000417 -1.4228201368e-16 -0.56499999762 0.16750000417 -1.5612507013e-16 
-0.56499999762 0.23749999702 -1.5673224867e-16 -0.49500000477 0.23749999702 -1.4288919221e-16 -0.68500000238 0.23749999702 -1.8447048808e-16 
-0.69999998808 0.15250000358 -0.014999999665 -0.68500000238 0.16750000417 -2.0296264669e-16 -0.69999998808 0.15250000358 -0.014999999665 
-0.60000002384 0.15250000358 -0.014999999665 -0.68500000238 0.16750000417 -1.8735013541e-16 -0.61500000954 0.16750000417 -1.7694179455e-16 
-0.60000002384 0.15250000358 -0.014999999665 -0.61500000954 0.23749999702 -1.6284254687e-16 -0.61500000954 0.16750000417 -1.7000290065e-16 
-0.63999998569 0.23749999702 -1.7447849039e-16 -0.66000002623 0.23749999702 -1.7997756063e-16 -0.61500000954 0.16750000417 -1.6892736733e-16 
-0.68500000238 0.16750000417 -1.881740722e-16 -0.68500000238 0.23749999702 -1.8685137795e-16 -0.61500000954 0.23749999702 -1.6760467307e-16 
-0.80500000715 0.23749999702 -2.1111584173e-16 -0.81999999285 0.15250000358 -0.014999999665 -0.80500000715 0.16750000417 -2.1337098755e-16 
-0.81999999285 0.15250000358 -0.014999999665 -0.72000002861 0.15250000358 -0.014999999665 -0.80500000715 0.16750000417 -2.1337098755e-16 
-0.73500001431 0.16750000417 -2.0643209364e-16 -0.72000002861 0.15250000358 -0.014999999665 -0.73500001431 0.23749999702 -1.8988987829e-16 
-0.73500001431 0.16750000417 -1.9602375279e-16 -0.75999999046 0.23749999702 -2.0112384404e-16 -0.77999997139 0.23749999702 -2.0599841277e-16 
-0.73500001431 0.16750000417 -1.9557272098e-16 -0.80500000715 0.16750000417 -2.1263372607e-16 -0.80500000715 0.23749999702 -2.1209163822e-16 
-0.73500001431 0.23749999702 -1.9503063312e-16 -0.72000002861 -0.13750000298 -0.014999999665 -0.81999999285 -0.13750000298 -0.014999999665 
-0.73500001431 -0.15250000358 -1.9602375279e-16 -0.80500000715 -0.15250000358 -2.0469737017e-16 -0.60000002384 -0.13750000298 -0.014999999665 
-0.69999998808 -0.13750000298 -0.014999999665 -0.61500000954 -0.15250000358 -1.734723476e-16 -0.68500000238 -0.15250000358 -1.804112415e-16 
-0.47999998927 -0.13750000298 -0.014999999665 -0.57999998331 -0.13750000298 -0.014999999665 -0.49500000477 -0.15250000358 -1.4398204851e-16 
-0.56499999762 -0.15250000358 -1.5092094241e-16 -0.36000001431 -0.13750000298 -0.014999999665 -0.46000000834 -0.13750000298 -0.014999999665 
-0.375 -0.15250000358 -1.1449174941e-16 -0.44499999285 -0.15250000358 -1.2490009027e-16 -0.23999999464 -0.13750000298 -0.014999999665 
-0.34000000358 -0.13750000298 -0.014999999665 -0.25499999523 -0.15250000358 -9.0205620751e-17 -0.32499998808 -0.15250000358 -9.8879238131e-17 
-0.019999999553 -0.13750000298 -0.014999999665 -0.21999999881 -0.13750000298 -0.014999999665 -0.035000000149 -0.15250000358 -3.9898639947e-17 
-0.20499999821 -0.15250000358 -6.0715321659e-17 0.20000000298 -0.13750000298 -0.014999999665 -2.7755575616e-17 -0.13750000298 -0.014999999665 
0.18500000238 -0.15250000358 6.9388939039e-18 0.014999999665 -0.15250000358 -1.2143064332e-17 0.31999999285 -0.13750000298 -0.014999999665 
0.21999999881 -0.13750000298 -0.014999999665 0.30500000715 -0.15250000358 3.6429192996e-17 0.2349999994 -0.15250000358 2.9490299092e-17 
0.35499998927 -0.15250000358 4.6455895878e-17 0.52499997616 -0.15250000358 8.3963507962e-17 0.34000000358 -0.13750000298 -0.014999999665 
0.54000002146 -0.13750000298 -0.014999999665 0.75999999046 -0.13750000298 -0.014999999665 0.56000000238 -0.13750000298 -0.014999999665 
0.74500000477 -0.15250000358 1.3183898417e-16 0.57499998808 -0.15250000358 1.1449174941e-16 1 0.16750000417 1.8967465851e-16 
0.79500001669 0.16750000417 1.4311468677e-16 1 0.15250000358 -0.014999999665 0.77999997139 0.15250000358 -0.014999999665 
-1 0.16750000417 -2.594917786e-16 -1 0.15250000358 -0.014999999665 -0.85500001907 0.16750000417 -2.2692721619e-16 
-0.83999997377 0.15250000358 -0.014999999665 1 -0.15250000358 1.8967465851e-16 1 -0.13750000298 -0.014999999665 
0.79500001669 -0.15250000358 1.4415551821e-16 0.77999997139 -0.13750000298 -0.014999999665 -1 -0.15250000358 -2.5441455134e-16 
-0.85500001907 -0.15250000358 -2.2169766556e-16 -1 -0.13750000298 -0.014999999665 -0.83999997377 -0.13750000298 -0.014999999665 

POLYGONS 127 378
OFFSETS vtktypeint64
0 3 6 9 12 15 18 21 24 
27 30 33 36 39 42 45 48 51 
54 57 60 63 66 69 72 75 78 
81 84 87 90 93 96 99 102 105 
108 111 114 117 120 123 126 129 132 
135 138 141 144 147 150 153 156 159 
162 165 168 171 174 177 180 183 186 
189 192 195 198 201 204 207 210 213 
216 219 222 225 228 231 234 237 240 
243 246 249 252 255 258 261 264 267 
270 273 276 279 282 285 288 291 294 
297 300 303 306 309 312 315 318 321 
324 327 330 333 336 339 342 345 348 
351 354 357 360 363 366 369 372 375 
378 
CONNECTIVITY vtktypeint64
0 1 2 3 5 4 5 6 4 
7 8 9 10 12 11 12 13 11 
13 14 11 12 10 15 16 17 18 
19 20 21 21 20 22 23 24 25 
26 28 27 28 29 27 29 30 27 
28 26 31 32 33 34 35 36 37 
37 36 38 39 40 41 42 44 43 
44 45 43 45 46 43 44 42 47 
48 49 50 51 52 53 53 52 54 
55 56 57 58 60 59 60 61 59 
61 62 59 60 58 63 64 65 66 
67 68 69 69 68 70 71 72 73 
74 76 75 76 77 75 77 78 75 
76 74 79 80 81 82 83 85 84 
85 86 84 87 88 89 90 92 91 
92 93 91 93 94 91 92 90 95 
96 97 98 98 97 99 100 101 102 
102 101 103 104 105 106 106 105 107 
108 109 110 110 109 111 112 113 114 
114 113 115 116 117 118 118 117 119 
120 121 122 122 121 123 124 125 126 
126 125 127 128 129 130 130 129 131 
132 133 134 135 136 137 137 136 138 
139 140 141 142 144 143 144 145 143 
145 146 143 144 142 147 148 149 150 
151 152 153 153 152 154 155 156 157 
158 160 159 160 161 159 161 162 159 
160 158 163 164 165 166 167 168 169 
169 168 170 171 172 173 174 176 175 
176 177 175 177 178 175 176 174 179 
180 181 182 183 184 185 185 184 186 
187 188 189 190 192 191 192 193 191 
193 194 191 192 190 195 196 197 198 
198 197 199 200 201 202 202 201 203 
204 205 206 206 205 207 208 209 210 
210 209 211 212 213 214 214 213 215 
216 217 218 218 217 219 220 221 222 
222 221 223 224 225 226 226 225 227 
228 230 229 230 231 229 232 233 234 
234 233 235 236 238 237 238 239 237 
240 242 241 242 243 241 244 246 245 
246 247 245 248 250 249 250 251 249 

CELL_DATA 126
FIELD FieldData 4
electrode_index 1 126 int
0 0 0 0 0 0 0 0 1 
1 1 1 1 1 1 1 2 2 
2 2 2 2 2 2 3 3 3 
3 3 3 3 3 4 4 4 4 
4 4 4 4 5 5 5 5 5 
5 5 5 6 6 6 6 6 6 
6 6 6 6 6 6 7 7 7 
7 7 7 8 8 8 8 8 8 
8 8 9 9 9 9 9 9 9 
9 10 10 10 10 10 10 10 10 
11 11 11 11 11 11 11 11 12 
12 13 13 14 14 15 15 16 16 
17 17 18 18 19 19 20 20 21 
21 22 22 22 22 22 22 22 22 

area 1 126 double
0.00074246168205 0.0018031224847 0.0021213202356 0.00074246168205 0.00070000134706 0.0059499999762 0.0026249993145 0.0026249993145 0.00074246168205 
0.0021213205517 0.0018031221686 0.00074246315719 0.0006999992609 0.0059499989331 0.0026250003576 0.0026249993145 0.00074246205084 0.0010606601178 
0.00074246220889 0.00074246168205 0.00070000030398 0.0024500000209 0.00087499959767 0.00087500011921 0.00074246202779 0.0021213203936 0.0018031223365 
0.00074246205084 0.00069999978244 0.0059499994872 0.0026249998687 0.0026249998361 0.00074246205084 0.0021213203541 0.0018031222872 0.00074246205084 
0.00069999978244 0.0059499993242 0.0026249998361 0.0026249997057 0.00074246241962 0.00074246205084 0.0010606602758 0.00074246205084 0.00070000030398 
0.0024499994993 0.00087499907613 0.00087500011921 0.04999999702 0.04999999702 0.034999996424 0.034999996424 0.021213206254 0.021213206254 
0.02121320362 0.02121320362 0.021213198352 0.021213198352 0.021213206254 0.021213206254 0.035000000149 0.035000000149 0.021213202303 
0.021213202303 0.021213202303 0.021213202303 0.00074246241962 0.0010606601178 0.00074246205084 0.00074246168205 0.0006999992609 0.0024499994993 
0.00087500011921 0.00087500011921 0.00074246168205 0.0010606601178 0.00074246205084 0.00074246241962 0.00070000134706 0.0024499994993 0.00087499907613 
0.00087499907613 0.00074246168205 0.0010606598017 0.00074246205084 0.00074246168205 0.00070000134706 0.0024499994993 0.00087499907613 0.00087499907613 
0.00074246168205 0.0010606598017 0.00074246205084 0.00074246168205 0.0006999992609 0.0024499994993 0.00087500116229 0.00087499907613 0.0010606598017 
0.00074246205084 0.0010606598017 0.00074246205084 0.0010606601178 0.00074246205084 0.0010606601178 0.00074246205084 0.0010606602758 0.00074246205084 
0.0021213203541 0.0018031222872 0.0021213203936 0.0018031223365 0.0010606601178 0.00074246220889 0.0018031221686 0.0021213205517 0.0021213202356 
0.0018031224847 0.002174353194 0.0023334527017 0.0015379570601 0.0016970565678 0.002174353194 0.0023334527017 0.0015379570601 0.0016970565678 

potential 1 126 double
0 0 0 0 0 0 0 0 0 
0 0 0 0 0 0 0 0 0 
0 0 0 0 0 0 0 0 0 
0 0 0 0 0 0 0 0 0 
0 0 0 0 0 0 0 0 0 
0 0 0 0 0 0 0 0 0 
0 0 0 0 0 0 0 0 0 
0 0 0 0 0 0 0 0 0 
0 0 0 0 0 0 0 0 0 
0 0 0 0 0 0 0 0 0 
0 0 0 0 0 0 0 0 0 
0 0 0 0 0 0 0 0 0 
0 0 0 0 0 0 0 0 0 
0 1 1 1 1 1 1 1 1 

charge 1 126 double
-0.15615411784 -0.68633175774 -0.23062989237 -1.9810851245 -0.32503133685 -0.19601205986 -0.18281662254 -0.56396900966 -0.063545931116 
-0.061994165164 -0.1121436955 -0.171163128 -0.13836519688 -0.067062625945 -0.088568940392 -0.12326570989 -0.048280739248 -0.029104404079 
-0.030545059732 -0.064155455054 -0.080566451428 -0.038711474828 -0.092273424128 -0.094908670228 -0.034530870164 -0.0064689034228 -0.010541348832 
-0.047365540205 -0.064210772112 -0.030082161591 -0.053858322455 -0.058292343724 -0.043235498885 -0.012487557962 -0.0020563288686 -0.03288124346 
-0.059014715011 -0.029095045275 -0.056546329584 -0.050145235972 -0.058561960343 -0.017499079875 -0.034349916315 -0.042818992163 -0.069195195593 
-0.03554756424 -0.09127262991 -0.076052088198 -0.034932621511 -0.022360142471 -0.045679731978 -0.028081886796 -0.056168989155 -0.02164341893 
-0.074643975284 -0.060361650669 -0.051963739079 -0.024304082597 -0.045027665591 -0.028983979017 -0.037830086813 -0.020967811674 -0.047546900158 
-0.031347131157 -0.050513338351 -0.018704455408 -0.091879801192 -0.069434133127 -0.036317845554 -0.059634674375 -0.085380067545 -0.049108068329 
-0.11719876586 -0.092661716065 -0.14361506439 -0.14153442591 -0.068387951708 -0.072038368772 -0.10458761728 -0.069401122817 -0.15336797942 
-0.10750554903 -0.28482920885 -0.2927084171 -0.14860017365 -0.15440949198 -0.17198399574 -0.12815597497 -0.2616076093 -0.18033265504 
-1.7596000626 -0.99173029665 -0.29817484534 -0.31556981539 -0.35194439399 -0.36721895707 -0.75131713757 -0.35431902491 -0.95988451577 
-1.8084379576 -0.4358220833 -0.61077463442 -0.23408788772 -0.32599753247 -0.13629173557 -0.19211450283 -0.085874922024 -0.12587976316 
-0.047155768535 -0.075444190184 -0.063454801897 -0.066063956138 -0.11470681103 -0.11867684183 -0.16801991544 -0.26720824268 -1.1667128628 
-0.45177593242 5.9130665474 6.1496092264 6.5319533965 6.7386230688 5.9027132584 6.0372035212 6.5029020636 6.6114198237 

