# vtk DataFile Version 5.1
vtk output
ASCII
DATASET STRUCTURED_POINTS
DIMENSIONS 26 26 26
SPACING 0.08 0.08 0.08
ORIGIN -1 -1 0.5
POINT_DATA 17576
FIELD FieldData 1
potential 1 17576 double
0.0063172846292 0.0064012500936 0.0064850082384 0.0065684121076 0.0066513070519 0.0067334931994 0.0068147584466 0.0068948930254 0.0069737493297 
0.0070513965147 0.0071278426352 0.0072032140811 0.0072775581775 0.0073508203049 0.0074228532871 0.0074935107222 0.0075625053931 0.0076298259812 
0.0076954283867 0.0077592921378 0.0078214198478 0.0078817055214 0.0079399880647 0.0079960712186 0.0080499220598 0.008101490996 0.006446778712 
0.0065338292291 0.0066205649903 0.006706926885 0.0067928344991 0.0068782072679 0.0069628263277 0.0070465324018 0.0071289790472 0.007210180131 
0.0072900862607 0.0073688372703 0.0074465390165 0.0075231517221 0.0075985706347 0.007672491387 0.0077447711216 0.0078151971452 0.0078837934588 
0.0079505756847 0.0080154203624 0.008078580647 0.0081397123067 0.0081986446462 0.0082551893316 0.0083092671755 0.0065600029431 0.0066502193386 
0.0067399602539 0.0068292595425 0.0069182422748 0.0070067802266 0.0070947026501 0.0071818327066 0.0072678055574 0.007352414314 0.007435733355 
0.0075177866383 0.0075988257073 0.0076788018222 0.0077574209982 0.0078346955703 0.0079102596379 0.0079838219803 0.0080553991164 0.0081250706547 
0.0081929224836 0.0082589388448 0.0083229471105 0.0083846890278 0.0084438976466 0.008500208718 0.0066657061789 0.0067590034601 0.0068518446207 
0.0069443630377 0.0070364839916 0.0071283025431 0.007219681897 0.0073103115897 0.0073998332313 0.0074878328478 0.0075746036405 0.0076601367963 
0.0077445757701 0.0078279770381 0.0079102344747 0.0079909974797 0.008069889281 0.0081466911077 0.0082213125348 0.0082939685197 0.0083645134832 
0.0084334740574 0.0085004476192 0.0085650845301 0.0086270522706 0.0086861589041 0.0067734260262 0.0068702027655 0.0069664849382 0.0070623653905 
0.0071578369672 0.0072532029985 0.0073481933987 0.0074424834138 0.0075357569978 0.007627735605 0.0077182576782 0.0078074595819 0.0078955322063 
0.0079825438331 0.0080684164057 0.0081527968751 0.0082350412757 0.008315349214 0.0083933352163 0.0084692132121 0.0085431478911 0.0086152395033 
0.0086853055025 0.0087530414659 0.0088179429493 0.0088798049523 0.006891726538 0.0069923635235 0.0070925484292 0.007192340722 0.0072918061978 
0.0073910144438 0.0074899898721 0.0075883752564 0.0076858054121 0.0077819544075 0.0078766055977 0.0079698387641 0.0080618950348 0.0081526035009 
0.0082424439765 0.0083307980901 0.0084172129368 0.0085013157655 0.0085830721808 0.0086625617031 0.0087399825066 0.0088154500051 0.0088888273433 
0.0089598121116 0.009027869267 0.0090927844594 0.0070274315027 0.0071324498966 0.0072371043127 0.0073412815426 0.0074451546398 0.0075488080388 
0.0076521184372 0.0077550656287 0.0078569998417 0.0079575012187 0.0080567593758 0.0081545946818 0.0082511465708 0.0083465158619 0.0084407026613 
0.0085333867302 0.0086241741992 0.0087126014401 0.0087985029764 0.0088819837441 0.0089632696109 0.0090424827941 0.0091195541763 0.0091940473125 
0.0092656316582 0.0093339474997 0.0071843741842 0.0072943325473 0.0074039227343 0.0075131515847 0.0076220305253 0.0077305998063 0.0078387021654 
0.0079465620584 0.0080536449233 0.0081594850598 0.0082639684421 0.008366946186 0.0084685429366 0.0085688677552 0.008667940694 0.0087654187352 
0.008860940621 0.0089540861841 0.0090447362523 0.0091328413414 0.0092185250686 0.0093018911257 0.0093829148445 0.0094613703986 0.0095369048942 
0.009609019108 0.0073643493177 0.0074797702077 0.0075949386611 0.0077095797449 0.007824138042 0.0079383156125 0.0080522384836 0.0081656739831 
0.0082784028869 0.008390043564 0.0085003088472 0.0086090358029 0.0087163733142 0.0088221867339 0.0089266178812 0.0090293215329 0.0091300883941 
0.0092285538602 0.0093244764576 0.0094177135908 0.009508337152 0.0095964892942 0.0096820245122 0.0097649513165 0.0098446248873 0.0099208778948 
0.0075675465517 0.007689084001 0.007810567765 0.0079317594829 0.008052560002 0.0081730492915 0.0082932373853 0.0084129664821 0.0085320723413 
0.0086500837368 0.0087667731817 0.0088818622866 0.0089953449853 0.0091072832172 0.0092177140912 0.0093264557292 0.0094331653506 0.0095374857985 
0.009639147983 0.0097380076943 0.0098340886711 0.009927582328 0.01001820304 0.010105852925 0.010190340414 0.010271281293 0.0077946769778 
0.0079230237854 0.0080513359489 0.0081794146582 0.0083071715238 0.0084347118738 0.0085620026051 0.0086887592251 0.0088148875804 0.0089399146185 
0.009063509716 0.0091856070705 0.0093060157227 0.0094248660991 0.0095420467033 0.0096574246673 0.0097706464865 0.0098814415855 0.0099894430737 
0.010094542387 0.010196788109 0.010295939074 0.010392132351 0.010485295045 0.010574996968 0.010660976464 0.0080455430874 0.0081813298221 
0.0083171722288 0.0084528716764 0.0085884399371 0.0087237562942 0.0088587314025 0.008993305278 0.0091271613579 0.0092599127789 0.0093912258001 
0.0095210384191 0.0096491481814 0.0097755919047 0.0099002703384 0.010023019422 0.010143472567 0.010261363071 0.01037645705 0.010488347617 
0.010597038823 0.01070271439 0.010805203707 0.01090434097 0.010999831524 0.011091498893 0.0083207165622 0.008464648063 0.0086088342469 
0.0087529554479 0.0088969954098 0.0090409348346 0.0091845333432 0.0093277284851 0.0094701239319 0.0096113249875 0.0097512146048 0.0098894780276 
0.010026067398 0.010160937277 0.010293622194 0.010424492795 0.010552980227 0.010678707943 0.010801232692 0.010920612458 0.011036746444 
0.011149766209 0.011259211498 0.011365007266 0.011466882486 0.011564532406 0.0086215923358 0.008774505939 0.0089277581336 0.0090811159095 
0.0092345399292 0.009387951646 0.0095411802806 0.0096935836253 0.0098453786822 0.0099960209701 0.010145175464 0.010292768794 0.010438769648 
0.010582957652 0.010725203045 0.010865137083 0.01100236343 0.011136309506 0.011267240291 0.011394840497 0.011519095633 0.011640100362 
0.011757202274 0.011870362941 0.011979188707 0.012083328594 0.0089501837799 0.0091130300373 0.0092761812382 0.009439613124 0.0096034340694 
0.0097674192644 0.0099311512672 0.0100943426 0.010256537098 0.010417429303 0.010576842567 0.010734756403 0.010891143081 0.0110458358 
0.011198179704 0.011347894295 0.011494576044 0.011638148313 0.011778270641 0.01191500455 0.012048353597 0.012178048716 0.012303715403 
0.012424819727 0.01254128858 0.012652790781 0.0093094784403 0.0094830778724 0.0096573194762 0.009832117726 0.010007542212 0.010183201406 
0.010358806921 0.010533616027 0.010707234391 0.010879385589 0.011050129081 0.011219447772 0.011387292116 0.011553532426 0.011717327031 
0.011878060001 0.012035380195 0.012189130584 0.012339354826 0.012486208634 0.01262961347 0.012769219719 0.012904256191 0.013034410824 
0.013159221455 0.013278558274 0.009703385862 0.009889023199 0.010075393029 0.010262739364 0.010450959859 0.010639785229 0.010828434624 
0.011016162895 0.011202370412 0.011386978286 0.011570432443 0.011752342418 0.011933154465 0.012112235916 0.012288585447 0.012461511914 
0.012630502713 0.012795630628 0.012957006617 0.013115053611 0.013269728995 0.013419760847 0.013565418039 0.013705330211 0.013839367905 
0.01396753244 0.010136275887 0.010335176357 0.01053502106 0.01073620162 0.010938831334 0.011142239644 0.011345571887 0.01154760595 
0.011747847401 0.011946288777 0.012143446264 0.012339652039 0.01253492144 0.012728256463 0.012918717587 0.013104746653 0.013286748241 
0.013464363964 0.013638225621 0.013808821321 0.013975807071 0.014138624959 0.01429588623 0.014446769912 0.014590910223 0.014728782507 
0.010612390051 0.010826031875 0.01104083422 0.011257670543 0.011476176894 0.011695817307 0.011915250615 0.01213307525 0.012349066105 
0.012562694806 0.012775410586 0.012987470044 0.013198595571 0.01340792664 0.013614017691 0.013815599145 0.014011999542 0.014203644782 
0.014391416039 0.014575746952 0.014756638563 0.014932993257 0.015103286493 0.015266316049 0.01542215004 0.015570823812 0.01113445878 
0.011364639128 0.01159634705 0.011830303702 0.012066489155 0.012303590438 0.012541182976 0.012776936178 0.013010339226 0.013241680435 
0.013471785449 0.013701272233 0.01393006671 0.014156985587 0.014380392026 0.014598975535 0.014811699336 0.015019076875 0.0152221699 
0.015421906528 0.015618059535 0.015809311783 0.015993864967 0.016170340802 0.01633868325 0.016499378537 0.011702001928 0.011950279601 
0.012201197166 0.012454204523 0.01270972037 0.012966632414 0.013223592814 0.013478911206 0.013732130393 0.013982881193 0.014232355199 
0.014481262024 0.014729424276 0.014975615693 0.01521789249 0.015454725637 0.015685448059 0.015910249926 0.016130717852 0.016347607257 
0.016560370535 0.016767761125 0.016968005759 0.017159454647 0.01734181532 0.01751605913 0.012308975998 0.012577855082 0.012848941827 
0.013123094645 0.01339952391 0.013677681902 0.013955840317 0.014232456405 0.014506806397 0.014779068467 0.015049940509 0.015320086635 
0.015589236409 0.015856199108 0.016119012273 0.016376124676 0.016626632929 0.016871186387 0.017110773438 0.017346021188 0.017576681568 
0.017801438949 0.018018521836 0.018226161406 0.01842417143 0.018613463026 0.012942835702 0.013233640156 0.013527002662 0.013823222184 
0.014122204311 0.014422857088 0.01472366863 0.015023230455 0.015320828899 0.015616315904 0.015910408803 0.01620347114 0.016495180858 
0.016784238418 0.017069002727 0.017347755328 0.017620057037 0.01788598788 0.01814629161 0.018401425732 0.018651208821 0.018894240786 
0.019128920186 0.019353915813 0.019568804556 0.01977476365 0.013584844174 0.013898854989 0.014215773277 0.014535830585 0.014858448759 
0.015182746935 0.015507356513 0.015831141597 0.016153193922 0.01647348428 0.016792225637 0.017109595778 0.017424978364 0.017737431605 
0.018045228342 0.018347106556 0.018642381682 0.01893110396 0.019213520966 0.019489797962 0.019759474997 0.020021680382 0.020274921053 
0.020518087849 0.02075090649 0.020974088502 0.014214641803 0.014552581063 0.014893911177 0.015238560726 0.015585698939 0.015934552152 
0.01628390779 0.016632753514 0.016980276203 0.017326240692 0.017670617281 0.018013221763 0.018353393071 0.0186901978 0.019022051735 
0.019347986354 0.019667176095 0.019979376829 0.020284640222 0.020582902599 0.020873657302 0.021155727174 0.021428109247 0.021690467662 
0.021941626993 0.022182484504 0.014813718975 0.015176025514 0.015542277198 0.015911821619 0.01628404499 0.016658028443 0.017032771106 
0.017407231822 0.017780789169 0.01815306388 0.0185238413 0.018892386014 0.019258037115 0.019619811418 0.019976510911 0.020326952802 
0.020670754814 0.0210075483 0.021336543019 0.021657457498 0.021969596433 0.022272141889 0.022564297705 0.022845163081 0.023114879291 
0.023373683163 0.0070623401063 0.0071556134396 0.0072486298612 0.0073412423466 0.0074332745599 0.0075245536683 0.0076149375597 0.0077042270744 
0.0077923182215 0.007879205467 0.0079648472226 0.008049226654 0.0081323584274 0.0082141797871 0.0082945875993 0.0083733705841 0.0084505511038 
0.0085258429508 0.0085992378898 0.0086706676973 0.0087400947768 0.0088074346583 0.0088724973196 0.0089352025725 0.0089954972177 0.0090532998792 
0.0072274265425 0.0073245728699 0.0074214055898 0.0075178311887 0.0076137229342 0.007708979785 0.0078034180403 0.0078969357151 0.0079892217059 
0.0080803155712 0.0081700650974 0.0082585224393 0.0083457047731 0.0084315208749 0.0085158961454 0.0085986440375 0.008679592986 0.0087586165845 
0.0088356346744 0.0089106042481 0.0089835003955 0.0090540785713 0.009122486322 0.0091884667889 0.0092519112663 0.009312668289 0.0073837384677 
0.0074849280367 0.007585705398 0.0076860314086 0.0077859385216 0.007885249512 0.0079838037016 0.0080814497723 0.0081780839652 0.0082733455362 
0.0083673230095 0.0084599513323 0.008551228901 0.0086411624177 0.0087294688616 0.0088162244729 0.0089011535315 0.0089840198708 0.0090647671517 
0.0091433895983 0.0092198355522 0.0092940311346 0.0093658840052 0.0094351730001 0.0095017831559 0.0095653434744 0.0075370953529 0.0076423116326 
0.0077472222855 0.0078516973404 0.0079558103245 0.0080593684783 0.0081622874624 0.008264330538 0.0083653101505 0.0084648257405 0.0085631250685 
0.0086601251046 0.0087557461437 0.0088499620589 0.0089426654243 0.0090336505102 0.0091227026929 0.0092095942539 0.0092942389352 0.0093766252297 
0.009456797095 0.0095343829037 0.0096098035077 0.0096825955704 0.0097525470857 0.0098195102422 0.0076939102374 0.007803566587 0.0079128817368 
0.008021842679 0.0081302645866 0.0082383994914 0.0083459239992 0.0084526243278 0.008558205415 0.0086625641375 0.0087655509436 0.0088671473897 
0.0089673504483 0.0090661103476 0.0091633251592 0.0092587544177 0.0093519237664 0.0094431249615 0.0095319563824 0.0096184362056 0.0097025552123 
0.00978429666 0.0098635081523 0.0099400197569 0.010013534948 0.010083892869 0.0078602595038 0.0079747292834 0.0080889255487 0.008202811031 
0.008316292741 0.0084293000635 0.0085417955502 0.0086534925117 0.0087641814202 0.0088736919517 0.0089817125884 0.0090882933709 0.0091934721069 
0.0092968651615 0.0093989460749 0.0094992206681 0.0095973689084 0.0096932161547 0.0097866253355 0.0098775085516 0.0099659876998 0.010051923083 
0.010135225054 0.010215652875 0.010292964393 0.010367006406 0.0080416345304 0.0081614313164 0.0082810266187 0.0084002952999 0.0085191599228 
0.0086376420175 0.0087555403688 0.0088727820941 0.0089889914927 0.009103696742 0.0092172699839 0.0093293590567 0.0094399580181 0.0095489948163 
0.0096563797948 0.0097619047629 0.0098652664373 0.0099662551567 0.01006464148 0.010160367705 0.010253468039 0.010343970829 0.010431715069 
0.010516460368 0.010597975324 0.010676035197 0.0082415661199 0.008367252524 0.0084927552467 0.0086179636908 0.0087428242229 0.0088672241517 
0.0089909679357 0.0091141896466 0.0092365000077 0.0093575437403 0.0094772142768 0.0095953651237 0.0097119700135 0.0098268953185 0.0099401583987 
0.010051416939 0.010160457795 0.010266946561 0.010370836797 0.010471979685 0.010570310417 0.010665820196 0.010758377039 0.010847839459 
0.010933934804 0.011016505254 0.0084624184451 0.0085945383999 0.0087266051205 0.0088581138387 0.0089896652062 0.0091207147277 0.0092512799657 
0.0093811466029 0.0095100833713 0.0096378619079 0.0097642553382 0.0098890696229 0.010012318217 0.010133743074 0.010253371882 0.010370852965 
0.010486075943 0.010598783855 0.010708739738 0.010815779967 0.010919899805 0.011020968378 0.011118900307 0.011213625711 0.011304696056 
0.011392024854 0.0087052887507 0.0088444537986 0.0089837421712 0.0091228772307 0.009261636259 0.009400024231 0.009537910014 0.0096751520497 
0.0098114644457 0.0099466718 0.010080463761 0.010212586437 0.010343011594 0.010471580344 0.010598145745 0.01072266094 0.010844777107 
0.010964216453 0.01108078497 0.011194297227 0.011304721914 0.011411999701 0.0115158624 0.011616262581 0.011712791271 0.011805428221 
0.0089715559145 0.0091186566947 0.0092658292858 0.0094128771563 0.0095596815427 0.0097061481111 0.0098522219428 0.0099975349592 0.010141965339 
0.010285251669 0.010427004376 0.010567175157 0.010705493548 0.01084197521 0.010976395912 0.011108563502 0.011238200447 0.011365071645 
0.011488903103 0.011609549115 0.011726949866 0.011840864863 0.011951145245 0.012057802217 0.012160472086 0.012258906583 0.0092620041905 
0.0094176589629 0.0095734569083 0.0097292386953 0.0098849347407 0.010040303289 0.010195187013 0.010349482338 0.010502763787 0.010654869502 
0.010805454335 0.010954431741 0.0111015435 0.011246697303 0.011389675327 0.011530271706 0.01166818384 0.01180319894 0.011935037919 
0.01206352856 0.012188361306 0.01230963854 0.012427129508 0.012540661918 0.012649912394 0.012754840758 0.0095775374759 0.0097425342128 
0.009907872213 0.010073262899 0.01023860416 0.010403693029 0.010568380628 0.010732414871 0.01089549605 0.011057254137 0.011217646865 
0.011376272543 0.011533012348 0.011687681012 0.011840042717 0.011989877521 0.012136911601 0.012280919797 0.012421466918 0.01255836209 
0.012691585291 0.01282085163 0.012946213761 0.013067262665 0.013183844989 0.013295705841 0.0099196458495 0.010094931799 0.010270631895 
0.010446519101 0.010622461162 0.010798277591 0.01097373563 0.011148527773 0.011321976664 0.01149450564 0.011665465347 0.011834673594 
0.012001979114 0.01216718462 0.012329959148 0.012489993842 0.012647042738 0.012800612533 0.012950507524 0.013096786356 0.013239195816 
0.013377642098 0.013511631992 0.013641030022 0.013765608121 0.013884909826 0.010290331565 0.01047683899 0.010663876153 0.01085109678 
0.011038694703 0.011226300462 0.011413575891 0.011600062668 0.011785586461 0.011969815931 0.012152446036 0.012333317352 0.012512262996 
0.012689122141 0.012863254026 0.013034245316 0.0132020142 0.013366392496 0.013526922372 0.013683508967 0.013836090115 0.013984199811 
0.014127673447 0.014266212844 0.014399319441 0.01452707373 0.010691826897 0.010890537201 0.011090034441 0.011290104509 0.011490545385 
0.011691061148 0.011891390158 0.012090917819 0.012289355558 0.01248635054 0.012681798352 0.012875470707 0.013067305722 0.013256716289 
0.013443450316 0.013626849928 0.013806676908 0.013982654549 0.014154646772 0.014322569814 0.014486237779 0.014645282678 0.014799165942 
0.014947652174 0.01509039751 0.015227202799 0.011127092964 0.011339359871 0.011552509441 0.01176645388 0.011981052462 0.012195932144 
0.012410561238 0.012624411885 0.012836980245 0.013048056119 0.013257684712 0.01346547193 0.013671377125 0.01387494294 0.014075444349 
0.014272400443 0.01446538467 0.014654233299 0.014838865107 0.01501924347 0.01519516172 0.01536605524 0.015531106979 0.015690653589 
0.015843750488 0.015990579591 0.011598928486 0.011825985455 0.012054201467 0.012283413436 0.012513616505 0.012744252443 0.012974690348 
0.013204347716 0.013432538405 0.013659107982 0.013884182149 0.014107577751 0.014329149112 0.01454813914 0.014763911599 0.014975348382 
0.015182848841 0.015385890653 0.015584447325 0.015778569717 0.015967859663 0.016151994974 0.016330045819 0.016501601326 0.016666270185 
0.016824146476 0.012109566748 0.012352900444 0.012597536033 0.012843678527 0.013091082225 0.013339049576 0.01358690329 0.013833737079 
0.014079096113 0.014322478584 0.014564644676 0.014805302924 0.015043939184 0.015279977661 0.015512565488 0.015740887511 0.015964363298 
0.016182998369 0.016396905956 0.016606036157 0.016810193434 0.017008716587 0.017200784536 0.017385600591 0.017563269531 0.017733281019 
0.012659738215 0.012921060586 0.013183844265 0.013448474822 0.013714570121 0.013981101764 0.014247808983 0.014514114725 0.014778456383 
0.015041126254 0.01530218812 0.015561580356 0.015819035164 0.016073725983 0.016324700342 0.016571470349 0.016812567009 0.017048426094 
0.017279052353 0.017504744467 0.017725151332 0.017939464392 0.018146652464 0.018346034021 0.018537411717 0.01872067518 0.013247893107 
0.013528181399 0.013811585373 0.014096395616 0.014382882742 0.014670331921 0.014957925778 0.015244549118 0.015530007762 0.015813368229 
0.016095119774 0.01637516528 0.016653148053 0.016928188379 0.01719923938 0.017465259439 0.017725728917 0.017980356107 0.018229501091 
0.018473491123 0.018711534606 0.018942939415 0.019166691036 0.0193820565 0.01958852824 0.019786374677 0.013868835422 0.014170809243 
0.014475193498 0.014782148442 0.015090666467 0.015400465235 0.015710405869 0.016019507428 0.01632717519 0.016633199311 0.016937408892 
0.017239851305 0.017540035221 0.017837106383 0.01812982838 0.018417249088 0.018698619911 0.018973958463 0.019243384096 0.019506800136 
0.019763859705 0.020013733263 0.0202554268 0.020487907156 0.020710916007 0.020924554291 0.014513566696 0.014838388684 0.015165868478 
0.015495868286 0.015828129997 0.016161685452 0.016495563636 0.016828823572 0.017160810673 0.017491046254 0.01781955301 0.018146091093 
0.018470146054 0.018790708158 0.019106741455 0.01941711828 0.019721193345 0.020018863061 0.020309988179 0.020594431544 0.020871881042 
0.021141343146 0.021401883266 0.021652691385 0.021893594166 0.02212427658 0.015169961439 0.015518836099 0.015870843857 0.016225743839 
0.01658303138 0.016941712683 0.017300967635 0.01765987196 0.018017588786 0.018373780335 0.018728143731 0.019080354324 0.019429673991 
0.019775290174 0.020115987598 0.020450834744 0.02077918438 0.021100605169 0.021414980948 0.021721940859 0.022020897941 0.022310993275 
0.022591589774 0.022861812048 0.023121353314 0.023370261086 0.01582528788 0.016199343882 0.016577102261 0.016958155442 0.017341653884 
0.017726830647 0.018112775929 0.018498624292 0.018883486891 0.019266967131 0.019648583506 0.020027811089 0.020403876073 0.020775865906 
0.021142780304 0.021503547486 0.021857438304 0.022203899297 0.02254257524 0.022873092314 0.023194806133 0.023506896868 0.023808509345 
0.02409939185 0.02437874253 0.024646594908 0.01646864327 0.016868944045 0.017273538774 0.01768161245 0.018092507041 0.018505346114 
0.018919238066 0.019333205268 0.019746536921 0.020158610088 0.02056880916 0.020976497159 0.021380708769 0.021780391421 0.022174721182 
0.022562471606 0.02294321807 0.023316384071 0.023680870439 0.024036209787 0.024381731426 0.024716668432 0.025040435725 0.02535216423 
0.025651841517 0.025939333808 0.0078205534027 0.0079232415761 0.0080256576586 0.0081276050849 0.0082289337821 0.0083294744211 0.0084291048981 
0.0085276671052 0.0086250360732 0.0087211606241 0.0088159601004 0.008909381512 0.0090013600727 0.0090918441061 0.0091807172317 0.0092678370012 
0.009353092946 0.0094364552394 0.0095176601913 0.0095966815103 0.0096734639277 0.0097479186329 0.0098198701315 0.009889216663 0.0099559545835 
0.010019988194 0.0080173512632 0.0081246282653 0.0082315781725 0.0083380826075 0.0084439992067 0.0085492214848 0.0086535664215 0.0087569710154 
0.0088591233148 0.0089600474087 0.0090595752034 0.0091576874977 0.0092543305539 0.0093494258359 0.0094428296947 0.0095344575716 0.0096240925384 
0.009711689545 0.0097970943075 0.0098802034204 0.0099609828439 0.010039162919 0.01011491977 0.010187997855 0.010258314327 0.010325721179 
0.0082108315054 0.0083228363883 0.0084346476641 0.0085458794196 0.0086566127657 0.0087666637219 0.0088758883788 0.0089841291883 0.0090912694693 
0.0091971364247 0.0093015911811 0.0094045843435 0.0095060377128 0.0096058888049 0.0097039159979 0.0098001827877 0.0098944257572 0.009986502928 
0.010076277403 0.010163663074 0.010248621232 0.010331007079 0.01041071414 0.010487623271 0.01056159627 0.010632280321 0.0084050863316 
0.008522061366 0.0086387570398 0.0087550118524 0.0088708400513 0.0089859833745 0.0091003788593 0.0092138034924 0.0093261254959 0.0094369923735 
0.0095465371471 0.0096546616573 0.0097612437646 0.0098661530216 0.0099692880055 0.010070486535 0.010169581738 0.010266367588 0.010360740497 
0.010452609761 0.010541950885 0.010628333537 0.010712218006 0.010793175191 0.01087102553 0.010945649691 0.0086045153773 0.0087268693017 
0.0088488647305 0.0089705131743 0.0090915524856 0.009212174928 0.0093320249612 0.0094509993327 0.0095687861124 0.0096852463254 0.0098003329506 
0.0099139062926 0.010025887616 0.010136146459 0.010244577516 0.010351013553 0.01045519914 0.010556783828 0.010656082861 0.010752781338 
0.010846787312 0.010938007771 0.011026348227 0.011111586115 0.011193594956 0.011272202323 0.0088137738247 0.0089417589023 0.0090695417337 
0.0091970122822 0.0093240509516 0.0094504986183 0.0095762304256 0.0097010705011 0.0098247883763 0.0099472736117 0.010068274694 0.010187695009 
0.010305509616 0.010421256097 0.010535380917 0.010647432508 0.010757165122 0.010864435153 0.010969040945 0.011070922199 0.011170005394 
0.011266141436 0.011359214284 0.011449090382 0.011535487302 0.011618364298 0.009037058467 0.0091713016856 0.009305370324 0.0094391847248 
0.0095725181623 0.0097053560268 0.0098374774023 0.0099687162224 0.010098927386 0.01022749371 0.010354897388 0.010480685819 0.010604798165 
0.010727064082 0.010847361156 0.010965522806 0.011081241438 0.011194432016 0.011304820605 0.011412278364 0.011516756846 0.011618201457 
0.011716456328 0.011811295941 0.011902563827 0.011990062275 0.0092776687138 0.0094186992887 0.0095595962146 0.0097002286916 0.0098405120629 
0.0099802857444 0.010119116791 0.010257339918 0.010394521948 0.01053035334 0.010664732527 0.010797502455 0.010928486466 0.011057545255 
0.011184576781 0.011309370494 0.011431649452 0.011551195003 0.011667792557 0.011781421184 0.011891893424 0.011999104282 0.012102982197 
0.012203229659 0.012299739989 0.012392375595 0.0095379558732 0.0096863647929 0.0098347493036 0.0099826370496 0.010130531074 0.010277873092 
0.010424564676 0.010570446045 0.010715220224 0.010858670385 0.011000686151 0.011141003693 0.011279471035 0.011416042064 0.011550369482 
0.011682345248 0.011811675483 0.011938168479 0.012061683455 0.012182047924 0.01229907795 0.012412638935 0.012522594538 0.0126288187 
0.012731051315 0.012829102563 0.0098194796307 0.0099758947621 0.010132447908 0.010288925642 0.010445049159 0.01060067375 0.010755684576 
0.010909902791 0.011063017066 0.011214886054 0.011365240267 0.011513864239 0.011660540012 0.011805096007 0.011947350281 0.012087198323 
0.012224319704 0.012358464484 0.012489466287 0.012617094484 0.01274128425 0.012861770225 0.012978521316 0.0130912121 0.013199613948 
0.013303609127 0.010124084517 0.010289433651 0.010454932231 0.010620315915 0.010785444059 0.010950183461 0.011114328884 0.01127771214 
0.011439974513 0.011600975935 0.011760348928 0.011917914712 0.012073475101 0.012226934779 0.012378005525 0.012526472229 0.012672077697 
0.012814560452 0.012953718712 0.01308932449 0.013221352061 0.013349409904 0.01347335447 0.013593100305 0.013708336905 0.013818916203 
0.010453005891 0.010627933346 0.010803106783 0.010978296436 0.011153295777 0.011328054009 0.011502152092 0.01167550386 0.011847697669 
0.01201858313 0.012187891532 0.012355276982 0.012520665953 0.012683819159 0.012844468257 0.013002367664 0.013157217964 0.013308815334 
0.013456895288 0.013601357337 0.013741766044 0.013877969487 0.014009939592 0.014137404254 0.014260074096 0.014377833499 0.010807344291 
0.010992769534 0.01117848735 0.011364454842 0.011550280543 0.011735833124 0.011920796311 0.012105004139 0.012288131702 0.012469820466 
0.012649966941 0.012828173663 0.01300427235 0.013177998128 0.01334910218 0.013517314362 0.013682330256 0.01384390929 0.014001790104 
0.014155579562 0.014305258478 0.014450568027 0.014591132856 0.014727016863 0.014857836463 0.014983390151 0.011188729782 0.011385557803 
0.011582887871 0.011780448835 0.011978057035 0.012175431795 0.012372353089 0.01256848457 0.012763164592 0.012956786323 0.013148724878 
0.013338717372 0.013526508876 0.013711881902 0.01389444329 0.014073967376 0.014250102427 0.014422507862 0.01459069171 0.014754928345 
0.014914729455 0.015070040919 0.015220307614 0.015365410158 0.015505140557 0.015639033356 0.011598883771 0.011808175103 0.012018081842 
0.012228369597 0.012438631193 0.01264898304 0.012858893813 0.013067948726 0.013275948323 0.013482574689 0.013687430202 0.013890289343 
0.014090886369 0.014288989013 0.014484160947 0.014676001401 0.014863876013 0.015048161589 0.015228199308 0.015403777248 0.015574731827 
0.015740706131 0.015901412592 0.016056604541 0.016205822433 0.016349113449 0.012039769179 0.012262484336 0.012486072692 0.012710284814 
0.01293478472 0.0131593184 0.013383379662 0.013606777925 0.013829011089 0.014049734081 0.014268706665 0.014485698456 0.014700413102 
0.01491227109 0.015121130834 0.015326340359 0.01552771006 0.015724884636 0.01591758936 0.016105716249 0.016288778626 0.016466587058 
0.016638798717 0.01680480208 0.016964644593 0.017118029222 0.012513241303 0.012750886796 0.012989498008 0.013228867556 0.013468811802 
0.013708778281 0.013948492819 0.01418745815 0.014425192615 0.014661401558 0.014895930928 0.015128271309 0.015358286811 0.015585502408 
0.015809306744 0.016029368558 0.016245198069 0.01645649958 0.016663166514 0.016864755387 0.017061171063 0.017251962146 0.017436088701 
0.017614327509 0.01778562828 0.017950052421 0.013021440896 0.013275199756 0.013530211804 0.013786198966 0.014042841516 0.014299822884 
0.014556560713 0.014812638989 0.015067386252 0.015320560416 0.015571886077 0.015821162906 0.01606801725 0.016311868588 0.01655216371 
0.016787945608 0.017019612254 0.017246483405 0.017468281503 0.01768480164 0.017895652685 0.01810056764 0.018298812584 0.018490132219 
0.018674108383 0.018850617157 0.013565391092 0.013836729253 0.014109537024 0.014383584143 0.014658748258 0.014934198804 0.015209589332 
0.015484139604 0.015757411462 0.016029161793 0.016298615937 0.016566443664 0.016831619458 0.017093700012 0.017351987066 0.017605866946 
0.017854879367 0.018098694636 0.018337136093 0.018569837871 0.018796692104 0.019016881903 0.01923013949 0.019435779359 0.019633490793 
0.019823511832 0.014144973259 0.014435549697 0.014727732519 0.015021514918 0.015316488833 0.015611745266 0.015907310504 0.016202112198 
0.016496074589 0.016788068298 0.017078143555 0.01736603624 0.017651256904 0.01793315115 0.01821115715 0.018484681323 0.018752544582 
0.019014880623 0.019271286679 0.019521730999 0.019765808235 0.020002892726 0.020232270542 0.020453507993 0.020666228293 0.020870387326 
0.014758584428 0.015069275424 0.015382757389 0.015698393953 0.016014977869 0.016332327963 0.016649876455 0.016966736169 0.01728272791 
0.017596721402 0.017908858724 0.018218609491 0.018525601613 0.018829063449 0.019128298583 0.019422372484 0.019710879559 0.019993344343 
0.020269517396 0.02053928783 0.020802109323 0.021057353035 0.021304337695 0.021542508459 0.021771525378 0.021991149244 0.015402152718 
0.015735671096 0.016071719353 0.016410235519 0.016750053689 0.017091018532 0.017432153079 0.017772813828 0.018112307063 0.018450224268 
0.018786072224 0.019119552159 0.019450056848 0.019776870903 0.020099031044 0.020415823416 0.020726660352 0.021030752894 0.021328352473 
0.021618932404 0.021901953954 0.022176906177 0.022442853328 0.022699271326 0.022945762513 0.023182192007 0.016069648603 0.016427115757 
0.01678746719 0.017150219601 0.017515074601 0.017881196483 0.018247742926 0.018613901647 0.018979054623 0.019342563292 0.019704033829 
0.020063014064 0.02041885325 0.020770609122 0.021117534339 0.02145874299 0.021793318004 0.022121179024 0.02244177271 0.022754675881 