# vtk DataFile Version 5.1
vtk output
ASCII
DATASET STRUCTURED_POINTS
DIMENSIONS 26 26 26
SPACING 0.08 0.08 0.08
ORIGIN -1 -1 0.5
POINT_DATA 17576
FIELD FieldData 3
potential 1 17576 double
0.43022589924 0.43002166694 0.42978436804 0.42953655383 0.42931091484 0.42913806031 0.42903385733 0.42899631492 0.42900641595 
0.42904013672 0.42908032174 0.42912197916 0.42916908054 0.42922854778 0.42930072222 0.42937779293 0.4294455811 0.42949413102 
0.42952348001 0.4295456713 0.42957697794 0.42962807365 0.42969877173 0.42977608224 0.4298406851 0.42987826425 0.39278627207 
0.39261947367 0.39241706349 0.39220260612 0.3920113943 0.39187180567 0.39179592268 0.39177370477 0.39178121594 0.39179404865 
0.39180252728 0.39181292352 0.39183845934 0.3918891616 0.39196255309 0.3920417546 0.39210694805 0.39214339615 0.39215559266 
0.39216178146 0.39218403652 0.39223462986 0.39230869319 0.39238571041 0.39244206493 0.39246270269 0.35717023617 0.35703932216 
0.35686514413 0.35667482735 0.35650690876 0.35639430073 0.35634587772 0.3563436664 0.35635663628 0.35635785127 0.35634058858 
0.35632090775 0.35632415749 0.35636603509 0.3564418362 0.3565274584 0.35659250155 0.35661893613 0.3566120818 0.35659875719 
0.35660815835 0.3566565273 0.35673523721 0.35681651755 0.35686927307 0.35687508101 0.32422677848 0.3241292572 0.32397919145 
0.32380560129 0.32365422393 0.32356181709 0.32353718598 0.32355662924 0.32358037621 0.32357586989 0.32353943127 0.32349384186 
0.32347592641 0.32350766897 0.32358603791 0.32367941296 0.32374681915 0.32376555323 0.32374169837 0.32370784898 0.32370203219 
0.32374646035 0.32382987177 0.32391770199 0.32396950141 0.32396541956 0.29466548099 0.29459688847 0.29446848039 0.29431006033 
0.29417160846 0.29409406272 0.29408755167 0.29412514454 0.29415964461 0.29415446074 0.29410560463 0.29404233108 0.29400623772 
0.29402859562 0.2941062278 0.29420416647 0.29427401201 0.29428814949 0.29425168376 0.2942014016 0.29418211153 0.29421997145 
0.29430491755 0.2943972456 0.29445000771 0.29443945512 0.26896410793 0.26891960021 0.26881242802 0.26867102291 0.26854544781 
0.26847982797 0.26848350586 0.26853082901 0.26857219503 0.26856905489 0.26851677522 0.26844504313 0.26839901511 0.26841159881 
0.26848318763 0.26857910906 0.268648683 0.26866115632 0.26861906056 0.2685605734 0.26853146824 0.2685615688 0.26864238925 
0.26873309677 0.26878570549 0.26877348399 0.24731972418 0.2472913092 0.24720563163 0.24708607321 0.24697732626 0.24692082114 
0.24692899338 0.24697521394 0.24701720824 0.24701711656 0.24696874889 0.24689872481 0.2468503158 0.24685523618 0.24691693482 
0.24700252787 0.24706659869 0.24707812728 0.24703866529 0.24698072616 0.24694844862 0.24697033477 0.24704101268 0.24712361282 
0.24717201747 0.2471614506 0.22966506607 0.22964688582 0.22958110004 0.22948526285 0.22939681482 0.22934980457 0.2293560185 
0.22939569048 0.22943136629 0.22943264019 0.22939267272 0.22933286461 0.22928888385 0.22928992271 0.22933789947 0.22940777314 
0.22946180093 0.22947254092 0.22944026637 0.22939079091 0.22936113353 0.2293761785 0.22943320503 0.22950116633 0.22954176477 
0.22953417049 0.21574300674 0.21573013604 0.21568074771 0.21560851602 0.21554060157 0.21550392759 0.21550683938 0.21553498433 
0.21556129253 0.21556179175 0.21553127368 0.21548528228 0.21545035276 0.215449685 0.21548471464 0.2155371986 0.21557868121 
0.21558853487 0.21556515473 0.21552814914 0.2155047095 0.21551515933 0.21555747379 0.21560815073 0.21563953916 0.21563460289 
0.2052044025 0.20519252066 0.20515571461 0.20510316791 0.20505425003 0.20502672433 0.2050265974 0.20504384814 0.2050595563 
0.20505848488 0.20503656271 0.2050042272 0.20498007016 0.20497955823 0.20500424093 0.20504008591 0.20506900362 0.20507688628 
0.2050620728 0.20503772038 0.20502257922 0.2050304287 0.20505948964 0.20509470647 0.20511634998 0.20511279267 0.1976940879 
0.19768218373 0.19765448597 0.19761743151 0.19758358021 0.19756386314 0.19756102656 0.19756963152 0.19757720201 0.19757414887 
0.1975583758 0.19753703663 0.19752202146 0.19752264494 0.19753969372 0.19756349769 0.19758275487 0.19758805851 0.19757922975 
0.1975648974 0.19755697269 0.19756432846 0.19758442534 0.19760736561 0.19762098481 0.19761770767 0.19291949568 0.1929071543 
0.19288522309 0.19285842859 0.19283490086 0.1928214808 0.19281906847 0.19282172896 0.19282313465 0.19281838433 0.19280642913 
0.19279242029 0.19278423053 0.19278704314 0.19279940732 0.19281549804 0.19282731221 0.19283027512 0.19282487194 0.19281750862 
0.19281642551 0.1928238513 0.19283856328 0.1928532627 0.1928608175 0.19285641425 0.19067796098 0.19066458011 0.19064542051 
0.19062529875 0.19060916498 0.19060097815 0.19059915759 0.19059920318 0.1905968714 0.19058999279 0.19057940308 0.19057034646 
0.19056707302 0.19057222562 0.19058307438 0.19059494448 0.19060162922 0.19060204564 0.19059889551 0.19059635496 0.19059989757 
0.19060940497 0.19062123869 0.19063088841 0.19063383149 0.190628684 0.19086766458 0.19085255345 0.19083339061 0.19081685921 
0.19080630224 0.19080331698 0.19080321805 0.19080288722 0.19079737547 0.19078693564 0.19077647606 0.19077004864 0.1907717837 
0.19078022601 0.19079154254 0.19080087426 0.19080406761 0.19080187701 0.19079895047 0.19079976539 0.19080811174 0.19082049016 
0.19083281269 0.19083996366 0.19083885438 0.19083167592 0.19348965883 0.19346980323 0.19344830921 0.19343227946 0.19342671696 
0.19342971494 0.19343409311 0.19343327322 0.19342401509 0.19340938644 0.19339613247 0.19339156014 0.19339849612 0.1934126781 
0.19342773011 0.19343634715 0.19343547745 0.19342888574 0.19342420352 0.19342804352 0.19344161636 0.19346009425 0.19347535879 
0.19348140217 0.19347630304 0.19346459037 0.19864440835 0.1986171327 0.19858891114 0.19857177381 0.19857141445 0.19858216451 
0.19859299326 0.19859300766 0.198579109 0.19855677181 0.19853857779 0.19853506018 0.19854906665 0.19857221677 0.19859391567 
0.19860244595 0.19859690139 0.19858294997 0.19857498546 0.1985813859 0.1986029221 0.19863051708 0.19865187357 0.19865734396 
0.19864672993 0.19862840569 0.20653466895 0.20649564035 0.20645614913 0.20643576354 0.20644100765 0.20646230168 0.20648226032 
0.20648401983 0.20646350883 0.20643065422 0.20640414137 0.20640094408 0.20642325466 0.20645969923 0.20649142977 0.20650192107 
0.20648956309 0.20646618512 0.20645154773 0.20646079635 0.2064931082 0.20653479133 0.20656590422 0.20657224351 0.20655404861 
0.20652523749 0.21745297987 0.21739795954 0.21734444218 0.21731734594 0.21732716189 0.21736140298 0.21739303145 0.21739810193 
0.21737016606 0.21732403935 0.21728620321 0.21728169913 0.217314625 0.21736816321 0.21741264497 0.2174268166 0.21740700373 
0.2173711925 0.21734837742 0.21735979266 0.21740552005 0.21746531518 0.2175095533 0.21751836197 0.2174921312 0.21745033608 
0.23175267297 0.2316808379 0.23160914062 0.23157279964 0.23158576067 0.23163182343 0.23167575296 0.23168582507 0.23165069408 
0.23159038971 0.23154098512 0.23153405273 0.23157735108 0.23164828343 0.23170834689 0.23172788699 0.23170193927 0.23165472996 
0.23162232349 0.23163565292 0.23169509548 0.23177456246 0.23183503869 0.23184894668 0.23181550523 0.23176094701 0.24978305541 
0.24969624671 0.24960640961 0.2495583985 0.24957019398 0.24962373716 0.24967743412 0.24969159382 0.24965291029 0.24958247437 
0.24952330503 0.24951466849 0.2495656842 0.24965098308 0.24972548015 0.24975271515 0.24972489798 0.2496692217 0.2496308028 
0.24964437043 0.24971553575 0.24981253933 0.24988963031 0.24991251211 0.24987682491 0.24981409758 0.27180114302 0.27170328369 
0.2715986948 0.27153852054 0.27154272281 0.27159548263 0.27165261247 0.27167044104 0.27163297 0.27155987581 0.27149723376 
0.2714876706 0.27154202341 0.271635616 0.27172054495 0.27175600345 0.27173159154 0.27167535155 0.27163484946 0.27165066087 
0.27172876449 0.27183820895 0.27192982896 0.27196435607 0.27193572408 0.27187361827 0.29787299639 0.29776804054 0.29765484734 
0.2975827774 0.29757432026 0.29761582823 0.29766752621 0.29768658724 0.29765473406 0.29758825899 0.29753088262 0.29752274146 
0.29757749538 0.29767083765 0.29775980809 0.2978026393 0.29778805096 0.29773982944 0.29770508306 0.29772388723 0.29780404732 
0.2979185255 0.29802100693 0.29807050571 0.29805783398 0.29800848538 0.32780210274 0.32769349218 0.32757563505 0.32749205616 
0.3274653786 0.32748790072 0.32752651685 0.32754317156 0.32751968809 0.32746863949 0.32742475607 0.32742273212 0.32747481311 
0.32756250609 0.32764824453 0.32769636802 0.32769436457 0.32766232994 0.32764024545 0.32766372069 0.32774344928 0.3278571359 
0.3279658087 0.32803255065 0.32804484554 0.32801996395 0.36111342787 0.36100088858 0.36087860758 0.3607832169 0.36073635837 
0.36073479946 0.36075491986 0.36076652893 0.36075352335 0.36072323133 0.36069857661 0.3607059157 0.3607556934 0.3608343943 
0.36091351548 0.36096422712 0.36097572439 0.36096320413 0.36095660641 0.36098634106 0.36106247621 0.36117368661 0.36128748004 
0.36137449053 0.36141855058 0.36142724245 0.39710928183 0.39698704213 0.39685655566 0.39674704124 0.39667866699 0.39665222574 
0.39665288887 0.39665954106 0.39665822189 0.39664972423 0.39664697989 0.39666645395 0.39671510663 0.39678462173 0.39685610879 
0.39690798098 0.39693254268 0.39693724478 0.39694416605 0.39697784544 0.39705030568 0.39715759058 0.39727944237 0.39738974944 
0.3974727942 0.39752238864 0.43495728523 0.43481954976 0.43467510087 0.43454841943 0.43445664611 0.43440553216 0.43438861714 
0.43439316503 0.4344053914 0.43441940142 0.43443824061 0.43446933617 0.43451795042 0.434580568 0.43464548101 0.43469926566 
0.43473302737 0.43474971518 0.43476422677 0.43479654379 0.43486265171 0.43496654007 0.43509855928 0.43523934345 0.43536682897 
0.43546374017 0.42941185002 0.42924693651 0.42906419802 0.42887799536 0.42870808554 0.42857393517 0.42848492686 0.42844200083 
0.42843521034 0.42845157692 0.42847953612 0.4285149535 0.42855530238 0.42860325009 0.42865751156 0.42871397572 0.42876515704 
0.42880652284 0.42883750464 0.42886380526 0.42889381999 0.42893238841 0.42898008176 0.42902952032 0.42907043517 0.42909529545 
0.39694944562 0.39681157887 0.39665519581 0.39649464262 0.39635000659 0.3962377095 0.39616596361 0.39613104257 0.39612167422 
0.39612571672 0.39613569162 0.39615176266 0.39617845813 0.39621799522 0.39626885145 0.39632259049 0.39637025199 0.39640362649 
0.39642544614 0.39644317963 0.39646785385 0.39650451663 0.39655162255 0.39659893799 0.39663492547 0.3966506745 0.36595405558 
0.36584150914 0.36570864202 0.36556990001 0.36544508981 0.36535200611 0.36529683707 0.36527248085 0.36526484269 0.36526181321 
0.36525731681 0.36525628023 0.3652692321 0.36530126297 0.36534916501 0.36540178316 0.36544632762 0.36547325477 0.36548491167 
0.36549255224 0.36550981577 0.36554372833 0.36559043913 0.36563677403 0.36566938338 0.36567718417 0.33709933456 0.33701056316 
0.33689827685 0.33677745473 0.33666923992 0.3365918912 0.33655160022 0.33653860126 0.33653584276 0.33652857567 0.33651375311 
0.33649884406 0.33649946053 0.3365234848 0.3365688584 0.33662141305 0.3366634233 0.33668508994 0.33668749482 0.33668509091 
0.3366938052 0.33672410959 0.33677002842 0.33681710521 0.33684644524 0.33684915284 0.31094428153 0.31087628744 0.3107826326 
0.31067688217 0.31058269577 0.3105183549 0.31049020883 0.3104868964 0.31048959511 0.3104810176 0.31045937747 0.3104351988 
0.31042552163 0.31044263343 0.31048473363 0.31053664205 0.31057673507 0.31059365737 0.31058891865 0.31057790022 0.3105794766 
0.3106049045 0.3106491391 0.31069546086 0.31072326514 0.31072153329 0.28788406972 0.28783357727 0.28775638515 0.28766518792 
0.28758313877 0.28753014691 0.28751051829 0.28751453695 0.28752073015 0.28751273107 0.28748794807 0.28745875391 0.2874426305 
0.28745384603 0.28749108289 0.28753952174 0.28757714439 0.28759115625 0.28758190859 0.28756607637 0.28756179938 0.28758209596 
0.28762316953 0.28766648429 0.28769268038 0.28768928582 0.26812593779 0.26808854738 0.26802613967 0.26794994196 0.26788083931 
0.2678363287 0.26782268524 0.26782915174 0.26783673244 0.26783038885 0.26780661972 0.26777643358 0.26775805998 0.26776417282 
0.26779586077 0.26783809748 0.2678715139 0.26788310965 0.26787257776 0.26785523219 0.2678485012 0.26786376505 0.26789940331 
0.26793878393 0.26796149044 0.2679576294 0.25169926973 0.25167111451 0.25162207583 0.25156074389 0.25150418925 0.25146756577 
0.25145667539 0.25146300813 0.2514694006 0.25146427637 0.25144355542 0.25141635442 0.25139825261 0.25140176036 0.25142640122 
0.2514608073 0.25148918283 0.25149882269 0.25148981971 0.25147355841 0.25146614137 0.25147760987 0.25150685889 0.25153927862 
0.25155860845 0.25155509237 0.23849567755 0.23847422291 0.23843594607 0.23838826092 0.23834325764 0.23831441326 0.23830486959 
0.23830853779 0.2383129708 0.23830808775 0.23829097393 0.23826897237 0.23825346379 0.23825531367 0.23827369914 0.23830040908 
0.23832262262 0.2383307188 0.23832427405 0.23831125214 0.23830494048 0.23831307652 0.23833602175 0.23836085737 0.2383758867 
0.23837332079 0.22832820115 0.2283104461 0.22828087277 0.22824385408 0.22820990332 0.22818705877 0.22817868245 0.22817916012 
0.22818079699 0.22817556973 0.22816254098 0.22814605862 0.22813447157 0.22813551739 0.22814938365 0.2281680512 0.22818417827 
0.2281909577 0.22818724106 0.22817912944 0.22817472838 0.22818163234 0.2281975046 0.22821518806 0.22822643526 0.22822453625 
0.22098511702 0.22096962157 0.2209465099 0.22091867976 0.22089339645 0.22087580899 0.22086725781 0.22086555702 0.22086436109 
0.22085926403 0.2208491397 0.22083745168 0.22082989099 0.22083096754 0.22084044923 0.22085398313 0.22086579738 0.22087069475 
0.2208690611 0.22086448461 0.22086284766 0.22086925859 0.2208808632 0.22089323279 0.22090034767 0.22089860253 0.21627817442 
0.21626448428 0.21624548222 0.21622445181 0.2162053278 0.21619232108 0.21618498764 0.21618161463 0.21617813236 0.21617299997 
0.21616479194 0.21615666604 0.2161522979 0.21615408733 0.21616149975 0.21617145087 0.21617952949 0.21618295248 0.2161824278 
0.21618081762 0.21618269279 0.2161885781 0.21619766529 0.21620616008 0.21621045264 0.21620773132 0.21407112714 0.214058091 
0.21404175028 0.21402518308 0.21401072867 0.21400129663 0.21399507982 0.21399138304 0.21398694583 0.21398081606 0.2139735707 
0.21396773322 0.21396604063 0.21396945867 0.21397577206 0.21398410586 0.21398932944 0.21399144082 0.21399180485 0.21399276062 
0.21399668876 0.21400388962 0.21401161241 0.21401802323 0.21401997033 0.21401691671 0.21429295366 0.21427972592 0.21426421759 
0.21424998359 0.21423950998 0.21423328647 0.21422897148 0.21422512161 0.21421972864 0.21421204145 0.2142053755 0.21420135252 
0.21420212402 0.21420739723 0.21421469243 0.21422148451 0.21422487806 0.2142257184 0.2142267598 0.2142295557 0.21423678635 
0.21424541139 0.21425357754 0.21425855365 0.21425833067 0.21425460745 0.21694421575 0.21692903638 0.21691287189 0.21689985309 
0.21689207651 0.21688946334 0.21688761094 0.2168839841 0.21687685158 0.21686736809 0.21685964179 0.21685708106 0.2168612421 
0.2168691996 0.21687845591 0.21688536497 0.2168875585 0.21688635436 0.21688708926 0.21689198137 0.21690169108 0.21691368391 
0.21692380901 0.21692836808 0.21692710877 0.2169212091 0.22209573837 0.22207786737 0.22205910026 0.22204532774 0.22204015872 
0.22204111906 0.22204272536 0.2220398372 0.22203066253 0.22201817666 0.22200859864 0.22200689838 0.22201420074 0.22202751162 
0.22204057759 0.2220476249 0.22204803528 0.22204436098 0.22204392986 0.22205079388 0.22206507597 0.22208185426 0.22209540964 
0.22210046213 0.22209687922 0.22208847543 0.22988573764 0.22986284832 0.22983899474 0.22982382062 0.22982103846 0.22982607692 
0.22983146143 0.22982936245 0.22981766611 0.22980140419 0.22978837414 0.22978763025 0.22979940731 0.22981895371 0.22983694492 
0.22984561978 0.2298440428 0.22983732141 0.22983474464 0.22984381027 0.22986339731 0.22988786377 0.22990677645 0.22991282376 
0.22990718635 0.22989488403 0.24050303918 0.24047270571 0.24044222107 0.24042380715 0.24042194637 0.24043201226 0.24044192032 
0.24044121626 0.24042693484 0.24040578887 0.24038882867 0.24038759282 0.24040447976 0.24043178893 0.24045626428 0.24046768284 
0.24046423364 0.24045383167 0.24044890527 0.24045990025 0.24048686079 0.24051997094 0.2405458915 0.24055484631 0.24054694035 
0.24053005437 0.25415825597 0.25412090219 0.25408225713 0.25405831982 0.25405659656 0.25407028586 0.25408459787 0.25408575623 
0.2540687423 0.25404175539 0.25402147628 0.25402010722 0.25404230746 0.25407778831 0.25410935998 0.25412417032 0.25411964791 
0.25410625555 0.25409954132 0.25411270704 0.25414691487 0.2541900473 0.25422395623 0.2542372669 0.25422791228 0.25420706356 
0.2710412437 0.27099619922 0.27094895763 0.27091869042 0.27091459802 0.27092960324 0.27094668765 0.2709488044 0.27093059878 
0.27090068909 0.27087686743 0.27087692928 0.27090296287 0.27094532998 0.2709838374 0.27100304442 0.27099974109 0.270984436 
0.27097824962 0.27099355844 0.271034256 0.27108624615 0.27112992146 0.27114882587 0.27114117923 0.27111929605 0.29126131058 
0.29120941668 0.29115361969 0.29111605943 0.2911070051 0.29111978367 0.29113679011 0.29113979763 0.29112228933 0.29109185236 
0.29106831449 0.29106907913 0.29109807947 0.29114502299 0.29118941115 0.29121338028 0.291213009 0.29120009809 0.29119456583 
0.29121360669 0.29125973184 0.29131947477 0.2913718252 0.29139889866 0.29139696653 0.29137762546 0.3147920764 0.31473391041 
0.3146707965 0.31462538131 0.3146084587 0.31461442719 0.31462784036 0.31463090537 0.31461561048 0.31458841272 0.31456813629 
0.31457099918 0.31460206778 0.31465091885 0.31469861595 0.31472740002 0.31473270934 0.3147245203 0.31472346792 0.31474630739 
0.31479624949 0.31486165008 0.31492230283 0.31495920347 0.3149671632 0.31495662355 0.34142998094 0.34136582928 0.34129655684 
0.3412421434 0.34121391394 0.34121006435 0.34121706497 0.34121835406 0.34120586771 0.34118643521 0.34117288588 0.3411798696 
0.34121173034 0.34126081354 0.34130900171 0.341341498 0.34135354228 0.34135338987 0.34135923051 0.34138627853 0.34143958244 
0.34150845052 0.34157632815 0.34162509049 0.3416483069 0.34165118968 0.37078695331 0.37071685105 0.37064015177 0.37057599302 
0.3705352274 0.37051874659 0.37051662236 0.37051527488 0.37050822626 0.37049785972 0.37049352681 0.37050598996 0.37053939303 
0.37058628989 0.37063392557 0.37066924756 0.3706874956 0.37069690705 0.37071005895 0.37074127673 0.37079602378 0.37086888818 
0.3709437355 0.37100685797 0.37104895996 0.3710705152 0.40231930778 0.40224002892 0.40215421756 0.40207838817 0.40202470838 
0.40199461678 0.4019823807 0.40197924129 0.4019774815 0.40197765121 0.40198399284 0.40200358782 0.40203817372 0.40208296054 
0.40212903418 0.40216584816 0.40219052665 0.40220720306 0.4022265018 0.40226051133 0.4023157235 0.40239043114 0.4024745995 
0.40255380705 0.40261905713 0.40266385948 0.43537115137 0.43528021383 0.43518312369 0.4350948644 0.43502640801 0.43498267169 
0.43496125703 0.43495692739 0.43496246682 0.43497392807 0.43499145097 0.43501749282 0.43505346389 0.43509648517 0.43514034837 
0.43517856266 0.43520710407 0.43522800228 0.43524986666 0.43528311945 0.43533659932 0.43541265344 0.4355057204 0.4356051505 
0.43569664273 0.43576858978 0.42789579329 0.42776398329 0.42762315329 0.42748186306 0.42735253779 0.42724812228 0.42717406001 
0.42713182105 0.42711646402 0.42712184871 0.42713946151 0.42716619371 0.42719808902 0.4272352964 0.42727607527 0.42731806833 
0.42735693132 0.42739075546 0.42741865781 0.42744327819 0.42746893521 0.42749739613 0.42752926556 0.42756066658 0.42758541856 
0.42759919265 0.39965927029 0.39954670364 0.39942444612 0.39930177965 0.3991905641 0.39910026971 0.39903681739 0.39899951737 
0.39898285209 0.39898025988 0.39898792385 0.39900198283 0.39902498557 0.39905517121 0.39909153264 0.39912971833 0.39916517122 
0.39919390223 0.3992164998 0.39923639536 0.39925871393 0.39928546774 0.39931590823 0.39934535567 0.39936747465 0.39937682002 
0.37260179513 0.37250745352 0.37240326382 0.3722979269 0.37220174028 0.37212518553 0.37207247981 0.37204135012 0.37202549482 
0.37201857683 0.37201703111 0.37202127085 0.37203522682 0.37205949992 0.37209184867 0.372126886 0.37215865689 0.37218276122 
0.37219976179 0.37221376772 0.37223152582 0.37225576215 0.37228508138 0.3723124631 0.3723320953 0.37233778651 0.34727151125 
0.34719411991 0.3471061065 0.34701560408 0.34693300171 0.34686844466 0.34682571797 0.34680095618 0.34678786626 0.34677833243 
0.34677091962 0.34676723058 0.34677306804 0.34679112089 0.34681998797 0.34685260003 0.34688117841 0.34690102857 0.34691230467 
0.34692099631 0.34693389347 0.34695528204 0.34698240492 0.34700885717 0.34702576467 0.34702889259 0.32412400645 0.32406176774 
0.32398851922 0.32391084325 0.32384011199 0.32378608283 0.32375211896 0.32373340937 0.3237234863 0.32371315133 0.32370155261 
0.32369231213 0.32369174981 0.32370485569 0.32373009743 0.32376040552 0.32378621401 0.32380195109 0.32380865344 0.32381239742 
0.32382104117 0.32383894886 0.32386368595 0.32388857324 0.32390341508 0.32390402412 0.30349773111 0.30344916485 0.30338847582 
0.30332252894 0.30326217351 0.30321751818 0.30319048193 0.30317771379 0.30316984263 0.30315961237 0.30314574269 0.30313332863 
0.30312847069 0.30313739493 0.30315861708 0.30318590688 0.30320856217 0.30322157882 0.30322469069 0.30322476519 0.3032298091 
0.30324410963 0.30326664527 0.30328891272 0.30330243214 0.30330139253 0.28560116696 0.28556281329 0.28551321121 0.28545812065 
0.28540803833 0.28537048466 0.28534865155 0.28533974262 0.28533315118 0.28532417823 0.28531038603 0.28529660126 0.28528998804 
0.28529526951 0.28531275913 0.28533591908 0.28535542345 0.28536587824 0.2853665212 0.28536505967 0.28536765941 0.28537887573 
0.28539835022 0.28541816256 0.2854294071 0.28542749546 0.27051573802 0.27048546382 0.27044575069 0.27040143265 0.27035982076 
0.27032887504 0.2703116075 0.27030379462 0.27029831312 0.27029030086 0.27027790874 0.27026438172 0.27025668678 0.27025985452 
0.27027382531 0.27029215531 0.27030845015 0.27031686318 0.27031762238 0.27031472035 0.27031569493 0.27032475204 0.27034042764 
0.27035698496 0.27036629361 0.27036442081 0.25822434373 0.25820006768 0.25816836616 0.25813283071 0.25809890832 0.25807393906 
0.25805950355 0.25805240591 0.25804730198 0.25804015162 0.25802913307 0.25801756387 0.25801064652 0.25801217039 0.25802261779 
0.25803700946 0.25804991999 0.25805678874 0.25805766834 0.25805486392 0.25805551689 0.25806185723 0.25807484517 0.2580878206 
0.25809504991 0.25809323295 0.24864212196 0.24862233802 0.2485969083 0.24856820866 0.24854157054 0.248521435 0.24850923322 
0.24850203839 0.24849736669 0.24849040125 0.24848117903 0.24847197704 0.24846609534 0.24846678716 0.2484752624 0.24848556195 
0.24849544859 0.24850152029 0.24850237273 0.24850115626 0.24850139364 0.24850700933 0.24851646841 0.24852566792 0.24853120285 
0.2485301638 0.24165558224 0.24163886373 0.24161829524 0.24159572036 0.24157493107 0.24155815693 0.24154794089 0.24154073 
0.24153516114 0.24152917421 0.24152180296 0.2415146642 0.24151067226 0.24151147271 0.24151690661 0.24152491029 0.24153249058 
0.24153715966 0.24153863245 0.24153876317 0.24153969257 0.24154487512 0.24155184155 0.24155886012 0.24156254655 0.24156119038 
0.23715359223 0.23713944105 0.23712213045 0.23710436099 0.2370879478 0.23707510541 0.23706551882 0.23705888242 0.23705324551 
0.23704747968 0.23704104433 0.23703566335 0.23703330996 0.23703446625 0.23703886653 0.23704477576 0.23705105712 0.23705461871 
0.23705668395 0.23705731311 0.23705995154 0.2370649731 0.23707098142 0.23707582656 0.23707817044 0.23707637852 0.23505167566 
0.2350390461 0.2350245701 0.23500940757 0.23499652259 0.23498619498 0.23497819579 0.23497235041 0.23496669024 0.23496071632 
0.23495543704 0.23495139571 0.23495021869 0.23495266359 0.23495631905 0.2349618117 0.23496606719 0.23496930139 0.23497131379 
0.23497363575 0.23497770113 0.23498307672 0.23498855435 0.23499276667 0.23499391661 0.23499172692 0.23530506237 0.23529311053 
0.2352797179 0.23526710506 0.23525644485 0.23524866468 0.23524198301 0.23523620747 0.235231003 0.23522474372 0.23521990985 
0.23521695875 0.23521730441 0.23522080649 0.23522543266 0.23523061192 0.23523353126 0.23523613506 0.23523912206 0.23524274653 
0.23524854355 0.2352550599 0.2352607233 0.23526415133 0.23526429582 0.23526227938 0.23791407382 0.23790173919 0.23788859594 
0.23787708518 0.23786846193 0.23786262641 0.23785792414 0.23785277007 0.2378468711 0.23783998728 0.23783499437 0.23783319506 
0.23783565336 0.23784051626 0.23784628984 0.23785137115 0.23785537067 0.23785691091 0.2378600204 0.23786503431 0.23787257401 
0.23788066789 0.23788750208 0.23789111298 0.2378916865 0.23788845658 0.24292486273 0.24291184911 0.24289812629 0.24288639135 
0.24287912486 0.24287517038 0.24287244627 0.2428678022 0.24286110315 0.24285338987 0.2428481154 0.24284707848 0.24285120058 
0.24285902813 0.24286751834 0.24287355637 0.24287640821 0.24287737864 0.2428804336 0.2428869144 0.2428972715 0.24290819924 
0.24291705229 0.24292212986 0.24292158405 0.24291772458 0.25042459906 0.25040961854 0.25039337503 0.25038112912 0.250374426 
0.25037274984 0.2503713914 0.25036759851 0.25036002193 0.25035134476 0.25034465722 0.25034501531 0.25035127498 0.25036248283 
0.25037374819 0.25038090935 0.25038388329 0.25038401524 0.25038684865 0.25039584474 0.25040899117 0.25042417528 0.25043689174 
0.25044238091 0.25044202313 0.25043696996 0.26052546588 0.26050717721 0.26048796466 0.26047390547 0.2604677432 0.26046736166 
0.26046791106 0.26046470935 0.26045607547 0.26044547853 0.26043825466 0.26043834539 0.26044792354 0.26046287797 0.26047772067 
0.26048696841 0.2604901243 0.26049047996 0.26049298636 0.26050361493 0.26052118245 0.26054130942 0.26055799031 0.26056578741 
0.26056548305 0.26055917248 0.27334269058 0.27332082627 0.27329764278 0.27328069698 0.27327350509 0.27327409656 0.2732758821 
0.27327332931 0.27326402737 0.27325150658 0.27324326715 0.27324431511 0.27325684996 0.27327588003 0.27329455067 0.27330631614 
0.27331028112 0.27331048461 0.27331389539 0.27332663394 0.2733483052 0.27337460142 0.27339571388 0.27340697956 0.27340722935 
0.27340064693 0.28896322356 0.28893737667 0.28890973349 0.28888889442 0.28887971622 0.28887956187 0.28888153787 0.28887922085 
0.2888693694 0.28885607494 0.2888471973 0.28885011277 0.28886499162 0.2888883837 0.28891047085 0.28892498264 0.28893083541 
0.28893170745 0.28893739319 0.28895244996 0.28897882709 0.28900999289 0.28903750921 0.28905290365 0.2890555991 0.28904967054 
0.30740825809 0.30737818383 0.30734557278 0.30731993104 0.30730741186 0.3073051903 0.30730640292 0.30730374172 0.30729445692 
0.30728147388 0.30727342877 0.30727770998 0.30729512946 0.30732115899 0.30734682905 0.30736498005 0.30737302951 0.3073766147 
0.30738428075 0.30740267079 0.30743337386 0.30746971766 0.30750282342 0.3075243846 0.30753124397 0.30752803846 0.32860034658 
0.32856586474 0.32852768293 0.32849719773 0.32847950521 0.32847282732 0.32847176697 0.32846874062 0.32846033309 0.32844911538 
0.32844320881 0.32844934073 0.32846889394 0.32849709343 0.32852573211 0.3285467568 0.32855818622 0.32856578965 0.32857665652 
0.32859827822 0.32863292019 0.3286747071 0.32871384093 0.32874181963 0.32875553701 0.32875839462 0.3523385362 0.35229942914 
0.3522558952 0.35221885319 0.35219394876 0.35218181906 0.35217704206 0.35217274604 0.35216503765 0.35215808336 0.35215611627 
0.35216479443 0.35218574776 0.35221598169 0.35224591689 0.35226981308 0.35228512454 0.35229714236 0.35231240056 0.3523378812 
0.35237614118 0.35242188745 0.35246716627 0.35250354715 0.35252648276 0.3525378249 0.37829399742 0.3782494111 0.37819979686 
0.37815545281 0.37812276847 0.37810368429 0.37809380394 0.37808780658 0.37808297269 0.37808026919 0.37808282579 0.37809504556 
0.3781183252 0.37814838352 0.37817941298 0.37820563987 0.37822458953 0.37824117352 0.37826035719 0.37828885556 0.37832987659 
0.37838029919 0.3784322607 0.37847816305 0.37851328735 0.37853537067 0.40602441998 0.40597324724 0.40591657729 0.40586414198 
0.40582327397 0.40579625584 0.40578084698 0.40577391166 0.40577186147 0.40577400196 0.40578233814 0.40579893714 0.40582382623 
0.40585389634 0.40588542006 0.40591227346 0.4059345295 0.40595434415 0.40597641379 0.40600702565 0.40604981625 0.40610354169 
0.40616277299 0.40621996956 0.40626918251 0.40630510592 0.43500077108 0.43494228753 0.43487816407 0.43481735924 0.43476763988 
0.43473258794 0.43471229527 0.4347043683 0.43470621547 0.43471441618 0.43472833476 0.43474836491 0.43477494411 0.43480471709 
0.43483513305 0.43486315697 0.4348869026 0.43490761575 0.43493037771 0.43496080148 0.43500348765 0.43505953599 0.43512547404 
0.43519564693 0.43526070793 0.43531238563 0.42581971227 0.42571552847 0.42560618629 0.42549836595 0.42539912103 0.42531778558 
0.42525655189 0.42521813798 0.42519926335 0.42519722634 0.42520776919 0.42522587144 0.42524933774 0.42527677006 0.42530724277 
0.4253382565 0.42536754349 0.42539410813 0.42541723452 0.42543776725 0.42545757647 0.42547774312 0.42549852728 0.42551718835 
0.42553088899 0.42553665471 0.40119449551 0.40110340522 0.40100730497 0.40091244737 0.40082513985 0.40075302542 0.40069883398 
0.40066349843 0.4006442669 0.40063773355 0.40064137539 0.40065183565 0.40066904516 0.40069159526 0.40071781327 0.4007453661 
0.40077154964 0.40079510915 0.40081496601 0.40083265745 0.40085082249 0.40087002229 0.40088917848 0.40090727098 0.40091953316 
0.40092342655 0.37752172565 0.37744391207 0.37736099155 0.37727823001 0.37720288509 0.37714006338 0.37709322426 0.37706162629 
0.37704279358 0.37703368101 0.37703147658 0.37703577421 0.37704755294 0.37706532071 0.37708798956 0.3771122733 0.37713562545 
0.37715558183 0.37717213912 0.37718606937 0.37720146479 0.37721873596 0.37723730286 0.3772536083 0.37726454714 0.37726684622 
0.35525450889 0.35518857982 0.35511785063 0.35504687388 0.35498160233 0.35492769166 0.35488772113 0.3548602642 0.35484335573 
0.35483273135 0.35482728532 0.35482631901 0.35483255458 0.35484576368 0.3548653341 0.35488694743 0.35490718426 0.35492393777 