# vtk DataFile Version 5.1
vtk output
ASCII
DATASET STRUCTURED_POINTS
DIMENSIONS 26 26 26
SPACING 0.08 0.08 0.08
ORIGIN -1 -1 0.5
POINT_DATA 17576
FIELD FieldData 1
potential 1 17576 double
0.028041725533 0.027569752576 0.027084947907 0.026588432805 0.026081689455 0.025566154135 0.025042901219 0.02451271082 0.023976219406 
0.02343455739 0.022889223928 0.02234192612 0.021795036786 0.021250093924 0.020708488741 0.020170780006 0.019637712389 0.019109940446 
0.018588453403 0.018074699184 0.017570085579 0.017075155846 0.016590611996 0.016116777939 0.015653442934 0.015200795385 0.026517683504 
0.026081717466 0.025633420402 0.025174001446 0.024705280792 0.024228895329 0.023745981567 0.023257005244 0.022762327623 0.022262399764 
0.021758671542 0.021252799521 0.020746972305 0.020242925089 0.019741840296 0.019244168405 0.01875035878 0.018260864498 0.017776677378 
0.017298697755 0.016828584404 0.016367477063 0.015915929374 0.015473813475 0.015040908625 0.014617632169 0.024989983158 0.024588682762 
0.024175407843 0.023751617927 0.023319351913 0.022880535872 0.022436316094 0.021986837211 0.021532248414 0.021072465779 0.020608430871 
0.02014212558 0.019675553446 0.019210687426 0.018748813758 0.018290005906 0.017834486632 0.017381929536 0.016933289433 0.016490040438 
0.016053805891 0.015625846956 0.015206664764 0.014795710387 0.014393179311 0.013998754598 0.02348654397 0.023118193427 0.022738279763 
0.022348335171 0.021950583226 0.02154749464 0.021140058689 0.020728322019 0.020311690176 0.019889857161 0.019463475915 0.019034525101 
0.018605281307 0.018177981386 0.017753560543 0.017331888125 0.016912468828 0.016495301206 0.016080960136 0.015671102823 0.015267471402 
0.014871295257 0.01448329288 0.014102847811 0.01372911418 0.01336259636 0.022039834469 0.02170229702 0.021353737865 0.020995688548 
0.020630737377 0.020261142825 0.019888056344 0.019511351483 0.01913018381 0.018743763806 0.018352630857 0.017958771524 0.017564922228 
0.017172570466 0.016783069567 0.016396055549 0.01601078776 0.015626850348 0.015244944388 0.014866291998 0.014493619488 0.014127329888 
0.013768972434 0.013417483877 0.013072171805 0.012732458121 0.020678738372 0.020369618931 0.020050119599 0.019721784189 0.019387171189 
0.019048479145 0.018707125845 0.018362571485 0.018013656847 0.017659844943 0.017301372738 0.016940187383 0.016578547984 0.016218655991 
0.015861071891 0.015505852068 0.015151940047 0.014798681349 0.014446482771 0.014097677887 0.013753767237 0.013416217739 0.013085454911 
0.012760767533 0.012441579768 0.012126858234 0.019422167154 0.019138838072 0.018845908588 0.018544907248 0.018238357438 0.017927979061 
0.017615101885 0.017299344524 0.016979567074 0.016655121587 0.016326257074 0.015994898777 0.015662974876 0.015332621793 0.015003961707 
0.014677293831 0.014351637744 0.014026517579 0.013702450321 0.013380932739 0.01306358476 0.012751946595 0.01244643386 0.012146164427 
0.011850358801 0.011558567345 0.018277590852 0.018017260301 0.017748502692 0.017472401434 0.017190694018 0.016905931581 0.016618605015 
0.016328409156 0.016034620457 0.015736769593 0.015434726957 0.015130479143 0.014825477514 0.014521574648 0.014219291995 0.013918395227 
0.013618181041 0.013318301817 0.01301937007 0.012722426891 0.012429637301 0.012141407281 0.011858394201 0.011580094567 0.011305570449 
0.011034714717 0.017242563471 0.017002707495 0.016755451246 0.016501774632 0.016243305887 0.015981497478 0.015716904401 0.015449732542 
0.01517889124 0.01490428656 0.014626571085 0.014346511991 0.014065875221 0.013785748341 0.013506782505 0.01322872227 0.012951310178 
0.012674275717 0.012397851731 0.012123349365 0.011852131024 0.01158499007 0.011322153507 0.011063337425 0.010808002048 0.010555982661 
0.016308885163 0.016087456175 0.015859610903 0.015626289858 0.015388318179 0.015146987558 0.01490300076 0.014655893595 0.014405677995 
0.014152134668 0.013895667588 0.01363739323 0.013378396418 0.013119788218 0.01286158137 0.012603861024 0.012346484359 0.012089450764 
0.011833211676 0.01157887299 0.01132722055 0.011079070546 0.010834534632 0.010593371995 0.010355167423 0.010119931886 0.015466256516 
0.015261271658 0.015050377888 0.014834756022 0.014615314483 0.014392391678 0.014166674462 0.013937844266 0.013705836546 0.013470960517 
0.013233711335 0.012994871004 0.012755289505 0.012515574972 0.012275940727 0.012036554496 0.011797204844 0.011558160027 0.011320237275 
0.01108387734 0.010849925947 0.010618838801 0.010390597136 0.01016512002 0.0099423197152 0.0097225037601 0.014702793434 0.014512619047 
0.014317474607 0.014118145893 0.013915042165 0.013708514542 0.013498946108 0.013286238627 0.013070745397 0.012852661815 0.012632626061 
0.012411196487 0.012188945207 0.011966362753 0.011743518732 0.011520412489 0.011297271051 0.011074684003 0.010852954503 0.010632877328 
0.010414710097 0.010198820971 0.0099853204452 0.0097740829073 0.0095654243937 0.0093594698323 0.014009883046 0.013833457759 0.013652202293 
0.013467067726 0.013278461464 0.013086684088 0.01289174295 0.012694029237 0.01249338959 0.012290505205 0.012085894111 0.011880020724 
0.011673277467 0.01146589787 0.011258020079 0.011049683372 0.01084150337 0.010633553951 0.010426497072 0.010220829824 0.010016890959 
0.0098146871327 0.0096145265312 0.0094164189194 0.0092205272201 0.0090273034527 0.013380426765 0.013215705721 0.013047030999 0.012874867604 
0.012699334241 0.012520688351 0.012339042918 0.012154442889 0.01196733516 0.011778138557 0.011587370773 0.011395478918 0.011202656208 
0.011009118714 0.010814639032 0.010619872615 0.01042493299 0.010230376089 0.010036597035 0.0098441357873 0.0096527928784 0.0094631571825 
0.0092754471014 0.0090890379556 0.008904790629 0.0087228412501 0.012807490159 0.01265378886 0.012496437117 0.012335809822 0.01217205177 
0.012005285891 0.01183556177 0.011663065827 0.011488094675 0.01131133864 0.011133109268 0.010953710233 0.010773379578 0.010592042097 
0.010410078832 0.010227455653 0.010044688866 0.0098621662413 0.009680672113 0.0094998282666 0.0093202095076 0.0091418589779 0.0089648342545 
0.0087894552 0.0086157237114 0.0084441347259 0.012287350038 0.012143552019 0.011996422926 0.01184623493 0.011693064823 0.011537047367 
0.01137814586 0.011216605392 0.011052812127 0.010887115945 0.010720065218 0.010551879782 0.010382693543 0.010212753903 0.010042139382 
0.0098706038017 0.0096988573987 0.0095272099437 0.0093560984435 0.0091859453219 0.0090168140876 0.0088488187408 0.0086818761081 0.0085161707119 
0.008352094527 0.0081899283721 0.011817394604 0.011682451653 0.011544447848 0.011403505737 0.011259896626 0.01111357629 0.010964572872 
0.010812908458 0.01065899928 0.010503297101 0.010346756241 0.010188663058 0.010029750816 0.0098697818781 0.0097089645641 0.0095473631515 
0.009385370162 0.0092235256955 0.0090622437308 0.0089016966719 0.0087420733407 0.0085833374185 0.0084254591791 0.008268699262 0.0081133234297 
0.0079596838973 0.011395895492 0.011268998391 0.011139025037 0.01100644658 0.010871448227 0.010734181927 0.010593953675 0.010451173992 
0.010306211598 0.010159412278 0.010011358108 0.0098622947485 0.0097125007506 0.0095616644891 0.0094098958708 0.0092573599725 0.0091043030623 
0.0089512728304 0.0087986252435 0.0086466771319 0.008495608535 0.0083452373054 0.0081956498558 0.0080469902241 0.0078994968959 0.0077535488884 
0.01102105755 0.010901253481 0.010778591679 0.010653481301 0.010526087707 0.010396321072 0.010264096393 0.010129297557 0.0099923543365 
0.0098536056498 0.0097137554962 0.0095727780695 0.0094308878156 0.0092881958237 0.0091446113997 0.0090001679644 0.0088551606086 0.0087099036187 
0.0085650261881 0.0084207902952 0.0082773066347 0.0081345491511 0.0079924553232 0.007851126664 0.0077107433798 0.0075717059538 0.01069051919 
0.01057709166 0.010460899355 0.010342448252 0.010221846472 0.01009907118 0.0099740124479 0.0098466846381 0.0097169164739 0.0095852586919 
0.0094522970058 0.0093183923289 0.0091837477702 0.0090483841998 0.0089121127669 0.0087749763644 0.0086370454877 0.0084987996027 0.0083607266964 
0.008223357204 0.0080866902587 0.0079507206185 0.0078153548411 0.0076804829755 0.0075464872495 0.007413490185 0.01040098073 0.010293326765 
0.010183012469 0.010070552071 0.0099559979747 0.0098394476408 0.0097207013334 0.0095996808643 0.0094763379212 0.0093510028775 0.0092243521264 
0.0090967741166 0.0089685150164 0.0088394900361 0.0087097256488 0.0085789436518 0.0084473880069 0.0083154035201 0.0081835726028 0.0080522079227 
0.007921575788 0.0077916240215 0.0076622431126 0.0075332797773 0.0074048846209 0.007277366233 0.010145649713 0.010043301995 0.0099383122496 
0.0098310469611 0.0097218982138 0.0096108750283 0.0094978351642 0.0093824394025 0.0092648045599 0.0091452703374 0.0090242907382 0.0089023988384 
0.0087797259283 0.0086564534435 0.0085323499455 0.0084073543459 0.00828154171 0.0081552215908 0.0080288990703 0.0079029885711 0.0077777292297 
0.0076530739017 0.0075288974734 0.0074051047212 0.0072817750299 0.0071592107573 0.0099142356477 0.0098167718908 0.0097167038792 0.0096144352753 
0.0095102740531 0.009404199177 0.0092960994884 0.0091857993553 0.0090734395779 0.0089590992474 0.0088433096397 0.0087264578435 0.0086089303323 
0.0084906848003 0.0083717230895 0.0082518935175 0.0081312313335 0.0080101408448 0.007888907625 0.0077679596236 0.0076474843387 0.0075276147127 
0.0074081213564 0.007289000028 0.0071702485672 0.0070522224893 0.0096933447033 0.0096004705855 0.0095050670645 0.0094074892475 0.0093078972449 
0.0092063834868 0.0091029327859 0.008997408324 0.0088897531728 0.0087802907442 0.0086693660186 0.0085573560221 0.0084444863501 0.0083309663563 
0.0082166373904 0.0081015808293 0.0079857872578 0.0078695081789 0.0077530453403 0.0076367538363 0.0075208974419 0.0074053775828 0.0072901962163 
0.0071752640907 0.0070610782927 0.0069472790519 0.0094679562116 0.0093795269297 0.0092886804003 0.0091956475709 0.00910053593 0.0090035448553 
0.0089045059264 0.0088034516459 0.0087003955474 0.0085955965396 0.0084892814608 0.0083818429319 0.0082735290117 0.0081645190053 0.0080547416633 
0.0079442307604 0.0078330881261 0.0077214969322 0.0076097161637 0.0074980001212 0.0073865166591 0.0072755191201 0.0071644942699 0.0070537778252 
0.0069433526853 0.00683354699 0.0092247112543 0.0091407117916 0.0090544417979 0.008966001084 0.0088754540382 0.0087829250512 0.0086883329467 
0.0085916782575 0.0084931230121 0.0083928349596 0.0082911109898 0.0081883107541 0.0080845714774 0.0079800855849 0.0078748389926 0.0077688721506 
0.0076623887239 0.0075554977682 0.0074486469353 0.0073415650214 0.0072345835281 0.007127681323 0.0070209415745 0.0069142321479 0.0068078639805 
0.0067020386042 0.031063299186 0.030541967666 0.030006816099 0.02945900633 0.028899787217 0.028330528961 0.027752582356 0.027166972968 
0.026574972327 0.025977899887 0.025377345253 0.02477487331 0.024172649848 0.023572115944 0.022974829762 0.022381700502 0.021793829959 
0.021211973002 0.020637630946 0.020071884182 0.019515474296 0.018969537207 0.018434670255 0.017911448823 0.017399856388 0.016900262728 
0.02940943599 0.028927517174 0.028432679039 0.027926030501 0.027408965503 0.026882878206 0.026349055133 0.025808365732 0.025261794564 
0.024710227527 0.024155142017 0.023598104862 0.023040881688 0.022485109787 0.021931947066 0.02138228739 0.020837042583 0.020297033914 
0.019763319943 0.019236577492 0.018718243021 0.018209219157 0.017710173875 0.01722128066 0.016742677294 0.016274993466 0.027793641328 
0.027348950975 0.026891999512 0.026424116018 0.025946707331 0.025461258266 0.024968863604 0.024470373553 0.023966414266 0.02345774967 
0.022945382769 0.022431023488 0.021916029072 0.021402337122 0.020890978527 0.020382570295 0.019878008699 0.01937750829 0.018881939826 
0.018392594979 0.017910621394 0.017436990639 0.016972028868 0.016516362398 0.016069904613 0.015632914778 0.026228656496 0.025818762991 
0.025397474769 0.024965967353 0.024525665352 0.024078246217 0.0236247864 0.023165873704 0.022701857029 0.022233212176 0.021760875226 
0.021286349719 0.020811162599 0.020337096723 0.019865086976 0.019395596314 0.018929008323 0.018465676589 0.01800649479 0.017552668523 
0.017105211443 0.016665052029 0.016232978603 0.015808341799 0.015392477393 0.014984767821 0.024731335084 0.024353882029 0.02396584229 
0.023568299515 0.023162783845 0.022750932678 0.022333595568 0.021911344385 0.021484447702 0.021053002868 0.020617936492 0.020180647614 
0.019742691007 0.019305393855 0.018869938182 0.018436608122 0.018005556865 0.017577219145 0.017152223518 0.016731308212 0.016316435575 
0.015907616382 0.01550643736 0.015112421541 0.014725654321 0.014345935205 0.023318041035 0.022970690942 0.022613334845 0.022247266097 
0.02187397293 0.021494786124 0.021110927438 0.020722493415 0.020329717977 0.01993262304 0.019531875347 0.01912895003 0.018725165915 
0.018321996403 0.017920132736 0.01752019494 0.017122149639 0.016726038454 0.016332332904 0.015942848027 0.01555820514 0.015179519782 
0.014807191844 0.0144413081 0.014081785506 0.013728274743 0.022000483159 0.021680529913 0.021351443618 0.021014380913 0.020670780913 
0.02032168214 0.01996817098 0.019610509404 0.019248743547 0.018882656202 0.018513591426 0.01814215099 0.017769962777 0.01739764214 
0.017026843848 0.016657329498 0.016289337226 0.015923068341 0.01555912956 0.015198337062 0.014841784739 0.014490486549 0.014144936176 
0.013804919305 0.01347024197 0.013140959136 0.020783965914 0.020488869925 0.020185650135 0.019874992229 0.019557879327 0.019236180188 
0.018910290942 0.018580401466 0.018246920047 0.017909569193 0.017568859829 0.017226334115 0.016882597774 0.016539080807 0.016196327485 
0.015854727433 0.015514178085 0.01517502991 0.014837815717 0.014503380069 0.014172688135 0.013846443573 0.013525128658 0.013208731837 
0.012897049932 0.012590117054 0.019667633978 0.019395045242 0.019115073621 0.018828410421 0.018536123401 0.018239209791 0.017938200646 
0.017633729808 0.017325402174 0.017013733635 0.016699151139 0.01638246622 0.016064814247 0.015747014397 0.015429748756 0.015113419328 
0.01479790498 0.014483400878 0.014170348923 0.013859899206 0.013552590112 0.013249128768 0.012949846412 0.012654895888 0.012364180549 
0.012077753481 0.018646919088 0.018394770436 0.018136127198 0.017871202713 0.01760104061 0.017326467143 0.017048209554 0.016766310229 
0.016480843064 0.016192313324 0.015901040131 0.015607928341 0.01531386296 0.015019386904 0.014725044584 0.014431189211 0.01413799743 
0.013845700408 0.013554756996 0.013265944018 0.01297991416 0.012697242575 0.012418226456 0.012142928822 0.011871204887 0.011603218321 
0.017714734952 0.01748101986 0.017241112154 0.016995630855 0.016745675407 0.016491511306 0.016233412737 0.015971907766 0.015707105734 
0.015439383418 0.015169212985 0.01489736372 0.014624399143 0.014350943151 0.014077397564 0.013804063027 0.013531105373 0.013258940313 
0.012987992779 0.012718832897 0.012452225236 0.012188405585 0.011927626887 0.011669961587 0.011415511619 0.011164637014 0.01686212943 
0.016645067462 0.016422690669 0.016195171204 0.015963097067 0.015727010935 0.015487331187 0.015244275051 0.014997956441 0.014749059427 
0.014498027449 0.01424534083 0.013991630771 0.013737219862 0.01348241394 0.013227528476 0.012972854555 0.012718960888 0.012466106225 
0.012214986091 0.011965763852 0.011719021964 0.011474687279 0.011233258199 0.010994725289 0.01075936025 0.016082434752 0.015880600451 
0.015673538437 0.015461915396 0.015246120584 0.015026570483 0.014803604994 0.014577222756 0.01434789252 0.014116119877 0.013882300734 
0.013646910558 0.013410400395 0.013173091058 0.012935284861 0.012697157701 0.012459323634 0.012221890177 0.011985506163 0.011750460537 
0.011517295991 0.011285810469 0.011056747039 0.010830057237 0.010605979601 0.010384910179 0.015368702598 0.015180399468 0.014987484047 
0.014790370964 0.014589271341 0.014384586276 0.01417646387 0.013965250142 0.013751286327 0.013534956359 0.013316725974 0.013097034268 
0.012876152929 0.012654473517 0.01243189785 0.012209184036 0.011986438891 0.011764133182 0.011542625836 0.011322267504 0.011103345597 
0.010886181801 0.010671120131 0.010457901612 0.010247073666 0.010038736771 0.014714994617 0.014539186198 0.014359072682 0.014174991181 
0.013987227773 0.013795965019 0.013601400685 0.013403961504 0.01320399108 0.013001760057 0.01279764394 0.012592072247 0.012385324132 
0.012177550429 0.011969205304 0.011760332799 0.0115514213 0.011342902461 0.011135113015 0.010928050087 0.010722301218 0.010517996816 
0.010315318394 0.010114515801 0.0099156514844 0.009719120279 0.01411709542 0.01395260409 0.013784068082 0.01361183052 0.013436111582 
0.013257132546 0.013075034658 0.012890115072 0.012702725972 0.01251313207 0.012321811385 0.012128939018 0.011935032695 0.011740188836 
0.011544781506 0.011348583079 0.011152254071 0.010956016202 0.010760276077 0.010565378699 0.010371619712 0.010179094141 0.0099879055232 
0.0097982480697 0.009610439645 0.0094246699649 0.013571895815 0.013417589834 0.013259178436 0.013097616474 0.012932816532 0.012764931987 
0.012594145376 0.012420543058 0.012244785406 0.012066654234 0.011887098046 0.011705914162 0.011523661412 0.011340193826 0.011156164221 
0.010971391063 0.010786299186 0.010601326981 0.010416839817 0.010232991999 0.010050128899 0.0098682530799 0.0096875080014 0.0095081542152 
0.0093303521453 0.0091543906736 0.013075432129 0.01293043058 0.012781796325 0.012629927709 0.012475060392 0.012317539711 0.012156843641 
0.011993490145 0.011827753501 0.011660059896 0.011490600796 0.011319992374 0.011148321784 0.010975450711 0.010801826877 0.010627430743 
0.010452694354 0.010277946707 0.010103494499 0.0099296866167 0.0097566534682 0.0095844792045 0.0094133031683 0.0092432883302 0.0090746999706 
0.0089077470605 0.012625643356 0.01248897647 0.0123489121 0.012205819036 0.012059823085 0.011911052582 0.011759553553 0.011605513236 
0.011449269272 0.011291121647 0.011131193419 0.01096992305 0.010807567017 0.010644212668 0.010480023024 0.010315126155 0.010149810915 
0.0099842970551 0.0098190074939 0.0096542538319 0.0094900907216 0.0093267729415 0.0091643138249 0.0090028785321 0.0088426334214 0.0086838488746 
0.012218198003 0.012089145651 0.011956835835 0.011821675084 0.011683752666 0.011543197211 0.011400270702 0.011254728156 0.011106901265 
0.010957093893 0.010805644406 0.010652913538 0.010499148176 0.010344435575 0.010188843571 0.01003257774 0.009875630356 0.0097184730658 
0.0095614270032 0.0094048744941 0.0092488731694 0.0090935630013 0.0089390209487 0.0087852894671 0.0086326081793 0.0084811610688 0.011849140806 
0.011726987263 0.011601888949 0.011473841968 0.011343231886 0.011210153339 0.011074598209 0.010936741069 0.010796575157 0.010654403363 
0.010510692798 0.010365707748 0.010219672411 0.010072656358 0.0099248466882 0.0097761679271 0.0096269589253 0.0094774119288 0.0093279468925 
0.0091787603708 0.0090301116122 0.008882109891 0.0087347412467 0.0085880784757 0.0084422813868 0.0082975455115 0.011511793324 0.011396010461 
0.011277222645 0.011155752214 0.011031770958 0.010905499526 0.010776857365 0.010645837489 0.010512659117 0.010377565663 0.010240871496 
0.010102939026 0.0099638713696 0.0098239181709 0.0096831367179 0.009541555294 0.0093993430854 0.0092567616912 0.0091141303923 0.0089717655859 
0.0088297927446 0.0086883368371 0.0085474801492 0.0084072188522 0.0082676731448 0.0081291431642 0.011197769707 0.011087861973 0.010975073741 
0.010859689897 0.010741911721 0.010621792055 0.010499358907 0.010374729115 0.010247972303 0.010119324085 0.0099890825882 0.0098575123612 
0.0097249570262 0.0095914223466 0.009457079819 0.0093219453758 0.0091861471985 0.009050022868 0.0089137409877 0.0087775819047 0.0086417657901 
0.0085064219872 0.0083715045321 0.0082371438832 0.0081034109928 0.0079705495435 0.010897175587 0.010792763459 0.010685608537 0.010575913351 
0.010463856667 0.010349453315 0.010232896187 0.010114191168 0.0099933647951 0.0098707386412 0.0097465196341 0.009621020632 0.0094944033072 
0.0093669178207 0.0092385293014 0.009109410371 0.0089796684386 0.008849507536 0.008719174097 0.0085889032566 0.0084589002178 0.0083291619751 
0.0081998383787 0.0080709003333 0.0079428630615 0.0078153755999 0.010599449159 0.010500241407 0.010398485659 0.010294243196 0.010187628526 
0.010078847575 0.0099678319263 0.0098546891112 0.0097395364876 0.0096226117824 0.0095041041638 0.0093842564775 0.0092633599371 0.0091415582636 
0.0090188927692 0.0088954876654 0.0087715012318 0.008647100826 0.0085224809742 0.0083978549151 0.0082733661592 0.0081493170878 0.0080252853991 
0.0079016794701 0.0077785321271 0.0076560952811 0.010295416529 0.010201360487 0.010104825998 0.010005881404 0.0099046384506 0.0098011787937 
0.0096955522067 0.009587781035 0.0094781046096 0.0093666312482 0.0092536518856 0.0091393826371 0.0090240773684 0.0089078050999 0.0087906930306 
0.0086728443671 0.0085544749639 0.0084357074751 0.0083168945728 0.0081978009976 0.0080787645571 0.007959820566 0.0078410356442 0.0077224561814 
0.0076043478907 0.0074868566945 0.034066463706 0.033497356197 0.032913169131 0.032315228517 0.031704842668 0.031083460717 0.030452519666 
0.029813332197 0.029167496213 0.02851645771 0.027861884241 0.027205413944 0.026549070639 0.025894341505 0.025242868439 0.02459579522 
0.023954488531 0.023319842467 0.022693425979 0.022076335546 0.021469148917 0.020873130032 0.020288918331 0.019717138351 0.019158124176 
0.018612201177 0.032278738733 0.031752207071 0.031211921809 0.030658943322 0.03009455165 0.029520137907 0.028937056334 0.028346487177 
0.027749614432 0.027147871525 0.026542549304 0.025935306726 0.025327809818 0.024721479077 0.024117740511 0.023517631716 0.02292235171 
0.022333166995 0.021750533658 0.021175768791 0.020609935334 0.020053909995 0.019508485427 0.018973817608 0.018450420175 0.017939008527 
0.030560495365 0.030073833496 0.029574307064 0.029063119023 0.028541482661 0.028010765669 0.027472077127 0.026926605253 0.0263753156 
0.025819338301 0.025259785989 0.024698302743 0.024136010606 0.02357474535 0.023015643297 0.022459714238 0.021907701077 0.021360444186 
0.020818900699 0.020284197672 0.019757358064 0.019239141336 0.018729990778 0.018230772357 0.017741603932 0.017262397572 0.028914933337 
0.028465275489 0.028003783416 0.027531486008 0.027049607188 0.02655934149 0.026061998694 0.025558417103 0.02504934962 0.024535854355 
0.024018824032 0.023499644772 0.022979713317 0.022460636985 0.021942997859 0.021427964015 0.020916244675 0.020408416028 0.01990548797 
0.019408497967 0.018918085535 0.018435486853 0.017960896089 0.017494588372 0.017037803359 0.016590000155 0.02734907476 0.026933807751 
0.026507566029 0.02607132561 0.025626305554 0.025173801129 0.024714649331 0.024249770262 0.023779907836 0.023305610905 0.022827945204 
0.022348223015 0.021867625634 0.021387205311 0.020908221316 0.020431266649 0.019956954339 0.019486045707 0.019018953495 0.018556990597 
0.018100650055 0.017651425577 0.017209427895 0.01677516258 0.016348852431 0.015930526757 0.025870848006 0.02548731766 0.025093630404 
0.02469076728 0.024279840061 0.02386193532 0.02343817846 0.023009091981 0.022575173185 0.022137148766 0.021695724418 0.021252327587 
0.020807752311 0.020363347044 0.019919797952 0.01947804894 0.019038519841 0.018601155081 0.018167731735 0.017738620511 0.017314663397 
0.016896693828 0.01648513402 0.016080395519 0.015682738256 0.015292000759 0.024486184723 0.024131807014 0.023768090134 0.023395955448 
0.023016447065 0.022630499472 0.022238976757 0.021842472342 0.02144153349 0.021036592951 0.020628576284 0.020218364649 0.0198069021 
0.019395583198 0.018984749243 0.018575292909 0.018167682917 0.017762352502 0.017359974327 0.016961211193 0.016566891846 0.016177827297 
0.015794589787 0.015417237304 0.01504585622 0.014680775006 0.023197848266 0.022870065623 0.022533889304 0.022189540129 0.02183857565 
0.021481743676 0.021119671221 0.020752987266 0.020382335764 0.020007665361 0.019630188488 0.019250637161 0.018869787436 0.018488606662 
0.018107920145 0.017728238646 0.017349871754 0.016973479202 0.016599455001 0.016228724872 0.015861754902 0.015499344381 0.015141901676 
0.014789791149 0.014442977792 0.014101624261 0.022004745721 0.021701289813 0.021390039157 0.021071588316 0.020746862598 0.020416553214 
0.020081373721 0.019742072815 0.019398581319 0.019051724952 0.0187019782 0.018350110026 0.017996987234 0.017643460308 0.017290150883 
0.016937702929 0.016586358834 0.016236289086 0.015888189805 0.015543006846 0.015201070112 0.014863137508 0.014529443485 0.014200367108 
0.013876019309 0.013556767764 0.020903780454 0.020622770975 0.020334265904 0.020039206061 0.019738235091 0.019432222817 0.019121494608 
0.018806764448 0.018488183297 0.018166344879 0.017841785928 0.017515343152 0.017187533549 0.016859133804 0.016530664982 0.016202723145 
0.015875497245 0.015549424394 0.015225249461 0.014903333649 0.014584395383 0.014268827601 0.013957100245 0.013649392994 0.013345737639 
0.013046389095 0.019889595144 0.019628446493 0.019360633239 0.019086798856 0.018807515693 0.018523509596 0.018234942837 0.017942543851 
0.017646559263 0.017347481232 0.017045819448 0.016742312708 0.016437458311 0.016131885847 0.01582618378 0.015520573903 0.015215436179 
0.014911503402 0.014608970978 0.014308365555 0.014010426 0.013715422484 0.013423630277 0.013135099358 0.012850454328 0.01256972768 
0.018954948132 0.0187121335 0.018463444109 0.018208998111 0.017949373077 0.017685146576 0.017416821264 0.017144730657 0.016869242182 
0.016590679152 0.016309929843 0.016027289975 0.015743422714 0.015458711539 0.015173474006 0.014888275226 0.014603413412 0.014319373337 
0.014036617627 0.013755672611 0.013476734679 0.013200460897 0.012926680241 0.012656182046 0.012388932586 0.012125220121 0.018094584646 
0.017868433938 0.017636585055 0.017399563587 0.017157814453 0.016911807911 0.016661876181 0.016408189174 0.016151351182 0.015891811961 
0.01562996309 0.015366310705 0.01510133864 0.014835414415 0.014568991019 0.014302357282 0.014035958267 0.01377010763 0.013505410585 
0.013242151503 0.012980830418 0.012721362779 0.012464522837 0.012210344114 0.011958940251 0.011711115142 0.017301873703 0.017090840968 
0.016874604852 0.016653566791 0.016428042549 0.016198442322 0.015965020882 0.015728214209 0.015488338397 0.015245912813 0.01500135517 
0.014754953059 0.014507305062 0.01425842181 0.01400901907 0.013759395882 0.013509842426 0.013260738908 0.01301248928 0.012765416489 
0.012519890984 0.012276269947 0.012034965606 0.011795754576 0.011559201713 0.011325358809 0.016571407881 0.016374275502 0.016172294202 
0.015965645512 0.01575489269 0.015540257382 0.015322019684 0.015100539788 0.014876260801 0.014649448374 0.014420503242 0.01418983241 
0.013957704431 0.01372464324 0.013490923032 0.013256714131 0.013022496734 0.012788592999 0.012555607303 0.012323387237 0.01209248956 
0.011863183643 0.011635765627 0.011410333645 0.011187105399 0.010966428906 0.015899118295 0.015714586796 0.015525445652 0.015332095679 
0.015134764392 0.014933778462 0.014729357751 0.014521923731 0.01431163536 0.014098968256 0.013884277861 0.013667792318 0.013450086496 
0.013231353633 0.013012058274 0.012792096125 0.012571844053 0.012351727912 0.012132198804 0.011913535909 0.011696018471 0.011479880482 
0.011265270183 0.011052387962 0.010841536754 0.010632912984 0.015280976738 0.015107942963 0.014930561917 0.014749164479 0.014564067667 
0.01437552072 0.014183697387 0.01398887774 0.013791413679 0.013591610065 0.013390106768 0.013186721593 0.012982090469 0.01277619361 
0.012569638345 0.012362426061 0.012154901203 0.011947609694 0.011740589457 0.011534291426 0.011329014463 0.011124825333 0.010921964159 
0.010720666896 0.010521082611 0.010323528106 0.014712588398 0.014549953179 0.014383257865 0.014212858923 0.01403890793 0.013861975573 
0.013681567701 0.01349836493 0.013312527828 0.013124507959 0.012934466958 0.012743174918 0.012550314123 0.012356399477 0.012161516286 
0.011966065833 0.011770258371 0.011574437944 0.011378907833 0.011183938886 0.010989783224 0.010796569466 0.010604480528 0.01041378899 
0.010224653234 0.010037321896 0.014190856264 0.01403781898 0.013880887379 0.013720401378 0.013556606215 0.013389597292 0.013219639499 
0.013047001285 0.012871870259 0.012694720841 0.012515539915 0.012334721852 0.012152681047 0.011969505388 0.011785458681 0.011600744008 
0.011415635079 0.011230382346 0.01104529214 0.010860653653 0.010676644329 0.010493507711 0.01031136114 0.010130410603 0.0099508428596 
0.0097727855494 0.013710945713 0.013566578541 0.013418536978 0.013267175864 0.01311260872 0.012955035911 0.01279482025 0.012631833582 
0.012466420437 0.012298864439 0.012129463238 0.011958527833 0.011786335118 0.01161304292 0.011438884874 0.011264018696 0.011088565505 
0.010912881079 0.010737348653 0.010562189281 0.010387524026 0.01021360672 0.010040480733 0.0098684655392 0.0096975973315 0.0095280804558 
0.013268584014 0.013132294311 0.012992419654 0.012849322718 0.012703213819 0.012554236073 0.012402596262 0.012248448542 0.012091892176 
0.011933209052 0.011772790954 0.011610862511 0.011447559994 0.011283325524 0.011118149058 0.010952103809 0.010785622627 0.01061882134 
0.010452061052 0.010285515691 0.010119439071 0.0099539934126 0.0097892712168 0.0096253879376 0.0094625556977 0.0093009239585 0.012857584113 
0.012728520821 0.01259615595 0.012460705571 0.012322362681 0.012181320817 0.012037682579 0.011891513227 0.011743117585 0.011592695872 
0.011440524939 0.011286861774 0.011131860194 0.010975833501 0.010818864425 0.010661132344 0.010502813759 0.010344175906 0.010185454238 
0.010026940642 0.009868742557 0.0097110031874 0.0095539495466 0.0093976143436 0.009242154043 0.0090878336126 0.012471003428 0.012348738756 
0.01222334596 0.012095024181 0.011963900256 0.011830125399 0.011693800223 0.011555161024 0.01141428753 0.011271411307 0.011126792421 
0.010980756337 0.010833430406 0.010684981886 0.010535656187 0.010385512403 0.010234830451 0.010083736375 0.0099324958753 0.0097813289001 
0.0096304390494 0.0094799905343 0.0093300215213 0.0091806821458 0.0090321227597 0.0088844937766 0.012101206743 0.01198532856 0.01186644488 