# vtk DataFile Version 5.1
vtk output
ASCII
DATASET STRUCTURED_POINTS
DIMENSIONS 26 26 26
SPACING 0.08 0.08 0.08
ORIGIN -1 -1 0.5
POINT_DATA 17576
FIELD FieldData 1
potential 1 17576 double
0.00043679941733 0.00043299649538 0.00042921676382 0.00042545533616 0.00042170612032 0.00041796219323 0.00041421110381 0.00041043885661 0.00040663228037 
0.00040278754334 0.00039890355146 0.00039498574057 0.00039104492215 0.00038708250391 0.00038310315561 0.00037910935794 0.00037510791167 0.00037111799131 
0.0003671648254 0.00036327620399 0.00035947909693 0.00035578894349 0.0003522091592 0.00034873580683 0.00034536038636 0.000342076623 0.00043591451915 
0.00043209126292 0.00042828586246 0.00042449535823 0.00042071914276 0.0004169572211 0.00041320088348 0.00040943348108 0.00040564041101 0.00040180888992 
0.00039793732901 0.00039403101569 0.00039009804821 0.00038614724791 0.00038217972367 0.00037819341727 0.00037419193409 0.00037019087543 0.00036621510031 
0.00036229932036 0.00035847555923 0.00035476571134 0.00035117529638 0.00034769886802 0.00034432303506 0.00034103779487 0.00043340587702 0.00042958333713 
0.000425769215 0.00042196271777 0.00041817835486 0.00041441536831 0.00041066874643 0.00040692237202 0.00040315454253 0.00039934771389 0.00039549731249 
0.00039161037328 0.00038769713452 0.00038376698818 0.00037981947336 0.00037584945383 0.00037185485762 0.00036784608551 0.00036385199569 0.00035991228146 
0.00035606746973 0.00035234581472 0.00034875484417 0.00034528460019 0.00034191857288 0.00033864158533 0.00042984477352 0.00042603347135 0.00042222188604 
0.00041841793799 0.00041463448175 0.0004108814165 0.00040715624532 0.00040343886986 0.00039970350129 0.00039592784724 0.00039210494062 0.00038824203288 
0.00038435274474 0.00038044804782 0.00037652598047 0.0003725764904 0.00036859178412 0.00036457972477 0.00036057007981 0.00035661210168 0.0003527508121 
0.00034902254536 0.00034543627187 0.00034197915471 0.0003386290896 0.00033536616071 0.00042586779282 0.00042207265515 0.00041827379759 0.00041447800004 
0.0004107056368 0.00040697013424 0.00040326752957 0.00039958067494 0.00039587779681 0.00039213441388 0.0003883399976 0.00038450265891 0.00038063938404 
0.00037675897797 0.00037285987009 0.00036892875326 0.00036495318338 0.00036094100769 0.00035692176141 0.0003529498792 0.00034907887878 0.00034534861664 
0.00034176877576 0.00033832539762 0.00033499163949 0.00033174543681 0.00042204017721 0.0004182636097 0.0004144793554 0.00041069913504 0.00040694115833 
0.00040322130822 0.00039954293139 0.00039588109231 0.00039220406708 0.00038848972993 0.00038472237893 0.00038090987414 0.00037706740139 0.00037320654615 
0.00036932318844 0.00036540243477 0.00036143223288 0.00035741863946 0.00035339612071 0.00034941746056 0.00034554178722 0.00034181027523 0.00033823673652 
0.00033480387397 0.00033148395831 0.00032825435429 0.00041877291848 0.00041500669203 0.00041123722118 0.00040747209162 0.00040373300446 0.00040002738794 
0.00039636211983 0.00039271866259 0.00038906198899 0.00038536825856 0.00038162224174 0.00037783220405 0.00037400702758 0.00037015700638 0.00036627794674 
0.0003623567464 0.00035838366956 0.00035436737228 0.00035034227714 0.00034636343351 0.00034248768661 0.00033875752406 0.00033518592668 0.0003317591818 
0.00032844868298 0.0003252323419 0.00041628814311 0.00041252772613 0.00040876876203 0.00040501740316 0.00040128892832 0.00039759574286 0.00039394039894 
0.00039030082164 0.00038665538713 0.00038297462644 0.00037924726737 0.00037547362242 0.00037165989466 0.00036781301292 0.00036392839222 0.00035999491605 
0.00035600961422 0.00035198547038 0.00034795891407 0.00034398187094 0.00034010936799 0.0003363802803 0.0003328073403 0.00032937994358 0.00032607353437 
0.00032286585767 0.00041465714027 0.00041089355559 0.00040714008692 0.00040339787735 0.00039967967198 0.00039599278505 0.00039233483985 0.00038869344333 
0.00038504984565 0.00038137421226 0.00037765801445 0.00037389688509 0.00037009284659 0.00036624208567 0.00036234511731 0.00035839296413 0.00035438834662 
0.00035035103376 0.000346319141 0.00034234296526 0.00033847138619 0.00033474078468 0.0003311622132 0.0003277281118 0.00032441735184 0.00032121235944 
0.00041384867479 0.0004100782597 0.00040632302301 0.00040258583313 0.00039887143045 0.00039518449888 0.0003915220465 0.00038787118355 0.00038421688892 
0.00038054205854 0.00037683252953 0.00037307895916 0.00036927802468 0.00036542478024 0.00036151255179 0.00035753894612 0.00035351315321 0.00034945929146 
0.00034541653723 0.00034143460104 0.00033755850244 0.00033381933134 0.00033022882495 0.00032678104875 0.00032346089889 0.00032025250808 0.00041379849963 
0.00041001387024 0.00040625106156 0.0004025103009 0.00039879288484 0.00039510085973 0.00039142815494 0.00038776583047 0.00038409820812 0.00038041475005 
0.00037670363605 0.00037295225202 0.00036915382231 0.00036529512119 0.00036136976686 0.00035737857179 0.00035333027644 0.00034925795533 0.00034520034961 
0.00034120573893 0.00033731564668 0.00033355952903 0.00032994884591 0.0003264817857 0.00032314566685 0.00031992744354 0.00041443119453 0.000410627947 
0.00040685197997 0.00040310115736 0.00039937540958 0.00039567203018 0.0003919843685 0.00038830477493 0.00038462108924 0.00038092552145 0.00037720757227 
0.00037345308309 0.00036964871744 0.0003657846371 0.00036184706266 0.0003578386958 0.00035377333952 0.00034968194094 0.0003456046416 0.00034158955563 
0.00033767745199 0.00033389716455 0.00033026008905 0.00032676745167 0.00032341036573 0.00032017865435 0.00041569470577 0.00041186772568 0.00040807228941 
0.0004043058035 0.00040056489901 0.00039684487028 0.00039313835538 0.00038943756715 0.00038573429084 0.00038202010122 0.00037828825931 0.00037452536968 
0.00037071234002 0.00036683528253 0.00036288391754 0.0003588604531 0.00035477706357 0.00035066505645 0.00034656689325 0.00034252655546 0.0003385880052 
0.0003347771862 0.00033111017187 0.00032758892936 0.00032420784319 0.0003209573897 0.00041756379262 0.00041370844276 0.00040988801497 0.00040609879991 
0.00040233647481 0.00039859536307 0.00039486533504 0.00039113944564 0.00038741087342 0.00038367501161 0.0003799206313 0.00037613787504 0.00037231064146 
0.00036841730516 0.00036444810419 0.00036040271719 0.00035629680655 0.00035216389977 0.00034804120668 0.00034397575335 0.00034000792418 0.00033616651944 
0.00033246860214 0.00032891801384 0.0003255116035 0.00032224079528 0.00042004229558 0.00041615403817 0.00041230036211 0.00040848300993 0.00040469430563 
0.0004009265498 0.00039716829557 0.0003934124212 0.00038965362252 0.00038588612067 0.00038210405767 0.00037829318041 0.00037444090038 0.00037052364075 
0.00036652911561 0.00036245745564 0.0003583247833 0.00035416197782 0.00035001131311 0.00034591945605 0.00034192465908 0.00033805649998 0.0003343294381 
0.00033075147763 0.00032731938656 0.00032402551415 0.00042316644523 0.00041923686885 0.00041534531141 0.00041149119761 0.00040767042058 0.00040387065628 
0.00040007968446 0.00039628858749 0.00039249169146 0.00038868519201 0.00038486423039 0.00038101648869 0.00037712810862 0.00037317985037 0.00036915168724 
0.00036504589402 0.00036087753582 0.00035668084992 0.00035249756 0.00034837646944 0.00034435867885 0.00034046743651 0.00033671780249 0.0003331150778 
0.00032965579075 0.00032633665721 0.00042699834694 0.00042302092923 0.00041908167982 0.0004151830342 0.00041132242206 0.00040748585196 0.00040365759124 
0.0003998253222 0.00039598211364 0.00039212655632 0.00038825629353 0.00038436263161 0.00038042954376 0.00037643749952 0.00037236957103 0.00036822034691 
0.00036400837729 0.00035976921615 0.00035554995623 0.00035140004575 0.00034735899808 0.00034344935917 0.00033968190825 0.00033605608173 0.00033257101078 
0.00032922268416 0.000431623265 0.00042758842434 0.00042359095315 0.00041964007601 0.00041573229212 0.00041185156557 0.00040797977885 0.00040409874225 
0.0004002001207 0.00039628437794 0.00039235315993 0.00038840297139 0.00038441738047 0.00038037318607 0.00037625634185 0.00037205694874 0.0003677926318 
0.00036350462197 0.00035924518356 0.00035506542262 0.00035100349358 0.00034707700882 0.00034329152923 0.00033964497509 0.00033613096245 0.00033275098593 
0.00043712239463 0.00043302181315 0.00042895601808 0.00042494247142 0.00042097744432 0.00041704471382 0.00041312046843 0.00040918251444 0.00040522010692 
0.00040123477604 0.0003972307413 0.00039321150568 0.00038916170985 0.00038505862731 0.00038088320719 0.00037662846112 0.00037230770988 0.00036796528232 
0.00036366152079 0.00035944922262 0.00035536533612 0.00035142360921 0.00034762030007 0.00034394830096 0.00034040212125 0.00033698576405 0.00044352959461 
0.00043935621574 0.00043521692215 0.00043113065903 0.00042709678046 0.00042310132135 0.0004191144568 0.00041511039899 0.00041107437368 0.00040700837976 
0.00040292252319 0.00039882195535 0.00039469787967 0.0003905285238 0.00038628783142 0.00038197205531 0.00037759163327 0.00037319511974 0.00036884405125 
0.00036459755104 0.00036048745433 0.0003565254783 0.00035270129372 0.00034900117995 0.00034541908364 0.00034195639133 0.00045077739125 0.00044652839999 
0.00044230925239 0.0004381412874 0.00043402891266 0.00042995648493 0.00042589486418 0.00042181441743 0.00041769731002 0.00041354451207 0.00040936994918 
0.0004051805843 0.00040097142316 0.00039672362822 0.00039241392012 0.00038803049297 0.00038359485021 0.00037914627282 0.00037475108694 0.00037046612136 
0.00036632446205 0.00036233385344 0.0003584806332 0.00035474678913 0.00035112288955 0.0003476119614 0.00045862195028 0.00045429547186 0.00044999892295 
0.00044574666008 0.00044154828622 0.00043738949602 0.00043324205459 0.0004290747907 0.00042487114823 0.00042062946611 0.00041636098471 0.00041207699463 
0.00040777478176 0.00040344073497 0.00039905459228 0.0003946055938 0.00039011472706 0.00038562233041 0.00038118630237 0.00037686276172 0.00037268396247 
0.0003686553921 0.00036476283589 0.00036098615253 0.00035731638824 0.0003537549277 0.0004666234046 0.00046222218432 0.00045784814619 0.00045351758767 
0.00044923217196 0.00044498161806 0.0004407413677 0.00043648287456 0.00043219028692 0.00042785906839 0.00042349848903 0.00041911905532 0.00041472187806 
0.00041029733213 0.0004058319986 0.00040131983695 0.00039677554798 0.00039224453565 0.00038777349852 0.00038341374654 0.0003791939323 0.00037512096099 
0.00037118000845 0.00036735501738 0.00036363498257 0.00036002210308 0.00047415286165 0.00046968882187 0.00046524788626 0.00046084384063 0.00045647789203 
0.00045214050204 0.00044780905458 0.00044346124867 0.00043908029492 0.000434663797 0.0004302168117 0.00042574805892 0.00042125912701 0.00041674773159 
0.00041220364273 0.00040762970912 0.00040304191187 0.00039847348557 0.0003939752027 0.00038958233606 0.00038532363332 0.00038120237602 0.00037721032099 
0.00037333239496 0.00036956190375 0.00036589819229 0.00048050943485 0.00047598920746 0.00047149937043 0.00046703683754 0.00046260348242 0.00045819165122 
0.00045377993611 0.00044935288617 0.00044489386754 0.00044040107182 0.00043587736522 0.00043132897191 0.00042675891903 0.00042216783351 0.00041755324473 
0.00041292249315 0.00040829367362 0.00040369734588 0.00039917586135 0.00039475720208 0.00039046449466 0.00038630150537 0.00038226099546 0.00037833369981 
0.00037451329386 0.00037080171678 0.00048505130914 0.00048049614091 0.00047596962716 0.00047147219684 0.00046699295334 0.00046252481301 0.00045805306517 
0.00045356148832 0.00044904150338 0.00044448684798 0.00043990015655 0.00043528773414 0.00043065150604 0.00042599478188 0.0004213204051 0.0004166398336 
0.00041197638677 0.00040735822884 0.00040281588582 0.0003983826551 0.00039406694648 0.00038987269433 0.00038579483209 0.00038182482415 0.00037796257237 
0.00037420986363 0.00048933914386 0.0004850634976 0.00048081787878 0.00047659767024 0.00047239437939 0.00046820133324 0.00046401003902 0.00045981006981 
0.00045559376298 0.0004513578505 0.00044710049334 0.00044282367115 0.0004385353 0.00043423627366 0.00042993302929 0.00042563042629 0.0004213364104 
0.00041706659563 0.00041283887588 0.00040867265295 0.00040458753743 0.00040059542415 0.0003967003629 0.00039290365532 0.00038920131518 0.00038558997737 
0.0004894474861 0.00048514422107 0.00048087010912 0.00047662005576 0.00047238869898 0.00046817331595 0.00046396688192 0.00045975798301 0.00045553881117 
0.00045130142683 0.00044704293875 0.00044276615066 0.00043847412159 0.00043417414205 0.00042986850594 0.00042556075019 0.00042125710106 0.00041697215808 
0.00041272327104 0.00040853351376 0.00040442410403 0.00040041075805 0.00039649927079 0.00039269009268 0.00038897774639 0.00038535646863 0.00048837679794 
0.00048406203055 0.00047977147514 0.0004755001585 0.00047125472217 0.00046702870306 0.00046281725094 0.00045861071528 0.00045439696587 0.00045016600452 
0.00044591377731 0.00044164323647 0.00043735703429 0.00043306154204 0.00042875942912 0.00042445224915 0.00042014412516 0.00041584709864 0.00041158113926 
0.00040737088267 0.00040324207514 0.00039921297714 0.00039529185702 0.00039147623203 0.00038776045591 0.00038413682818 0.00048649226317 0.00048217364826 
0.0004778747772 0.0004735971879 0.00046934363781 0.00046511474983 0.00046090730473 0.00045670891839 0.00045250660047 0.00044828752976 0.00044404662809 
0.00043978539989 0.00043550858791 0.00043122186105 0.00042692706011 0.00042262284852 0.00041831374444 0.00041400788635 0.00040972657003 0.00040550060364 
0.00040135620517 0.00039731557041 0.0003933885856 0.00038957239786 0.00038585837216 0.00038223627513 0.00048421031231 0.00047989149561 0.00047559223037 
0.00047131216147 0.00046705840543 0.00046283391072 0.00045863212027 0.00045444483744 0.00045025468687 0.00044604881204 0.00044182036378 0.00043757018221 
0.0004333047865 0.00042902720408 0.00042473924575 0.00042043891451 0.0004161264777 0.00041181415973 0.0004075218221 0.00040328221889 0.00039912627371 
0.00039507878942 0.00039114846086 0.00038733280267 0.00038362167357 0.00038000436301 0.00048191923259 0.00047760459235 0.00047330598378 0.00046902926166 
0.00046477773585 0.00046055575199 0.00045636358509 0.00045218505038 0.00044800412001 0.00044381186907 0.00043959449106 0.00043535495168 0.00043109789734 
0.00042682669781 0.00042254247735 0.00041824201197 0.00041392636426 0.00040960632757 0.00040530580801 0.00040105573024 0.00039689129841 0.00039283701192 
0.00038890427951 0.00038508902149 0.0003813801272 0.00037776808536 0.00047993191573 0.00047561500699 0.00047131812652 0.0004670432912 0.00046279721376 
0.00045857751831 0.00045438760329 0.00045021639709 0.00044604447387 0.00044185879273 0.0004376490149 0.00043341786024 0.00042916587018 0.00042489733602 
0.0004206110412 0.00041630570284 0.00041198272957 0.00040765447826 0.00040334496329 0.00039908709134 0.00039491524847 0.00039085526691 0.00038691776555 
0.00038310128786 0.0003793936715 0.00037578454851 0.00047844725063 0.00047412676445 0.00046982863497 0.00046555325574 0.00046130526739 0.00045708724271 
0.00045289954895 0.00044872607043 0.00044455750593 0.00044037493709 0.00043617137864 0.0004319440482 0.00042769265683 0.00042342081189 0.00041912746218 
0.00041481119278 0.00041047571699 0.00040613599275 0.00040181732843 0.00039755182252 0.0003933734462 0.00038930664333 0.00038536296516 0.00038154083355 
0.00037783115806 0.00037422231061 0.00047756866845 0.00047323853606 0.00046893560587 0.00046465659053 0.00046040688119 0.00045618589833 0.00045198979854 
0.0004478110654 0.00044363989261 0.00043945458025 0.00043525110396 0.00043102399469 0.00042677218865 0.00042249170204 0.00041818673565 0.00041385480461 
0.00040950310495 0.00040514897668 0.00040081844299 0.00039654441691 0.00039235719579 0.00038828129749 0.00038432777716 0.00038049649951 0.00037677891084 
0.00037316612046 0.00047732242475 0.00047298073045 0.00046866704206 0.00046438266237 0.00046012522478 0.00045589623478 0.000451690859 0.00044750066403 
0.00044331574274 0.00043912542655 0.00043491893129 0.0004306877197 0.00042642951051 0.00042214119002 0.00041782030406 0.00041346963721 0.00040909940374 
0.00040472776004 0.00040038180956 0.00039609425473 0.00039189517324 0.00038780593161 0.00038383851463 0.00037999361956 0.00037626427634 0.00037264300065 
0.00047770178424 0.00047334208486 0.0004690139955 0.00046471627469 0.00046044663394 0.00045620515094 0.00045198594656 0.00044778185203 0.00044358094386 
0.00043937668963 0.00043515998649 0.00043092266543 0.00042665479607 0.00042235417622 0.0004180179324 0.00041364920505 0.00040925719645 0.00040486586821 
0.00040050144569 0.00039619597883 0.00039197967004 0.00038787158854 0.00038388467651 0.00038002140139 0.00037627641781 0.00037264235322 0.00047867752597 
0.00047429577471 0.00046994783322 0.00046563201991 0.00046134644828 0.00045708694246 0.00045284947189 0.00044862555648 0.0004444057261 0.00044018428946 
0.00043595295326 0.00043170058037 0.00042741924022 0.00042310595429 0.00041875182726 0.00041436281664 0.00040995108936 0.0004055382511 0.00040115114421 
0.00039682396982 0.00039258416693 0.00038845354819 0.00038444296078 0.00038055704335 0.00037679188717 0.0003731423762 0.00048022540801 0.00047581647589 
0.00047144421973 0.00046710587009 0.00046279781976 0.00045851623936 0.00045425557197 0.00045000745842 0.00044576552598 0.00044152080423 0.00043726894984 
0.00043299974137 0.00042870140532 0.00042436656458 0.00041999195444 0.00041558274036 0.00041114846716 0.00040671183593 0.00040230204327 0.00039794814477 
0.00039368271957 0.00038952487107 0.00038548787118 0.00038157615161 0.00037778815414 0.00037411919448 0.00048233346664 0.00047789266436 0.00047349108397 
0.00046912393741 0.00046478874261 0.00046048086849 0.00045619170655 0.00045191554786 0.00044764512783 0.00044337517678 0.00043909566725 0.00043480053976 
0.00043048048236 0.00042612272129 0.00042172393549 0.00041728746241 0.00041282647081 0.00040836536111 0.00040392839137 0.00039954870852 0.00039525481368 
0.0003910677218 0.00038700280491 0.00038306417343 0.00037925202858 0.00037556098313 0.00048500552653 0.00048052813878 0.00047608991879 0.00047168965203 
0.0004673225469 0.00046298231315 0.00045866077922 0.0004543511796 0.00045004752309 0.00044574354082 0.00044143328519 0.00043710548009 0.00043275524266 
0.00042836846295 0.00042393997299 0.00041947311927 0.00041498186026 0.00041048863879 0.00040602387301 0.00040161444626 0.0003972928157 0.00039307891599 
0.00038898465156 0.00038501925137 0.00038118084109 0.00037746544613 0.00048826010814 0.00048374011109 0.0004792612245 0.00047482140601 0.0004704166157 
0.00046603890307 0.00046167952267 0.00045733135198 0.00045298814249 0.00044864413254 0.0004442935044 0.00043992718901 0.00043553855091 0.00043111669419 
0.0004266520011 0.00042214950387 0.00041762238811 0.00041309473483 0.00040859470753 0.00040415563159 0.00039980728431 0.00039556671412 0.0003914470422 
0.00038745466341 0.00038358806534 0.00037984570384 0.00049212897375 0.00048756092304 0.00048303459931 0.00047854802644 0.00047409929562 0.00046967894555 
0.00046527687778 0.00046088456576 0.00045649459565 0.00045210278342 0.00044770416434 0.00044329273298 0.00043885785024 0.00043439095412 0.00042988580805 
0.00042534118477 0.00042077286387 0.00041620504071 0.00041166953392 0.00040719860204 0.00040282142066 0.00039855462347 0.00039441140658 0.00039039256038 
0.00038649792179 0.00038272575742 0.00049664616536 0.00049202324132 0.00048744116843 0.00048290329487 0.00047840425916 0.00047393469661 0.00046948380329 
0.00046504068013 0.00046059681087 0.00045614904807 0.00045169445349 0.00044722942366 0.00044274314503 0.0004382244789 0.00043367086951 0.00042907884627 
0.00042446334381 0.000419851687 0.00041527778986 0.00041077408809 0.00040636749348 0.00040207473898 0.00039790416095 0.00039385891506 0.00038993497377 
0.00038613246022 0.00050182864373 0.00049714479852 0.00049250031261 0.00048790286683 0.00048334657301 0.00047882165337 0.00047431523418 0.00046981419395 
0.00046530991197 0.00046079963602 0.00045628064444 0.00045175291144 0.0004472061152 0.00044263022118 0.0004380204797 0.00043337754256 0.0004287121532 
0.00042405305121 0.00041943723205 0.00041489848216 0.0004104618085 0.0004061423906 0.00040194506176 0.00039786883892 0.00039391213503 0.00039007588099 
0.0005076460711 0.00050289590308 0.00049818518265 0.00049352182708 0.00048890029099 0.00048431346226 0.00047974453162 0.0004751786643 0.0004706066998 
0.00046602557191 0.00046143596683 0.00045683720379 0.00045222405491 0.00044758658906 0.00044291558415 0.00043821720463 0.00043349782714 0.00042879015765 
0.00042413057069 0.00041955546158 0.00041508651987 0.00041073816938 0.0004065107587 0.00040240268805 0.00039841006527 0.0003945322084 0.00051399279377 
0.00050917307116 0.000504392124 0.00049965663266 0.0004949644786 0.00049030704213 0.00048566818953 0.00048103183409 0.00047638667305 0.0004717299981 
0.00046706490198 0.00046239115841 0.00045770496798 0.00045299876756 0.00044826554079 0.00044350393891 0.00043873441363 0.00043397842274 0.0004292760012 
0.00042466185358 0.00042015793293 0.00041577621856 0.00041151554816 0.00040737076109 0.00040333848719 0.00039941770874 0.00052064748573 0.00051575727321 
0.000510906728 0.0005060971342 0.00050133103502 0.00049659919476 0.00049188502637 0.00048717225688 0.00048245098273 0.00047771716499 0.00047297243015 
0.00046821985364 0.00046345652452 0.00045867774811 0.00045387823816 0.0004490573091 0.00044423437155 0.00043943467287 0.00043469063404 0.00043003750465 
0.00042549646017 0.00042107714006 0.00041677818108 0.00041259261201 0.00040851726449 0.00040455178217 0.00052727554056 0.00052231664799 0.00051739536127 
0.00051251755115 0.00050767827238 0.00050287054003 0.00049807889293 0.00049328931694 0.00048849057699 0.00048367967324 0.00047885667019 0.00047402495489 
0.00046918461646 0.00046433222476 0.00045946596783 0.00045458824036 0.00044971259295 0.00044487091145 0.00044008838964 0.00043539775648 0.00043081876972 
0.00042636022723 0.00042201879869 0.00041779033276 0.00041367076443 0.00040965973966 0.0005334420967 0.00052842429951 0.00052344095003 0.00051849711957 
0.00051358992057 0.00050871080235 0.00050384577334 0.00049898222907 0.00049410900568 0.00048922400285 0.00048432686024 0.00047942078291 0.00047450606099 
0.00046958393758 0.00046465251059 0.0004597199107 0.00045480028851 0.00044991572788 0.00044510049812 0.00044037511542 0.00043575939585 0.00043125988282 
0.00042687668739 0.00042260440627 0.00041844094196 0.00041438557629 0.00053868675238 0.00053361389456 0.00052858303381 0.00052358471004 0.00051861950232 
0.00051367845877 0.0005087493481 0.00050381910748 0.00049887929971 0.0004939282482 0.0004889648944 0.00048399125961 0.00047900970704 0.0004740230293 
0.00046903312504 0.0004640498587 0.00045908877941 0.00045417036208 0.00044932530826 0.00044456999153 0.00043992213059 0.00043538697309 0.00043096411233 
0.00042665086092 0.00042244578819 0.00041834888477 0.00054259725229 0.00053748637698 0.00053241506217 0.00052738082596 0.00052237165471 0.0005173813084 
0.00051239990311 0.00050741551139 0.00050242389809 0.00049741778533 0.00049239865386 0.00048736864024 0.00048233182926 0.00047729000762 0.00047224968352 
0.00046722180937 0.00046222520959 0.0004572799575 0.00045240636988 0.00044763015075 0.0004429574674 0.00043839305143 0.0004339383336 0.0004295896181 
0.00042534908502 0.00042121681322 0.00054328303902 0.00053852723635 0.00053380842269 0.0005291211116 0.00052445739947 0.00051981106357 0.00051517571713 
0.00051054417406 0.0005059114499 0.00050127360045 0.00049662908464 0.00049197988574 0.00048733044358 0.00048268224356 0.00047804149809 0.00047341430257 
0.00046880775494 0.00046423477612 0.00045970830662 0.00045524221528 0.00045085153027 0.00044654541857 0.00044232818802 0.00043820260519 0.00043416781206 
0.00043022267216 0.00054414604754 0.00053935754954 0.00053460646786 0.00052988695236 0.0005251923819 0.00052051935426 0.00051586132128 0.0005112112931 
0.0005065640112 0.00050191425769 0.00049725817312 0.00049259900201 0.0004879366258 0.00048327765284 0.00047862524709 0.00047398356308 0.00046936006288 
0.00046476795976 0.00046021895802 0.00045572945524 0.00045131413454 0.00044698487768 0.00044274733319 0.00043860369392 0.00043455275413 0.00043059152961 
0.00054414023661 0.00053933132313 0.00053455674672 0.00052981020259 0.00052509502497 0.00052040317654 0.00051573048083 0.00051106979381 0.0005064140167 
0.00050175754953 0.00049709632536 0.00049243164375 0.00048776369389 0.00048309762123 0.00047843712382 0.00047378565305 0.00046915057321 0.00046454098631 
0.00045997300002 0.00045546224095 0.0004510263968 0.00044667815982 0.00044242464447 0.00043826708782 0.00043420452211 0.00043023291128 0.00054350428462 
0.00053868032701 0.00053388802833 0.00052912717162 0.00052439390273 0.00051969068687 0.0005150095293 0.00051034270385 0.00050568395629 0.0005010252556 
0.00049636212125 0.00049169446562 0.00048702415622 0.00048235440836 0.00047768855573 0.00047302953736 0.00046838468886 0.00046376106914 0.0004591751731 
0.00045464732862 0.00045019383271 0.00044582922098 0.00044156313625 0.00043739593848 0.00043332576822 0.00042934642495 0.0005425183187 0.00053768194425 
0.00053287864313 0.00052810519321 0.00052336350226 0.00051865180212 0.00051396349331 0.0005092942198 0.00050463335415 0.00049997337467 0.00049530973827 
0.00049064097998 0.00048597019819 0.00048129787951 0.00047662770385 0.00047196218191 0.00046730586852 0.00046266976131 0.00045806927576 0.00045352515708 
0.00044905747842 0.00044468017176 0.00044040339065 0.00043622780257 0.0004321514159 0.00042816745855 0.0005414531256 0.00053660893048 0.00053179541156 
0.00052701462682 0.0005222641832 0.00051754413611 0.00051285365023 0.00050818063112 0.00050351608903 0.00049885706991 0.00049419183584 0.00048952206771 
0.00048484833125 0.00048017229378 0.00047549647056 0.00047082239672 0.00046615579586 0.00046150762245 0.00045689315806 0.00045233448028 0.00044785253299 
0.00044346375286 0.00043917751838 0.00043499488217 0.00043091183627 0.00042692443989 0.00054054449307 0.00053568778284 0.0005308646412 0.00052607770876 
0.00052131885607 0.0005165918288 0.00051189375001 0.00050721735695 0.00050255145202 0.00049788759928 0.00049321933653 0.00048854640168 0.00048386811681 
0.00047918612197 0.00047450154464 0.0004698170987 0.00046513773524 0.00046047573904 0.00045584781883 0.00045127537161 0.00044678042576 0.00044237999862 
0.00043808312181 0.00043389242635 0.00042980320958 0.00042581081711 0.00053996070336 0.00053509137429 0.00053025733064 0.00052545620571 0.00052068892956 
0.00051595532955 0.00051124830236 0.00050656254089 0.00050189133025 0.0004972214897 0.00049254874305 0.00048786861984 0.00048318362826 0.00047849232444 
0.00047379573268 0.00046909729646 0.00046440287741 0.00045972533662 0.00045508237807 0.00045049599866 0.00044598772626 0.0004415743953 0.00043726643254 
0.00043306457344 0.00042896724195 0.00042496816651 0.00053980691977 0.00053492165611 0.00053007370462 0.00052525969692 0.00052048099229 0.00051573406316 
0.00051101409341 0.00050631907136 0.00050163697949 0.00049695654919 0.00049227495544 0.00048758738099 0.00048289183504 0.00047818644685 0.00047347522655 
0.00046875986288 0.00046404773314 0.00045935219901 0.00045469266792 0.00045009181765 0.00044556837456 0.00044114114982 0.00043681854106 0.00043260319661 
0.00042849355782 0.00042448555818 0.00054013684114 0.00053523363917 0.00053036776656 0.0005255391809 0.00052074458801 0.00051598180118 0.0005112471168 
0.0005065340191 0.00050183404885 0.0004971447591 0.00049245031796 0.0004877502546 0.00048304126404 0.00047832193645 0.00047359222683 0.00046885626975 
0.00046412383643 0.00045940799159 0.00045472975281 0.0004501098874 0.00044557069628 0.00044112544576 0.00043678591772 0.00043255491259 0.00042843018496 
0.00042440816941 0.00054097358924 0.00053604691791 0.00053116057649 0.0005263118284 0.00052149710695 0.00051671595742 0.0005119608342 0.00050722968619 
0.00050251009657 0.00049779885217 0.00049308904078 0.00048837514437 0.00048364919549 0.00047891193653 0.00047416293032 0.00046940660802 0.00046465026241 
0.00045991283193 0.00045521272376 0.0004505714245 0.00044601121425 0.00044154533799 0.00043718491468 0.0004329343174 0.00042879183553 0.00042475400122 
0.00054231643806 0.00053736309729 0.00053245119625 0.00052757782801 0.00052274032661 0.00051793536782 0.0005131587436 0.00050840281965 0.0005036603059 
0.00049892654394 0.00049419625669 0.0004894596459 0.00048471363778 0.00047995774123 0.00047518658534 0.00047040686079 0.00046562757697 0.00046086590282 
0.00045613954547 0.00045147498579 0.00044688979257 0.00044239999023 0.00043801572613 0.00043374242697 0.00042957905031 0.00042552288084 0.00054416032552 
0.00053917614021 0.00053423439904 0.00052933281551 0.00052446777021 0.00051963571455 0.00051483090149 0.00051004718031 0.0005052784242 0.00050051770546 
0.00049576078471 0.00049100168536 0.00048623215308 0.00048144866185 0.00047665207849 0.00047184786625 0.00046704328244 0.00046225476915 0.00045750407511 
0.00045281044456 0.00044819827535 0.00044368174887 0.0004392712367 0.00043497279105 0.00043078558225 0.00042670815976 0.00054650380667 0.00054148335021 
0.00053650804354 0.00053157289753 0.0005266756321 0.00052181215197 0.0005169751507 0.0005121598788 0.00050735923466 0.00050256885506 0.00049778056153 
0.00049299081026 0.0004881940814 0.00048338279389 0.00047855729686 0.00047372173089 0.00046888771285 0.00046407202296 0.00045929158294 0.00045457045452 
0.00044992923346 0.00044538318663 0.00044094541237 0.00043661899829 0.00043240772998 0.00042830621357 0.00054934771484 0.00054428775147 0.00053927286197 
0.00053430032811 0.00052936655989 0.00052446672889 0.00051959316926 0.00051474101309 0.00050990423389 0.00050507743368 0.00050025540615 0.00049542931706 
0.00049059830894 0.00048575450213 0.00048089614133 0.00047602788705 0.0004711597142 0.00046631043036 0.00046150004256 0.00045674818596 0.00045207741645 
0.00044750332463 0.00044303551451 0.00043868166241 0.0004344420847 0.00043031501827 0.00055269988399 0.00054759562948 0.00054253678271 0.00053752199478 