# vtk DataFile Version 5.1
vtk output
ASCII
DATASET STRUCTURED_POINTS
DIMENSIONS 26 26 26
SPACING 0.08 0.08 0.08
ORIGIN -1 -1 0.5
POINT_DATA 17576
FIELD FieldData 1
potential 1 17576 double
0.00083181369131 0.0008245466422 0.00081739120033 0.00081034209284 0.00080339853102 0.00079654887009 0.00078977953923 0.0007830688655 0.00077639559456 
0.00076977942418 0.00076324540189 0.00075676442516 0.00075038612088 0.00074411814154 0.00073795753902 0.00073189433524 0.00072589840566 0.0007199697949 
0.00071411263194 0.00070833413268 0.00070264494782 0.00069704437279 0.00069153160213 0.00068609141544 0.00068071443998 0.00067540036785 0.00082251817256 
0.00081532420215 0.00080822531698 0.00080122398052 0.00079432609574 0.00078753844933 0.00078085036238 0.00077423180189 0.00076768138384 0.00076119876668 
0.00075473971232 0.00074835213704 0.00074206454464 0.0007358904918 0.00072983805233 0.00072387239408 0.00071797660779 0.00071213934442 0.00070636181697 
0.00070065787274 0.00069504544745 0.00068953007052 0.00068411096617 0.00067876803074 0.00067348361721 0.0006682510627 0.0008099124928 0.0008028301243 
0.00079582497903 0.00078890084813 0.00078208429834 0.00077539264277 0.0007688108984 0.00076233429647 0.00075592417106 0.00074956697807 0.00074322713959 
0.00073695468359 0.00073077825382 0.00072473412007 0.00071880179026 0.00071296615202 0.00070719708021 0.00070147473117 0.00069579833633 0.00069019079652 
0.00068467434967 0.00067927100685 0.00067397033778 0.00066874683012 0.00066357558464 0.00065844450458 0.00079515882031 0.00078821459731 0.00078132371697 
0.00077450510361 0.00076779618643 0.0007612147882 0.00075478039928 0.0007484578325 0.0007421933349 0.0007359812853 0.00072977606331 0.00072362808385 
0.0007175875815 0.00071166944219 0.00070588030391 0.00070019508087 0.00069456992667 0.00068897685363 0.00068341671137 0.00067792075832 0.00067251620005 
0.00066723545199 0.00066206579297 0.00065697668644 0.0006519316675 0.00064691296197 0.00077954980825 0.00077274908297 0.00076599293978 0.00075930009063 
0.00075270628427 0.00074627324655 0.00073997976253 0.00073380392621 0.0007276945843 0.00072163106502 0.00071556420167 0.00070955078335 0.00070364686211 
0.00069786688023 0.00069222672497 0.00068669032661 0.00068120993745 0.00067575327615 0.00067031816314 0.00066494272173 0.00065966217397 0.00065450833667 
0.00064947087525 0.00064451377669 0.00063959605802 0.00063469516328 0.00076422954611 0.00075757767197 0.00075096142472 0.00074439557038 0.00073794911953 
0.00073164036625 0.00072548887037 0.00071945797861 0.0007134910416 0.00070757062203 0.00070164554669 0.00069577728829 0.00068999700703 0.00068435829993 
0.00067885814835 0.00067346020649 0.0006681160451 0.00066279139455 0.00065748688794 0.00065223318926 0.00064707501051 0.0006420425902 0.00063712940202 
0.00063229622894 0.00062749950889 0.00062271540695 0.00075002171341 0.00074350762698 0.00073703065429 0.00073060821185 0.00072429306195 0.0007181159588 
0.0007120890686 0.00070618327757 0.00070034487069 0.00069455411359 0.00068877351927 0.00068303278984 0.00067738767149 0.00067187534733 0.00066649764331 
0.00066122065805 0.00065599826564 0.00065079669919 0.00064561562536 0.00064048384038 0.00063544481502 0.00063052560929 0.00062572004166 0.00062099406829 
0.00061630482386 0.00061162993306 0.00073737285569 0.00073098922888 0.00072463330615 0.00071834818415 0.00071216301155 0.00070610956922 0.00070019507679 
0.00069439338442 0.00068866500175 0.00068300033881 0.00067733452433 0.00067172407235 0.00066620625399 0.00066080983897 0.00065553767717 0.00065035882749 
0.00064523943048 0.00064014719895 0.00063508228044 0.00063006745582 0.00062514018415 0.00062032229436 0.00061560827398 0.00061097221188 0.00060637511377 
0.00060179818545 0.00072642632743 0.00072013037664 0.00071390318577 0.00070774178236 0.00070167840062 0.00069573597749 0.00068991899931 0.00068420747278 
0.00067859711089 0.00067300231378 0.00066745217438 0.00066196085332 0.00065655912755 0.00065126510435 0.00064608327186 0.00064099020527 0.00063595626754 
0.00063095943476 0.00062599869227 0.00062109242031 0.00061626608702 0.00061153613456 0.00060690006431 0.00060233551264 0.00059781396164 0.00059332136462 
0.00071707645064 0.00071088666686 0.00070476233791 0.00069871656629 0.00069276411217 0.00068692150408 0.00068119057289 0.00067555534933 0.00067001938809 
0.00066451494181 0.00065906292813 0.00065367739194 0.00064837609853 0.00064317343106 0.0006380681251 0.00063304621527 0.00062808406602 0.00062316867318 
0.00061829790811 0.00061348737033 0.00060875176365 0.00060410164859 0.00059953210505 0.00059502792554 0.00059057094875 0.00058615154909 0.00070920621937 
0.0007030967462 0.00069706454325 0.00069111533453 0.00068525860725 0.00067950549684 0.00067384667715 0.00066828884405 0.00066281583947 0.0006573857728 
0.00065201904808 0.00064672313606 0.00064151014166 0.00063638661277 0.00063134886275 0.00062638855268 0.0006214876901 0.00061664190697 0.00061184959372 
0.00060712097801 0.00060246285894 0.00059787970491 0.00059336811744 0.00058891756455 0.00058451563881 0.00058014807125 0.00070263301461 0.0006965966802 
0.00069064438454 0.00068477919593 0.00067900758973 0.00067332760776 0.00066774710739 0.00066224292073 0.0006568297001 0.00065146478036 0.0006461706957 
0.00064095228874 0.00063581281061 0.00063075693237 0.00062577872381 0.00062087103354 0.00061602539981 0.00061123969892 0.00060651503575 0.00060185293178 
0.00059725987034 0.00059273630791 0.00058827515192 0.00058387109106 0.00057951755595 0.00057520464579 0.00069723269924 0.00069125964276 0.00068537613641 
0.00067958422393 0.00067388064937 0.00066827817636 0.00066275167315 0.00065730162349 0.0006519404273 0.00064663229798 0.00064140020987 0.00063624622087 
0.00063117096554 0.00062617270262 0.00062124627147 0.00061638545659 0.00061158788435 0.00060685202155 0.00060218225606 0.00059757714257 0.0005930399423 
0.00058856466672 0.00058414827928 0.0005797860191 0.00057546449315 0.00057120504029 0.00069293094316 0.00068701345718 0.00068118849876 0.00067545294301 
0.00066982062916 0.00066426962313 0.00065879675671 0.00065341446859 0.00064808085032 0.00064282166307 0.00063763930409 0.00063253717099 0.00062751580081 
0.00062256736219 0.00061768587317 0.0006128659137 0.0006081075218 0.00060341419186 0.00059878929587 0.00059423111601 0.00058973860246 0.00058530726245 
0.00058092840981 0.00057660071657 0.0005723150323 0.00056809827753 0.0006897126473 0.00068384217528 0.00067805682626 0.0006723831672 0.0006667961844 
0.00066129475356 0.00065586732955 0.00065052589939 0.00064523338979 0.00064001150755 0.00063486945261 0.00062981017692 0.00062483198127 0.00061992633424 
0.00061508322503 0.00061029812917 0.00060557246269 0.00060091328368 0.00059632009607 0.00059179823183 0.00058734422742 0.0005829490019 0.00057860386035 
0.00057430114707 0.00057005318086 0.00056585944176 0.00068761691539 0.00068177469122 0.00067604001038 0.00067039713625 0.00066485234526 0.00065939326679 
0.00065400482665 0.00064869861579 0.00064343618736 0.00063824312481 0.00063313002964 0.00062810268112 0.00062315842084 0.00061828878902 0.00061347607675 
0.00060871944617 0.00060401750017 0.0005993822777 0.00059481224512 0.00059031804219 0.00058589408296 0.00058153392545 0.00057720563534 0.00057293119247 
0.00056870128044 0.00056452234108 0.00068672865043 0.00068092285799 0.00067520340354 0.00066958760119 0.0006640753244 0.0006586519199 0.00065329708659 
0.00064801832565 0.00064277572632 0.0006375990625 0.00063250110303 0.00062749393907 0.00062257774425 0.00061773506668 0.00061295019799 0.00060821336619 
0.00060352583652 0.00059890123152 0.00059434464918 0.00058986746819 0.00058546981036 0.00058112831078 0.00057682035358 0.00057255944973 0.00056833702378 
0.0005641699522 0.00068719796054 0.00068139461235 0.00067568392416 0.00067008333158 0.00066459396526 0.00065919502447 0.00065386700557 0.00064860623831 
0.00064337304739 0.00063819934773 0.00063310597878 0.00062811012645 0.00062320860512 0.00061838602977 0.00061362055051 0.00060889634214 0.00060421124608 
0.00059958575719 0.00059503405078 0.00059056294044 0.00058617455685 0.00058183556544 0.000577551799 0.00057329586388 0.00056907523918 0.0005649050893 
0.00068912809477 0.00068332323164 0.00067760756192 0.00067200933256 0.00066653019259 0.00066114869728 0.00065585469047 0.00065058464737 0.00064535047954 
0.00064016850333 0.0006350645028 0.00063006517019 0.00062516718588 0.000620354462 0.00061559771277 0.00061087621273 0.0006061940991 0.0006015495267 
0.00059698131043 0.00059250370498 0.00058810505771 0.00058378496416 0.00057950204882 0.00057524606532 0.00057101602627 0.00056683326949 0.00069257746911 
0.00068676235057 0.00068103409854 0.0006754254154 0.00066993978703 0.00066456244652 0.0006592728791 0.00065400211677 0.00064875729413 0.00064355476312 
0.00063843015308 0.00063341096876 0.00062850304281 0.00062368698536 0.00061892783814 0.00061420342531 0.00060950068252 0.00060483453191 0.00060024084646 
0.00059574618649 0.00059133464162 0.0005870047679 0.00058271869307 0.00057845026743 0.00057420250433 0.00056999523677 0.00069742971039 0.00069159976437 
0.00068585270598 0.00068022146861 0.00067471957379 0.00066932726349 0.00066402608105 0.00065874324173 0.0006534803926 0.00064825283264 0.00064310081275 
0.00063805322834 0.00063312009674 0.00062828670967 0.00062350981307 0.00061876137833 0.00061403632317 0.00060934231946 0.00060472001274 0.000600184008 
0.0005957544175 0.00059140472411 0.00058709865294 0.00058281038686 0.00057853715998 0.00057429918796 0.00070329001133 0.00069744602414 0.00069168259655 
0.00068602678286 0.0006804975679 0.00067507863523 0.00066975227377 0.00066444373768 0.00065915774733 0.00065390600315 0.00064872227737 0.00064364474998 
0.0006386741067 0.00063380079599 0.00062899177495 0.00062422042005 0.00061946503475 0.00061474294171 0.00061007759925 0.00060551309327 0.00060104795617 
0.00059666174501 0.00059232165968 0.00058800115509 0.00058369615065 0.0005794316205 0.0007094518923 0.00070359861802 0.00069782200026 0.00069214969691 
0.000686592917 0.00068115702107 0.00067577764259 0.00067043881114 0.00066512846448 0.00065985728972 0.0006546453873 0.00064952647305 0.00064451451788 
0.0006395972055 0.0006347481213 0.00062994328174 0.00062515791665 0.00062039867749 0.00061571502637 0.00061111745819 0.00060660946296 0.00060217936762 
0.00059779281899 0.00059343530419 0.00058910016253 0.00058480877123 0.0007149130184 0.00070906305297 0.00070328862896 0.00069760987549 0.00069203385322 
0.00068656906674 0.00068115761326 0.00067579588307 0.00067046046956 0.00066516554453 0.00065993351782 0.00065478831129 0.0006497387921 0.00064478179625 
0.00063989119338 0.00063505378814 0.00063024339776 0.00062546714518 0.00062076259917 0.00061613563951 0.00061159243195 0.00060711362501 0.00060268596627 
0.00059828765504 0.00059392500553 0.00058960950924 0.00071854927703 0.0007127193855 0.00070696648227 0.00070130107101 0.00069572361262 0.00069025373831 
0.00068482286518 0.00067943872563 0.00067409179989 0.00066879060753 0.00066355036146 0.00065839034602 0.00065331919577 0.00064833401481 0.00064342261014 
0.00063855480009 0.00063372324406 0.00062895279164 0.00062424242377 0.00061959966621 0.00061503297229 0.00061052688727 0.00060606333707 0.00060163619423 
0.00059724349442 0.00059290568022 0.00071934054463 0.0007135562122 0.00070785103312 0.0007022295579 0.00069667905326 0.00069121740404 0.00068579383719 
0.00068041328771 0.00067507407014 0.00066978181777 0.00066455103525 0.00065939838985 0.00065432832021 0.00064933780886 0.00064441928177 0.00063954037398 
0.00063472711251 0.00062996982931 0.00062527199203 0.0006206430239 0.0006160757398 0.00061155765409 0.00060707930656 0.00060262932886 0.00059822162098 
0.0005938722601 0.00092905822522 0.00092089605739 0.00091286226204 0.00090495146682 0.00089715659633 0.00088946540875 0.00088187025326 0.00087435486329 
0.00086690677759 0.00085954401828 0.00085228631224 0.00084509385149 0.0008380063459 0.00083102732203 0.00082415633965 0.00081739089109 0.00081070844975 
0.00080411221914 0.00079760262143 0.00079118179519 0.00078485498873 0.00077861843833 0.00077247509637 0.00076641619732 0.00076043709501 0.00075453742788 
0.00092063304919 0.00091254474733 0.00090457743944 0.00089672853578 0.00088899294981 0.00088137045348 0.00087385252978 0.000866418099 0.00085907728486 
0.00085183711487 0.00084464681583 0.00083754507495 0.00083054573843 0.00082365527531 0.00081688152884 0.00081020088536 0.00080360682665 0.00079709490109 
0.00079066430915 0.0007843193218 0.00077806385124 0.00077191008019 0.00076584897879 0.00075987302554 0.00075397458553 0.00074814928484 0.00090980011788 
0.00090181402901 0.00089394003902 0.00088617342737 0.00087852294882 0.00087099310372 0.00086356836274 0.00085625516791 0.00084903233462 0.00084189956887 
0.00083481830022 0.00082782562402 0.00082093002062 0.00081415553962 0.0008074837097 0.00080091129734 0.00079442422624 0.00078801477825 0.00078167893776 
0.00077542618464 0.00076926384793 0.00076320472225 0.00075724287831 0.00075136505291 0.00074556134407 0.00073982636303 0.00089730118697 0.00088943749555 
0.00088167147585 0.00087400845844 0.00086646325859 0.00085903391911 0.00085173743688 0.00084455311604 0.00083745134367 0.00083044385384 0.0008234837825 
0.00081660588909 0.00080983581625 0.00080317128482 0.00079661980632 0.00079017114046 0.00078380670472 0.00077750997178 0.00077128029495 0.00076513216089 
0.00075907243434 0.00075311960648 0.00074726625575 0.00074149938655 0.00073580085451 0.00073016356151 0.00088398151898 0.00087624365172 0.00086860141286 
0.00086105804646 0.00085362119989 0.00084632989367 0.00083915641716 0.00083209616145 0.00082512584784 0.00081824575467 0.00081141083979 0.00080465650366 
0.00079801138038 0.0007914695497 0.00078504628106 0.00077872367555 0.00077248059784 0.00076630354779 0.00076018802084 0.00075415126698 0.00074820367274 
0.00074236282707 0.00073662173984 0.00073096435504 0.00072537408632 0.00071984029407 0.00087062626725 0.00086302429677 0.00085550916609 0.00084808375337 
0.0008407855228 0.00083360798172 0.00082656335988 0.00081963179637 0.00081278722976 0.00080603639644 0.00079932763615 0.00079270632431 0.00078617384119 
0.00077975947081 0.00077346086447 0.00076726055785 0.00076113805481 0.00075507838389 0.00074908027462 0.00074315397034 0.00073731840356 0.0007315876104 
0.00072595593127 0.00072040802491 0.00071492335392 0.0007094932416 0.00085786035114 0.00085038638779 0.00084300051752 0.00083570752981 0.0008285295929 
0.000821475582 0.00081454953525 0.0008077374475 0.00080101509537 0.00079438285679 0.00078780559869 0.00078129781328 0.00077488842478 0.00076859265621 
0.00076240891155 0.00075632307721 0.00075031397951 0.00074436688331 0.00073848050622 0.00073266314709 0.00072693712013 0.00072131128846 0.00071578130954 
0.00071033399596 0.00070495004 0.00069961827939 0.00084608369898 0.00083873808719 0.00083146584452 0.00082429776923 0.00081724017344 0.00081030398893 
0.00080349109047 0.00079678697673 0.00079019500245 0.00078366423155 0.00077719337073 0.00077080358518 0.00076451015156 0.00075832422255 0.00075224631572 
0.00074626188715 0.00074035476342 0.00073451133726 0.00072873019665 0.00072301851173 0.00071739480431 0.00071186597338 0.00070642968398 0.00070107355255 
0.00069578012727 0.00069053991967 0.00083550646484 0.0008282530109 0.00082110560742 0.0008140519421 0.0008071077518 0.00080027968357 0.0007935687604 
0.00078696444544 0.00078047871432 0.00077403851967 0.00076767605215 0.00076139563847 0.0007552092344 0.00074912354507 0.00074314128351 0.00073725070441 
0.00073143455589 0.00072568606015 0.00072000142097 0.00071438920116 0.00070885943481 0.00070341747542 0.00069806374681 0.00069278678992 0.00068757312543 
0.00068241495545 0.00082614245102 0.00081900322499 0.00081195943783 0.0008050154095 0.00079817560784 0.00079144754117 0.00078482957233 0.00077831363974 
0.00077191330512 0.0007655691055 0.00075930273866 0.00075312025037 0.00074702900304 0.00074103516509 0.00073513614316 0.00072932632236 0.00072359223785 
0.00071792712161 0.00071232923658 0.00070680532703 0.00070136155971 0.00069600122857 0.00069072181898 0.00068551598055 0.00068037290387 0.00067528867758 
0.0008179945859 0.00081094556283 0.00080399573082 0.00079714722617 0.00079040130753 0.00078376433426 0.00077722771572 0.00077080119688 0.00076447517961 
0.00075821289741 0.00075203260168 0.00074593758601 0.0007399318268 0.0007340193032 0.00072819718777 0.00072245938378 0.0007167970365 0.00071120628548 
0.00070568568006 0.00070023882067 0.00069487222928 0.00068958143599 0.00068436821474 0.00067922534665 0.00067414589156 0.00066911696096 0.00081097474527 
0.00080400959295 0.00079714411396 0.00079038125359 0.00078372242631 0.0007771625386 0.0007707136844 0.00076435264232 0.0007580976969 0.0007519079601 
0.00074580363169 0.00073978578228 0.00073385448753 0.00072801484448 0.00072225978201 0.00071658581544 0.00071098794631 0.00070546326632 0.00070001148087 
0.00069463296183 0.00068933058294 0.00068410416425 0.00067894857362 0.00067386219301 0.0006688383143 0.00066386840932 0.00080501986343 0.00079812883987 
0.0007913401609 0.00078465453175 0.00077806673434 0.00077159059741 0.00076520402552 0.00075890758568 0.00075271639083 0.00074659141114 0.00074055418651 
0.00073460331412 0.00072874041138 0.00072296296945 0.00071726727358 0.00071164993437 0.00070610896795 0.00070064155376 0.00069524928366 0.00068992933 
0.00068468533558 0.00067951264707 0.0006744092637 0.00066937170456 0.0006643877444 0.00065947704854 0.00080008749597 0.00079326212382 0.00078654085982 
0.00077991719526 0.00077340720526 0.00076698962251 0.00076066396502 0.00075444557501 0.00074829168254 0.00074222476973 0.00073624415729 0.00073035103468 
0.00072454585847 0.00071882414193 0.00071318109694 0.000707613834 0.00070212136616 0.00069670381937 0.00069136173869 0.00068609281111 0.00068089736904 
0.00067577280739 0.00067071388704 0.0006657190777 0.00066077868962 0.00065591616133 0.00079616711026 0.00078939905231 0.00078272773711 0.00077617350189 
0.00076971606244 0.00076335438076 0.00075708306342 0.00075091485277 0.00074481137185 0.00073879199812 0.0007328602914 0.00072701634104 0.00072125990966 
0.0007155870601 0.00070999001752 0.00070446558176 0.00069901429878 0.0006936394355 0.00068833684877 0.00068310958735 0.00067795750005 0.00067287443974 
0.00066785486084 0.0006628926601 0.000657997226 0.00065316524564 0.00079326711188 0.00078654622825 0.00077993703214 0.0007734247755 0.0007670158047 
0.00076070343153 0.00075447809547 0.00074835436591 0.00074229258921 0.00073631320781 0.00073042040846 0.00072461696042 0.00071890213736 0.00071326927527 
0.00070770908327 0.00070222143642 0.00069680417367 0.00069146287596 0.0006861927041 0.00068100013929 0.00067588270378 0.00067083906207 0.00066584293062 
0.00066091577874 0.00065604767189 0.00065123882329 0.00079143774213 0.00078476388822 0.00077818583328 0.00077171226099 0.00076534434498 0.0007590735222 
0.00075288802942 0.00074680122304 0.00074077172915 0.00073482273361 0.00072895797118 0.00072318580674 0.00071750462988 0.00071190424799 0.00070637798498 
0.00070091909551 0.00069552757909 0.0006902093283 0.0006849641355 0.00067979662116 0.0006747120738 0.0006696907383 0.0006647199972 0.00065981586616 
0.00065496485352 0.0006501791983 0.00079073155974 0.0007840793459 0.00077752801811 0.00077108603589 0.00076475059596 0.00075851062001 0.00075235788812 
0.00074629917785 0.00074029380686 0.00073436567922 0.0007285224506 0.00072277409869 0.00071711582266 0.00071154120196 0.00070603961906 0.00070060198642 
0.00069522666679 0.0006899234683 0.00068469786035 0.00067954822193 0.00067447745937 0.00066946374516 0.00066452183737 0.0006596308978 0.00065479619234 
0.00065002250271 0.00079115281964 0.00078452132753 0.0007779884314 0.00077156746984 0.00076525448156 0.00075904075203 0.00075293001221 0.00074687294704 
0.00074088344693 0.00073496789619 0.00072913495771 0.00072339878635 0.00071775477862 0.00071219660579 0.0007067108213 0.00070128690482 0.00069592997474 
0.00069062852202 0.00068540377238 0.00068026194227 0.00067518963317 0.00067019951358 0.00066526589873 0.00066038516083 0.00065555603897 0.00065078673906 
0.0007926581508 0.00078604046326 0.00077951960566 0.0007731111747 0.00076681071234 0.00076061366856 0.00075451926294 0.00074847421105 0.00074249275742 
0.00073657958329 0.00073074997504 0.00072501488966 0.00071937698028 0.00071382639496 0.00070834835514 0.00070293546993 0.00069757457658 0.00069227090502 
0.00068704378433 0.00068190226614 0.00067683125081 0.0006718416388 0.00066691304649 0.00066203351016 0.00065720222599 0.00065242858101 0.00079507179927 
0.00078846235485 0.00078194988025 0.00077554529015 0.00076925203008 0.00076306087791 0.00075697207941 0.00075093331445 0.00074495365112 0.00073903915903 
0.00073320716125 0.00072746867548 0.00072182733122 0.00071627842232 0.00071079837777 0.00070537593188 0.00070001331407 0.00069470451248 0.0006894699869 
0.00068430944876 0.00067923964797 0.0006742468519 0.00066931320135 0.00066442773761 0.00065958970499 0.00065480519542 0.00079803555601 0.00079143512458 
0.00078493031023 0.00077852831884 0.00077223656235 0.0007660468942 0.00075995788132 0.00075391700215 0.00074793656692 0.00074202041761 0.00073618227472 
0.0007304408285 0.00072478969296 0.00071922667125 0.00071373856761 0.00070831483426 0.00070294060241 0.00069762483792 0.00069236979946 0.00068720545808 
0.0006821248239 0.00067711875649 0.00067217295468 0.00066727522174 0.0006624229333 0.00065763141279 0.00080101246271 0.00079442385607 0.00078792770086 
0.00078153509976 0.00077524698886 0.00076907305081 0.00076296300288 0.00075692093478 0.00075093829505 0.00074502580528 0.00073918343795 0.0007334281957 
0.00072776704799 0.00072219220728 0.00071669312526 0.00071126077754 0.00070587812545 0.00070054417999 0.00069529228626 0.00069011917248 0.00068502508369 
0.00068000444281 0.00067503907846 0.00067012715668 0.00066526532926 0.00066046508849 0.00080330875753 0.00079674133682 0.00079026600248 0.00078388896091 
0.00077761088996 0.00077144124498 0.00076533354514 0.00075929832283 0.00075331729767 0.0007474015516 0.00074156040531 0.00073580462183 0.00073013661116 
0.00072455542703 0.00071904737319 0.00071360981634 0.00070822338927 0.0007028898922 0.00069763615684 0.00069245755294 0.00068735483787 0.00068231641004 
0.00067734036739 0.00067241443881 0.00066754551905 0.00066273877605 0.00080418370183 0.00079765043565 0.00079121015959 0.00078486349112 0.00077860838572 
0.00077246213152 0.00076636705604 0.00076033700054 0.00075436781558 0.0007484657119 0.00074263608995 0.0007368872968 0.00073122401192 0.00072564487455 
0.00072014484125 0.00071470292156 0.00070931588493 0.00070400347398 0.00069875914365 0.00069358298216 0.00068848154074 0.00068344371372 0.00067846000702 
0.00067353009792 0.00066865360593 0.00066384219142 0.00080298271391 0.00079650250145 0.00079011596627 0.00078382304813 0.00077760900423 0.0007714917541 
0.00076542698793 0.00075942342538 0.00075348329013 0.000747606511 0.00074180205571 0.00073607662932 0.00073043578672 0.00072487323661 0.00071938925851 
0.00071395706506 0.00070860350208 0.00070331692954 0.00069809529853 0.00069294455401 0.00068785965294 0.00068283025594 0.00067785501599 0.0006729257099 
0.00066805417808 0.00066324937644 0.0010291072645 0.0010200297396 0.0010110972487 0.0010023016306 0.00099363601064 0.00098508759972 0.00097665162043 
0.00096831617678 0.00096007227707 0.00095195581279 0.00094391992272 0.00093598576003 0.0009281623716 0.00092045262341 0.00091285555301 0.000905373444 
0.00089798724163 0.00089070137068 0.00088351511355 0.00087642758492 0.00086944164359 0.00086255169249 0.0008557634038 0.00084906939478 0.00084246817831 
0.00083596009439 0.0010210681933 0.0010120705974 0.0010032127874 0.00099449011854 0.00098589370208 0.00097742091773 0.00096906306821 0.00096080554493 
0.00095266229547 0.00094464279077 0.00093669256201 0.00092884704119 0.00092111140363 0.00091348712849 0.00090598416098 0.00089858101563 0.00089127767803 
0.00088407369811 0.00087696627106 0.00086995571493 0.000863040361 0.00085623123988 0.0008495207688 0.00084290378424 0.00083637829426 0.00082994116787 
0.0010112528347 0.0010023554023 0.0009935923581 0.00098495597041 0.00097644746786 0.00096806683258 0.00095979851348 0.0009516523003 0.00094361586383 
0.00093569485736 0.00092784811104 0.00092010562928 0.00091246819641 0.00090495291994 0.00089754225191 0.00089023660899 0.00088303414631 0.00087592306763 
0.00086890578856 0.00086198388436 0.00085515750574 0.00084843632227 0.00084181475904 0.00083528603529 0.00082884615111 0.0008224926566 0.0010001446014 
0.00099136223506 0.00098270401838 0.00097417078281 0.00096576645962 0.00095748195502 0.00094933850635 0.00094130319608 0.00093337547121 0.00092556840841 
0.00091783368532 0.00091019873028 0.00090267933167 0.00089526381572 0.00088796132421 0.00088076623645 0.00087367180861 0.00086666544231 0.00085974765689 
0.00085292451922 0.000846194561 0.00083956913369 0.00083304545948 0.00082661377657 0.00082026791983 0.00081400218859 0.00098831088504 0.00097964548863 
0.00097110533077 0.00096268721722 0.00095438735562 0.00094623394607 0.00093819800106 0.00093028154093 0.00092247292696 0.00091478096177 0.0009071619897 
0.00089964246355 0.00089223919141 0.00088493640444 0.00087774940223 0.00087066795614 0.00086368249423 0.00085678507561 0.00084997413503 0.0008432544672 
0.00083662872703 0.00083010546913 0.00082368150757 0.00081734856123 0.00081109925326 0.00080492734925 0.00097629882301 0.0009677608194 0.00095934176132 
0.00095103601869 0.0009428683153 0.00093482275383 0.0009269079995 0.00091911098438 0.00091141853464 0.00090384635875 0.00089634391904 0.00088894911485 
0.00088164948467 0.0008744655853 0.00086739351382 0.00086042439941 0.00085354949411 0.00084676260459 0.00084005742142 0.00083343881037 0.00082691872053 
0.00082049807132 0.00081417424474 0.00080794146993 0.00080178897415 0.0007957126014 0.00096457690126 0.00095616247027 0.00094785657791 0.00093968810555 
0.00093163453438 0.00092370838856 0.00091590789551 0.00090822513691 0.00090064969569 0.00089318898043 0.00088581156803 0.00087852067714 0.00087133803751 
0.00086426546018 0.00085730274387 0.00085044262257 0.000843674296 0.00083699192162 0.00083039276067 0.00082387727378 0.00081745818511 0.00081113659553 
0.00080490981391 0.00079877216823 0.0007927143436 0.00078673010455 0.00095348361072 0.0009451960597 0.00093700995279 0.00092895118571 0.0009210136821 
0.00091320180812 0.00090551240449 0.00089793926835 0.00089049286375 0.00088313094523 0.00087585347218 0.00086867522463 0.00086160196487 0.00085463641963 
0.00084777704982 0.00084101725042 0.00083434987297 0.00082776737302 0.00082126707732 0.00081485139103 0.00080852849784 0.00080230064515 0.00079616648699 
0.00079011869021 0.00078414908985 0.00077825241336 0.00094323466634 0.00093504332271 0.00092698064186 0.00091903236026 0.00091120628069 0.00090350177051 
0.00089591708992 0.00088844761801 0.00088111066118 0.00087383962471 0.00086666766085 0.00085959441586 0.00085262297844 0.00084575683639 0.00083899469747 
0.00083233201162 0.00082575781114 0.00081926834417 0.00081286149255 0.00080654070458 0.00080030838861 0.00079416764547 0.00078811695938 0.00078214993856 
0.00077626096219 0.00077044578098 0.00093390130964 0.00092582995119 0.00091787151509 0.00091003177128 0.00090230936564 0.00089470509377 0.00088721851751 
0.00087985153203 0.00087259679393 0.00086542615128 0.00085835023798 0.00085137261166 0.00084449592129 0.00083772155553 0.00083104713232 0.00082446987934 
0.00081798120999 0.00081157607051 0.00080525624843 0.00079902070749 0.00079287528847 0.00078681576753 0.00078084296137 0.00077495207068 0.00076913700305 
0.00076339563243 0.00092554943805 0.000917573092 0.00090971479185 0.00090197316613 0.00089434548087 0.00088683673621 0.00087943517788 0.00087215773374 
0.00086499362807 0.00085790892439 0.00085092133072 0.0008440321784 0.00083724139955 0.00083055122703 0.00082395868295 0.00081745993408 0.00081104825036 
0.0008047223117 0.00079848017085 0.00079232246239 0.00078625357538 0.00078026736168 0.0007743652915 0.0007685429095 0.0007627961072 0.00075711293895 
0.00091815138278 0.00091026713336 0.00090249886769 0.00089484653836 0.000887309374 0.00087988255761 0.00087257777341 0.00086537251478 0.00085828789799 
0.0008512813469 0.00084437454811 0.00083756420574 0.00083085144749 0.00082423839329 0.00081771950452 0.00081129212532 0.00080495134208 0.00079869612573 
0.00079252400609 0.00078643821842 0.0007804363025 0.00077451726178 0.00076867828647 0.00076291885562 0.0007572334479 0.00075161247891 0.00091168690141 
0.00090388668291 0.00089620148207 0.00088863177609 0.00088117217866 0.00087383580013 0.00086659968278 0.0008594676462 0.00085245436405 0.00084552141118 
0.00083868630134 0.00083194838939 0.00082530796183 0.00081876190177 0.00081230900785 0.00080594523381 0.00079966958989 0.00079347731878 0.00078737068327 
0.00078134585677 0.00077540523878 0.00076954536348 0.00076376406452 0.00075806055104 0.00075242054281 0.00074686360985 0.00090613910941 0.0008984128773 
0.00089080309866 0.00088330360268 0.00087592814088 0.00086865676089 0.00086149023166 0.00085444527112 0.00084747799475 0.00084060989284 0.00083383945226 
0.00082716540061 0.00082058791471 0.00081410403496 0.00080771051309 0.00080140396195 0.00079518512066 0.00078905079278 0.00078299861936 0.00077702934676 
0.00077114254589 0.00076533612388 0.00075960618514 0.00075394041484 0.00074836514393 0.0007428583051 0.00090149748593 0.00089383985524 0.0008862924054 
0.00087886869703 0.00087155342781 0.00086434644655 0.00085724184982 0.0008502555591 0.00084334772781 0.00083653683371 0.00082982342413 0.00082320577245 
0.00081668309827 0.00081025533614 0.00080391556213 0.00079766086526 0.0007914889784 0.00078540440101 0.00077940016424 0.00077347953593 0.00076764129152 
0.00076188201847 0.00075619936756 0.00075058212439 0.00074504371066 0.00073957832052 0.00089775635745 0.00089015879415 0.00088268222656 0.00087531236276 