# vtk DataFile Version 5.1
vtk output
ASCII
DATASET STRUCTURED_POINTS
DIMENSIONS 26 26 26
SPACING 0.08 0.08 0.08
ORIGIN -1 -1 0.5
POINT_DATA 17576
FIELD FieldData 1
potential 1 17576 double
0.00092492175903 0.000915216458 0.00090565955885 0.00089630502645 0.00088702816551 0.00087788141953 0.00086884746026 0.00085990857919 0.0008510492186 
0.00084227413494 0.00083359363324 0.00082502533277 0.00081660558061 0.00080833589165 0.00080021385622 0.00079222643612 0.00078434244534 0.00077655582935 
0.00076886348341 0.00076126848673 0.00075377886004 0.00074639379584 0.00073910353577 0.0007318497545 0.00072471765846 0.00071766020506 0.00092598208995 
0.00091616746321 0.00090649796022 0.00089702747653 0.00088763648936 0.00087839433257 0.00086929235557 0.00086030613331 0.00085141658392 0.00084261058299 
0.0008338964743 0.00082529505715 0.00081683083145 0.00080853131746 0.00080038912102 0.00079238247945 0.00078448548931 0.00077668554643 0.00076896686828 
0.00076134510788 0.00075383085308 0.00074643050044 0.00073913428381 0.00073187891099 0.00072474260075 0.00071767174539 0.00092364687123 0.00091376372416 
0.00090402210085 0.00089439516599 0.00088499843065 0.00087570000575 0.00086656402685 0.00085756694475 0.00084867567902 0.00083986517955 0.00083113976177 
0.00082252464157 0.00081405487856 0.00080575101874 0.00079762019251 0.00078963316796 0.00078175671891 0.00077396276991 0.00076625142109 0.00075862780119 
0.00075111688244 0.00074373112451 0.00073645954162 0.00072927760945 0.00072211369001 0.00071505272046 0.00091908530828 0.0009091966919 0.00089938382866 
0.0008897178092 0.00088020567067 0.00087093811559 0.00086179466503 0.00085280635795 0.00084393010119 0.00083513261316 0.00082641191212 0.00081780042038 
0.0008093376192 0.00080105718042 0.00079295818648 0.00078500852084 0.00077717004377 0.00076940645483 0.00076171041389 0.00075411032017 0.00074662024514 
0.00073926491304 0.00073203381923 0.0007248953896 0.00071776888904 0.00071073224968 0.00091366141055 0.00090375497297 0.00089394320083 0.00088421452253 
0.00087467475012 0.00086533037637 0.00085624886382 0.00084727317008 0.00083841387055 0.00082963467019 0.00082092681909 0.00081232533735 0.00080388118824 
0.00079562649541 0.00078756428206 0.00077966130594 0.00077186225275 0.00076413782142 0.00075647264615 0.00074889533518 0.00074143742073 0.0007341242866 
0.00072693643332 0.00071984328047 0.00071275416897 0.00070574876253 0.00090856122613 0.00089864744086 0.00088881178827 0.00087909164057 0.00086949799125 
0.00086013550642 0.00085106209926 0.00084208786223 0.00083322620575 0.0008244583083 0.00081576393876 0.00080717603099 0.00079874663767 0.00079051598053 
0.00078248416982 0.00077461480475 0.00076685514704 0.00075916090955 0.00075153149159 0.00074398424189 0.00073655714251 0.00072927102967 0.00072212222816 
0.00071506300732 0.00070805532492 0.00070102886377 0.00090466756382 0.00089470942438 0.00088484688567 0.00087510078157 0.00086553055874 0.00085611036398 
0.00084693612121 0.0008380257825 0.00082916254976 0.00082038971447 0.00081168949517 0.00080311384279 0.00079469633248 0.00078647796709 0.00077845933512 
0.0007706067616 0.00076286783283 0.00075520177524 0.00074759613592 0.00074007748104 0.00073267428151 0.00072540886189 0.00071827230297 0.00071123349334 
0.00070424348995 0.00069723596728 0.000902441189 0.00089243053865 0.00088252726923 0.00087274915141 0.00086313454499 0.00085367912315 0.00084447711173 
0.00083544199515 0.00082662935104 0.00081783453463 0.00080913560926 0.00080055816475 0.00079213466841 0.00078391424018 0.0007758914339 0.00076803282133 
0.00076029484192 0.00075263986413 0.00074505643553 0.0007375557541 0.00073016890493 0.00072290981055 0.00071577030743 0.00070872352997 0.00070173757601 
0.00069473562285 0.00090202118811 0.00089194407654 0.00088198406376 0.00087215857846 0.00086249973852 0.00085303142059 0.00084371795815 0.00083462104851 
0.00082576619395 0.00081692881446 0.00080820500863 0.00079961370944 0.00079118878328 0.00078294114059 0.00077489556345 0.00076701366408 0.00075925829432 
0.00075159880211 0.00074402227835 0.00073653553699 0.0007291514064 0.00072188618505 0.00071472873645 0.00070765959168 0.00070065057406 0.00069369386564 
0.00090335967686 0.0008931921184 0.00088315496601 0.00087326744426 0.0008635465428 0.00085401136083 0.00084466256159 0.00083544158414 0.00082641331368 
0.00081760653155 0.00080884986443 0.00080022707882 0.00079177216982 0.00078350297587 0.00077541720707 0.00076749060277 0.00075970558046 0.00075202953772 
0.00074444603031 0.00073695732826 0.00072956943622 0.00072228327533 0.00071509597683 0.00070799010969 0.00070095005857 0.00069396793157 0.00090630902561 
0.00089603082186 0.0008858968321 0.00087592407612 0.00086612284222 0.00085650556734 0.00084706802909 0.00083779664569 0.00082863277769 0.00081965793901 
0.00081091915296 0.00080224636787 0.0007937574748 0.0007854421157 0.00077730786785 0.00076934181755 0.00076150698389 0.00075380291256 0.00074620242005 
0.0007387013153 0.00073129475714 0.00072398170748 0.0007167522117 0.00070960262441 0.00070251956596 0.00069550131726 0.00091071322675 0.00090029895716 
0.00089006070405 0.00087998325872 0.00087008439696 0.00086036762924 0.00085082504664 0.00084145086272 0.00083218369765 0.00082311653429 0.00081430005047 
0.00080555879645 0.00079699591181 0.00078863196476 0.00078043976929 0.00077241749502 0.0007645446712 0.00075680344709 0.00074916794252 0.00074164037425 
0.00073420574897 0.00072685680424 0.00071958251861 0.00071238020623 0.00070524415321 0.00069818172197 0.00091646845497 0.00090591141551 0.00089554039757 
0.000885340783 0.00087532468587 0.00086549250945 0.0008558348133 0.00084634447268 0.00083701210056 0.00082778963287 0.00081878556143 0.00081005756176 
0.00080141875375 0.00079297090039 0.00078471128391 0.00077663769174 0.00076871298311 0.00076092569768 0.00075326027619 0.00074569088137 0.00073822058111 
0.00073082499337 0.00072349917671 0.00071623810658 0.00070904415268 0.00070192225644 0.00092353853999 0.00091282281674 0.00090230250188 0.00089196067964 
0.00088180885126 0.00087184623541 0.00086206144292 0.00085244438385 0.00084298805483 0.00083369869448 0.00082453108982 0.00081560442077 0.00080697747827 
0.00079844960864 0.00079011573138 0.00078196260716 0.00077397291093 0.00076614388087 0.00075843168611 0.00075082671182 0.0007433089195 0.00073585611191 
0.00072847037248 0.00072114292445 0.00071388034553 0.00070669159631 0.00093195697104 0.00092106893828 0.00091036882911 0.00089987766023 0.00088957623111 
0.00087946853048 0.00086954163544 0.00085978470361 0.00085019291292 0.00084076893135 0.00083152933185 0.00082243423283 0.00081370784942 0.000805089211 
0.00079667100181 0.0007884407788 0.00078038259849 0.00077247763521 0.00076470588968 0.00075705307709 0.00074948078024 0.00074197450911 0.00073451316212 
0.00072711035156 0.00071976717451 0.00071249669406 0.00094184201734 0.0009307587937 0.00091987351775 0.00090920349183 0.0008987361817 0.0008884703703 
0.00087838852689 0.00086847726317 0.00085873162805 0.00084915870302 0.0008397774404 0.00083055117413 0.00082160726797 0.00081299315184 0.00080448030269 
0.00079616158443 0.00078801662231 0.00078003195355 0.00077218241965 0.00076445094178 0.00075681990995 0.00074924078744 0.00074170820055 0.0007342181855 
0.00072677275126 0.00071940485422 0.00095337582078 0.00094207707509 0.00093098352645 0.00092011526433 0.00090946515234 0.00089902752824 0.00088877841809 
0.00087869754995 0.00086877893256 0.00085903626206 0.00084949512934 0.0008401800989 0.0008310502349 0.00082221558469 0.00081370387709 0.00080527871176 
0.0007970287415 0.00078893842065 0.00078099140791 0.00077316827023 0.000765441767 0.00075777856869 0.00075016292466 0.00074256978545 0.00073501800186 
0.00072752812645 0.00096678999222 0.00095525148543 0.00094392148567 0.00093282856129 0.00092198893313 0.0009113634679 0.00090093201827 0.0008906635866 
0.00088055081586 0.00087061508908 0.00086089088809 0.00085141464595 0.00084219738856 0.00083317007836 0.00082453795229 0.00081598826376 0.00080760572061 
0.00079938279986 0.00079130984839 0.00078336964372 0.00077553322084 0.00076776193223 0.00076002617786 0.00075232183358 0.00074463913763 0.00073702079469 
0.00098230430118 0.00097050295979 0.0009589104103 0.00094757639282 0.00093651375239 0.00092568250971 0.00091504915165 0.00090457632457 0.00089425342816 
0.00088410595198 0.00087417465837 0.00086451104182 0.00085512492352 0.00084594310766 0.00083705376039 0.00082846578147 0.00081992545749 0.0008115367998 
0.0008033046935 0.00079521434185 0.00078723953754 0.00077933742256 0.00077146694788 0.00076361046327 0.00075577605538 0.00074801099857 0.0010000129438 
0.00098792830502 0.00097605869888 0.00096446058861 0.00095314809507 0.00094208702005 0.00093123012555 0.00092053360056 0.00090998006187 0.00089959822579 
0.00088944243034 0.00087956447287 0.00086998514286 0.00086068704455 0.00085155776627 0.00084279439986 0.00083406570499 0.00082548478612 0.00081705699323 
0.0008087855067 0.00080063691294 0.0007925724491 0.00078454237417 0.00077652035293 0.00076851525581 0.00076056291545 0.0010197678431 0.001007390328 
0.00099522900413 0.00098334085677 0.00097174649884 0.00096043080892 0.0009493244552 0.00093838383076 0.0009275865697 0.00091695940682 0.00090656532543 
0.00089645575821 0.00088665379272 0.0008771422099 0.0008678710725 0.00085871904556 0.00084989911362 0.00084109972376 0.00083245381854 0.00082396517085 
0.0008156090234 0.00080734722111 0.00079912827328 0.00079091952567 0.00078272440865 0.00077458163768 0.001040992516 0.0010283171426 0.0010158733054 
0.001003689063 0.00099180318498 0.00098020395559 0.00096882465402 0.00095761901713 0.00094656876529 0.00093569403598 0.00092504925812 0.00091469118879 
0.00090464320014 0.00089489125 0.00088538509363 0.00087599821936 0.00086683396985 0.00085792110448 0.00084903854482 0.00084031100265 0.00083172202497 
0.00082323357059 0.00081479816322 0.00080637969631 0.00079798406401 0.00078964395541 0.0010626670228 0.001049701459 0.0010369622667 0.0010245022301 
0.0010123230497 0.0010004292471 0.00098876375049 0.00097728578771 0.00096597952095 0.00095485762603 0.00094396781306 0.00093335983456 0.00092305733219 
0.00091304755683 0.00090328757432 0.00089372199307 0.00088424193365 0.00087509648118 0.00086597281364 0.00085700013624 0.00084816387462 0.00083943363922 
0.00083076347494 0.00082212738822 0.00081352416142 0.00080498757446 0.0010832942197 0.0010700924467 0.0010570870668 0.0010443516506 0.0010318972191 
0.001019720447 0.0010077821909 0.00099603864526 0.00098448063611 0.00097312447612 0.00096200401027 0.00095116005706 0.00094061007345 0.00093034940391 
0.0009203341639 0.00091052426915 0.00090088008525 0.00089131258903 0.00088208347164 0.00087287321515 0.00086379679245 0.00085482177821 0.0008459176949 
0.00083706032542 0.00082825623979 0.00081952942506 0.0011012676666 0.0010878022381 0.0010746118032 0.0010616422813 0.001048946593 0.0010365161428 
0.0010243263718 0.0010123503019 0.0010005667423 0.00098899851203 0.00097767264263 0.00096661888663 0.00095585107258 0.00094536300295 0.00093512100542 
0.00092508975296 0.00091523449073 0.0009054623478 0.00089603465057 0.0008866187397 0.00087732733781 0.0008681340036 0.00085901328473 0.00084995194318 
0.00084095547671 0.00083205081672 0.0011150615947 0.0011014158446 0.0010880216057 0.0010749146421 0.0010620334945 0.0010493969334 0.0010370062869 
0.0010248234147 0.0010128624166 0.0010011191228 0.00098962309896 0.00097840209857 0.00096746142472 0.00095679456601 0.00094637231038 0.00093616268484 
0.00092614046044 0.00091628111624 0.00090649554599 0.00089704799406 0.00088758820027 0.00087821861619 0.00086891979208 0.00085968058793 0.00085051867979 
0.00084145916109 0.0010354243461 0.001024484876 0.0010137152041 0.0010031695941 0.00099271734475 0.00098240959801 0.00097223588032 0.00096218345336 
0.00095224542882 0.00094242397762 0.00093272375543 0.00092315065273 0.00091373052909 0.00090446027544 0.00089533988343 0.00088636327535 0.00087750844565 
0.00086877244728 0.00086015037929 0.0008516410073 0.00084324739539 0.00083496714932 0.00082679219498 0.00081867207758 0.00081069498678 0.00080281359716 
0.0010390373085 0.0010279594477 0.0010170581548 0.0010063826705 0.00099580234684 0.00098537978981 0.00097510781853 0.0009649705055 0.00095496041943 
0.00094507103346 0.0009353040134 0.00092567062425 0.00091617981131 0.00090685126814 0.00089767662826 0.00088864583445 0.00087974288819 0.0008709634243 
0.00086229099622 0.00085373307002 0.00084529147515 0.00083696832486 0.00082875577602 0.00082060000892 0.00081258801038 0.00080466715374 0.0010402009554 
0.0010290131738 0.0010180087577 0.0010071517093 0.00099654034374 0.00098602948044 0.00097568164563 0.00096548472427 0.00095542306305 0.00094548381578 
0.00093566874902 0.00092598970097 0.00091646026074 0.00090708865474 0.00089788310749 0.00088882558806 0.00087989819524 0.00087108698374 0.00086239037816 
0.0008538020564 0.00084533362511 0.00083698835523 0.00082875978823 0.00082063495822 0.00081255624367 0.00080461444805 0.0010396499217 0.0010284085226 
0.0010172938907 0.001006364168 0.00099560467697 0.00098508502268 0.00097468145406 0.0009644391118 0.00095433900418 0.00094436445374 0.0009345133775 
0.00092480135988 0.00091524267204 0.00090585210484 0.0008966298752 0.00088755637209 0.00087862092296 0.00086979739056 0.00086108019809 0.00085248255518 
0.00084400120891 0.00083564586595 0.00082741255545 0.00081928574165 0.00081120274965 0.00080324968969 0.0010382831054 0.0010269725245 0.0010158156822 
0.0010047860609 0.00099396086692 0.00098332322144 0.00097293396442 0.00096265241349 0.00095251680926 0.00094251196007 0.00093263225417 0.00092289220036 
0.00091331321242 0.00090390699131 0.00089467443567 0.00088559928791 0.00087665305378 0.00086782568277 0.00085910251533 0.00085049300815 0.00084200679865 
0.00083365513524 0.00082542227683 0.00081729645958 0.00080921030002 0.00080125384773 0.0010369126263 0.0010255482336 0.0010143230249 0.0010032616966 
0.00099234311516 0.0009816466354 0.00097122232031 0.00096089677784 0.00095071367022 0.00094067830675 0.00093076978626 0.00092100420364 0.00091140367888 
0.00090198024309 0.00089273623664 0.00088365230212 0.00087470341866 0.00086586661008 0.00085714064067 0.00084852527538 0.00084003536826 0.00083167591391 
0.00082344499201 0.00081531696381 0.00080727598428 0.000799265345 0.0010362147038 0.0010247643328 0.0010134704172 0.0010023418267 0.00099140495523 
0.00098061288384 0.00097005313271 0.00095975684353 0.00094953816649 0.00093945881742 0.0009295061891 0.00091971269789 0.00091008493731 0.00090064048932 
0.00089137594535 0.00088227602497 0.00087331381232 0.00086446937243 0.00085573140468 0.00084710852215 0.00083860944166 0.00083024052705 0.00082199423222 
0.00081385942477 0.00080580886276 0.00079778683869 0.0010366021205 0.0010250652143 0.0010136925242 0.0010024887454 0.00099146897711 0.00098060706755 
0.00096999166683 0.00095954719102 0.00094935271842 0.00093922152293 0.00092923458541 0.00091940228753 0.00090973194863 0.00090025356812 0.00089095894623 
0.00088183003291 0.00087284224976 0.00086397791809 0.0008552273389 0.00084658869278 0.00083807493236 0.00082968698646 0.0008214192094 0.00081325763814 
0.00080519007027 0.00079714849205 0.0010382830905 0.0010266529031 0.0010151892931 0.0010038993842 0.00099279863238 0.00098189318703 0.00097114368945 
0.00096061982156 0.0009503644831 0.00094016600768 0.00093012264776 0.00092024099812 0.00091053558138 0.0009010031553 0.00089166550106 0.00088249437323 
0.00087347017036 0.00086457592119 0.0008558006767 0.00084714395426 0.00083860422752 0.00083018824123 0.0008218877935 0.00081369199595 0.00080558679118 
0.00079756945783 0.0010413334883 0.0010295906523 0.001018019074 0.0010066346479 0.00099543655541 0.00098443681674 0.00097363125583 0.00096297017327 
0.00095252686446 0.0009423396646 0.00093223673044 0.00092229223358 0.00091252777103 0.00090294967781 0.00089355318048 0.00088432225362 0.00087525112437 
0.00086631642295 0.00085750583006 0.0008488162636 0.00084024685673 0.00083179129253 0.00082344881971 0.00081520837964 0.00080705906268 0.00079899829187 
0.0010457291102 0.001033856155 0.0010221633001 0.001010662686 0.00099935490618 0.00098824746519 0.00097733581903 0.00096661000272 0.00095601800899 
0.00094564557325 0.00093553807718 0.00092552939688 0.00091569295076 0.00090604666999 0.00089658587597 0.00088729982769 0.0008781627721 0.00086917795178 
0.00086032309938 0.00085159146318 0.00084297997271 0.000834478425 0.00082608173765 0.00081778728767 0.00080958529396 0.00080147366912 0.0010514153879 
0.0010393881854 0.0010275668713 0.0010159353854 0.0010045050916 0.00099327434471 0.00098224121136 0.00097139793941 0.00096068918744 0.0009502085957 
0.00094000387118 0.00092989228489 0.00091997107576 0.00091025745741 0.00090072009395 0.00089136148432 0.00088216787892 0.00087312416486 0.00086420764871 
0.00085542505443 0.0008467593814 0.000838203843 0.00082974877145 0.0008213899929 0.00081312500518 0.00080495514863 0.0010583477649 0.0010461599539 
0.0010341868215 0.0010224105409 0.001010839425 0.00099947321805 0.00098830627005 0.00097733130819 0.00096654421893 0.00095589303793 0.00094548362402 
0.00093536577222 0.00092534949756 0.00091553030161 0.00090590661552 0.00089647852209 0.00088721232117 0.00087810044503 0.00086913034948 0.0008602784492 
0.00085155270138 0.00084293216259 0.00083440987206 0.00082598095242 0.00081764375687 0.00080940380248 0.0010665173983 0.0010541535368 0.0010420135376 
0.0010300749221 0.0010183489008 0.0010068333058 0.00099551962377 0.00098440250258 0.00097347638766 0.00096274446306 0.0009521562196 0.00094182369834 
0.00093179961923 0.00092188141256 0.00091216293064 0.00090263423248 0.00089328175757 0.00088410428527 0.00087506121234 0.00086614819131 0.00085735076803 
0.00084865022042 0.0008400521125 0.00083154391315 0.00082312823919 0.00081480727027 0.001075953369 0.0010633993077 0.0010510640577 0.0010389588871 
0.0010270644243 0.0010153843557 0.0010039115845 0.0009926387379 0.00098156216943 0.00097068291165 0.00096000966495 0.00094949234577 0.00093935020595 
0.00092932094948 0.00091949709723 0.00090986869255 0.00090042373381 0.00089114686451 0.00088203037567 0.00087303324184 0.0008641569791 0.00085538170273 
0.00084668914325 0.00083809239393 0.00082958420481 0.00082117125314 0.001086724514 0.0010739632555 0.0010614282395 0.0010491308218 0.0010370518996 
0.0010251951248 0.0010135492891 0.001002107128 0.00099086557265 0.00097982674382 0.00096899932711 0.00095833713871 0.00094796030849 0.0009379121048 
0.00092797133781 0.00091823213954 0.00090867960246 0.00089930054788 0.00089007313191 0.00088098381305 0.00087202371788 0.00086315354664 0.00085437181276 
0.00084567386007 0.00083705435512 0.00082853523345 0.0010989318257 0.0010859464033 0.0010731955272 0.001060686735 0.0010484085301 0.0010363604548 
0.0010245291903 0.0010129045248 0.0010014815716 0.00099026666072 0.00097927080303 0.00096850762306 0.00095792504382 0.00094763471768 0.00093767238467 
0.00092780698408 0.00091813145224 0.00090862980553 0.00089928730011 0.00089008560342 0.00088100818351 0.00087203028557 0.00086314902881 0.00085433718605 
0.00084560344175 0.00083695825762 0.0011126776179 0.0010994505977 0.001086460852 0.0010737209848 0.0010612379845 0.001048983777 0.0010369522598 
0.001025129598 0.0010135087684 0.0010021002958 0.00099091943843 0.00097998493125 0.00096929796201 0.00095879439111 0.0009486895705 0.00093868196122 
0.00092886232395 0.00091921930583 0.00090974063488 0.0009004079721 0.00089120057761 0.00088209692995 0.00087307807987 0.0008641448605 0.00085528020931 
0.00084650852344 0.0011280243204 0.0011145390999 0.0011012923376 0.0010883095957 0.0010755953365 0.001063120207 0.0010508735515 0.0010388377866 
0.0010270064456 0.001015390936 0.0010040076848 0.00099288200069 0.00098201368718 0.00097133743545 0.00096095870964 0.00095090118426 0.00094091936991 
0.00093111209816 0.0009214728756 0.00091198570294 0.00090262913566 0.00089337928709 0.00088421581846 0.00087512556116 0.00086611162043 0.0008571996611 
0.0011449133423 0.0011311536435 0.0011176394071 0.0011044001189 0.0010914359561 0.0010787253098 0.0010662481573 0.001053984176 0.0010419264049 
0.001030086846 0.0010184879744 0.0010071522713 0.00099608829418 0.00098528598797 0.00097465791949 0.00096442197297 0.00095425347657 0.00094426192693 
0.0009344381577 0.00092477543425 0.00091524677115 0.00090583185592 0.00089650269874 0.00088724944561 0.00087807122171 0.00086898420766 0.0011631075486 
0.0011490637556 0.0011352737363 0.0011217597016 0.0011085242035 0.0010955657184 0.0010828424286 0.0010703389509 0.0010580445571 0.0010459713428 
0.0010341471544 0.0010225920052 0.0010113136719 0.001000303101 0.00098953592842 0.00097891442242 0.0009686659112 0.00095847192242 0.00094844779851 
0.00093858645348 0.00092886428933 0.00091926212025 0.00090975201253 0.00090031768244 0.00089096113811 0.00088169835146 0.0011820860047 0.00116775652 
0.0011536968402 0.0011399036793 0.0011263976734 0.0011131755308 0.0011001948302 0.0010874403282 0.0010749044275 0.0010625953109 0.0010505353073 
0.0010387491191 0.0010272437602 0.001016011183 0.0010050258803 0.00099418643805 0.00098360985865 0.00097332285582 0.00096308617401 0.00095301288325 
0.00094308419343 0.00093327852942 0.00092357154399 0.00091394395638 0.00090440006169 0.00089495536688 0.001201076541 0.0011864674304 0.0011721234422 
0.0011580723938 0.0011442983755 0.0011308111503 0.0011175701331 0.0011045655333 0.0010917867793 0.0010792432037 0.001066952127 0.0010549353978 
0.0010432013401 0.0010317402045 0.0010205291962 0.0010095361408 0.00099866709908 0.00098816990177 0.00097771808286 0.00096742967283 0.00095728887041 
0.00094727487949 0.00093736182796 0.00092753846666 0.00091780574568 0.00090817895236 0.001219038031 0.0012041978794 0.0011895941746 0.0011752792511 
0.0011612522149 0.0011475090888 0.0011340273003 0.0011207808422 0.0011077684751 0.0010950002346 0.0010824891218 0.0010702534106 0.0010582976384 
0.0010466169242 0.0010351838177 0.0010239764338 0.0010129677595 0.0010020698387 0.00099153653104 0.00098104055413 0.00097069160195 0.00096046901837 
0.00095035557627 0.00094033822687 0.00093042188791 0.0009206192771 0.0012349267074 0.001219820366 0.0012050288922 0.0011904821174 0.0011762281885 
0.0011622510585 0.0011485502173 0.0011350823052 0.0011218563861 0.0011088833741 0.0010961732131 0.0010837379073 0.0010715819809 0.001059699352 
0.0010480669381 0.0010366632403 0.0010254642729 0.0010143777666 0.0010036629292 0.00099298136648 0.00098244532433 0.00097203430286 0.0009617335051 
0.00095153524186 0.00094144567719 0.00093147747636 0.0012477549596 0.0012324531434 0.0012174410287 0.0012027459145 0.0011883011757 0.0011741242018 
0.0011602231164 0.0011465648702 0.0011331678489 0.001120018598 0.0011071364554 0.0010945322706 0.0010822104245 0.0010701587364 0.0010583597782 
0.0010467909373 0.0010354339016 0.0010242668324 0.0010131985795 0.0010024919272 0.00099180067032 0.00098122996667 0.00097077010423 0.0009604125596 
0.00095017079209 0.00094005750162 0.0011487614632 0.0011365650623 0.0011245594609 0.0011127967587 0.0011011462123 0.001089658797 0.0010783265247 
0.0010671415153 0.0010561000318 0.0010451989147 0.0010344412216 0.0010238290443 0.0010133779023 0.0010030839949 0.00099294676958 0.00098296491657 
0.00097312013722 0.00096341188459 0.00095383437229 0.00094438432323 0.0009350628643 0.00092586659384 0.00091678925436 0.00090778194874 0.00089893560439 
0.00089020325283 0.0011544234472 0.0011420653702 0.0011299083123 0.001117999323 0.001106204124 0.0010945828335 0.001083126881 0.0010718284476 
0.0010606823785 0.0010496852557 0.0010388326905 0.0010281343656 0.0010175886526 0.001007211347 0.00099699449242 0.0009869302297 0.00097700989749 
0.00096723377043 0.00095758400502 0.00094806500346 0.00093867452045 0.00092941274777 0.00092027376972 0.000911206094 0.00090230142471 0.00089350808191 
0.0011582980574 0.0011457971952 0.001133508853 0.0011213936354 0.001109541859 0.0010978038391 0.0010862420864 0.0010748471814 0.0010636118492 
0.0010525295821 0.001041598821 0.001030824258 0.0010202096522 0.0010097583316 0.00099947725668 0.00098935258358 0.00097937637189 0.0009695369227 
0.00095983558817 0.00095026000651 0.00094081654666 0.00093150469745 0.00092231877588 0.00091325208576 0.00090425245518 0.00089541212256 0.0011608524362 
0.0011482599352 0.0011358275533 0.0011236095321 0.0011115692936 0.0010997997307 0.0010881448176 0.0010766648235 0.0010653518767 0.0010541964185 
0.0010431942149 0.001032353323 0.0010216777116 0.0010111723378 0.0010008338612 0.0009906595451 0.00098063840004 0.00097075301827 0.00096100037093 
0.0009513863294 0.00094190045262 0.00093254629006 0.00092332302891 0.00091422064884 0.00090518539427 0.00089630502186 0.0011626982376 0.0011499963422 
0.0011374852254 0.0011251323012 0.0011130031145 0.0011010696861 0.0010893911389 0.0010778328272 0.0010664447496 0.0010552196887 0.0010441531591 
0.0010332501928 0.0010225200335 0.0010119636058 0.0010015812159 0.00099136423548 0.00098129565677 0.00097137102408 0.00096157998082 0.00095192338118 
0.00094240654184 0.00093301903014 0.00092376299316 0.00091462811746 0.00090555906345 0.00089664599195 0.0011644008543 0.0011516045363 0.0011389881466 
0.0011265676316 0.0011143092182 0.0011022818821 0.001090532096 0.0010788929342 0.0010674202832 0.0010561289295 0.0010449975058 0.001034034936 
0.0010232486022 0.0010126410226 0.001002212393 0.00099195113007 0.00098184502812 0.00097188023921 0.00096205179702 0.00095235837523 0.00094280159399 
0.00093338128283 0.0009240964149 0.00091493051464 0.00090587659078 0.00089688176688 0.0011664724129 0.0011535543835 0.0011408318916 0.0011283219938 
0.0011159623232 0.0011038415352 0.0010919243131 0.0010802813478 0.0010687412684 0.0010573722507 0.0010461651357 0.0010351395627 0.0010242937186 
0.0010136327357 0.0010031528031 0.0009928450225 0.00098269391181 0.00097268921916 0.0009628197323 0.00095308782472 0.00094349326467 0.00093403598185 
0.00092471019285 0.00091551164902 0.00090642241218 0.00089739080168 0.0011692628259 0.0011562253686 0.0011433906655 0.0011307563736 0.0011183299014 
0.0011060847652 0.0010940697356 0.0010822532262 0.0010707094131 0.0010592598785 0.0010479860569 0.0010368820609 0.0010259720893 0.0010152499177 
0.0010047116223 0.0009943490412 0.00098414685707 0.00097409402717 0.00096418173325 0.00095440519849 0.00094476834012 0.00093526728181 0.00092589916321 
0.0009166525018 0.00090752457336 0.00089845070115 0.0011729840505 0.0011598275537 0.001146870213 0.0011341190394 0.0011215795196 0.0011092502597 
0.0010970888714 0.0010851821062 0.001073543289 0.0010620009522 0.0010506429299 0.0010394697494 0.0010284855722 0.0010176835243 0.0010070793094 
0.00099665306782 0.00098639181821 0.00097628274239 0.00096631908974 0.00095649782472 0.00094680953036 0.000937259942 0.00092783945595 0.00091854016042 
0.00090935708607 0.00090023704247 0.0011777720755 0.0011644768686 0.0011513854513 0.0011385082226 0.0011258439628 0.0011133935629 0.0011011547239 
0.0010890797156 0.0010772429752 0.0010657031403 0.0010542495245 0.0010429876014 0.0010319195185 0.0010210468013 0.0010103637785 0.00099985712997 
0.00098952729841 0.00097935408866 0.00096933159523 0.00095945105989 0.00094971206625 0.00094010163676 0.00093062222628 0.00092126460877 0.00091202135287 
0.00090289014109 0.0011836666953 0.0011702184135 0.0011569816431 0.0011439642494 0.0011311629625 0.0011185827397 0.0011062135892 0.00109405638 
0.001082054926 0.0010702981803 0.0010588295828 0.0010474802236 0.0010363171581 0.0010253548284 0.0010145874926 0.0010040069765 0.00099359103344 
0.00098334718776 0.00097325637499 0.0009633100563 0.00095350575765 0.00094383161809 0.00093428238873 0.00092485673839 0.0009155462447 0.00090634939844 
0.0011906744654 0.0011770511351 0.0011636635698 0.001150491795 0.0011375438314 0.0011248183955 0.0011123121497 0.0011000179227 0.0010878832078 
0.001076000118 0.0010644159503 0.0010529415951 0.0010416736082 0.0010306237908 0.0010197615432 0.0010090905896 0.00099859739733 0.00098827336193 
0.00097809628577 0.00096807811306 0.00095819871951 0.00094845086641 0.00093882754257 0.00092932410845 0.00091993803796 0.00091066766661 0.0011987911592 
0.0011849888397 0.0011714281265 0.0011580902995 0.0011449820309 0.0011321015169 0.0011194417661 0.0011069996166 0.0010947696875 0.0010827013215 
0.0010708934498 0.0010593951976 0.0010480123177 0.0010368371354 0.0010258694822 0.0010151092049 0.0010045251189 0.00099411157718 0.00098386042646 
0.00097374928998 0.00096378791075 0.00095395770899 0.00094425084778 0.00093466436133 0.00092519223686 0.00091583872909 0.0012080280338 0.001194030116 
0.0011802843628 0.0011667653673 0.0011534830904 0.0011404337646 0.0011276107658 0.0011150101204 0.0011026258967 0.0010904598501 0.0010784585123 
0.0010667292484 0.0010553198103 0.0010440272168 0.0010329451473 0.0010220643633 0.0010113754015 0.0010008749569 0.00099052820698 0.00098033381586 
0.00097028088891 0.00096035198348 0.00095055460664 0.00094087315749 0.00093131122262 0.00092186309307 0.0012184021419 0.0012041980718 0.0011902418204 
0.0011765391846 0.0011630705641 0.0011498402756 0.0011368408867 0.0011240687526 0.0011115195125 0.0010991927856 0.0010870922472 0.0010751619313 
0.0010636167042 0.0010521953231 0.0010409894482 0.001029990784 0.0010191860893 0.0010085675521 0.00099812485694 0.00098782828849 0.00097767567259 
0.000967653885 0.00095774660881 0.00094796353878 0.00093829603085 0.0009287467689 0.0012299514455 0.0012155276381 0.0012013556364 0.0011874468607 
0.0011737779254 0.001160354395 0.0011471659588 0.0011342112447 0.0011214846473 0.001108986403 0.001096718822 0.0010846299161 0.0010728348408 
0.0010613762152 0.0010500343616 0.0010389042974 0.0010279759935 0.0010172356052 0.0010066656867 0.00099625694817 0.00098600149744 0.00097586670163 
0.00096585544315 0.00095595845421 0.00094616914609 0.00093650538052 0.0012427175458 0.0012280583434 0.0012136600261 0.0011995275928 0.0011856460729 
0.0011720152584 0.0011586278715 0.0011454775156 0.0011325602964 0.0011198770428 0.0011074314448 0.0010952287278 0.0010832142795 0.0010714962223 