# vtk DataFile Version 5.1
vtk output
ASCII
DATASET STRUCTURED_POINTS
DIMENSIONS 26 26 26
SPACING 0.08 0.08 0.08
ORIGIN -1 -1 0.5
POINT_DATA 17576
FIELD FieldData 1
potential 1 17576 double
0.0028101628249 0.002864116306 0.0029194980419 0.0029763708065 0.0030347230832 0.0030945585826 0.0031560232069 0.003218885173 0.0032832871622 
0.0033493072247 0.0034169771884 0.0034867016692 0.003558481875 0.0036323851271 0.0037085170371 0.003786859159 0.0038674953464 0.003950573411 
0.0040362527981 0.0041246738786 0.0042160312915 0.0043104358185 0.0044079287073 0.0045085863553 0.0046125726747 0.0047200047757 0.0027623714932 
0.0028148472763 0.0028686633617 0.0029238860231 0.0029805831613 0.0030387928986 0.003098497674 0.0031597100185 0.0032225507997 0.0032868145814 
0.0033527446236 0.0034205095219 0.003490258104 0.0035619235984 0.0036358790287 0.0037119659656 0.0037902121965 0.0038707052782 0.0039536474421 
0.0040392110821 0.0041276063064 0.0042189757663 0.0043133556695 0.0044107667753 0.0045112873906 0.00461502481 0.0027044823134 0.0027550990915 
0.0028071847924 0.0028605887441 0.0029154502751 0.0029718101503 0.0030296913448 0.0030890492937 0.0031498337941 0.0032121907472 0.0032759936341 
0.0033415267375 0.0034089621365 0.0034784381372 0.0035499601624 0.0036235362423 0.003698940316 0.003776572336 0.0038564661429 0.0039388691395 
0.0040239888688 0.0041120096657 0.0042029407114 0.0042967621561 0.0043934940499 0.0044932003474 0.0026397999935 0.002688903518 0.0027389263499 
0.002790415069 0.0028433045233 0.0028977001673 0.0029536261986 0.0030109865092 0.0030697244858 0.0031297825475 0.003191408434 0.0032545565727 
0.0033195256148 0.0033864575369 0.0034553859326 0.003526248844 0.003598999207 0.0036736115357 0.0037502960999 0.003829352653 0.0039108457205 
0.0039953089694 0.0040826075352 0.0041726523929 0.0042653942038 0.0043608637224 0.0025726292118 0.0026199843544 0.0026683902832 0.0027177524332 
0.0027686638254 0.0028210517875 0.0028749316944 0.0029302302365 0.0029868442874 0.0030447460131 0.0031039252129 0.0031646383932 0.0032271949187 
0.0032915286842 0.0033577820953 0.0034258831944 0.0034957487898 0.0035673281408 0.0036407860045 0.0037164582405 0.003794621483 0.003875468213 
0.003959057009 0.0040451229555 0.0041338381824 0.004225049486 0.0025065900894 0.0025522507272 0.0025988928663 0.0026466283515 0.0026954313449 
0.0027458288912 0.0027977098299 0.0028509729929 0.002905497395 0.002961216413 0.0030181722781 0.0030765326476 0.0031364805096 0.003198367085 
0.00326197887 0.0033273380666 0.0033943324281 0.0034629884994 0.0035333581964 0.0036057590945 0.0036805118155 0.0037578136164 0.0038377464563 
0.0039201756285 0.0040049563816 0.0040920896809 0.0024442621814 0.0024883203193 0.0025333171697 0.0025793424666 0.0026265633503 0.0026748984503 
0.0027248455317 0.0027761355822 0.0028286492634 0.002882310548 0.002937153069 0.0029933001464 0.0030509459525 0.003110233745 0.003171392519 
0.0032341058398 0.0032983834092 0.0033642358594 0.0034316973873 0.0035010431358 0.0035725769211 0.0036465194701 0.0037229352423 0.0038017326477 
0.0038827705933 0.0039660217519 0.0023870393798 0.0024296032981 0.0024730816936 0.0025175440638 0.0025631249383 0.0026099535133 0.0026580890028 
0.0027073068288 0.0027579254187 0.0028096615393 0.002862534476 0.0029166355014 0.0029721390495 0.0030291680763 0.0030878144972 0.0031479932375 
0.0032098115068 0.0032729892381 0.0033377893648 0.0034043162321 0.0034728775134 0.0035436904941 0.0036168041344 0.0036921766077 0.0037697069028 
0.0038493469104 0.0023353241373 0.0023765043092 0.0024185878435 0.0024616212814 0.0025057138645 0.0025509587403 0.0025974376922 0.0026451338566 
0.0026937750781 0.0027437211525 0.0027947690041 0.0028469989215 0.0029005316481 0.0029554629752 0.0030118824343 0.0030697727092 0.0031290630231 
0.0031899167752 0.0032521783256 0.003316173478 0.0033819934027 0.0034499088462 0.003519966023 0.0035921502685 0.0036663912797 0.0037426706462 
0.002288866029 0.0023287782241 0.002369578424 0.0024113075806 0.0024540343322 0.0024978420285 0.002542800825 0.0025889012377 0.0026361262508 
0.0026842190036 0.0027335843142 0.0027840812307 0.0028357916104 0.0028888056219 0.0029431826218 0.0029989415592 0.0030560625727 0.0031145639356 
0.0031744928238 0.0032361996059 0.0032995299257 0.0033647692101 0.0034320172724 0.0035012685458 0.0035724735396 0.003645622347 0.0022471681748 
0.0022859137782 0.0023255271872 0.0023660380042 0.0024075037561 0.0024500003503 0.002493566651 0.0025382193529 0.0025839473002 0.0026307106857 
0.0026785201857 0.002727209216 0.0027772471176 0.0028285038517 0.002881017146 0.0029348238477 0.0029899225069 0.003046350963 0.00310417284 
0.0031635124308 0.0032246432656 0.0032874277335 0.0033520946367 0.0034186350167 0.0034870406505 0.0035572947468 0.0022096695614 0.0022473413719 
0.0022858584495 0.0023252418456 0.0023655454156 0.0024068260656 0.00244911272 0.002492439183 0.0025367844669 0.0025821382949 0.0026284994458 
0.0026758951208 0.0027241823724 0.0027738181899 0.0028246258669 0.0028766395933 0.0029298939044 0.0029844068285 0.0030402525191 0.0030975247021 
0.0031563600879 0.0032169184735 0.0032792828823 0.0033433328383 0.0034091485931 0.0034767351004 0.0021763414185 0.0022126072136 0.0022501109762 
0.0022884493882 0.0023276747964 0.0023678331638 0.0024089532419 0.0024510504184 0.0024941208487 0.0025381523609 0.0025831750032 0.0026291803145 
0.0026762237709 0.002724165406 0.0027734124139 0.0028237925209 0.0028753249999 0.0029280616571 0.0029820650046 0.0030374232841 0.0030942588969 
0.0031526658757 0.0032127901314 0.0032746037425 0.0033380173839 0.003403106959 0.0021460807479 0.0021818397193 0.0022179920981 0.0022553597547 
0.0022935866166 0.0023327095209 0.0023727521342 0.0024137171781 0.0024556083224 0.0024984231391 0.0025421800265 0.0025868887154 0.0026326022738 
0.0026793402432 0.0027271480574 0.0027758204139 0.0028257708389 0.0028768544027 0.0029291415488 0.0029827223368 0.0030377054883 0.0030941758784 
0.0031521824356 0.0032118479225 0.0032730354949 0.0033358736853 0.0021192058614 0.0021541135278 0.0021897753686 0.0022262492553 0.0022631691364 
0.0023013461341 0.0023403953201 0.0023803166412 0.0024211061427 0.0024627703223 0.0025053443161 0.0025488558925 0.0025933332713 0.0026388028332 
0.0026852618337 0.0027327201445 0.0027810188724 0.0028305546513 0.0028812524207 0.0029331877358 0.0029864705871 0.003041159084 0.0030972891926 
0.0031549712186 0.0032140701677 0.0032746762111 0.0020954108584 0.0021298745154 0.0021647388709 0.0022003853826 0.0022368627242 0.0022741787928 
0.0023119447466 0.0023509023907 0.0023906685287 0.0024312683256 0.0024727392721 0.002515139087 0.002558480172 0.0026027746719 0.0026480026483 
0.0026941610966 0.0027412636146 0.0027893711232 0.0028384013841 0.0028888261004 0.0029405503816 0.0029936240166 0.0030480429659 0.0031038158468 
0.0031610499329 0.0032196333052 0.0020756413636 0.00210901765 0.0021434722172 0.0021783742186 0.0022140963752 0.0022506432516 0.0022879796012 
0.0023256938897 0.0023645227771 0.0024041280131 0.0024445761438 0.0024859399971 0.0025282570051 0.0025714871077 0.0026155949455 0.0026605529403 
0.0027063876731 0.0027531661887 0.0028010055047 0.0028498749143 0.0029001827544 0.0029517749387 0.0030046318629 0.0030587295539 0.0031140975059 
0.0031708975682 0.0020598604732 0.0020925665884 0.0021259884514 0.0021601965952 0.0021956086171 0.0022314715448 0.0022680876665 0.0023053875263 
0.0023433615442 0.0023816963022 0.0024212219358 0.0024616507225 0.0025030268546 0.0025453041308 0.002588407872 0.0026322799714 0.0026769431264 
0.002722502503 0.0027690989144 0.0028168658491 0.0028659132668 0.002916011642 0.002967465491 0.0030200459178 0.0030737833562 0.0031287795076 
0.0020483389819 0.0020804899782 0.0021133176075 0.002146936267 0.0021814056748 0.0022166691824 0.0022529870829 0.002289593307 0.0023268104367 
0.0023646991216 0.0024033790031 0.0024426321343 0.0024831690735 0.0025245996685 0.0025667952048 0.0026096986864 0.0026533187717 0.0026977653312 
0.0027432413214 0.0027898868418 0.0028377774283 0.0028868800961 0.0029370672702 0.0029881256516 0.0030403993792 0.0030938546703 0.0020412117712 
0.0020728806503 0.0021052169048 0.0021383382322 0.0021722914281 0.0022070465352 0.0022424924199 0.0022788247988 0.0023153836996 0.002352549615 
0.0023905015256 0.0024293570937 0.0024691482053 0.0025094788398 0.0025508957057 0.0025929390868 0.0026356402324 0.002679126442 0.0027236046129 
0.0027692600604 0.0028161284202 0.002864162535 0.0029132386365 0.0029632440447 0.0030140643148 0.0030661424376 0.0020381553279 0.002069436176 
0.0021013691671 0.0021340736509 0.0021676048832 0.0022018929534 0.0022368455734 0.0022723487549 0.0023083535527 0.0023452514991 0.0023825891065 
0.0024207987323 0.0024599333613 0.002499907031 0.0025402677006 0.002581571191 0.0026234798202 0.0026661386738 0.0027097730757 0.0027545416669 
0.0028004962842 0.0028475744085 0.0028956246852 0.0029445695357 0.0029944038912 0.0030452842592 0.0020380998596 0.0020690868935 0.0021007075914 
0.0021330663898 0.0021662156839 0.0022001077334 0.0022346179413 0.0022696496689 0.0023051885859 0.0023412850111 0.0023780942855 0.0024160435472 
0.0024545696914 0.0024939207199 0.0025339570702 0.0025745937767 0.0026155239751 0.0026574870778 0.0027003850738 0.002744367806 0.0027894805215 
0.0028356626527 0.0028827770935 0.0029307254697 0.0029795592059 0.0030293896612 0.0020391724576 0.0020699109086 0.0021012682006 0.0021333339188 
0.0021661414693 0.0021996361731 0.0022337268121 0.0022683287581 0.0023034295654 0.0023390937674 0.0023754314642 0.0024125674947 0.0024505271546 
0.0024895491371 0.0025289680299 0.0025689764284 0.0026096055046 0.0026509457375 0.0026928907276 0.002736156805 0.0027804758235 0.0028258155417 
0.0028720226036 0.0029190528847 0.0029669410077 0.0030158119818 0.0020387157764 0.0020692269995 0.0021003223554 0.0021320898166 0.0021645415834 
0.0021976387652 0.0022312990088 0.0022654549995 0.0023001088404 0.002335320195 0.0023711876677 0.0024078113908 0.0024451965298 0.0024833187493 
0.0025220966452 0.0025617509096 0.0026017727683 0.0026425040087 0.0026840870035 0.0027266206527 0.0027698746221 0.0028143181315 0.0028596087707 
0.0029057037123 0.0029526515976 0.0030005770206 0.0020337615627 0.0020639897504 0.0020947890173 0.0021262146503 0.002158259503 0.0021908977111 
0.0022240651302 0.0022577272884 0.0022918745848 0.0023265804595 0.0023619080198 0.0023979347402 0.0024346903333 0.0024721322422 0.0025102140209 
0.0025489192934 0.0025885153592 0.0026285926194 0.0026694684762 0.0027112288592 0.0027538805398 0.0027973787437 0.0028414154289 0.0028864842855 
0.0029323978844 0.0029792838342 0.0020216308282 0.0020514856826 0.0020819132079 0.0021128969959 0.002144450703 0.0021765420424 0.0022091235993 
0.0022421748881 0.0022757143732 0.0023097818716 0.0023444628603 0.0023797983797 0.0024158003669 0.0024524658771 0.0024897444979 0.0025276413074 
0.0025662053976 0.002605486162 0.0026457953424 0.0026866707009 0.002728352829 0.0027707915964 0.0028139535118 0.0028578561195 0.0029023453261 
0.0029480239933 0.0031393870341 0.0031994208017 0.0032610412497 0.0033243238776 0.0033892529664 0.0034558562776 0.0035243139582 0.003594418268 
0.0036663381656 0.0037401413515 0.0038158392166 0.0038938070031 0.0039740298776 0.0040565973563 0.0041416335749 0.0042291827494 0.0043193305666 
0.0044122330399 0.004508029078 0.0046068425079 0.0047088515063 0.00481418955 0.0049229479753 0.0050352279882 0.0051512248415 0.0052710554236 
0.0030916515747 0.0031501806534 0.0032102370117 0.0032718653345 0.0033351327237 0.0034000541746 0.0034666550335 0.0035349955229 0.0036052227404 
0.0036771662221 0.0037510188432 0.0038269252701 0.0039050072786 0.0039851968817 0.0040678995249 0.0041530160062 0.0042406106897 0.0043307885622 
0.0044237250473 0.0045195514568 0.004618430109 0.0047205172265 0.0048259040686 0.0049346717595 0.0050469341395 0.0051628173676 0.0030366965805 
0.0030933915958 0.0031517546631 0.0032116288459 0.0032730915008 0.0033361748669 0.0034009292886 0.0034673632147 0.003535479863 0.0036054728423 
0.0036771791255 0.0037508474827 0.0038265872978 0.0039045276795 0.0039847163841 0.0040672299442 0.0041519117805 0.0042391900654 0.0043290583826 
0.0044216783767 0.0045172367214 0.0046158547731 0.0047176549744 0.0048226640171 0.0049309895826 0.0050427281482 0.0029764796145 0.003031702403 
0.0030880828181 0.0031461151667 0.0032056703865 0.0032668281715 0.0033296341265 0.0033940517928 0.0034601148791 0.0035278045403 0.0035973697147 
0.0036686755762 0.0037419716884 0.0038173645833 0.003894925808 0.0039746764357 0.0040566819171 0.0041409450787 0.0042276173659 0.0043169318808 
0.004408872598 0.0045039035521 0.0046019818396 0.0047031240082 0.0048073748 0.0049148127035 0.0029138905366 0.0029673983501 0.0030222099943 
0.0030781774056 0.0031358224301 0.003195031887 0.0032558094405 0.003318167457 0.0033820957485 0.0034476155919 0.0035147581571 0.0035836692579 
0.0036545853936 0.0037273944186 0.0038022708772 0.0038792381839 0.0039583179449 0.0040395421206 0.0041230178618 0.0042089791914 0.0042975935767 
0.0043890039242 0.0044833175016 0.0045804075729 0.0046805481543 0.0047836858712 0.0028514243993 0.0029032467094 0.0029563051145 0.0030106737952 
0.0030662417517 0.003123487118 0.0031822843117 0.0032425987447 0.0033044177515 0.00336774958 0.0034326332579 0.0034991914867 0.0035674974102 
0.0036378585561 0.0037100780531 0.0037842702381 0.0038604453793 0.0039386915418 0.0040190416002 0.004101699367 0.0041868974119 0.004274750893 
0.0043653417098 0.0044587011891 0.0045548148549 0.0046537540202 0.0027910398194 0.0028412344481 0.0028926144465 0.0029452438398 0.0029992098039 
0.0030543840685 0.0031112348215 0.0031695625127 0.0032293303101 0.0032905370187 0.0033532382206 0.0034175110952 0.0034834784717 0.0035512013357 
0.0036209298956 0.0036924277647 0.0037658083973 0.0038411540652 0.0039184910434 0.0039979972125 0.0040798917483 0.0041642941244 0.0042512850292 
0.0043409075456 0.004433143548 0.0045280179665 0.0027339889523 0.0027826368623 0.0028324286841 0.0028834125174 0.0029356708576 0.0029892805046 
0.0030442848611 0.0031004937386 0.0031582981798 0.003217487026 0.0032781003395 0.0033402092605 0.0034039166079 0.0034693027019 0.0035364439684 
0.0036053374574 0.0036761475825 0.0037486774608 0.0038231795189 0.0038996983441 0.003978449628 0.0040595839697 0.0041431576605 0.0042292002181 
0.0043177307236 0.0044087645422 0.0026808948496 0.0027280835542 0.0027763802875 0.0028258209511 0.0028764817656 0.0029284092433 0.0029816826187 
0.0030362952923 0.0030920371624 0.0031493099479 0.0032079512484 0.0032680210511 0.0033295996723 0.0033927541725 0.003457561047 0.0035240469336 
0.0035921967668 0.0036622227656 0.0037339745066 0.0038077353588 0.0038835355473 0.0039615651165 0.0040419035168 0.0041245711211 0.0042095864598 
0.004296979948 0.0026318787767 0.0026777061662 0.002724606412 0.0027726091467 0.002821768275 0.0028721412973 0.0029237783791 0.0029766923482 
0.0030308998025 0.0030861811176 0.0031429713997 0.0032011165836 0.0032606959128 0.0033217628429 0.0033843731783 0.0034485719462 0.0035143850524 
0.0035818547771 0.0036510412093 0.0037222068434 0.0037953118229 0.0038704364714 0.0039477425094 0.0040272477362 0.0041089672609 0.0041929417857 
0.0025868303805 0.0026313828905 0.0026769677964 0.0027236142278 0.0027713699922 0.0028202888255 0.0028704046511 0.0029217397771 0.0029742995271 
0.0030281081934 0.0030831637841 0.0031393153279 0.0031970195991 0.0032561342174 0.0033166989717 0.0033787593314 0.0034423532393 0.0035075307804 
0.0035743622059 0.0036429477154 0.0037135346163 0.0037859477772 0.0038604147679 0.0039369511094 0.0040155922414 0.0040963586573 0.002545486751 
0.0025888505484 0.0026332060574 0.0026785867008 0.0027250349241 0.0027725918421 0.0028212872651 0.0028711459255 0.0029221771541 0.00297440075 
0.0030278262407 0.0030824887971 0.0031382397858 0.0031955302619 0.0032541831147 0.0033142494561 0.0033757747712 0.0034388024583 0.0035034076367 
0.0035696694536 0.0036376886728 0.0037076278743 0.0037794977339 0.0038532710364 0.0039290202219 0.0040067999006 0.0025080266631 0.0025498620878 
0.0025930750992 0.0026372705538 0.002682490626 0.0027287731472 0.0027761435311 0.0028246221848 0.0028742223754 0.0029249525952 0.0029768578032 
0.0030299351901 0.0030842393827 0.0031398150225 0.0031965070686 0.0032547083785 0.0033142892188 0.0033753044071 0.0034378171534 0.0035018980694 
0.0035676478159 0.0036351424652 0.0037045193814 0.0037757567329 0.003848813726 0.0039237788182 0.0024734536395 0.0025146567289 0.0025563900861 
0.002599472832 0.0026435460436 0.0026886378632 0.0027347711705 0.0027819591161 0.002830219618 0.0028795653637 0.0029300261058 0.0029816156632 
0.0030343803272 0.0030883516864 0.0031435642237 0.0031998491755 0.0032576214676 0.0033167439918 0.0033772920805 0.003439334345 0.0035029573398 
0.0035682332217 0.0036352123737 0.0037040206338 0.0037745499789 0.0038469473589 0.0024421061321 0.0024823387126 0.0025234558932 0.0025655029119 
0.002608115429 0.0026520987165 0.0026970791456 0.0027430622347 0.0027900609669 0.0028380963609 0.0028872009706 0.0029374011929 0.0029887254819 
0.0030412076185 0.0030948566613 0.0031496987348 0.0032055959397 0.0032629448399 0.003321655471 0.0033817896963 0.0034434373118 0.0035066460589 
0.0035714639311 0.0036380021679 0.0037061502722 0.0037760136112 0.0024136249714 0.002453297826 0.0024934916168 0.0025345756042 0.002576583343 
0.0026195394345 0.0026630654811 0.0027079250598 0.0027537463016 0.0028005600331 0.0028483931173 0.0028972973558 0.0029472741191 0.0029983550414 
0.003050546274 0.0031038689346 0.0031583579406 0.0032140607344 0.0032708652824 0.0033292265733 0.003389026418 0.0034503188375 0.0035131300722 
0.0035774761229 0.0036434793938 0.0037110233143 0.0023888203727 0.0024272919077 0.0024665979167 0.002507151785 0.0025482447935 0.0025902521593 
0.0026331692831 0.0026766178889 0.0027213468867 0.0027670099854 0.0028136597265 0.0028613363425 0.0029100779653 0.002959865324 0.0030107090348 
0.0030626138008 0.0031156196871 0.0031697737032 0.003225157319 0.0032816879376 0.0033397906902 0.0033992978432 0.0034602383315 0.0035226258134 
0.0035864772521 0.0036519545126 0.0023674447686 0.0024051309711 0.0024436339881 0.0024829900057 0.0025236015621 0.0025647375466 0.0026067457668 
0.0026496041617 0.0026933190353 0.0027375607479 0.0027831185343 0.0028296689082 0.002877247371 0.0029258473581 0.0029754441006 0.003026036828 
0.0030776581084 0.0031303774952 0.0031842853626 0.0032394594612 0.0032959820954 0.0033536771604 0.0034128955449 0.0034734609085 0.0035354079103 
0.0035987988595 0.0023494964682 0.0023864927005 0.0024242661612 0.0024628758078 0.0025023637659 0.0025427033518 0.0025842140283 0.0026261921723 
0.0026689789323 0.0027126110268 0.0027571438594 0.002802313376 0.0028488236108 0.0028963260705 0.0029447707379 0.0029941562476 0.0030445109536 
0.0030959008552 0.0031484363667 0.0032022048356 0.0032572618157 0.003313627099 0.003371257222 0.0034299857101 0.0034901783709 0.0035517289831 
0.0023348361222 0.0023712015208 0.0024083203399 0.0024462610877 0.0024850393989 0.0025246634772 0.0025650952924 0.002606594472 0.0026485318916 
0.002691252616 0.0027348670682 0.0027794143333 0.002824941078 0.0028710872369 0.002918491289 0.0029667679172 0.0030159549015 0.0030661326138 
0.0031174055733 0.0031698873133 0.0032236014555 0.0032785601241 0.0033347352856 0.0033920882814 0.0034504973601 0.0035103538804 0.0023229879082 
0.0023587843315 0.0023953164774 0.0024326450202 0.0024707921821 0.0025097399717 0.0025494570795 0.002589911134 0.0026310776555 0.0026733125118 
0.002716082298 0.0027597551862 0.0028043717535 0.0028498993478 0.0028959661714 0.002943233785 0.0029913587728 0.0030404236936 0.0030905543582 
0.003141837221 0.0031943155395 0.0032479670309 0.0033027697155 0.0033587049184 0.00341578739 0.0034740928211 0.0023129796256 0.0023482682124 
0.0023842716123 0.0024210376731 0.0024585882442 0.0024969219131 0.0025359761647 0.0025757285165 0.0026161890158 0.0026573729639 0.0026993627898 
0.0027425172249 0.0027862693478 0.002830908329 0.0028763884637 0.0029226922839 0.0029695265766 0.0030175734387 0.0030666389914 0.0031168003935 
0.0031680948655 0.0032205206406 0.0032740384364 0.0033286200893 0.0033843172154 0.0034411774951 0.002303393105 0.002338198265 0.0023736981704 
0.0024099367099 0.0024469283135 0.0024846483138 0.0025230619119 0.0025621527978 0.0026019134148 0.0026423877144 0.0026836416871 0.0027257175197 
0.0027686490172 0.0028126949501 0.0028572837914 0.0029026607021 0.0029488664287 0.0029959444163 0.0030437061184 0.0030928072373 0.0031429773202 
0.0031942327945 0.0032465003215 0.0032997984371 0.0033541496141 0.0034096478949 0.0022923848754 0.0023267197305 0.0023617160984 0.0023974196191 
0.0024338386264 0.0024709507635 0.0025087254942 0.0025471418449 0.0025862075603 0.0026259659154 0.0026664645629 0.0027077645628 0.0027498644763 
0.002792771518 0.0028364618822 0.0028811918079 0.0029264659032 0.0029725855739 0.0030196346314 0.0030676693603 0.0031164552815 0.0031665025884 
0.0032175465957 0.0032695528282 0.00332259196 0.0033767305623 0.0022779978093 0.0023118211255 0.0023462919599 0.0023814351425 0.0024172445237 
0.0024537105184 0.0024908063391 0.0025285172589 0.0025668475578 0.0026058555786 0.0026455679358 0.002686028006 0.0027272705897 0.0027692744817 
0.0028120301712 0.002855548625 0.0028998566609 0.0029452492932 0.0029912660476 0.0030382162236 0.0030861113683 0.0031349386249 0.0031844351811 
0.0032351185159 0.0032867893141 0.0033395255446 0.0022585032032 0.0022917605926 0.0023256576345 0.0023601697336 0.002395313865 0.0024310688354 
0.0024674192649 0.0025043524252 0.0025418959236 0.0025800643228 0.0026189243248 0.0026584913932 0.0026987948837 0.002739834734 0.0027815931098 
0.0028240883852 0.0028673623649 0.0029114446815 0.0029563882594 0.003002417693 0.003049095486 0.0030966313727 0.0031450286559 0.0031942991985 
0.0032445162732 0.0032955308945 0.0034761872446 0.0035424223899 0.0036104190517 0.003680240079 0.0037519009475 0.0038254254602 0.0039010254185 
0.0039785125682 0.004058066295 0.0041397512457 0.004223559688 0.0043098934041 0.0043986882536 0.0044900712708 0.004584166377 0.0046810574691 
0.0047808390274 0.0048836715089 0.0049896879031 0.005099008558 0.0052118118041 0.0053282435406 0.0054484207108 0.0055724671571 0.0057005874366 
0.0058329209983 0.0034269956797 0.0034916682512 0.0035580409674 0.0036261535676 0.0036960784457 0.0037678348775 0.0038414868048 0.0039170552427 
0.0039947698036 0.0040744514423 0.0041562785198 0.0042403951801 0.004326892373 0.0044157214024 0.0045072948276 0.0046015664107 0.0046985924597 
0.0047985138022 0.0049014727533 0.0050076057732 0.0051170497049 0.0052299775587 0.0053465040646 0.0054667396344 0.0055908284248 0.0057189059763 
0.0033726050473 0.0034354180016 0.0035000773796 0.0035664202074 0.0036345078109 0.0037043788968 0.0037760952056 0.0038496914175 0.0039252008751 
0.0040028473626 0.0040824429396 0.0041642250357 0.0042482903829 0.0043347512376 0.0044236966418 0.0045152113387 0.0046093616824 0.0047060982492 
0.0048058683468 0.0049086661837 0.0050146457759 0.0051239324329 0.0052366684386 0.0053529322282 0.0054728658802 0.0055965822069 0.0033141586807 
0.0033754881633 0.0034381617833 0.0035026628345 0.0035688416802 0.0036367673212 0.0037064933408 0.0037780210687 0.0038514163444 0.0039267059365 
0.004004104206 0.0040834752936 0.0041650333402 0.0042488775123 0.0043351047322 0.0044237663804 0.0045149881695 0.0046087731956 0.0047052763554 
0.0048046824174 0.0049069646502 0.0050125205526 0.0051213924412 0.0052336251119 0.0053493183873 0.0054685677608 0.0032536571743 0.0033132637294 
0.003374366069 0.0034368014434 0.0035010707612 0.0035670292736 0.0036347015959 0.003704131999 0.0037753490757 0.0038484070325 0.0039233703846 
0.0040002785639 0.0040794165786 0.0041606182843 0.0042440904989 0.0043298899411 0.0044181096099 0.0045087772494 0.0046020158156 0.0046980018132 
0.0047968617823 0.0048987139492 0.0050036916005 0.0051118748859 0.0052231789389 0.0053379791715 0.0031928499896 0.0032507490839 0.0033100806378 
0.0033709047704 0.0034330685989 0.0034970482284 0.0035627093362 0.0036300526698 0.0036991112549 0.0037699228192 0.0038425458467 0.0039170656873 
0.0039935354712 0.0040722356434 0.0041529765552 0.004235937612 0.0043211591919 0.0044087737855 0.0044987818214 0.0045913752364 0.0046867194869 
0.004784906425 0.0048860413912 0.0049902231721 0.0050974832538 0.0052079301617 0.0031332084858 0.0031894404539 0.0032470489372 0.0033060877188 
0.0033666114707 0.0034286858002 0.0034921567124 0.0035574494367 0.0036243939829 0.0036930072605 0.0037633632953 0.0038355170052 0.0039095691022 
0.0039855480141 0.0040637198557 0.0041438922279 0.0042262143314 0.0043107682822 0.0043976808915 0.00448699512 0.0045789122663 0.0046735233461 
0.0047709270292 0.004871208999 0.0049744219047 0.0050806155006 0.0030757868998 0.0031304152605 0.0031863684154 0.003243689075 0.0033024364572 
0.0033626641287 0.0034244227213 0.0034875394205 0.0035524324528 0.0036189295679 0.003687086153 0.0037569642636 0.0038286422576 0.0039021819329 
0.0039776636447 0.0040551165904 0.0041347421542 0.0042163788025 0.0043002542487 0.0043864200086 0.0044750210258 0.0045662064065 0.004660028397 
0.004756547534 0.0048558414543 0.0049579679312 0.0030212413471 0.003074336232 0.0031287057751 0.0031843864695 0.0032414388688 0.003299901376 
0.0033598319087 0.0034212626036 0.0034839897997 0.0035484544687 0.0036145073959 0.0036822048659 0.00375160473 0.0038227880406 0.0038957968095 
0.0039707094524 0.0040475263867 0.0041264827277 0.0042074277046 0.0042906300355 0.0043760843286 0.0044639717885 0.004554346712 0.0046472969241 
0.0047428439557 0.0048410785159 0.0029698679163 0.0030215124268 0.0030743784134 0.0031285078722 0.0031839465174 0.0032407334241 0.0032989212271 
0.0033585382006 0.0034196110558 0.0034819530953 0.0035460065052 0.0036116157232 0.0036788626744 0.0037477904134 0.003818456103 0.0038909110767 
0.0039652152041 0.0040414188447 0.0041195938772 0.0041999779514 0.004282517221 0.0043672681751 0.004454395156 0.0045439332363 0.004635935472 
0.0047304756507 0.0029217635675 0.0029720245664 0.0030234672247 0.0030761224876 0.0031300256676 0.0031852325983 0.003241765928 0.0032996789394 
0.0033589733939 0.0034196895858 0.0034818442689 0.0035452925069 0.0036104840605 0.0036772816212 0.0037457201925 0.0038158597576 0.0038877529379 
0.003961456662 0.0040370529988 0.0041146222616 0.0041943987468 0.0042761947319 0.0043602288265 0.0044465521458 0.0045352068321 0.0046262422907 
0.0028768619758 0.0029258215006 0.0029759140568 0.0030271723942 0.0030796354 0.003133345006 0.0031883283858 0.00324461484 0.0033022316521 
0.0033612049802 0.0034215645957 0.003483343364 0.0035464003681 0.0036111799621 0.0036775188615 0.0037454715415 0.0038150794985 0.0038864175214 
0.0039595492737 0.004034557258 0.0041115210449 0.0041905809271 0.0042717651955 0.0043550536216 0.0044405335119 0.0045282760404 0.0028354823455 
0.0028827999229 0.0029316204456 0.0029815630833 0.0030326605637 0.0030849547218 0.0031384641463 0.0031932211337 0.0032492504569 0.0033065768705 
0.0033652371298 0.0034252513585 0.0034866698851 0.0035495354635 0.0036137110791 0.0036795893871 0.0037470510803 0.0038161413477 0.0038869487472 
0.003959526825 0.0040339597115 0.0041103210228 0.0041887365117 0.0042692453709 0.004351715056 0.0044363417016 0.002796716919 0.002843278157 
0.0028908931532 0.002939187756 0.0029889960938 0.0030399509605 0.003092073965 0.0031453939808 0.0031999204819 0.0032556899827 0.0033127410384 
0.0033710822544 0.003430766729 0.0034918311637 0.0035543144739 0.0036180605628 0.0036834956296 0.0037504716172 0.0038190742329 0.0038893619289 
0.0039614081836 0.0040352888034 0.0041110401837 0.0041887978589 0.0042684804062 0.0043502640995 0.002760921166 0.0028063918231 0.0028528688213 
0.0029003831535 0.0029485861358 0.0029982801783 0.0030490938396 0.0031010463557 0.0031541521311 0.0032084539142 0.0032639731195 0.0033207428422 
0.0033787865353 0.0034381542395 0.0034988724955 0.0035609708478 0.0036242943293 0.0036892786424 0.0037558013973 0.0038239311705 0.003893740167 
0.0039652757191 0.0040386009179 0.0041137299679 0.0041908102203 0.0042697340563 0.0027277026126 0.0027724913493 0.0028179093517 0.0028643263645 
0.0029117757103 0.0029602860593 0.0030094857632 0.0030601557042 0.0031119275096 0.0031648393148 0.0032189135877 0.0032742015324 0.0033307055315 
0.0033884658061 0.0034475052143 0.003507858467 0.0035695659235 0.0036326720874 0.0036970564471 0.0037631620103 0.00383085602 0.0039001950109 
0.0039712248358 0.0040439572845 0.0041185360347 0.0041948407585 0.0026977897125 0.0027412497857 0.0027856446922 0.0028313913406 0.0028777697594 
0.0029251679522 0.0029735933327 0.0030226883481 0.0030732053446 0.0031248028419 0.0031775204727 0.0032313926328 0.0032864626069 0.0033427131466 
0.0034001867963 0.003458904724 0.0035189075386 0.0035802463583 0.0036429730628 0.0037071575287 0.0037727081083 0.003839983342 0.0039088478858 
0.0039793386339 0.0040514831244 0.0041254156659 0.0026708000615 0.0027133406239 0.0027567999958 0.0028012010263 0.0028469370815 0.0028932914341 
0.0029406343545 0.0029889692357 0.0030383033971 0.0030883152849 0.0031397546474 0.0031923111207 0.0032460032226 0.0033008540594 0.0033568553002 
0.0034140403241 0.0034724387165 0.0035321067802 0.0035931184965 0.003655515144 0.0037193777455 0.0037845455134 0.0038513962765 0.0039197776568 
0.0039897148745 0.00406126867 0.0026465830032 0.002688295003 0.0027308809862 0.0027743861892 0.0028188213892 0.002864201011 0.0029108654004 
0.0029581397201 0.0030063682792 0.0030555860103 0.0031058243953 0.0031567949619 0.0032092085664 0.0032627360263 0.0033173544822 0.0033730981117 
0.0034300000074 0.0034881069924 0.0035474929034 0.0036082105708 0.0036703322989 0.0037338646059 0.0037988260284 0.0038650627476 0.0039329484563 
0.0040023513223 0.0026248868539 0.0026658126663 0.0027075838389 0.00275024258 0.0027938002388 0.0028382795009 0.0028836761435 0.0029299602671 