# vtk DataFile Version 5.1
vtk output
ASCII
DATASET STRUCTURED_POINTS
DIMENSIONS 26 26 26
SPACING 0.08 0.08 0.08
ORIGIN -1 -1 0.5
POINT_DATA 17576
FIELD FieldData 1
potential 1 17576 double
0.0018983660389 0.0019244388968 0.0019509786906 0.0019779818519 0.0020054329953 0.0020333117463 0.002061539897 0.002090187966 0.0021189403529 
0.0021483551278 0.0021782225656 0.0022086081674 0.0022395748632 0.0022711296301 0.0023032692238 0.0023359645837 0.0023691891849 0.0024029785084 
0.0024373305705 0.0024722750824 0.0025078571729 0.002544065576 0.0025808793104 0.0026182654086 0.0026562547586 0.0026948494601 0.0019104750425 
0.0019368952655 0.001963765218 0.0019911011981 0.0020188655761 0.0020471782549 0.0020759580016 0.0021049133144 0.0021345265454 0.0021645556802 
0.002195040329 0.0022260545548 0.0022576729438 0.0022899182436 0.0023227889271 0.0023562377729 0.0023902427361 0.0024247854008 0.0024599081578 
0.0024956500851 0.0025320761803 0.0025691793862 0.0026069398216 0.0026453223257 0.002684316394 0.0027238031076 0.0019158807873 0.0019425820311 
0.0019697186213 0.0019972549396 0.002025381932 0.0020540474761 0.0020829947634 0.0021126696848 0.0021427939863 0.0021733254149 0.0022043297606 
0.0022358669219 0.0022680388015 0.0023008822658 0.0023343958337 0.0023685111323 0.002403198643 0.0024384169023 0.0024742069993 0.0025106533488 
0.0025478081993 0.002585709899 0.0026241892526 0.0026634767642 0.0027033720733 0.0027438583459 0.0019170645884 0.0019440130062 0.0019713166287 
0.0019991599397 0.0020273131969 0.0020562824 0.0020858431702 0.0021159400212 0.0021465057512 0.0021775071223 0.0022089631728 0.0022409795439 
0.0022736443366 0.0023070276506 0.0023411186095 0.0023758631644 0.0024111734135 0.0024470225758 0.002483440668 0.0025205286363 0.002558213016 
0.0025968530059 0.0026362751445 0.00267640185 0.002717153693 0.0027584921718 0.0019168000772 0.0019439431411 0.0019715600886 0.0019994291529 
0.0020280886763 0.0020573682453 0.0020872812029 0.0021177793827 0.0021487766316 0.0021802326352 0.0022121498266 0.0022446312665 0.0022777911245 
0.0023116927923 0.0023463484983 0.002381697099 0.0024176180984 0.0024541510843 0.0024910282184 0.0025287717 0.0025673002972 0.0026066811398 
0.0026468935404 0.0026878661917 0.0027294629884 0.0027716962746 0.0019174898511 0.001944992839 0.0019726999079 0.0020011022525 0.0020300748158 
0.002059686662 0.0020899810328 0.0021208963665 0.0021523556183 0.0021842994825 0.0022167270955 0.0022497275396 0.0022834086891 0.00231784152 
0.0023531383102 0.0023891153216 0.0024255281809 0.0024627146983 0.0025004930317 0.0025389562877 0.0025782283755 0.0026183835602 0.0026594301306 
0.002701274649 0.0027437950018 0.0027869817213 0.0019210306357 0.0019486758499 0.0019769781733 0.0020057643939 0.0020351331562 0.0020651543455 
0.0020958656021 0.0021272531314 0.0021592185848 0.002191693686 0.0022246966297 0.0022582956718 0.0022926437161 0.0023277112973 0.0023633910804 
0.0024000537925 0.0024374050876 0.0024753649249 0.0025139469879 0.0025532346051 0.0025933436237 0.002634360555 0.0026763062393 0.0027190829971 
0.002762637204 0.0028068883883 0.0019281442419 0.0019564186322 0.0019851708486 0.0020144335048 0.0020442838683 0.002074793343 0.0021059888724 
0.0021378910508 0.0021704380667 0.0022036174446 0.0022372936551 0.0022715763793 0.0023063361122 0.0023421136847 0.0023787379181 0.0024161620915 
0.0024543187581 0.0024931432041 0.0025326475348 0.0025728835523 0.0026139446544 0.0026559331794 0.0026988627508 0.0027427106874 0.0027873886203 
0.0028328348187 0.0019395679737 0.0019683262133 0.0019976088931 0.0020274102099 0.0020578336083 0.002088908815 0.0021207091813 0.0021533080466 
0.0021864862751 0.0022202918 0.0022544718275 0.0022895434084 0.0023253408571 0.0023619236938 0.0023993714849 0.0024376373456 0.0024766901408 
0.0025164859983 0.0025570165124 0.0025983107106 0.0026404623177 0.0026835560836 0.0027276079562 0.0027726353334 0.0028185451454 0.0028653047597 
0.0019549776163 0.001984295378 0.0020141781304 0.002044633961 0.0020757986947 0.0021075323395 0.0021400054302 0.0021731948817 0.0022071013503 
0.0022414337577 0.0022766908346 0.0023126285308 0.0023493097463 0.0023868053385 0.0024251672281 0.002464394398 0.002504455279 0.0025453166839 
0.002586960881 0.0026294296546 0.00267278574 0.0027170986151 0.0027624216566 0.0028087442696 0.0028560283788 0.0029042379826 0.0019741578696 
0.0020041034323 0.0020347524262 0.0020658922591 0.0020976683307 0.0021301594241 0.0021633815414 0.0021970797088 0.0022318053831 0.0022672479555 
0.0023033976796 0.0023402776272 0.0023779351982 0.0024164442536 0.0024558287555 0.0024961184939 0.0025372800755 0.0025793012512 0.0026221696523 
0.0026659113988 0.0027105827867 0.0027562394312 0.0028029525602 0.0028507217743 0.0028995050018 0.0029492809804 0.0019969265763 0.002027555394 
0.0020588113641 0.0020907031781 0.0021232791272 0.0021562894778 0.0021903416588 0.0022251857517 0.0022608032691 0.0022971727935 0.0023342954704 
0.0023721936646 0.0024109144388 0.0024505139765 0.0024910287264 0.0025324833474 0.0025748480537 0.0026181310463 0.0026623194224 0.0027074214545 
0.0027534976854 0.0028006444955 0.0028488814691 0.002898218233 0.0029486402581 0.0030001325872 0.00202286441 0.002054233839 0.0020862723172 
0.0021189869981 0.0021521143603 0.0021862989532 0.0022212752152 0.0022570617957 0.0022936442084 0.0023310145204 0.002369189239 0.0024081790802 
0.0024480468645 0.0024888338418 0.0025305813582 0.0025732935516 0.0026169718311 0.0026616045947 0.0027071895689 0.0027537645782 0.0028013907539 
0.0028501282214 0.0029000199349 0.0029510553821 0.0030032448182 0.0030565629249 0.002052055622 0.002084230887 0.0021168025194 0.0021503916913 
0.0021847416752 0.0022198940241 0.0022558741188 0.0022926794925 0.0023303055263 0.0023687606033 0.0024080493098 0.0024482246756 0.0024893283279 
0.0025314017329 0.0025744798114 0.0026185533212 0.002663632429 0.0027096967505 0.0027567884766 0.0028049404256 0.0028542389644 0.0029047370176 
0.0029564044006 0.0030092860299 0.0030633733201 0.0031186264388 0.002084296143 0.002117351193 0.002151116798 0.002185661395 0.0022210199635 
0.0022572326474 0.0022942959957 0.0023322060121 0.0023709568715 0.0024105519096 0.0024510500556 0.0024924855128 0.0025349299324 0.0025784071298 
0.0026229240756 0.0026684604812 0.0027150278903 0.0027626527341 0.0028113571239 0.0028612161264 0.0029123171613 0.0029646570889 0.0030182707427 
0.00307312184 0.003129222342 0.0031865712408 0.0021205346254 0.0021545010003 0.0021892388925 0.0022248048164 0.0022612678764 0.0022986269782 
0.0023368751083 0.0023759760962 0.0024159269146 0.0024567523381 0.0024985363442 0.0025413391266 0.0025852348494 0.0026302493641 0.0026763238684 
0.0027234428626 0.0027716082798 0.0028208624565 0.0028712970017 0.0029229959938 0.0029760295948 0.0030304260956 0.0030861291004 0.0031431094908 
0.0032013610057 0.0032609734386 0.0021608609207 0.0021958301988 0.0022316075445 0.0022682905474 0.0023059457194 0.0023445679173 0.0023841058029 
0.0024245031421 0.002465744164 0.0025078985991 0.0025510766965 0.0025953509517 0.0026408295103 0.0026874875523 0.0027352477784 0.0027840716868 
0.002833957755 0.0028849822816 0.0029372491111 0.0029909415077 0.0030461085091 0.0031027299197 0.0031607031579 0.0032199665237 0.0032805546773 
0.003342242373 0.0022058332005 0.0022418830586 0.0022787943311 0.0023166954184 0.0023556614679 0.0023956570659 0.0024366203997 0.0024784177756 
0.002521069686 0.0025646396867 0.0026092965604 0.0026551837856 0.0027023807989 0.0027508220569 0.0028004321938 0.002851120254 0.0029028604625 
0.0029557720908 0.0030100747706 0.0030659222636 0.003123381201 0.0031823851921 0.0032428020646 0.0033042437205 0.0033673225671 0.0034319275729 
0.0022559657734 0.0022932099431 0.0023313596522 0.0023706081915 0.0024109941161 0.002452482355 0.0024949540729 0.0025382774403 0.002582467078 
0.0026276168712 0.0026739005301 0.0027215382896 0.0027705842848 0.0028209741378 0.0028725711214 0.0029252456889 0.0029789856825 0.0030339909332 
0.00309047713 0.0031486582922 0.0032086022679 0.0032701899661 0.0033329669595 0.0033973747798 0.0034631828011 0.003530633717 0.0023114951018 
0.0023500718173 0.0023896044321 0.0024302914729 0.0024722077331 0.0025153202117 0.0025594228664 0.0026044235575 0.0026502722604 0.0026971122033 
0.002745187176 0.0027947040351 0.0028457375499 0.0028982114932 0.0029519290059 0.0030067629641 0.0030627370296 0.0031200078117 0.0031788746618 
0.0032395866468 0.0033018924129 0.0033662557257 0.0034321590391 0.0034994716505 0.0035682834424 0.0036388200168 0.0023720819413 0.0024121268408 
0.0024531635077 0.0024954141053 0.0025389652064 0.0025837406397 0.0026295891041 0.0026763685162 0.0027240249839 0.0027727222237 0.0028227434339 
0.0028742908368 0.0029274491948 0.002982092893 0.0030380921605 0.0030952687517 0.0031536374597 0.0032133748076 0.0032745520088 0.0033379523415 
0.003403365833 0.0034706372463 0.0035395580195 0.0036099988654 0.0036820239366 0.0037559284343 0.0024363542803 0.0024779510238 0.0025206193387 
0.0025645229714 0.0026097762591 0.0026563028164 0.0027039412313 0.0027525711289 0.002802179426 0.0028529065386 0.0029049988168 0.0029586796318 
0.0030139956357 0.0030709403997 0.0031292917908 0.0031889156325 0.0032498353034 0.0033119639191 0.0033761685807 0.0034424062304 0.0035107264152 
0.0035810186955 0.0036530830249 0.0037267924828 0.0038022585765 0.0038797589574 0.0025017699636 0.0025450119339 0.0025893722289 0.0026350100903 
0.0026819729321 0.0027302708496 0.0027797381842 0.002830267539 0.0028818763324 0.0029346832489 0.0029888870602 0.0030447546531 0.003102327175 
0.0031615515846 0.0032222862726 0.0032841378915 0.0033476932544 0.0034128582117 0.0034799169127 0.0035490468416 0.0036203248909 0.003693667929 
0.0037689064239 0.0038459732047 0.0039249815427 0.0040061993879 0.002564853902 0.0026097065216 0.002655756424 0.0027031053972 0.0027517978439 
0.0028018168665 0.0028530466914 0.0029054405208 0.0029590070539 0.0030138429132 0.0030702067407 0.0031282280276 0.0031879771392 0.0032494374755 
0.0033122240905 0.0033768152559 0.0034429925009 0.0035109225541 0.0035807996756 0.0036527995129 0.0037269930046 0.0038033104328 0.0038816657741 
0.0039620271363 0.0040445494231 0.0041294883434 0.0026215900074 0.0026680228696 0.0027156722861 0.0027646314168 0.0028149372024 0.0028665531282 
0.0029194374998 0.0029735686132 0.0030289381474 0.0030857463353 0.0031441027396 0.0032041517446 0.003265698215 0.0033292363793 0.0033944756648 
0.003461400117 0.0035300724526 0.0036006185373 0.0036731895699 0.0037479279853 0.0038248858744 0.0039040187576 0.0039853031274 0.0040687715113 
0.0041546185035 0.0042431676254 0.0026684476986 0.0027162647392 0.0027653485585 0.002815741429 0.0028674825688 0.0029205345643 0.0029748930565 
0.0030305161161 0.0030875575186 0.0031460757394 0.0032062060187 0.0032678162429 0.0033314542848 0.0033968812313 0.00346409808 0.003533134507 
0.0036040456445 0.0036769396769 0.0037519710211 0.0038292132699 0.0039086932332 0.0039903942102 0.0040743448521 0.0041607434289 0.0042495777139 
0.0043412173522 0.0021249194322 0.0021539370817 0.0021834724322 0.0022135252684 0.0022440743164 0.0022751137456 0.0023065849352 0.0023385707188 
0.0023707685429 0.0024037218279 0.0024372078018 0.0024712564081 0.0025059196866 0.0025412117841 0.0025771408684 0.0026136920102 0.0026508663597 
0.0026886869773 0.0027271426902 0.0027662521321 0.002806048289 0.0028465339634 0.0028876952041 0.0029295233601 0.002972045551 0.003015269389 
0.0021438068147 0.0021733297914 0.00220337267 0.0022339419164 0.00226499115 0.0022966338568 0.0023288053959 0.0023612383997 0.0023944293149 
0.0024281513283 0.0024624137111 0.0024972694713 0.0025327670517 0.0025689254643 0.0026057516307 0.002643239676 0.0026813709165 0.0027201490794 
0.0027595962323 0.0027997292612 0.0028405916428 0.0028821878351 0.0029245036108 0.0029675341865 0.003011290049 0.0030556441589 0.002157975387 
0.0021879567715 0.0022184657195 0.0022494472187 0.0022810660818 0.0023132582475 0.0023457770868 0.0023790955652 0.0024129736085 0.0024473827101 
0.0024823710706 0.0025179728804 0.0025542401198 0.0025912067067 0.0026288853266 0.0026672405537 0.0027062771561 0.0027459726623 0.0027863525274 
0.0028274601847 0.0028693268497 0.0029119684116 0.0029553886868 0.0029994325564 0.0030443578761 0.0030900051504 0.0021690058743 0.0021994224372 
0.0022303154965 0.0022618170569 0.0022936849061 0.0023263923994 0.0023597216323 0.0023936492364 0.0024281640084 0.0024632477339 0.0024989185469 
0.0025352345191 0.0025722434993 0.0026099876538 0.0026484692623 0.0026876714749 0.0027275824004 0.002768171348 0.0028094635106 0.0028515114672 
0.0028942257623 0.0029378722484 0.0029823707173 0.0030276731213 0.0030737464742 0.0031205679172 0.0021787178339 0.002209511896 0.0022409107447 
0.0022726595396 0.0023052520438 0.0023384900448 0.0023723791852 0.0024069136501 0.0024420540792 0.0024777976822 0.0025141554397 0.0025511811256 
0.0025889360061 0.0026274484807 0.0026667391807 0.0027067922616 0.0027475473238 0.0027890773901 0.0028311180617 0.0028741240137 0.0029179645752 
0.002962676845 0.0030082594173 0.0030546969415 0.0031019170434 0.0031499594335 0.0021887507167 0.0022200759078 0.0022517421696 0.0022842220662 
0.0023173344203 0.0023511133566 0.0023855904665 0.0024207390267 0.0024565380822 0.0024929806616 0.0025300537178 0.0025678242634 0.0026063453882 
0.0026456340284 0.0026858106198 0.0027267344939 0.0027682237398 0.0028106627314 0.002853862631 0.0028978686402 0.0029427529872 0.0029885474397 
0.0030352624834 0.0030828661312 0.0031313095534 0.0031806159226 0.0022005828736 0.0022322061341 0.0022646242059 0.0022976555924 0.0023313421704 
0.0023657233035 0.0024008167733 0.0024366374351 0.0024731382715 0.0025102909439 0.0025481352656 0.002586706 0.0026261102822 0.0026662696278 
0.0027070708003 0.0027489221741 0.002791583826 0.002835028737 0.002879274934 0.0029243620868 0.0029703564312 0.0030173008228 0.0030652080902 
0.003114051916 0.0031638189935 0.0032144761744 0.0022148278715 0.0022472270009 0.0022802393802 0.0023138849459 0.00234820958 0.0023832529888 
0.0024190224256 0.0024555493627 0.0024928158182 0.0025308543244 0.0025695375509 0.0026089720682 0.0026489821487 0.002690068065 0.0027320431415 
0.0027748931705 0.0028185908783 0.002863117395 0.0029084999031 0.0029547667014 0.0030019711505 0.0030501562767 0.0030993480486 0.0031495463908 
0.0032007190758 0.0032528468454 0.0022323756028 0.0022653936263 0.0022990651903 0.0023333770801 0.0023684188089 0.0024041822358 0.0024407241409 
0.002478131298 0.0025162050979 0.0025550311812 0.0025946272885 0.0026347684145 0.002675991575 0.0027180828474 0.0027611029184 0.0028050165266 
0.0028498365505 0.0028955436066 0.0029421582209 0.0029896954091 0.0030382191774 0.0030877701662 0.0031383593122 0.0031900178133 0.0032427009452 
0.0032964107547 0.0022531393704 0.002286847303 0.002321240137 0.0023563335548 0.0023922417315 0.0024288079262 0.0024661808029 0.0025043480117 
0.0025433165437 0.002582833587 0.0026234190737 0.0026648255572 0.002707105579 0.0027502968935 0.0027944293617 0.0028395160446 0.0028855529608 
0.0029325340571 0.0029804669879 0.0030293866576 0.0030793377613 0.0031303521799 0.0031824751029 0.0032357073413 0.0032900266853 0.0033454458059 
0.0022771557597 0.0023116175533 0.0023469016606 0.0023827993795 0.0024194489352 0.0024569051202 0.0024951755601 0.0025340019963 0.0025739492758 
0.0026147396754 0.0026563762907 0.0026988891248 0.0027423064453 0.0027866871735 0.0028320386308 0.0028783876895 0.0029257326675 0.0029740792249 
0.0030234418003 0.0030738437699 0.0031253299035 0.0031779284546 0.0032316886152 0.0032866220563 0.0033427172564 0.0033999709299 0.0023044448169 
0.0023397162207 0.0023757278204 0.0024125023673 0.002450077928 0.0024881861147 0.0025274306451 0.0025675512189 0.0026085449889 0.0026504196867 
0.0026931895774 0.0027368808178 0.0027815311694 0.0028271779509 0.0028738432532 0.0029215529709 0.0029703017104 0.0030201196426 0.0030710072014 
0.0031229976377 0.0031761078187 0.0032304240767 0.0032859532515 0.0033427199113 0.0034007051722 0.0034599489565 0.002334709293 0.0023708461568 
0.0024077677968 0.0024454922126 0.002483745251 0.002523155709 0.0025634579107 0.0026046647697 0.0026467814353 0.0026898156606 0.0027338056482 
0.0027787556284 0.0028247211955 0.0028717251046 0.0029198006529 0.0029689575081 0.0030192237667 0.0030706087652 0.0031231232272 0.003176793579 
0.0032316734387 0.0032878158049 0.0033452423733 0.0034039562215 0.0034639828034 0.0035253411039 0.0023680774333 0.0024051468664 0.0024427342756 
0.0024814604483 0.0025210613497 0.002561567562 0.0026030009816 0.0026453719691 0.0026886864392 0.0027329740854 0.002778246462 0.0028245502832 
0.0028719119099 0.0029203751854 0.0029699572806 0.0030206741521 0.0030725500143 0.0031255891066 0.0031798247641 0.0032353117788 0.0032920809591 
0.0033501964107 0.0034096454568 0.0034704511102 0.0035326704299 0.0035962561733 0.0024043254726 0.0024424017886 0.002481322195 0.0025211255031 
0.0025618541226 0.0026035370994 0.0026461839893 0.0026897949265 0.0027343928746 0.0027799963912 0.0028266531554 0.0028743836874 0.002923249146 
0.0029732716056 0.0030244677945 0.003076835307 0.0031304152918 0.0031852411842 0.0032413291351 0.003298732092 0.0033575319355 0.0034177136376 
0.00347932775 0.003542389098 0.0036068965048 0.0036728893191 0.0024442859043 0.0024834082158 0.0025234293567 0.00256439003 0.0026063256233 
0.0026492638917 0.0026932069917 0.0027381510799 0.0027841142076 0.0028311225871 0.0028792406926 0.0029285051829 0.0029789758267 0.0030306754934 
0.0030835914316 0.0031377340929 0.0031931335914 0.0032498236522 0.0033078744987 0.0033673375049 0.0034282731956 0.003490713132 0.0035546507354 
0.0036200959819 0.0036870624789 0.0037556171209 0.0024878586924 0.0025281179146 0.0025693139442 0.0026115048257 0.0026547386152 0.0026990265682 
0.0027443605053 0.0027907304601 0.0028381441211 0.0028866586409 0.0029363421102 0.0029872384618 0.0030394226129 0.0030929000403 0.003147649916 
0.0032036827717 0.0032610209773 0.0033197155603 0.0033798351763 0.0034415022311 0.0035047497558 0.0035695873925 0.003636030257 0.0037040255003 
0.0037736226668 0.0038445845526 0.002535306561 0.0025767774885 0.0026192328037 0.0026627448178 0.0027073703716 0.0027531029586 0.0027999280263 
0.0028478294564 0.0028968042883 0.0029469042509 0.0029982382715 0.0030508828074 0.0031048996618 0.0031602766008 0.003216994419 0.0032750608355 
0.0033344589142 0.0033952774175 0.0034576482843 0.003521657644 0.0035873632608 0.00365476499 0.0037238170982 0.0037942356693 0.0038666233888 
0.0039408128543 0.0025867703304 0.0026295386498 0.0026733379423 0.0027182703038 0.0027643924258 0.0028116659634 0.0028600777414 0.002909583801 
0.0029602186072 0.003012049565 0.0030651503205 0.0031196619785 0.0031756197587 0.003233019951 0.003291836635 0.0033520293465 0.0034136117567 
0.0034767285092 0.003541471952 0.0036079795424 0.0036763055416 0.0037464211217 0.0038180114378 0.003891600893 0.0039669788546 0.0040442912908 
0.0026421126807 0.0026862915523 0.0027315353269 0.0027779771378 0.0028256518447 0.0028745791366 0.0029246623142 0.0029759004523 0.0030282894639 
0.0030819169543 0.0031369152834 0.0031933893104 0.0032514006762 0.0033109431104 0.0033719498656 0.0034344150811 0.003498368482 0.0035639095323 
0.0036311770556 0.0037003391602 0.003771135962 0.0038441349574 0.0039189747538 0.0039956449365 0.004074230309 0.0041548516785 0.0027007780739 
0.0027464310235 0.0027932210772 0.002841246479 0.002890565064 0.0029411703307 0.0029930134118 0.0030460617677 0.0031003023263 0.003155837977 
0.0032128348766 0.0032713886085 0.0033315652219 0.0033933152407 0.0034566579455 0.0035215210915 0.003587953123 0.0036560471675 0.0037257149022 
0.0037976529608 0.0038716368477 0.0039476238375 0.0040255845129 0.0041054931446 0.0041874368728 0.0042715710769 0.0027615270118 0.0028087114092 
0.0028570969885 0.0029067572549 0.0029577744046 0.0030101295297 0.0030637653441 0.0031186666441 0.0031748555513 0.003232420182 0.0032914853389 
0.0033521823998 0.0034145438389 0.0034786230072 0.0035443446709 0.003611686341 0.0036806891875 0.0037511885497 0.0038239193953 0.0038987371445 
0.0039756901163 0.0040547767166 0.0041359501134 0.0042192111679 0.0043046552193 0.0043924535436 0.0028224142492 0.0028711826689 0.0029211961072 
0.0029725441467 0.0030252569672 0.0030793834463 0.0031348467421 0.0031916367532 0.0032497907409 0.0033093910737 0.0033705341534 0.0034334054617 
0.0034980338692 0.0035644256203 0.003632558045 0.0037021373664 0.0037737550428 0.0038472691171 0.0039228421663 0.0040005727149 0.0040805420851 
0.004162758293 0.0042471850792 0.0043338516356 0.0044228694193 0.0045144094915 0.0028810677528 0.0029313682569 0.0029829997425 0.0030360072044 
0.003090434898 0.0031462871158 0.0032035300745 0.0032621799678 0.003322262383 0.0033838429441 0.0034471060404 0.0035121208483 0.0035789494478 
0.0036476265931 0.0037178555708 0.0037901854398 0.0038644146162 0.0039406646973 0.0040190375307 0.0040996709908 0.0041826277476 0.0042679241706 
0.0043555717317 0.0044456160107 0.0045381805098 0.004633457041 0.0029348163567 0.0029866428565 0.0030398244052 0.0030944202524 0.0031504695562 
0.0032079575581 0.003266900865 0.0033273167756 0.0033892048875 0.0034527497961 0.0035180044969 0.0035850730142 0.0036537622041 0.0037246059212 
0.0037973695202 0.0038720925129 0.0039488516169 0.0040277186673 0.0041088271632 0.0041922678834 0.0042781138228 0.0043663881471 0.0044571370198 
0.0045504207488 0.0046464241648 0.0047454055165 0.0029814193195 0.003034626718 0.0030892429644 0.0031452980487 0.003202838262 0.0032618490471 
0.0033223629018 0.0033843619908 0.0034480046674 0.0035133230049 0.0035804267744 0.0036491459051 0.0037200586239 0.0037929352099 0.0038678336106 
0.0039448076287 0.0040239144884 0.0041052427771 0.00418891858 0.0042750159592 0.0043635949738 0.0044546734186 0.0045483469583 0.0046448202985 
0.0047440599212 0.0048463636883 0.0023568237266 0.0023888514707 0.0024214574254 0.0024546302059 0.0024883609479 0.0025226459031 0.0025574391386 
0.0025928348068 0.0026285330769 0.0026650665727 0.0027022037798 0.0027399700928 0.0027783938659 0.0028175006091 0.0028572993997 0.0028977920389 
0.0029389771302 0.0029808895112 0.0030235057381 0.0030668409355 0.0031109265752 0.0031557676926 0.0032013548202 0.003247696079 0.0032948093827 
0.0033427087351 0.0023814327951 0.0024141050313 0.0024473608715 0.0024812034138 0.0025156394399 0.002550620883 0.002586251752 0.0026222261276 
0.002659043747 0.0026964844772 0.0027345438985 0.0027732672219 0.0028126840235 0.0028528164876 0.0028936716197 0.0029352601553 0.0029775678451 
0.0030206216914 0.0030644210295 0.0031089779441 0.0031543252168 0.0032004720217 0.0032474130869 0.0032951518163 0.0033437086991 0.0033929591215 
0.0024027131028 0.00243599585 0.002469883424 0.0025043092248 0.0025394294128 0.0025751794472 0.0026113196842 0.0026483320012 0.0026859891827 
0.0027242848403 0.0027632435727 0.0028028935331 0.0028432637309 0.0028843845941 0.0029262803498 0.0029689227815 0.0030123353296 0.0030565105999 
0.0031014661371 0.0031472200221 0.0031938043381 0.0032412292597 0.0032894944244 0.0033384747453 0.0033884479224 0.0034392392171 0.0024217084271 
0.002455587318 0.0024900269541 0.0025251520613 0.0025607042989 0.0025971489501 0.0026342710488 0.0026720628058 0.002710532565 0.0027496820958 
0.0027895121406 0.0028300721948 0.0028713879159 0.0029134917867 0.0029563912196 0.0030000867398 0.0030445924625 0.0030898837801 0.0031359880549 
0.0031829340859 0.0032306135895 0.0032792897301 0.0033288876239 0.003379383749 0.0034307594555 0.0034830109242 0.0024396335588 0.0024740546276 
0.0025091714048 0.002544723472 0.0025811837083 0.0026183403135 0.0026562022869 0.0026947798031 0.0027340604863 0.0027740503937 0.002814765261 
0.0028562405575 0.0028985137953 0.0029415980097 0.0029855200424 0.0030302860531 0.0030758778066 0.00312232191 0.003169418323 0.0032175777169 
0.0032666492219 0.0033166488197 0.0033675961057 0.0034194871471 0.003472298248 0.0035260448057 0.0024576332155 0.0024927387975 0.0025282873794 
0.0025647395713 0.0026018955833 0.0026397773136 0.0026784078126 0.0027177828022 0.0027578995431 0.0027987719119 0.0028403953432 0.0028828144592 
0.0029260632356 0.0029701395627 0.003015114865 0.0030610198272 0.0031075498997 0.0031551624231 0.0032036491136 0.0032530661483 0.0033034332155 
0.0033547821565 0.0034071220853 0.0034604600941 0.0035147618071 0.0035700648453 0.0024768446798 0.0025123986868 0.0025488483411 0.0025860151591 
0.0026239087382 0.0026625637119 0.0027019963042 0.0027422102742 0.0027832143003 0.0028249677839 0.0028675518991 0.0029109603948 0.0029552924231 
0.0030004480032 0.0030463096632 0.0030933158064 0.0031412353489 0.0031900715315 0.003239842397 0.0032905732146 0.003342306849 0.0033950691435 
0.0034488770767 0.003503720613 0.0035596200455 0.0036165559693 0.0024977537084 0.0025342228408 0.0025714094147 0.0026093290977 0.0026480183857 
0.0026874998526 0.0027277665631 0.0027688706822 0.0028108063913 0.0028536272947 0.0028972137638 0.0029416668946 0.0029867936533 0.003033077701 
0.0030803244397 0.003128539536 0.0031777130434 0.0032278509376 0.003278969521 0.0033311076212 0.0033842909179 0.0034385475251 0.003493917364 
0.0035503717392 0.0036079445518 0.0036666201242 0.0025212572768 0.0025584811195 0.0025964583413 0.0026351820105 0.0026747268021 0.0027150799577 
0.0027562808566 0.002798435543 0.0028413453147 0.0028851139853 0.0029297789981 0.0029751088909 0.0030216204276 0.0030691068129 0.0031175892593 
0.0031670887904 0.0032175927225 0.003269118583 0.0033216799595 0.0033753163346 0.0034300417522 0.0034859102312 0.0035429180847 0.0036011053046 
0.0036604543754 0.0037209798788 0.0025473834535 0.0025854234272 0.0026242491515 0.0026638799257 0.0027043331514 0.0027457251587 0.0027879084762 
0.00283097705 0.0028749393516 0.002919568168 0.0029653794697 0.0030121411324 0.0030598878089 0.0031086459576 0.0031584509674 0.0032093075576 
0.0032612310963 0.0033142297352 0.003368327418 0.0034235498798 0.0034799382975 0.0035375090375 0.0035962941639 0.0036563124535 0.0037175575929 
0.0037800528844 0.0025762985426 0.0026152148701 0.0026550598754 0.0026956246654 0.0027370414012 0.0027793602179 0.0028225802001 0.0028664628496 
0.0029115589288 0.0029576174314 0.0030046426669 0.0030526690444 0.0031017212877 0.003151849807 0.0032030549349 0.0032553684802 0.0033088052957 
0.0033633670245 0.0034191003072 0.0034760158785 0.0035341599641 0.0035935439574 0.0036542130511 0.0037161851855 0.0037794599465 0.0038440585874 
0.0026081444209 0.0026479890477 0.0026886844123 0.0027302494188 0.0027727162866 0.0028158246503 0.0028601640339 0.0029054769744 0.0029517723738 
0.0029990667069 0.0030473887993 0.0030967517386 0.0031472047531 0.0031987717612 0.0032514739478 0.0033053381927 0.003360367608 0.0034166085716 
0.0034740709047 0.0035327946053 0.0035927955512 0.0036541091492 0.0037167856837 0.0037808397962 0.0038462672911 0.0039131138741 0.0026426976829 
0.002683532479 0.0027252501003 0.0027678941553 0.0028111659575 0.002855707447 0.0029012329012 0.0029477730221 0.0029953411735 0.0030439534271 
0.0030936464731 0.0031444347147 0.0031963671545 0.0032494604359 0.0033037504354 0.0033592555144 0.0034159959728 0.0034740038199 0.0035333092896 
0.0035939230371 0.0036558964348 0.0037192814685 0.0037840858526 0.0038503429621 0.0039180613213 0.0039872988145 0.0026801209076 0.0027220020072 
0.0027645105607 0.0028082733715 0.0028530189769 0.0028987760545 0.0029455684848 0.0029934151755 0.0030423255604 0.0030923395641 0.0031434801025 
0.0031957841725 0.0032492736741 0.0033039937047 0.0033599610187 0.0034172069939 0.00347575976 0.0035356381115 0.003596866134 0.0036595107445 
0.0037235846682 0.0037891693077 0.0038562370918 0.0039248257472 0.0039950091204 0.0040667470243 0.0027201569191 0.0027631631492 0.0028071264199 
0.0028520837021 0.0028980754586 0.0029451291182 0.0029932583576 0.0030424805036 0.0030928210095 0.0031443113766 0.0031969920183 0.0032508800722 
0.0033060261023 0.003362468317 0.0034202264672 0.0034793158478 0.0035397568686 0.0036016281041 0.0036649226073 0.003729694718 0.0037960135469 
0.0038638790168 0.0039333460012 0.0040044393345 0.0040771758351 0.00415159872 0.002763555587 0.0028077293826 0.0028529073821 0.002899137797 
0.0029464470227 0.0029948712843 0.0030444123602 0.003095097386 0.0031469489964 0.0031999962314 0.0032542936429 0.0033098705961 0.003366777361 
0.0034250484593 0.0034846852252 0.0035457179422 0.003608186712 0.0036721256661 0.003737594679 0.0038046392714 0.0038733023276 0.0039436261258 
0.0040156499323 0.0040893568295 0.0041648262792 0.0042420913415 0.0028100855969 0.0028555011232 0.002901967832 0.0029495368208 0.0029982462083 
0.0030481153384 0.0030991597537 0.0031513947222 0.0032048339854 0.0032595358696 0.0033155508655 0.0033729067402 0.003431666153 0.0034918532011 
0.0035534762189 0.0036165718943 0.0036811684696 0.0037473161362 0.0038150852605 0.0038844970391 0.0039556649253 0.0040285942903 0.0041033237425 
0.0041798376331 0.0042581939187 0.0043381405959 0.0028598103033 0.0029065367908 0.00295436703 0.0030033567974 0.0030535416069 0.0031049425292 
0.0031575683271 0.0032114506895 0.0032665783859 0.0033230074338 0.0033808080833 0.0034400407108 0.0035007599402 0.0035629751008 0.0036267028345 
0.0036919895732 0.0037588269764 0.0038272876944 0.0038974719264 0.0039694352176 0.0040432369954 0.0041189095747 0.0041964521454 0.0042756195385 
0.0043570146087 0.0044404442026 0.0029126628333 0.0029607712445 0.003010036973 0.0030605200561 0.0031122781064 0.003165290165 0.0032195860055 
0.003275162053 0.0033320596269 0.0033903193612 0.0034500310488 0.0035112451566 0.0035740122993 0.0036383651921 0.0037043057401 0.0037718528782 
0.0038410368201 0.0039119680855 0.0039846988909 0.0040593199507 0.0041359080296 0.0042144487285 0.0042947079793 0.0043772489059 0.0044618647163 
0.0045486440312 0.0029683381542 0.0030179203776 0.0030686937764 0.0031207459423 0.0031741121149 0.0032288326355 0.0032848651661 0.0033422466886 
0.0034009832799 0.0034611551804 0.0035228405756 0.0035861139054 0.0036510234638 0.0037176000583 0.0037858392793 0.0038557786127 0.0039274593734 