# vtk DataFile Version 5.1
vtk output
ASCII
DATASET STRUCTURED_POINTS
DIMENSIONS 26 26 26
SPACING 0.08 0.08 0.08
ORIGIN -1 -1 0.5
POINT_DATA 17576
FIELD FieldData 1
potential 1 17576 double
0.001353209086 0.0013695842214 0.0013862432879 0.0014031870249 0.0014204045815 0.0014378846381 0.0014555330707 0.0014734796207 0.0014915941273 
0.0015100065983 0.0015287025601 0.0015477279035 0.0015671313694 0.0015869172924 0.0016070865511 0.0016276298641 0.0016484181292 0.0016697807825 
0.0016914394915 0.0017135084492 0.001736027515 0.0017589820407 0.0017823883377 0.0018062213335 0.0018305007194 0.0018552379502 0.0013555114747 
0.0013719452486 0.0013886453907 0.0014056242375 0.001422815823 0.001440388726 0.0014582461124 0.0014763107251 0.001494668685 0.001513271889 
0.0015321527809 0.0015513626203 0.0015709570626 0.0015909525342 0.0016113543463 0.0016321366642 0.0016532646454 0.0016747564116 0.0016966342276 
0.0017189320129 0.001741682083 0.0017649262201 0.0017886350258 0.0018127914879 0.0018373894691 0.0018624373549 0.0013528489702 0.0013692940346 
0.0013859883263 0.0014028642903 0.0014201451953 0.0014377523791 0.0014556327949 0.0014738508909 0.0014923304455 0.0015110456181 0.0015300351881 
0.0015493527129 0.0015690578227 0.0015891953331 0.0016097676124 0.0016307078688 0.0016520165481 0.001673662137 0.0016956774742 0.0017181070216 
0.001741034255 0.0017644722961 0.0017884136738 0.0018128086664 0.0018376352889 0.0018628931334 0.0013469878448 0.0013634182848 0.0013799871677 
0.0013969171702 0.0014141227458 0.001431729285 0.0014496930075 0.0014679738345 0.0014865233963 0.0015053118942 0.0015243627905 0.0015437343052 
0.0015635124469 0.0015837546977 0.0016044282537 0.0016254993588 0.0016469273995 0.0016686835178 0.0016907729755 0.0017133158421 0.0017363570854 
0.0017599334379 0.0017840381422 0.0018086180041 0.0018336254116 0.001859047348 0.001339900177 0.0013562208846 0.0013728534751 0.0013897049083 
0.0014069287866 0.0014245267848 0.0014425041453 0.0014608232721 0.0014794242131 0.001498272694 0.0015173612559 0.0015367877896 0.0015566472976 
0.0015769343513 0.0015976931181 0.0016188650132 0.0016403948128 0.0016622337824 0.0016844386242 0.0017070650124 0.0017301974039 0.0017538912907 
0.0017781337797 0.0018028765867 0.0018280421164 0.0018536174701 0.0013332379247 0.0013496553641 0.0013662466804 0.0013831385753 0.0014003560396 
0.0014179499339 0.0014359476606 0.0014543047695 0.0014729630232 0.0014918791256 0.001511037783 0.0015305638038 0.0015504521092 0.0015708095779 
0.0015916463197 0.0016129277471 0.0016345828553 0.0016565315325 0.0016788495169 0.0017015819585 0.0017248268003 0.0017486368133 0.0017730242802 
0.0017979246478 0.0018232591743 0.0018490100229 0.0013284495399 0.0013448554672 0.0013615290846 0.0013784576711 0.001395711637 0.001413337623 
0.0014313711857 0.0014497877259 0.0014685208897 0.0014876099037 0.0015068237997 0.0015264210225 0.0015464130334 0.0015668716293 0.0015878192651 
0.0016092139631 0.0016309701475 0.0016530928817 0.0016755668636 0.0016984544037 0.001721850367 0.0017458153567 0.0017703641879 0.0017954360213 
0.0018209763728 0.0018469458812 0.0013260928827 0.0013426032041 0.0013593542054 0.0013763662488 0.0013937015963 0.0014114093124 0.0014295133219 
0.0014480046742 0.0014669283981 0.0014860052319 0.0015054273094 0.0015251748081 0.001545324515 0.0015659106497 0.0015869945426 0.001608502943 
0.0016304493799 0.0016527601894 0.0016754418736 0.0016985489654 0.0017221516931 0.0017463149848 0.0017710557355 0.0017963448663 0.0018221271244 
0.0018483689338 0.0013264682443 0.0013430709178 0.0013599388101 0.0013770794862 0.0013945459338 0.001412370447 0.0014305942414 0.0014493154779 
0.0014682631802 0.001487501855 0.0015071183508 0.0015270637374 0.0015474010433 0.0015681712297 0.0015894018996 0.0016111201412 0.0016332651637 
0.0016558043908 0.0016787478249 0.0017021232424 0.0017259889885 0.0017504123549 0.0017753989187 0.0018009512072 0.001827017013 0.0018535757347 
0.0013294439658 0.0013461803086 0.0013632018777 0.0013805149718 0.0013981511078 0.0014161401872 0.0014346296395 0.0014533758469 0.0014724709402 
0.0014919681529 0.0015117929361 0.0015319674461 0.0015525415075 0.0015735462696 0.0015949950666 0.0016169450293 0.0016393333914 0.0016621495238 
0.0016853873702 0.0017090731732 0.0017332548592 0.0017579815911 0.0017832799616 0.0018091447109 0.0018355510502 0.0018624803249 0.0013348324684 
0.0013517360199 0.0013689415537 0.0013864456969 0.0014042755333 0.0014225816079 0.0014411408573 0.0014600839451 0.0014794350835 0.0014991480679 
0.0015192187406 0.0015396567509 0.0015604944913 0.0015817495187 0.0016035018864 0.0016257233985 0.0016484025732 0.0016715322643 0.0016951029401 
0.0017191383858 0.0017436798329 0.0017687594048 0.0017944187579 0.0018206567213 0.0018474519085 0.0018747938953 0.0013424157499 0.0013595131274 
0.0013769211821 0.0013946449709 0.0014128191124 0.0014312403541 0.0014500226479 0.0014692345345 0.0014888339569 0.0015088079379 0.0015291570201 
0.001549889589 0.0015709934792 0.0015925947881 0.001614656569 0.0016372030156 0.0016602151746 0.0016836919211 0.0017076316788 0.0017320492166 
0.0017569778628 0.001782470522 0.001808541524 0.0018351993898 0.0018624348023 0.0018902452835 0.0013520282675 0.001369344456 0.0013869873547 
0.0014050698462 0.0014234088449 0.0014420566748 0.0014611457257 0.0014806344764 0.0015005134955 0.0015207775943 0.0015414369075 0.0015624819622 
0.001583932319 0.0016058738362 0.001628298652 0.001651204609 0.0016745873893 0.0016984443973 0.0017227795628 0.0017476167617 0.0017729881973 
0.0017989279913 0.0018254604642 0.0018525880339 0.0018803070469 0.0019086182639 0.0013636223106 0.0013811855946 0.0013992129759 0.0014174586449 
0.0014360440858 0.0014550253133 0.0014744263323 0.0014942247267 0.0015144165495 0.0015350049146 0.0015559901819 0.0015773531165 0.0015992116663 
0.001621545528 0.0016443681858 0.0016676678495 0.0016914537598 0.0017157200948 0.0017404897509 0.001765779634 0.0017916357835 0.0018180833328 
0.0018451225229 0.0018727611359 0.0019010111621 0.0019298593253 0.0013772615129 0.0013952120214 0.0014133912905 0.0014319097099 0.0014508359843 
0.0014701800195 0.0014899268896 0.0015100705222 0.0015306064889 0.0015515375096 0.0015728431635 0.0015946273737 0.0016169054642 0.0016396739126 
0.0016629299883 0.0016866652418 0.0017108850381 0.001735599592 0.0017608361859 0.0017866254685 0.0018130134689 0.0018399948691 0.0018675979876 
0.0018958021222 0.0019246155356 0.0019540616449 0.0013931944821 0.0014113253774 0.0014298173096 0.0014486578916 0.0014679619888 0.0014876871967 
0.0015078227732 0.0015283466004 0.0015492551504 0.0015705625625 0.0015922498608 0.0016144668171 0.001637202109 0.0016604511327 0.0016841889773 
0.0017084031001 0.0017330925379 0.0017582847952 0.0017840226299 0.0018103567879 0.0018373116902 0.0018649177496 0.001893136689 0.0019219527549 
0.0019513697259 0.0019814662203 0.0014114554422 0.001429914894 0.0014487057347 0.001467958868 0.0014876668573 0.0015078231473 0.0015283929154 
0.0015493407858 0.0015706565183 0.001592325522 0.0016144815178 0.0016371688851 0.0016604110545 0.0016841884858 0.0017084589198 0.0017331952443 
0.0017583972885 0.0017841072717 0.0018103669246 0.0018372999798 0.0018649158118 0.0018931954546 0.0019220903062 0.0019515680986 0.0019816683425 
0.0020123542566 0.0014324837239 0.0014512687383 0.0014704761312 0.0014901411119 0.0015103037039 0.0015309375885 0.0015519956152 0.0015734098878 
0.0015951279621 0.001617281235 0.0016399115616 0.0016631159972 0.0016869154664 0.0017112742614 0.0017361401148 0.0017614565316 0.0017872177929 
0.0018134647799 0.0018403493653 0.0018679354897 0.0018962556729 0.0019252661552 0.0019549005522 0.0019850695421 0.0020158757793 0.0020473403793 
0.0014565871397 0.0014757841837 0.0014954141305 0.0015155443017 0.0015362067568 0.0015573688309 0.0015789554639 0.0016008877751 0.001623101168 
0.0016457555824 0.0016689197582 0.0016926919892 0.0017170994508 0.0017421015472 0.0017676127364 0.0017935601723 0.0018199113458 0.0018468087633 
0.0018743539771 0.0019026550173 0.001931742791 0.0019615556079 0.0019919630408 0.0020229603537 0.0020545554663 0.0020868614997 0.0014838745397 
0.0015035738793 0.0015236896795 0.0015443314414 0.0015655371552 0.0015872772707 0.0016094393032 0.0016318866101 0.0016547179573 0.0016779297194 
0.0017016790661 0.0017260677907 0.0017511368705 0.0017768286577 0.0018030079197 0.0018296481513 0.0018567225403 0.0018843186565 0.0019125931947 
0.0019416763884 0.0019715323417 0.002002228151 0.0020335358659 0.0020654054323 0.0020979053535 0.0021310877874 0.0015141812164 0.0015344160197 
0.0015550750585 0.0015762779476 0.0015980702847 0.001620403386 0.0016431729872 0.0016662462879 0.0016896978472 0.0017135383863 0.0017379386611 
0.0017630020001 0.0017887726652 0.001815149365 0.0018421045322 0.0018695023795 0.0018973403439 0.0019257113554 0.0019547412437 0.0019846601546 
0.0020154687873 0.0020470367883 0.0020792665757 0.002112098459 0.0021455355371 0.0021797132365 0.0015466304491 0.0015674442446 0.0015887069643 
0.0016105111293 0.0016329133505 0.0016558580076 0.0016792107181 0.0017029848534 0.0017271101089 0.0017516427582 0.0017767433247 0.0018025199506 
0.0018289660432 0.0018561284856 0.0018838458677 0.0019120347458 0.0019406947369 0.0019698643246 0.0019998159997 0.002030637867 0.0020623175149 
0.0020948046577 0.0021279984467 0.0021618061765 0.0021962593342 0.0022315076779 0.001579657662 0.0016010900183 0.0016229824636 0.0016454212037 
0.0016684315203 0.0016919415592 0.0017159784003 0.0017404070903 0.0017652145142 0.0017904706535 0.0018162496599 0.001842754569 0.0018699714723 
0.0018978622645 0.001926339925 0.0019552735829 0.00198477941 0.0020148875383 0.0020457592164 0.0020774554664 0.002110025183 0.0021434324737 
0.0021775450247 0.0022123444093 0.0022478449146 0.0022840363738 0.0016110969738 0.0016331437576 0.001655661219 0.0016787194637 0.0017023290492 
0.0017264257245 0.0017510553042 0.001776111332 0.0018015795239 0.0018274810667 0.0018540213685 0.0018812304628 0.0019091365356 0.0019377224261 
0.0019668635279 0.0019966210149 0.0020269518207 0.002057948917 0.0020896758748 0.0021222371142 0.002155674208 0.0021899144547 0.002224910276 
0.0022605037444 0.0022970085121 0.0023344202628 0.0016384865732 0.0016611005626 0.0016841980222 0.0017078144059 0.0017319172162 0.0017566019861 
0.0017817648076 0.0018073812664 0.0018333837747 0.0018599734069 0.0018871540722 0.0019149947713 0.0019434732375 0.0019726747757 0.0020025127344 
0.002032961827 0.0020640648656 0.0020958353955 0.0021283653614 0.0021617296575 0.0021959245457 0.002230923327 0.0022665593134 0.0023031234493 
0.0023405199781 0.0023788864756 0.0016596080513 0.001682703127 0.0017062855261 0.0017303916769 0.0017549539097 0.0017800809431 0.0018056865813 
0.0018316887309 0.0018582479183 0.0018853509449 0.0019130575336 0.0019413739246 0.0019704174274 0.0020001367029 0.00203050961 0.0020615614688 
0.0020932681508 0.0021256984311 0.0021589226695 0.0021929530126 0.0022277980324 0.0022632994264 0.0022997091883 0.0023369395671 0.0023750626946 
0.0024142832406 0.0015150334248 0.0015332602175 0.0015518045096 0.0015706676524 0.0015898346339 0.0016093030311 0.0016289925033 0.0016490419031 
0.0016693308317 0.0016899808908 0.0017109672212 0.0017323143118 0.0017540608491 0.0017762152034 0.001798786436 0.0018217786654 0.0018450772037 
0.0018690084718 0.0018932872508 0.0019180196355 0.0019432370656 0.0019689337493 0.001995132851 0.0020218258471 0.0020490337256 0.0020767699763 
0.001521211282 0.0015395760436 0.0015582528735 0.0015772462946 0.0015964834958 0.0016161270934 0.0016360919813 0.0016563182606 0.0016769041429 
0.0016978116543 0.0017190537714 0.0017406666365 0.0017626869321 0.0017851276744 0.001808001166 0.0018313075659 0.0018550208976 0.0018791722712 
0.0019037722917 0.0019288384432 0.0019543886531 0.0019804659036 0.0020070527116 0.0020341523439 0.0020617747478 0.0020899257935 0.0015238102213 
0.0015422754936 0.0015610501503 0.001580052417 0.0015994857388 0.0016192618007 0.0016393342515 0.0016597883413 0.0016805737756 0.0017016780583 
0.00172312743 0.0017449562311 0.0017671908239 0.0017898700173 0.0018130069563 0.0018365591288 0.0018605529542 0.0018849714558 0.0019098366742 
0.0019351641243 0.00196102114 0.0019874042605 0.0020143254153 0.0020417752899 0.0020697454139 0.0020982428253 0.001523952786 0.0015424975975 
0.0015612588831 0.0015804274848 0.0015999003496 0.0016197815021 0.001640031095 0.0016606332964 0.0016815785169 0.0017028517497 0.0017244753218 
0.0017464731982 0.0017689017191 0.0017917977395 0.0018151380429 0.0018389169487 0.0018631452989 0.0018877978885 0.0019128741301 0.001938460879 
0.001964578738 0.0019912289614 0.0020184407748 0.0020461938807 0.0020744757068 0.0021032866211 0.0015229306255 0.0015414552607 0.0015603771212 
0.0015795792275 0.0015991820249 0.0016191644055 0.0016395266227 0.0016602615989 0.0016813467949 0.0017027748957 0.0017245549976 0.0017467152179 
0.0017693458172 0.0017924044312 0.0018159414928 0.0018399322424 0.0018643656132 0.001889242588 0.0019145485118 0.0019403631323 0.0019667100512 
0.0019936232252 0.0020211043274 0.0020491476281 0.0020777212603 0.0021068353178 0.0015218517265 0.0015405541833 0.0015595190689 0.0015788578599 
0.0015985547105 0.0016186338745 0.0016391145448 0.0016599781717 0.0016812092122 0.0017028004127 0.0017247312791 0.0017471069913 0.0017698798925 
0.001793121641 0.0018168475393 0.0018410555607 0.0018657212367 0.0018907972892 0.0019163542387 0.0019424016783 0.0019689983998 0.0019961676505 
0.0020239254697 0.0020522542506 0.0020811271143 0.002110551435 0.0015218645747 0.0015406259402 0.0015597426631 0.0015791928697 0.0015990068511 
0.0016192070586 0.0016398158167 0.0016608307304 0.001682223561 0.0017040631662 0.0017261319278 0.0017486632602 0.0017716344196 0.0017950819481 
0.0018190260868 0.0018434537671 0.0018683206069 0.0018936669674 0.0019194810863 0.0019457930035 0.0019726543499 0.0020001030733 0.0020281503752 
0.0020567821915 0.0020859819255 0.0021157405438 0.0015234533527 0.0015423823597 0.0015616357714 0.0015812235049 0.0016011836096 0.0016215401464 
0.0016423053815 0.0016634808016 0.0016851432636 0.0017071002914 0.0017293847961 0.0017521352398 0.0017753398608 0.0017990055318 0.0018231840746 
0.0018478282594 0.0018729799233 0.0018985990181 0.0019246989722 0.00195131525 0.001978484475 0.0020062441567 0.0020346101064 0.002063576765 
0.0020931314634 0.0021232660163 0.0015270242008 0.0015461012869 0.0015655199682 0.0015852818354 0.0016054264537 0.0016259607853 0.0016469164084 
0.0016684004966 0.0016901607651 0.0017122861209 0.0017348676644 0.0017578816763 0.0017813361015 0.0018052626823 0.0018296790526 0.001854622876 
0.0018800639203 0.0019059881591 0.0019324204146 0.0019593768489 0.001986893337 0.0020150049894 0.0020437293421 0.0020730706843 0.0021030139765 
0.0021335618465 0.0015326178602 0.0015518798552 0.0015714950376 0.001591472563 0.0016118283633 0.0016325805113 0.0016538631177 0.0016754406072 
0.0016974138758 0.0017198578839 0.0017427114005 0.0017659920103 0.0017897410116 0.001813968722 0.0018386780327 0.0018639351133 0.0018896974139 
0.0019159713358 0.0019427646294 0.0019700969553 0.0019980023163 0.0020265076464 0.0020556371608 0.0020853949532 0.0021157722951 0.0021467779712 
0.0015402273265 0.0015597033928 0.0015795458208 0.0015997526739 0.0016203446745 0.0016414582668 0.0016628651614 0.0016846953285 0.0017069819239 
0.0017297001973 0.0017528510933 0.0017764477995 0.0018005095775 0.0018250458962 0.0018501280115 0.0018757277434 0.0019018540331 0.001928510087 
0.0019557004832 0.0019834458609 0.0020117797819 0.0020407171164 0.0020702919488 0.0021005107766 0.002131371249 0.0021628764036 0.001549777943 
0.0015694931933 0.0015895777673 0.0016100443549 0.0016310206588 0.0016522907034 0.0016739720074 0.0016961218142 0.0017187106892 0.0017417415099 
0.0017652217382 0.0017891612031 0.0018135421332 0.0018384801766 0.001863931287 0.0018899218254 0.0019164466175 0.001943516986 0.0019711394149 
0.001999334154 0.0020281234176 0.0020575443377 0.0020876090248 0.0021183351466 0.002149714575 0.0021817735261 0.0015611937825 0.0015811706632 
0.0016015328465 0.0016223983579 0.0016435778495 0.001665115823 0.0016871435055 0.0017096172107 0.001732538471 0.0017559106321 0.0017797541581 
0.0018040660368 0.0018288346548 0.001854163399 0.0018800317116 0.0019064404009 0.001933400594 0.0019609196844 0.0019890084127 0.0020176855151 
0.0020469781532 0.0020769168754 0.0021075163064 0.0021387850504 0.0021707348087 0.0022033842447 0.0015744636567 0.0015947301276 0.0016155207461 
0.001636588962 0.0016580524775 0.0016799613474 0.001702337805 0.0017251662861 0.0017484495853 0.0017722002591 0.0017964270626 0.0018210938063 
0.0018463240106 0.0018720949016 0.0018984110145 0.0019252749983 0.0019527028451 0.0019806998493 0.0020092868503 0.0020384871776 0.0020683248148 
0.0020988278084 0.0021300038843 0.0021618589736 0.0021944266736 0.0022276981505 0.0015896428164 0.0016103387631 0.0016313279354 0.0016527054877 
0.0016745427554 0.001696844497 0.0017196031383 0.0017428164062 0.001766493329 0.0017906435989 0.001815241217 0.0018403886934 0.0018660760296 
0.0018923206507 0.0019191185679 0.001946471061 0.0019743983986 0.0020029135382 0.0020320398481 0.0020617960811 0.0020922264432 0.0021233206778 
0.0021551203295 0.0021876200345 0.0022208328994 0.0022547950893 0.0016069126199 0.0016278349514 0.0016491782621 0.0016709201779 0.0016931589439 
0.001715866698 0.0017390397249 0.0017626736692 0.00178677475 0.0018113574786 0.0018363910298 0.0018620120432 0.001888201476 0.0019149561538 
0.0019422751198 0.0019701600361 0.0019986243379 0.0020276889848 0.0020573849712 0.0020877454273 0.0021187891331 0.0021505549447 0.0021830260572 
0.0022162081689 0.002250114806 0.0022848178406 0.0016261907638 0.0016474868685 0.0016691743221 0.0016913595451 0.0017140260564 0.0017371769868 
0.0017608024532 0.0017848930816 0.0018094503573 0.0018344514175 0.0018600064159 0.0018861407626 0.0019128629201 0.00194017025 0.0019680522449 
0.0019965078214 0.0020255486539 0.0020552024441 0.002085488826 0.0021164999287 0.0021482411794 0.0021807103449 0.002213909182 0.0022478234671 
0.002282495906 0.0023178813125 0.0016477345684 0.0016693999273 0.0016915427769 0.001714166305 0.0017372981138 0.001760929775 0.001785047263 
0.0018096323357 0.0018346353432 0.0018601739833 0.0018862544536 0.0019129372413 0.0019402331899 0.0019681357565 0.0019966272662 0.0020257015149 
0.0020553592303 0.0020856203033 0.0021165909258 0.0021482973657 0.0021807662395 0.0022139920663 0.0022479551483 0.00228261689 0.0023180632893 
0.0023543301885 0.0016716218549 0.0016937282083 0.0017163234882 0.0017394263946 0.0017630621081 0.0017872131218 0.0018118593854 0.0018369721004 
0.0018624995939 0.0018885914424 0.0019152335587 0.0019425053558 0.001970414082 0.0019989534687 0.0020280995513 0.0020578283458 0.0020881216174 
0.0021190894101 0.0021507654609 0.0021832152623 0.0022164621376 0.0022504931152 0.0022852523731 0.0023207802379 0.0023570945605 0.00239425651 
0.001697731524 0.0017203547532 0.0017434427936 0.001767062287 0.001791227117 0.0018159383214 0.0018411461213 0.0018667675615 0.001892926516 
0.001919587416 0.0019468432707 0.0019747362007 0.0020032998951 0.0020325142667 0.0020623179345 0.0020927490875 0.0021237865946 0.002155484082 
0.0021879128916 0.0022211540553 0.0022551667456 0.0022900735844 0.0023257305084 0.0023621524816 0.0023994049971 0.0024374863469 0.001725765997 
0.0017489040164 0.0017725285038 0.0017966920041 0.0018214191508 0.0018466995802 0.0018724891496 0.0018987186253 0.0019254855171 0.0019527671649 
0.0019806647644 0.0020092212066 0.0020384675766 0.0020683447835 0.002098904529 0.0021300758601 0.0021618722704 0.0021943398089 0.0022275190863 
0.0022615875219 0.0022965369857 0.0023322974859 0.0023688650691 0.0024062389982 0.0024444333843 0.0024835133925 0.0017549299664 0.001778607268 
0.0018027901788 0.0018275173821 0.0018528237482 0.0018786860463 0.0019050290078 0.0019319272935 0.001959331795 0.001987268727 0.0020158301022 
0.0020450679297 0.0020749650228 0.0021056016195 0.0021368964778 0.0021688270839 0.0022014079158 0.0022346328031 0.0022686998807 0.0023036400921 
0.0023394371181 0.0023760975959 0.0024136041507 0.0024519300969 0.0024911038432 0.0025312184456 0.0017840297865 0.001808264129 0.0018330135199 
0.0018583219162 0.0018842002458 0.001910599312 0.0019375953411 0.0019651108039 0.0019931438177 0.002021745491 0.0020509301752 0.0020808520709 
0.0021114881191 0.0021428296746 0.0021748565669 0.002207491356 0.002240859444 0.0022749599648 0.0023098877637 0.0023456580232 0.0023823191389 
0.0024198816579 0.0024582847174 0.002497562714 0.0025377309293 0.002578728324 0.0018115798632 0.0018363564782 0.0018616616723 0.0018875310931 
0.0019139704823 0.0019409285236 0.0019684958164 0.001996603289 0.0020252467884 0.0020544301781 0.002084315324 0.0021148958886 0.0021461924571 
0.0021782138017 0.0022108836596 0.0022443025465 0.002278438018 0.0023133572646 0.0023490749365 0.0023856679783 0.0024231732086 0.0024615602992 
0.0025008354285 0.0025410234582 0.0025819986905 0.0026241481879 0.0018359530325 0.001861234573 0.0018870592831 0.0019134401671 0.0019403443741 
0.0019678774636 0.001995969006 0.0020246155784 0.0020537568154 0.0020835829792 0.0021140650111 0.0021452460598 0.0021771023959 0.0022097389223 
0.0022431001881 0.002277190181 0.0023120599974 0.0023476954015 0.0023841716982 0.0024215376989 0.0024597971526 0.0024989563084 0.0025390231803 
0.0025798960525 0.0026218851442 0.0026649531312 0.0018557273092 0.0018814519283 0.0019077229946 0.0019345682081 0.0019619223076 0.0019899046025 
0.0020184505144 0.0020474909595 0.0020771894095 0.0021075163196 0.0021385145337 0.0021701676414 0.0022026057295 0.002235781901 0.0022697033414 
0.0023044092478 0.0023398758734 0.0023761601115 0.0024133061154 0.0024513486464 0.0024902863513 0.0025299893751 0.0025707433729 0.0026124679133 
0.0026552153416 0.00269915964 0.0016809359133 0.0017010646231 0.0017215485229 0.0017423826323 0.0017635599428 0.001785079068 0.0018068689234 
0.0018290761249 0.0018515828798 0.0018745044984 0.0018978097243 0.0019215203562 0.0019456588149 0.0019702408401 0.0019952765466 0.0020207815265 
0.0020466428155 0.0020731914428 0.0021001371321 0.0021275829094 0.0021555591918 0.0021840621905 0.002213121296 0.0022427331831 0.002272921242 
0.002303701812 0.0016902469443 0.0017105799345 0.0017312651562 0.0017523045784 0.0017737046495 0.0017953874507 0.0018175130007 0.0018399519514 
0.0018628066835 0.0018860436957 0.0019096663932 0.0019337064139 0.0019581867194 0.0019831218185 0.002008526298 0.0020344101054 0.002060753746 
0.0020876013816 0.0021149512612 0.0021428174565 0.0021712098868 0.0022001747474 0.0022297013166 0.002259800089 0.0022904894884 0.0023217772648 
0.0016969433446 0.0017174507938 0.0017383147424 0.0017594478925 0.0017810459229 0.0018030196555 0.0018253269521 0.0018480608141 0.0018711813609 
0.001894689153 0.0019185975459 0.0019429349685 0.0019677118678 0.0019929646384 0.0020187136879 0.0020449231845 0.0020716350243 0.0020988401929 
0.0021265556312 0.0021547833463 0.0021835866032 0.0022129588019 0.0022429130164 0.0022734606079 0.0023046021501 0.0023363453638 0.0017017617394 
0.001722425836 0.0017433593623 0.0017647473089 0.0017864743661 0.0018086390841 0.0018312028372 0.0018541616367 0.0018775202884 0.001901278074 
0.0019254469496 0.0019500434185 0.0019751077783 0.0020006698085 0.0020267106302 0.0020532370599 0.0020802795217 0.0021078176364 0.0021358527328 
0.0021644544812 0.0021936327516 0.0022233788633 0.0022537345601 0.0022846945169 0.0023162607416 0.0023484407309 0.0017055648155 0.0017262872397 
0.0017474637726 0.001768971989 0.0017909179087 0.0018132691861 0.001836028879 0.0018592014995 0.0018827835495 0.0019067763717 0.0019311917187 
0.0019560440087 0.0019814073413 0.0020072269915 0.00203355866 0.0020603931787 0.0020877422672 0.0021156029332 0.0021439768388 0.0021729217299 
0.0022024466142 0.0022325710338 0.0022633109176 0.0022946734908 0.0023266560492 0.0023592626594 0.0017091052464 0.001730076163 0.0017513721923 
0.0017730965156 0.0017952175971 0.00181775136 0.0018407118968 0.0018640952555 0.0018879016458 0.0019121380432 0.0019367889938 0.0019619445999 
0.0019875467721 0.0020136410135 0.0020402544672 0.002067402891 0.0020950759701 0.0021232448731 0.0021519681443 0.0021812577457 0.0022111414583 
0.002241637919 0.0022727660344 0.0023045341047 0.0023369290186 0.0023699698307 0.0017132905058 0.0017343873228 0.0017559011796 0.0017778093993 
0.0018001200958 0.0018228515898 0.0018460230896 0.0018696305074 0.0018936788749 0.0019181347048 0.001943104386 0.0019684951089 0.0019943761017 
0.002020768868 0.002047692994 0.0020751539206 0.0021031186258 0.0021316465567 0.0021607256403 0.0021903753995 0.0022206303526 0.0022515169187 
0.0022830504896 0.0023152304978 0.0023480649407 0.0023815550806 0.0017185118432 0.0017398361616 0.0017615463652 0.0017836484018 0.0018061721909 
0.0018291293772 0.0018525240957 0.001876371693 0.0019007585086 0.0019255071038 0.001950655394 0.0019763364303 0.0020025262781 0.0020292200316 
0.0020564652911 0.0020842287889 0.0021125663898 0.0021414537674 0.0021709033212 0.0022009416908 0.0022315978859 0.0022628966534 0.0022948605888 
0.002327477924 0.0023607719058 0.0023947409103 0.0017251830978 0.0017467117743 0.0017686388687 0.0017909686546 0.0018137304172 0.0018369262737 
0.0018605773448 0.0018848039257 0.0019093548851 0.0019343340645 0.0019598412687 0.0019858487008 0.0020123511193 0.002039382234 0.0020669713652 
0.002095090028 0.0021237974647 0.0021530667436 0.0021829217718 0.0022133842428 0.0022444719041 0.0022762160746 0.0023086295307 0.0023417261382 
0.0023755080885 0.0024099887472 0.0017334269851 0.0017551895291 0.0017773610274 0.0017999517142 0.0018229726756 0.0018464407889 0.0018704774967 
0.0018948567597 0.0019196813687 0.0019450428565 0.0019708771444 0.0019972089888 0.0020240698644 0.0020514627488 0.0020793926738 0.0021079236468 
0.0021370259744 0.0021667146154 0.0021970074285 0.0022279167619 0.0022594741349 0.0022916963726 0.0023246027255 0.0023582088691 0.0023925173387 
0.0024275454291 0.0017433304342 0.0017653522646 0.0017877975124 0.0018106635729 0.0018339667444 0.00185784039 0.0018820503769 0.0019067396922 
0.0019319346477 0.0019576242991 0.0019838117848 0.0020105126656 0.002037742344 0.0020655062382 0.0020938713737 0.002122813816 0.0021523517251 
0.0021824895034 0.0022132472344 0.0022446384688 0.0022766962362 0.0023094271294 0.002342863196 0.0023770172504 0.0024118945729 0.0024475112916 
0.0017549070516 0.0017772100724 0.0017999398282 0.0018231067816 0.0018468351289 0.001870911953 0.0018954481256 0.0019205020966 0.0019460518287 
0.001972104704 0.0019986761868 0.0020257701256 0.0020533735868 0.0020815945716 0.002110389841 0.0021397865835 0.0021697842742 0.0022004046901 
0.0022316580566 0.0022635689788 0.002296156341 0.0023294365683 0.0023634396992 0.0023981815632 0.0024336627632 0.0024699142509 0.0017681375512 
0.0017907457591 0.0018137892509 0.0018373976579 0.0018613705445 0.0018857575535 0.0019106804739 0.0019361045977 0.0019620356142 0.0019884828322 
0.0020154641476 0.0020429832478 0.0020710247494 0.0020996883049 0.0021289561446 0.0021588327459 0.0021893280523 0.002220459274 0.0022522464977 
0.0022847027607 0.0023178527927 0.0023517269722 0.0023863343429 0.0024216993418 0.0024578274299 0.0024947533053 0.0017830392566 0.0018059739175 
0.0018294862537 0.0018533342289 0.0018776301307 0.0019024234301 0.0019277373294 0.0019535615148 0.0019798994593 0.0020067703842 0.0020341877569 
0.0020621110721 0.0020906675704 0.0021198162274 0.0021495816831 0.0021799673578 0.0022109929661 0.0022426690927 0.0022750141475 0.002308056187 
0.0023418112476 0.0023763155526 0.0024115706961 0.0024475901547 0.0024844177239 0.0025220479074 0.0017996519497 0.0018230544387 0.0018468049052 
0.0018709970646 0.0018957008456 0.0019209208817 0.0019466516816 0.0019729000011 0.0019996762736 0.0020269973921 0.0020548325258 0.0020832819486 
0.0021123304162 0.002142005005 0.0021723027012 0.0022032347777 0.0022348109545 0.0022670670163 0.0023000135355 0.002333671332 0.0023680778577 
0.0024032296931 0.0024391738756 0.002475908391 0.0025134564971 0.0025518573274 0.0018181100988 0.0018417779821 0.0018659167646 0.0018905068302 
0.0019156414802 0.0019412972312 0.0019674720698 0.0019941772793 0.0020214212135 0.002049219672 0.0020775451113 0.0021065021896 0.0021360947722 
0.002166316765 0.0021971757058 0.002228683573 0.0022608589362 0.0022937220296 0.0023272985997 0.0023616178835 0.0023966906689 0.0024325623338 
0.0024692376257 0.0025067153071 0.0025450340301 0.0025842540399 0.0018382508106 0.0018623230655 0.0018868391874 0.0019119018103 0.0019374878257 
0.001963606421 0.0019902599548 0.0020174534289 0.0020451916117 0.0020734515128 0.0021023319819 0.0021318479302 0.0021620073846 0.0021928115645 
0.0022242686093 0.0022563914747 0.0022891942197 0.0023227042758 0.0023569522315 0.0023919414457 0.0024277553586 0.0024643786436 0.0025018257415 
0.0025401018312 0.0025792550694 0.0026192286512 0.0018602112642 0.0018846792156 0.0019096793966 0.0019352040104 0.0019612700757 0.0019878829757 
0.0020150436995 0.0020427578815 0.0020709738573 0.0020998099139 0.0021292492026 0.0021593440822 0.0021901002571 0.0022215235719 0.0022536159925 
0.0022863929064 0.0023198587188 0.0023540239687 0.0023889778132 0.0024247281619 0.002461304135 0.0024987161201 0.0025369699346 0.0025760467822 
0.002616033015 0.0026569523687 0.0018839411129 0.0019088688924 0.0019343426274 0.0019603580906 0.0019869372801 0.0020140741836 0.0020417732037 
0.0020700281289 0.0020987912802 0.0021282061941 0.0021582367013 0.0021889408641 0.0022203245047 0.0022524002027 0.0022851616621 0.0023186161323 
0.0023527524402 0.0023876640187 0.0024233601118 0.0024598822388 0.0024972636693 0.0025355005487 0.0025745788873 0.0026145600204 0.0026554639047 
0.0026973259809 0.0019092170915 0.00193466876 0.0019606417843 0.0019871757932 0.0020142837695 0.0020419783301 0.0020702389588 0.0020990073987 