# vtk DataFile Version 5.1
vtk output
ASCII
DATASET STRUCTURED_POINTS
DIMENSIONS 26 26 26
SPACING 0.08 0.08 0.08
ORIGIN -1 -1 0.5
POINT_DATA 17576
FIELD FieldData 1
potential 1 17576 double
0.00067480920596 0.00068239516079 0.00069011444451 0.00069802967371 0.00070602708186 0.00071416176186 0.00072245765304 0.00073085738454 0.00073942495242 
0.00074811226537 0.00075697951656 0.00076605877513 0.00077537650223 0.00078494812691 0.00079474715489 0.00080475916295 0.00081495803967 0.0008250956753 
0.00083560003292 0.00084622983172 0.0008570135678 0.00086786083476 0.0008787896992 0.00088979164221 0.00090087760655 0.00091206164973 0.00066848197293 
0.00067594721726 0.00068353272955 0.00069124881901 0.00069916592605 0.00070717718621 0.00071536150768 0.00072366100081 0.00073214361053 0.00074073096436 
0.0007494887388 0.0007584502243 0.00076764738444 0.00077710275904 0.00078679359253 0.0007967046736 0.00080680603748 0.00081683967747 0.00082723869756 
0.00083776580048 0.00084845082338 0.00085920705194 0.00087005099766 0.00088096527106 0.00089194793597 0.00090300833923 0.00065954158038 0.00066685794448 
0.00067428551653 0.00068183304337 0.00068958870231 0.00069744698983 0.00070549186677 0.00071366398777 0.000721976047 0.00073046554429 0.00073907430231 
0.00074787919754 0.00075691983291 0.00076623195457 0.00077578639088 0.00078557020144 0.00079554336619 0.00080544779118 0.000815711558 0.00082610601505 
0.00083662379064 0.00084729296933 0.00085801536181 0.00086880210602 0.00087964203477 0.00089053989632 0.00064889396398 0.00065605722851 0.0006633067722 
0.00067067568649 0.00067819068148 0.00068593788664 0.00069380122916 0.00070184712472 0.00071000637836 0.00071829384322 0.00072677232557 0.00073539930248 
0.00074426172953 0.00075340315388 0.00076280256912 0.00077244170336 0.00078227368715 0.00079225861028 0.00080214149723 0.00081238130488 0.00082274214436 
0.00083326147092 0.00084383697607 0.00085447088331 0.00086513969311 0.00087584631183 0.00063755740067 0.00064456035622 0.00065164443129 0.00065882978082 
0.0006661640166 0.00067373510796 0.00068142761609 0.00068931074343 0.00069730652748 0.00070542982091 0.00071368732377 0.00072216756869 0.00073085139724 
0.00073981537128 0.00074904791864 0.00075853001653 0.0007682097543 0.00077804236698 0.00078776570541 0.00079784106403 0.0008080402069 0.00081839420003 
0.00082880445291 0.00083926674459 0.00084975219509 0.00086025801025 0.00062642938128 0.00063328017337 0.00064020550316 0.00064723050647 0.00065439076063 
0.00066172544328 0.00066931141785 0.00067703017589 0.0006848635608 0.00069282097386 0.00070091341979 0.00070922234669 0.00071772353462 0.00072651973656 
0.00073558670825 0.00074491037045 0.00075443750681 0.00076411856439 0.00077392249315 0.00078360345079 0.00079363551343 0.00080381625315 0.00081405291971 
0.00082433949723 0.00083464064283 0.00084495415051 0.00061615157443 0.0006228616161 0.00062964701383 0.00063652638431 0.00064353967542 0.00065071321757 
0.00065813691695 0.00066569654593 0.00067337441588 0.00068117896429 0.00068912221635 0.00069724008143 0.00070562660671 0.00071425706277 0.00072317111845 
0.00073234163936 0.00074172330938 0.00075126256473 0.00076092351728 0.00077045576316 0.00078032707847 0.00079033826342 0.00080039834726 0.00081050554261 
0.00082062974651 0.00083076401894 0.00060707028498 0.00061365458388 0.00062031746366 0.00062707408174 0.00063395750448 0.00064099878296 0.00064821304335 
0.00065565490314 0.00066321469438 0.00067088161771 0.00067869332015 0.00068668143771 0.00069489501346 0.0007034166359 0.000712192871 0.000721219613 
0.00073046995365 0.00073987880206 0.00074941237352 0.0007590475569 0.00076853671612 0.00077835203329 0.00078827638165 0.00079821242965 0.00080816955466 
0.00081814237495 0.00059928811794 0.00060575945657 0.00061231719438 0.00061897019942 0.00062574624273 0.00063266805172 0.00063975496712 0.00064706850419 
0.00065449169576 0.00066203608056 0.00066973211519 0.00067760974305 0.00068570967643 0.00069410966105 0.00070275805797 0.00071165668573 0.00072077600895 
0.00073007293631 0.0007394936182 0.00074901228593 0.00075837205674 0.00076804446751 0.00077781233464 0.00078758940113 0.00079739130464 0.00080721716533 
0.00059274447692 0.00059912032957 0.00060558721452 0.00061215394672 0.00061883816811 0.00062566064324 0.00063263835219 0.00063977124059 0.0006471492404 
0.00065458141405 0.00066217504048 0.00066995303681 0.00067795173141 0.00068620236285 0.00069477775298 0.00070356053976 0.00071256856309 0.0007217547099 
0.00073107331146 0.00074049369733 0.00074998465399 0.00075929179768 0.00076892549368 0.00077856298013 0.00078822891638 0.00079792473365 0.00058732096357 
0.00059361472003 0.00060000318987 0.00060649248379 0.00061309750705 0.00061983803808 0.0006267242421 0.00063376082934 0.00064101453121 0.00064838131932 
0.00065588388549 0.0006635676897 0.00067147368247 0.00067962893664 0.00068805672315 0.00069677775319 0.00070568148874 0.00071477199591 0.00072399932367 
0.00073332593464 0.00074272630233 0.0007519298325 0.00076145131274 0.00077097199183 0.00078052079378 0.00079010176578 0.00058288490454 0.0005891097188 
0.00059543064744 0.00060185379146 0.00060839292931 0.00061506323062 0.00062187235228 0.00062882958911 0.00063593458183 0.00064328513686 0.00065070714924 
0.00065831460614 0.00066613232703 0.00067419961221 0.00068253389166 0.00069111249085 0.00069996739813 0.00070896814593 0.00071811362627 0.00072735896982 
0.000736673644 0.00074603794264 0.00075522778249 0.00076465151385 0.00077410174345 0.00078358558083 0.0005793348238 0.00058550388873 0.00059176831614 
0.00059813559795 0.00060461878762 0.0006112307864 0.00061797979746 0.00062487172062 0.00063190715135 0.00063911978705 0.00064654056687 0.00065407682923 
0.00066182594676 0.0006698103254 0.00067805306546 0.00068655594386 0.00069532393329 0.00070424091454 0.00071330846111 0.00072248326177 0.00073173043842 
0.00074102272842 0.00075009956278 0.00075948085916 0.0007688464132 0.00077824189963 0.0005766241704 0.00058274312036 0.00058896260149 0.00059528308892 
0.00060172075322 0.00060828695321 0.00061498880592 0.00062182864463 0.00062880861238 0.00063596447136 0.00064332454084 0.00065080150746 0.0006584915886 
0.00066641556546 0.00067459037644 0.00068301394953 0.00069165811454 0.00070054449362 0.00070954070064 0.00071865016544 0.00072783745334 0.00073707206359 
0.00074633102835 0.00075539133972 0.00076468245267 0.00077400278203 0.00057476725147 0.0005808299563 0.00058700515376 0.00059328988828 0.00059969770227 
0.00060623208557 0.00061289926227 0.00061969945408 0.00062663544794 0.00063371484717 0.00064098538261 0.00064848612592 0.00065613152867 0.00066401038482 
0.00067213021089 0.00068049849785 0.00068907219138 0.00069784206613 0.00070682071655 0.00071587110524 0.00072500582384 0.00073418779583 0.00074339146455 
0.00075238941815 0.00076160949266 0.00077085358089 0.00057377975839 0.00057980467338 0.00058595348639 0.00059221258616 0.00059859765823 0.00060511394789 
0.00061176283062 0.00061853599116 0.00062543784487 0.00063248036237 0.0006397143193 0.0006471833794 0.00065480132059 0.00066265254398 0.00067073749765 
0.00067906049071 0.00068758373251 0.00069629448075 0.0007051603936 0.00071420684056 0.00072329383346 0.00073243132177 0.000741585322 0.00075077391522 
0.0007596791536 0.00076885490608 0.00057376550019 0.00057979179092 0.00058589400507 0.000592141358 0.00059851977848 0.00060503392858 0.00061167501849 
0.0006184373528 0.00062531642285 0.00063233163564 0.00063954055022 0.00064692108262 0.00065460092388 0.00066244357731 0.00067051333927 0.00067880741725 
0.00068728905962 0.00069594849212 0.00070476579846 0.00071376207707 0.00072280835939 0.00073190507788 0.00074101451129 0.00075011592935 0.00075899560852 
0.00076811049949 0.00057485392302 0.00058086717734 0.00058698308589 0.00059320481334 0.00059959260372 0.00060611861112 0.00061277049958 0.00061953049952 
0.00062639967064 0.00063340147305 0.00064057109993 0.0006479789143 0.0006555932171 0.00066351655286 0.00067159021087 0.0006798613435 0.00068832229138 
0.00069694148037 0.00070571512904 0.00071462444787 0.0007236870811 0.00073274709378 0.00074182030734 0.00075087557432 0.00075995345889 0.00076876632341 
0.00057715950694 0.00058317569277 0.00058929484014 0.0005955297905 0.00060193980776 0.000608495402 0.00061516979021 0.00062194511381 0.00062882059416 
0.00063582119965 0.00064299329649 0.0006504172033 0.00065805294655 0.00066600150081 0.00067409178559 0.0006823651076 0.00069081011332 0.00069939623496 
0.00070813628109 0.00071701402469 0.00072599759808 0.00073508922166 0.00074413347274 0.00075315098393 0.00076218838138 0.00077121928956 0.00058073443876 
0.00058677010253 0.00059291118356 0.00059919579893 0.00060561779035 0.00061221297748 0.00061892997083 0.00062573570416 0.00063263424843 0.00063965206311 
0.00064684542632 0.00065429315695 0.00066196330909 0.00066987628922 0.00067806905111 0.00068635583207 0.00069479741189 0.00070336681531 0.00071208169673 
0.00072093683993 0.00072989988075 0.00073892144457 0.00074800044324 0.00075699908926 0.00076600990618 0.00077501911311 0.00058548656466 0.00059156038758 
0.00059774068791 0.00060406737686 0.00061055834152 0.00061717760273 0.00062394013332 0.00063079557868 0.00063773580971 0.00064479164886 0.00065202568306 
0.00065948574634 0.00066722724075 0.00067517751442 0.0006834038259 0.00069171350856 0.00070016380933 0.00070872903436 0.00071743260588 0.00072627267906 
0.00073522114006 0.00074422940818 0.00075324375535 0.00076228869097 0.00077126401586 0.00078030552422 0.00059108821847 0.00059721833591 0.00060345675118 
0.0006098373199 0.00061638082861 0.00062307524534 0.00062986662147 0.00063677225466 0.00064377090875 0.00065088686472 0.0006581759113 0.00066568668711 
0.00067347203675 0.00068146246657 0.00068964510788 0.00069805333682 0.00070652344458 0.00071509813685 0.00072380117242 0.00073263074391 0.00074156620654 
0.0007505618094 0.00075956842774 0.00076855721926 0.00077759809055 0.00078665834774 0.00059698352725 0.00060314426622 0.00060944921752 0.00061589385934 
0.00062249299678 0.00062923590517 0.00063607607107 0.00064303575894 0.000650094288 0.00065727817354 0.00066463051614 0.00067219738045 0.00068002595218 
0.00068804618647 0.00069625514755 0.00070460873325 0.00071316038959 0.00072176027787 0.00073046949891 0.00073929326811 0.00074821156665 0.00075719229302 
0.0007661876395 0.00077517895075 0.00078423493039 0.00079332268234 0.00060226855275 0.0006085337434 0.00061486815322 0.00062137331451 0.00062802140119 
0.00063480640161 0.00064170895178 0.00064869187413 0.00065580300064 0.00066304507586 0.00067045643161 0.00067807389929 0.00068590666127 0.00069397893113 
0.00070219880826 0.00071056358318 0.00071912690421 0.00072773632114 0.00073644433623 0.0007452555144 0.00075415506307 0.00076310552989 0.00077207906711 
0.00078106070903 0.00079007020049 0.0007992029635 0.00060604352508 0.00061236163671 0.00061875105405 0.00062530323488 0.00063198577414 0.00063879606435 
0.00064572036044 0.00065275347811 0.00065987549664 0.00066715882033 0.00067460870079 0.00068225301114 0.00069010352113 0.00069817818049 0.00070639457527 
0.00071475560301 0.00072323705727 0.00073191880109 0.00074061519531 0.00074940270888 0.00075826269239 0.00076716787667 0.00077609938721 0.00078504966486 
0.00079403981042 0.00080311177542 0.00060746379898 0.00061381114774 0.00062027045379 0.00062680756076 0.00063350223687 0.00064031362231 0.00064723472354 
0.00065426431538 0.00066141430203 0.00066868084632 0.00067613871936 0.00068378442434 0.00069162404573 0.00069965123452 0.00070787103827 0.00071620333493 
0.00072466089978 0.00073322769314 0.00074197922752 0.00075072452424 0.00075952770066 0.00076836445918 0.00077722156204 0.00078610334542 0.00079503750887 
0.00080406003067 0.0007580661338 0.00076651505858 0.00077511125545 0.00078391674548 0.0007928150423 0.00080186395379 0.00081109312658 0.00082044875489 
0.000829998315 0.00083968818962 0.0008495701147 0.00085966397879 0.00086998753306 0.00088055541622 0.00089134451749 0.00090235038505 0.00091355560579 
0.00092471925971 0.0009362717411 0.00094797478976 0.00095985827561 0.00097183763418 0.00098393654642 0.00099615166797 0.0010084940239 0.0010209733122 
0.00075256179346 0.00076090568101 0.00076938991509 0.00077801965265 0.00078686064641 0.00079580124947 0.00080492549519 0.00081418356002 0.00082361306782 
0.00083324561766 0.00084302822761 0.00085301887828 0.0008632367785 0.00087369912873 0.00088438553568 0.00089529279574 0.00090640125361 0.00091746400123 
0.00092891657016 0.00094052132646 0.00095230703677 0.00096419034108 0.00097619677078 0.00098831754092 0.0010005556263 0.0010129165743 0.00074515106789 
0.00075336655378 0.00076171986297 0.00077021242607 0.00077891985735 0.00078773047303 0.00079673091222 0.00080587183172 0.0008151774632 0.00082469219258 
0.00083434865148 0.0008442099711 0.00085429599848 0.00086463364315 0.00087519672372 0.00088598416131 0.0008969720657 0.00090791596859 0.00091924616756 
0.00093072941438 0.00094235808033 0.00095415710135 0.0009660433951 0.00097803859815 0.00099014335924 0.0010023608617 0.00073640666998 0.0007444913271 
0.00075269711585 0.00076104314965 0.00076954152927 0.00077826709282 0.00078710534233 0.0007961347308 0.00080530472048 0.00081463791289 0.00082419310791 
0.00083390678947 0.00084384537515 0.00085403700156 0.00086446161 0.00087511422521 0.00088597337245 0.00089701065255 0.00090797549617 0.00091932208535 
0.00093080896855 0.00094246883244 0.00095421444564 0.00096606617143 0.00097801400996 0.00099006360487 0.00072699579817 0.00073494001428 0.00074300458958 
0.00075119640898 0.0007595439461 0.00076812149313 0.00077681024368 0.00078569501803 0.00079471789822 0.00080390582997 0.00081326596154 0.00082286303887 
0.00083265272524 0.00084269251723 0.00085296939213 0.00086347947749 0.00087419468741 0.00088509163856 0.00089591316829 0.0009071127754 0.00091845311081 
0.00092996263923 0.0009415541998 0.00095324491121 0.00096502429526 0.00097689604201 0.00071753587353 0.000725343941 0.00073326681375 0.00074132002605 
0.00074951683282 0.00075788095667 0.0007664843474 0.00077522193513 0.00078409818187 0.00079313877637 0.00080235005403 0.0008117975187 0.00082142769803 
0.00083132101898 0.00084144972737 0.00085181419544 0.00086238696941 0.00087314030252 0.0008840515153 0.00089486891044 0.00090605831799 0.00091741166761 
0.00092884260705 0.00094036988568 0.00095197832636 0.00096367256777 0.00070851397374 0.00071619178525 0.00072398426296 0.00073190270704 0.00073996586625 
0.00074818557466 0.00075664448883 0.00076524074369 0.00077397584115 0.00078287255812 0.0007919443537 0.00080121001232 0.00081073887146 0.00082048123193 
0.00083047062457 0.00084069314529 0.00085112665028 0.00086174141199 0.00087251327528 0.00088318782837 0.00089422700566 0.0009054239709 0.00091669377188 
0.00092805657377 0.00093949903886 0.00095102061634 0.00070024087983 0.00070779981984 0.00071547329761 0.00072326974101 0.00073120785819 0.00073930417403 
0.00074756830098 0.00075606120023 0.00076468887962 0.00077345453257 0.00078239590457 0.00079153253127 0.00080088988067 0.00081053019287 0.00082039005951 
0.00083047749778 0.00084078251382 0.00085126540755 0.00086190542644 0.00087268213395 0.00088334326061 0.00089435546406 0.00090550637088 0.00091670998493 
0.00092799256255 0.0009393535364 0.00069287400496 0.00070032352479 0.00070789024681 0.00071557888381 0.00072340769208 0.00073138663501 0.00073953113998 
0.0007479064122 0.00075640632628 0.00076505092572 0.00077387372637 0.00078289366635 0.00079213252626 0.00080165102548 0.00081138771672 0.00082135004556 
0.0008315253374 0.00084189123504 0.00085241015035 0.00086306361723 0.00087359462325 0.00088446782986 0.00089547301172 0.00090652789716 0.00091765954603 
0.00092887061537 0.00068644535694 0.00069380019269 0.0007012723338 0.00070886818649 0.00071659834759 0.00072447637266 0.00073251358084 0.00074071376768 
0.00074917240346 0.00075770523866 0.00076642086512 0.00077533251255 0.00078446414648 0.00079382999635 0.0008034933436 0.00081334030181 0.00082340275502 
0.00083365098835 0.00084405772461 0.00085460196281 0.00086525618699 0.00087576457607 0.00088663862924 0.00089755864746 0.0009085533715 0.00091962814193 
0.00068093267633 0.00068820347861 0.00069559172451 0.00070310263377 0.00071074659713 0.00071853687525 0.0007264813808 0.00073458512203 0.00074285250831 
0.00075138520444 0.00076000434018 0.00076881575822 0.00077784730619 0.00078711328235 0.00079662854408 0.00080641281278 0.00081636869609 0.00082651448978 
0.00083681844371 0.00084725505368 0.00085780772056 0.0008682049746 0.00087896207485 0.00088976153027 0.00090063489112 0.0009115860219 0.00067627850316 
0.00068347697482 0.00069079121174 0.00069822897215 0.0007057996877 0.00071351269296 0.00072137654634 0.00072939724259 0.00073757923774 0.00074602465719 
0.00075455768218 0.00076328608684 0.00077222375165 0.0007813982581 0.00079081767899 0.00080045919736 0.00081036289497 0.00082041272269 0.00083062400054 
0.00084096741862 0.00085141868388 0.00086196338922 0.00087237769144 0.00088307204632 0.00089383565895 0.00090467869649 0.00067243201864 0.00067956962321 
0.00068682179638 0.00069419660984 0.00070170302075 0.00070935036752 0.00071714578188 0.0007250952162 0.00073320315685 0.00074150496018 0.00075003094606 
0.00075868176336 0.00076754507323 0.00077663535353 0.00078595643192 0.0007955193605 0.00080533395461 0.0008152953941 0.00082542014122 0.00083567807549 
0.00084604567557 0.00085650253643 0.00086678953647 0.00087742608604 0.00088809424691 0.00089883775156 0.00066937093529 0.00067645237471 0.00068365400283 
0.00069097441107 0.00069842706119 0.00070601962372 0.00071375820932 0.00072164782677 0.00072969346976 0.00073793246995 0.00074639140127 0.00075497549871 
0.00076377082987 0.00077279020789 0.00078204069223 0.00079152227765 0.00080121037223 0.00081113645731 0.00082118112571 0.00083136177107 0.00084165278559 
0.000852033036 0.0008624857468 0.00087278783308 0.00088336965435 0.00089402571252 0.00066711058463 0.00067413005683 0.00068128222946 0.00068855857227 
0.0006959711831 0.00070352024008 0.00071121396038 0.00071905429578 0.00072704821705 0.000735204966 0.00074356709107 0.00075216543614 0.00076090525108 
0.00076986741427 0.00077905424155 0.00078847291602 0.00079808610437 0.00080789170864 0.00081791159055 0.00082802061981 0.00083824400199 0.00084855441935 
0.00085893516974 0.00086916215838 0.00087966147955 0.00089023200612 0.00066564286395 0.00067262009184 0.00067973957841 0.00068698300354 0.00069435960591 
0.00070187691924 0.00070953844489 0.00071734177068 0.00072529449314 0.00073340784541 0.0007417253302 0.00075028099228 0.00075897839656 0.00076789512303 
0.0007770322949 0.00078639556875 0.00079595260949 0.00080569399544 0.00081559501083 0.0008256891373 0.00083584876794 0.00084609731848 0.00085641284338 
0.00086681839307 0.00087699554498 0.00088748936389 0.00066502478015 0.00067199895425 0.00067906916527 0.00068628813051 0.00069364417969 0.00070114136096 
0.00070877848364 0.00071655859004 0.00072448068532 0.00073256016169 0.00074084428153 0.00074929780476 0.00075803698373 0.00076692338539 0.00077602573505 
0.00078534616784 0.00079485278518 0.00080453739624 0.00081438357649 0.00082436623805 0.00083452063931 0.00084471109971 0.00085496699604 0.00086527603701 
0.00087541982669 0.00088584649494 0.00066531371786 0.0006722704942 0.00067934505779 0.00068652913954 0.00069387664776 0.00070136460455 0.0007089922582 
0.00071675535241 0.00072465822949 0.00073271754456 0.00074095243163 0.00074941617723 0.00075806624473 0.00076700719256 0.00077608747522 0.00078536642265 
0.00079484130741 0.00080447950294 0.00081427534332 0.00082421124355 0.00083431443513 0.00084445070991 0.00085465339779 0.00086490463421 0.00087524145601 
0.00088536044043 0.00066653470544 0.00067348579626 0.00068055471682 0.00068773740781 0.00069508639896 0.00070257937726 0.00071020633241 0.00071796616847 
0.00072586226321 0.00073391045875 0.00074213422933 0.00075059345846 0.00075923783853 0.00076817234396 0.00077724144075 0.0007865002606 0.00079594517893 
0.00080554277226 0.00081529564584 0.00082518761226 0.00083519501299 0.00084534250702 0.00085549984539 0.00086569947571 0.00087598705948 0.00088631412493 
0.00066865243298 0.00067561022314 0.00068268526471 0.00068989927036 0.00069723633329 0.00070474192894 0.000712385421 0.00072015160953 0.00072805224372 
0.00073610066788 0.00074432767426 0.00075278581787 0.00076143510227 0.00077030106764 0.00077944091427 0.00078868866846 0.00079811109311 0.00080767848378 
0.00081739462691 0.00082724932245 0.00083721860472 0.00084727570092 0.00085744635297 0.0008676107409 0.00087785523392 0.00088814544823 0.00067152596443 
0.00067849971074 0.00068559280627 0.00069282473591 0.00070020360283 0.00070770572025 0.00071536537879 0.00072315403129 0.00073107000842 0.00073913084919 
0.00074737113706 0.00075581335283 0.00076450191168 0.00077337250047 0.0007824396836 0.00079175510878 0.0008011639562 0.0008107076296 0.00082039504221 
0.0008302179717 0.00084015362353 0.00085017626556 0.00086026009192 0.00087044594251 0.00088063278723 0.00089092996955 0.00067485953667 0.00068185880464 
0.00068897899262 0.0006962348799 0.00070363773808 0.00071118640078 0.00071884552945 0.00072665331601 0.00073459443733 0.00074268044153 0.00075094080166 
0.00075939929357 0.00076809955198 0.0007769785728 0.00078604653594 0.00079535707578 0.0008047462534 0.00081428359313 0.00082394766429 0.00083373923168 
0.0008436424319 0.00085363179139 0.00086368384845 0.00087378637778 0.00088400487664 0.00089428484513 0.00067824054598 0.00068523338721 0.00069238226072 
0.00069966717141 0.0007070960455 0.00071466515468 0.00072234430946 0.00073017435064 0.00073813615865 0.00074624689054 0.00075453155231 0.00076300874929 
0.00077169083702 0.00078060006127 0.00078966652394 0.00079889353341 0.00080834378829 0.00081786520539 0.0008275076233 0.00083726963783 0.0008471364693 
0.00085709155208 0.00086710842872 0.00087718204352 0.00088732235375 0.00089764179441 0.00068102331665 0.0006880800525 0.00069521850491 0.00070252701899 
0.00070997461084 0.00071755882965 0.00072527433631 0.00073309618964 0.00074107369463 0.00074920169205 0.00075750041988 0.00076599055782 0.0007746745627 
0.0007835818073 0.00079263550706 0.0008018469491 0.00081127889351 0.0008207778215 0.00083038964911 0.00084011562022 0.00084994384515 0.00085985077885 
0.00086982482079 0.00087985998029 0.00088996977166 0.00090023392304 0.00068262700537 0.00068969845114 0.00069685401289 0.0007041756747 0.00071162983942 
0.00071921642654 0.00072693179927 0.00073477637677 0.00074273167837 0.00075086367174 0.00075916368742 0.0007676467585 0.00077632138429 0.00078520948164 
0.00079423911499 0.00080342455964 0.00081275094775 0.00082229150468 0.00083186495314 0.00084154462779 0.00085131689297 0.00086116479765 0.00087108050214 
0.00088106010219 0.00089111987919 0.0009012855175 0.00068250834161 0.00068957820166 0.00069677131615 0.00070404977013 0.00071149303257 0.00071906250039 
0.00072675802762 0.000734580675 0.00074254202738 0.00075062971437 0.00075890968483 0.00076736781417 0.00077601181054 0.00078483531377 0.00079385368086 
0.00080299444741 0.00081227491836 0.00082168096129 0.00083128874955 0.00084090677121 0.00085061029296 0.00086038036376 0.0008702134166 0.00088011252914 
0.00089009721663 0.00090019247681 0.0008435096799 0.0008528453709 0.00086234321482 0.00087206182907 0.00088188806736 0.00089187888482 0.0009020676007 
0.00091240306487 0.00092295276951 0.00093365880676 0.00094456695686 0.00095569458221 0.00096704905241 0.00097864717023 0.00099046608089 0.0010025087218 
0.0010147626095 0.0010269927237 0.0010396324102 0.0010524468064 0.0010654689398 0.0010786177086 0.001091920899 0.0011053769882 0.0011189967776 
0.0011327889088 0.00083844834714 0.00084768858314 0.00085708519775 0.00086664138121 0.00087642169306 0.00088631270312 0.00089640096801 0.00090663960208 
0.00091706859554 0.00092771932672 0.00093853261492 0.00094956167737 0.00096081661739 0.00097231314042 0.00098403256369 0.00099597587274 0.0010081310479 
0.0010202604621 0.0010327997205 0.0010455151755 0.0010584358799 0.0010714831513 0.0010846870444 0.0010980422038 0.001111554454 0.0011252274315 
0.00083197261297 0.00084109765599 0.00085037923558 0.00085981599194 0.00086947828366 0.00087925303673 0.00088922753372 0.00089935611512 0.00090966755631 
0.00092021001809 0.00093090906911 0.0009418215689 0.00095295697217 0.00096433817559 0.00097594149047 0.00098776925546 0.00099981188123 0.0010120500414 
0.0010242450874 0.0010368427922 0.0010496099973 0.0010625742313 0.0010756564999 0.001088886895 0.0011022694089 0.0011158061162 0.00082445383679 
0.00083346235796 0.0008426136922 0.0008519232354 0.00086139603101 0.00087110219367 0.00088092754619 0.00089095567197 0.00090114264064 0.0009115175293 
0.00092212934097 0.00093291051184 0.00094391525167 0.00095516450864 0.00096663939032 0.00097834017737 0.00099025813717 0.001002371255 0.0010144362429 
0.0010269053836 0.0010395389073 0.0010523671829 0.0010653138025 0.0010784051606 0.0010916384871 0.0011050185126 0.00081633914052 0.00082522162245 
0.00083424822935 0.00084342145921 0.00085276193416 0.00086233629946 0.00087202678681 0.00088192348935 0.00089197649387 0.00090221704813 0.00091265110352 
0.00092333205679 0.00093420500893 0.00094531685539 0.00095665514094 0.00096822272777 0.00098000410742 0.00099198377776 0.0010039138188 0.0010162450243 
0.0010287402347 0.0010414263747 0.0010542253677 0.0010671647633 0.0010802382349 0.0010934521284 0.00080806128907 0.00081681888934 0.00082571704726 
0.00083476621605 0.00084396973524 0.00085334661954 0.00086296555967 0.00087272765417 0.00088264561202 0.00089275015645 0.00090304744582 0.00091359202482 
0.00092431897555 0.00093529743688 0.00094649797052 0.00095792876864 0.0009695737288 0.00098141810541 0.00099344098236 0.0010053981316 0.0010177489843 
0.0010302876679 0.0010429335875 0.0010557170565 0.0010686290735 0.0010816762175 0.00079998532381 0.00080862152641 0.0008173973024 0.00082632110706 
0.00083540141003 0.00084464945108 0.00085413284305 0.00086376289513 0.00087355019702 0.00088351917095 0.00089368464825 0.00090405552253 0.00091468979051 
0.00092551459232 0.00093659502504 0.0009478907675 0.00095940030668 0.0009711077685 0.00098299543105 0.00099481270569 0.0010070197039 0.0010194098732 
0.0010319039808 0.0010445295269 0.0010572824777 0.0010701634588 0.00079237396679 0.00080089698941 0.00080955817354 0.00081836323056 0.00082732424961 
0.00083645101507 0.0008457506819 0.00085528827972 0.00086497434489 0.00087481767912 0.0008848555009 0.00089510025114 0.0009055659533 0.0009163049778 
0.00092724964043 0.00093841360458 0.00094979724233 0.00096137322712 0.00097312707958 0.000985046514 0.00099687727063 0.0010090881109 0.001021470775 
0.0010339422961 0.0010465386856 0.0010592606009 0.00078539142797 0.00079380848788 0.00080236347999 0.00081106064043 0.00081991272814 0.00082892569375 
0.00083810993401 0.00084753584376 0.0008570985475 0.00086682285006 0.00087674191334 0.00088686846275 0.00089721326779 0.00090783214123 0.00091865435201 
0.00092969541847 0.00094094895095 0.00095240444742 0.00096403355317 0.00097582596105 0.00098752528255 0.00099959937299 0.001011837728 0.0010241649034 
0.0010366112599 0.0010491821102 0.0007791136697 0.00078743638502 0.00079589465271 0.00080449574843 0.00081324740507 0.00082215717606 0.00083123568693 
0.00084048838432 0.00085001084337 0.00085962411342 0.00086943342379 0.00087944761455 0.00088968312255 0.00090014561203 0.00091089511855 0.00092181844584 
0.00093295612624 0.00094428828398 0.00095580026715 0.00096747614644 0.00097929485311 0.00099100092532 0.001003107495 0.0010152985812 0.0010276058682 
0.0010400350948 0.00077356959921 0.00078180538974 0.00079017742435 0.00079868993072 0.0008073497581 0.00081616865738 0.00082515102111 0.00083430681038 
0.00084363776629 0.00085324768534 0.00086295649191 0.00087286591941 0.00088299624654 0.00089335554668 0.00090395377946 0.0009148122352 0.00092583998867 
0.00093706391131 0.00094846517645 0.00096002472969 0.00097173289954 0.00098332120892 0.00099530537166 0.0010073715171 0.0010195515015 0.0010318497458 
0.00076875000669 0.00077690952288 0.00078520277445 0.00079363609381 0.00080221674047 0.00081095343881 0.00081985248638 0.00082891965743 0.00083816168152 
0.00084767962732 0.00085729813896 0.00086711839387 0.00087715004236 0.00088741283896 0.0008979121658 0.0009086246254 0.00091959467084 0.00093071687506 
0.00094201561155 0.00095347311705 0.00096507033504 0.00097679396073 0.00098842684842 0.0010003792459 0.0010124410646 0.0010246207104 0.00076463767196 
0.00077273211357 0.00078095632936 0.00078932076254 0.00079783068161 0.00080649527048 0.00081531847635 0.00082430852634 0.0008334705864 0.00084284082727 
0.00085244479847 0.00086218177409 0.00087213241987 0.00088230477167 0.00089270057136 0.00090333021819 0.00091420705787 0.00092523329647 0.00093643782533 
0.00094779821304 0.00095929800993 0.00097092306426 0.00098241601196 0.00099430100238 0.0010062554035 0.0010183248764 0.0007612293793 0.00076926083893 
0.00077742542313 0.00078573086355 0.00079417919448 0.00080278009557 0.00081153897722 0.000820462645 0.00082955472105 0.00083885383178 0.00084838498489 
0.00085804751397 0.00086792182581 0.00087801593106 0.00088833235548 0.0008988749454 0.00090961969272 0.00092060496101 0.00093171983429 0.00094299150007 
0.00095440146736 0.00096593688447 0.00097758291668 0.00098911901145 0.0010009770024 0.0010129483138 0.00075853944638 0.00076650270498 0.00077461470864 
0.0007828640428 0.00079126300236 0.00079981055207 0.00080851438475 0.00081737908259 0.0008264111924 0.00083562135148 0.00084504698326 0.00085471433565 
0.00086452186377 0.00087454859963 0.00088479402004 0.00089526605071 0.00090592606105 0.0009167839343 0.00092786487202 0.0009390540426 0.00095038331792 
0.00096183390542 0.00097339579364 0.00098484413517 0.00099660684972 0.0010084810987 0.00075654413327 0.00076445868088 0.00077252914432 0.00078073695008 
0.00078908908065 0.00079759315025 0.00080625295452 0.00081507029867 0.00082405245314 0.00083320984694 0.00084258105252 0.00085219441848 0.0008619476742 