# vtk DataFile Version 5.1
vtk output
ASCII
DATASET STRUCTURED_POINTS
DIMENSIONS 26 26 26
SPACING 0.08 0.08 0.08
ORIGIN -1 -1 0.5
POINT_DATA 17576
FIELD FieldData 1
potential 1 17576 double
0.002406916019 0.0023725623198 0.002338812701 0.002305647828 0.002273065305 0.0022410508819 0.0022095601819 0.0021785574404 0.0021480065792 
0.0021179247932 0.0020883369554 0.0020592571972 0.002030858858 0.0020031096592 0.0019759976941 0.0019495698225 0.0019235701118 0.0018980000904 
0.0018728483693 0.0018480960152 0.0018237388403 0.0017997801179 0.0017761469858 0.0017528258761 0.0017297953019 0.0017070567432 0.0024293334092 
0.0023946227204 0.0023599733642 0.0023259132069 0.0022924639748 0.0022596456386 0.0022274440002 0.002195797097 0.0021646618259 0.0021340082339 
0.0021038625261 0.0020742704889 0.00204526861 0.0020170030939 0.0019894141668 0.0019624404725 0.0019359943647 0.00191011122 0.0018845455606 
0.0018594240746 0.001834685092 0.0018103571399 0.0017864057293 0.0017628098528 0.0017394836351 0.001716436413 0.0024440249825 0.0024080353872 
0.0023726079877 0.0023382629644 0.0023040593553 0.0022705463008 0.0022377228879 0.0022055336486 0.0021738957049 0.0021427470778 0.0021121028093 
0.0020820213979 0.0020525999564 0.0020238559825 0.0019958848521 0.0019685662964 0.0019418068673 0.0019155005896 0.0018897054384 0.0018642326983 
0.0018391973749 0.0018146404608 0.0017904615005 0.00176662673 0.0017430986665 0.0017198104974 0.0024536418432 0.0024169368317 0.0023807829993 
0.0023452169703 0.00231032648 0.0022766836736 0.0022433039195 0.0022106177207 0.0021785175858 0.0021469157173 0.0021158076467 0.0020852831548 
0.0020554377145 0.0020263638761 0.0019980587112 0.0019704155034 0.0019433804337 0.0019168076694 0.0018906385699 0.0018649913759 0.0018397079422 
0.0018149040546 0.0017905408349 0.0017665352182 0.0017428402622 0.0017193719368 0.0024617158095 0.0024243057226 0.0023874490542 0.0023511807131 
0.0023156282398 0.0022808811828 0.0022474414483 0.0022142539778 0.0021816764802 0.002149623326 0.0021180639913 0.0020870929416 0.0020568461932 
0.0020274031557 0.0019987739909 0.0019708770626 0.001943533013 0.0019167002894 0.0018902674802 0.0018642773137 0.0018387668318 0.0018138397434 
0.0017892916483 0.0017651141098 0.0017412050041 0.0017175224912 0.0024721580742 0.0024332609403 0.0023956623562 0.0023586958309 0.0023224610233 
0.0022870687567 0.0022525517806 0.002218815079 0.0021861953969 0.002153642013 0.002121611189 0.0020901831271 0.0020594987126 0.0020296668044 
0.0020006819606 0.0019724507795 0.0019448302339 0.0019176607957 0.0018909575448 0.001864689043 0.0018389216738 0.0018136724814 0.0017889786882 
0.0017645830933 0.0017404612513 0.0017165657383 0.0024857195021 0.0024467879298 0.0024083905749 0.0023706457592 0.0023329788886 0.0022968873798 
0.0022616889694 0.0022273179223 0.0021936212033 0.0021605049462 0.0021284058131 0.0020964920766 0.0020653367422 0.0020350539238 0.0020056388311 
0.0019770071631 0.0019490083774 0.001921518217 0.0018944490369 0.0018678690389 0.0018417938428 0.001816244346 0.0017911785593 0.0017665717633 
0.0017421782599 0.0017180266072 0.0025045470976 0.002464615077 0.0024253441644 0.0023867809274 0.0023490826895 0.0023122051554 0.0022755402454 
0.0022404131065 0.0022060145765 0.0021722461815 0.00213909412 0.0021066270412 0.0020753956612 0.0020445886629 0.0020146688905 0.0019855392086 
0.0019570754938 0.0019291620234 0.0019017327184 0.0018747595012 0.0018483171916 0.0018223972214 0.0017969529281 0.0017719103729 0.0017472457569 
0.0017227801375 0.0025290149463 0.0024880370303 0.0024477981606 0.002408319413 0.0023696815722 0.0023319451342 0.0022951091829 0.002259181448 
0.002223284236 0.0021887653426 0.0021549346412 0.0021218365494 0.0020895630574 0.0020585964023 0.002028078662 0.0019983655927 0.0019693496112 
0.0019409287324 0.0019130390697 0.0018856611324 0.0018587711503 0.0018324115883 0.0018065206268 0.0017810373496 0.0017558876209 0.0017311105389 
0.0025590454607 0.002516911764 0.0024756025837 0.0024351226077 0.0023954878522 0.002356795962 0.0023190075787 0.0022820793465 0.0022459606909 
0.0022106511346 0.0021753683458 0.002141553637 0.0021085849382 0.0020765072155 0.0020453074618 0.0020153644628 0.0019857177418 0.0019567185074 
0.0019282913807 0.0019004084347 0.0018730511831 0.0018461668632 0.0018197685568 0.0017937787527 0.0017681566523 0.0017428832077 0.0025942979567 
0.0025509033338 0.0025083999283 0.0024668088871 0.0024261303347 0.0023863922356 0.0023475774668 0.0023095991225 0.0022724903757 0.0022362008358 
0.0022007243779 0.0021661377447 0.0021317271138 0.0020988841144 0.0020669281911 0.0020358216981 0.0020058868937 0.0019762314708 0.0019471986543 
0.001918749425 0.0018908308595 0.001863414531 0.0018364269919 0.0018098872323 0.0017837342852 0.001757965502 0.0026344590007 0.0025896994971 
0.0025459116096 0.0025030930669 0.0024612549968 0.0024203772942 0.002380428464 0.0023413939531 0.0023032251262 0.0022659270062 0.002229468901 
0.0021939386396 0.0021593172944 0.0021249665274 0.0020922182998 0.0020602954889 0.0020291776096 0.0019988027843 0.0019695003687 0.0019404031766 
0.0019118675575 0.001883841038 0.0018562633478 0.0018291196201 0.0018023707053 0.0017760622787 0.0026793393913 0.0026331154381 0.0025879291859 
0.0025437872642 0.0025006707702 0.0024585666383 0.0024174142042 0.0023772023345 0.0023378988895 0.0022995091533 0.002262054799 0.0022255472236 
0.00218998458 0.0021553253608 0.0021216203093 0.0020881715251 0.002056252556 0.0020250749044 0.0019946265215 0.0019652196218 0.0019360076031 
0.0019073063735 0.0018790778791 0.0018512830625 0.0018239241902 0.001796996044 0.0027289490186 0.0026811440183 0.0026344592635 0.0025888789321 
0.0025443812158 0.002500940469 0.0024585109108 0.0024170449981 0.0023765272398 0.0023369756798 0.0022983963856 0.0022608159349 0.0022242350681 
0.0021886244572 0.0021539563705 0.002120195604 0.0020872653393 0.0020546002915 0.0020233617291 0.0019927918791 0.0019628375641 0.0019337962396 
0.0019048542518 0.0018763596323 0.0018483194968 0.0018207473283 0.0027834862206 0.0027339965277 0.0026856799045 0.0026385488381 0.0025925731863 
0.0025477032552 0.0025038844994 0.0024610815915 0.0024192690755 0.0023784537378 0.0023386726465 0.0022999363432 0.002262251439 0.0022255820813 
0.0021898775703 0.0021551106625 0.0021212491593 0.0020882541711 0.002056073719 0.0020239914383 0.0019932491478 0.0019630477008 0.0019337006259 
0.0019044474192 0.0018756613845 0.0018473687164 0.002843398511 0.0027920820264 0.0027420137729 0.0026931921858 0.0026456209726 0.0025992253833 
0.0025539281074 0.0025096793459 0.0024664676982 0.0024242988342 0.0023832092201 0.0023432241966 0.0023043529924 0.0022665495782 0.0022297425144 
0.0021938999493 0.0021589773209 0.0021249654149 0.0020917918382 0.0020594173196 0.0020271499227 0.0019960373631 0.0019655101245 0.0019354409242 
0.0019061896369 0.0018771041758 0.0029092984694 0.0028560014975 0.0028040383492 0.0027534049644 0.0027041107197 0.0026560624217 0.0026091856057 
0.002563391287 0.0025186606224 0.002475015778 0.0024325109155 0.0023911787746 0.0023510250475 0.0023120007541 0.0022740162427 0.0022370104663 
0.0022009471803 0.0021658044401 0.0021315552486 0.0020981443149 0.002065488441 0.0020334690455 0.0020014153794 0.0019704399718 0.0019399226923 
0.0019103064469 0.0029819550948 0.0029265176994 0.002872468391 0.0028198810339 0.0027687392234 0.0027189370297 0.0026703617918 0.002622886395 
0.0025764952958 0.0025312420725 0.0024871863216 0.0024443983069 0.0024028598666 0.002362511376 0.0023232590984 0.0022850052959 0.0022476874921 
0.0022113118213 0.0021758730917 0.0021413266824 0.0021075852717 0.0020745285514 0.0020420421269 0.0020094955869 0.0019780251843 0.0019471213014 
0.0030621213584 0.0030043555148 0.0029480478613 0.0028933221043 0.0028401561394 0.002788449742 0.0027380350188 0.0026887794531 0.0026406265052 
0.0025936318656 0.0025478707981 0.0025034784293 0.00246042087 0.0024186377669 0.0023780015431 0.0023383850239 0.0022997098473 0.0022619760224 
0.0022252262668 0.0021894194154 0.0021544886417 0.0021202961544 0.002086706014 0.0020536376376 0.0020210807876 0.0019885678168 0.0031501062099 
0.0030898479907 0.0030311266639 0.0029740985484 0.0029187297131 0.0028649533043 0.0028125494712 0.0027613569181 0.0027112916828 0.0026624139785 
0.0026148454205 0.0025687056503 0.0025239919914 0.0024806504877 0.0024384956242 0.0023973960109 0.0023572356581 0.0023180403904 0.0022798401685 
0.0022426661221 0.0022064158662 0.0021709764091 0.0021361823527 0.0021019329611 0.0020682181907 0.0020351053126 0.0032454535053 0.0031825691954 
0.0031212957767 0.0030617678105 0.0030040351995 0.0029479852004 0.0028934242879 0.0028401541442 0.0027880654272 0.0027371997366 0.0026877088362 
0.0026397060868 0.0025932128541 0.0025481490126 0.0025043367869 0.0024616209428 0.0024199042588 0.0023791449571 0.0023394120647 0.0023007399887 
0.0022630450721 0.0022262329002 0.0021901295522 0.0021546132242 0.0021196578779 0.002085335366 0.0033461258013 0.0032805188054 0.003216760944 
0.0031546462088 0.0030944119064 0.0030359576391 0.0029790947499 0.0029236110148 0.0028694030556 0.0028164818329 0.0027649661123 0.0027149871022 
0.0026665869731 0.0026196858597 0.0025741204886 0.0025296961092 0.002486313926 0.0024439322034 0.0024025982034 0.0023623489419 0.0023231378799 
0.0022848547371 0.0022473462534 0.0022104714137 0.0021742244444 0.002138649809 0.0034489916325 0.0033806214089 0.0033140386156 0.0032494806141 
0.0031866933615 0.0031257536433 0.0030665050046 0.0030087402932 0.0029523590622 0.002897346452 0.0028437970467 0.002791822392 0.0027414621329 
0.0026926520342 0.0026452399584 0.0025990521109 0.0025539522145 0.0025099329931 0.0024669661518 0.0024251221833 0.0023843511671 0.0023445536307 
0.0023055815283 0.0022673322769 0.0022297637259 0.0021929331152 0.0035490424095 0.0034780067689 0.0034087567757 0.0033415158347 0.0032762361992 
0.0032129871279 0.0031513531439 0.0030913171305 0.0030327717656 0.0029757059993 0.0029201680202 0.0028662420566 0.0028139506129 0.0027632549577 
0.0027140025197 0.002666059123 0.0026192960372 0.0025736507595 0.0025291355587 0.0024857182239 0.0024434148054 0.0024021058756 0.0023616869837 
0.0023220567797 0.0022832029431 0.0022451422414 0.0036407038897 0.0035670641487 0.0034954705183 0.00342578576 0.0033581516779 0.0032924769072 
0.0032285983981 0.003166547024 0.0031059515906 0.0030469316414 0.0029895213533 0.0029337640206 0.0028796690197 0.0028271967862 0.0027762209682 
0.0027266251967 0.0026782902638 0.0026311418041 0.0025851711294 0.0025403421783 0.0024966197351 0.0024538993939 0.0024121186878 0.0023711924485 
0.0023310982461 0.0022918702571 0.0037189595752 0.0036430107598 0.0035691669582 0.003497450441 0.0034277210289 0.0033599101451 0.0032940219523 
0.0032298973303 0.003167587623 0.0031068083365 0.0030476973602 0.0029903082335 0.0029346128847 0.0028805747741 0.0028280782467 0.0027770138461 
0.0027272897051 0.0026788262332 0.0026315674566 0.0025855051147 0.0025405528223 0.0024966291778 0.0024536532625 0.0024115452944 0.002370345289 
0.0023300685143 0.0026931515506 0.002654555682 0.0026166396126 0.0025793919619 0.0025427901737 0.0025068116602 0.0024714340675 0.0024366308077 
0.0024023883588 0.0023687148663 0.0023356201417 0.0023030865322 0.002271257513 0.0022400860129 0.0022095649045 0.0021797577586 0.0021504371176 
0.0021216162915 0.0020932868983 0.0020654248767 0.0020380173669 0.0020110654566 0.0019844977504 0.0019583206563 0.0019325164561 0.0019070830815 
0.0027252588651 0.0026861123693 0.0026471354387 0.0026088452215 0.0025712333957 0.002534302359 0.002498038775 0.0024623998727 0.0024273721906 
0.0023929424313 0.0023591169374 0.0023259184319 0.0022933399884 0.0022615040942 0.0022303445269 0.0021998309861 0.002169900253 0.0021406140929 
0.0021117338784 0.0020833722423 0.0020554517424 0.0020279929667 0.0020009845341 0.0019743643485 0.0019481293419 0.0019222647382 0.0027522179854 
0.0027115552607 0.0026715934304 0.0026328296248 0.0025942805442 0.0025564581582 0.0025193540529 0.002482941018 0.0024471793064 0.0024120362652 
0.002377522059 0.0023436591633 0.0023104864668 0.0022779871375 0.0022462550272 0.0022151952361 0.0021847498311 0.002154858148 0.0021255810595 
0.0020967112472 0.0020683362505 0.0020404782836 0.0020130469424 0.0019860335907 0.0019594311382 0.0019331855703 0.0027755520187 0.0027339115678 
0.002692983849 0.0026527805343 0.0026133331685 0.0025751548747 0.0025372516614 0.0025000868734 0.0024636134068 0.0024277856158 0.0023925980035 
0.0023580982119 0.0023243133463 0.0022912797778 0.0022589992274 0.0022273851485 0.0021964586724 0.0021660994272 0.0021362650791 0.0021070454795 
0.0020782490052 0.0020499581455 0.0020221501244 0.0019947777219 0.0019678342397 0.0019412503161 0.0027975773321 0.0027549522557 0.0027130707688 
0.0026719336758 0.0026315927103 0.0025920754467 0.0025538646477 0.0025159452617 0.0024787443102 0.0024422291592 0.0024063765894 0.0023712284596 
0.0023368392544 0.0023032346887 0.0022704126026 0.0022383284579 0.0022068702795 0.002176047889 0.0021457635877 0.0021160213381 0.0020868146886 
0.0020582177925 0.0020300365907 0.002002305178 0.0019749733609 0.0019480199408 0.0028212237644 0.002776844805 0.0027339680481 0.0026918913481 
0.0026506321109 0.0026102340472 0.0025707084052 0.0025320008111 0.0024945236608 0.002457288632 0.0024207481661 0.0023849369952 0.0023499195571 
0.0023157155968 0.0022823323215 0.0022497103016 0.0022177747262 0.0021864256271 0.0021556828837 0.0021254832398 0.00209584578 0.0020667551884 
0.0020382551679 0.0020101393895 0.0019824326599 0.0019551147705 0.0028467057203 0.0028020393443 0.0027581129533 0.0027150168712 0.0026720829691 
0.0026307574785 0.0025903366749 0.0025507821112 0.0025120249832 0.002474014857 0.0024371997019 0.0024006945176 0.0023649988961 0.0023301618612 
0.0022961637287 0.0022629623596 0.0022304707104 0.0021986220967 0.0021673387877 0.00213665314 0.0021065437216 0.0020769985541 0.0020479806592 
0.0020195120401 0.0019913955987 0.0019636796093 0.002876042685 0.0028301403388 0.0027851013058 0.0027409355915 0.0026977390102 0.0026554091196 
0.0026133246127 0.0025728345277 0.002533193334 0.0024943422754 0.0024562755781 0.0024190205002 0.0023830515801 0.002347508006 0.0023128418983 
0.0022789904062 0.0022458776761 0.0022134416679 0.0021816304663 0.002150390405 0.0021197603565 0.0020897066539 0.0020601909553 0.0020311695978 
0.0020026620639 0.0019745053561 0.0029097901336 0.0028626173642 0.0028163796219 0.0027710600915 0.0027266964036 0.002683300538 0.0026409163352 
0.0025994059267 0.0025581022213 0.0025183273971 0.0024793937262 0.0024413100149 0.0024041138027 0.0023682448229 0.0023328347868 0.0022982614252 
0.0022644628868 0.0022313752147 0.0021989470573 0.0021671479569 0.0021359250744 0.0021053056528 0.0020752379635 0.0020456786597 0.0020165848138 
0.0019880012605 0.0029481680637 0.0028996410238 0.0028521053271 0.0028055642923 0.0027599748503 0.0027154226393 0.0026718521149 0.0026292454767 
0.0025875667115 0.0025468401034 0.0025062787532 0.0024672933059 0.0024292275554 0.0023920911593 0.0023558614684 0.002320934032 0.0022863796241 
0.002252575073 0.0022194625119 0.0021870076347 0.0021551841911 0.0021239245239 0.0020932507129 0.0020630996842 0.0020334357457 0.0020042487988 
0.0029911707528 0.0029411815258 0.0028922442164 0.0028443659533 0.0027975172362 0.0027517201048 0.0027069538696 0.0026631394349 0.0026203223948 
0.0025784578845 0.0025375353463 0.002496942705 0.0024579305444 0.0024198795271 0.0023827676496 0.0023465589103 0.0023115999982 0.002277009999 
0.0022431515847 0.0022099838402 0.0021774707469 0.0021455599664 0.0021141985531 0.0020834045355 0.0020531218937 0.0020233410677 0.0030387432557 
0.0029871867543 0.0029367480148 0.0028874236281 0.0028392108468 0.0027920725244 0.0027460041671 0.0027009710542 0.0026569438525 0.002613916035 
0.0025718502169 0.0025308095276 0.0024907635291 0.0024511077131 0.0024130343536 0.0023758905021 0.0023396334405 0.0023042032869 0.0022699370815 
0.0022359925316 0.0022027238153 0.0021700882239 0.0021380337579 0.0021065253846 0.0020755700806 0.0020451517385 0.0030908336839 0.0030376059406 
0.0029855638791 0.0029347037871 0.0028850022105 0.002836448009 0.0027889927204 0.0027426193851 0.0026973027628 0.0026530280843 0.0026098069586 
0.0025676295691 0.0025264916828 0.0024863346805 0.0024472140418 0.0024084307853 0.0023712548742 0.0023349041274 0.0022993725106 0.0022649806538 
0.0022309054092 0.0021974812242 0.0021646640227 0.0021324219181 0.0021007313912 0.0020696160652 0.0031475063523 0.0030924953361 0.0030387432007 
0.0029862358863 0.0029349524917 0.0028848690975 0.0028359492455 0.0027881528391 0.0027414593358 0.0026958678461 0.0026513654442 0.002607963606 
0.0025656534706 0.0025244045767 0.0024841870817 0.0024449648083 0.002406663203 0.0023687078207 0.002332260472 0.0022965813467 0.0022616389393 
0.0022277467402 0.0021941103173 0.0021610688339 0.0021286182087 0.0020967504847 0.0032089371098 0.0031520168043 0.0030964334345 0.0030421721004 
0.0029892077165 0.0029374982513 0.0028870059385 0.0028377008038 0.0027895459436 0.0027425356347 0.0026966828101 0.0026519692962 0.0026084025302 
0.0025659492935 0.0025245596083 0.0024842037472 0.0024448454648 0.0024064433685 0.0023683294124 0.0023316271253 0.0022957763726 0.0022606097942 
0.0022264550273 0.0021925581464 0.002159268183 0.0021265924151 0.0032753994826 0.0032164506008 0.0031588993819 0.0031027672223 0.0030480052668 
0.0029945735265 0.0029424144754 0.002891493743 0.0028417793374 0.0027932658925 0.002745953964 0.0026998493602 0.0026549478971 0.0026112056024 
0.0025685738675 0.002527011419 0.0024864771807 0.0024469437186 0.002408335384 0.0023706174965 0.0023331244146 0.0022969361828 0.0022614985496 
0.0022266894218 0.0021928502017 0.0021592993562 0.0033472463593 0.0032861263053 0.0032265133783 0.0031683665769 0.0031116876175 0.0030564055804 
0.0030024779841 0.0029498398816 0.0028984633107 0.0028483395022 0.0027994772135 0.0027518858126 0.0027055511138 0.0026604354084 0.002616485684 
0.0025736357262 0.0025318494744 0.0024910860897 0.0024513066319 0.0024124504546 0.0023744632082 0.0023372545279 0.0023001972626 0.0022643992138 
0.0022292171786 0.0021950676557 0.0034248250936 0.00336139994 0.0032995474072 0.0032392856971 0.0031805733188 0.0031233485523 0.0030675377641 
0.0030130614367 0.0029598954472 0.0029080487194 0.0028575277307 0.0028083552141 0.0027604970175 0.0027139187675 0.0026685561638 0.0026243370499 
0.0025812021604 0.0025391264721 0.0024980817515 0.002458007449 0.0024188360818 0.0023804980843 0.0023429114976 0.0023054655369 0.0022692802044 
0.0022337969565 0.0035083746934 0.0034424902433 0.0033782574672 0.0033157201687 0.0032548363238 0.0031955357362 0.0031377236021 0.0030813220421 
0.0030262796967 0.0029725898845 0.0029202996091 0.002869427704 0.0028199328465 0.0027717900159 0.0027249187005 0.0026792375015 0.002634670401 
0.0025911868152 0.0025487790296 0.0025073904394 0.002466959216 0.0024273985986 0.0023886391212 0.002350611934 0.002313299416 0.0022761786562 
0.0035976960174 0.003529212001 0.0034624724339 0.0033975437693 0.0033343455134 0.0032728508877 0.0032129187283 0.0031544610845 0.0030974198937 
0.0030418035446 0.0029876381824 0.0029349600288 0.0028837349921 0.0028339356185 0.0027854551377 0.0027382151211 0.0026921073124 0.0026471329936 
0.0026032608029 0.0025604788535 0.0025186951241 0.0024778433173 0.0024378197381 0.0023985796194 0.0023600862747 0.0023223576261 0.0036920272004 
0.0036208285175 0.0035514769371 0.003484004299 0.0034183824966 0.0033545429715 0.0032923748099 0.003231763122 0.0031726365282 0.0031149924494 
0.0030588784652 0.0030043151139 0.0029512803529 0.0028997197437 0.0028495311031 0.0028006263771 0.0027529399056 0.0027063974932 0.0026610004783 
0.0026167356941 0.002573510908 0.0025312809786 0.0024899377022 0.0024494096055 0.0024096731246 0.0023707430462 0.0037895176946 0.003715530742 
0.0036436454455 0.0035735497069 0.0035054161492 0.0034391567776 0.0033746586843 0.0033118048823 0.0032505254578 0.0031908004043 0.0031326526988 
0.0030761204213 0.0030211884388 0.0029677999948 0.0029158602247 0.0028652448187 0.0028158916101 0.0027677400894 0.0027207698091 0.0026749690871 
0.0026302703277 0.0025866043522 0.0025438815294 0.0025020126304 0.002460994382 0.0024208278824 0.0038878433644 0.0038110343953 0.0037362720054 
0.0036637130312 0.0035930312588 0.0035243139272 0.0034574423151 0.0033923130833 0.0033288438035 0.0032670120224 0.0032068259533 0.003148311451 
0.0030914578425 0.0030362059374 0.0029824604144 0.0029301108694 0.0028790613445 0.0028292934004 0.0027807225937 0.0027333757427 0.0026871850688 
0.0026420701684 0.002597937404 0.0025547300983 0.0025124200946 0.0024710154446 0.0039835206449 0.0039039638976 0.0038264636891 0.0037511701488 
0.003677985794 0.0036069641959 0.0035377425848 0.0034703510905 0.0034047134899 0.0033408042955 0.0032786106689 0.0032181477454 0.0031593956036 
0.0031023056619 0.0030467705954 0.0029927077183 0.0029400185204 0.0028886363908 0.0028385413693 0.0027896656299 0.002741993049 0.0026954353801 
0.0026499205767 0.0026053819428 0.0025618088562 0.0025191914607 0.0040728481163 0.0039905596653 0.003910593968 0.0038327532714 0.0037571635001 
0.0036836804338 0.0036123349295 0.0035427705342 0.0034750422348 0.0034091318541 0.0033450183066 0.0032826911559 0.0032221255333 0.0031632750262 
0.0031060398851 0.0030503387787 0.0029960791566 0.002943181763 0.0028916225997 0.0028413366652 0.0027922757632 0.0027443439594 0.0026975080767 
0.0026516995945 0.0026069057076 0.0025631218616 0.0041526180403 0.0040678120325 0.0039853911331 0.0039053419366 0.0038274966454 0.0037517716864 
0.0036781854287 0.0036065937294 0.003537066319 0.0034692913831 0.0034033770182 0.0033393203143 0.0032770879498 0.0032166159944 0.0031578182517 
0.0031006078772 0.0030449074809 0.002990633684 0.002937727414 0.0028861524887 0.00283582925 0.0027866750945 0.0027386360786 0.0026916421679 
0.0026457255788 0.0026008704133 0.0029857991893 0.0029429048873 0.0029007654765 0.0028593655431 0.0028186810747 0.0027786897897 0.0027393731621 
0.0027007181382 0.0026627197089 0.0026253624066 0.0025886599882 0.00255258248 0.0025172414569 0.0024825885179 0.0024486141837 0.002415389417 
0.0023827136748 0.0023505958197 0.0023190337978 0.0022880029327 0.0022574882706 0.0022274898371 0.0021979406137 0.0021688490942 0.0021402040011 
0.0021120019521 0.0030262425181 0.0029826256613 0.0029392680976 0.0028966801519 0.0028548438997 0.0028137569736 0.0027733933326 0.002733740066 
0.0026947826417 0.0026565187901 0.0026189292056 0.0025820414988 0.0025458149306 0.0025103615192 0.0024756148179 0.0024415465776 0.0024081176605 
0.0023754034121 0.002343167089 0.0023115178373 0.002280372413 0.0022497478215 0.0022196377059 0.00218998422 0.0021607946683 0.0021320540421 
0.0030633662798 0.003018026717 0.0029734937509 0.0029302547443 0.002887305808 0.0028451460813 0.0028037688612 0.0027631444717 0.0027232599476 
0.0026840965855 0.0026456556978 0.0026079377079 0.0025709547295 0.002534680255 0.0024991964788 0.002464420455 0.0024303192073 0.0023968431859 
0.0023640644614 0.0023317665365 0.0023000284957 0.0022688651553 0.0022381885838 0.002208004128 0.002178316008 0.0021490703751 0.0030979927479 
0.0030514506497 0.0030057398468 0.0029608639242 0.0029173196095 0.0028741071407 0.0028317217754 0.0027901396959 0.0027493409985 0.0027092968006 
0.0026699949337 0.002631462555 0.0025936988647 0.0025567118105 0.0025204616226 0.0024849921091 0.0024502344211 0.0024161186441 0.0023826286682 
0.0023498277585 0.0023175164732 0.0022857656199 0.0022545600045 0.002223864892 0.002193692437 0.0021639755602 0.0031316969413 0.0030839322601 
0.0030370431803 0.0029910161209 0.0029458722661 0.002901609548 0.0028587044602 0.0028161558683 0.0027744205123 0.0027334844973 0.0026933265358 
0.0026539618759 0.0026154128972 0.0025776735172 0.0025407368972 0.0025045769318 0.0024691091012 0.0024343608169 0.0024002509557 0.002366769264 
0.0023339741088 0.0023016764933 0.0022699418439 0.0022387334839 0.0022080306412 0.0021778072912 0.0031667607503 0.0031170004392 0.0030688877587 
0.00302169897 0.0029754193004 0.0029300628014 0.0028856307442 0.0028420885258 0.0027998712165 0.0027580205473 0.002716978071 0.0026767649123 
0.0026374025898 0.0025988837726 0.0025612066052 0.0025243284673 0.0024882093008 0.0024527739079 0.0024180349255 0.0023839366586 0.0023504705735 
0.0023176121151 0.0022854083958 0.0022536747519 0.0022224548566 0.0021917336945 0.0032029694557 0.003152687974 0.0031032924115 0.003054154718 
0.0030066935116 0.0029602037087 0.0029146763523 0.0028700850679 0.0028263960594 0.0027835758324 0.0027420789109 0.0027009788647 0.0026607589148 
0.0026214299474 0.0025829681207 0.0025453434483 0.0025085014752 0.0024724014783 0.0024369703305 0.0024022301646 0.0023681439321 0.0023346878588 
0.0023018310144 0.0022696109766 0.0022378511578 0.0022066050677 0.0032421780166 0.003190431889 0.0031397020716 0.0030899738535 0.0030413327585 
0.0029929315834 0.0029462458732 0.0029005379725 0.0028557824848 0.002811939854 0.0027690029829 0.002727427849 0.002686308631 0.0026461128717 
0.0026068162695 0.0025683893572 0.0025307781483 0.0024939366103 0.002457822892 0.0024223794855 0.0023876306702 0.0023535314532 0.0023200568473 
0.0022871637475 0.0022548935982 0.0022230884069 0.0032849393938 0.0032317180812 0.0031795657404 0.0031284757136 0.0030784521751 0.003029486967 
0.0029816163442 0.0029340239228 0.0028881292265 0.0028431890574 0.0027992100817 0.0027561820102 0.0027141122669 0.0026734283975 0.0026332427306 
0.0025939540713 0.002555517475 0.0025178790129 0.0024810050975 0.0024448639233 0.0024093829231 0.0023746017887 0.0023404572476 0.0023069128233 
0.0022739511747 0.0022416096876 0.0033316341264 0.0032768501036 0.0032231906121 0.0031706318262 0.003119205567 0.0030688878748 0.0030196564246 
0.0029714917747 0.0029243604554 0.0028776329622 0.0028325370326 0.0027884419206 0.0027453410817 0.0027032338132 0.0026620908258 0.0026223115685 
0.0025829844758 0.0025444930629 0.0025068031897 0.0024698677691 0.0024336679686 0.0023981216624 0.0023632615601 0.0023290287535 0.0022953926712 
0.0022623391004 0.0033824138307 0.0033259535778 0.0032706915676 0.0032166221071 0.0031637080085 0.0031119631955 0.0030613420804 0.0030118103475 
0.0029633873852 0.0029160364588 0.0028697380615 0.0028238754705 0.0027796745983 0.0027365068208 0.0026943452757 0.0026531580156 0.0026132982 
0.0025738977115 0.0025353294088 0.0024975510734 0.0024605348212 0.0024242258287 0.0023885738961 0.0023535983768 0.0023192439647 0.002285500638 
0.0034373755224 0.0033791423929 0.0033221741936 0.0032664560499 0.0032119761883 0.0031587002845 0.003106620057 0.0030556948846 0.0030059035022 
0.0029572325906 0.0029096352939 0.0028631654603 0.0028177823834 0.0027728696025 0.0027296176951 0.0026873748424 0.0026460889895 0.0026057249774 
0.002566616058 0.002527942682 0.002490049996 0.0024528995943 0.0024164485951 0.002380660657 0.0023455410854 0.0023110614439 0.0034965602053 
0.0034364527975 0.0033776764545 0.0033202218364 0.0032640636981 0.0032091865253 0.0031555388044 0.0031031126902 0.0030518710579 0.0030018037038 
0.0029528950133 0.0029051371255 0.0028585137049 0.0028129577543 0.0027685267685 0.0027245180753 0.0026822003204 0.0026407953041 0.0026003063295 
0.0025610582182 0.0025222380845 0.0024841898123 0.0024468697843 0.0024102523161 0.0023742998676 0.0023390312627 0.0035600709185 0.0034979712149 
0.0034372843326 0.0033779837907 0.0033200530832 0.0032634598287 0.0032081748895 0.0031541572354 0.0031013819715 0.0030498386103 0.0029995021355 
0.0029503750143 0.0029024325373 0.0028556480718 0.0028099879452 0.0027654142582 0.0027218593248 0.0026787295006 0.0026372042848 0.0025965505051 
0.0025567521458 0.002518123592 0.0024798849172 0.0024423655719 0.002405563204 0.0023694397463 0.0036280274933 0.0035638140732 0.0035011035341 
0.0034398569216 0.0033800531457 0.0033216535525 0.003264625247 0.0032089265573 0.0031545318478 0.0031014191208 0.0030495877355 0.0029990007933 
0.0029496591227 0.0029015343357 0.0028545739506 0.0028087466056 0.0027640039963 0.002720320618 0.0026769725256 0.0026352330646 0.0025944118496 
0.0025544043929 0.0025155458525 0.0024770777431 0.0024393440803 0.0024023406141 0.0037005956238 0.0036341625666 0.0035692859438 0.0035059817079 
0.003444194896 0.0033838915637 0.0033250147966 0.003267547409 0.003211441005 0.0031566804444 0.0031032468118 0.0030511309089 0.0030003188545 
0.0029507689237 0.0029024356941 0.0028552735976 0.0028092497909 0.0027643219193 0.0027204205221 0.0026775172111 0.0026349503827 0.0025938184816 
0.002553584003 0.002514112736 0.0024757440739 0.0024377887738 0.0037779275228 0.0037091355193 0.0036420171356 0.0035765215403 0.0035126421771 
0.0034503101052 0.0033895001085 0.0033301535737 0.003272244084 0.003215738235 0.0031606229456 0.0031068866088 0.0030545146128 0.003003457031 
0.0029536793985 0.0029051209163 0.0028577318212 0.002811483631 0.002766312501 0.0027221703336 0.0026790135121 0.0026367685298 0.0025948221012 
0.0025542840935 0.0025145028973 0.0024758764833 0.0038601069124 0.0037888353838 0.0037193174917 0.0036515454586 0.0035854620011 0.0035210260291 
0.0034581762776 0.0033968483797 0.0033370131944 0.0032786634444 0.0032217737577 0.0031663350464 0.0031123171158 0.003059677036 0.0030083673463 
0.0029583298283 0.0029095033785 0.0028618531944 0.0028153408391 0.0027698972658 0.0027254760133 0.0026820180506 0.0026394628695 0.0025972092432 
0.0025563629713 0.0025163593171 0.0039470811538 0.0038731946326 0.0038011575155 0.0037309674045 0.0036625738216 0.0035959067557 0.0035309129343 
0.0034675286273 0.0034057023942 0.0033454032112 0.0032866513193 0.0032294175334 0.0031736503731 0.0031193427714 0.0030664207289 0.0030148279212 
0.0029644884536 0.0029153659671 0.0028674277496 0.0028206100527 0.0027748625269 0.0027301129576 0.0026863204711 0.0026434293968 0.0026014070052 
0.002559706389 0.0040384099522 0.0039617998076 0.0038871452774 0.0038144347706 0.0037436051558 0.0036746299109 0.0036073906154 0.0035418420649 