# vtk DataFile Version 5.1
vtk output
ASCII
DATASET STRUCTURED_POINTS
DIMENSIONS 26 26 26
SPACING 0.08 0.08 0.08
ORIGIN -1 -1 0.5
POINT_DATA 17576
FIELD FieldData 1
potential 1 17576 double
0.0077765955308 0.0077134745393 0.0076486765054 0.0075822389333 0.0075142444337 0.0074447588214 0.0073736764763 0.007301025859 0.007226824418 
0.0071512693393 0.0070745678239 0.006997026652 0.0069190427534 0.0068407648845 0.006762264674 0.0066834758916 0.0066042804433 0.0065246394284 
0.0064445505711 0.0063640675751 0.0062832818922 0.0062022601944 0.0061209452747 0.0060393626579 0.0059575195447 0.0058755337766 0.0079689981533 
0.0079025858624 0.0078342981284 0.007764238229 0.0076925907348 0.0076195021036 0.0075450408646 0.0074691372668 0.0073917390617 0.007312933241 
0.0072329504207 0.0071520348971 0.0070705843188 0.0069889167854 0.0069070878322 0.0068250275703 0.0067425944627 0.0066596826844 0.0065762858969 
0.0064925038927 0.0064084582813 0.0063242457525 0.006239859206 0.0061552789798 0.0060704323611 0.0059853817207 0.0081445134117 0.0080749122898 
0.0080032130022 0.0079295514126 0.0078543342415 0.0077777291853 0.007699855808 0.0076206848749 0.0075400674369 0.0074579711297 0.0073746187972 
0.0072902894646 0.0072054422314 0.0071203810556 0.0070352743016 0.0069500079729 0.0068644297829 0.0067783138 0.0066916747073 0.0066046434188 
0.0065174061504 0.0064301045911 0.0063427358863 0.0062551963398 0.0061673876852 0.0060793521371 0.0083141560367 0.0082412176896 0.0081660085046 
0.0080888004973 0.0080099009061 0.0079297143738 0.0078483773434 0.0077658102471 0.0076818592173 0.0075963275434 0.0075094286316 0.0074215544293 
0.0073331852348 0.0072446906957 0.007156219581 0.0070676993834 0.0069788304823 0.0068894320922 0.0067994583404 0.006709119423 0.0066186245791 
0.0065281713547 0.0064377544659 0.0063472112772 0.0062563929811 0.0061652604952 0.008490120443 0.0084137033624 0.0083349007404 0.0082538886427 
0.0081712081291 0.008087252795 0.0080021798864 0.0079159746742 0.0078283134705 0.0077391505661 0.0076484946332 0.0075568211953 0.0074647099677 
0.0073724927849 0.0072803920309 0.0071883159595 0.0070959380281 0.0070030415516 0.0069095211223 0.006815659966 0.0067217135619 0.006627892756 
0.0065341836466 0.0064404105862 0.0063463434393 0.0062519492291 0.0086835993353 0.0086034246808 0.0085206457272 0.0084356652962 0.0083489673935 
0.0082608947685 0.0081717608766 0.0080814722842 0.0079897382797 0.0078964857611 0.0078017742387 0.0077059572317 0.0076096923669 0.0075134970836 
0.0074174434767 0.0073214083825 0.0072250836006 0.0071282162735 0.0070308675497 0.0069331371021 0.0068353860999 0.0067378065279 0.0066404079654 
0.0065429820754 0.00644529843 0.0063473183662 0.008903136248 0.0088186665193 0.0087316750302 0.0086423140081 0.0085511890331 0.0084586413837 
0.0083649124172 0.0082701186957 0.0081738085781 0.0080759565963 0.0079766461372 0.007876386073 0.0077755875472 0.0076748299885 0.0075742334148 
0.0074737542135 0.0073730421513 0.0072718379845 0.0071701104893 0.007068101644 0.0069660244088 0.006864190506 0.0067625765041 0.0066609827767 
0.0065592119807 0.0064572241523 0.0091538625622 0.0090648736569 0.0089731690787 0.0088791014165 0.0087829599442 0.0086854260914 0.0085866607713 
0.0084865962499 0.0083851352768 0.0082822213707 0.0081778734067 0.0080725197381 0.0079666833866 0.0078608599791 0.0077551749759 0.007649573746 
0.0075437956572 0.0074376773753 0.0073311498263 0.0072243546938 0.0071175109823 0.0070108580625 0.0069043665356 0.0067980341128 0.0066916375485 
0.0065851448037 0.0094387872232 0.0093446091112 0.009247775363 0.0091484426002 0.0090470525753 0.0089439651859 0.0088394831946 0.0087335215442 
0.0086262995955 0.0085176048789 0.008407684009 0.0082967181852 0.0081852810418 0.0080736603049 0.0079622175774 0.0078508060327 0.0077393122602 
0.0076275917126 0.0075156262576 0.0074034904402 0.0072913512205 0.0071793565687 0.0070675064621 0.0069558231159 0.0068441216523 0.0067325811 
0.0097590539277 0.0096591618354 0.009556571464 0.0094514982185 0.0093442271838 0.0092350560505 0.0091242798115 0.0090119671008 0.00889829495 
0.0087831142558 0.0086668422796 0.0085496062606 0.0084318820279 0.0083139304108 0.0081959859675 0.0080781613787 0.0079602996359 0.0078423369534 
0.0077242104937 0.0076060035821 0.0074878834753 0.0073699324967 0.0072521461406 0.0071344937255 0.0070170837425 0.0068999222865 0.010115708481 
0.010009498811 0.0099004418666 0.0097888775068 0.0096749910205 0.0095591510356 0.0094415896918 0.0093222342591 0.0092014207786 0.0090792520661 
0.0089558401782 0.0088314961511 0.0087067167652 0.0085817403916 0.008456673574 0.0083316894495 0.0082067089997 0.0080817972413 0.0079568503715 
0.0078319688546 0.0077071583242 0.0075825550243 0.0074581109499 0.0073340286373 0.0072102030619 0.0070868046321 0.010509518673 0.010396333214 
0.010280309654 0.010161583831 0.010040464963 0.0099171955009 0.0097919232941 0.0096649560549 0.0095364086354 0.0094063738017 0.0092751321299 
0.0091431013868 0.0090104419224 0.0088774827334 0.0087445130061 0.0086116927461 0.0084789041255 0.0083462480995 0.0082137437935 0.0080813430811 
0.0079491808627 0.007817273361 0.0076856097489 0.0075543029595 0.0074234340578 0.0072933056163 0.010942402496 0.010821505714 0.01069759521 
0.010570998593 0.010441832209 0.010310435582 0.010176881528 0.010041411165 0.0099042278783 0.0097655786216 0.0096258047863 0.0094851392027 
0.009343870133 0.0092023097689 0.0090605878065 0.0089190113133 0.008777661116 0.0086364399132 0.0084955158981 0.0083549011575 0.0082146476371 
0.0080746179578 0.0079350479187 0.0077958961682 0.0076573476619 0.0075195356228 0.011417231057 0.01128780072 0.011155250289 0.011019813655 
0.0108817154 0.010741282625 0.01059863141 0.010454000258 0.010307363564 0.010159228944 0.010009855637 0.0098596600449 0.0097088942985 
0.0095578082616 0.0094066469736 0.0092554580108 0.0091043894444 0.0089538312463 0.0088036081304 0.0086538781065 0.0085046021329 0.0083558563263 
0.0082075742112 0.008059829797 0.0079128037565 0.0077667241859 0.011937869644 0.011799102712 0.011656872901 0.011511754943 0.011363906118 
0.011213534033 0.011060816404 0.010905854929 0.010748841093 0.010590108162 0.010430184356 0.010269426731 0.010108181527 0.0099467363548 
0.0097849855713 0.009623362272 0.0094619195871 0.0093007263482 0.0091402743198 0.0089804305482 0.0088212957848 0.0086628370285 0.0085049725675 
0.0083477359964 0.0081913853235 0.0080361553705 0.012509524635 0.012360436187 0.01220760158 0.012051613177 0.011892962183 0.011731710678 
0.011567907297 0.011401589456 0.011233028109 0.011062605531 0.01089085849 0.01071839437 0.010545590996 0.010372622571 0.010199446839 
0.010026254857 0.0098530979173 0.0096805299589 0.0095084720097 0.0093375255654 0.0091674930436 0.0089982950287 0.0088298787044 0.0086622709627 
0.0084956250649 0.0083302497088 0.013138611641 0.012977820504 0.012813207368 0.012645560631 0.012474857332 0.012301574466 0.01212555768 
0.011946739857 0.011765286657 0.011581810529 0.011397009476 0.011211498353 0.011025848633 0.010840188952 0.010654330385 0.010468381789 
0.010282532326 0.010097037652 0.0099123314533 0.0097288276308 0.009546740234 0.0093657171359 0.0091856706395 0.0090065280826 0.0088285042641 
0.0086520035764 0.013833161615 0.01365942106 0.013481409114 0.013300171769 0.013116239584 0.01292956923 0.012740012792 0.012547277792 
0.012351852346 0.012153744475 0.011954304238 0.0117544 0.011554465258 0.011354655736 0.011154778834 0.010954709696 0.01075454613 
0.010554855076 0.010356134083 0.010158943718 0.0099632075043 0.0097691018111 0.009576146727 0.0093842867331 0.0091936320874 0.0090047648195 
0.014600293093 0.014412096387 0.014219480388 0.014023346022 0.013824528036 0.013623102473 0.013418453235 0.013210264929 0.012998661678 
0.012784226861 0.012568426623 0.012352347667 0.012136857021 0.011921339023 0.011705820602 0.011490026413 0.011274046436 0.011058409594 
0.010844144146 0.010631554149 0.010421075431 0.010212259076 0.010005057431 0.0097990697428 0.0095944766728 0.0093919388727 0.015446588665 
0.015242468064 0.01503331508 0.014820135553 0.014604696138 0.014386304688 0.01416468822 0.013939324985 0.013710264991 0.013478061129 
0.013244255101 0.013010176196 0.012776620884 0.012543626268 0.012310689744 0.012077486198 0.011844008982 0.011610885923 0.011379155131 
0.011149724054 0.010922610927 0.010697833607 0.01047478892 0.010253158948 0.010033272096 0.0098156417349 0.016370946614 0.016149811146 
0.015922576474 0.015691598839 0.015457717697 0.015220845358 0.014980515782 0.014736153408 0.014487580211 0.014235712693 0.01398161381 
0.013727443098 0.013474140644 0.013221755299 0.01296941782 0.012716936996 0.01246426245 0.0122119511 0.011961181754 0.011712636927 
0.011467578642 0.011224893425 0.010984460645 0.010745864728 0.010509152604 0.010275145457 0.017367369452 0.017127421512 0.016881329775 
0.016630596018 0.016376404806 0.016119032269 0.015857960577 0.015592605851 0.015322962841 0.015049658434 0.014774515834 0.014498965847 
0.014224017963 0.013949897408 0.013676280556 0.013402611995 0.013128282403 0.012855456381 0.012584122546 0.012315488475 0.01205012276 
0.011787872663 0.011528079473 0.011271274876 0.011016601439 0.01076490836 0.018419986052 0.018160297186 0.017893736404 0.017621977282 
0.01734589232 0.017066288217 0.016782728133 0.016494632926 0.016202224497 0.015906271041 0.01560815353 0.015309338937 0.015010969555 
0.014713540342 0.014416771091 0.014120360658 0.013824328173 0.0135291768 0.013235974229 0.012945677407 0.012658576803 0.0123750863 
0.01209510941 0.011818191652 0.011544340112 0.011273785171 0.019505439886 0.019224784879 0.018936527202 0.018642447733 0.018343438973 
0.018040018277 0.017732555908 0.017420412026 0.017103838748 0.016783770432 0.016461477839 0.016138302981 0.015815361052 0.015493174406 
0.015171822754 0.014851294782 0.014531608734 0.014213397307 0.013897258992 0.013584294549 0.013275119856 0.01296983623 0.012668461122 
0.012370637452 0.012076448017 0.011786579786 0.020595997684 0.020293661629 0.019983349441 0.01966616076 0.019343237572 0.019015054031 
0.018682223488 0.018344753325 0.018003159714 0.017658179132 0.01731067219 0.016962150794 0.016613697782 0.016265988813 0.015919276444 
0.015573632508 0.015229338292 0.014887054637 0.014547522321 0.014211266986 0.013879143987 0.013551327489 0.013227850013 0.012908793104 
0.012594291971 0.012284872926 0.021667542913 0.02134295117 0.02100974196 0.020668979024 0.02032158761 0.019968388677 0.019609853931 
0.019246236998 0.018878366159 0.018507167571 0.018133926312 0.017759399382 0.017385009168 0.017011227835 0.016638638024 0.01626755959 
0.015898374084 0.015531546493 0.015167816712 0.01480814979 0.014452967835 0.014102453346 0.013756800752 0.013416141849 0.013080835134 
0.012751405139 0.0086914410754 0.0086203520247 0.0085473962459 0.0084726324186 0.0083961331241 0.0083179213303 0.0082380187028 0.0081564740441 
0.0080734152904 0.0079889819176 0.0079033517192 0.0078167382312 0.0077294596453 0.0076416345463 0.0075533747661 0.0074646631803 0.007375515386 
0.0072859110064 0.0071958773396 0.0071054623894 0.007014741005 0.0069237902228 0.0068325484613 0.0067411463735 0.0066496223267 0.0065580591011 
0.0089321437457 0.0088572351706 0.0087803140185 0.0087014855014 0.0086208482588 0.0085385264555 0.0084546125887 0.008369114933 0.0082820812446 
0.0081936690564 0.0081040260264 0.0080133626218 0.0079219462563 0.0078300383773 0.007737693741 0.0076449589739 0.0075517764038 0.0074581464309 
0.0073640838708 0.0072696605208 0.0071749619293 0.007080074408 0.0069850085949 0.0068898120084 0.0067945338226 0.0066991756608 0.0091656399454 
0.0090868959907 0.0090059826891 0.0089229823915 0.0088381875412 0.0087516856159 0.0086635811296 0.0085739790759 0.0084828860961 0.0083903387489 
0.0082965402357 0.0082017110351 0.0081061173768 0.0080099681215 0.0079134968556 0.0078166461109 0.0077193854008 0.0076216664528 0.0075235178301 
0.0074250308545 0.0073263076435 0.0072274467827 0.0071284956119 0.0070294346928 0.0069302850085 0.0068311605803 0.0093994195392 0.0093166234183 
0.0092315311818 0.0091442716456 0.0090551307448 0.0089642872816 0.0088718890721 0.0087779764467 0.0086826004172 0.0085857027414 0.0084874790632 
0.008388292312 0.0082883220344 0.0081878382172 0.0080870250278 0.0079858715776 0.0078843716916 0.0077824026798 0.0076799997882 0.0075772873199 
0.0074743908642 0.0073714129606 0.0072684123164 0.0071653659057 0.0070622668045 0.0069591355918 0.0096418776456 0.0095548462565 0.0094653370118 
0.0093735808569 0.0092798640364 0.0091844309119 0.0090874417981 0.0089889511306 0.0088889036107 0.0087874050787 0.0086845356791 0.0085806292647 
0.0084759593643 0.0083708420985 0.0082654067836 0.0081596863039 0.0080536039515 0.0079471100944 0.0078402004455 0.007733007611 0.0076256785294 
0.0075183440315 0.0074110389184 0.0073037469489 0.0071964165762 0.0070891096002 0.0099011632877 0.009809493978 0.0097152627059 0.0096187321418 
0.0095201801032 0.0094197801304 0.0093178023957 0.0092142863777 0.0091092078734 0.0090026953344 0.0088948085632 0.0087858090548 0.008676141669 
0.0085659888212 0.0084555715933 0.0083448700003 0.0082337647824 0.0081223502972 0.0080105834266 0.0078985230823 0.007786404189 0.0076743215781 
0.0075623314957 0.0074503969792 0.007338482136 0.0072266500737 0.010184116068 0.010087449048 0.0099881254714 0.0098863563131 0.0097824716193 
0.0096767137545 0.0095693443529 0.0094603509007 0.0093497881794 0.0092376916662 0.0091242427042 0.0090097714174 0.0088945335927 0.0087788774149 
0.0086629293399 0.0085467943034 0.0084303391964 0.0083135104706 0.0081963660138 0.0080789614975 0.0079615544719 0.0078442590496 0.0077270962554 
0.0076100660364 0.0074931329344 0.0073763521889 0.010495888213 0.01039376735 0.01028886007 0.010181408484 0.01007160244 0.0099599458254 
0.0098465936658 0.0097315397801 0.0096149787504 0.0094968100658 0.0093772944868 0.0092567340845 0.0091354546988 0.0090136777843 0.0088916793411 
0.0087694656799 0.0086469567431 0.0085241925506 0.0084011963478 0.0082780310809 0.0081548189033 0.00803174234 0.0079088068441 0.0077861344969 
0.0076636690499 0.0075414562922 0.010839885821 0.010731731026 0.010620765679 0.010507053417 0.010391047731 0.010272932039 0.010152849068 
0.010031142088 0.0099078270809 0.0097829649186 0.009656840527 0.009529568359 0.0094015837548 0.0092730632496 0.0091443432091 0.0090153667952 
0.0088861926228 0.008756872991 0.0086273739925 0.0084977739105 0.0083682649291 0.0082388378591 0.0081096680349 0.0079807701816 0.0078521134384 
0.0077239192905 0.011218509643 0.011103758544 0.010986044284 0.010865723979 0.010742740342 0.010617547584 0.010490278774 0.010361270528 
0.010230563586 0.010098238438 0.0099647031116 0.009830059078 0.009694717458 0.0095588244851 0.0094226036742 0.0092862525787 0.0091497259115 
0.0090130814178 0.008876361272 0.0087396367536 0.0086031432355 0.0084667739115 0.0083307251396 0.0081950095609 0.0080596949653 0.0079249291588 
0.011633835468 0.011511883237 0.011386826793 0.011258909921 0.011128312208 0.01099541073 0.01086043129 0.010723335659 0.010584516098 
0.010444115158 0.010302400724 0.010159560474 0.010016001124 0.00987200707 0.0097276526849 0.0095831331431 0.0094384970174 0.0092938348985 
0.0091491932692 0.0090046702615 0.0088603692765 0.0087163571468 0.0085726760781 0.0084295482145 0.0082869159585 0.0081449506903 0.012087901967 
0.01195801562 0.011824866957 0.011688706154 0.011549811594 0.011408340837 0.011264651159 0.011118848808 0.010971249192 0.010821935163 
0.010671225127 0.010519458488 0.010366840502 0.010213839714 0.010060509223 0.0099070722838 0.0097535516575 0.009600088576 0.0094466912962 
0.0092935745564 0.0091407605337 0.008988358973 0.0088364362079 0.0086850572503 0.0085343776153 0.0083846542903 0.012582844359 0.012444253854 
0.012302256087 0.012157098049 0.012008999788 0.01185824605 0.011705052566 0.011549618828 0.011392269434 0.011233197579 0.011072779298 
0.01091118748 0.01074884214 0.010585877662 0.010422558339 0.010259278811 0.010096066186 0.0099329094188 0.0097700173367 0.00960743674 
0.0094453395186 0.0092837454813 0.0091227473532 0.0089624564771 0.008803024371 0.0086446267933 0.013121881613 0.012973754919 0.012821985673 
0.012666857606 0.012508625305 0.012347649342 0.012184081769 0.012018223175 0.011850226888 0.011680460301 0.011509239557 0.011336832963 
0.011163730186 0.010990016647 0.010816039139 0.010641809189 0.010467786564 0.010294114871 0.010120697527 0.0099477669498 0.0097754507869 
0.0096038097448 0.0094329333624 0.0092628979401 0.0090938947079 0.0089260991365 0.013708838343 0.013550181088 0.013387611967 0.013221594434 
0.013052334837 0.012880084081 0.012705134312 0.012527674218 0.012347984773 0.012166341489 0.011983310317 0.011799069227 0.011614077735 
0.011428648354 0.011242754492 0.011056839657 0.01087103196 0.010685527466 0.010500690452 0.010316387426 0.010132910081 0.0099502850008 
0.0097685161757 0.0095878374394 0.0094083523686 0.0092303046315 0.014347960295 0.014177852606 0.014003489527 0.013825414229 0.013643970584 
0.013459421864 0.013271952046 0.013081749165 0.012889174068 0.012694556959 0.012498360677 0.012301103885 0.012103157548 0.011904672755 
0.011705967203 0.011507081253 0.011308331933 0.011110104259 0.010912366511 0.010715690186 0.0105199968 0.010325291988 0.010131725817 
0.0099393915381 0.0097484425959 0.0095591048442 0.015044387313 0.014861447609 0.014674165088 0.014483124513 0.014288239235 0.014090144641 
0.013888951263 0.01368480901 0.013477995682 0.013269038617 0.013058448847 0.012846737243 0.012634441251 0.012421747927 0.012208832246 
0.011995783788 0.011782936857 0.011570584307 0.011358956001 0.011148389478 0.010939256989 0.010731359551 0.01052484901 0.010319779119 
0.010116233397 0.0099146436171 0.015803937806 0.015607014366 0.015405227756 0.015199381159 0.014989766284 0.014776719641 0.014560383379 
0.014340869936 0.014118757722 0.013893919527 0.013667435996 0.013439925814 0.013211788773 0.012983419555 0.012754864059 0.012526247366 
0.012297820493 0.012069948911 0.011843104903 0.011617577295 0.011393394677 0.011171058385 0.010950275472 0.010731195224 0.010513954912 
0.01029894014 0.016631026992 0.016418608585 0.016201155719 0.015979144749 0.015753310034 0.015523871957 0.015290851468 0.015054385524 
0.01481474064 0.014572556867 0.014328508417 0.01408352687 0.013838343408 0.013592650807 0.013346913932 0.013101138559 0.012855619168 
0.012610702309 0.012367051529 0.01212496831 0.011884752285 0.011646262762 0.011409973534 0.011175561467 0.010943295812 0.01071361463 
0.017529508363 0.017300157624 0.01706519511 0.01682508395 0.016581317217 0.016333551045 0.016082217446 0.015826975641 0.015568627039 
0.015307355725 0.015044183018 0.014779972784 0.014515388328 0.014250705267 0.013986079967 0.013721275265 0.013457296303 0.013193827518 
0.012931686918 0.012671555868 0.012413589444 0.012157947308 0.011904360267 0.011653337994 0.011404754652 0.011159066016 0.018497018061 
0.018249425238 0.017995384654 0.017736456739 0.017473112984 0.017205592709 0.016934091085 0.016658661279 0.016379536663 0.016097437879 
0.015812870234 0.01552745873 0.01524195579 0.014956660806 0.014671296575 0.014386189813 0.014101558767 0.013817803887 0.013535671903 
0.01325553359 0.012978539352 0.012703961492 0.012432069907 0.012162834116 0.011896493781 0.011633568245 0.019528682492 0.019261227691 
0.018987183247 0.01870740023 0.01842274505 0.01813363603 0.017840222484 0.017542615638 0.017241165487 0.01693640794 0.016629641706 
0.016321772071 0.016013571715 0.015705480154 0.015397712083 0.015090269809 0.014782830429 0.01447747158 0.014173796705 0.013872663981 
0.013574525484 0.013279482293 0.012987326338 0.012698979514 0.012413749765 0.012132243853 0.020614424592 0.020325770386 0.020029966125 
0.019727864389 0.019420243818 0.019108065319 0.018790957122 0.018469415456 0.018143927153 0.0178151573 0.017484119022 0.017151807533 
0.016819133164 0.016486728388 0.016154780846 0.015823482114 0.015493111448 0.015164333152 0.014837675706 0.014513912193 0.014193197528 
0.013876130145 0.013562926741 0.013253567335 0.0129478741 0.012646967656 0.021739788158 0.021428685711 0.021109538597 0.0207836714 
0.020451780342 0.020114727775 0.019772394835 0.019425514095 0.019074365941 0.018719953023 0.018363109045 0.018004984014 0.017646460713 
0.017288134575 0.016930428067 0.016573800392 0.016218494141 0.015865134537 0.015514277666 0.015166665551 0.014822792943 0.014482973179 
0.014147465101 0.013816224015 0.013489462143 0.013167799875 0.022889205481 0.022554438672 0.022211086024 0.021860263628 0.021502493224 
0.021138963984 0.020769972024 0.020396055301 0.020018132426 0.019636671289 0.019252676071 0.018867306288 0.018481524668 0.018096075245 
0.017711451478 0.017328071968 0.016946452466 0.016567390087 0.016191182026 0.015818710149 0.015450457463 0.015086747419 0.014727860584 
0.014374016871 0.014025667277 0.013683090902 0.024049939537 0.023690370018 0.023321618388 0.022944594226 0.022560115293 0.022169063065 
0.021772111924 0.021369715368 0.020962997225 0.020552875967 0.020140593078 0.019726818036 0.01931253006 0.018898693 0.018485960477 
0.018074900864 0.01766605664 0.017260035242 0.016857474836 0.016459194153 0.01606586341 0.015677502415 0.015294584892 0.014917408479 
0.014546400631 0.014182003716 0.0096208197784 0.0095417507667 0.009460622657 0.0093774924153 0.0092924691863 0.0092055333843 0.009116788362 
0.0090263527813 0.0089343612357 0.0088408821445 0.0087461269873 0.0086502976328 0.0085535936762 0.0084561627625 0.0083581170654 0.0082595031412 
0.0081603715079 0.0080607700474 0.0079607177577 0.0078602809628 0.0077595391326 0.0076585789918 0.0075573666524 0.0074560426805 0.0073546950247 
0.0072534047086 0.0099048970621 0.0098215175267 0.0097359579882 0.0096483009316 0.009558639415 0.009467116804 0.0093737667856 0.0092787420056 
0.0091820884444 0.0090840142282 0.0089845701689 0.0088840418403 0.0087825708835 0.0086804106034 0.0085776298785 0.0084742930442 0.0083704359318 
0.0082661221708 0.008161378891 0.0080562733093 0.0079508943692 0.0078453241817 0.0077396063997 0.0076338144114 0.0075280278498 0.0074223043542 
0.010188939182 0.010101148788 0.010011023249 0.0099186564972 0.0098242400117 0.0097278794366 0.0096297476242 0.009529871903 0.0094283965931 
0.0093254485477 0.0092211753358 0.0091157349053 0.0090093472563 0.0089022095174 0.0087945263398 0.0086863014926 0.0085775798026 0.0084683957848 
0.0083588049674 0.0082488820024 0.0081387265568 0.0080284190987 0.0079180293712 0.0078076034731 0.007697217908 0.0075869669922 0.010478285353 
0.010385822448 0.010290866057 0.010193593195 0.010094201417 0.0099928144862 0.0098896028359 0.0097846726459 0.0096781133521 0.009570013933 
0.0094605074294 0.0093499226426 0.0092383921705 0.0091260963623 0.0090132255014 0.0088998319421 0.008786019189 0.0086717287434 0.0085570512841 
0.0084420830801 0.008326922452 0.0082116497838 0.0080963695301 0.0079811080419 0.0078659354507 0.0077508969383 0.010779031148 0.010681633465 
0.010581582481 0.010479106206 0.010374416844 0.010267695063 0.010159112263 0.01004877676 0.0099367293298 0.0098231503868 0.0097081728126 
0.0095920027804 0.009474953724 0.0093571531099 0.0092387750384 0.0091199226693 0.0090006177528 0.0088809022568 0.0087608305137 0.0086405087459 
0.0085200406013 0.0083995260632 0.0082790590411 0.00815865527 0.0080383998606 0.0079183513956 0.011097411348 0.01099460812 0.010889093155 
0.010781078605 0.010670780262 0.01055830234 0.010443899646 0.01032769403 0.010209753541 0.010090339465 0.009969426357 0.0098473275283 
0.0097243570268 0.0096006180493 0.0094763426566 0.0093515608633 0.009226331449 0.0091008049104 0.0089749309611 0.0088488324019 0.0087226611655 
0.0085965025902 0.008470441798 0.0083445309687 0.0082188062179 0.0080933746559 0.011438912752 0.01133036014 0.011218938216 0.011104949253 
0.010988472966 0.01086980407 0.010749185046 0.010626638599 0.010502359031 0.010376432956 0.010249126692 0.010120584468 0.0099911222097 
0.0098609594567 0.0097302277804 0.0095991209935 0.009467545158 0.0093356464932 0.0092035064255 0.0090711253136 0.0089387473393 0.0088064640545 
0.0086743452705 0.008542450461 0.0084108331599 0.0082795816685 0.011808347686 0.01169352848 0.011575709206 0.011454997845 0.011331910455 
0.011206541329 0.011079027577 0.010949570801 0.010818396576 0.010685492403 0.010551141686 0.010415639778 0.010279156451 0.010141964355 
0.010004243567 0.0098660906498 0.0097275969168 0.0095887894992 0.0094498002373 0.0093106768049 0.0091715636958 0.0090325409978 0.0088938349691 
0.0087554182059 0.0086173889063 0.0084798352253 0.01220914153 0.012087524526 0.011962731246 0.011835061106 0.011704736041 0.011571991014 
0.011436920124 0.011299962708 0.011161121554 0.01102057788 0.01087865533 0.010735435033 0.010591270453 0.010446384006 0.010300980195 
0.010155160536 0.010009091131 0.0098627076375 0.0097162491123 0.00956976831 0.009423368008 0.0092771232843 0.0091312105644 0.0089856094828 
0.0088405894582 0.0086961706075 0.012644367198 0.012515286595 0.012382957203 0.012247666412 0.012109455993 0.011968682182 0.011825532546 
0.011680332345 0.011533071584 0.011384250389 0.011233905953 0.011082383431 0.010929803917 0.010776510837 0.010622663575 0.0104684946 
0.010314036272 0.010159404148 0.010004734969 0.0098501065619 0.0096957925154 0.009541629079 0.0093878951189 0.0092346771313 0.0090820276688 
0.0089300593182 0.013116701034 0.012979546451 0.012838953863 0.012695151698 0.0125483716 0.012398968502 0.012246968419 0.012092787374 
0.011936559538 0.011778539629 0.011618919099 0.011458175599 0.011296408916 0.011133988116 0.010970996162 0.010807666014 0.010644096333 
0.010480447456 0.010316828692 0.010153356659 0.0099902087517 0.0098274419984 0.0096651924156 0.0095035881458 0.0093426503154 0.0091826254396 
0.013628766408 0.013482747874 0.013333101352 0.013180070999 0.013023922527 0.012864904187 0.012703328199 0.012539343344 0.012373279256 
0.012205330797 0.012035756383 0.011864898291 0.011692996027 0.011520497874 0.011347547782 0.011174216705 0.011000696974 0.010827198423 
0.01065373962 0.010480648565 0.010307926964 0.010135728799 0.0099641746934 0.0097933572479 0.0096234677251 0.0094546980359 0.014183052499 
0.01402738923 0.01386785725 0.013704787748 0.013538403349 0.013369012626 0.013196798368 0.013022162362 0.012845260073 0.012666505504 
0.012486032066 0.012304217914 0.012121448449 0.011937853548 0.011753761387 0.011569538069 0.011385269101 0.011200989336 0.011016969716 
0.010833288781 0.010650173826 0.0104677201 0.010286019505 0.010105289924 0.0099255937893 0.0097471783407 0.014782870919 0.014616614587 
0.014446295439 0.014272145371 0.014094566003 0.013913776251 0.013730137396 0.013543814937 0.013355148518 0.013164500079 0.012972063096 
0.012778371913 0.012583577031 0.012388093534 0.012192136335 0.011995810757 0.011799621617 0.011603682251 0.01140795256 0.01121280719 
0.011018358613 0.010824711299 0.010632059428 0.010440466064 0.010250192882 0.010061331171 0.015431774691 0.015253908858 0.015071764074 
0.014885599562 0.014695809889 0.01450256779 0.014306275981 0.014107196611 0.013905617895 0.01370191234 0.013496493626 0.013289656948 
0.013081785175 0.012873269091 0.012664221352 0.012455021873 0.012245716161 0.012036881275 0.011828567615 0.011620887871 0.01141407678 
0.011208288255 0.011003589793 0.010800249846 0.010598382107 0.010398245193 0.016133560438 0.015943158605 0.015747994464 0.015548691745 
0.015345455712 0.015138660601 0.014928520422 0.014715462013 0.014499774015 0.014281826958 0.014062044677 0.013840929352 0.013618824608 
0.013395977466 0.013172751668 0.012949199179 0.012725936665 0.012503078949 0.012280714711 0.012059462755 0.011839193327 0.011620111127 
0.011402445418 0.011186291776 0.010971805887 0.010759348746 0.016892152999 0.016687876076 0.016478718907 0.016265221848 0.016047287771 
0.015825609452 0.015600457771 0.015372078231 0.015140927241 0.014907389154 0.014671966141 0.014435085009 0.014197347094 0.01395889008 
0.013720115267 0.013481246493 0.013242473972 0.01300420509 0.012766825877 0.012530420996 0.012295514759 0.012062016932 0.011830183609 
0.011600152354 0.01137202277 0.011146180198 0.017712235975 0.017492866877 0.017268096582 0.017038603371 0.01680460475 0.01656665809 
0.01632500301 0.016079957313 0.015832185369 0.015581537051 0.01532895316 0.015074937854 0.01482000153 0.014564517773 0.01430872889 
0.014052904809 0.013797361525 0.013542442671 0.013288566611 0.013035873575 0.012784805261 0.012535628759 0.012288318981 0.012043130906 
0.011800211177 0.011559888195 0.018596702294 0.018360734182 0.018119191707 0.017872340584 0.017620917407 0.017365132 0.017105437112 
0.01684210208 0.016575521039 0.016306269836 0.016034912465 0.01576218454 0.015488789557 0.015214634322 0.014940284796 0.01466601393 
0.014392092405 0.014118985436 0.013847098339 0.013576784878 0.013308368323 0.01304182266 0.012777816818 0.012516173644 0.012257151399 
0.012001124286 0.019548218138 0.019294293796 0.019033619799 0.018768009323 0.01849737134 0.018222039208 0.017942631416 0.017659359797 
0.017372624998 0.017083063426 0.016791346136 0.016498143843 0.016204083917 0.01590956365 0.015614739144 0.015320367008 0.015026788404 
0.014733917641 0.01444246735 0.01415295175 0.013865623127 0.013580763111 0.013298335492 0.013018952058 0.012742561115 0.012469556919 
0.020564769849 0.020291310132 0.02001110895 0.019724844081 0.019433334522 0.019136950156 0.018836178658 0.018531208776 0.018222578519 
0.01791093955 0.017596339739 0.017280961526 0.016964723261 0.016648271376 0.016331715108 0.016015504679 0.015700039469 0.015385731014 
0.015072875844 0.014762557213 0.014455106902 0.014150205988 0.013848355132 0.013549614736 0.01325453634 0.012963327042 0.021642986006 
0.021348461253 0.021046923907 0.020738625676 0.0204246573 0.020105431856 0.019781382398 0.019452977188 0.019120520955 0.018785047255 
0.018447208513 0.018107849052 0.017767659808 0.017427201665 0.017086908186 0.016746861782 0.016407655706 0.016070481695 0.015735180586 
0.015402534008 0.01507285243 0.014746093302 0.014423214632 0.014104392661 0.013789317222 0.013478516422 0.022777064747 0.022460007201 