# vtk DataFile Version 5.1
vtk output
ASCII
DATASET STRUCTURED_POINTS
DIMENSIONS 26 26 26
SPACING 0.08 0.08 0.08
ORIGIN -1 -1 0.5
POINT_DATA 17576
FIELD FieldData 1
potential 1 17576 double
0.00068109580805 0.00068682802724 0.00069263476891 0.00069851562636 0.00070446316924 0.00071047099787 0.00071652346501 0.00072261572334 0.00072873300499 
0.00073489616802 0.00074111480964 0.00074740916593 0.00075380624865 0.00076028959285 0.0007668493407 0.00077352695837 0.00078028421846 0.00078712646578 
0.00079405887693 0.00080108732206 0.00080823751744 0.00081550451821 0.00082288166681 0.00083036116824 0.0008379459771 0.00084563982686 0.00068027865774 
0.00068599136732 0.00069176825852 0.00069761342467 0.00070352928521 0.00070952499223 0.00071558794561 0.00072169620243 0.00072785164637 0.00073404379973 
0.00074028638909 0.00074660028387 0.00075301270147 0.0007595301471 0.00076612431736 0.00077282689316 0.00077962703081 0.00078648971498 0.00079343804069 
0.00080048748925 0.00080765836458 0.00081495710795 0.00082237566999 0.0008299024437 0.00083752910394 0.00084525604617 0.00067694231525 0.00068262052325 
0.00068835208112 0.00069413970563 0.00070001675842 0.00070598120826 0.00071202417415 0.00071813838933 0.00072429933574 0.00073049266525 0.00073672387241 
0.00074303724749 0.00074944037571 0.00075593385123 0.00076255290943 0.00076929389634 0.00077609435429 0.00078295542837 0.00078989140506 0.00079692884875 
0.00080409173454 0.00081139431484 0.00081882989585 0.00082637519548 0.00083401382543 0.00084174051965 0.00067197485338 0.00067761036324 0.00068328206704 
0.0006890183663 0.00069483368094 0.00070075616851 0.00070677813382 0.00071287715828 0.00071902542704 0.00072519710713 0.00073141944441 0.0007376977844 
0.00074407679708 0.000750543259 0.0007571709093 0.00076391076959 0.0007707030859 0.00077754804903 0.00078445492395 0.00079146195642 0.00079859795216 
0.0008058847071 0.00081331483013 0.00082086024237 0.00082849259505 0.00083620191382 0.00066636649616 0.00067195411922 0.0006775810777 0.00068325701037 
0.00068902447152 0.00069490185248 0.00070088769786 0.00070695481184 0.00071308161986 0.00071924126208 0.0007254235501 0.00073167650314 0.00073802362995 
0.00074447309926 0.0007510823395 0.00075780821193 0.00076458405831 0.00077140920139 0.00077828694299 0.00078525888694 0.00079236301577 0.00079962480579 
0.00080703772684 0.00081457127584 0.00082218755026 0.00082987402628 0.00066099075244 0.00066654751208 0.00067213096441 0.00067777030768 0.00068349338849 
0.00068932530351 0.00069527110953 0.00070131179388 0.00070741636132 0.00071356120776 0.00071972308156 0.00072594492025 0.00073223946026 0.00073869416528 
0.00074529639831 0.00075198999068 0.00075875242152 0.00076555861713 0.00077241737944 0.0007793609936 0.0007864375988 0.00079367215336 0.00080106446314 
0.00080858094051 0.00081618113882 0.00082385042024 0.00065648875982 0.0006620134249 0.00066757790129 0.00067319104801 0.00067888699519 0.00068467659717 
0.00069059674269 0.00069661769069 0.00070270958345 0.00070882659657 0.00071497855619 0.00072119751572 0.00072747824268 0.00073391494053 0.00074049902295 
0.00074717452004 0.00075392360225 0.00076072144216 0.00076757242088 0.00077450674705 0.00078156776463 0.00078878376341 0.0007961568325 0.00080365580314 
0.00081124743607 0.0008189109457 0.00065319654522 0.00065870965415 0.00066426373818 0.000669857937 0.00067554187969 0.00068132877601 0.0006872272401 
0.00069322639732 0.00069929858352 0.00070541224634 0.00071157786093 0.00071780128649 0.00072408454342 0.00073052845053 0.00073708501843 0.00074374733318 
0.00075049015485 0.00075729001527 0.00076415075424 0.00077109520422 0.00077815771007 0.00078536792507 0.00079272799186 0.00080021894915 0.00080780993565 
0.00081548196574 0.00065123148751 0.00065673246715 0.0006622836429 0.00066789564077 0.0006735862265 0.00067937072299 0.00068526292045 0.00069126318093 
0.00069732045492 0.0007034408818 0.00070962281271 0.00071586658963 0.00072216490275 0.0007286156478 0.0007351716923 0.00074183140165 0.00074857579861 
0.00075538994104 0.00076227354042 0.00076924334129 0.00077632485557 0.00078354701051 0.00079090883228 0.00079840270216 0.00080600196877 0.00081372637061 
0.00065053595797 0.00065604232542 0.00066161388286 0.00066724775351 0.00067295688528 0.00067875478315 0.00068465594431 0.00069064299691 0.00069671334738 
0.00070285929195 0.00070906474187 0.00071530497892 0.00072166280475 0.0007281359783 0.00073470431611 0.00074137604765 0.00074813671962 0.00075497532449 
0.00076189099752 0.00076889717845 0.00077601403713 0.00078325902772 0.00079064090217 0.00079815105711 0.00080577414889 0.00081353236184 0.00065101339778 
0.0006565426023 0.00066213743261 0.00066779765544 0.00067353285632 0.00067936041678 0.00068527305395 0.00069128070466 0.00069737767255 0.00070354600539 
0.0007097834013 0.00071606013442 0.00072247013359 0.00072896397507 0.00073555962578 0.00074225784194 0.00074904511854 0.00075591943228 0.00076287717967 
0.000769929048 0.0007770905211 0.000784372828 0.00079178866728 0.0007993325741 0.00080699220205 0.00081479422561 0.0006525554736 0.00065811059369 
0.00066373502504 0.00066942964035 0.00067520517212 0.00068106010695 0.00068700556688 0.00069304799546 0.00069917531479 0.00070537899367 0.00071165718251 
0.00071797876287 0.00072443337996 0.00073097176134 0.00073760860101 0.00074434502309 0.00075117418335 0.00075809303782 0.00076510131212 0.00077220519047 
0.00077941760881 0.00078675451756 0.0007942174716 0.00080180810426 0.00080955192856 0.00081737864116 0.00065507161707 0.00066066031613 0.00066632320591 
0.00067206255988 0.0006778828273 0.00068377577776 0.00068977032329 0.00069585504515 0.0007020220758 0.0007082679624 0.00071459606355 0.00072098215696 
0.0007274783388 0.00073406974255 0.00074076005183 0.00074754757391 0.00075442843436 0.00076140001756 0.00076846457592 0.0007756296871 0.00078290723587 
0.00079030574056 0.00079783061005 0.00080548176975 0.00081328811593 0.00082117861192 0.00065852913106 0.0006641597162 0.00066987263344 0.00067565834336 
0.0006815192367 0.00068747672034 0.00069352689338 0.00069966347215 0.00070588093809 0.0007121793897 0.00071852511285 0.00072500496166 0.00073156554524 
0.00073822193756 0.00074497740699 0.00075182461501 0.00075876478398 0.00076579704848 0.00077292670311 0.00078016113945 0.00078751358454 0.00079499091359 
0.00080259075398 0.00081031274466 0.00081819229432 0.00082615577243 0.00066294636816 0.00066862905146 0.00067438561553 0.00068021108454 0.0006861511403 
0.00069217869859 0.00069829507967 0.00070449321669 0.00071076976567 0.00071712434212 0.00072352979309 0.00073007791881 0.00073671225819 0.00074344719659 
0.00075027709043 0.0007571962427 0.00076420407044 0.00077130420948 0.00077850665255 0.00078582133511 0.00079326163374 0.00080082686885 0.00080851532189 
0.00081632090278 0.00082428104103 0.00083232687481 0.00066838985327 0.00067412317365 0.00067993922224 0.00068583458329 0.00069184436817 0.00069795166579 
0.00070414617334 0.00071041690431 0.00071675951969 0.00072317855339 0.00072966446041 0.00073627550403 0.00074299548687 0.000749821818 0.00075673982721 
0.00076374199774 0.00077082553781 0.00077800060815 0.00078528148709 0.00079268772501 0.00080022837976 0.00080790063987 0.00081569259401 0.00082363063442 
0.00083164357491 0.00083978125437 0.00067496757208 0.00068076530866 0.00068662546002 0.00069261656446 0.00069871285116 0.00070491467829 0.00071120195424 
0.00071755805097 0.00072397554654 0.00073046623278 0.00073702808008 0.00074372391739 0.00075054453387 0.00075747507783 0.00076449562683 0.00077159155506 
0.00077876100181 0.0007860187913 0.00079338787506 0.00080089767321 0.00080855566032 0.00081635114361 0.00082426221063 0.00083230911806 0.00084042423148 
0.00084865417235 0.00068283093392 0.00068868010583 0.00069464442848 0.000700715286 0.00070691377255 0.00071322305182 0.00071961973229 0.00072607288154 
0.00073257693297 0.00073914754658 0.00074579358404 0.00075258978496 0.00075952182188 0.00076657231602 0.00077371269766 0.00078091828777 0.00078818388937 
0.00079553333002 0.00080300592808 0.00081063267752 0.00081842335299 0.00082635562817 0.0008344015755 0.00084256766452 0.00085079613203 0.00085911846773 
0.00069212027158 0.00069805599012 0.00070410870963 0.00071028193584 0.0007165947159 0.00072302724412 0.00072954422296 0.00073610902597 0.0007427155276 
0.00074935967961 0.00075612664645 0.00076303572514 0.00077009296733 0.0007772789279 0.00078455158544 0.00079187928455 0.00079925564114 0.00080671330622 
0.00081430228686 0.00082206096531 0.00082999804692 0.00083808690356 0.00084627857941 0.00085459070851 0.00086293586743 0.00087142076096 0.00070287567475 
0.00070894641089 0.00071510065013 0.00072139090418 0.00072782792503 0.00073439751626 0.00074104794036 0.00074774165083 0.00075446476664 0.00076121890303 
0.00076810222046 0.00077513530481 0.00078233101037 0.00078966216237 0.0007970810792 0.00080454650214 0.00081205569906 0.0008196417887 0.00082736367146 
0.00083527056445 0.00084336053972 0.00085161731702 0.00086000255637 0.00086843805197 0.00087695271773 0.00088558743126 0.00071503460423 0.00072123434711 
0.00072751603882 0.00073393650159 0.00074051138234 0.00074721761129 0.0007540107707 0.00076084471139 0.00076770314467 0.00077458964805 0.00078160934596 
0.00078878283207 0.00079612498268 0.00080360522268 0.00081117963013 0.00081880024188 0.0008264616325 0.00083419767167 0.00084206968344 0.00085013677615 
0.00085840252892 0.00086681597559 0.00087539076634 0.00088401478684 0.00089269002109 0.00090150187674 0.00072819167986 0.00073452789517 0.00074095971884 
0.00074752299799 0.00075424095693 0.00076109110782 0.00076802760924 0.00077500712856 0.00078201745493 0.00078905744192 0.00079622794467 0.00080355207217 
0.0008110402276 0.00081867581443 0.00082640513627 0.00083418903034 0.00084202015095 0.00084992393124 0.00085797535378 0.00086619952222 0.00087463494867 
0.00088323563115 0.00089199828927 0.00090077981739 0.00090965960146 0.00091866925749 0.00074161010384 0.00074810508494 0.00075469622888 0.00076141698219 
0.00076828052681 0.00077526981115 0.0007823462181 0.00078947237202 0.00079665224095 0.00080384053243 0.00081116945974 0.00081864845057 0.00082628744511 
0.00083406777667 0.00084194941042 0.00084988848921 0.00085789552287 0.00086599071326 0.00087421110804 0.00088262541468 0.000891227015 0.00090000215698 
0.0009089235155 0.00091788736505 0.00092696157924 0.0009361571118 0.00075429261631 0.00076094983854 0.00076770102779 0.0007745757971 0.00078158016803 
0.00078870112344 0.00079590597043 0.00080316944743 0.00081049591439 0.00081783835008 0.00082532717283 0.00083295531408 0.00084073215804 0.00084864699633 
0.00085665948066 0.00086475870502 0.00087293592979 0.00088119734527 0.00088961123479 0.00089819305995 0.00090695944572 0.00091587088845 0.00092494409415 
0.00093405263951 0.00094330883414 0.00095272239373 0.00076510140868 0.00077190564741 0.00077880702688 0.00078582266379 0.00079295347675 0.00080018861158 
0.00080750495624 0.00081488667313 0.00082229921949 0.0008298192999 0.00083744502769 0.0008452017052 0.00085309240404 0.00086111945316 0.00086925611204 
0.00087747122035 0.00088579694186 0.00089423581566 0.00090280991232 0.00091154842749 0.00092044097833 0.00092951296901 0.00093864109267 0.00094791276866 
0.00095731774 0.00096689493772 0.00077300940766 0.00077993552501 0.00078696282519 0.00079409392592 0.00080132871044 0.0008086547556 0.00081605764438 
0.00082353547084 0.00083103552913 0.00083865748126 0.00084638664552 0.00085423703588 0.00086222444288 0.00087033810857 0.00087854756984 0.00088687925352 
0.000895319565 0.00090388167389 0.00091259175305 0.00092144500675 0.00093044247817 0.00093958855249 0.00094882061065 0.00095818088685 0.00096768738379 
0.00097738010738 0.00076269045667 0.00076905051075 0.00077549963496 0.00078203214333 0.00078863820121 0.00079531456391 0.00080205203795 0.00080885037818 
0.00081570001196 0.00082261832307 0.00082960960091 0.0008366842947 0.00084386352503 0.00085113143787 0.00085848191267 0.00086596306752 0.00087354293646 
0.00088122648413 0.00088901502584 0.00089690983495 0.00090493215344 0.00091307925629 0.00092134788776 0.00092973768707 0.00093825357848 0.00094689920943 
0.00076350637697 0.00076987642358 0.00077632602135 0.00078285504632 0.00078946137471 0.0007961506192 0.00080291517394 0.00080974150686 0.00081663804585 
0.00082360003746 0.00083063185631 0.00083774689267 0.00084496243733 0.00085228219949 0.00085968088304 0.0008672015509 0.00087483946872 0.00088256510034 
0.00089039642677 0.00089834023817 0.00090640866919 0.00091460737337 0.00092293326878 0.00093138429666 0.00093996036351 0.00094866153066 0.00076250103604 
0.00076886362851 0.00077530170637 0.00078181061613 0.00078841298228 0.00079510074579 0.00080186758496 0.00080871654907 0.00081563606497 0.00082261937452 
0.00082966650875 0.00083681164779 0.00084404608978 0.00085136561064 0.00085881000038 0.00086638732036 0.00087404815533 0.00088180122173 0.00088965534859 
0.0008976229804 0.00090571816236 0.00091394660068 0.00092231086107 0.00093080192475 0.00093941514029 0.00094814897025 0.00076023421957 0.00076658218483 
0.00077299624674 0.00077949080815 0.0007860684582 0.00079274592638 0.00079951676986 0.00080637070617 0.00081329901031 0.00082028489703 0.00082735469302 
0.00083449755546 0.00084174190061 0.00084906352636 0.00085654008096 0.00086413659068 0.00087181702177 0.00087958585945 0.00088744857171 0.00089542700217 
0.00090353534892 0.00091177944147 0.00092016554846 0.00092868207591 0.00093731792062 0.00094607050684 0.00075735407053 0.00076367985957 0.00077007878238 
0.00077654834421 0.00078311308879 0.00078977850334 0.00079654024656 0.00080338605951 0.00081031417498 0.00081731171914 0.00082437717066 0.00083152178305 
0.00083876782156 0.00084610371098 0.00085358918918 0.0008611978282 0.00086888500912 0.00087666407839 0.00088453459315 0.00089251760947 0.00090063036255 
0.00090888654742 0.00091728576793 0.00092581794197 0.0009344675614 0.00094323343689 0.00075446045738 0.00076077815567 0.00076715739013 0.00077361882269 
0.00078016896838 0.0007868182035 0.00079356724118 0.00080041015087 0.00080733811185 0.00081434538041 0.00082140687509 0.00082855444575 0.00083577854846 
0.00084314901312 0.00085065545043 0.0008582580101 0.0008659573956 0.00087374423536 0.00088162428367 0.00088961111346 0.00089773193727 0.00090599647263 
0.00091440624345 0.00092295054113 0.00093161315856 0.00094039216896 0.00075204333922 0.00075834771971 0.00076472583884 0.00077118035711 0.00077772465318 
0.00078435622275 0.00079110557599 0.00079795415203 0.00080489224512 0.00081188901416 0.00081895965586 0.00082612333054 0.0008333567449 0.00084073636123 
0.00084825254699 0.00085586435516 0.00086357447633 0.00087137461767 0.00087926928426 0.0008872704163 0.00089540315619 0.00090367925945 0.00091210122035 
0.00092065965179 0.00092934108092 0.00093813804675 0.0007504027156 0.00075671202386 0.00076309334735 0.00076953947244 0.00077608663383 0.0007827343885 
0.00078948620541 0.00079633737412 0.00080327657062 0.00081029511649 0.00081738367886 0.00082456492987 0.00083181636189 0.0008392250663 0.0008467394572 
0.00085436558957 0.00086209256137 0.00086991263254 0.0008778308279 0.00088585858357 0.00089401263302 0.00090230894473 0.00091074988121 0.0009193284464 
0.00092803419941 0.00093685957821 0.00074970826033 0.0007560196507 0.00076240761963 0.0007688787641 0.00077544256173 0.0007821018049 0.00078886609227 
0.00079574061019 0.00080268467309 0.00080971573588 0.00081683641766 0.00082404749266 0.00083132439636 0.00083875696582 0.00084629425767 0.00085394107831 
0.00086169226301 0.00086954227069 0.00087749436021 0.00088555793451 0.00089374593866 0.00090207322709 0.00091054261773 0.00091915101646 0.00092788811438 
0.0009367832189 0.00074999028564 0.00075631970478 0.00076273575762 0.00076923547032 0.00077582340874 0.00078250708755 0.00078929530574 0.00079617499166 
0.00080314884948 0.00081021870116 0.00081737322988 0.00082458445802 0.00083192988816 0.00083939809008 0.00084696514835 0.0008546442627 0.00086243008827 
0.00087031851513 0.00087831268984 0.00088642086189 0.00089465517745 0.00090302326314 0.00091153352397 0.00092018245709 0.00092896239686 0.0009379059506 
0.00075124312861 0.00075760634077 0.0007640539269 0.00077058503702 0.00077720550107 0.00078392658673 0.00079073885834 0.000797652559 0.00080466560253 
0.00081177115616 0.00081896592005 0.00082622166996 0.00083362500598 0.00084112405351 0.00084873372392 0.00085645529403 0.00086428387973 0.00087222078764 
0.00088026634477 0.00088842780618 0.00089671703692 0.00090513661105 0.0009136978576 0.0009223985998 0.00093123411734 0.00094023600511 0.00075343115332 
0.00075983049351 0.00076631434871 0.00077288609949 0.00077955303344 0.00078630159745 0.00079316441171 0.00080012398262 0.00080718003962 0.00081432994619 
0.00082157383006 0.00082888039845 0.00083633654896 0.00084388960668 0.00085155152977 0.0008593249788 0.00086720810382 0.00087520164172 0.00088330691602 
0.00089153083224 0.00089988034737 0.00090836605618 0.00091698867369 0.0009257533225 0.00093468646322 0.00094372690658 0.00075650889456 0.00076295097813 
0.00076948172964 0.0007761048822 0.00078282203177 0.00078962214646 0.00079653393511 0.00080354511548 0.00081065208311 0.0008178538599 0.00082515691152 
0.00083252198761 0.00084004077692 0.00084765425328 0.00085537840025 0.00086321336436 0.00087116018026 0.00087921883325 0.00088739259752 0.00089568604751 
0.00090410876964 0.00091266739176 0.00092136407681 0.00093020089495 0.00093921199322 0.00094833126534 0.0007604638316 0.00076695668658 0.00077354646917 
0.0007802225589 0.00078698611084 0.00079385630997 0.0008008288812 0.00080790022747 0.00081506716623 0.00082233221156 0.00082969749668 0.00083714304335 
0.00084471797985 0.00085240335346 0.0008601998987 0.00086810552778 0.000876123486 0.00088425502858 0.00089250393474 0.0009008776795 0.00090938312033 
0.00091802681467 0.00092680906478 0.00093572908396 0.00094482826473 0.00095403389731 0.00076531205624 0.00077186593942 0.00077850946576 0.00078523137249 
0.00079207816565 0.00079902115409 0.00080606498225 0.00081320414245 0.00082043956129 0.00082777260917 0.00083517321538 0.00084272939603 0.00085038365963 
0.00085815111225 0.00086602862939 0.00087401401273 0.00088211126436 0.0008903237802 0.00089865866946 0.00090711975676 0.00091572047713 0.0009244582672 
0.0009333359635 0.00094235218162 0.00095154528106 0.00096084928012 0.00077109023563 0.0007777056064 0.00078441737536 0.00079121745718 0.00079813494558 
0.00080515843715 0.00081228135584 0.00081949943513 0.00082681146151 0.00083422095791 0.00084171274919 0.00084933980974 0.00085708330333 0.0008649419066 
0.00087291068497 0.00088098712434 0.0008891730014 0.00089747426887 0.00090589953529 0.00091446066896 0.0009231644964 0.00093201173784 0.00094099794303 
0.00095015643396 0.00095941844995 0.00096882987854 0.0007778528243 0.00078454365561 0.00079131063837 0.00079821102435 0.00080521600149 0.0008123301795 
0.00081954395577 0.00082685109473 0.00083424797755 0.00084174190538 0.00084932087295 0.00085703935127 0.00086488288809 0.00087284385971 0.00088091530597 
0.00088909214676 0.00089737600416 0.0009057746589 0.00091430094228 0.00092297092094 0.0009317926391 0.00094075925168 0.00094986825612 0.00095914567141 
0.00096852369289 0.00097804453254 0.00078566712851 0.00079242069092 0.00079930090009 0.0008062853242 0.0008133892016 0.00082060384879 0.00082792011801 
0.00083532646498 0.00084281849996 0.00085040519312 0.00085807972727 0.00086590201428 0.00087385374945 0.00088192936683 0.00089011537331 0.00089840523655 
0.00090679617834 0.00091530158669 0.0009239423849 0.00093273376069 0.00094168257738 0.00095078150768 0.0009600200105 0.00096942174517 0.00097892846747 
0.00098855860945 0.00079456730977 0.00080141410022 0.00080838991057 0.00081547705065 0.00082269029623 0.0008300174721 0.00083744612025 0.00084496039813 
0.00085255931002 0.00086021649197 0.00086803278316 0.00087596884186 0.00088403936331 0.00089223900177 0.00090055066645 0.00090896181477 0.00091747114576 
0.00092609687718 0.00093486109311 0.00094378454225 0.00095287203632 0.00096211559483 0.00097149450936 0.00098104282559 0.00099067626191 0.0010004807053 
0.00080448760708 0.00081147128374 0.0008185479946 0.00082575016447 0.00083307772929 0.00084052934501 0.00084807984061 0.00085571426566 0.0008634293463 
0.000871212752 0.00087913509188 0.00088719178247 0.00089539216179 0.00090372401189 0.0009121700028 0.00092071437147 0.00092935642622 0.00093811440328 
0.00094701334259 0.00095608021605 0.00096531047773 0.0009747087957 0.00098426856764 0.0009939370109 0.0010037407796 0.0010137001582 0.00081530441584 
0.00082240612898 0.00082960533583 0.00083692866943 0.00084438186273 0.00085195729454 0.00085963625553 0.0008673996396 0.00087524115742 0.00088315045981 
0.00089120255188 0.00089939231946 0.00090772809685 0.00091619606581 0.00092478312706 0.00093347092607 0.00094225770552 0.0009511585568 0.00096020012083 
0.00096941830453 0.00097881186665 0.00098835260142 0.00099808899094 0.0010079330586 0.0010178906373 0.0010280203881 0.00082664993576 0.00083387062794 
0.0008412001634 0.00084865023975 0.00085623320045 0.00086393962629 0.00087174823623 0.00087964253259 0.00088761958475 0.0008956657847 0.00090385305849 
0.00091217967351 0.00092065004975 0.000929261098 0.00093799091562 0.00094682531686 0.00095576332288 0.00096481278022 0.00097401703433 0.00098337700912 
0.00099292731839 0.0010026429922 0.0010125529892 0.0010225397315 0.0010326823706 0.0010429910143 0.00083795933981 0.00084531262936 0.00085277493145 
0.00086036053509 0.00086807446113 0.0008759087376 0.00088384473653 0.00089187050733 0.00089999478222 0.00090816526259 0.00091648847533 0.00092495218521 
0.00093356108102 0.00094230705985 0.00095117713183 0.00096014910639 0.00096923854332 0.00097845239645 0.00098780032789 0.00099733081835 0.0010070350496 
0.0010169155629 0.0010269724922 0.0010371232151 0.0010474362965 0.0010579044632 0.00084854981926 0.00085603458239 0.00086362747337 0.0008713422804 
0.00087918116217 0.00088713576145 0.00089519206702 0.00090334084558 0.00091159141837 0.00091988979944 0.00092834767172 0.00093694170754 0.00094567654248 
0.00095455060794 0.0009635428841 0.00097265848454 0.00098189350165 0.00099124352131 0.0010007568149 0.0010104354501 0.001020292252 0.0010303029106 
0.001040504603 0.0010508056112 0.00106125817 0.0010719146598 0.0008576706202 0.00086527413204 0.00087298957411 0.00088082327472 0.00088877491904 
0.00089683670701 0.0009049997053 0.00091325641886 0.00092157663498 0.00093003216402 0.00093860698785 0.00094731427876 0.00095615515026 0.00096513861705 
0.00097425032412 0.00098347074328 0.00099283562676 0.0010023365104 0.0010119869442 0.0010218048452 0.001031780852 0.0010419512888 0.0010522259984 
0.001062645264 0.0010732522375 0.001084052199 0.00086466338878 0.00087236789591 0.00088018762638 0.00088812061567 0.00089616668004 0.00090431711062 
0.0009125664186 0.00092091803079 0.00092932115295 0.00093786802234 0.00094653633262 0.00095532944911 0.00096426720923 0.0009733394491 0.00098252716237 
0.00099186242856 0.0010013316038 0.0010109426027 0.0010207079089 0.0010306360885 0.0010407167342 0.0010509665328 0.0010613358183 0.0010718689784 
0.0010825794372 0.0010934921363 0.00084643007312 0.00085344354295 0.00086055667872 0.00086776106491 0.00087504993841 0.00088242036038 0.00088986718716 
0.00089739405744 0.0009049928502 0.0009126780222 0.00092045073474 0.00092831979936 0.00093629851929 0.00094437350329 0.00095253900969 0.00096084819464 
0.00096927042062 0.00097781231845 0.00098647274588 0.00099525087554 0.0010041667324 0.0010132178173 0.0010224036811 0.001031725929 0.0010411913381 
0.001050804421 0.00084851297031 0.00085555604848 0.00086269058837 0.00086991496996 0.00087723026182 0.00088462890041 0.00089211786633 0.0008996845148 
0.00090733979657 0.00091508088349 0.0009229077345 0.00093083135254 0.0009388620534 0.00094700328615 0.00095523108593 0.00096359221415 0.00097208600077 
0.00098068772903 0.00098941046023 0.00099825834288 0.0010072391801 0.0010163590244 0.0010256175332 0.0010350159408 0.001044558431 0.0010542458294 
0.00084925651799 0.0008563138051 0.00086346149882 0.00087069210958 0.00087802387269 0.00088544756993 0.00089295843157 0.00090056335615 0.00090825633247 
0.00091603631145 0.00092389814944 0.00093187222562 0.00093994212798 0.0009481016156 0.00095639313899 0.00096482818079 0.00097336545835 0.00098201647868 
0.00099078610095 0.00099968281779 0.0010087158827 0.0010178886939 0.0010272047925 0.001036663645 0.0010462653627 0.0010560095334 0.00084902546652 
0.00085609042132 0.00086323893559 0.00087048230386 0.00087781614513 0.00088525433625 0.00089279006452 0.0009004189043 0.00090813963686 0.00091594219673 
0.00092384862382 0.00093184366133 0.00093994769926 0.00094813203286 0.00095647617143 0.00096495094093 0.00097352990865 0.00098221991081 0.00099102666151 
0.00099996353742 0.00100903846 0.0010182514184 0.0010276141818 0.0010371217113 0.001046770795 0.0010565616443 0.00084825342915 0.00085531851263 
0.00086247605848 0.00086971999133 0.00087706734722 0.00088451717546 0.00089206605948 0.00089970751897 0.00090744884951 0.0009152824269 0.00092320769665 
0.00093122872651 0.00093935950281 0.00094758175896 0.00095595719123 0.00096446678697 0.00097307664263 0.00098180016031 0.00099064198163 0.00099961258569 
0.0010087210366 0.0010179735195 0.0010273753145 0.0010369232833 0.0010466139048 0.0010564459693 0.00084736064207 0.00085443692507 0.00086159622108 
0.00086885446969 0.00087620963137 0.00088366721035 0.00089122540776 0.00089888501855 0.00090664575005 0.00091450879796 0.00092245098703 0.00093049688929 
0.00093866075437 0.00094690949473 0.00095532848303 0.00096385498038 0.00097249818821 0.00098125651814 0.00099013037714 0.00099913191067 0.0010082740609 
0.0010175625685 0.0010270003665 0.0010365877179 0.0010463161118 0.0010561889342 0.00084671667002 0.00085379762635 0.00086097284831 0.00086824380541 
0.00087561172755 0.00088307232104 0.00089065296856 0.0008983365883 0.00090612780117 0.0009139958942 0.00092196703271 0.00093004796065 0.00093820946883 
0.00094652051225 0.00095497183443 0.00096353009649 0.00097220478895 0.00098099603019 0.00098990720545 0.000998944131 0.0010081226972 0.0010174483744 
0.0010269253983 0.0010365510326 0.0010463228341 0.0010562380737 0.00084657453872 0.0008536758566 0.00086086887269 0.00086814369301 0.00087553159913 
0.00088302587614 0.00089062545333 0.00089833306182 0.00090614207391 0.00091405094933 0.00092205237526 0.00093016545695 0.00093836171595 0.00094672154537 
0.00095519171241 0.00096378482084 0.00097249713877 0.00098132721857 0.00099027786319 0.00099935948201 0.0010085787069 0.0010179469585 0.0010274685702 
0.0010371369896 0.0010469550925 0.0010569192441 0.00084710829884 0.0008542261527 0.00086143728913 0.00086874882172 0.00087616472308 0.00088368452591 
0.00089131338723 0.00089906273595 0.00090689234033 0.00091482746463 0.00092287350562 0.0009310287254 0.00093926203209 0.00094766292462 0.00095617326872 
0.00096480773768 0.00097356247413 0.0009824378606 0.00099143729484 0.0010005695936 0.0010098389951 0.0010192580773 0.0010288272554 0.0010385482 
0.0010484181921 0.0010584709204 0.00084838989041 0.00085553726933 0.00086278679265 0.00087013533711 0.00087758527656 0.00088514069552 0.00089280749171 
0.00090057576639 0.00090844940716 0.00091643803388 0.00092452788477 0.00093269362226 0.00094100792474 0.00094945592152 0.0009580139283 0.00096669545006 
0.00097550034663 0.00098442750124 0.00099348357387 0.0010026721024 0.0010120032702 0.0010214789699 0.0010311071006 0.0010408879298 0.0010508188644 
0.0010609356957 0.00085046133571 0.00085765246871 0.00086494348179 0.0008723326001 0.00087982316783 0.00088742501219 0.00089512548279 0.00090294105995 
0.00091086700832 0.00091890153034 0.00092704235437 0.00093526163751 0.0009436434397 0.00095213419376 0.00096074727595 0.00096948577786 0.00097834801608 
0.00098733635363 0.00099645530863 0.0010057083883 0.0010151061471 0.0010246475163 0.0010343427542 0.0010441923701 0.0010541946427 0.0010643854284 
0.00085333187323 0.00086056806467 0.00086790369168 0.00087534078301 0.00088288485773 0.00089052315164 0.00089828573637 0.00090615557134 0.0009141354383 
0.00092222396921 0.00093042423332 0.00093870226007 0.00094714626965 0.00095570062716 0.00096437778246 0.0009731805914 0.00098210847869 0.00099116594211 
0.0010003544151 0.0010096820672 0.001019152644 0.0010287703012 0.0010385407073 0.0010484687628 0.0010585838063 0.0010688259416 0.00085698573769 
0.00086427415923 0.00087166288048 0.00087915930774 0.00088676112836 0.00089445852715 0.00090227687572 0.00091020734913 0.00091824744984 0.00092639864179 
0.00093466538046 0.00094301113952 0.00095152564456 0.00096014864437 0.00096889747071 0.00097777297513 0.00098677624813 0.00099590918102 0.0010051779572 
0.0010145843787 0.0010241362555 0.0010338399114 0.0010436952154 0.0010537096865 0.0010639148239 0.0010742493993 0.00086142602208 0.00086877210022 
0.00087622751447 0.00088378337147 0.00089143810335 0.00089921070753 0.00090709736891 0.00091509645941 0.00092320460195 0.00093142653897 0.00093976558673 
0.0009481998958 0.00095677734479 0.00096547991055 0.00097430846174 0.00098326324491 0.00099234879831 0.0010015666334 0.0010109195966 0.0010204156391 
0.0010300586882 0.0010398570433 0.0010498093042 0.0010599164326 0.0010702233423 0.0010806573598 0.00086666334297 0.00087407827016 0.0008815955847 
0.0008892026098 0.00089694549003 0.00090479562757 0.00091275826197 0.00092083130124 0.00092901588201 0.00093731570155 0.00094569815825 0.00095425005062 
0.00096291198653 0.00097170281902 0.00098062003208 0.00098966459056 0.00099883625841 0.0010081458666 0.0010175945791 0.0010271869121 0.0010369327424 
0.0010468317645 0.00105688881 0.0010671025608 0.0010775144508 0.00108805927 0.00087271412418 0.00088019870349 0.00088779014544 0.0008954809176 
0.00090329800455 0.00091123172434 0.00091927641844 0.00092743378654 0.00093570279402 0.00094408705062 0.00095255502489 0.00096119779845 0.00096995462601 