# vtk DataFile Version 5.1
vtk output
ASCII
DATASET STRUCTURED_POINTS
DIMENSIONS 26 26 26
SPACING 0.08 0.08 0.08
ORIGIN -1 -1 0.5
POINT_DATA 17576
FIELD FieldData 1
potential 1 17576 double
0.0020454499816 0.0020150381865 0.0019853478525 0.0019563494637 0.001928026864 0.0019003486082 0.0018732670194 0.0018466382411 0.0018204888395 
0.0017949008318 0.0017694980427 0.0017449060283 0.0017208634167 0.0016974280278 0.0016744930566 0.0016521892156 0.0016302053271 0.0016087121757 
0.0015875808007 0.0015668913329 0.0015466551311 0.001526878423 0.0015075351715 0.0014885951596 0.0014700271147 0.0014518215968 0.002015483425 
0.0019856455217 0.0019564752907 0.0019279566534 0.0019000992439 0.001872902581 0.0018462538341 0.00182016 0.0017946576211 0.0017693023962 
0.0017447102633 0.0017205984363 0.0016970688763 0.0016740476893 0.0016517126441 0.0016297412865 0.0016082788555 0.001587140655 0.001566400666 
0.0015460782615 0.0015262079938 0.0015068059258 0.0014878496853 0.0014692975707 0.0014511033928 0.0014332430153 0.0019780345865 0.001948898692 
0.0019203670805 0.0018924411037 0.0018650865015 0.0018384830606 0.0018124463663 0.00178708819 0.0017619122427 0.0017374892429 0.0017134764963 
0.001689969334 0.001666931822 0.0016445958392 0.0016226774414 0.0016013374745 0.0015803279379 0.0015596903616 0.0015394075088 0.0015195241531 
0.0015000903565 0.001481135443 0.0014626409532 0.0014445458668 0.0014267892106 0.0014093365429 0.0019357522759 0.0019073985015 0.0018795839412 
0.0018522595249 0.001825638262 0.0017996154925 0.0017743634203 0.0017493832726 0.0017252306449 0.0017015196534 0.0016781407918 0.0016551881604 
0.0016328782806 0.0016109996699 0.0015897794 0.0015689583527 0.0015485368396 0.001528440929 0.0015086643798 0.0014892673009 0.0014703107131 
0.0014518484152 0.0014338558706 0.0014162641839 0.0013989861018 0.0013819757813 0.0018915723812 0.0018639613179 0.0018369096925 0.0018103807508 
0.0017843756877 0.0017587983101 0.0017342715016 0.0017103516115 0.00168695263 0.00166388272 0.0016411507419 0.0016188226238 0.0015971271708 
0.0015759674994 0.0015552706941 0.0015350623597 0.0015152321072 0.0014956991606 0.0014764518805 0.0014575669075 0.0014391188347 0.0014211639768 
0.0014036818578 0.0013865913617 0.001369798034 0.0013532455854 0.0018480416955 0.0018213018537 0.0017950178126 0.0017691416395 0.0017435812671 
0.0017190694878 0.0016952513251 0.0016720683469 0.0016493052011 0.0016268991311 0.001604816783 0.0015832487472 0.0015621394107 0.0015414824613 
0.0015213872952 0.0015017645795 0.0014825029408 0.0014635197263 0.0014448096945 0.001426433955 0.0014084885888 0.001391027922 0.0013740377322 
0.0013574292082 0.0013411045337 0.0013250034345 0.0018071621098 0.0017811859131 0.0017556476422 0.0017301237973 0.0017056541664 0.0016818641873 
0.0016586998458 0.0016361184787 0.0016139868392 0.0015922066078 0.0015708803231 0.001549916385 0.0015292838413 0.0015091989848 0.0014896541079 
0.0014705680827 0.0014518333188 0.0014333692117 0.0014151708815 0.0013972997366 0.0013798389541 0.0013628472051 0.001346305282 0.0013301365828 
0.0013142426371 0.0012985692781 0.0017698816587 0.0017442069309 0.0017193039894 0.0016949574798 0.0016711974592 0.0016480195285 0.0016254621633 
0.001603454967 0.0015818960618 0.0015608217218 0.0015400731103 0.0015195575256 0.0014994938298 0.0014799423377 0.0014608972581 0.0014422867404 
0.0014240234836 0.0014060357297 0.0013883201706 0.0013709252536 0.0013539262051 0.0013373662674 0.0013212283834 0.0013054520341 0.0012899458264 
0.0012746651013 0.0017360952285 0.0017113838739 0.0016872513387 0.0016635586327 0.001640398328 0.0016178179319 0.0015958134559 0.0015743273951 
0.0015534081959 0.0015328620365 0.001512510469 0.0014925348262 0.0014729997854 0.0014539355524 0.0014353410483 0.0014171580182 0.0013993147892 
0.0013817586236 0.0013644863446 0.0013475374299 0.0013309624478 0.0013147950783 0.0012990192901 0.0012835822293 0.0012684177791 0.0012534898014 
0.0017063398676 0.0016823394874 0.0016587737316 0.0016356917244 0.0016131213293 0.0015910912609 0.0015695926864 0.0015485789852 0.0015282709468 
0.00150804732 0.0014881840131 0.0014687050005 0.0014496462929 0.0014310283975 0.0014128386665 0.0013950386618 0.0013775698767 0.0013604022937 
0.0013435301263 0.0013269869438 0.0013108014363 0.0012949922853 0.001279540397 0.0012644076975 0.0012495495418 0.0012349409511 0.0016800714725 
0.0016565804196 0.0016335640005 0.0016110312668 0.001588995675 0.0015674738167 0.0015466100399 0.0015261538507 0.0015059783122 0.0014861844113 
0.0014667666563 0.0014477347332 0.0014291105224 0.001410898386 0.0013930795823 0.001375628009 0.0013584996102 0.0013416824564 0.0013251743988 
0.0013089957835 0.0012931599505 0.0012776712313 0.0012625145972 0.001247661088 0.0012330794413 0.0012186713267 0.0016567415978 0.0016337498073 
0.0016112386284 0.0015892089758 0.0015676679704 0.0015467888205 0.0015263033701 0.0015061228614 0.0014863395883 0.0014669406833 0.0014479247558 
0.0014293020386 0.0014110684887 0.0013932233125 0.0013757460772 0.0013586118158 0.0013417983532 0.0013253020123 0.0013091225158 0.0012932666087 
0.0012777441655 0.0012625496449 0.0012476612482 0.00123306235 0.0012187342644 0.001204588324 0.0016360766654 0.0016135465453 0.0015914995903 
0.0015699338026 0.0015490326271 0.0015285172618 0.0015083042753 0.0014884989848 0.0014690781342 0.0014500450647 0.0014313979972 0.0014131416215 
0.0013952654613 0.001377755697 0.0013605911147 0.0013437508296 0.0013272289278 0.0013110212712 0.0012951346156 0.0012795713651 0.0012643319364 
0.0012493980015 0.0012347574448 0.001220394885 0.0012062132622 0.0011923838274 0.0016178843849 0.0015957864976 0.0015741656728 0.0015532213241 
0.0015326564517 0.0015124061807 0.0014925660212 0.0014731114619 0.0014540312247 0.0014353348512 0.0014170198885 0.0013990915448 0.0013815388424 
0.0013643352265 0.0013474575419 0.0013308917288 0.0013146333334 0.0012986905405 0.0012830670637 0.0012677660404 0.0012527767445 0.0012380858176 
0.0012236680655 0.0012095194709 0.0011955513591 0.0011819733789 0.001602100936 0.0015804021206 0.0015593742031 0.0015387302802 0.0015184174942 
0.0014985270724 0.0014790276945 0.0014598969591 0.0014411343625 0.0014227402529 0.0014047266667 0.0013870963976 0.0013698331496 0.0013529092955 
0.0013362966471 0.0013199809518 0.0013039648831 0.0012882574847 0.0012728650694 0.0012577949653 0.0012430354032 0.001228562891 0.0012143559536 
0.0012003588045 0.001186665757 0.001173237326 0.0015887780188 0.0015676518323 0.0015468873795 0.0015264656326 0.0015064918332 0.0014869335729 
0.0014677480418 0.001448918558 0.0014304393834 0.0014123173474 0.0013945735898 0.0013772076401 0.0013602030796 0.0013435351664 0.0013271573871 
0.0013110708483 0.0012952700268 0.0012797727834 0.0012645860823 0.0012497222227 0.0012351661577 0.0012209323243 0.0012068246703 0.0011930511295 
0.0011795242302 0.0011661159925 0.0015782978848 0.0015573892933 0.0015368126504 0.0015166960853 0.0014970297763 0.0014777747139 0.0014588808629 
0.0014403237501 0.0014220958204 0.0014042123358 0.0013866936728 0.0013695562879 0.0013527893454 0.0013363463236 0.0013201928706 0.0013043086451 
0.0012886954344 0.0012733731878 0.0012583624647 0.0012436754598 0.0012293383522 0.0012152400745 0.0012012994907 0.0011876752156 0.0011741563528 
0.0011610261676 0.0015705773288 0.0015498251856 0.0015295120428 0.0015096628371 0.0014902703127 0.0014712789597 0.0014526488093 0.0014343334117 
0.0014163239736 0.0013986391819 0.0013813167939 0.0013643796204 0.0013478085712 0.001331567452 0.001315608879 0.0012999033238 0.0012844449791 
0.0012692662765 0.0012544368688 0.0012398949615 0.0012256720943 0.0012116310034 0.0011979272968 0.0011843069244 0.0011710361431 0.001158011039 
0.0015658295701 0.0015453143891 0.0015252218559 0.0015055986641 0.0014864375197 0.0014676854235 0.0014492840255 0.0014311788351 0.0014133505503 
0.0013958317471 0.0013786605408 0.0013618799507 0.0013454718527 0.0013294004926 0.0013136063389 0.0012980493387 0.0012827619652 0.0012676883977 
0.0012529255528 0.0012384914203 0.0012243003297 0.0012104842995 0.0011967700478 0.0011833875779 0.0011702059936 0.00115725956 0.0015642700884 
0.0015439569124 0.0015240521653 0.0015046132119 0.0014856331225 0.0014670777561 0.001448869372 0.0014309414093 0.0014132647508 0.0013958706597 
0.0013788175017 0.0013621479934 0.0013458649387 0.0013299267452 0.0013142643482 0.0012988687029 0.0012836366 0.0012686474475 0.0012539513265 
0.0012396048199 0.0012254998211 0.0012116504787 0.001198159654 0.0011848543736 0.0011717376301 0.001158838344 0.0015656546357 0.0015455171173 
0.0015257739257 0.0015064771097 0.0014876457313 0.001469236119 0.0014511751858 0.0014333857338 0.00141583521 0.0013985437376 0.0013815826314 
0.0013649962482 0.0013487974401 0.0013329882283 0.0013174173874 0.0013020652858 0.0012869054795 0.0012719773886 0.0012573429513 0.0012429539918 
0.0012288678213 0.0012152027865 0.0012017713288 0.0011885222789 0.0011754470261 0.0011625492919 0.0015691872045 0.0015492137782 0.001529621969 
0.0015104523762 0.0014917363851 0.0014734383382 0.0014554889498 0.0014378015506 0.0014203533498 0.0014031567513 0.0013862681445 0.0013697876593 
0.0013536404952 0.0013378377107 0.0013223235529 0.0013070312905 0.0012919385379 0.0012770650518 0.0012623817654 0.0012479924274 0.0012340545813 
0.0012204136122 0.0012070078122 0.0011937850694 0.0011807055721 0.001167863975 0.0015734539385 0.0015536467927 0.0015342037875 0.0015151707063 
0.0014965638867 0.0014783567115 0.0014604894573 0.0014428900144 0.0014255361479 0.0014084713823 0.0013916561669 0.0013751795666 0.0013590729976 
0.0013433062574 0.001327829464 0.0013125820121 0.0012975392144 0.0012825149456 0.001267967315 0.0012537281684 0.0012398022411 0.0012261691015 
0.0012127342915 0.0011995256904 0.0011864957221 0.0011736828651 0.0015764498339 0.0015568310745 0.0015375680978 0.0015186920162 0.0015002111954 
0.0014821058951 0.001464327003 0.0014468688051 0.001429604271 0.0014125880741 0.0013958630614 0.001379465223 0.001363407238 0.0013476836774 
0.0013322404105 0.0013170414982 0.0013019479372 0.0012871094308 0.0012726219266 0.0012584246617 0.0012445280387 0.0012308661084 0.0012174706016 
0.0012042657714 0.0011912717868 0.0011785474959 0.0015759267963 0.0015565384376 0.0015375007681 0.0015188290284 0.001500517024 0.0014826078666 
0.0014649497266 0.0014475606226 0.0014304213772 0.001413538815 0.0013969340355 0.0013806397723 0.0013646698429 0.0013490168069 0.0013336424855 
0.001318408371 0.0013034285183 0.0012887813606 0.0012743898125 0.0012602369697 0.0012464015176 0.0012328173941 0.0012194488904 0.0012063434548 
0.0011933711364 0.0011806247986 0.0015698461831 0.001550753566 0.0015320099249 0.0015136546358 0.001495579364 0.0014778290067 0.0014603635645 
0.0014431531377 0.0014261903547 0.0014094798347 0.0013930432768 0.0013769097163 0.0013610831904 0.001345559125 0.0013302007614 0.0013151108101 
0.0013003624233 0.0012858644718 0.0012715857029 0.0012576049768 0.0012438784682 0.0012303799059 0.0012171483865 0.0012040400046 0.0011911361581 
0.0011784604279 0.0022898652567 0.0022557138305 0.0022223801588 0.0021898338839 0.0021580394137 0.0021269603666 0.0020965590512 0.0020667020368 
0.0020374364069 0.0020088404701 0.0019805275916 0.0019530973658 0.0019262651714 0.0019000761938 0.0018744268984 0.001849462419 0.0018248873537 
0.0018008790795 0.0017772995413 0.0017542165514 0.0017316284284 0.0017095320542 0.0016879063151 0.0016667343152 0.0016459953427 0.0016256799652 
0.0022605162865 0.0022269689322 0.0021942056396 0.0021621986324 0.0021309268546 0.0021003716166 0.0020704208592 0.0020410989862 0.0020124692745 
0.001984104317 0.00195660517 0.0019296694584 0.0019033639718 0.0018775972923 0.0018525425525 0.0018279001345 0.001803837368 0.0017801839376 
0.0017570095622 0.0017343114305 0.001712101365 0.0016903803394 0.0016691313548 0.001648330149 0.0016279516171 0.001607977611 0.0022257443104 
0.0021928946072 0.0021607854166 0.0021293982573 0.0020986551696 0.0020687021957 0.0020393498247 0.0020107321003 0.0019823925968 0.0019549316154 
0.0019280013299 0.001901668258 0.0018758506958 0.0018507493882 0.0018260821667 0.001802033329 0.0017783895073 0.0017552182148 0.0017324953543 
0.0017102359008 0.0016884562615 0.0016671618864 0.0016463413571 0.0016259591773 0.0016059852808 0.0015864002781 0.0021872426581 0.0021551494556 
0.0021237535771 0.002092974842 0.002062970564 0.0020335867148 0.00200498536 0.001976699323 0.0019493356217 0.0019225517349 0.0018962311638 
0.0018704385442 0.0018453295765 0.0018206595798 0.0017966465083 0.0017730658928 0.0017499676981 0.0017273068517 0.0017050733132 0.0016832898053 
0.0016619721046 0.001641140055 0.0016207780238 0.0016008530648 0.0015813158616 0.0015621446615 0.0021469304438 0.0021155509086 0.0020849041675 
0.0020549170798 0.0020255234815 0.0019965712921 0.0019686634366 0.001941393735 0.0019147388004 0.0018885553496 0.0018628614412 0.0018376753211 
0.0018131637314 0.0017891812874 0.0017656514765 0.0017426375689 0.0017200862921 0.0016979577645 0.0016762347036 0.0016549478885 0.0016341172277 
0.0016137640115 0.0015938732952 0.0015744046824 0.0015553153735 0.00153657411 0.0021065380135 0.0020760180128 0.0020461243524 0.0020167836248 
0.0019878283502 0.0019599286987 0.001932710916 0.0019061529833 0.0018801083258 0.0018545692262 0.0018295012363 0.0018050579805 0.001781116061 
0.001757613845 0.0017346591928 0.0017122033957 0.0016901948754 0.0016685922745 0.001647385538 0.001626590336 0.0016062454328 0.001586366775 
0.0015669409612 0.0015479293478 0.00152928081 0.0015109685368 0.0020676165059 0.0020378592895 0.0020087120288 0.0019797200226 0.001951848114 
0.0019246687188 0.0018981073937 0.0018721547703 0.0018467453886 0.0018218254364 0.0017974993673 0.001773643565 0.0017501645636 0.0017272291918 
0.0017048194274 0.001682897881 0.0016614103957 0.0016403166306 0.00161960781 0.0015993002108 0.0015794271427 0.0015600076827 0.0015410255899 
0.001522446962 0.0015042241312 0.0014863252673 0.0020310067594 0.0020015772924 0.001973077289 0.001945260783 0.0019181011425 0.0018915435647 
0.0018656131054 0.0018402663 0.0018154515696 0.0017912493726 0.0017675059756 0.001744090461 0.0017211731276 0.0016987736259 0.0016768807283 
0.0016554586229 0.0016344566922 0.0016138437178 0.0015936098132 0.0015737680287 0.0015543491301 0.0015353633402 0.0015168011333 0.0014986294837 
0.001480802856 0.0014632951278 0.0019967565863 0.0019683371171 0.0019406333791 0.001913481786 0.0018869325725 0.0018609944322 0.0018356550583 
0.0018108787478 0.0017867510907 0.0017631047582 0.001739767209 0.0017168945421 0.0016945077895 0.0016726113473 0.0016512009789 0.0016302448163 
0.0016096949761 0.0015895328511 0.0015697442537 0.0015503470026 0.0015313529888 0.0015127734923 0.0014945969099 0.00147679578 0.0014593349691 
0.0014421901592 0.0019656772587 0.0019380279282 0.0019109318947 0.001884412291 0.0018584722615 0.0018331174963 0.0018083319425 0.0017840867113 
0.0017606262928 0.0017373457474 0.0017145200937 0.0016921533325 0.0016702556541 0.0016488308269 0.0016278635562 0.0016073344427 0.0015872057926 
0.0015674588917 0.0015480852769 0.0015290973551 0.0015105011149 0.0014923009588 0.0014744829905 0.0014570265486 0.0014399021382 0.0014230951875 
0.0019374995222 0.0019104254092 0.0018839223427 0.0018579887648 0.0018326154595 0.0018078079095 0.0017837128096 0.0017600867982 0.0017368186867 
0.0017140162303 0.0016916675982 0.0016697703652 0.0016483288668 0.0016273407212 0.00160679128 0.001586658464 0.0015669182036 0.0015475561708 
0.0015285665002 0.0015099536411 0.0014917277999 0.0014738731536 0.0014563880208 0.0014392499994 0.001422438902 0.0014058581526 0.0019118908926 
0.0018853847828 0.0018594385332 0.0018340510284 0.0018092147545 0.0017850958638 0.0017614366372 0.001738149464 0.00171533274 0.0016929747319 
0.0016710661314 0.0016496069506 0.0016285852758 0.00160800351 0.0015878387407 0.0015680749901 0.0015486958579 0.001529691957 0.001511058451 
0.001492794038 0.0014749010204 0.0014573726603 0.0014401917995 0.0014233502632 0.0014068279324 0.0013905374579 0.0018887182366 0.0018627434091 
0.001837322044 0.0018124466437 0.001788294964 0.0017645921581 0.0017412623907 0.0017184096682 0.0016960166255 0.001674074813 0.0016525770155 
0.0016315188177 0.0016108933123 0.0015906850544 0.0015708781092 0.001551457039 0.0015324145683 0.0015137405169 0.0014954333189 0.0014774883394 
0.0014599068348 0.0014426728891 0.0014257781248 0.0014092086942 0.0013928696255 0.0013769264268 0.0018678676771 0.0018423911512 0.0018174574179 
0.0017932550836 0.0017694945044 0.0017461115893 0.0017232081924 0.0017007661871 0.0016787693403 0.0016572169749 0.0016360975555 0.0016154107984 
0.001595146459 0.0015752865957 0.0015558119483 0.0015367127387 0.0015179799089 0.0014996112631 0.0014816029472 0.0014639521159 0.0014466524705 
0.0014296942001 0.0014130590478 0.0013967425092 0.0013806531412 0.0013649918559 0.0018492916466 0.0018242800394 0.0018000026736 0.0017761601904 
0.0017527059755 0.001729735951 0.0017072315568 0.0016851703884 0.0016635453974 0.0016423472665 0.0016215810309 0.0016012365009 0.0015813038386 
0.0015617675129 0.0015426034979 0.0015237993909 0.0015053530673 0.0014872638596 0.0014695252038 0.0014521413872 0.0014351055109 0.0014184009755 
0.0014020113285 0.0013858832167 0.0013701038496 0.0013546265198 0.0018332202945 0.0018086290464 0.0017846818251 0.0017611243557 0.0017380650097 
0.0017154826939 0.0016933462492 0.001671642595 0.0016503600554 0.0016294920528 0.0016090454109 0.0015890139319 0.001569388816 0.0015501474767 
0.0015312620109 0.001512732672 0.0014945490742 0.0014767145746 0.0014592259554 0.0014420866433 0.0014252886782 0.0014088559194 0.0013926015893 
0.0013767336091 0.0013611590074 0.001345737576 0.001819263447 0.0017951923065 0.0017715079453 0.0017483226568 0.0017256300286 0.0017034046794 
0.0016816125416 0.0016602381664 0.0016392670585 0.0016186990918 0.0015985356095 0.0015787887391 0.0015594443535 0.0015404719745 0.0015218544325 
0.0015035744015 0.0014856281384 0.0014680187964 0.0014507540627 0.0014338333598 0.0014172933602 0.001401028441 0.0013849760601 0.0013692972594 
0.0013537699026 0.0013386681355 0.0018078520555 0.0017840211223 0.0017606804499 0.0017378399583 0.0017154840488 0.0016935779776 0.0016721023602 
0.0016510281598 0.0016303380858 0.0016100416362 0.0015901418919 0.0015706540602 0.0015515564694 0.0015328305715 0.0015144507331 0.0014963957335 
0.0014786592856 0.001461251093 0.0014442225792 0.0014274966035 0.001411105711 0.001394934214 0.0013791522711 0.0013635159998 0.0013482862345 
0.0013333392904 0.0017987660686 0.0017752647358 0.0017522384602 0.0017297073151 0.0017076514966 0.0016860467541 0.0016648579474 0.0016440548501 
0.0016236197255 0.0016035638452 0.0015838929584 0.0015646277959 0.0015457501157 0.0015272421138 0.0015090730119 0.0014912194071 0.0014737138557 
0.0014564788791 0.0014395781861 0.0014230156778 0.0014067006775 0.0013907898754 0.0013750370372 0.0013596821051 0.0013445927124 0.00132977857 
0.0017920201122 0.0017688184663 0.0017460787041 0.0017238256261 0.001702037871 0.0016807004425 0.0016597720687 0.0016392126288 0.0016190056163 
0.001599158338 0.0015796907991 0.001560616701 0.0015419331366 0.0015236159951 0.0015056328985 0.0014880001152 0.0014706128738 0.0014535252936 
0.0014367701058 0.0014203577677 0.0014041855805 0.0013882892048 0.0013728019137 0.0013575755127 0.0013426045531 0.0013279003768 0.0017872518821 
0.0017643245313 0.0017418536954 0.0017198470072 0.0016983051184 0.0016772032836 0.0016565021018 0.0016361614033 0.0016161615148 0.0015965056048 
0.0015772205008 0.001558319238 0.0015398022003 0.0015216893511 0.0015038649146 0.0014863335355 0.0014690953888 0.0014521492472 0.001435524121 
0.0014191436034 0.0014030577355 0.0013874069119 0.0013720352521 0.0013569184557 0.0013420511623 0.0013274122572 0.0017837383536 0.0017610781408 
0.0017388609411 0.0017170899766 0.0016957729875 0.0016748889829 0.0016543961402 0.0016342503536 0.0016144421325 0.0015949692145 0.0015758511165 
0.0015571513995 0.001538781476 0.0015207647306 0.0015030812149 0.0014856931967 0.0014685882126 0.0014517725325 0.0014351752051 0.0014188748239 
0.0014030160873 0.0013874639857 0.0013721895571 0.0013571657684 0.0013423555981 0.0013278384566 0.0017804041312 0.0017580101919 0.0017360423744 
0.0017145143974 0.0016934215885 0.0016727437191 0.0016524455931 0.0016324933653 0.001612868629 0.0015936200944 0.0015746675048 0.0015560695206 
0.0015378433663 0.0015199658985 0.0015024143225 0.0014851563964 0.0014681800774 0.0014512852321 0.0014348999213 0.0014188294844 0.0014030717261 
0.0013876144808 0.0013723925435 0.001357456098 0.0013427650052 0.0013283396745 0.0017758594563 0.0017537473413 0.0017320526652 0.0017107794595 
0.001689922696 0.0016694628496 0.0016493689129 0.0016296635905 0.001610228511 0.0015911137717 0.0015723378031 0.0015539118747 0.0015358354749 
0.0015181048274 0.0015006882408 0.0014835690664 0.0014666191876 0.0014499790607 0.0014337249729 0.0014177753523 0.0014021287043 0.0013867322855 
0.0013716375843 0.0013567859707 0.0013421987252 0.0013279248815 0.0017686223587 0.0017468230109 0.0017254329348 0.0017044480478 0.0016838569711 
0.0016636951035 0.0016438309008 0.0016242933981 0.0016050736384 0.0015861745647 0.0015675994599 0.0015493596035 0.0015314604817 0.0015138957708 
0.001496640437 0.0014795704143 0.0014628080701 0.0014464224066 0.0014303252963 0.001414485557 0.0013989767649 0.0013837395156 0.001368753102 
0.0013540754719 0.0013395808079 0.0013253458136 0.00175738422 0.0017359433474 0.0017149051431 0.0016943001946 0.0016740155236 0.0016540942015 
0.0016345078036 0.0016152326519 0.0015962702532 0.0015776134193 0.0015592740331 0.0015412612657 0.0015235810783 0.0015062195584 0.0014890562238 
0.001472201335 0.0014557299306 0.0014395472318 0.0014236106125 0.0014079920035 0.001392650483 0.0013775621058 0.00136278079 0.0013481689773 
0.0013338044582 0.0013196982807 0.0025400613729 0.0025021091733 0.0024650706885 0.0024289075598 0.0023935806681 0.0023590500153 0.0023252817618 
0.0022921503611 0.0022597109204 0.0022280333379 0.0021967245798 0.0021663757197 0.0021366808818 0.0021076810381 0.0020792697633 0.0020516004355 
0.0020243852564 0.0019978020102 0.001971710027 0.0019461686605 0.0019211696491 0.0018967047187 0.0018727552834 0.0018493071955 0.0018263467632 
0.0018038654586 0.0025102411518 0.0024729432687 0.0024365282537 0.0024009624492 0.0023662130623 0.0023322535728 0.0022989686284 0.0022663955618 
0.0022346054518 0.0022031762198 0.002172699431 0.0021428654215 0.0021137216037 0.002085158861 0.0020573573206 0.0020300189365 0.0020033239273 
0.0019771095481 0.0019514410047 0.0019263053823 0.0019017016018 0.0018776243548 0.0018540593979 0.0018309854204 0.0018083898824 0.0017862569775 
0.0024764450457 0.0024398675914 0.0024041356798 0.0023692235917 0.0023350343517 0.0023017001818 0.0022690274565 0.002237159711 0.0022056567502 
0.00217513092 0.0021452300574 0.0021160052761 0.0020873521712 0.0020594582908 0.00203203986 0.0020052869841 0.0019790148933 0.0019532745176 
0.0019280614753 0.0019033703131 0.0018792011263 0.0018555488949 0.0018324024872 0.001809738494 0.0017875391014 0.0017657915924 0.002439776919 
0.0024039604442 0.0023689565625 0.0023346729852 0.0023012404369 0.0022684844505 0.0022362231153 0.00220501593 0.0021744773032 0.002144619351 
0.0021153233921 0.0020866361078 0.0020586910645 0.0020312195338 0.0020044419622 0.0019781412626 0.0019523928967 0.0019271591018 0.0019024318907 
0.0018782146532 0.0018545045212 0.001831302182 0.0018086020415 0.0017863736396 0.0017645960843 0.0017432485786 0.0024015235697 0.0023664221638 
0.002332174448 0.0022986915723 0.0022658790185 0.0022335581405 0.0022023242837 0.0021717855034 0.0021419433895 0.0021126740402 0.0020839980935 
0.0020559134965 0.0020285588614 0.0020017653874 0.0019754548873 0.0019497054945 0.0019244881972 0.0018997743536 0.0018755532695 0.0018518244274 
0.0018285937249 0.0018058580085 0.0017836099775 0.0017618240136 0.0017404772663 0.0017195467391 0.0023628768392 0.0023286368328 0.0022951508482 
0.0022623225429 0.0022299543409 0.0021986901416 0.0021681471482 0.0021383164853 0.0021090806789 0.0020804513588 0.0020523954672 0.0020250506815 
0.001998259423 0.0019719407273 0.0019461968353 0.0019209962004 0.0018963121903 0.001872121481 0.0018484015702 0.0018251619328 0.0018024071634 
0.0017801397011 0.0017583459542 0.0017370062871 0.0017160903204 0.0016955797127 0.0023250287485 0.0022915684948 0.0022587515201 0.0022263737141 
0.0021950971456 0.0021645653018 0.0021346896232 0.0021054737659 0.0020768810679 0.0020488741372 0.0020215650553 0.0019948030871 0.0019684784039 
0.0019427257605 0.0019175296844 0.0018928661202 0.0018687027491 0.0018450175833 0.0018217970396 0.0017990399743 0.0017767555161 0.0017549455666 
0.0017335961778 0.0017126888475 0.0016921958871 0.0016720959184 0.0022886832768 0.0022555793584 0.0022235192658 0.0021922452602 0.0021616957029 
0.0021318024014 0.0021025777567 0.0020739950559 0.0020460181518 0.0020187459778 0.0019920264989 0.0019657117609 0.0019399555452 0.0019147507242 
0.0018900838076 0.0018659348681 0.001842272173 0.0018190763996 0.0017963332595 0.0017740448835 0.001752215114 0.0017308451769 0.0017099257521 
0.0016894354616 0.0016693468226 0.0016496418353 0.0022539008 0.0022218511703 0.0021906177747 0.002160029645 0.0021301181378 0.0021008719074 
0.0020722723117 0.0020442949142 0.0020170398192 0.0019903500384 0.0019640549473 0.0019382988202 0.0019130817291 0.0018883993406 0.0018642391874 
0.0018405833295 0.0018173977779 0.0017946676865 0.0017723817679 0.0017505449404 0.0017291494634 0.0017082021219 0.0016876862506 0.0016675842206 
0.0016478773664 0.0016285487292 0.0022216257829 0.0021903981568 0.0021598093573 0.002129886051 0.0021006146156 0.0020719838661 0.0020439810236 
0.0020167113855 0.0019900300253 0.001963744621 0.0019379892583 0.0019127592603 0.0018880548919 0.0018638678624 0.0018401831737 0.001816987562 
0.0017942525597 0.0017719607876 0.0017501109433 0.0017286960414 0.001707719337 0.0016871675417 0.0016670349335 0.0016473052113 0.0016279586133 
0.0016089836429 0.0021917330925 0.0021611310528 0.0021311889265 0.0021018941338 0.0020732265916 0.0020451876874 0.0020179164904 0.0019911844782 
0.0019648783463 0.0019391098697 0.0019138645249 0.0018891339146 0.0018649125106 0.0018411936606 0.0018179626345 0.0017952015073 0.0017728891857 
0.0017510164116 0.0017295739615 0.0017085559313 0.0016879675032 0.0016677891471 0.0016480175705 0.0016286361111 0.0016096306717 0.0015909051269 
0.0021640301208 0.0021340570579 0.0021047245472 0.0020760221961 0.0020479363662 0.0020206320314 0.0019938513976 0.0019675076529 0.0019417046701 
0.0019164237592 0.0018916585968 0.0018673976708 0.0018436315673 0.0018203552338 0.0017975491297 0.0017751987391 0.0017532870571 0.001731805338 
0.0017107437068 0.0016901038357 0.0016698750776 0.0016500496036 0.0016306139128 0.0016115623273 0.0015928764056 0.0015744659254 0.002138484931 
0.0021091083818 0.0020803556312 0.002052215533 0.0020248666745 0.0019980306804 0.0019716294709 0.0019457736731 0.0019204439787 0.001895630728 
0.0018713170933 0.0018474984995 0.0018241651173 0.0018013000226 0.0017788931947 0.0017569264247 0.0017353940206 0.0017142790155 0.0016935800552 
0.0016732868984 0.0016533980354 0.0016338995019 0.0016147826336 0.0015960380152 0.0015775665769 0.00155953163 0.0021150469786 0.002086229581 
0.0020580235069 0.002030614579 0.0020037086306 0.0019772441519 0.0019513249286 0.0019259349791 0.0019010541246 0.0018766773206 0.0018527901741 
0.0018293857934 0.001806453722 0.0017839792913 0.0017619472527 0.0017403440962 0.0017191647395 0.0016983944281 0.0016780294517 0.0016580629564 
0.0016384898939 0.0016193003435 0.0016004789053 0.0015819317286 0.0015638672904 0.0015461089944 0.0020936740034 0.0020653901078 0.0020379084915 
0.002010913485 0.0019843697168 0.0019583754582 0.0019329080959 0.0019079528462 0.0018834970384 0.0018595273725 0.0018360418787 0.0018130256576 
0.0017904678956 0.0017683621693 0.0017466847304 0.0017254230074 0.001704568245 0.0016841199744 0.0016640632386 0.0016444022358 0.0016251269046 
0.0016062256192 0.0015876885407 0.0015694489554 0.0015516034271 0.0015340986567 0.0020745749337 0.0020467827475 0.0020196917262 0.001993048361 
0.0019669590456 0.0019414074882 0.0019163651653 0.001891824585 0.0018677666926 0.0018441816725 0.0018210671458 0.001798413672 0.001776212473 
0.0017544456522 0.0017330905917 0.0017121458692 0.0016916013633 0.0016714496975 0.0016516851125 0.0016323099593 0.0016133093611 0.0015947150531 
0.0015763463947 0.0015584063368 0.001540801531 0.0015233889034 0.002057296423 0.0020300964303 0.0020033373575 0.0019771329084 0.0019514739759 
0.0019263358902 0.0019016954424 0.001877540668 0.0018538545132 0.0018306278764 0.0018078531386 0.0017855363866 0.001763666446 0.0017422155078 
0.0017211734434 0.0017005272465 0.0016802652845 0.0016603916869 0.0016408952428 0.0016217779195 0.001603073932 0.001584685304 0.0015665535799 
0.0015488417148 0.0015313256599 0.0015142700235 0.0020421684198 0.0020152827334 0.0019889463312 0.0019631584979 0.0019378993518 0.0019131434055 
0.0018888809863 0.0018650874982 0.0018417424028 0.001818849832 0.0017964002896 0.0017744013375 0.0017528294421 0.0017316750624 0.0017109176099 
0.0016905459454 0.0016705475067 0.0016509239644 0.0016317171024 0.0016128396056 0.0015943284614 0.0015760726825 0.0015582505103 0.001540623335 
0.0015234461772 0.0015065896804 0.0020288555612 0.0020023831632 0.0019764450251 0.0019510437637 0.0019261568505 0.0019017673556 0.0018778540161 
0.0018543963909 0.0018313737287 0.0018087899716 0.0017866386049 0.0017649238934 0.0017436313344 0.0017227490902 0.0017022556226 0.0016821373425 
0.0016624242426 0.0016430325877 0.0016240083689 0.0016053463236 0.0015869594156 0.0015690069421 0.0015512570861 0.001533955266 0.0015169654265 
0.0015002865356 0.0020172884326 0.001991204354 0.0019656382495 0.0019405984446 0.0019160591689 0.0018920119057 0.0018684284379 0.0018452852108 
0.0018225617759 0.0018002611748 0.0017783851727 0.0017569338598 0.0017359004055 0.0017152677659 0.001695063178 0.0016751802028 0.0016556464494 