# vtk DataFile Version 5.1
vtk output
ASCII
DATASET STRUCTURED_POINTS
DIMENSIONS 26 26 26
SPACING 0.08 0.08 0.08
ORIGIN -1 -1 0.5
POINT_DATA 17576
FIELD FieldData 1
potential 1 17576 double
0.00063273118459 0.00062689633032 0.00062114156684 0.00061546664022 0.00060986375678 0.00060433179222 0.00059886042773 0.00059343882177 0.00058805824577 
0.00058272411209 0.00057744574942 0.00057223923582 0.00056712734368 0.00056211321609 0.00055719575346 0.000552362783 0.00054759520764 0.00054288458487 
0.00053822543373 0.00053361640306 0.00052906036924 0.00052455448939 0.00052009055681 0.00051566314469 0.0005112613338 0.00050688947101 0.00063235662497 
0.00062647465425 0.00062066628863 0.00061493257923 0.00060927323448 0.00060369686509 0.000598198576 0.00059276313559 0.00058737930519 0.00058203982792 
0.00057675278755 0.00057153516781 0.00056640655896 0.00056138360254 0.00055646362112 0.00055163094514 0.00054686634174 0.00054215687343 0.0005374926785 
0.0005328786109 0.00052831934217 0.00052381642161 0.00051936148255 0.00051494602455 0.00051055275306 0.00050618227797 0.00062963376776 0.00062373745962 
0.0006179004575 0.00061212303754 0.00060643655399 0.00060083973251 0.00059533521595 0.0005899082329 0.00058453754348 0.0005792081954 0.00057392514384 
0.00056870865216 0.00056358397685 0.00055856919528 0.00055366582361 0.00054885609185 0.00054411560912 0.00053942311768 0.00053477351781 0.00053017055589 
0.00052562580778 0.00052114456025 0.00051671787432 0.00051232790129 0.000507961498 0.00050360666689 0.00062539247257 0.00061949830944 0.00061364781495 
0.00060785883304 0.0006021533435 0.00059655287374 0.0005910587444 0.00058565187729 0.00058030445553 0.00057499551146 0.00056972633416 0.00056452071153 
0.00055940880732 0.00055441549521 0.00054954162119 0.00054476672708 0.00054006082779 0.00053539832642 0.00053077104045 0.00052619272471 0.00052167273985 
0.00051722294333 0.00051283380392 0.00050848277289 0.00050415053917 0.00049981998785 0.0006205598125 0.00061467400783 0.00060882744928 0.00060303187855 
0.00059732468632 0.00059172937182 0.00058624915864 0.00058086483195 0.00057554178945 0.00057025653578 0.00056500586618 0.00055981579966 0.00055472396332 
0.00054975475427 0.00054491226852 0.00054017426289 0.00053550365652 0.00053087540773 0.00052627730514 0.00052172487135 0.00051723548845 0.00051282139075 
0.00050847007199 0.00050415774543 0.00049985929755 0.00049555676965 0.00061595703001 0.00061008473421 0.00060424320423 0.0005984550335 0.00059274908691 
0.00058715812878 0.000581694465 0.00057632578887 0.0005710176172 0.00056575266964 0.00056052160398 0.00055534999629 0.00055027577616 0.00054532928712 
0.00054051305599 0.00053580330274 0.00053116358061 0.00052656300085 0.00052199523683 0.00051746950856 0.00051300758238 0.00050862003758 0.00050430036581 
0.00050001781893 0.00049574492159 0.00049147157359 0.00061218703004 0.00060631243338 0.0006004761334 0.00059469277818 0.00058900009549 0.0005834096529 
0.00057794297839 0.0005725839105 0.00056728664242 0.00056203212626 0.00055681253025 0.00055165941582 0.00054660164665 0.00054167001434 0.00053686781312 
0.00053217344122 0.00052755140848 0.00052297217456 0.00051842532067 0.00051392268904 0.000509480944 0.00050511178612 0.00050080666808 0.00049654169854 
0.00049228652634 0.00048803272593 0.00060957345132 0.00060369108742 0.0005978537001 0.00059207363266 0.0005863773916 0.00058078614176 0.00057531678662 
0.00056994112684 0.00056464341271 0.00055938931075 0.00055418146124 0.00054903899143 0.00054398921985 0.00053906268322 0.00053426150887 0.00052956523168 
0.00052494492534 0.00052037363368 0.00051584112248 0.00051135238785 0.00050692288173 0.00050255987013 0.00049825552963 0.00049399035367 0.0004897412494 
0.00048549744332 0.00060823760324 0.00060231974742 0.00059647384628 0.00059069026498 0.00058499113687 0.00057939300578 0.00057389742005 0.0005684999803 
0.00056318727482 0.00055792163939 0.00055271241253 0.00054757349805 0.00054252949234 0.00053759309404 0.00053277850068 0.0005280655739 0.00052343071636 
0.00051885290733 0.00051432155742 0.00050983837013 0.00050540971453 0.00050104194805 0.00049672626657 0.0004924482266 0.00048818860791 0.00048394160505 
0.00060810824237 0.00060216358586 0.00059629885924 0.00059050559177 0.00058479475796 0.00057917877785 0.0005736601291 0.00056822694723 0.00056287431918 
0.00055759301754 0.00055237544979 0.00054722921148 0.00054217438208 0.00053722472212 0.00053238203089 0.00052763591137 0.00052297284899 0.00051837469358 
0.0005138300535 0.00050933849097 0.00050490122424 0.00050051712199 0.00049618028534 0.00049187846085 0.00048760057495 0.00048334184194 0.00060910935366 
0.00060312750156 0.00059723492607 0.00059142007191 0.00058568826221 0.00058004739074 0.0005744957361 0.0005690282944 0.00056363353495 0.00055831514566 
0.0005530748112 0.00054790950424 0.00054283771696 0.00053785893462 0.00053297815699 0.00052819167751 0.00052348255308 0.0005188494038 0.00051427837391 
0.00050976598328 0.00050530709688 0.00050089804406 0.00049653072444 0.00049219900975 0.00048789386288 0.00048361407624 0.00061113498863 0.00060512360574 
0.00059918083431 0.0005933352947 0.00058757506448 0.00058190074944 0.00057630864959 0.00057079770725 0.00056535912331 0.00056000144594 0.00055472782544 
0.00054953269902 0.00054442318304 0.00053940842909 0.00053447886829 0.00052963695111 0.00052487712171 0.00052019502786 0.0005155805186 0.00051103178432 
0.0005065398771 0.00050209731573 0.00049769371524 0.00049332450501 0.00048898482791 0.00048467767413 0.00061411163827 0.0006080487123 0.00060206128196 
0.00059617727459 0.00059037928453 0.00058466436725 0.00057902736882 0.00057346707327 0.00056798291473 0.00056257467416 0.00055725502703 0.00055202580655 
0.00054687435552 0.00054180491219 0.00053681689153 0.00053191419108 0.0005270896107 0.00052234484552 0.00051767770638 0.00051307767805 0.00050854203573 
0.00050405436095 0.00049960743792 0.00049519443191 0.00049081399442 0.000486468791 0.00061801611236 0.00061188341545 0.00060584340066 0.00059991089364 
0.00059406640552 0.00058830458698 0.0005826173967 0.00057700324912 0.00057146412207 0.00056600788036 0.00056063232705 0.00055534763961 0.00055015177464 
0.00054502568882 0.00053997238263 0.00053499245765 0.00053009021119 0.0005252761728 0.00052054074916 0.00051588221882 0.00051128920437 0.00050674668242 
0.00050224717737 0.00049778249644 0.00049335305215 0.00048896269493 0.00062283223593 0.00061663415906 0.00061054404868 0.00060454032744 0.00059864252866 
0.00059282688065 0.00058708320442 0.00058140957179 0.00057581019701 0.00057029127273 0.00056486081603 0.00055951322709 0.00055425823225 0.00054906900786 
0.00054394386879 0.00053888474833 0.00053389947624 0.00052899628792 0.00052417991029 0.00051944996128 0.00051478980823 0.00051018623357 0.00050562255409 
0.00050109780278 0.00049660978838 0.00049216366218 0.00062862397866 0.00062234782126 0.00061618546546 0.00061011234678 0.00060415228405 0.0005982760551 
0.0005924705158 0.00058673126114 0.00058106217133 0.00057547233781 0.00056997102357 0.0005645546316 0.00055922619567 0.00055397414847 0.00054877264127 
0.00054362967981 0.00053855223783 0.00053355558579 0.00052864586385 0.00052382710154 0.00051909228342 0.0005144153108 0.00050978384069 0.00050518967785 
0.00050062981913 0.00049611734701 0.00063548137447 0.00062911639676 0.00062286704458 0.00061671210223 0.00061067860033 0.00060473448431 0.00059886136789 
0.0005930493806 0.00058730047067 0.00058162724869 0.00057604272437 0.00057055098857 0.00056514204805 0.00055980763431 0.00055453244223 0.00054929987549 
0.00054412462244 0.00053902346894 0.00053401171352 0.00052909639034 0.00052426990828 0.00051951184136 0.00051480491416 0.00051013121103 0.00050549376513 
0.00050090166116 0.00064352785996 0.00063705941291 0.00063070584591 0.00062447125285 0.00061833913654 0.00061231662254 0.00060636741558 0.00060047289313 
0.00059463237758 0.00058886144479 0.00058317867775 0.00057759598487 0.00057210492235 0.0005666813199 0.00056132125504 0.00055599537188 0.0005507140445 
0.00054550052688 0.00054037742004 0.00053535656615 0.00053043249233 0.00052558289114 0.00052078527361 0.0005160268314 0.00051129913515 0.00050662110959 
0.00065288299114 0.00064630869655 0.00063982335876 0.00063347846805 0.00062724595131 0.00062113319985 0.00061509528386 0.00060910753696 0.0006031651412 
0.00059728470574 0.00059148833613 0.00058579827313 0.00058020700385 0.00057468978057 0.00056922928895 0.00056380871029 0.00055841655106 0.00055308182567 
0.00054783827433 0.00054270214144 0.00053767168805 0.00053272432587 0.00052783006522 0.00052297047529 0.00051814298538 0.00051336963857 0.00066359528291 
0.00065689169246 0.00065027685889 0.00064380647349 0.00063745585774 0.00063123675045 0.00062509540015 0.00061900162499 0.00061294407224 0.00060693959639 
0.00060101856063 0.00059520479974 0.00058949977323 0.00058388159863 0.00057831043535 0.00057278097097 0.00056727043452 0.00056181138085 0.00055643860825 
0.00055118072398 0.00054603332538 0.00054097743711 0.00053597859383 0.00053101274005 0.00052607811056 0.00052119136582 0.00067556325153 0.00066872453087 
0.00066197060342 0.00065535945904 0.00064888974977 0.00064252859027 0.00063626603197 0.00063005174379 0.00062386946747 0.00061773363466 0.00061167965536 
0.00060573263407 0.00059989794437 0.00059415594063 0.00058847180439 0.00058281122817 0.00057718723871 0.00057160073227 0.00056609869107 0.00056070976102 
0.00055543623088 0.00055025956419 0.00054514519062 0.00054006582249 0.0005350163865 0.00053001571813 0.00068841877172 0.00068144141654 0.00067455197161 
0.00066779595541 0.00066118140359 0.00065467819476 0.0006482780459 0.00064192828711 0.00063561420602 0.0006293453229 0.0006231516908 0.00061706312978 
0.00061108665261 0.00060520738027 0.00059939184923 0.00059360419467 0.00058785126727 0.00058214715355 0.00057651642223 0.00057099477221 0.00056558887409 
0.0005602812457 0.00055504049615 0.00054983832805 0.00054467159837 0.00053955606082 0.00070150216706 0.00069438999046 0.00068736189986 0.00068047085389 
0.00067370977083 0.0006670563943 0.00066050844864 0.00065401694862 0.00064756803992 0.00064116598201 0.00063483662518 0.00062860648174 0.00062248516153 
0.00061646066454 0.00061050627366 0.00060459419663 0.00059870993321 0.00059288805627 0.0005871352709 0.00058148567952 0.00057594577216 0.00057050370499 
0.00056512981293 0.00055980329208 0.0005545178214 0.00054929009128 0.00071386437849 0.00070663816337 0.00069949936016 0.00069246646162 0.00068556880345 
0.00067878744904 0.00067208010595 0.00066544968384 0.00065886715409 0.00065233913852 0.00064588329797 0.00063952138848 0.0006332608106 0.00062709703186 
0.00062100457472 0.00061496651626 0.00060897329082 0.00060302842461 0.00059717272021 0.00059140472115 0.00058574016221 0.00058016537703 0.00057466185844 
0.00056921095903 0.00056381243156 0.00055847767 0.00072445465 0.00071711814402 0.0007098898012 0.00070274987748 0.00069573545528 0.00068882887182 
0.00068199231107 0.00067523926984 0.00066853833486 0.00066189767962 0.00065533066597 0.00064885310699 0.00064247173012 0.00063618293331 0.00062996959522 
0.00062381887135 0.0006177239512 0.00061168579109 0.00060573763002 0.00059987153421 0.00059409884405 0.00058840943011 0.00058278805373 0.00057722458749 
0.00057171898295 0.00056628537217 0.00073230370927 0.00072489376877 0.00071758728788 0.00071038186275 0.00070328342285 0.0006962790835 0.00068934332154 
0.00068248689609 0.00067569385944 0.00066896230851 0.00066230533719 0.00065573776922 0.00064926228192 0.00064287649008 0.0006365678699 0.00063032692936 
0.00062415333745 0.000618049584 0.00061201836295 0.00060608812812 0.00060023485925 0.00059445591899 0.00058874053281 0.00058308031658 0.00057748406764 
0.0005719651936 0.00070877689808 0.00070220209618 0.00069571906191 0.00068932762368 0.00068301596545 0.00067678232965 0.00067062097077 0.00066452446519 
0.00065848975406 0.00065252019473 0.00064662078406 0.00064079913366 0.00063507052764 0.00062943483085 0.00062389262775 0.00061843688298 0.00061305522139 
0.00060774220151 0.00060249194986 0.00059730114933 0.00059217013794 0.00058709557722 0.00058207084856 0.0005770957064 0.00057216126089 0.00056727115162 
0.0007099797115 0.00070334422807 0.00069680070987 0.00069034687307 0.00068397494109 0.00067768891406 0.00067148510261 0.0006653541938 0.0006592927119 
0.00065329765953 0.00064737211417 0.00064152596199 0.00063576779231 0.00063010863842 0.00062454515981 0.00061906978999 0.00061367062909 0.00060834114274 
0.00060307193058 0.00059786334233 0.00059271503401 0.00058762633077 0.00058259092423 0.00057760649679 0.00057266194675 0.000567758016 0.00070948187745 
0.00070281107297 0.00069622478655 0.00068971695145 0.00068330714732 0.00067698512452 0.00067075266578 0.00066460288506 0.00065852644373 0.00065251655875 
0.00064657588019 0.00064071499797 0.00063494396731 0.00062927201591 0.00062370121272 0.00061822154003 0.00061281964934 0.00060748453775 0.00060221104622 
0.00059699627063 0.00059184390837 0.00058675385365 0.00058172101076 0.00057673564301 0.00057179399161 0.00056688765407 0.00070781407324 0.00070112017591 
0.0006945014925 0.00068796656642 0.00068152250186 0.00067517664729 0.0006689282726 0.00066276811378 0.00065668489553 0.00065066880657 0.00064472061635 
0.00063885190844 0.00063307502621 0.00062740155077 0.00062183244086 0.0006163560152 0.00061096119826 0.0006056303422 0.00060035746644 0.00059514740598 
0.00058999901214 0.00058491506738 0.00057989129864 0.00057491651707 0.00056998345797 0.00056508035901 0.00070558345789 0.00069887067461 0.00069223380674 
0.00068567422035 0.00067920974973 0.00067284807194 0.0006665879258 0.00066042154596 0.00065433330976 0.00064831400793 0.00064236227894 0.00063648940538 
0.00063071224093 0.00062504037868 0.00061947598922 0.00061400828686 0.0006086187649 0.00060329644327 0.0005980307293 0.00059282568525 0.00058768522678 
0.00058261324876 0.00057760072932 0.0005726371898 0.00056771323776 0.00056281766307 0.000703353982 0.00069663038536 0.00068997525457 0.000683402584 
0.00067691935557 0.00067054107394 0.00066427474745 0.00065809941018 0.00065200134255 0.00064597973406 0.00064002445908 0.0006341491334 0.00062837033902 
0.00062269880489 0.00061713741117 0.00061167386824 0.00060629093079 0.00060097301224 0.0005957148215 0.00059051516159 0.00058538169227 0.00058031552359 
0.00057531223433 0.00057035672965 0.00056543661245 0.0005605504902 0.00070158581465 0.00069483828502 0.0006881663753 0.00068157664085 0.00067508468409 
0.00066868748155 0.00066240070778 0.00065621744896 0.00065011271929 0.00064408021775 0.00063811537913 0.00063223621907 0.00062645248817 0.00062077809942 
0.00061521274942 0.00060974701923 0.00060436298147 0.00059904614547 0.00059378834483 0.00058859090623 0.00058345863959 0.00057839370054 0.00057338943281 
0.0005684360969 0.00056351806754 0.00055863359141 0.00070056849149 0.00069379623428 0.00068710312392 0.00068049303603 0.00067397687428 0.00066756103444 
0.0006612584011 0.00065504803031 0.00064893001109 0.00064288226004 0.00063690938575 0.00063101994928 0.00062522381841 0.00061953762978 0.0006139606016 
0.00060848227452 0.00060308669062 0.0005977613684 0.00059249860994 0.00058729631946 0.00058215925806 0.00057708711722 0.00057207469873 0.00056711163829 
0.00056218830758 0.00055729938829 0.00070046934286 0.00069364894137 0.0006869292361 0.00068029420229 0.00067375511821 0.00066731664177 0.00066097740989 
0.00065473851362 0.00064859755776 0.00064252558854 0.00063653373 0.00063062760978 0.00062481851416 0.00061910891892 0.00061351001575 0.00060800783881 
0.00060259041869 0.00059724680067 0.00059196897548 0.00058675539167 0.00058160431923 0.00057651675929 0.00057148679489 0.00056650623559 0.00056156545535 
0.00055666183191 0.0007013000222 0.00069444273363 0.00068768787497 0.00068102514687 0.0006744547594 0.00066798439209 0.00066161301085 0.0006553339216 
0.00064914739938 0.00064305039784 0.00063703536435 0.00063110399959 0.00062526839766 0.00061953433455 0.00061390096292 0.00060836240183 0.00060291249121 
0.00059753946559 0.000592235687 0.00058699860149 0.00058182631183 0.00057671420327 0.00057165869866 0.00056665232692 0.00056168740451 0.00055676249256 
0.00070306714867 0.00069616390326 0.0006893681661 0.00068266633729 0.00067605861349 0.0006695499969 0.00066313829511 0.00065681976593 0.00065058620814 
0.00064444379836 0.0006383935112 0.00063243316808 0.00062656212912 0.00062078982019 0.00061511540986 0.00060953507594 0.00060403803835 0.00059862460414 
0.00059328444272 0.00058801361446 0.00058280963555 0.00057766443318 0.00057257419083 0.00056753430934 0.00056253850507 0.00055758525487 0.00070573143196 
0.00069879034007 0.00069193115189 0.00068518345604 0.0006785330532 0.00067197840755 0.00066551923349 0.00065915176887 0.00065286910857 0.00064667954789 
0.00064058488805 0.00063457701867 0.00062866163827 0.00062284702269 0.00061712080767 0.00061148586268 0.00060593833868 0.00060047370492 0.00059508324405 
0.00058976852716 0.00058452108303 0.0005793355301 0.00057420401174 0.0005691229582 0.00056408823365 0.0005591009812 0.00070925866262 0.00070225760225 
0.00069534312639 0.00068854324312 0.00068184089746 0.00067523472374 0.00066872183874 0.00066229873286 0.000655965393 0.00064971750856 0.0006435668698 
0.00063751355511 0.00063154698339 0.00062567037532 0.00061988376673 0.00061418980424 0.00060857937802 0.00060305283409 0.00059760776363 0.00059223496281 
0.00058693638192 0.00058170003763 0.00057651984021 0.00057139062607 0.00056631013116 0.00056128022017 0.00071364431863 0.00070656496693 0.00069958786474 
0.00069272677084 0.00068596586216 0.00067930186758 0.00067272870075 0.00066624513792 0.0006598501718 0.0006535473137 0.00064733185984 0.00064121377655 
0.00063519318131 0.0006292544393 0.0006234005342 0.00061763098669 0.00061194661413 0.00060635320228 0.00060083929302 0.00059540527474 0.00059004451812 
0.00058474682467 0.00057950983407 0.00057432529632 0.00056919271261 0.0005641121966 0.00071887210569 0.00071171838992 0.00070468247361 0.00069773916422 
0.00069091286565 0.00068418311115 0.00067754420518 0.00067099334553 0.00066453102889 0.00065815925853 0.00065188171697 0.00064569168757 0.00063960334472 
0.00063359523236 0.00062766724897 0.00062181938936 0.0006160550326 0.00061037686688 0.00060478902945 0.00059927911867 0.00059384882908 0.00058848666233 
0.00058318112611 0.00057793388952 0.00057273960327 0.00056760048294 0.00072498004441 0.00071774279089 0.00071062684784 0.00070360624319 0.00069670578331 
0.00068990367659 0.00068319184704 0.00067656705457 0.00067002959485 0.00066358193991 0.00065722750512 0.00065096228922 0.00064479349991 0.00063871425291 
0.00063270603111 0.00062677449655 0.00062092236698 0.00061515586117 0.0006094755014 0.00060388318981 0.00059837705832 0.00059293917874 0.00058756346196 
0.00058224473108 0.00057697810505 0.00057177115524 0.00073201388409 0.00072468414206 0.00071747824864 0.00071036905862 0.00070338549769 0.00069650316092 
0.00068971195443 0.00068300623676 0.00067638443615 0.00066985118359 0.00066341089958 0.00065706634219 0.00065080920616 0.0006446403264 0.00063855304429 
0.00063253153707 0.00062658558677 0.00062072151788 0.00061494631252 0.00060926157293 0.0006036649387 0.0005981432103 0.00059269107821 0.00058729338197 
0.00058194975064 0.00057666485882 0.00074002171961 0.00073258905542 0.00072527965574 0.0007180891383 0.00071099899658 0.00070402712238 0.00069714796198 
0.00069035247535 0.00068363697828 0.00067700767373 0.0006704715018 0.00066403444261 0.00065769000404 0.00065142505298 0.00064524626274 0.00063912967706 
0.0006330824496 0.00062711493098 0.0006212374842 0.00061545362825 0.00060976007732 0.00060414680194 0.00059860183162 0.00059311994661 0.00058769156847 
0.00058232617062 0.00074902747598 0.00074149330279 0.00073405825659 0.00072675932641 0.00071956583841 0.00071249520976 0.00070551874078 0.00069862398376 
0.00069180674252 0.00068507322711 0.00067843048031 0.00067188914101 0.00066544255063 0.00065907815933 0.00065279408879 0.00064658212449 0.00064042962955 
0.00063435210104 0.00062836467049 0.00062247415506 0.00061667778377 0.00061096588094 0.00060532528393 0.00059974499246 0.00059422308822 0.00058877009264 
0.00075898339847 0.00075132702985 0.00074377101424 0.00073635438895 0.00072904547535 0.00072186641849 0.00071478259672 0.00070777894215 0.00070085006755 
0.00069400147032 0.00068724437276 0.00068058781728 0.00067403173321 0.00066756529367 0.0006611686939 0.00065484985363 0.00064858449192 0.00064239312268 
0.00063628997079 0.00063028800444 0.00062438228918 0.00061856594486 0.0006128219644 0.00060714131016 0.00060151973721 0.00059596406338 0.00076973007684 
0.00076194553924 0.00075426275652 0.00074671768898 0.00073929897081 0.00073198417094 0.00072478233098 0.00071766203367 0.00071061446731 0.00070364490673 
0.00069676766436 0.00068999113625 0.00068331597545 0.0006767331767 0.00067022793283 0.00066378115404 0.00065741029275 0.00065110247711 0.00064488263669 
0.00063876344743 0.00063274312135 0.00062681522764 0.000620963505 0.0006151755002 0.00060944903225 0.00060379061511 0.00078093277377 0.00077301839663 
0.00076521009539 0.00075753341954 0.00074998561516 0.00074254358453 0.00073521583039 0.00072797060403 0.00072080076046 0.00071370882986 0.000706705851 
0.00069980390226 0.00069300374551 0.00068629854081 0.0006796738342 0.00067310969851 0.00066661748364 0.00066020177054 0.00065386552308 0.00064762872804 
0.00064149203466 0.0006354482615 0.00062948367023 0.00062358466637 0.00061775050622 0.00061198826228 0.00079208941188 0.00078404798647 0.00077610963567 
0.000768311289 0.00076063541987 0.00075306415149 0.00074560747955 0.00073823704526 0.00073094340118 0.00072372985578 0.00071660426221 0.00070957765007 
0.00070265308083 0.00069582369515 0.00068907797922 0.00068240266947 0.00067578886377 0.00066926331049 0.00066281540596 0.00065646489983 0.00065021361988 
0.00064405546249 0.00063797592285 0.00063196698489 0.00062602673634 0.0006201622195 0.00080254283105 0.00079439197202 0.00078634863535 0.00077841783783 
0.00077062199098 0.00076294275755 0.00075534964152 0.00074785825486 0.00074044572871 0.00073311595722 0.0007258747349 0.00071873142269 0.00071168756592 
0.00070474092941 0.00069787785522 0.00069109222106 0.00068437905682 0.00067773650005 0.00067119347467 0.00066473755534 0.00065837796677 0.00065210809445 
0.00064591975621 0.00063980413107 0.00063376239241 0.00062780065211 0.00081160397937 0.00080334310297 0.00079521064414 0.00078717678614 0.00077927597506 
0.00077148720014 0.00076378636809 0.00075618527635 0.00074866565785 0.00074123181578 0.00073388773877 0.00072663953114 0.00071948989077 0.00071243681157 
0.00070547041081 0.00069858547088 0.00069177875136 0.00068504636334 0.00067841482388 0.00067186779444 0.00066541386289 0.00065904640916 0.00065275834447 
0.00064654520439 0.0006404094083 0.00063435756363 0.00081864944356 0.00081030854822 0.00080209023284 0.00079398711659 0.00078600248057 0.00077812349835 
0.00077033023287 0.00076263782829 0.00075503433213 0.0007475132672 0.00074008271727 0.00073274820601 0.00072551333048 0.00071837290616 0.00071132178506 
0.00070435467276 0.00069747227438 0.00069067439244 0.00068395777278 0.0006773466615 0.00067081764905 0.00066436978426 0.00065799972028 0.00065170242284 
0.0006454856661 0.00063935622727 0.00078680564277 0.00077947639969 0.00077225033404 0.00076512568177 0.00075809073516 0.00075114357614 0.00074428023931 
0.00073749647185 0.00073079115411 0.00072416412435 0.00071761853858 0.00071115931528 0.00070479450358 0.00069852338061 0.00069234621764 0.00068625957877 
0.00068025401182 0.00067432632599 0.00066847078274 0.00066268336657 0.00065696375166 0.00065130839458 0.00064571221395 0.00064017601156 0.00063469281556 
0.00062926619654 0.00078923874037 0.00078183858766 0.00077454393628 0.00076735100012 0.00076024955311 0.00075324184741 0.00074632356293 0.00073949053251 
0.00073274094963 0.00072607360819 0.00071948745565 0.00071299061293 0.00070658440908 0.00070027694613 0.0006940652232 0.00068794347386 0.0006819050673 
0.00067594732751 0.00067006058174 0.0006642438905 0.00065849481095 0.00065281198963 0.00064719081594 0.00064163060409 0.00063612359314 0.00063067083156 
0.00079042330609 0.00078297183705 0.00077562138331 0.00076836357582 0.00076121261528 0.00075415519147 0.00074719304795 0.00074032138821 0.00073353638488 
0.00072683542675 0.00072021856977 0.00071369120536 0.00070725654866 0.00070091984342 0.00069468255164 0.00068853751034 0.00068247868484 0.000676496975 
0.00067059012392 0.00066475194849 0.0006589833855 0.00065328246635 0.00064764507495 0.00064206601056 0.00063654507287 0.0006310748327 0.00079070609623 
0.00078321221071 0.00077581285424 0.00076851374447 0.00076131036144 0.00075421644078 0.00074721883859 0.00074031533251 0.00073350238187 0.00072677489446 
0.0007201318571 0.00071357937382 0.0007071223022 0.00070076523141 0.000694508084 0.00068834614051 0.00068227304477 0.00067627617925 0.00067035207734 
0.0006645015528 0.00065871950277 0.00065300521022 0.0006473572521 0.0006417683963 0.00063623743837 0.00063075360178 0.00079049621094 0.00078296271798 
0.0007755268666 0.00076818577213 0.00076094926981 0.00075381752327 0.00074678818563 0.0007398576925 0.00073301840206 0.00072626647519 0.000719601059 
0.00071302662078 0.00070655123697 0.00070017678046 0.00069390477398 0.00068772957993 0.00068164085067 0.00067563207665 0.00066969644192 0.00066383306171 
0.000658042389 0.00065231932474 0.0006466627143 0.00064106516302 0.00063552522447 0.00063003183885 0.00079018726366 0.00078262210372 0.00077514927394 
0.00076777692573 0.0007605034142 0.00075333726755 0.00074628300335 0.00073932414032 0.00073245531032 0.00072568199505 0.00071899380655 0.00071239889435 
0.00070590346758 0.00069951128263 0.00069322343162 0.00068703286469 0.00068093123814 0.00067490984814 0.0006689617933 0.00066308619634 0.00065728268215 
0.0006515498415 0.00064588452682 0.00064027828791 0.00063472476891 0.00062922488035 0.00079012647901 0.00078251934386 0.00077501033569 0.00076760829337 
0.0007602999134 0.0007531010844 0.00074601024021 0.00073902641584 0.00073213451833 0.00072533248331 0.00071861799312 0.00071200037851 0.00070548297086 
0.00069907078785 0.00069276289067 0.00068655412521 0.00068043436965 0.00067439638496 0.00066843295881 0.00066254231328 0.00065672421217 0.00065097735799 
0.00064529698576 0.00063967842889 0.00063411247238 0.00062859980636 0.00079055891197 0.00078291066155 0.00077536339082 0.00076791660781 0.00076057575423 
0.00075334404292 0.00074621741559 0.00073919439638 0.00073227511914 0.00072544307078 0.00071870317986 0.00071205563081 0.00070551297478 0.00069907520049 
0.00069274151234 0.00068650757272 0.00068036386408 0.00067430304357 0.00066831873115 0.00066240798579 0.0006565703623 0.00065080337427 0.00064510419553 
0.00063946469512 0.00063388174841 0.00062835203391 0.00079165365627 0.00078394505809 0.00077635488778 0.00076886704124 0.0007614864937 0.00075421297213 
0.000747042853 0.00073998537092 0.00073302787551 0.00072615866176 0.00071938512776 0.00071270887051 0.00070613404798 0.00069966037165 0.00069329450926 
0.00068702777414 0.00068085254636 0.00067476113755 0.00066874896104 0.00066281373281 0.00065694943458 0.00065115728966 0.000645431028 0.00063976507717 
0.00063415585354 0.00062860456319 0.00079346192014 0.00078570387704 0.00077806523856 0.00077053314872 0.00076310684462 0.0007557876435 0.00074857535001 
0.00074146450144 0.00073445558782 0.0007275561026 0.00072074215723 0.00071402706635 0.00070741348625 0.00070090367607 0.00069449583295 0.00068818532486 
0.00068196977836 0.00067583963695 0.00066979190758 0.00066382108171 0.00065792648346 0.00065209994894 0.00064634078327 0.00064064324506 0.00063500227321 
0.00062941663444 0.00079603299475 0.00078821790461 0.00078052629926 0.0007729423663 0.00076546426716 0.00075809575939 0.00075083117221 0.00074367309772 
0.00073661032808 0.00072965095238 0.00072279506505 0.00071603914975 0.0007093790986 0.00070282229433 0.00069636681622 0.00069000976052 0.00068374182287 
0.00067756563252 0.00067147299586 0.00066545928038 0.00065952322956 0.00065365668865 0.00064785654541 0.00064211979888 0.00063644147007 0.00063082045701 
0.00079936836824 0.0007915054516 0.00078373887111 0.00077609639321 0.00076856261858 0.00076113688599 0.0007538179027 0.00074660169523 0.00073948244011 
0.00073246702868 0.00072555763747 0.00071874296428 0.0007120296332 0.00070542315667 0.00069891143246 0.00069249699767 0.00068617485119 0.00067994318974 
0.00067379307462 0.00066772960787 0.00066174302182 0.0006558286196 0.00064998145587 0.00064419854487 0.00063847630747 0.00063281415617 0.00080346116143 
0.00079552958458 0.00078769636003 0.00077999006767 0.00077239383066 0.00076490637822 0.00075752386475 0.00075024465496 0.00074306687035 0.00073598641143 
0.00072901124464 0.00072214276914 0.00071536964904 0.00070869452709 0.00070211844197 0.00069564246369 0.00068925684129 0.00068296083796 0.00067675352357 
0.00067062597546 0.00066458182006 0.00065861179001 0.00065271050635 0.00064687533485 0.00064110192109 0.0006353917402 0.00080832163505 0.00080030197537 
0.00079239653681 0.00078461862353 0.00077695312148 0.0007693972791 0.00076194633884 0.00075459902961 0.00074735252974 0.0007402087168 0.0007331618094 
0.00072622090891 0.00071938604703 0.00071264339321 0.00070599629945 0.00069944302895 0.00069298397826 0.0006866204717 0.00068034205106 0.00067414997609 
0.00066804002487 0.00066200415014 0.00065604265486 0.00065014677496 0.00064431819899 0.00063855239145 0.00081392875808 0.00080582704657 0.000797854992 
0.00078998527367 0.00078224424682 0.00077461358076 0.00076708773216 0.00075966528974 0.00075234454956 0.00074512577221 0.00073801014411 0.00073099003752 
0.00072408046823 0.00071726365072 0.00071053971035 0.00070390795042 0.00069736712994 0.00069092061278 0.00068456769637 0.00067829994285 0.00067211762124 
0.00066601423451 0.00065998133078 0.0006540199907 0.00064812559723 0.00064229871411 0.00082030485673 0.00081211382797 0.00080405349465 0.00079609912718 