# vtk DataFile Version 5.1
vtk output
ASCII
DATASET STRUCTURED_POINTS
DIMENSIONS 26 26 26
SPACING 0.08 0.08 0.08
ORIGIN -1 -1 0.5
POINT_DATA 17576
FIELD FieldData 1
potential 1 17576 double
0.0040877111012 0.0040012028588 0.0039173562721 0.0038360523791 0.0037572250174 0.0036807698488 0.0036065504764 0.0035343588844 0.0034641224215 
0.0033957238777 0.0033291646937 0.0032644033574 0.0032015168763 0.0031405790552 0.0030813880165 0.0030238851189 0.0029679435047 0.002913487767 
0.0028604558722 0.0028089007131 0.0027587451344 0.0027100064487 0.0026626110358 0.0026164801292 0.0025715233595 0.0025277029917 0.0040035330775 
0.0039196382021 0.0038382189581 0.0037591821292 0.003682517211 0.0036081853982 0.0035360417827 0.0034660127313 0.0033978809675 0.0033315216826 
0.0032668396887 0.0032038806778 0.0031428022542 0.0030834798128 0.0030259442411 0.0029700581847 0.0029156777696 0.0028626809111 0.0028110727612 
0.0027607963827 0.0027119134607 0.0026644314826 0.0026182872019 0.0025733801114 0.002529599998 0.0024868760704 0.0039044296368 0.0038234838155 
0.0037447918214 0.0036683171808 0.0035940548358 0.0035221327686 0.0034524326276 0.0033847971647 0.0033190198587 0.0032548637193 0.0031922792228 
0.0031314131122 0.0030721832132 0.0030147674745 0.002959096842 0.0029050426961 0.0028524082194 0.0028011206636 0.0027510442381 0.0027022547948 
0.002654819976 0.0026087736083 0.0025640630378 0.002520550476 0.0024780995692 0.0024366310227 0.0037958894418 0.003718078179 0.0036423039272 
0.0035685316105 0.003496955119 0.0034276216031 0.0033605041619 0.003295444828 0.0032321005433 0.0031703703387 0.0031100286572 0.0030512007258 
0.0029940361861 0.0029386339834 0.0028849627619 0.0028328628635 0.0027821609696 0.0027326250028 0.0026842220646 0.002637033458 0.0025911494209 
0.0025466494859 0.0025034692482 0.0024614645715 0.0024204451028 0.0023803125404 0.0036839663094 0.0036092891349 0.0035365139008 0.0034656251009 
0.0033967730026 0.0033301494114 0.0032656511543 0.0032031250695 0.003142353733 0.0030829363933 0.0030248458398 0.0029681833204 0.0029131305503 
0.0028597891124 0.0028081594651 0.002758057025 0.0027092429634 0.0026615207846 0.0026148347155 0.0025693012132 0.0025250292185 0.0024821076913 
0.0024404794683 0.0023999748801 0.0023604029443 0.0023216389204 0.0035740091071 0.0035024833763 0.003432667793 0.0033646057236 0.0032985229487 
0.0032344879327 0.0031725798929 0.003112607065 0.0030541584533 0.0029970559512 0.0029412042748 0.0028866964703 0.0028337104538 0.0027824033362 
0.002732757331 0.0026845663493 0.002637591677 0.0025916386756 0.0025466662948 0.0025027590656 0.002460073235 0.0024186921065 0.002378567594 
0.0023395194547 0.00230135048 0.0022639283237 0.0034699590637 0.0034013904169 0.00333441565 0.0032691360432 0.003205683214 0.0031442456117 
0.0030847424801 0.0030270385398 0.0029708452282 0.0029159383597 0.0028622352958 0.0028098055172 0.0027588259504 0.0027094503951 0.0026616463699 
0.0026152366571 0.0025699877977 0.0025257103094 0.0024823685843 0.0024400512791 0.0023988886979 0.0023589718328 0.0023202459304 0.0022825524084 
0.0022456895694 0.0022095448274 0.003373870287 0.0033080746864 0.0032438005661 0.0031811037491 0.0031202033626 0.0030611102078 0.003003862044 
0.0029482976768 0.0028941866314 0.0028413174043 0.0027895992402 0.0027391299962 0.0026900633758 0.0026424924213 0.0025963905446 0.0025516015231 
0.0025079267971 0.0024652045332 0.0024233997323 0.0023825769261 0.0023428595463 0.0023043063246 0.0022668643984 0.0022304052541 0.0021947401089 
0.0021597777993 0.0032864180959 0.0032230917947 0.0031613512905 0.0031010979975 0.0030424928338 0.002985626221 0.002930460844 0.0028768606272 
0.002824647918 0.0027736307361 0.0027237722498 0.0026751521473 0.0026278593268 0.0025819510281 0.002537407586 0.0024940970082 0.0024518573039 
0.0024105601925 0.0023701759904 0.0023307545563 0.0022923734009 0.0022550719736 0.0022188006224 0.0021834411275 0.0021488587445 0.0021149754902 
0.0032070368558 0.0031461184732 0.0030866356511 0.0030286641504 0.0029722543834 0.0029174486033 0.0028642055068 0.0028124138149 0.0027619232051 
0.0027126250154 0.0026644984821 0.0026175732257 0.0025719061172 0.002527531119 0.0024844083039 0.002442443134 0.0024015033631 0.0023615085033 
0.0023224227485 0.0022842929591 0.0022471469507 0.0022110007195 0.002175792474 0.0021414372138 0.0021078406046 0.0020749500818 0.0031351428041 
0.0030763410193 0.0030189945228 0.0029631156635 0.0029087178411 0.0028558270125 0.0028043437053 0.0027542293048 0.0027053533484 0.0026576555374 
0.0026111094105 0.0025657399013 0.0025215691747 0.0024786029022 0.0024367867061 0.0023960585596 0.0023563125146 0.0023175065275 0.002279618517 
0.0022426668035 0.0022066496445 0.002171553417 0.0021373279498 0.0021039031836 0.0020712120896 0.0020392189486 0.0030697697099 0.0030129812797 
0.0029576177064 0.0029036717645 0.0028511533806 0.0028000026794 0.0027501897939 0.0027016412577 0.002654264895 0.0026080375344 0.0025629508093 
0.0025190133192 0.0024762136219 0.0024345351458 0.0023939335298 0.0023543399568 0.0023156982912 0.0022779914088 0.0022412003253 0.00220531411 
0.0021703288653 0.0021362067139 0.002102884743 0.0020703195065 0.0020384680724 0.0020073125144 0.0030102921187 0.0029553774258 0.0029018552859 
0.0028496980648 0.0027989010769 0.0027494088117 0.0027011447245 0.0026540515955 0.0026080747626 0.0025632185031 0.0025194812322 0.0024768596209 
0.0024353246597 0.0023948430882 0.0023553587134 0.0023168185732 0.0022792060737 0.0022425049718 0.0022067105031 0.002171804746 0.002137763081 
0.0021045234088 0.0020720431742 0.0020402800714 0.0020091998687 0.0019788079677 0.0029562463906 0.0029030994619 0.0028512708177 0.0028007754411 
0.0027515929484 0.0027036256079 0.0026568079318 0.0026110763366 0.0025664160083 0.0025228389726 0.0024803446402 0.0024389286902 0.0023985607576 
0.0023591818317 0.0023207312078 0.0022831820288 0.0022465170994 0.0022107464326 0.0021758633134 0.0021418514989 0.0021086620518 0.0020762459171 
0.002044531806 0.0020135068041 0.0019831495125 0.0019529456901 0.0029073996576 0.0028559015768 0.002805649007 0.0027567234085 0.0027090198526 
0.0026624637706 0.0026169826501 0.0025725285488 0.0025291008601 0.0024867019927 0.0024453593362 0.0024050562915 0.0023657602119 0.0023274011808 
0.002289918994 0.0022532834988 0.0022175011127 0.0021825816351 0.002148518932 0.0021153125573 0.0020829118207 0.0020512463573 0.0020202588112 
0.0019893699161 0.0019596908711 0.0019306712541 0.0028637935772 0.0028137771807 0.0027650399376 0.0027175226131 0.002671178649 0.0026259365779 
0.0025817009143 0.0025384390316 0.0024961466032 0.0024548421564 0.00241455205 0.0023752726341 0.0023369547819 0.0022995453007 0.0022629418883 
0.0022271598365 0.0021921856292 0.0021580463582 0.0021247418098 0.0020922711191 0.0020605820681 0.0020290372731 0.0019987117725 0.0019690118586 
0.0019399324545 0.0019113241954 0.0028255605132 0.0027769755891 0.0027295741864 0.0026833418183 0.0026382555275 0.0025942270024 0.0025511572205 
0.0025089975881 0.0024677472701 0.0024274365387 0.0023880881087 0.002349730636 0.0023123278998 0.002275777731 0.0022400194394 0.0022050184198 
0.0021707795213 0.0021373351383 0.0021047063585 0.0020728941426 0.0020412716308 0.0020109311852 0.0019811986554 0.0019519708193 0.0019233543354 
0.001895433068 0.0027931299997 0.0027458104431 0.002699600544 0.0026545406041 0.0026106045931 0.0025676713728 0.0025256696303 0.0024845226953 
0.0024442185988 0.002404800105 0.0023663149336 0.0023288005209 0.0022922006828 0.0022564446023 0.0022214470122 0.0021871622367 0.0021535793361 
0.0021207523934 0.0020881164697 0.0020568955641 0.0020264386875 0.00199654512 0.0019673647656 0.0019386622138 0.0019105879566 0.0018831107366 
0.0027667931192 0.002720608165 0.0026754710021 0.0026314609524 0.0025885504859 0.0025466323589 0.0025056018001 0.0024653737612 0.0024259188519 
0.0023872932073 0.0023495557606 0.0023127697969 0.0022768853058 0.0022418371352 0.0022075224284 0.0021738759555 0.0021402672388 0.0021079797294 
0.0020764649647 0.0020456401286 0.0020156725414 0.0019863839488 0.0019575986538 0.0019294131573 0.0019017459205 0.0018746492707 0.0027466793713 
0.0027015106116 0.0026573376688 0.0026142566216 0.0025722365771 0.0025312101215 0.002491048916 0.0024516418636 0.0024129474042 0.0023750104433 
0.0023379271382 0.0023017567373 0.0022664935086 0.0022320627103 0.002198347158 0.0021646449033 0.0021321723421 0.0021003528966 0.0020691605627 
0.0020388649105 0.0020093083995 0.0019803632622 0.0019520601039 0.0019242473217 0.0018969275406 0.0018701372548 0.0027323085185 0.0026880640679 
0.0026447650733 0.0026024904387 0.0025612603705 0.0025210019089 0.0024815882585 0.0024429059077 0.0024048850807 0.0023675610508 0.0023310543489 
0.0022954226933 0.0022606817529 0.0022261218486 0.0021929268501 0.0021603383954 0.002128210118 0.0020967954129 0.0020660879094 0.0020361265785 
0.0020068474646 0.0019783131797 0.0019503456982 0.001922854714 0.0018958234058 0.0018696197582 0.0027222689796 0.0026788823304 0.002636393258 
0.0025948596188 0.0025543284948 0.002514739457 0.002475988385 0.002437924449 0.0024005064489 0.0023637556901 0.0023277591891 0.0022919498613 
0.0022576658901 0.0022240809961 0.0021913105072 0.0021591372955 0.0021275185586 0.0020964762627 0.0020660933539 0.0020363707774 0.0020074417811 
0.0019791767892 0.0019514728002 0.0019242397368 0.0018977871116 0.0018714917975 0.0027140813462 0.0026715222872 0.0026298038021 0.0025889941269 
0.0025491196039 0.0025101444222 0.0024719695304 0.0024344768195 0.0023976253871 0.0023607362649 0.0023252445164 0.0022904274671 0.0022565510193 
0.0022234541131 0.0021910580946 0.0021592568912 0.0021280013675 0.0020972500119 0.0020671994198 0.0020378346383 0.0020091547174 0.0019811253056 
0.0019539870193 0.0019269709032 0.0019004033574 0.0018743910382 0.002704239445 0.0026625207467 0.0026216009452 0.0025815288893 0.0025423283533 
0.0025039641871 0.0024663669885 0.0024287551144 0.0023924513846 0.0023566660959 0.0023216830044 0.0022874481487 0.0022539793739 0.0022212733555 
0.0021892337844 0.0021578023433 0.0021268639718 0.0020965507748 0.0020668481532 0.0020377909712 0.0020093904267 0.0019819434856 0.0019546687335 
0.0019278403225 0.0019015670021 0.0018758376342 0.0026888178384 0.002647998187 0.0026079427007 0.0025686904593 0.0025302249383 0.0024918563208 
0.0024548907467 0.0024184583995 0.0023827508733 0.0023476689847 0.00231324033 0.0022795187997 0.0022465280952 0.0022142573931 0.0021826387257 
0.0021515609783 0.0021211072647 0.0020912326698 0.0020619438449 0.0020336344216 0.0020056026166 0.0019780656523 0.0019510542464 0.0019246184848 
0.0018985404599 0.0018729662834 0.0026642632827 0.0026244457819 0.0025853839266 0.0025463514466 0.0025086430105 0.0024717765652 0.0024355588841 
0.0023999436991 0.0023649240656 0.0023305049422 0.0022967198283 0.002263619369 0.0022312085543 0.0021994822389 0.0021683263159 0.0021378120389 
0.002107889842 0.002078582925 0.0020501602923 0.0020219544424 0.0019943115469 0.0019671824967 0.0019406295838 0.0019144103687 0.001888657295 
0.0018634017954 0.0045669864143 0.0044703321408 0.0043766625687 0.0042858575611 0.004197794946 0.004112352023 0.0040294037276 0.0039487572048 
0.0038703835581 0.003794155633 0.0037200521181 0.0036479801118 0.0035779629615 0.0035100403518 0.003444011272 0.0033798414714 0.0033174329146 
0.0032567250028 0.0031976355448 0.0031401937373 0.0030842971907 0.0030299373498 0.0029770478234 0.0029255715919 0.0028754381668 0.0028266085705 
0.0044808335707 0.0043869865096 0.0042959730719 0.0042076773826 0.0041220074527 0.0040388844304 0.0039581550679 0.0038797717856 0.0038035741432 
0.0037294670026 0.0036573288914 0.0035871649878 0.0035190542745 0.0034528350657 0.0033885169783 0.0033260031764 0.0032651933861 0.0032059923371 
0.0031484000077 0.0030923164681 0.0030377590124 0.0029847009353 0.0029330849868 0.0028828406133 0.0028338955802 0.0027861912529 0.0043840773817 
0.0042932713217 0.0042051112998 0.0041195205623 0.004036396284 0.0039557861683 0.0038775515348 0.0038015730698 0.0037277225104 0.0036558268367 
0.0035858252261 0.003517806087 0.0034515921897 0.0033872896476 0.003324825499 0.0032641120686 0.0032050183654 0.0031475233538 0.0030914822335 
0.0030369146826 0.0029838217467 0.002932189083 0.0028819704868 0.0028330760943 0.0027854232812 0.0027389609979 0.0042802361697 0.0041925897467 
0.0041074185476 0.0040246190289 0.0039442624576 0.003866284147 0.0037906257415 0.00371718777 0.0036457299931 0.003576249232 0.0035084805546 
0.0034425165884 0.0033783759042 0.0033160701735 0.0032555549386 0.0031967459481 0.0031395117278 0.0030837313836 0.0030293525281 0.0029763859611 
0.0029248343276 0.0028747099037 0.0028259596695 0.0027785017778 0.0027322205714 0.0026870572774 0.0041732680769 0.0040887748939 0.0040066467728 
0.0039267906517 0.0038492123919 0.0037739745901 0.0037009281968 0.0036299884545 0.0035610638726 0.0034938540339 0.0034283499031 0.0033645561639 
0.0033025273639 0.0032422594954 0.0031837377352 0.0031268468705 0.0030714577812 0.0030174566696 0.0029647792087 0.002913457008 0.0028634940743 
0.0028149103002 0.0027676548913 0.0027216310784 0.0026767435288 0.0026329113341 0.0040668375471 0.0039855638354 0.0039064406482 0.003829472065 
0.0037547155505 0.0036821040308 0.0036116688761 0.0035432889142 0.0034766909606 0.0034118098822 0.0033485475542 0.0032869203513 0.00322696569 
0.0031687249 0.0031121680798 0.0030571677125 0.0030035990246 0.00295134964 0.0029003722313 0.00285066679 0.0028022782511 0.0027552170803 
0.0027094334194 0.0026648410437 0.0026213229362 0.0025788113955 0.0039639618392 0.0038857327635 0.003809547678 0.0037354365194 0.003663373539 
0.0035934270015 0.0035254693271 0.0034594300562 0.0033951629141 0.00333252827 0.003271442563 0.0032119144304 0.0031539856496 0.0030977104139 
0.0030430257417 0.0029898409929 0.0029380256609 0.0028874696155 0.0028381315762 0.0027900144745 0.0027431538853 0.0026975652751 0.0026531985604 
0.0026099717135 0.0025677793029 0.0025265445626 0.0038664667368 0.0037911713793 0.0037178141573 0.0036463795082 0.0035769610367 0.003509459656 
0.0034438828415 0.0033801247946 0.0033180527187 0.0032575518937 0.0031985394175 0.003141013448 0.0030850414536 0.0030306261994 0.0029777273624 
0.0029262592911 0.0028760909043 0.0028271447493 0.0027793717489 0.002732768939 0.0026873765031 0.0026431883022 0.0026001696833 0.002558239104 
0.0025172931519 0.0024772707948 0.0037753373017 0.003702731565 0.0036320736305 0.0035632088746 0.0034962027514 0.0034310625616 0.0033677333615 
0.0033061236989 0.0032461325122 0.0031876182484 0.0031305564694 0.0030749572805 0.0030208278156 0.0029681663425 0.0029169463768 0.0028670872721 
0.0028184708733 0.0027710401607 0.0027247400772 0.0026795841787 0.0026355729351 0.00259270676 0.0025509403201 0.002510208008 0.0024704293549 
0.0024315436912 0.0036905864468 0.0036206360882 0.0035524375114 0.003486006019 0.0034213365393 0.0033584211593 0.0032972053373 0.0032376132564 
0.0031795484852 0.0031229258157 0.0030677191052 0.0030139129853 0.002961503414 0.0029104928951 0.0028608328555 0.0028124676618 0.0027653041671 
0.0027192844846 0.0026743672449 0.0026305595235 0.0025878459726 0.0025462190653 0.0025056274323 0.0024660193588 0.0024273255253 0.0023895081214 
0.0036121945047 0.0035446235399 0.0034787677384 0.0034146158148 0.0033521272917 0.0032913060495 0.0032320622643 0.0031743678626 0.0031181306054 
0.0030632921911 0.0030098106306 0.0029576810308 0.0029068868809 0.0028574173712 0.0028092276377 0.0027622588914 0.0027164478606 0.0026717437336 
0.0026281194191 0.0025855606616 0.0025440671954 0.0025035848849 0.0024640947379 0.002425536612 0.0023878617363 0.0023510330587 0.0035396400347 
0.0034743493738 0.0034106980748 0.0033486774795 0.0032882606513 0.003229376472 0.0031720169024 0.0031161147846 0.0030615862757 0.003008405703 
0.0029565425264 0.0029059807241 0.0028566894335 0.0028086603769 0.0027618403953 0.0027161798405 0.002671630948 0.002628161363 0.0025857450286 
0.0025443561844 0.0025039808903 0.0024645832117 0.0024261112425 0.0023885385185 0.0023518148899 0.0023159197763 0.0034725859436 0.0034094372108 
0.0033478688488 0.0032878417196 0.0032293410389 0.0031723220207 0.0031167285619 0.003062494802 0.0030095814161 0.0029579589384 0.002907608852 
0.0028585075804 0.0028106348191 0.0027639509482 0.0027184120494 0.0026739722179 0.0026306081797 0.0025882883803 0.0025469915035 0.0025066895111 
0.0024673646153 0.002428962679 0.0023914546377 0.0023547972262 0.0023189584981 0.0022839271964 0.0034107468264 0.003349615999 0.0032899776398 
0.0032318225557 0.003175150652 0.0031198684096 0.0030659242578 0.003013269432 0.0029618721773 0.0029117176712 0.0028627825009 0.002815049873 
0.002768492242 0.002723068442 0.002678725445 0.0026354401059 0.0025931808179 0.0025519334664 0.0025116766297 0.0024723846172 0.0024340256552 
0.0023965618005 0.002359937581 0.0023241393993 0.0022891358967 0.0022543934323 0.0033539315912 0.0032946960034 0.0032368692647 0.0031805097203 
0.0031255265543 0.0030718598911 0.0030194666829 0.0029682949502 0.0029183238551 0.0028695364995 0.0028219265865 0.0027754685065 0.0027301385121 
0.0026858947709 0.002642680979 0.0026004665977 0.0025592417048 0.0025189934224 0.0024796890119 0.002441329662 0.0024038786441 0.0023672861729 
0.002331504315 0.0022959594755 0.0022617440838 0.0022282904575 0.0033020864628 0.0032446180521 0.0031885450882 0.0031338175636 0.0030804075991 
0.0030282650709 0.0029773196818 0.0029275404211 0.0028789042397 0.00283139754 0.0027850172707 0.0027397495815 0.0026955698698 0.0026524219572 
0.0026102420019 0.0025690362637 0.0025287739439 0.0024894513189 0.0024510502799 0.002413556175 0.0023769398705 0.0023405865776 0.0023055860747 
0.0022713458594 0.0022378456414 0.0022049106384 0.0032552739619 0.0031994676167 0.003144978503 0.0030917724799 0.0030398352087 0.0029891103252 
0.0029395274123 0.0028910482788 0.0028436513133 0.0027973327836 0.0027520782448 0.0027079149263 0.0026648046429 0.0026226739878 0.0025814921345 
0.0025412217925 0.002501850448 0.0024633759746 0.0024257988398 0.0023891022298 0.0023526867873 0.0023176535149 0.0022833652775 0.0022497194757 
0.0022167977545 0.0021846670349 0.0032135653041 0.0031592890769 0.0031062486386 0.0030544658943 0.0030039013773 0.0029544773126 0.0029061572216 
0.0028588886372 0.002812639623 0.002767422793 0.0027232319607 0.0026800977845 0.0026379600508 0.002596779183 0.0025565078607 0.0025171034656 
0.0024785504248 0.0024408578699 0.0024034354039 0.0023674823296 0.0023323558312 0.0022978965046 0.0022642774486 0.0022312763537 0.0021990319097 
0.0021674771215 0.0031769211662 0.0031240619753 0.0030723751866 0.0030219027264 0.0029725955217 0.0029243995657 0.0028772530529 0.0028310997634 
0.0027859180956 0.0027417120939 0.0026984889832 0.0026562786961 0.0026150367087 0.0025747264651 0.0025352908793 0.0024966865102 0.0024582785774 
0.0024213094348 0.0023851774496 0.0023497839963 0.0023152878767 0.002281558515 0.0022484615794 0.0022161066909 0.00218440669 0.0021533712515 
0.0031451278431 0.0030935732091 0.0030431402016 0.0029938726021 0.002945719692 0.0028986476808 0.0028525851118 0.0028074688602 0.0027632662604 
0.0027199806049 0.0026776440949 0.0026362734488 0.0025958540341 0.0025563394857 0.0025176706853 0.0024791842143 0.0024420860518 0.0024056617442 
0.0023701524121 0.0023354615507 0.0023015417473 0.0022683013394 0.0022358187234 0.0022039797897 0.0021727693744 0.0021421976195 0.0031175005756 
0.0030671598522 0.0030179082647 0.0029697434734 0.0029226617832 0.0028766208469 0.0028315478871 0.0027873873413 0.0027440884645 0.0027016595671 
0.0026601429481 0.0026195513507 0.0025798789098 0.0025404459315 0.002502488872 0.0024651843636 0.0024287310742 0.0023930149626 0.0023580783837 
0.002323916913 0.0022904566821 0.0022577960206 0.0022258044642 0.0021944344607 0.0021636723858 0.0021338458981 0.0030927524217 0.0030435717943 
0.0029954229868 0.002948304718 0.0029022231505 0.0028571434465 0.0028129996721 0.0027697145048 0.002727266602 0.0026856522879 0.0026448996464 
0.0026043833554 0.0025654153829 0.0025271890258 0.002489876207 0.0024533037001 0.0024174442442 0.0023823026511 0.0023478901745 0.002314173992 
0.0022812640914 0.0022490622921 0.0022175169705 0.0021865754564 0.0021565498798 0.002126798303 0.003068989317 0.0030209297295 0.002973844088 
0.00292774783 0.0028826315487 0.0028384680052 0.0027951959182 0.0027527621416 0.0027111249271 0.0026696277708 0.0026296276912 0.0025903569424 
0.002552056281 0.0025145745299 0.0024778726351 0.002441891197 0.0024066030406 0.0023719440736 0.002338065646 0.0023049102367 0.0022724668789 
0.0022407103103 0.0022099272629 0.0021793839519 0.0021494197201 0.0021201103299 0.0030437704377 0.0029968300354 0.0029508177216 0.0029057375296 
0.0028615906107 0.0028183402062 0.0027759417687 0.0027336659747 0.0026928435072 0.0026526827517 0.0026134265582 0.002574981272 0.0025373415425 
0.0025005030361 0.0024644052137 0.0024290198778 0.0023942511686 0.0023602177672 0.0023268766715 0.0022942286111 0.0022622644176 0.0022313006777 
0.0022005879128 0.002170426024 0.0021409237905 0.0021120577343 0.003014503349 0.0029687062531 0.0029238048449 0.0028797907026 0.0028366436371 
0.002793657769 0.0027521700893 0.0027113295891 0.002671345193 0.0026321121616 0.0025936302921 0.0025559168491 0.0025189809792 0.0024828112281 
0.0024473599826 0.0024125393793 0.0023784471409 0.0023450258503 0.0023122646837 0.0022805346519 0.0022491261179 0.0022182650129 0.0021880048886 
0.0021584119687 0.0021292767123 0.0021007181715 0.0029788879217 0.0029343105877 0.0028905914217 0.0028469978941 0.0028048135654 0.0027635518046 
0.0027230388592 0.0026832370158 0.0026441571478 0.0026057824481 0.0025681320146 0.0025312217855 0.0024950612001 0.0024596233781 0.0024248243107 
0.0023907470624 0.0023573462266 0.0023246411482 0.0022928812254 0.0022613912928 0.0022305205605 0.0022002214868 0.0021705800125 0.002141364892 
0.0021127023902 0.0020846038126 0.0050562526677 0.0049493383649 0.0048457305957 0.0047452869108 0.0046478670659 0.0045533346752 0.0044615655996 
0.0043723769885 0.0042857562358 0.004201556191 0.0041197380662 0.0040401920059 0.0039628939008 0.0038878682996 0.003814903867 0.0037439782054 
0.0036750080331 0.0036079305158 0.0035426577978 0.0034792004066 0.0034174426464 0.0033573613367 0.0032988923482 0.0032419805118 0.0031865698189 
0.0031326199604 0.0049659501618 0.0048620960095 0.0047613907903 0.004663704458 0.004568913066 0.0044769154772 0.004387545045 0.0043007746066 
0.004216458328 0.004134505649 0.0040547803518 0.0039772688378 0.0039020135496 0.0038287887857 0.0037576371915 0.0036884527923 0.0036211592178 
0.0035556728748 0.0034919871875 0.0034299824515 0.0033696464473 0.0033109395161 0.0032538073327 0.0031981786203 0.0031440069888 0.0030912361866 
0.0048681151532 0.0047674706564 0.0046697906428 0.0045749845859 0.0044829068426 0.0043935677178 0.0043068110792 0.0042225380955 0.0041406436256 
0.0040609812244 0.0039834804262 0.0039081964875 0.0038349004918 0.0037636697492 0.0036944212062 0.0036270748714 0.0035615764714 0.0034978051087 
0.0034357218569 0.0033752843373 0.0033164606536 0.0032592140956 0.0032034964991 0.0031492372179 0.0030963753033 0.0030448722015 0.0047650423791 
0.0046676663738 0.0045731064448 0.0044812268052 0.0043920423204 0.0043054371155 0.0042213726871 0.0041396561454 0.0040602041295 0.0039830044534 
0.0039077900818 0.0038346121278 0.0037634472394 0.0036942468121 0.0036269720245 0.0035615433234 0.0034978810774 0.0034358773132 0.0033754852032 
0.0033166785447 0.0032594232695 0.0032036928527 0.0031494528563 0.0030966156745 0.0030451261487 0.0029949205361 0.0046593831107 0.0045652611535 
0.0044738492885 0.0043850193 0.0042987132239 0.0042149315646 0.0041335066879 0.0040543722957 0.0039774984401 0.0039026085932 0.0038297033893 
0.0037587448975 0.0036897271023 0.003622595117 0.0035573244348 0.0034938259402 0.0034320166142 0.0033718041285 0.0033131411893 0.003255991624 
0.003200340817 0.0031461555894 0.0030933992126 0.0030419978693 0.0029918957488 0.0029430220349 0.0045536972621 0.0044628914693 0.0043745955487 
0.0042887557786 0.0042053631137 0.0041242939128 0.0040455539382 0.0039690446252 0.0038945509164 0.0038220442877 0.0037514266546 0.0036826867048 
0.0036157813301 0.0035507125894 0.0034874349263 0.0034258502122 0.0033658828004 0.003307454717 0.003250494286 0.003194992533 0.0031409273159 
0.0030882827944 0.0030370062851 0.002987044807 0.0029383196461 0.0028907749569 0.0044502519415 0.0043626299185 0.0042773842219 0.0041945232681 
0.0041139264477 0.004035626455 0.0039594612114 0.0038853859836 0.0038133072909 0.0037431180096 0.0036747535876 0.0036081637371 0.0035433431754 
0.0034802886079 0.0034189364849 0.0033592192355 0.0033010462239 0.0032443474671 0.0031890690837 0.003135182279 0.0030826764773 0.0030315335188 
0.0029817062724 0.00293314067 0.0028857649998 0.0028395215329 0.0043505988446 0.0042660748006 0.0041838076118 0.0041037525347 0.0040259168371 
0.0039501791543 0.0038765153661 0.0038048538089 0.0037350884603 0.0036671414322 0.0036009305744 0.0035364207335 0.0034736288221 0.0034125120506 
0.0033530230008 0.0032951020772 0.0032386551961 0.0031836285076 0.0031299639304 0.0030776398253 0.0030266404666 0.0029769468623 0.0029285210487 
0.0028813055205 0.002835226543 0.0027902349301 0.0042557385241 0.0041741144881 0.004094716523 0.0040173697216 0.0039421019605 0.0038688718849 
0.003797611113 0.0037282480185 0.003660714948 0.0035948847632 0.0035307328495 0.0034682443035 0.0034073800002 0.0033481169678 0.0032904117118 
0.0032342076841 0.0031794157537 0.0031259827636 0.0030738627769 0.0030230428435 0.0029734865287 0.0029251874565 0.0028780893107 0.0028321423414 
0.0027872964275 0.002743504092 0.0041659749457 0.0040872295876 0.0040104754421 0.0039357348413 0.0038629638304 0.003792114262 0.0037231453842 
0.0036559909685 0.0035905186316 0.003526749021 0.0034645850982 0.0034040006516 0.0033449717404 0.0032874715413 0.0032314494182 0.0031768665038 
0.0031236409673 0.0030717174689 0.0030210735571 0.0029716742342 0.0029235041823 0.0028765174136 0.0028306827712 0.0027859540667 0.0027422789492 
0.0026996226884 0.0040815785697 0.0040054324504 0.0039312448012 0.0038589756688 0.0037885605195 0.0037199941788 0.0036531732372 0.0035880939844 
0.0035246620168 0.003462823672 0.003402528011 0.0033437542248 0.0032864631407 0.0032306333301 0.0031762194091 0.0031231683293 0.0030714205424 
0.0030209387685 0.0029716864101 0.0029236296643 0.0028767600146 0.0028310190381 0.0027863831958 0.0027428031672 0.0027002416707 0.0026586574888 
0.0040023197192 0.0039286978798 0.0038569341502 0.0037869962693 0.0037188448356 0.003652406012 0.0035876707267 0.0035245747733 0.003463043033 
0.0034030300462 0.0033445106897 0.0032874411966 0.0032317956208 0.0031775476733 0.0031246493186 0.0030730523947 0.0030227078078 0.0029735825934 
0.0029256393041 0.0028788625692 0.0028332116682 0.0027886533112 0.0027451413498 0.0027026549327 0.0026611445752 0.0026205815649 0.003928077668 
0.0038568481346 0.0037873883787 0.003719648297 0.0036536212882 0.0035892503189 0.0035264744671 0.0034652432635 0.0034055112043 0.0033472413446 
0.0032903944998 0.003234942679 0.003180859183 0.0031280996457 0.0030766322984 0.0030264001833 0.0029773882552 0.0029295438505 0.0028828473967 
0.0028372618573 0.0027927664398 0.0027493132413 0.0027068744847 0.002665413553 0.0026248904332 0.0025852850178 0.0038587080771 0.0037897312238 
0.0037224293963 0.0036567840698 0.003592786228 0.0035303503188 0.0034694287776 0.0034099758127 0.0033519496254 0.003295321727 0.0032400615984 
0.0031861333383 0.0031335176188 0.0030821707661 0.0030320501832 0.0029831221054 0.0029353606378 0.0028887242213 0.0028431923605 0.0027987327943 
0.0027553197611 0.0027129172392 0.0026714772031 0.0026309733656 0.0025908587611 0.0025521833017 0.0037940423018 0.0037272105105 0.0036619618595 
0.0035983214874 0.0035362214952 0.003475612564 0.0034164363988 0.0033586608386 0.0033022486262 0.003247170595 0.0031934059988 0.0031409183153 
0.0030896814543 0.0030396728416 0.0029908350487 0.0029431319438 0.002896540743 0.0028510437753 0.0028065947694 0.0027631966654 0.0027208086902 
0.0026793935096 0.0026389174219 0.0025987809111 0.002560091051 0.0025222658721 0.0037340103484 0.0036691955227 0.0036059231648 0.003544145858 
0.0034838344143 0.0034249494734 0.0033674263479 0.0033112415482 0.0032563529332 0.0032027398406 0.0031503785596 0.0030992495749 0.0030493279654 
0.0030005699548 0.0029529165459 0.0029063676174 0.0028608901524 0.0028164572856 0.0027730476699 0.0027306492287 0.0026892190312 0.0026481628839 
0.0026085785766 0.0025698663209 0.0025320011974 0.0024948031317 0.0036785751651 0.0036156688219 0.0035542167296 0.0034941899565 0.0034355737739 
0.0033783081861 0.0033223477991 0.0032676568301 0.0032142047067 0.0031619675907 0.0031109139289 0.0030610607411 0.0030123761186 0.0029647931452 
0.002918288784 0.0028728320458 0.0028283907893 0.0027849658735 0.002742519389 0.0027010461947 0.0026599458566 0.0026203308843 0.0025815742691 
0.0025435748649 0.0025064083057 0.0024701249921 0.0036276411325 0.0035665101758 0.0035067598961 0.0034483928713 0.0033913639946 0.0033356142726 
0.0032811237392 0.0032278441175 0.0031757318874 0.0031247894429 0.0030749895403 0.0030263486815 0.0029788027288 0.0029323313251 0.0028868905884 
0.0028424550243 0.00279899255 0.0027564970923 0.0027143645017 0.0026737747392 0.0026340977923 0.0025951836694 0.0025572185995 0.0025199880872 
0.0024836189468 0.0024480341477 0.003580975514 0.0035215182387 0.0034633811395 0.0034065688698 0.0033510296279 0.0032967236046 0.0032436111259 
0.003191651781 0.0031408129932 0.0030910851959 0.0030424552233 0.0029949229495 0.0029484554688 0.0029030227521 0.0028585826749 0.0028151047982 
0.0027719478206 0.0027303422004 0.0026896559691 0.0026497782639 0.0026108757826 0.0025728239118 0.0025355109351 0.0024990545059 0.0024633597835 
0.002428416484 0.0035382062182 0.0034803313801 0.0034237085127 0.0033683550566 0.0033142141861 0.0032612635602 0.003209452343 0.0031587434641 
0.0031090954169 0.0030605000097 0.0030129649218 0.00296647879 0.0029210230188 0.002876562266 0.0028324335016 0.002789872324 0.0027481957023 