# vtk DataFile Version 5.1
vtk output
ASCII
DATASET STRUCTURED_POINTS
DIMENSIONS 26 26 26
SPACING 0.08 0.08 0.08
ORIGIN -1 -1 0.5
POINT_DATA 17576
FIELD FieldData 1
potential 1 17576 double
0.00058264551208 0.00057854177951 0.00057449124842 0.00057049077278 0.00056654259889 0.0005626343264 0.00055876008743 0.00055490657882 0.00055106362183 
0.00054723906238 0.00054343808762 0.00053967296734 0.00053596172638 0.00053230783418 0.00052871149316 0.00052516275289 0.00052164674726 0.0005181614233 
0.0005147088718 0.00051129380579 0.00050792341158 0.00050459959774 0.00050131586119 0.00049806520796 0.00049484220121 0.00049164721927 0.00057685818447 
0.00057278340211 0.00056875160613 0.00056476722864 0.0005608295158 0.00055694566096 0.00055310922395 0.00054930374134 0.00054552324646 0.0005417557631 
0.00053800442823 0.00053428648232 0.00053061955113 0.00052701456175 0.00052347364017 0.00051997856382 0.0005165161568 0.00051307817777 0.00050966596183 
0.00050628857319 0.00050295763477 0.00049967899208 0.00049644667418 0.00049325002471 0.00049007784497 0.00048692637661 0.00056891140432 0.00056488624194 
0.00056089528464 0.00055693664836 0.0005530313883 0.00054918981162 0.00054540605617 0.00054167106119 0.00053796077858 0.00053425869744 0.00053056709835 
0.00052690621425 0.00052329503599 0.00051975574403 0.0005162799189 0.00051285472819 0.00050945949877 0.00050608170327 0.00050272119911 0.00049939291594 
0.0004961135665 0.00049289270438 0.00048972536036 0.00048659459244 0.00048348419644 0.00048038676312 0.00055956357052 0.00055560484445 0.00055166020868 
0.00054774619854 0.00054388679093 0.00054009793459 0.00053638440855 0.00053272548944 0.00052909076858 0.0005254622427 0.00052183836833 0.0005182382719 
0.00051469422122 0.00051122138671 0.00050782124646 0.00050447630076 0.00050115806477 0.00049784824331 0.00049454745879 0.00049127639587 0.00048805447875 
0.00048489904091 0.0004818031439 0.0004787463012 0.00047570457788 0.00047266677896 0.00054966101758 0.00054576633908 0.00054188322621 0.0005380250891 
0.00053421972415 0.00053049770533 0.0005268517752 0.0005232675041 0.00051971127861 0.0005161583886 0.00051260293049 0.00050907048682 0.00050559540052 
0.00050219357259 0.00049887102074 0.00049560488025 0.00049236346307 0.00048912560879 0.00048588971379 0.00048268091127 0.00047952380748 0.00047643576321 
0.00047341116981 0.00047042585657 0.00046745284508 0.00046447768312 0.00053994808833 0.00053612343602 0.00053230575942 0.00052850930375 0.00052476707013 
0.00052110284313 0.00051752652146 0.0005140137402 0.00051052880336 0.00050704845805 0.00050356447313 0.0005001037712 0.00049669291449 0.00049336292239 
0.00049011291863 0.00048691906456 0.00048374926417 0.00048058079145 0.00047741384333 0.00047426837793 0.00047117500462 0.00046815067627 0.0004651921643 
0.00046227326008 0.00045936502545 0.00045645225432 0.00053095883305 0.00052719907754 0.00052344878903 0.0005197198518 0.00051604411173 0.00051244252738 
0.00050892528886 0.00050547305804 0.00050205141204 0.00049863266978 0.00049522150766 0.00049182829952 0.00048848627405 0.00048522030716 0.00048203251416 
0.0004789005063 0.00047579386664 0.0004726900614 0.00046958834508 0.00046650828073 0.00046347635729 0.00046051110176 0.00045760836535 0.00045474537485 
0.00045189388637 0.00044903937126 0.00052298761212 0.00051928945615 0.00051559867695 0.00051193589642 0.00050832289157 0.00050478196255 0.00050131774854 
0.00049791378791 0.00049454481985 0.00049119065568 0.0004878403096 0.00048451435111 0.00048123802 0.00047803101118 0.00047489579354 0.00047180953885 
0.00046875526283 0.00046570841814 0.00046266857643 0.00045965076207 0.00045667793088 0.00045376510771 0.00045090858075 0.00044809127348 0.00044528752386 
0.00044248509466 0.00051612706246 0.00051247034806 0.00050884033407 0.00050523835591 0.00050168647622 0.00049819921143 0.0004947804469 0.00049141790847 
0.00048809398803 0.00048478527455 0.00048149372423 0.00047822994786 0.00047501411806 0.00047185891466 0.00046876806545 0.00046572640439 0.00046271441163 
0.00045971699014 0.0004567325969 0.00045377289873 0.00045085355406 0.00044798310799 0.00044516523514 0.00044238277833 0.00043961697691 0.00043685885359 
0.0005103145179 0.00050670561192 0.00050312480795 0.00049958154329 0.00049608491422 0.00049264620443 0.00048926755174 0.00048593892566 0.00048265004598 
0.00047938487087 0.00047614342206 0.00047293442725 0.0004697704121 0.0004666614929 0.00046360762431 0.00046059986053 0.00045762269211 0.00045466675186 
0.0004517297773 0.00044882113534 0.00044595004642 0.00044312333154 0.00044033812152 0.00043758454759 0.00043485081585 0.00043213074155 0.00050546614147 
0.00050189344829 0.00049835760257 0.00049486177737 0.00049141247552 0.00048801751351 0.00048467217673 0.00048137834037 0.00047811913579 0.00047488976097 
0.0004716908378 0.00046852769194 0.00046540907664 0.00046233986656 0.00045931846918 0.00045633978889 0.00045339175014 0.00045047082706 0.00044757485293 
0.00044470933464 0.00044187906438 0.00043908634828 0.00043632943259 0.00043360156367 0.00043089473031 0.00042820357696 0.00050146655366 0.00049792800411 
0.00049443029931 0.00049097552441 0.00048756829296 0.00048420912067 0.00048089900202 0.00047763040443 0.00047439851642 0.00047120004215 0.00046803702895 
0.00046491321548 0.00046183140864 0.00045879571246 0.00045580276977 0.00045284837947 0.00044992672667 0.00044703549652 0.00044417377253 0.00044134308586 
0.00043854641991 0.00043578413168 0.00043305177949 0.00043034601748 0.00042766272746 0.00042499943435 0.00049823646622 0.00049472663247 0.00049126137586 
0.00048784210731 0.00048446845369 0.00048114416592 0.0004778614086 0.00047461740225 0.00047140932826 0.00046823710752 0.00046510432212 0.00046201243982 
0.00045896275947 0.00045595497399 0.0004529866007 0.00045005384186 0.00044715466173 0.00044428735093 0.00044145279309 0.00043865123219 0.00043588331198 
0.00043314500056 0.00043043439689 0.00042774862771 0.00042508286043 0.0004224434402 0.00049572828473 0.0004922432947 0.00048880518545 0.00048541298564 
0.00048207113241 0.00047877378318 0.00047551602548 0.00047229484716 0.00046910739643 0.00046595783009 0.00046284822498 0.00045978124438 0.00045675809419 
0.00045377448403 0.00045082734122 0.00044791297314 0.00044503134772 0.00044218397612 0.00043937081663 0.00043659266904 0.00043384708922 0.00043113081249 
0.00042843815862 0.00042576829712 0.00042311931498 0.00042050124351 0.00049393383902 0.00049046945229 0.00048704834551 0.00048368341404 0.00048036468079 
0.00047709110267 0.00047385465122 0.00047065222254 0.00046748290988 0.00046434931697 0.00046125781018 0.0004582109946 0.00045520857783 0.00045224580019 
0.00044931654119 0.00044641790153 0.00044355039785 0.00044071644864 0.00043791857439 0.00043515774289 0.00043243122497 0.00042973267073 0.00042705612936 
0.00042439993733 0.00042176616915 0.00041915710862 0.00049288056943 0.00048942711765 0.00048602687426 0.00048267581335 0.00047937788904 0.0004761244478 
0.00047290676146 0.00046972004386 0.00046656305838 0.00046344095092 0.00046036120689 0.00045732853281 0.00045434205409 0.00045139678609 0.00044848151522 
0.00044559534139 0.0004427370345 0.00043991205189 0.00043712302071 0.00043437452167 0.00043166234498 0.00042898101938 0.00042631437614 0.00042366849445 
0.00042104032385 0.00041843613041 0.00049262791261 0.00048918720206 0.0004857915318 0.00048245212956 0.00047916929625 0.00047593342616 0.00047273192675 
0.00046955751151 0.0004664073347 0.00046328968563 0.00046021391388 0.0004571888806 0.0004542156752 0.00045128335644 0.00044838145725 0.00044550314102 
0.00044264887877 0.00043982498917 0.00043703938844 0.00043429697812 0.00043159679549 0.0004289245151 0.00042626677895 0.0004236245473 0.00042099695311 
0.00041839483293 0.00049327164253 0.00048982854132 0.00048643380606 0.00048309950244 0.0004798267784 0.00047660299851 0.00047341455797 0.00047024747053 
0.00046709857411 0.00046397793958 0.0004609004257 0.00045787848867 0.00045491120361 0.00045198852861 0.00044909577754 0.00044622174237 0.00044336466015 
0.00044053523198 0.00043774769742 0.0004350051308 0.00043230849854 0.00042963775564 0.00042698809991 0.00042434566281 0.0004217144583 0.00041910616049 
0.00049488804828 0.00049144010509 0.00048803840535 0.00048470232056 0.00048143343896 0.00047821833574 0.00047503796613 0.00047187321524 0.00046872038152 
0.00046559084124 0.00046250306198 0.00045947608891 0.00045650867308 0.00045359024153 0.00045070072594 0.00044782563214 0.00044496348454 0.00044212068504 
0.00043931943159 0.00043657007038 0.00043386719783 0.00043120203112 0.00042855063787 0.00042590436898 0.00042326360238 0.00042064383111 0.00049751385713 
0.00049405776095 0.00049064632523 0.0004873016629 0.00048402761078 0.00048081394303 0.00047763536307 0.00047446855114 0.00047130690199 0.00046816198163 
0.0004650589685 0.00046201757068 0.0004590425159 0.00045612081 0.00045322846118 0.00045034899425 0.00044747153228 0.00044461212668 0.00044179240389 
0.00043902885663 0.00043631542478 0.00043364240232 0.0004309863617 0.00042832971508 0.00042567495534 0.00042303679298 0.0005010732208 0.00049760758006 
0.00049418347513 0.00049082461984 0.00048753996177 0.00048431659122 0.00048113065069 0.00047795582936 0.00047478207933 0.00047162052178 0.00046849935537 
0.00046543928445 0.00046244768096 0.00045951371412 0.0004566092922 0.00045371402906 0.00045082066148 0.00044794226841 0.00044510161851 0.00044231360021 
0.0004395834615 0.0004368954776 0.00043422485968 0.00043155391522 0.00042888110157 0.00042622204919 0.00050530220783 0.00050182867335 0.00049839531946 
0.00049502175642 0.00049172055703 0.00048848096032 0.00048527956626 0.0004820888653 0.00047890089256 0.0004757244546 0.00047258348073 0.00046950392797 
0.00046648835959 0.00046352946997 0.000460604087 0.00045768974471 0.00045478051071 0.0004518826968 0.00044901732897 0.00044620623293 0.00044345121174 
0.00044073825642 0.00043804437268 0.0004353513505 0.00043265769568 0.00042998039971 0.00050972912841 0.00050625120562 0.00050281155103 0.00049942889221 
0.00049611127708 0.00049285104913 0.00048962726088 0.00048641795419 0.00048321537959 0.00048002705461 0.00047686908154 0.00047376445315 0.00047072259588 
0.00046773512931 0.00046478366038 0.00046184765855 0.00045891823556 0.00045600063548 0.0004531188778 0.00045028493522 0.00044750088599 0.00044475804492 
0.00044203317343 0.00043931522678 0.00043660106284 0.00043390608949 0.00051368398718 0.00051021012766 0.00050677308699 0.00050338747001 0.00050005817594 
0.00049677993901 0.00049353562925 0.00049031122535 0.00048709320763 0.00048389113422 0.00048072095344 0.00047759958376 0.00047453326363 0.00047151945433 
0.00046854087307 0.00046558217537 0.00046263646649 0.00045970671338 0.00045681059657 0.00045395627423 0.00045114761458 0.00044837151343 0.00044561758687 
0.00044287174086 0.00044013861908 0.00043742723894 0.00051641604322 0.00051295494132 0.00050953181698 0.00050615435321 0.00050282328387 0.00049953983385 
0.00049628171068 0.00049304249389 0.0004898161418 0.00048660929791 0.00048343310773 0.00048030106726 0.00047721911934 0.00047418567389 0.00047118592454 
0.00046821076589 0.00046525298155 0.00046232138407 0.00045941961842 0.00045655322919 0.0004537263503 0.00045092887161 0.00044814848648 0.00044538069097 
0.00044262596136 0.00043989881901 0.00051724398795 0.00051380909782 0.00051041400995 0.00050706117593 0.00050374408755 0.00050046302569 0.00049720571331 
0.00049396500435 0.00049074030437 0.00048753608999 0.00048436292349 0.00048123227712 0.00047814796635 0.0004751064738 0.00047209820857 0.00046911552215 
0.00046616192942 0.00046323528643 0.00046033862004 0.00045747679138 0.00045464516185 0.00045183512488 0.00044903979449 0.00044625295731 0.00044348432311 
0.00044074593539 0.00065254489441 0.00064790655326 0.00064333010199 0.0006388122797 0.00063435155209 0.00062993541153 0.00062556205325 0.0006212217635 
0.0006169099457 0.00061263317862 0.00060839300004 0.00060419448845 0.00060004928003 0.00059595839652 0.00059192385191 0.00058794078217 0.00058399939462 
0.00058009971147 0.00057624146842 0.00057242614396 0.00056865749806 0.00056493605517 0.00056125731825 0.00055761895426 0.00055401855505 0.00055045632295 
0.00064736261113 0.0006427545222 0.00063820400033 0.00063371208388 0.00062927123766 0.00062488420791 0.00062054630388 0.00061624709412 0.00061198793514 
0.00060776167108 0.00060356673176 0.00059941420319 0.00059531220044 0.00059126711607 0.00058728123565 0.00058334388823 0.00057944877166 0.00057559229567 
0.00057177440195 0.00056799795532 0.0005642683895 0.0005605877327 0.00055695301358 0.00055335941617 0.00054980233248 0.0005462793191 0.00064061001766 
0.00063604740095 0.00063153932776 0.00062707832331 0.0006226739622 0.00061832855822 0.00061403622682 0.00060979542393 0.00060559348452 0.0006014223824 
0.00059728208563 0.00059318423986 0.00058913454327 0.00058514741199 0.00058121598667 0.00057733545612 0.00057349585097 0.00056969262445 0.0005659234576 
0.00056219444382 0.00055851301653 0.00055488217377 0.00055130068102 0.00054775981359 0.00054425338997 0.00054077826081 0.00063277094377 0.00062826709835 
0.0006238037987 0.00061938849261 0.00061503070727 0.00061073384469 0.00060650142886 0.00060232234501 0.00059818202616 0.00059407350471 0.00058999432133 
0.00058595293813 0.00058196559047 0.00057803630148 0.00057416735343 0.00057035121177 0.00056657631299 0.00056283181818 0.00055911730163 0.00055544246594 
0.0005518138307 0.00054823902797 0.00054471541543 0.00054123435619 0.0005377841182 0.0005343604427 0.00062439968156 0.00061995087781 0.00061554432669 
0.00061118330177 0.00060687750763 0.0006026431135 0.00059846886365 0.00059435184178 0.00059027660578 0.00058623194874 0.0005822145253 0.00057823567439 
0.00057431171747 0.00057044530685 0.00056664223192 0.00056289176413 0.00055917987679 0.00055549787702 0.00055184266232 0.00054822564357 0.00054465549802 
0.00054113979022 0.00053767576813 0.00053425276429 0.00053086005032 0.00052749104747 0.00061600638873 0.00061162095906 0.00060727340761 0.00060297009073 
0.00059872371622 0.00059454225144 0.00059043100228 0.00058637665702 0.00058236348374 0.00057838395468 0.00057442929027 0.00057051587512 0.00056665063885 
0.00056284873534 0.00055910976375 0.00055542241023 0.00055177314326 0.00054815209581 0.00054455833884 0.00054099846328 0.00053748661569 0.00053402853329 
0.00053062208535 0.00052725710329 0.00052392016911 0.00052060598813 0.00060799535791 0.00060366964924 0.00059938395224 0.00059514213875 0.00059095638798 
0.00058683365325 0.0005827788891 0.00057878266192 0.00057482962409 0.0005709053459 0.00056701595745 0.00056316184582 0.00055935870321 0.00055561684386 
0.000551936205 0.00054830739163 0.0005447165498 0.00054115390709 0.00053761837722 0.00053411649697 0.00053066038228 0.00052725692744 0.00052390331453 
0.00052059085202 0.00051730689953 0.00051404444184 0.00060063062804 0.00059636542426 0.00059213470967 0.0005879513493 0.00058382260335 0.00057975736376 
0.00057575677647 0.00057181182453 0.00056791259188 0.00056404965364 0.00056021574183 0.00055642121719 0.00055267677645 0.00054899047191 0.00054536307465 
0.00054178251244 0.00053824361927 0.00053473435101 0.00053125365317 0.00052780691562 0.00052440411574 0.00052105086813 0.0005177455099 0.00051448002462 
0.00051124308566 0.00050802868889 0.00059404847246 0.00058982712364 0.00058565426394 0.00058152541616 0.00057745226723 0.00057343877131 0.00056948648772 
0.00056558911736 0.00056173959648 0.00055792270796 0.00055414291169 0.00055040367182 0.0005467136969 0.00054307777167 0.00053949819961 0.00053596742606 
0.00053247417366 0.00052901370946 0.00052558318181 0.00052218839267 0.00051883452854 0.00051552300501 0.00051225958702 0.00050903411169 0.00050583787175 
0.00050266612586 0.0005882638776 0.0005840946172 0.0005799706759 0.00057589594267 0.0005718732036 0.00056790785326 0.00056399957835 0.00056014337442 
0.00055633535164 0.00055256500916 0.00054883310582 0.00054514324127 0.00054150121832 0.00053791146349 0.00053437281581 0.0005308816875 0.00052742943112 
0.00052401114041 0.00052062533717 0.00051727629877 0.00051396722365 0.0005107004187 0.00050747453911 0.00050428479071 0.00050112425779 0.00049799068457 
0.00058327123765 0.0005791433215 0.00057506440639 0.00057103547878 0.00056705799934 0.000563136522 0.00055926661515 0.00055545201288 0.00055168000711 
0.00054794952896 0.00054425984726 0.00054061379738 0.00053701455032 0.00053346524117 0.00052996444698 0.00052650851665 0.00052309145367 0.00051971053224 
0.00051636423089 0.0005130545161 0.00050978536916 0.0005065537522 0.00050336101613 0.00050020259016 0.00049707409169 0.00049397114863 0.00057901681529 
0.00057492855418 0.00057088935452 0.00056690138495 0.00056296611803 0.00055908185281 0.00055525216424 0.00055146925541 0.0005477308126 0.00054403493501 
0.00054038236849 0.00053677449835 0.0005332119315 0.00052969871741 0.00052623046418 0.00052280527754 0.00051941977615 0.000516071664 0.00051275986536 
0.00050948500397 0.00050624817273 0.00050304929809 0.00049988511895 0.00049675466274 0.0004936537048 0.00049058084213 0.00057546110077 0.00057140703893 
0.00056740405111 0.00056345289881 0.0005595518921 0.00055570525386 0.00055190687383 0.00054815409184 0.00054444583814 0.00054078027741 0.00053716026704 
0.00053358507904 0.00053005636622 0.00052657314303 0.00052313340483 0.00051973525849 0.00051637715838 0.00051305695861 0.0005097745258 0.00050652889417 
0.00050332150643 0.00050014926202 0.00049701081006 0.00049390411643 0.0004908251468 0.00048777928587 0.00057257700773 0.00056855281149 0.00056458130112 
0.0005606595048 0.00055679308091 0.00055297650975 0.00054920645123 0.00054548177172 0.00054179920873 0.00053816108651 0.00053456765857 0.00053102010748 
0.00052751935609 0.00052406302872 0.0005206485162 0.00051727384398 0.00051393850316 0.0005106421933 0.00050738373444 0.00050416328978 0.00050097974763 
0.0004978312094 0.00049471430241 0.0004916280072 0.0004885701681 0.00048554855199 0.00057035896525 0.00056636057118 0.00056241135199 0.00055851958226 
0.00055467999751 0.00055088970241 0.00054714515011 0.00054344381188 0.0005397841937 0.00053616759034 0.00053259676734 0.00052907234 0.00052559473962 
0.00052216189216 0.00051876905952 0.00051541422928 0.00051209762497 0.00050881980016 0.00050558059992 0.00050237990237 0.00049921754247 0.00049608913399 
0.0004929910072 0.00048992256439 0.00048688396402 0.00048387568677 0.00056881520504 0.00056483710694 0.00056091467244 0.00055704311533 0.00055322607334 
0.00054945863734 0.00054573565728 0.00054205457242 0.00053841355258 0.00053481457332 0.00053126086097 0.00052775493674 0.00052429679393 0.00052088260037 
0.00051750658806 0.00051416850085 0.00051086688721 0.00050760347048 0.00050437821867 0.00050119352101 0.00049804735037 0.00049493783161 0.00049185342309 
0.00048879830263 0.00048577074533 0.00048277222064 0.00056797745519 0.00056401868908 0.00056010964498 0.00055625545521 0.00055245719389 0.00054870913739 
0.0005450045159 0.00054134024405 0.00053771278314 0.00053412616584 0.00053058364702 0.00052709114331 0.00052364835856 0.00052024901958 0.00051688877799 
0.00051356309743 0.00051027187824 0.00050701680402 0.0005038016232 0.00050062712644 0.00049749604083 0.00049439670289 0.00049132281255 0.00048827725774 
0.00048525590974 0.00048226631199 0.00056788063342 0.00056393016716 0.00056003186372 0.00055619143299 0.00055240733341 0.00054867327971 0.00054498345291 
0.00054133127051 0.00053771315674 0.00053413385186 0.00053059923011 0.00052711636182 0.00052368301092 0.00052029512685 0.00051694564996 0.00051362842574 
0.00051034218824 0.00050709101281 0.0005038825041 0.00050071444464 0.00049758847274 0.00049449263079 0.00049142857487 0.00048838721485 0.00048537105005 
0.00048238448821 0.00056853341388 0.00056459027134 0.00056069799586 0.00055686556955 0.00055309111357 0.00054936862675 0.00054568970125 0.00054204485184 
0.00053843192351 0.00053485567248 0.00053132265988 0.00052784308263 0.00052441450322 0.00052103295719 0.00051768937134 0.00051437652348 0.00051109423248 
0.00050784174959 0.00050462966192 0.00050146278429 0.00049833479054 0.0004952460517 0.00049218376337 0.00048914411782 0.00048612732485 0.00048313962244 
0.00056990424599 0.00056596592555 0.00056207713318 0.00055824830507 0.00055447776303 0.00055076227352 0.00054709017517 0.00054344904947 0.00053983726279 
0.00053625844295 0.00053272368643 0.00052924099992 0.00052581283232 0.00052243272444 0.00051909064528 0.00051578056762 0.00051249212735 0.00050923429578 
0.00050601718584 0.00050284590237 0.00049971492485 0.00049662336164 0.00049356017096 0.00049051772165 0.00048749590931 0.00048450185796 0.00057187754756 
0.00056794133161 0.00056405420692 0.00056022494591 0.00055645568757 0.00055274083975 0.00054906948565 0.00054542941781 0.0005418157049 0.00053823297743 
0.00053469367559 0.00053120592051 0.00052777267671 0.00052439005186 0.00052104361309 0.00051772504662 0.0005144319759 0.00051116791155 0.00050794198427 
0.00050475896622 0.00050162201084 0.00049852451724 0.00049545477426 0.00049240541827 0.0004893762368 0.00048637271936 0.00057421381222 0.00057028064459 
0.00056639595263 0.00056256579167 0.00055879502416 0.00055507865774 0.00055140475362 0.00054776084485 0.00054414420045 0.00054055805206 0.0005370123579 
0.00053351958918 0.00053007750844 0.00052668399555 0.00052332971057 0.00052000379394 0.00051670437715 0.00051343224869 0.0005101940946 0.0005070019943 
0.00050385432157 0.00050074514696 0.00049766450315 0.00049460422201 0.00049156365848 0.00048855264815 0.0005765546527 0.00057262638879 0.00056874520194 
0.00056491858778 0.00056114781594 0.00055742846138 0.00055374935302 0.00055010222974 0.00054648185062 0.00054289513007 0.00053934449867 0.00053584129461 
0.00053239026108 0.00052898628319 0.000525622194 0.00052228817041 0.00051897987312 0.00051569772061 0.00051245464275 0.00050925328338 0.00050609371637 
0.00050297189753 0.00049987590502 0.00049680353177 0.00049375360357 0.00049073455097 0.00057843637505 0.00057451922773 0.00057064835375 0.0005668289071 
0.00056306164888 0.00055934220381 0.00055566156767 0.00055201520105 0.00054839304828 0.00054480230205 0.0005412497703 0.00053774329499 0.00053428478925 
0.00053087356102 0.00052750097884 0.00052415944654 0.00052084604143 0.0005175604246 0.00051431285687 0.00051110445685 0.00050793568958 0.0005047989913 
0.0005016920047 0.00049860722365 0.00049554950308 0.00049252313029 0.00057936461439 0.00057546494689 0.0005716127691 0.00056780881824 0.0005640521774 
0.0005603429521 0.00055666625676 0.00055301986573 0.00054940130879 0.00054581545656 0.00054226657032 0.00053876067502 0.00053530112075 0.00053188759039 
0.00052851069722 0.00052516702549 0.00052185258857 0.00051857259667 0.00051532705423 0.00051211647637 0.00050894393472 0.00050580255277 0.0005026860525 
0.00049959387658 0.00049652733963 0.00049349471425 0.00057890147867 0.00057502983888 0.00057120639417 0.00056743047151 0.000563694336 0.00055999853886 
0.0005563352405 0.00055269993514 0.00054909443998 0.00054551931959 0.00054198120837 0.00053848482419 0.00053503480788 0.00053162572462 0.00052825372431 
0.00052491435444 0.00052161211126 0.00051834350345 0.00051510790539 0.00051190788025 0.00050874048549 0.00050559880818 0.00050248156415 0.00049938457231 
0.00049631594388 0.00049328261903 0.00072429656712 0.00071911381503 0.00071400158676 0.00070895478007 0.00070397226765 0.00069904127673 0.00069416203954 
0.00068932775697 0.0006845359634 0.00067979170369 0.00067509254594 0.00067044367996 0.00066584991911 0.00066131204827 0.0006568318278 0.00065240773502 
0.00064803224529 0.00064370634509 0.0006394290562 0.00063519999857 0.00063102149138 0.00062689332254 0.00062281230325 0.00061877737989 0.00061478814941 
0.00061084524775 0.00071940297244 0.00071425433002 0.00070917328274 0.00070415952828 0.0006992032351 0.00069430567741 0.00068946229953 0.00068466687214 
0.00067992327471 0.00067522593535 0.00067057066574 0.0006659663751 0.00066141546766 0.0006569213837 0.00065248773189 0.000648105454 0.00064377256907 
0.00063948829718 0.00063525121229 0.00063106170966 0.00062692198119 0.00062283285799 0.00061879276656 0.00061479859648 0.00061084940408 0.00060694350517 
0.00071335107946 0.00070824737229 0.00070321053915 0.00069823107741 0.00069331373911 0.00068845812251 0.00068365906014 0.00067891561234 0.00067422256523 
0.00066957524414 0.00066497162045 0.00066041814594 0.00065591722566 0.00065147702598 0.00064709210365 0.00064276014067 0.00063847931223 0.00063424251745 
0.00063005161886 0.00062590765284 0.00062181376684 0.00061777044211 0.00061377712237 0.00060982955972 0.00060592546743 0.00060206354439 0.00070645625127 
0.00070140787982 0.00069641499088 0.00069148211015 0.00068661176803 0.00068180301869 0.00067706073628 0.00067237037829 0.00066773193293 0.00066314086065 
0.0006585934115 0.0006540933133 0.00064965024785 0.00064526224458 0.00064093271218 0.00063665738733 0.00063243254763 0.00062825003608 0.00062411024629 
0.00062001740592 0.00061597301951 0.00061197945346 0.00060803772629 0.00060414152362 0.00060028698321 0.00059647079644 0.00069909156547 0.00069409358855 
0.00068915506195 0.00068427484612 0.00067945530114 0.00067470571282 0.00067001417424 0.00066538222257 0.00066080199434 0.00065626784337 0.00065177717688 
0.0006473354065 0.00064295113253 0.00063862055809 0.00063434964233 0.00063013281661 0.00062596379302 0.00062183758249 0.00061775314966 0.00061371381669 
0.00060972356087 0.0006057834911 0.00060189391649 0.00059804955069 0.00059424556796 0.00059047849786 0.00069161107388 0.00068667236683 0.00068178999321 
0.00067696495334 0.00067220173345 0.00066750238132 0.00066286993808 0.00065829568472 0.00065377223588 0.00064929793644 0.00064486470762 0.00064048386322 
0.00063615340834 0.00063188270958 0.0006276704183 0.00062351104213 0.00061939881324 0.00061532980783 0.00061129989511 0.0006073142141 0.00060337685375 
0.00059949028558 0.00059565291798 0.00059186109798 0.00058810786071 0.00058439096525 0.00068431786937 0.00067943661934 0.0006746096339 0.00066984665458 
0.00066514071889 0.00066049822927 0.00065592022697 0.00065140129376 0.00064693526246 0.00064251214705 0.00063814045587 0.00063381358863 0.00062954155768 
0.00062532680316 0.00062116986242 0.00061706599006 0.0006130081788 0.00060899270549 0.00060501770123 0.00060108503024 0.00059719996874 0.00059336473668 
0.000589577737 0.00058583532032 0.0005821315932 0.00057846276406 0.00067743550634 0.00067261394746 0.00066784276537 0.00066313180907 0.00065848047591 
0.00065389349289 0.000649368589 0.00064490232359 0.00064048939369 0.00063612599785 0.00063180574866 0.00062753481484 0.0006233177592 0.00061915699682 
0.00061505195649 0.00061099580112 0.00060698940898 0.00060302493517 0.00059910066388 0.00059521941994 0.00059138390227 0.00058759704187 0.00058385795404 
0.00058016188846 0.00057650383247 0.00057288060493 0.00067110403015 0.0006663285008 0.00066161393417 0.0006569547347 0.00065235746121 0.00064782156038 
0.00064334664322 0.00063893043494 0.00063456900074 0.00063025160835 0.0006259833894 0.00062176475264 0.00061759857623 0.00061348758628 0.00060943126046 
0.00060542691982 0.00060146739601 0.00059755029 0.00059367399281 0.00058984159761 0.00058605274133 0.00058230775679 0.0005786111455 0.0005749562184 
0.00057133942165 0.00056775836946 0.00066537556839 0.00066065516293 0.00065598918573 0.00065138272488 0.00064683491155 0.00064234676923 0.00063791866897 
0.00063354951845 0.00062922971746 0.00062496126443 0.00062074029794 0.000616569076 0.00061245018126 0.00060838486801 0.00060437204349 0.00060040992756 
0.00059649322697 0.0005926184691 0.00058878664456 0.0005849976108 0.00058125377218 0.00057755300039 0.00057389604458 0.00057027986445 0.00056670066907 
0.00056315741852 0.00066028566649 0.00065560864439 0.00065099075337 0.00064643090264 0.00064192800344 0.00063748574214 0.00063309757201 0.00062877193946 
0.00062449530043 0.00062026849599 0.00061609056421 0.00061196310929 0.00060788663073 0.00060386303909 0.00059989067282 0.00059596737936 0.00059208872915 
0.00058825379222 0.00058446145856 0.00058071132914 0.00057700650195 0.0005733428533 0.00056972157563 0.00056613991902 0.00056259533843 0.00055908417686 
0.00065581991925 0.0006511865819 0.0006466109061 0.00064209325951 0.00063763371956 0.00063323079567 0.0006288876776 0.0006245970058 0.00062035836925 
0.00061616889424 0.00061203035712 0.00060794134513 0.00060390304319 0.00059991750022 0.00059598122364 0.00059209280954 0.00058824909505 0.00058444931462 
0.00058069156614 0.00057697791216 0.00057330653861 0.00056967675935 0.00056608697944 0.00056253689748 0.00055902310527 0.00055554351441 0.00065196655226 
0.0006473724169 0.00064283565076 0.00063835713583 0.00063393481734 0.00062957262109 0.00062526373009 0.00062100761407 0.00061680300036 0.00061264853041 
0.00060854449144 0.00060449074181 0.00060048795028 0.00059653461813 0.00059263026492 0.00058877262205 0.00058496085414 0.00058119182748 0.00057746652157 
0.00057378286636 0.00057014198328 0.00056654165154 0.00056298037249 0.00055945801936 0.00055596908963 0.00055251905432 0.00064871485893 0.00064415452749 
0.00063965295355 0.00063520773025 0.00063082279551 0.00062649347294 0.00062221719162 0.00061799379352 0.0006138192584 0.00060969546841 0.00060562219956 
0.00060159901104 0.00059762652161 0.00059370325306 0.0005898274571 0.00058599699013 0.00058221247249 0.0005784711132 0.00057477236721 0.00057111598082 
0.00056750145275 0.00056392742713 0.00056039137239 0.00055688923468 0.00055343011741 0.00055000549392 0.00064605904627 0.00064153021057 0.00063705756832 
0.00063264485311 0.00062829020302 0.00062399110405 0.00061974381954 0.00061554788121 0.00061140088226 0.00060730373415 0.00060325717687 0.00059926064211 
0.00059531405595 0.00059141776061 0.00058756763879 0.00058376187784 0.00057999886352 0.00057628070257 0.00057260478296 0.00056897174462 0.00056538083433 
0.00056182963585 0.00055831670705 0.00055483805462 0.00055139661159 0.00054799120289 0.00064399748233 0.00063949562001 0.00063505376496 0.00063066739321 