# vtk DataFile Version 5.1
vtk output
ASCII
DATASET STRUCTURED_POINTS
DIMENSIONS 26 26 26
SPACING 0.08 0.08 0.08
ORIGIN -1 -1 0.5
POINT_DATA 17576
FIELD FieldData 1
potential 1 17576 double
0.0012558190926 0.0012417515789 0.0012279490001 0.0012144001836 0.0012011005888 0.0011880343943 0.0011751768728 0.001162490005 0.0011498099824 
0.001137428005 0.0011252284497 0.0011131935992 0.0011013806784 0.0010898038504 0.0010784515476 0.0010673988563 0.0010564201559 0.0010456002665 
0.0010349516031 0.0010244804084 0.0010142005673 0.0010041186579 0.00099421795267 0.00098448218651 0.00097489490866 0.00096545360021 0.0012401273044 
0.0012262520859 0.0012126138215 0.0011992110679 0.0011860546521 0.0011731509996 0.001160479702 0.0011478650811 0.0011355667618 0.0011234317409 
0.0011114181138 0.0010995795598 0.001087960496 0.0010765743741 0.0010655238137 0.0010545761376 0.0010437906362 0.001033158225 0.0010226741204 
0.0010123572666 0.0010022337236 0.00099231794151 0.00098259537107 0.00097304175827 0.00096362923954 0.00095434563001 0.0012194240513 0.001205812475 
0.0011924055009 0.0011792097688 0.0011662574133 0.0011535794131 0.001141015888 0.0011288252084 0.0011168257205 0.0011049363737 0.0010931702653 
0.0010815732781 0.0010701825424 0.0010591263527 0.001048240245 0.0010375395665 0.0010270045943 0.001016598958 0.0010063184501 0.00099619634104 
0.00098627072733 0.00097656245049 0.00096706191681 0.0009577304871 0.00094852982595 0.00093944014638 0.0011954695081 0.0011821679639 0.0011690353314 
0.0011560916752 0.0011433965199 0.0011308400719 0.0011187191821 0.0011068583009 0.0010951434648 0.0010835522662 0.0010720631944 0.0010607241357 
0.0010496806415 0.0010388215191 0.0010281935705 0.0010177868724 0.0010075288187 0.00099737543439 0.00098732632368 0.00097742644122 0.00096772087896 
0.00095824736036 0.00094899210517 0.00093990976856 0.00093094477709 0.00092206911306 0.0011702182741 0.0011572392559 0.0011444119222 0.0011317591685 
0.0011191996413 0.0011071091874 0.0010952897669 0.0010837205306 0.0010723241802 0.0010610342325 0.0010498307537 0.0010387678615 0.0010280005791 
0.001017412135 0.0010070819675 0.00099696363802 0.00098698524031 0.00097709668099 0.00096729359569 0.00095763147994 0.0009481657965 0.00093893557281 
0.00092992963086 0.00092109447873 0.00091236835876 0.00090371621509 0.0011454030512 0.0011327549975 0.0011202390082 0.0011077419485 0.0010956508769 
0.0010838242516 0.0010723064985 0.0010610421728 0.0010499393233 0.0010389428653 0.0010280287404 0.0010173299725 0.0010067547884 0.00099643940325 
0.00098638646252 0.00097654017634 0.00096682763068 0.00095719651127 0.0009476467186 0.0009382230963 0.00092899456099 0.00091999944554 0.00091123091233 
0.00090263054655 0.00089413341049 0.00088570212449 0.0011222760917 0.0011099351671 0.0010977238795 0.0010855545278 0.0010737340846 0.0010621950896 
0.0010509491398 0.0010399519599 0.0010291199058 0.0010183955231 0.0010078424812 0.00099732419857 0.00098702810319 0.00097696921015 0.00096716391162 
0.00095756064433 0.00094808954523 0.00093869937703 0.00092938941082 0.00092020450396 0.00091120364553 0.00090242933288 0.00089387148969 0.00088547948794 
0.00087718877359 0.00086896495027 0.0011015095013 0.0010894734789 0.0010774050298 0.0010656443788 0.0010541060687 0.0010428326841 0.0010318345702 
0.0010210697904 0.0010104758583 0.0010000810763 0.00098968543711 0.00097945261644 0.00096939620889 0.00095957352731 0.00094998671017 0.00094058971688 
0.00093132791968 0.00092215455492 0.00091306970919 0.00090410896603 0.00089532484218 0.00088675037863 0.00087837658747 0.0008701642474 0.00086205427707 
0.00085401797292 0.0010833362896 0.0010713714843 0.0010597112734 0.0010482176373 0.0010369382706 0.0010259075578 0.0010151289028 0.0010045691813 
0.00099426446788 0.00098398347074 0.00097383338028 0.00096384021387 0.00095401727581 0.0009444059055 0.00093501015117 0.00092579371263 0.00091671118872 
0.0009077296139 0.00089884816269 0.00089009547052 0.00088150789159 0.0008731109226 0.00086489724582 0.00085683352173 0.00084887664834 0.0008410045112 
0.0010674302743 0.001055835401 0.0010444052838 0.001033159117 0.0010221189018 0.0010113076934 0.0010007250538 0.0009903445502 0.00098020162666 
0.0009701258265 0.0009601965403 0.00095040291371 0.00094078563918 0.00093136424195 0.00092213440689 0.00091307375911 0.00090414576488 0.00089533165396 
0.00088662891681 0.00087806161298 0.00086965160774 0.00086141393585 0.00085333939746 0.00084540435397 0.00083758073329 0.00082985339975 0.0010538887075 
0.0010424862843 0.0010312647152 0.001020232625 0.0010094028182 0.00099879016557 0.00098836638415 0.00097823091824 0.00096817926843 0.00095828625979 
0.00094852319545 0.00093891673223 0.0009294826321 0.00092022901783 0.00091114772339 0.00090222460679 0.0008934322777 0.00088476447159 0.00087622020349 
0.00086781459143 0.00085955923137 0.00085145939225 0.00084350813733 0.00083568853187 0.00082798122542 0.00082022981203 0.0010422992745 0.0010310735089 
0.0010200377573 0.0010091957858 0.00099855579412 0.00098810016381 0.00097793212457 0.00096786144626 0.00095795286286 0.0009482089364 0.00093860522634 
0.00092916390595 0.00091988778403 0.00091078097065 0.00090183288697 0.00089303074213 0.00088436159478 0.00087582342116 0.00086741706938 0.00085914895232 
0.00085102716786 0.00084305110401 0.00083520879995 0.00082749129193 0.00081988782061 0.00081224914296 0.0010324698431 0.0010214019822 0.0010105308946 
0.00099985875819 0.00098936577095 0.00097916381583 0.00096905889267 0.00095912043218 0.00094935531688 0.00093972939512 0.00093026572642 0.00092096669089 
0.00091183091153 0.00090285327963 0.00089402348907 0.00088533073889 0.00087677199184 0.00086834554732 0.00086005649153 0.00085190850756 0.00084390359397 
0.00083603191681 0.00082828780846 0.00082066301409 0.00081300115824 0.00080560722954 0.0010242820484 0.0010133572229 0.0010026314077 0.00099208627751 
0.00098183599134 0.00097169208323 0.00096171735126 0.00095190265132 0.00094225114362 0.00093274388316 0.00092339922642 0.00091422067753 0.00090520660512 
0.00089634298275 0.00088761825377 0.00087902421939 0.00087056026355 0.0008622325199 0.00085404371706 0.0008459984921 0.00083809138032 0.0008303152893 
0.0008226560706 0.00081511137509 0.00080753171629 0.00080023145026 0.0010177055288 0.0010069070234 0.00099628106133 0.00098596218923 0.0009757606555 
0.00096573853928 0.0009558776599 0.00094618469815 0.00093662309556 0.00092721470059 0.00091797208432 0.00090889765134 0.00089998626482 0.00089122296572 
0.00088259131586 0.00087408385169 0.00086570311435 0.00085745575248 0.00084934960475 0.00084138903028 0.00083356853497 0.00082587418233 0.00081829275727 
0.00081067893986 0.00080331893598 0.00079607594936 0.0010127900484 0.0010020712156 0.00099165326204 0.00098136150059 0.00097126803466 0.00096135364884 
0.00095160878682 0.00094199498331 0.0009325196132 0.00092319476506 0.00091403461798 0.00090504512259 0.00089621957716 0.00088754380679 0.00087898984325 
0.00087055734115 0.00086224422018 0.00085406341326 0.00084602275584 0.00083813230734 0.00083038358094 0.00082277089636 0.00081510117818 0.00080769006171 
0.00080038278495 0.00079318157363 0.0010096365643 0.00099910203741 0.00098868726811 0.00097847978052 0.00096847718776 0.00095865623571 0.00094900056395 
0.00093946655621 0.00093005922021 0.00092079674828 0.00091169511301 0.00090277004779 0.00089401899919 0.000885413976 0.00087693189562 0.0008685590463 
0.00086029750831 0.00085216152279 0.00084416953242 0.00083633153082 0.00082865076332 0.00082108569632 0.00081347061827 0.0008061033321 0.00079882655732 
0.00079167114895 0.0010085551051 0.00099800288121 0.00098764308248 0.00097749863827 0.00096756887464 0.00095783566095 0.00094823978342 0.00093876847978 
0.00092941056427 0.00092018721918 0.00091112605058 0.00090224938162 0.0008935491319 0.00088500207835 0.00087657612758 0.00086824974929 0.0008600198322 
0.00085190955329 0.00084395504226 0.00083615087308 0.00082850297342 0.00082082462264 0.00081340764135 0.0008060658629 0.00079881799567 0.00079167947897 
0.0010095429583 0.00099902804907 0.00098869906451 0.00097859443115 0.00096871390073 0.00095903917724 0.00094950205914 0.00094007314652 0.00093074535873 
0.00092154100009 0.000912494084 0.00090364014049 0.00089497135931 0.00088646389072 0.00087807589986 0.00086977850004 0.00086157483541 0.00085346825659 
0.00084550994351 0.00083771789093 0.00082993595474 0.00082244795927 0.00081504794795 0.000807730524 0.00080048893695 0.00079335124141 0.0010127493908 
0.0010022535472 0.00099193887624 0.00098185068377 0.00097200526195 0.00096235000523 0.00095284825293 0.00094344655042 0.00093413104799 0.00092492361737 
0.00091587244939 0.00090701370222 0.00089835342483 0.00088986333237 0.00088149395891 0.00087321872349 0.00086500252056 0.00085688668842 0.0008489114759 
0.00084111584545 0.00083333532596 0.00082584722772 0.0008184646055 0.00081114672369 0.00080389695837 0.00079674057728 0.0010180028274 0.0010075145542 
0.00099720131308 0.00098712168398 0.00097726296079 0.00096761118762 0.00095811757265 0.00094872259585 0.00093940468877 0.00093018359593 0.00092111446895 
0.00091223514933 0.00090355819511 0.00089506654237 0.00088669085717 0.00087839627772 0.00087016568665 0.00086202792739 0.00085403084505 0.00084605174346 
0.00083840025249 0.00083090396222 0.00082350854805 0.00081617742896 0.00080890586021 0.00080171665522 0.0010247322316 0.0010142491582 0.0010039364598 
0.00099384417134 0.0009839683511 0.00097430006706 0.00096479253942 0.00095538129715 0.00094605032925 0.00093681394795 0.00092771748366 0.00091881709473 
0.00091010354478 0.00090156698157 0.00089316236082 0.00088484190722 0.00087659366141 0.00086843216309 0.00086024653489 0.00085238170869 0.00084469827033 
0.00083716422367 0.00082973415662 0.00082237058526 0.00081506320406 0.00080785095632 0.0010319171772 0.0010214446972 0.0010111499083 0.0010010404528 
0.00099114609037 0.00098145226189 0.00097191071107 0.00096247551992 0.00095312845247 0.00094388606636 0.00093476598153 0.00092581760025 0.00091706120846 
0.0009084785164 0.0009000327852 0.00089167909228 0.00088340369971 0.00087505674928 0.00086700444168 0.00085911068309 0.00085138018838 0.000843797591 
0.00083631161737 0.00082890794564 0.0008215722064 0.0008143332534 0.0010381105121 0.0010276816939 0.0010173987814 0.0010073030822 0.00099740351231 
0.00098769033135 0.00097812422398 0.00096868116233 0.00095931700841 0.00095005415047 0.00094092301426 0.00093195526415 0.00092316246816 0.00091454075999 
0.00090605215648 0.00089766819401 0.00088936930744 0.00088101909031 0.00087295197202 0.0008650314621 0.00085726619903 0.00084962613984 0.00084209903306 
0.00083465012477 0.00082728903336 0.00082002976841 0.0010416888595 0.0010313175919 0.0010210932299 0.0010110441176 0.0010011690244 0.0009914801791 
0.00098191096552 0.00097245463746 0.00096309700812 0.00095384778074 0.00094472612538 0.00093575818534 0.00092695561476 0.00091831388927 0.00090980407282 
0.00090140399527 0.0008929546731 0.00088477531716 0.00087671784002 0.00086878949452 0.00086100932431 0.00085335167523 0.00084579062586 0.00083832043152 
0.00083093039726 0.0008236503549 0.001041193784 0.0010309095609 0.0010207890332 0.0010108417389 0.0010010385988 0.00099139023403 0.00098186343616 
0.00097244315053 0.00096312565606 0.00095391710619 0.00094483616097 0.00093590572099 0.00092713069661 0.00091850790701 0.00091000913378 0.00090147744733 
0.00089322327828 0.00088508594193 0.00087706579712 0.00086918260032 0.00086142349753 0.00085377047414 0.00084621298898 0.0008387275897 0.00083133566758 
0.00082405764493 0.0014021752953 0.0013864125405 0.0013709516085 0.0013557811995 0.0013408860316 0.0013262484718 0.0013118519412 0.0012976662368 
0.0012835412683 0.0012697657315 0.0012562164929 0.0012428597608 0.0012297374691 0.001216856712 0.001204209123 0.0011918804082 0.001179656249 
0.0011676262038 0.0011557968913 0.0011441667683 0.0011327413523 0.0011215224586 0.0011104970304 0.001099658781 0.0010889984451 0.0010785136087 
0.0013875413157 0.0013719741876 0.001356694806 0.00134169423 0.0013269652672 0.0013125032137 0.0012982898442 0.0012841624412 0.0012703981648 
0.0012568552507 0.0012434825632 0.0012303201445 0.0012173898506 0.0012046940499 0.0011923339063 0.0011800931602 0.0011680465099 0.0011561948893 
0.0011445307751 0.0011330585736 0.0011217905405 0.0011107288276 0.001099866528 0.0010891910163 0.0010786892052 0.0010683527154 0.0013692624814 
0.0013539434887 0.0013388935854 0.00132410657 0.0013095869409 0.0012953450969 0.0012812194073 0.0012674842311 0.0012539843947 0.0012406594192 
0.0012275182667 0.0012145875982 0.0012018741803 0.001189486932 0.0011772637574 0.001165237122 0.0011534109401 0.0011417669814 0.0011302963822 
0.001119012418 0.0011079312071 0.0010970578304 0.0010863890464 0.0010759040807 0.0010655864399 0.0010554265622 0.0013484627874 0.0013334267849 
0.0013186387101 0.0013040983751 0.0012898300149 0.0012756928559 0.0012619785832 0.0012485331469 0.0012352787703 0.0012222201955 0.0012093334618 
0.0011966442093 0.0011842603076 0.0011720443532 0.0011600435341 0.0011482696489 0.0011366867582 0.0011252686449 0.0011140128402 0.0011029391998 
0.0010920628474 0.0010813988235 0.0010709408717 0.0010606690162 0.001050554469 0.0010405853112 0.0013264196602 0.0013116765382 0.0012971745823 
0.0012829131815 0.001268767708 0.0012550780783 0.0012416357274 0.0012284452615 0.0012154714992 0.0012026801043 0.0011900573578 0.0011776255367 
0.0011654982917 0.0011535276948 0.0011417915142 0.0011302699143 0.0011189303798 0.0011077507665 0.0010967232098 0.0010858721323 0.0010752164758 
0.0010647719422 0.0010545322972 0.0010444728665 0.001034567728 0.0010247993519 0.0013043222354 0.0012898896945 0.0012756783742 0.0012615577183 
0.0012478657195 0.0012344223053 0.001221260084 0.0012083486538 0.0011956422556 0.00118312255 0.0011707648493 0.0011586777747 0.0011467247892 
0.0011350051156 0.0011235218674 0.0011122471973 0.0011011494795 0.0010902049183 0.0010794104264 0.0010687802718 0.0010583452462 0.0010481177174 
0.0010380923664 0.0010282456517 0.0010185458751 0.0010089783718 0.0012831220861 0.0012689825378 0.0012550621217 0.0012412532755 0.0012278155679 
0.0012146474931 0.0012017479716 0.0011890954254 0.0011766511998 0.0011643879717 0.0011523723597 0.0011404453578 0.0011287533563 0.001117278527 
0.0011060315524 0.0010949905024 0.0010841224286 0.0010734040518 0.001062832671 0.0010524230918 0.0010422006899 0.0010321815392 0.0010223580105 
0.0010127096542 0.0010032067894 0.00099383118594 0.0012634203977 0.0012495859379 0.0012358004423 0.0012223843845 0.0012092165637 0.0011963072964 
0.0011836586735 0.0011712467135 0.0011590465773 0.0011471053127 0.0011352376213 0.0011235796345 0.0011121121337 0.0011008657906 0.0010898393631 
0.0010790113662 0.0010683530349 0.0010578452621 0.0010474848744 0.0010372843083 0.0010272659396 0.0010174410741 0.0010078056298 0.00099834001327 
0.0009890168613 0.0009798208935 0.0012455512974 0.0012318006504 0.0012184225507 0.0012052640337 0.0011923465173 0.0011796793848 0.0011672608551 
0.0011550724516 0.0011431750477 0.0011313559934 0.0011197423097 0.0011082973293 0.0010970528968 0.0010860175296 0.0010751930344 0.0010645607679 
0.0010540932181 0.0010437799406 0.0010336145995 0.0010236115554 0.0010137816627 0.00100413509 0.00099466834303 0.00098536483484 0.00097620337788 
0.00096717070716 0.0012293708522 0.0012160091643 0.0012028687736 0.0011899543631 0.0011772716018 0.0011648295027 0.0011526227712 0.0011406371089 
0.0011289235748 0.0011173234297 0.0011059165772 0.0010946796069 0.0010836369443 0.0010727963565 0.0010621518593 0.0010516938405 0.0010414005399 
0.0010312617372 0.001021274362 0.001011449176 0.0010017931006 0.00099231136868 0.0009829984294 0.00097384251737 0.00096482633324 0.00095594270963 
0.0012151579933 0.0012020115654 0.001189089499 0.0011763943812 0.0011639254719 0.0011516905808 0.0011396630071 0.0011279468539 0.0011163480816 
0.001104947781 0.0010937137195 0.0010826654213 0.0010718068549 0.0010611420558 0.0010506649982 0.0010403647624 0.0010302275697 0.0010202468102 
0.0010104203921 0.0010007536907 0.00099125595627 0.00098191952147 0.00097274589476 0.00096372295867 0.00095483934382 0.00094594054078 0.0012026438421 
0.0011896985645 0.0011769766783 0.0011644812439 0.0011522120632 0.0011401471041 0.0011283962009 0.0011167697415 0.0011053374763 0.0010941036973 
0.001083039783 0.0010721617247 0.0010614675149 0.001050962619 0.0010406351018 0.0010304779235 0.0010204828434 0.0010106453916 0.0010009643006 
0.00099144146479 0.00098208021071 0.0009728790677 0.00096382920132 0.00095492731255 0.0009461622571 0.00093738651034 0.0011917291689 0.0011789667332 
0.0011664296341 0.0011541172991 0.001142006874 0.0011302121999 0.0011185445118 0.001107072983 0.001095808685 0.0010847112007 0.0010738008343 
0.0010630743851 0.0010525325041 0.0010421691033 0.0010319769054 0.0010219491552 0.0010120827488 0.0010023730674 0.00099282078149 0.00098342516817 
0.00097418928 0.00096510517707 0.00095616918236 0.00094737474395 0.00093856726459 0.00093004848331 0.0011823453184 0.001169749392 0.0011573788263 
0.0011452094429 0.00113335927 0.0011216410286 0.0011101218378 0.0010987970163 0.0010876675589 0.0010767087986 0.0010659338094 0.001055342685 
0.0010449340547 0.0010346994062 0.0010246295258 0.0010147196891 0.0010049671029 0.00099537192146 0.00098593267382 0.00097665058406 0.00096752313786 
0.00095854588095 0.00094970969253 0.0009410120095 0.00093230226934 0.00092388920143 0.0011744704426 0.0011620245214 0.0011497772075 0.0011378540025 
0.0011260706956 0.0011144916288 0.0011031074769 0.0010919257367 0.0010809068056 0.0010700684708 0.0010594143772 0.0010489428718 0.0010386513702 
0.0010285324812 0.0010185730273 0.0010087672922 0.00099911568043 0.00098961928257 0.00098027789878 0.00097109357823 0.00096206493331 0.00095318254894 
0.00094443737803 0.00093568634523 0.00092721093133 0.0009188700801 0.001168095209 0.0011557812138 0.0011437670288 0.0011318949415 0.0011202380879 
0.0011087855465 0.0010975359658 0.0010864545913 0.0010755460128 0.0010648140773 0.0010542633721 0.0010438957196 0.0010337083314 0.0010236893779 
0.0010138235368 0.0010041108685 0.00099454725106 0.00098513640995 0.0009758792667 0.00096678025868 0.00095783553069 0.00094904651928 0.00094022747264 
0.00093169405036 0.00092328897751 0.00091500590718 0.0011633186649 0.0011511977752 0.0011392186017 0.0011274567663 0.0011159120644 0.0011045705285 
0.0010934277956 0.0010824479942 0.0010716327939 0.0010609903557 0.0010505234655 0.0010402435366 0.0010301456609 0.0010202127689 0.0010104345276 
0.0010008007061 0.000991310704 0.00098196782241 0.00097278116216 0.00096375177222 0.00095489027197 0.0009461597684 0.00093740850218 0.00092893692043 
0.00092058047304 0.00091236359823 0.0011602630259 0.0011481617837 0.0011362730029 0.0011246076039 0.0011131592168 0.0011019241714 0.0010908589447 
0.0010799648118 0.0010692279501 0.0010586578851 0.0010482631952 0.0010380571955 0.0010280298036 0.0010181706406 0.0010084635296 0.00099889507109 
0.00098946248843 0.00098017377281 0.00097105130896 0.00096207852301 0.00095326231041 0.00094443204944 0.00093589109204 0.00092746187601 0.00091915979849 
0.0009109858285 0.0011587985327 0.0011467775477 0.0011349639915 0.001123375836 0.0011120198023 0.0011008509742 0.001089865776 0.0010790386402 
0.0010683647283 0.0010578516821 0.0010475096411 0.0010373570243 0.0010273849295 0.0010175831769 0.0010079317538 0.00099841529738 0.000989038378 
0.0009797887122 0.00097069346897 0.00096175971293 0.00095282844772 0.00094420146558 0.00093569408504 0.00092730941867 0.00091904011009 0.00091089607305 
0.0011589281873 0.0011469726387 0.0011352207513 0.0011236937078 0.001112396826 0.0011012918661 0.0010903696678 0.0010795979229 0.0010689725476 
0.0010584985922 0.0010481958144 0.0010380779065 0.0010281465695 0.0010183867586 0.0010087768944 0.00099931032127 0.00098995195682 0.00098072697199 
0.00097165564022 0.00096275007419 0.0009538476602 0.00094524212215 0.00093677030617 0.00092841072945 0.00092016113824 0.00091203297153 0.0011603947717 
0.0011484931087 0.001136795121 0.001125327759 0.0011140641776 0.0011030049321 0.0010921271293 0.0010813994604 0.0010708105981 0.001060367584 
0.0010500931689 0.0010400008732 0.0010300941885 0.0010203697799 0.0010107853888 0.0010013279434 0.00099199342743 0.0009827877098 0.00097373197898 
0.0009646827567 0.00095594439224 0.00094736182552 0.00093890549945 0.00093055928679 0.0009223211791 0.00091419496162 0.0011626800186 0.001150831547 
0.0011391829141 0.0011277562299 0.0011165307376 0.0011055086358 0.0010946651126 0.0010839671084 0.0010734090927 0.001062994577 0.0010527411457 
0.001042677744 0.0010327850158 0.0010230629391 0.0010134937453 0.0010040523744 0.0009947345234 0.00098554438838 0.0009763410072 0.00096744973662 
0.00095872279165 0.0009501433786 0.00094169126027 0.00093334845859 0.00092510682978 0.00091699288701 0.00116500811 0.0011532160176 0.0011416319746 
0.0011302401021 0.0011190551269 0.0011080679852 0.0010972495326 0.0010865822256 0.0010760520931 0.0010656774228 0.0010554468722 0.0010453867874 
0.0010355072806 0.0010257959244 0.0010162373066 0.0010068080856 0.00099750380689 0.00098816476997 0.00097913457633 0.0009702578084 0.00096153431022 
0.00095295617448 0.00094449434814 0.00093615180691 0.00092791932305 0.00091981218592 0.0011663769541 0.0011546697422 0.0011431394162 0.0011318074618 
0.0011206733071 0.0011097280489 0.0010989472539 0.00108832742 0.0010778314371 0.0010674778511 0.0010572789404 0.001047247953 0.0010373870692 
0.0010276946616 0.0010181498785 0.0010087394475 0.00099945173544 0.0009901439187 0.0009811353939 0.00097227476551 0.00096356247853 0.00095497887383 
0.00094652704436 0.00093818534493 0.00092996435725 0.00092187000807 0.0011657312894 0.0011541016492 0.001142663153 0.0011314154429 0.0011203536161 
0.0011094854876 0.0010987596325 0.0010881778595 0.0010777336248 0.0010674336817 0.0010572837198 0.0010472943246 0.0010374712883 0.0010278116544 
0.0010182969455 0.0010089159146 0.00099951627302 0.00099041003479 0.00098144129342 0.00097260680415 0.00096392244487 0.00095536810143 0.00094692949361 
0.00093860893408 0.00093039838267 0.00092231562352 0.0011620966897 0.0011505914413 0.0011392769361 0.001128156178 0.001117196914 0.0011064092352 
0.0010957687453 0.0010852655182 0.0010749018984 0.001064675807 0.0010545983844 0.0010446782521 0.0010349217786 0.0010253202312 0.0010158573659 
0.001006382267 0.00099720700191 0.00098816831784 0.00097925857113 0.00097049252802 0.00096185991101 0.00095334513914 0.00094494891341 0.00093665234889 
0.00092847415653 0.0009204251421 0.0015526652234 0.0015351687283 0.001518010798 0.0015011757241 0.0014846475597 0.0014684073649 0.0014524422903 
0.0014367283401 0.0014211210219 0.0014059072799 0.0013909486932 0.0013762183555 0.0013617401929 0.0013475196344 0.0013335471617 0.0013199150018 
0.0013064142536 0.0012931357612 0.0012800843515 0.0012672536155 0.0012546451644 0.0012422583136 0.0012300821456 0.0012181129375 0.0012063462412 
0.0011947806223 0.001538358207 0.0015210711963 0.0015041116562 0.0014874673858 0.0014711247378 0.0014550749023 0.0014392986197 0.0014236428468 
0.0014083901089 0.0013934023751 0.0013786231635 0.0013640875905 0.0013498044824 0.0013357673551 0.0013220808096 0.0013085312102 0.0012952027252 
0.0012821018015 0.0012692180846 0.0012565497514 0.0012441011277 0.0012318705894 0.0012198538097 0.0012080411287 0.0011964279739 0.0011850078228 
0.0015213638021 0.001504323869 0.001487597818 0.0014711749575 0.0014550480107 0.0014392196918 0.0014235272863 0.0014082511024 0.0013932477827 
0.0013784663201 0.0013639120203 0.001349601405 0.0013355275365 0.0013217903703 0.0013082280169 0.0012948779738 0.0012817624903 0.0012688560234 
0.0012561602813 0.0012436761638 0.001231409484 0.0012193586489 0.0012075213609 0.0011958859084 0.0011844444753 0.0011731920209 0.0015024143681 
0.00148564665 0.0014691783597 0.0014530022328 0.0014371256389 0.0014213960121 0.0014061253843 0.0013910974736 0.0013763216774 0.0013617900883 
0.0013474769575 0.0013333966414 0.0013196422144 0.0013060615291 0.0012927040091 0.0012795874607 0.001266693621 0.0012540018478 0.0012415113484 
0.0012292292526 0.0012171586738 0.001205302113 0.0011936605223 0.001182217804 0.001170963359 0.0011598869644 0.0014823665363 0.0014658788601 
0.0014496883012 0.001433784499 0.001418025132 0.0014027327864 0.0013876964966 0.0013729304106 0.0013584168179 0.0013441343182 0.0013300712174 
0.001316236437 0.0013027254489 0.0012893754154 0.0012762635166 0.0012633809678 0.0012507122268 0.0012382432813 0.0012259705799 0.0012138992934 
0.0012020378174 0.0011903863059 0.0011789444107 0.0011676983986 0.0011566361782 0.0011457463359 0.001462050088 0.0014458605707 0.0014299526093 
0.0014141820779 0.001398866982 0.0013838124722 0.0013690453656 0.0013545449732 0.0013402851105 0.0013262609107 0.0013124490438 0.0012989472338 
0.0012855975396 0.0012724859894 0.001259612954 0.0012469629573 0.0012345217564 0.0012222783225 0.001210221748 0.0011983629808 0.0011867082031 
0.0011752629964 0.001164022007 0.0011529753861 0.00114210586 0.0011314051481 0.0014421784831 0.0014262776337 0.001410507018 0.0013951887239 
0.0013801206002 0.0013653367174 0.0013508272809 0.0013365797751 0.0013225757969 0.0013087990236 0.0012953213343 0.0012819822902 0.0012688701345 
0.0012559936759 0.0012433498916 0.0012309266221 0.0012187062771 0.0012066784651 0.0011948378972 0.0011831881432 0.0011717383737 0.0011604936071 
0.0011494483149 0.0011385929731 0.001127912276 0.0011173952984 0.0014232607187 0.0014076664153 0.0013921750319 0.0013770988383 0.001362296677 
0.001347768954 0.0013335102383 0.0013195084987 0.0013057497008 0.0012922936579 0.0012789569501 0.0012658658188 0.0012529862122 0.0012403361703 
0.0012279113025 0.0012157017203 0.001203691883 0.0011918713047 0.0011802345107 0.0011687871398 0.0011575339846 0.0011464802431 0.0011356228295 
0.0011249498788 0.0011144472464 0.0011041056873 0.0014056389707 0.0013901401931 0.0013750588659 0.0013602384922 0.0013456883109 0.0013314058016 
0.0013173852169 0.0013036164566 0.001290169429 0.0012768401076 0.0012637567314 0.0012508754334 0.0012382145077 0.0012257772732 0.0012135598806 
0.0012015539453 0.0011897414287 0.0011781155516 0.0011666722489 0.0011554182401 0.0011443511494 0.0011334784495 0.001122793612 0.0011122872421 
0.0011019497643 0.0010917730936 0.0013892577125 0.0013741627443 0.0013593258826 0.0013447537038 0.0013304422902 0.001316390285 0.0013025943835 
0.0012891261472 0.0012757915152 0.001262692322 0.0012498205269 0.0012371479808 0.0012246922696 0.0012124537507 0.0012004268 0.001188606121 
0.0011769768457 0.0011655305709 0.0011542692844 0.0011431919566 0.0011323033888 0.0011215978295 0.0011110749884 0.0011007266124 0.001090542329 
0.0010805174568 0.0013744909129 0.0013596253919 0.0013450230477 0.0013306803802 0.0013165902362 0.001302758192 0.0012891528639 0.0012758887131 
0.0012627703995 0.0012498825566 0.0012371918305 0.0012247144038 0.0012124480207 0.0012003940923 0.0011885465659 0.0011768977618 0.0011654366061 
0.0011541600939 0.0011430652148 0.0011321507165 0.0011214230877 0.0011108721685 0.0011004988141 0.0010902949979 0.0010802535978 0.0010702212656 
0.001361161951 0.0013465177564 0.0013321314175 0.0013180008549 0.0013041223325 0.0012904739872 0.0012771651155 0.0012640072826 0.0012510743475 
0.0012383671383 0.00122585926 0.0012135597037 0.0012014681836 0.0011895855649 0.0011779023224 0.0011664126699 0.0011551081669 0.0011439862645 
0.0011330427488 0.0011222817289 0.0011116987426 0.001101291346 0.0010910537851 0.0010809844921 0.0010710739055 0.0010611729713 0.0013492374087 
0.0013347990427 0.0013206145989 0.0013066822756 0.0012929796103 0.0012796185608 0.0012664094082 0.0012534260548 0.0012406787316 0.0012281272331 
0.0012157856804 0.0012036515482 0.0011917235988 0.0011799949164 0.0011684621856 0.0011571173639 0.0011459586888 0.0011349778973 0.0011241767306 
0.0011135508982 0.0011031021057 0.001092823998 0.0010827127453 0.0010727654107 0.001062824693 0.0010531914079 0.0013386886708 0.0013244373852 
0.0013104394346 0.0012966702378 0.0012832444035 0.0012699768085 0.0012569363269 0.0012441201901 0.0012315273054 0.0012191310036 0.0012069428121 
0.0011949589121 0.0011831777123 0.0011715930482 0.0011601982779 0.0011489872887 0.0011379599111 0.0011271086042 0.0011164333872 0.0011059324302 
0.0010956045933 0.0010854457801 0.0010754489429 0.0010654578383 0.0010557908706 0.0010462666941 0.0013294951774 0.0013154193899 0.0013015712102 
0.0012880655753 0.0012747258518 0.0012616179711 0.001248731162 0.0012360778929 0.0012236157404 0.0012113606056 0.0011993116027 0.0011874641983 
0.0011758151847 0.0011643631709 0.001153095895 0.0011420078898 0.0011310952867 0.0011203607685 0.001109798193 0.0010994102364 0.0010891937008 
0.0010791429233 0.001069253463 0.0010593744107 0.0010497929783 0.0010403643521 0.0013216292123 0.0013077132444 0.0012941194414 0.0012806908551 
0.0012674993321 0.0012545375405 0.0012418062553 0.0012292755136 0.0012169457291 0.0012048188525 0.0011928936217 0.0011811696126 0.0011696439336 
0.0011583082325 0.0011471510499 0.0011361721601 0.0011253682013 0.0011147363488 0.0011042757671 0.0010939903106 0.0010838721091 0.0010739282306 
0.0010639778737 0.0010543333688 0.0010448380289 0.0010354833603 0.0013151414929 0.0013014473696 0.0012879161115 0.001274624112 0.001261569138 
0.0012487387889 0.0012361361829 0.0012237289004 0.0012115177008 0.0011995050916 0.0011876877069 0.0011760725916 0.0011646568454 0.0011534251788 
0.0011423731317 0.0011314940336 0.0011207826684 0.0011102432683 0.0010998724791 0.0010896726434 0.0010796532748 0.0010697833531 0.001059914561 
0.0010503492871 0.0010409220654 0.0010316506081 0.0013100805983 0.0012964365926 0.0012830299293 0.0012698642398 0.001256930104 0.0012442306493 
0.0012317329623 0.0012194332623 0.0012073257957 0.0011954134195 0.0011836954277 0.0011721798503 0.0011608554126 0.0011497178559 0.0011387556878 
0.0011279631018 0.0011173331582 0.0011068709292 0.0010965895663 0.0010864662692 0.0010765113367 0.0010665581207 0.0010569163385 0.0010474128302 