# vtk DataFile Version 5.1
vtk output
ASCII
DATASET STRUCTURED_POINTS
DIMENSIONS 26 26 26
SPACING 0.08 0.08 0.08
ORIGIN -1 -1 0.5
POINT_DATA 17576
FIELD FieldData 1
potential 1 17576 double
0.0016676098395 0.0016931412705 0.0017192186892 0.0017459768654 0.0017731743169 0.0018009286412 0.0018292477266 0.0018580495446 0.0018874754526 
0.0019174247638 0.0019480158909 0.0019793289893 0.0020114287404 0.0020443348723 0.0020780613219 0.002112584257 0.0021478984636 0.0021839612587 
0.0022209364039 0.0022587883029 0.0022975672371 0.0023373555928 0.0023780188323 0.0024197134655 0.0024623044565 0.0025059089459 0.0016473831326 
0.0016724219089 0.0016979697017 0.0017240541585 0.0017508242176 0.0017780563225 0.0018058565397 0.0018341699227 0.0018631782013 0.0018926384292 
0.0019227127065 0.0019534794583 0.001985020374 0.0020173591078 0.0020505226188 0.0020844760937 0.0021191958684 0.0021546096774 0.0021909001282 
0.0022280472638 0.002266112091 0.0023051282481 0.0023451487995 0.002386026815 0.0024278318042 0.0024707201597 0.0016209493895 0.0016453644239 
0.0016702996564 0.0016957394535 0.0017218759498 0.0017484878935 0.0017756861208 0.0018034749797 0.0018317228727 0.0018606976149 0.0018901218586 
0.0019202094991 0.0019510589819 0.0019827297971 0.0020152132255 0.0020484733426 0.0020824526653 0.002117091379 0.0021525550166 0.0021888575236 
0.0022260649412 0.0022642243036 0.0023033233211 0.0023433157935 0.0023842490944 0.0024260149076 0.0015904112615 0.001614254309 0.0016384737842 
0.0016632261229 0.0016885407042 0.0017145938218 0.0017411523949 0.0017682747737 0.0017959296126 0.0018240095785 0.0018528333264 0.0018821658314 
0.0019122406291 0.0019431358766 0.0019748539124 0.0020073421726 0.0020405258778 0.0020743761245 0.0021088624696 0.0021442253543 0.002180461104 
0.0022176600597 0.0022557947365 0.0022948031489 0.002334629756 0.0023753294592 0.0015582500661 0.0015814605033 0.0016050641692 0.0016290756035 
0.0016536824887 0.0016790347383 0.0017048907714 0.0017313166124 0.0017582792067 0.001785689531 0.0018136212161 0.0018421901087 0.0018715301854 
0.0019016133334 0.001932517838 0.0019641859644 0.0019965262739 0.002029497514 0.0020630505264 0.0020974400759 0.0021326971879 0.0021688865415 
0.0022060016207 0.0022439585132 0.0022826934316 0.0023221834636 0.0015266180709 0.0015492175397 0.0015721878677 0.0015955892432 0.0016194724865 
0.0016439979846 0.0016692884522 0.0016950242911 0.0017212914096 0.0017480150427 0.0017751907652 0.0018030372765 0.0018314756909 0.001860820227 
0.0018909088216 0.0019217497793 0.0019532485438 0.0019853525753 0.002018079895 0.0020514514028 0.0020857272966 0.0021209045626 0.0021569928687 
0.0021939103197 0.0022315620321 0.0022699332691 0.0014970525269 0.0015190791439 0.0015414694721 0.0015642696849 0.0015875734429 0.0016114060582 
0.0016360301483 0.001661091216 0.001686680673 0.0017127367766 0.0017392330055 0.0017663091682 0.0017941166205 0.0018225800663 0.0018519445692 
0.0018819788913 0.0019126681026 0.0019439499846 0.0019758339597 0.0020083251705 0.0020416726819 0.0020758839696 0.0021109696888 0.0021468620774 
0.0021834789442 0.002220789788 0.0014703861515 0.0014918861531 0.0015137510051 0.0015360173548 0.0015587607431 0.0015820536092 0.0016059294886 
0.0016304535753 0.0016553962481 0.0016808269754 0.0017067300158 0.0017331373524 0.0017602112672 0.0017880699171 0.0018165882643 0.001845852833 
0.0018758432152 0.001906356571 0.001937465818 0.0019692243956 0.0020016517851 0.0020349644041 0.0020691000769 0.0021040221147 0.0021396687306 
0.0021760102402 0.0014468647565 0.0014678831941 0.00148927651 0.0015110670206 0.001533316932 0.0015560784072 0.0015793970693 0.0016033879287 
0.0016276980436 0.0016525494138 0.0016778874408 0.0017037216555 0.0017301939848 0.0017574090918 0.0017852756068 0.0018138361512 0.0018430064384 
0.0018728795898 0.0019032806604 0.0019343116616 0.0019659643062 0.001998456096 0.002031719649 0.0020657429194 0.0021004802771 0.0021359142698 
0.0014263470874 0.0014469353696 0.001467903656 0.0014892716684 0.0015110783859 0.0015333711728 0.0015561890989 0.0015795261587 0.001603483821 
0.001627766501 0.0016525839911 0.0016779216486 0.0017038119905 0.0017303736335 0.0017576856589 0.0017855989133 0.001814147251 0.0018432681088 
0.001873010296 0.0019034374315 0.0019344674832 0.0019661359713 0.0019986133201 0.0020318189136 0.0020657271835 0.0021003271647 0.0014085467959 
0.001428748157 0.0014493311009 0.0014703095285 0.0014917153144 0.0015135930014 0.0015359640839 0.0015588364206 0.0015823352839 0.0016061659133 
0.0016305017814 0.0016553114606 0.0016807276713 0.0017067279556 0.0017333983997 0.0017607925214 0.0017887332573 0.0018172786996 0.0018463853152 
0.0018761296298 0.0019065772771 0.0019375667017 0.0019693338138 0.0020018000626 0.0020349509201 0.0020687879548 0.0013931441674 0.0014129982043 
0.0014332324374 0.001453857663 0.0014749038455 0.0014964038206 0.0015183736296 0.0015408318632 0.0015637688299 0.0015872956973 0.0016111916391 
0.0016355937899 0.0016605006187 0.0016860112257 0.0017121628233 0.0017389355778 0.0017663963012 0.0017943756498 0.0018229432623 0.0018520788291 
0.0018818672537 0.001912313499 0.0019434233531 0.0019752213727 0.0020076874253 0.0020408290323 0.0013798737764 0.0013994329732 0.0014193525361 
0.0014396579234 0.001460377667 0.0014815380665 0.0015031554455 0.001525239485 0.0015477867565 0.0015707744839 0.0015944070062 0.0016183934 
0.0016429148751 0.001667960531 0.0016936087698 0.0017198824634 0.0017468225489 0.0017742703714 0.0018022999701 0.0018309218687 0.0018601621956 
0.0018900167562 0.0019204763101 0.0019517245837 0.0019835625033 0.00201605211 0.0013686486312 0.0013878920858 0.0014075430852 0.0014275585653 
0.0014479843507 0.0014688421375 0.0014901448781 0.0015118935262 0.001534090258 0.0015567205991 0.001579972357 0.0016035768031 0.0016277065088 
0.0016523838372 0.0016776015134 0.0017033697233 0.0017297500648 0.0017567751453 0.0017842995636 0.0018124137309 0.0018411460276 0.0018705098736 
0.0019004816798 0.0019310339542 0.0019622944971 0.0019942426936 0.0013594292332 0.0013783915432 0.0013977433675 0.0014175018262 0.0014376896233 
0.0014582847821 0.0014793087603 0.001500759946 0.0015226375871 0.0015449484095 0.0015676963714 0.0015910975956 0.0016148742207 0.0016391863861 
0.0016640390962 0.0016893989288 0.0017152889992 0.0017417665455 0.0017688989722 0.0017965432226 0.0018248107877 0.0018537013031 0.001883206902 
0.0019132430459 0.0019439396177 0.0019752731838 0.0013522413897 0.0013708384564 0.0013900874911 0.0014096039896 0.0014295525015 0.0014499234011 
0.0014707282887 0.0014919163881 0.0015135056937 0.0015355131098 0.0015579520586 0.0015810396498 0.0016045057434 0.0016284962187 0.0016530004205 
0.001678011557 0.0017034976893 0.0017295447738 0.0017561141432 0.0017834120336 0.0018112570838 0.0018397264864 0.0018687908863 0.0018984292841 
0.0019285660423 0.0019593615487 0.0013472574872 0.0013658299623 0.0013845857101 0.0014040186966 0.0014237834154 0.0014439742217 0.0014645660928 
0.001485550008 0.0015068864691 0.001528618889 0.0015507775876 0.0015734463236 0.0015967949796 0.0016205132462 0.0016447196068 0.0016693946821 
0.0016945110791 0.0017201624376 0.001746375172 0.0017732512602 0.0018007242902 0.0018288155137 0.0018574842167 0.0018866950489 0.0019163748404 
0.0019467152375 0.0013447417722 0.0013631431395 0.0013819051923 0.0014009159548 0.0014206229934 0.0014406742645 0.001461115337 0.0014818993663 
0.0015030211629 0.0015245315605 0.0015464713331 0.0015688973492 0.0015918746206 0.0016155172118 0.0016394822027 0.0016638722096 0.0016886936603 
0.0017139673736 0.001739831526 0.0017663266885 0.0017935675176 0.001821298618 0.0018496274685 0.001878460673 0.0019078051126 0.0019376507427 
0.0013449157812 0.001363194473 0.0013818258686 0.0014007208323 0.0014202422948 0.0014402900989 0.0014606077222 0.0014812533234 0.0015022066349 
0.0015235108753 0.0015452513982 0.0015675128567 0.0015903168699 0.0016137886715 0.0016375576377 0.0016617197987 0.0016862743143 0.0017112820569 
0.0017368243287 0.0017630435442 0.001789929486 0.0018175239141 0.0018455636196 0.0018740419653 0.0019030383369 0.0019326010096 0.0013478796884 
0.0013660792611 0.0013846334613 0.0014036234313 0.0014229112219 0.001442808357 0.0014631634299 0.0014837049545 0.0015045378074 0.0015256977764 
0.001547294972 0.0015693993358 0.0015920783863 0.0016152824206 0.0016390602837 0.001663046798 0.0016873971436 0.0017121798649 0.0017374903113 
0.001763490385 0.0017901640586 0.0018174527393 0.0018453505693 0.0018736053844 0.0019022870556 0.0019315550397 0.0013534229661 0.0013715947712 
0.0013901187528 0.0014090786444 0.001428511055 0.0014482003533 0.0014684201051 0.0014890140429 0.0015097775723 0.0015308450111 0.0015523550073 
0.0015743847055 0.0015969522759 0.0016200409636 0.001643719468 0.0016675847257 0.0016917926798 0.0017164196329 0.0017416004161 0.0017674011391 
0.0017939050602 0.0018210164651 0.0018486324473 0.0018767785791 0.0019052804489 0.0019343299091 0.0013608266827 0.0013790203804 0.0013975629537 
0.0014165277359 0.0014359524103 0.0014558035166 0.0014758237879 0.0014962940486 0.0015171189219 0.0015381664382 0.0015596304905 0.0015815939952 
0.0016040858299 0.0016271004136 0.0016505233199 0.0016744509763 0.0016985856464 0.0017231210518 0.001748194867 0.0017739005748 0.0018002279357 
0.0018271830886 0.001854634644 0.0018825179812 0.0019109535753 0.0019398465365 0.0013690225041 0.001387044449 0.0014056295232 0.0014246239133 
0.0014440539048 0.0014638853674 0.001483879987 0.0015043281451 0.0015250499467 0.0015461762845 0.0015676194515 0.001589551083 0.0016119762201 
0.0016348947364 0.0016582389655 0.0016819307385 0.001706142398 0.0017306196381 0.0017556335948 0.0017812350585 0.0018074547734 0.0018342236953 
0.0018615116179 0.0018892424019 0.0019175353856 0.0019463004617 0.0013757625818 0.0013940553585 0.0014124555693 0.0014314708668 0.0014508894107 
0.001470688485 0.0014908148865 0.0015110451161 0.0015317335781 0.0015527482356 0.0015741516741 0.0015961238367 0.0016184829163 0.001641287248 
0.0016645182099 0.0016881096184 0.0017122468834 0.0017366589373 0.0017615763876 0.0017870610341 0.0018131391735 0.0018397132098 0.0018668070241 
0.0018943530374 0.0019223919938 0.0019511030187 0.0013792248698 0.00139752772 0.0014159361285 0.0014349364254 0.0014543053515 0.0014740273425 
0.0014940616591 0.0015143864647 0.0015348149191 0.0015557582545 0.0015770867486 0.0015988463843 0.0016211648849 0.0016438130174 0.0016668863842 
0.0016903475888 0.0017141893336 0.0017386457838 0.0017634344651 0.0017887553557 0.0018146133911 0.0018409702318 0.0018677802987 0.0018950732241 
0.0019228695856 0.0019512618148 0.0013775757668 0.0013958269859 0.0014144120717 0.0014331011362 0.0014523600944 0.0014719417618 0.0014918184275 
0.0015119773475 0.0015324336863 0.0015530322338 0.0015741978226 0.0015957822186 0.0016177899924 0.0016403196296 0.0016631391188 0.0016863716679 
0.0017100165992 0.0017341103373 0.0017588422738 0.0017839225574 0.0018094938428 0.0018355211701 0.001861993497 0.0018888878708 0.0019163406472 
0.0019443799345 0.0018656740441 0.0018941039397 0.0019231407775 0.001952922686 0.0019832038434 0.0020141127038 0.0020456744814 0.0020778193212 
0.0021107008504 0.0021442095181 0.0021784486456 0.0022134758286 0.0022493415067 0.002286071785 0.002323691294 0.002362202935 0.0024016129085 
0.0024418853015 0.0024831771804 0.0025254473032 0.0025687394606 0.0026131488427 0.0026585590934 0.0027051429244 0.0027527743692 0.0028015672601 
0.0018466985171 0.0018746596923 0.0019032074566 0.0019323574052 0.0019622520716 0.0019926568974 0.0020236962976 0.002055339462 0.0020877237093 
0.0021207985776 0.0021545207113 0.0021890087651 0.0022243215146 0.0022604776883 0.002297517105 0.002335436792 0.0023742340977 0.0024138526487 
0.0024544661901 0.0024960368684 0.0025386093653 0.0025822199086 0.002626948511 0.0026726760003 0.0027194911121 0.0027675505013 0.0018232074883 
0.0018505894154 0.0018785832667 0.0019071582517 0.0019364771495 0.0019663080801 0.0019967731575 0.002027904848 0.0020596021912 0.0020921553934 
0.0021252668284 0.0021591244738 0.0021937860159 0.0022292995266 0.0022656733204 0.0023029066111 0.0023409803675 0.0023798564763 0.0024196879482 
0.0024604535767 0.0025022066127 0.0025449712475 0.0025887812298 0.0026336197643 0.0026795763422 0.0027265488654 0.001796505057 0.0018233668171 
0.0018507170694 0.001878678965 0.0019072473136 0.0019365768002 0.0019664425998 0.0019969356426 0.0020280741165 0.002059772023 0.002092344502 
0.0021255073902 0.002159456286 0.0021942423938 0.0022298822489 0.0022663645269 0.0023036789513 0.0023418139116 0.0023807255707 0.0024206211722 
0.0024614609209 0.0025033086544 0.0025461766103 0.0025900568153 0.0026349398638 0.0026808999786 0.0017682316585 0.0017945065848 0.0018212966593 
0.001848584564 0.0018765145921 0.0019052080237 0.0019344169007 0.0019642508545 0.0019947286301 0.0020257927472 0.0020575260156 0.0020899897927 
0.0021232668299 0.0021572949079 0.0021921623655 0.002227859389 0.0022643547285 0.0023016524282 0.0023396899478 0.0023786765938 0.0024185942099 
0.0024594854074 0.0025013695396 0.0025442272418 0.002588052102 0.0026328573183 0.0017398695594 0.0017655667878 0.0017917588494 0.0018184835281 
0.001845740041 0.0018736557588 0.0019023436737 0.0019315202561 0.0019613302835 0.0019917420569 0.0020227456304 0.0020545289137 0.0020869497951 
0.0021202838154 0.0021543726684 0.0021892710713 0.0022249511849 0.0022614032339 0.0022986445155 0.0023366501269 0.0023756362202 0.0024155650834 
0.0024564542467 0.0024982967024 0.0025410641976 0.0025847739745 0.0017125861124 0.0017377264178 0.0017633512459 0.0017894909501 0.001816190495 
0.0018434436101 0.001871496249 0.0019000290992 0.0019291811848 0.0019589308219 0.0019892620922 0.0020202819312 0.0020520939471 0.0020845726337 
0.002117963702 0.0021520775409 0.0021869572011 0.0022225881631 0.0022589868776 0.0022961189594 0.0023341937655 0.0023731773349 0.0024130894371 
0.0024539281851 0.0024956683137 0.0025383197043 0.0016871283784 0.0017117450203 0.0017368387438 0.0017624322013 0.0017885687003 0.0018152882306 
0.0018426128182 0.0018706253985 0.0018991371693 0.0019282563139 0.0019579759705 0.0019883092704 0.0020193730453 0.0020512517269 0.002083805701 
0.002117162364 0.0021513383902 0.0021861821446 0.0022217749869 0.0022581494535 0.0022952865617 0.0023333719106 0.0023723495625 0.0024122177131 
0.0024529728806 0.0024946130691 0.0016638730682 0.0016879996294 0.0017126003154 0.0017376897261 0.0017633094913 0.0017894828928 0.0018162493279 
0.0018437324345 0.0018716100385 0.0019001285251 0.0019292506411 0.0019589698502 0.0019893971461 0.0020206114277 0.0020525091749 0.0020851529176 
0.0021184957558 0.0021526646787 0.0021875016916 0.0022230988006 0.002259423058 0.0022966570702 0.0023347502917 0.0023737056092 0.002413520809 
0.0024542027598 0.0016428989383 0.0016665777691 0.0016907246035 0.0017153546056 0.0017404933811 0.001766172469 0.0017924183018 0.0018192358965 
0.0018467435326 0.0018746659147 0.0019032216734 0.0019323969569 0.0019621990007 0.0019927239899 0.0020240413234 0.0020560148166 0.0020887075608 
0.0021220808143 0.0021562031395 0.0021911341323 0.0022267743395 0.0022631429348 0.002300412702 0.0023385157942 0.0023774532427 0.0024172382672 
0.0016241486385 0.0016474147617 0.0016711408292 0.0016953405926 0.0017200379424 0.0017452632373 0.0017710337014 0.0017973591156 0.0018242401963 
0.0018518141512 0.0018798464243 0.0019084410055 0.0019377157874 0.0019676334574 0.0019982737532 0.0020296929877 0.0020617403109 0.0020944898737 
0.0021279154385 0.0021620934191 0.0021970860869 0.0022327156782 0.0022692184645 0.0023065269865 0.0023446474925 0.0023835965042 0.0016074796777 
0.0016303686909 0.0016537075177 0.0016775134573 0.0017018085806 0.0017266147566 0.0017519481794 0.0017778221247 0.0018042407378 0.0018313308689 
0.0018588753992 0.0018870100521 0.0019157231137 0.0019451026254 0.001975178229 0.0020059361588 0.0020374561943 0.0020695880146 0.0021024142776 
0.0021359464895 0.0021701810911 0.0022051985239 0.0022409732781 0.0022775484661 0.0023149071055 0.0023530815009 0.0015927484612 0.0016153080226 
0.0016382952594 0.0016617395515 0.0016856624106 0.0017100840341 0.0017350186821 0.001760477137 0.0017864659794 0.0018129714589 0.0018402042004 
0.0018678707192 0.0018961453842 0.0019250496157 0.0019545307389 0.0019847384678 0.0020156920635 0.0020472426714 0.0020794743566 0.0021123981266 
0.0021460382409 0.002180389099 0.002215440547 0.002251382704 0.0022880388845 0.0023254805369 0.0015799275042 0.0016021346745 0.0016248161736 
0.0016479270251 0.0016715099683 0.0016955807929 0.0017201512755 0.0017452285738 0.0017708222958 0.0017969253677 0.0018237289445 0.0018509610336 
0.0018787849927 0.0019072237135 0.0019362594819 0.0019659181082 0.0019962652522 0.002027343198 0.0020590135946 0.0020913673074 0.0021244253952 
0.0021582039701 0.0021926882235 0.0022278567442 0.002263855634 0.0023006714332 0.0015689849102 0.0015908759432 0.0016132223813 0.0016360312212 
0.001659325541 0.0016830792794 0.0017073201365 0.0017320502466 0.0017572789367 0.0017830198209 0.0018092721014 0.0018362456507 0.0018636576594 
0.0018916674051 0.0019202826963 0.0019494777608 0.0019792880735 0.0020097736109 0.0020409984917 0.0020728168001 0.0021053372709 0.0021385614963 
0.0021724966009 0.0022070698698 0.0022424250924 0.002278547884 0.0015599028287 0.0015813958459 0.0016036012351 0.0016261261522 0.0016491237863 
0.0016725946329 0.0016965565218 0.0017209730818 0.0017458692117 0.001771263391 0.0017971592372 0.0018237644701 0.0018508003386 0.0018784165963 
0.0019066177737 0.0019354092019 0.0019647704244 0.001994779602 0.0020253919665 0.002056798701 0.0020888156254 0.0021215309244 0.0021549382293 
0.0021890344439 0.0022237571476 0.002259263461 0.0015527589943 0.0015741939351 0.0015958854714 0.0016182634144 0.0016410196037 0.001664241505 
0.0016879239951 0.0017120791884 0.001736676147 0.0017617516367 0.0017873210654 0.0018134480099 0.0018402933227 0.0018675597373 0.001895390774 
0.0019237862245 0.0019527271098 0.0019822951403 0.0020124973518 0.0020433264277 0.002074972842 0.0021072167779 0.002140136826 0.002173727179 
0.0022079159991 0.0022428922687 0.0015476691039 0.0015688984203 0.0015905404099 0.0016124589554 0.0016350905035 0.0016580971952 0.0016815540951 
0.0017054460873 0.0017297775879 0.0017545871438 0.0017798862345 0.001805704637 0.0018320981758 0.0018592031791 0.001886706508 0.0019147472262 
0.0019433369909 0.0019724769544 0.0020022721534 0.0020327318684 0.0020639622927 0.0020957441181 0.0021282229176 0.0021613460872 0.0021951267118 
0.0022295309418 0.0015446655133 0.0015657252836 0.0015871897706 0.0016089328155 0.0016313042944 0.0016542235905 0.0016774745278 0.0017011555699 
0.0017252582649 0.0017498090623 0.0017748485496 0.0018004270076 0.0018265581381 0.0018533923574 0.0018806082983 0.0019083388351 0.0019365946233 
0.0019654098269 0.00199480979 0.0020249044862 0.0020556760189 0.0020872054254 0.0021192891927 0.0021519579666 0.0021853045051 0.002219335605 
0.0015436596404 0.0015645827928 0.0015859049914 0.0016076725912 0.0016297272427 0.0016524049767 0.0016756035981 0.0016990947125 0.0017230029321 
0.0017473391729 0.00177216424 0.001797497532 0.0018234065704 0.0018498668819 0.0018769858928 0.0019044475432 0.0019324119474 0.0019609189318 
0.0019899990395 0.0020197713868 0.0020502158918 0.0020813169843 0.0021131351778 0.0021454703094 0.0021783912355 0.0022120213267 0.0015443349239 
0.001565150014 0.001586362868 0.0016080143228 0.0016301200345 0.0016524962318 0.0016754606727 0.0016989096562 0.0017226558984 0.0017468085853 
0.0017714505409 0.0017966129694 0.0018223030314 0.001848537057 0.0018752898265 0.0019026691173 0.0019303859718 0.0019586279399 0.0019874657558 
0.0020169215202 0.0020470700928 0.0020778641151 0.002109270054 0.0021413616064 0.0021739761319 0.0022072533629 0.0015460401321 0.0015667751759 
0.0015879040224 0.0016094594141 0.0016314592354 0.0016538984035 0.0016765633243 0.0016997842142 0.0017234822177 0.0017475013512 0.0017719837328 
0.0017969657581 0.0018224691059 0.0018485142201 0.0018750484243 0.0019022138795 0.001929723225 0.0019577383573 0.0019863336466 0.0020155589048 
0.0020453997257 0.0020759048015 0.0021070084488 0.0021386949228 0.0021710853109 0.0022040426903 0.0015480181236 0.0015684648184 0.0015895170497 
0.0016109884526 0.0016328922964 0.0016552131838 0.0016777521564 0.0017008440225 0.0017243147838 0.0017481856783 0.001772617042 0.0017974450366 
0.0018227877176 0.0018486044271 0.0018749417511 0.0019017404691 0.0019291814113 0.0019569829916 0.0019853645617 0.0020143397876 0.002043939191 
0.0020741277527 0.0021049299773 0.0021363111316 0.0021682970324 0.0022010402314 0.0015485821379 0.0015691755024 0.0015899203638 0.0016112957064 
0.0016330857326 0.0016552784879 0.0016778551862 0.0017006233529 0.001723942556 0.001747668296 0.0017718282138 0.0017965738966 0.0018217172365 
0.0018473361101 0.0018734496367 0.0019000189582 0.0019272385557 0.0019548149939 0.0019829422705 0.002011656695 0.0020409823981 0.002070851577 
0.0021013315145 0.0021323837011 0.0021640422597 0.0021964553229 0.0015466043799 0.0015670911909 0.0015877280479 0.0016089808274 0.0016306261303 
0.0016526579142 0.001675060559 0.0016978273673 0.001720778925 0.0017443162004 0.0017682839145 0.0017927052152 0.001817708106 0.0018430773288 
0.0018689330599 0.0018952581993 0.0019220616596 0.0019495256882 0.0019773787668 0.0020057945746 0.0020347824592 0.0020643273774 0.0020944131587 
0.0021250859571 0.0021563596212 0.0021882949302 0.0015409059192 0.0015612452276 0.0015819583744 0.0016028091029 0.0016242646858 0.0016460857782 
0.0016682639999 0.0016907941478 0.0017136948644 0.0017367960684 0.0017605080996 0.001784664942 0.0018092806015 0.0018344560564 0.0018599813781 
0.0018859900491 0.0019124793717 0.0019394751775 0.001967159701 0.0019952141327 0.0020238196231 0.0020529475932 0.0020826148302 0.0021127982334 
0.0021436152233 0.0021750952128 0.0020687144451 0.0021001154941 0.0021321915716 0.0021650731056 0.0021985271615 0.0022326809393 0.0022675733538 
0.0023031441641 0.0023395505677 0.0023766775721 0.0024146173579 0.0024534306137 0.0024931436102 0.0025337954517 0.0025754118835 0.0026180143116 
0.0026616159443 0.0027061865944 0.0027518827945 0.0027986628244 0.00284657235 0.0028957123694 0.0029459782188 0.002997550901 0.0030503083899 
0.0031043696672 0.0020500794335 0.0020810191747 0.002112614977 0.0021448789078 0.0021779533214 0.0022116035703 0.0022459636558 0.0022810098295 
0.0023168925232 0.0023535642233 0.0023909704969 0.0024292246051 0.0024683669294 0.0025084199484 0.0025494317518 0.0025914081091 0.0026343631938 
0.0026782561879 0.002723249663 0.0027693072345 0.0028164642147 0.0028647656879 0.0029143029338 0.0029649694354 0.0030168667182 0.0030701525297 
0.0020281083308 0.0020584897896 0.0020895579737 0.002121277141 0.0021537994277 0.0021868931802 0.0022206851319 0.0022552203172 0.0022904126308 
0.0023265660213 0.0023633686624 0.0024010004119 0.0024394970193 0.0024789049917 0.0025192449562 0.0025605245242 0.0026027664369 0.0026459680511 
0.0026901156756 0.0027353692202 0.0027817060235 0.0028291518877 0.002877749373 0.0029275075895 0.0029785306384 0.003030720925 0.0020036227796 
0.0020335098107 0.0020639668265 0.0020951093315 0.0021269177437 0.0021595379162 0.0021927487966 0.002226658415 0.0022613031941 0.0022966573789 
0.0023328994406 0.0023698572389 0.0024076636245 0.0024463606205 0.0024859741701 0.0025265090008 0.0025679862218 0.0026104008077 0.0026537153412 
0.002698117539 0.0027435606301 0.0027900900689 0.0028377481804 0.0028865449679 0.0029364962324 0.0029876820236 0.0019777347535 0.0020070616214 
0.002036989554 0.0020674920832 0.0020986972822 0.0021307092259 0.0021632872149 0.002196556744 0.0022305590924 0.0022652516946 0.0023007208979 
0.0023370016846 0.0023741628877 0.0024121216055 0.0024509766442 0.0024907380259 0.0025314070073 0.0025729975283 0.0026154571281 0.0026589727925 
0.0027035112634 0.0027491014886 0.0027957824603 0.002843571677 0.0028924657457 0.0029425071696 0.0019514842675 0.0019802514404 0.0020096034798 
0.0020395681506 0.0020701210097 0.0021013828634 0.0021334607648 0.0021660895804 0.0021994376102 0.0022334891821 0.0022682406302 0.0023038576597 
0.0023401797416 0.0023774631498 0.0024155520266 0.0024545269637 0.0024943857146 0.0025351442954 0.0025768090623 0.0026193570625 0.0026629732477 
0.0027076128748 0.0027533053004 0.0028000773756 0.002847923077 0.0028968747159 0.0019257470972 0.0019539667195 0.001982758843 0.0020121476034 
0.0020421565726 0.0020728161644 0.0021042300488 0.0021362209021 0.002168919234 0.0022023114344 0.0022363904461 0.0022712459189 0.0023069635698 
0.0023433953657 0.0023807932303 0.002418987373 0.0024580427262 0.0024979715829 0.0025387895225 0.0025804569396 0.0026231617419 0.0026668587824 
0.0027115780002 0.0027573356129 0.0028041496825 0.0028520316615 0.0019011536471 0.0019288494204 0.0019571061724 0.0019859418568 0.0020153856215 
0.0020454627356 0.0020761941354 0.0021076734289 0.0021397262973 0.0021724797238 0.0022059322399 0.0022400879547 0.0022750445015 0.0023108716185 
0.0023474272742 0.0023848556324 0.0024231964306 0.0024623204024 0.0025023072149 0.0025431952037 0.0025849405772 0.0026277266364 0.002671501593 
0.0027162741909 0.002762074422 0.0028089136251 0.0018780978243 0.0019052949933 0.0019330429478 0.0019613562449 0.0019902655602 0.0020197872732 
0.0020499489471 0.0020808915816 0.0021122980639 0.0021444322417 0.0021772623951 0.0022107757689 0.0022450658681 0.0022802113901 0.0023160906193 
0.0023527908728 0.0023902761709 0.0024286928877 0.0024678893384 0.0025079603915 0.0025488583285 0.0025907647191 0.0026336220841 0.002677457864 
0.0027222808579 0.0027681184788 0.0018567622123 0.0018834941478 0.0019107635302 0.0019385896102 0.0019669930929 0.001995992617 0.0020256150825 
0.0020558725509 0.002086886875 0.0021184000678 0.0021506305164 0.0021835616173 0.0022171944229 0.0022516140234 0.0022868889545 0.0023228865237 
0.002359687964 0.0023972667807 0.0024357063223 0.0024750603762 0.0025152296905 0.0025562240078 0.0025982175246 0.0026411543763 0.0026850483691 
0.0027299342998 0.0018372115843 0.0018635038488 0.0018903261142 0.0019176917494 0.0019456174106 0.0019741322423 0.0020032467436 0.0020329856305 
0.0020633459164 0.0020944743172 0.0021261412554 0.0021584504676 0.0021915118876 0.0022252845382 0.002259843138 0.002295250724 0.0023313676991 
0.0023682767418 0.0024059674937 0.0024445128181 0.0024839757282 0.0025241750825 0.0025653458879 0.002607434854 0.0026504548724 0.0026944341177 
0.0018194188655 0.0018453037031 0.0018717054588 0.0018986398423 0.0019261257727 0.0019541852612 0.001982831122 0.0020120781281 0.0020419390973 
0.0020725429627 0.002103681026 0.0021354830069 0.0021679376232 0.002201124825 0.0022350767741 0.0022697802182 0.0023053211725 0.0023415645831 
0.0023785973551 0.0024164401536 0.0024550854673 0.0024946045562 0.0025349852335 0.0025762746214 0.0026184642235 0.0026615925199 0.0018033218729 
0.0018288459001 0.001854856868 0.0018813920119 0.0019084656334 0.0019361000278 0.0019643036233 0.0019930940354 0.0020224828482 0.0020524629698 
0.0020832394392 0.0021145263891 0.0021464919652 0.0021791530112 0.0022124613429 0.0022465678092 0.0022814966157 0.002317103268 0.0023534872702 
0.0023906580658 0.0024286385246 0.0024674264356 0.002507010569 0.0025476005339 0.0025890082232 0.0026313260741 0.0017889416674 0.0018140755308 
0.0018397232621 0.0018659030593 0.0018925931579 0.0019198302033 0.0019476254544 0.0019759931066 0.0020049397132 0.0020344676562 0.0020647708682 
0.0020955720573 0.0021270331418 0.0021591764145 0.0021920145816 0.0022254884601 0.0022597596292 0.002294844751 0.0023306082847 0.0023671447127 
0.0024044731148 0.0024426181439 0.0024815623657 0.0025212938145 0.0025619714264 0.0026035861099 0.0017762503884 0.0018010315277 0.001826326766 
0.0018521386236 0.0018784930325 0.0019053636907 0.0019327789427 0.0019607488239 0.0019892832743 0.0020184049014 0.0020481059692 0.0020785955424 
0.0021095852336 0.002141241869 0.0021735756844 0.0022065665175 0.0022402411051 0.0022746812412 0.0023099396659 0.0023458762523 0.002382596107 
0.0024201071521 0.0024584285216 0.0024974871427 0.002537436695 0.0025782737248 0.00176520191 0.0017895472954 0.0018146574999 0.0018401407473 
0.001866148019 0.001892682257 0.0019197643076 0.001947369175 0.0019755232819 0.0020042472937 0.0020335398016 0.0020636046222 0.0020941603576 
0.002125359739 0.0021572147545 0.0021897383875 0.0022229139198 0.0022568191612 0.0022914069 0.0023268655057 0.0023630067913 0.0023999263714 
0.0024376361863 0.0024761340027 0.002515375105 0.0025555116271 0.0017558137739 0.0017800576952 0.0018046088236 0.0018299096086 0.0018556064227 
0.001881831809 0.0019085760255 0.0019358635534 0.0019636657572 0.0019920199224 0.0020209317428 0.0020504574765 0.0020807574911 0.0021115360295 
0.0021429524314 0.0021750168269 0.0022077114678 0.0022411196926 0.0022752353964 0.0023100783203 0.0023457291814 0.002382094533 0.0024192266327 
0.0024571369362 0.0024958365299 0.0025352789659 0.0017481062892 0.0017720967814 0.0017965521793 0.0018213271102 0.0018468506831 0.0018727944437 
0.0018992472607 0.0019262109043 0.0019536894348 0.0019817235404 0.0020103020639 0.002039454451 0.0020692276767 0.0020997699999 0.0021307821267 
0.0021624218032 0.0021947008212 0.0022276129907 0.0022612520482 0.0022956101742 0.0023307963463 0.0023666052266 0.002403204557 0.0024405600408 
0.0024786843007 0.0025175396078 0.0017420076519 0.001765776488 0.0017900009654 0.0018147069603 0.0018397349161 0.0018655190588 0.0018916944754 
0.001918377596 0.0019455621383 0.0019732713532 0.0020015283789 0.0020303653589 0.0020597971448 0.0020899860668 0.0021206267308 0.0021518750714 
0.0021837455185 0.0022162608321 0.0022494250957 0.0022833294567 0.0023179662787 0.0023534194117 0.0023895231603 0.0024263235524 0.002463917938 
0.0025022979746 0.0017373492095 0.0017609188079 0.0017849357856 0.0018094283615 0.0018342346572 0.0018596999978 0.0018857446217 0.0019121740651 