# vtk DataFile Version 5.1
vtk output
ASCII
DATASET STRUCTURED_POINTS
DIMENSIONS 26 26 26
SPACING 0.08 0.08 0.08
ORIGIN -1 -1 0.5
POINT_DATA 17576
FIELD FieldData 1
potential 1 17576 double
0.0014422789278 0.0014245255787 0.0014070998225 0.0013900294641 0.0013732346066 0.0013567434737 0.0013405323365 0.0013245779189 0.0013088598714 
0.0012933898369 0.0012781870476 0.0012632104195 0.0012486662889 0.0012344819316 0.0012206480905 0.0012071908848 0.0011939319507 0.0011808954884 
0.0011680530037 0.0011553850664 0.001142882688 0.0011305290235 0.0011183036226 0.0011061863006 0.0010941634355 0.0010822411666 0.0014482642201 
0.0014301843796 0.0014124650457 0.0013950968225 0.0013780122115 0.0013612631411 0.0013448389311 0.0013287061409 0.0013128382391 0.0012972190314 
0.0012818654084 0.001266811183 0.0012520301395 0.0012377057405 0.0012237517361 0.0012101269183 0.001196776244 0.0011837106415 0.0011707731428 
0.0011580167469 0.0011454305951 0.0011330087999 0.0011207268698 0.0011085581459 0.0010964784329 0.0010844848073 0.0014490057532 0.0014307340723 
0.0014127894072 0.0013950926049 0.0013778300871 0.0013608885239 0.0013443093896 0.0013280593463 0.0013120892463 0.0012963661299 0.0012808996298 
0.0012657308134 0.0012509207325 0.0012364322108 0.0012224151241 0.0012087476204 0.001195366447 0.0011822056285 0.0011692874175 0.0011564878625 
0.0011438697525 0.0011314336437 0.0011191484509 0.0011069754766 0.0010948808578 0.0010828548968 0.001446366557 0.0014279724341 0.0014098024632 
0.0013919707397 0.0013744848361 0.0013573906633 0.0013406991228 0.00132436427 0.0013083223573 0.001292523172 0.0012769699959 0.0012617173007 
0.001246828628 0.0012323624691 0.0012183141943 0.0012045745467 0.0011911934387 0.0011780315468 0.001165047266 0.0011522984354 0.0011396789397 
0.0011272527831 0.0011149912244 0.0011028429143 0.0010907655014 0.0010787295176 0.0014424820825 0.001423944892 0.0014056656803 0.0013876256841 
0.0013699909871 0.0013527710966 0.0013359741541 0.001319559928 0.0013034465883 0.0012875827169 0.0012719550326 0.001256627142 0.0012416816121 
0.0012271743395 0.0012131081512 0.0011994323583 0.0011859954186 0.0011728440953 0.0011598644693 0.0011470651028 0.0011344604662 0.0011221064858 
0.0011098710674 0.001097749272 0.0010856835081 0.0010736502918 0.0014391887951 0.0014205542553 0.0014021195205 0.0013839785006 0.001366147867 
0.0013487934809 0.0013319340119 0.0013154190308 0.0012991697392 0.0012832246705 0.0012675252231 0.001252124273 0.001237114023 0.0012225628062 
0.0012084684291 0.0011947752666 0.0011813914049 0.0011681754747 0.0011551998453 0.0011423990604 0.0011297961721 0.0011173954731 0.0011052160552 
0.0010930982721 0.0010810316464 0.0010689942078 0.0014379366146 0.0014190760769 0.0014004762388 0.0013821772831 0.001364296425 0.0013467379445 
0.0013296823522 0.0013130858653 0.0012967604903 0.0012807040038 0.0012648637718 0.0012493891928 0.0012343041608 0.0012196846209 0.0012055337246 
0.0011917932944 0.0011783720998 0.001165184767 0.0011521324435 0.0011393150891 0.0011266902849 0.0011142642559 0.0011020071093 0.0010899052513 
0.0010778105177 0.0010657485309 0.001439429876 0.0014203498594 0.0014015583175 0.0013830792817 0.0013649770936 0.0013472434632 0.0013300580976 
0.0013132265203 0.0012967915103 0.001280592282 0.0012646792347 0.0012490991227 0.0012338804338 0.0012191631456 0.0012049206056 0.0011910891451 
0.0011775908226 0.0011643441497 0.0011512974711 0.0011383879837 0.0011257159913 0.0011132300331 0.0011009012666 0.0010886846419 0.0010765713036 
0.0010644580599 0.0014439122606 0.0014245691043 0.0014055495435 0.0013868613513 0.0013685605368 0.0013506781382 0.0013331628757 0.0013161150409 
0.0012995220062 0.0012831407459 0.0012670766189 0.001251365801 0.0012360691948 0.0012211813551 0.0012068010185 0.0011928427306 0.0011792268105 
0.0011658835624 0.0011527594971 0.0011398279417 0.0011270349161 0.0011144589538 0.0011020261469 0.0010897025248 0.0010774483302 0.0010652933713 
0.0014512940686 0.0014316557666 0.0014123681859 0.0013934409387 0.0013749037345 0.0013567821268 0.0013390812755 0.0013217066134 0.0013047672963 
0.0012882300885 0.0012720234131 0.0012561459778 0.0012406871705 0.001225681883 0.0012111294732 0.0011969616418 0.001183193291 0.0011697209544 
0.0011564851118 0.0011434527636 0.0011305994539 0.0011178649806 0.0011053025813 0.0010928430542 0.0010804657478 0.0010681657527 0.0014613708087 
0.0014413975282 0.0014218027069 0.0014025959987 0.0013837867073 0.0013653982605 0.0013474171692 0.0013298264829 0.0013125392158 0.0012956898793 
0.0012792696732 0.0012631899422 0.0012475805714 0.0012323765586 0.0012176216092 0.0012032937261 0.0011892943141 0.0011756580485 0.0011622810804 
0.0011491217399 0.0011361376404 0.0011233020677 0.0011105516111 0.0010979404991 0.0010854160223 0.0010729824686 0.0014739138467 0.0014535715891 
0.0014336364699 0.0014141099549 0.0013949963877 0.0013763041245 0.0013580144809 0.001340118609 0.0013225288258 0.001305397609 0.0012887162709 
0.0012723945204 0.0012565062765 0.0012411153493 0.0012261279748 0.0012115674408 0.0011973972085 0.0011835599746 0.0011699719187 0.001156650816 
0.001143513246 0.00113052026 0.00111763664 0.0011048516655 0.0010921323625 0.0010795474847 0.0014887753191 0.0014680303955 0.0014477164293 
0.0014278354439 0.0014083834869 0.0013893519852 0.0013707290703 0.0013525004967 0.0013346632869 0.0013171429582 0.0013001168866 0.0012835846663 
0.0012674341046 0.0012517330471 0.0012364838454 0.0012217105349 0.0012073005539 0.0011932400543 0.0011794814423 0.0011659350742 0.0011526205419 
0.0011394437736 0.0011263779878 0.0011134049419 0.001100527886 0.0010877384247 0.0015059088151 0.0014847302792 0.0014640032278 0.0014437280566 
0.0014238972048 0.0014044986025 0.001385517506 0.0013669371078 0.0013487482987 0.0013309751191 0.0013135434219 0.0012966429488 0.0012802676591 
0.0012642866114 0.0012487566215 0.0012336605877 0.0012189691224 0.0012047048432 0.0011907175025 0.0011769881992 0.001163462783 0.0011500483526 
0.0011367755895 0.0011235931634 0.0011105085444 0.0010975386815 0.0015253829086 0.0015037373217 0.0014825542293 0.0014618489285 0.0014416092307 
0.0014218158765 0.0014024417913 0.0013834782325 0.001364917221 0.0013467761289 0.0013290796441 0.0013117592956 0.0012950685649 0.0012787826433 
0.0012629497212 0.0012475555245 0.0012325783902 0.0012179889285 0.0012037347338 0.0011897953611 0.0011760295892 0.0011624175446 0.0011488747651 
0.0011354568996 0.0011221360642 0.0011089347498 0.0015473909608 0.0015252309278 0.0015035570863 0.0014823776107 0.0014616917755 0.0014414714299 
0.0014216793367 0.0014023024945 0.0013833362136 0.0013647936539 0.0013467127546 0.0013290247642 0.0013119252118 0.0012953803514 0.0012792253954 
0.0012635122268 0.0012482135891 0.0012333137339 0.0012187541838 0.0012044932255 0.0011905003663 0.0011766125062 0.0011628414637 0.0011491566857 
0.0011355324136 0.0011220666703 0.0015722287442 0.0015495075424 0.0015272933972 0.001505595752 0.001484424239 0.001463742548 0.0014435035334 
0.0014236807715 0.0014042667496 0.0013852841651 0.0013667810529 0.0013487852436 0.0013312201447 0.0013142542344 0.0012978244979 0.0012817630282 
0.0012661140133 0.0012508551043 0.0012359580179 0.0012213682037 0.0012070235641 0.0011928468171 0.0011788109756 0.0011648234395 0.0011509230181 
0.0011371235894 0.0016002701449 0.0015769354061 0.0015541177972 0.0015318605976 0.0015101642503 0.0014889838746 0.0014682653443 0.0014479538183 
0.0014280469366 0.0014085803245 0.0013896025292 0.0013711727509 0.001353292678 0.0013358429454 0.00131904229 0.0013026039601 0.0012865605691 
0.0012709035488 0.0012556172173 0.0012406537341 0.0012259518007 0.0012114307985 0.001197024243 0.0011827311068 0.0011684894772 0.0011543837165 
0.0016318771788 0.0016078706022 0.0015843936067 0.0015615171141 0.0015392394309 0.001517516418 0.0014962701284 0.0014754352816 0.0014550004308 
0.0014350046518 0.0014155048985 0.0013965874536 0.0013782515601 0.001360372586 0.0013430865293 0.0013262989561 0.0013098212173 0.0012937134002 
0.0012779847721 0.0012625925106 0.0012474854714 0.001232578239 0.0012177910403 0.0012030835051 0.0011884540252 0.0011740085267 0.0016671996472 
0.0016424733168 0.0016182934517 0.0015947448242 0.0015718262244 0.0015495057144 0.0015276822787 0.0015062808133 0.001485267164 0.0014646926933 
0.0014446371954 0.001425173915 0.0014063346302 0.0013880807444 0.00137022484 0.0013529708127 0.0013360077579 0.0013194070073 0.0013031727381 
0.0012873075587 0.0012717375768 0.0012563932946 0.0012411826865 0.0012260540878 0.001211013361 0.0011961061785 0.0017059898087 0.0016805117071 
0.0016555904422 0.0016313079009 0.0016076954634 0.001584705935 0.0015622482764 0.0015402305785 0.0015186079515 0.0014974253751 0.001476777263 
0.0014567357463 0.0014373371174 0.0014185436553 0.0014002692119 0.0013823158307 0.0013649100026 0.0013477737596 0.0013310036106 0.0013146048394 
0.0012985183331 0.0012826813053 0.0012670007748 0.0012514157749 0.0012359242744 0.0012205756289 0.0017471906548 0.0017209416288 0.001695362579 
0.0016703264981 0.0016459777326 0.0016222758732 0.0015991337511 0.0015764538998 0.0015541964472 0.0015323928547 0.0015111219681 0.0014904693833 
0.0014704633676 0.0014510826729 0.0014322369958 0.0014137167502 0.0013956851634 0.0013780667953 0.0013607332 0.0013437685683 0.0013271309966 
0.0013107575947 0.0012945650968 0.0012784868409 0.0012625272819 0.0012467309204 0.0017892449701 0.0017622283282 0.0017358033879 0.001710122517 
0.0016850292265 0.0016605909911 0.0016367372492 0.0016133770654 0.0015904765368 0.0015680449647 0.0015461584463 0.0015248885073 0.0015042635726 
0.0014842658405 0.0014648158013 0.0014458186808 0.0014270924928 0.0014089164971 0.0013910152343 0.0013734804232 0.001356274664 0.0013393469512 
0.0013226178193 0.0013060392682 0.0012896023308 0.0012733550349 0.0018301340277 0.001801947424 0.0017747037812 0.0017482272593 0.0017224251895 
0.0016973628192 0.0016728053737 0.0016487767325 0.0016252389577 0.0016022064773 0.00157973114 0.001557870204 0.0015366422111 0.0015160431603 
0.0014959911123 0.0014764156871 0.0014572457605 0.0014383323865 0.0014199716328 0.0014018821096 0.0013841312814 0.0013666526407 0.0013493963951 
0.0013323176894 0.001315421527 0.0012987382051 0.00186596231 0.0018375503385 0.0018093369543 0.0017821221365 0.0017556763332 0.001729886294 
0.0017046882723 0.001680129358 0.0016560070364 0.0016324190107 0.0016094070529 0.0015870091963 0.0015652419954 0.0015440862385 0.001523489051 
0.0015033831251 0.0014837048223 0.0014642972082 0.0014454548713 0.0014268809907 0.0014086349483 0.0013906599368 0.0013729165024 0.0013553765903 
0.0013380430203 0.0013209518781 0.0018947259101 0.0018657625948 0.001837460281 0.0018093764663 0.0017823967577 0.0017559575538 0.0017302196212 
0.0017050483104 0.001680509754 0.0016564482408 0.0016329708169 0.0016101228074 0.0015879024262 0.0015662902951 0.0015452402675 0.0015246895335 
0.001504589377 0.0014848933913 0.0014654522497 0.0014465657013 0.0014279153547 0.0014095293922 0.001391376054 0.0013734309677 0.0013557176458 
0.0013382690231 0.0016144715877 0.0015944889971 0.0015748762768 0.0015556619467 0.0015367560002 0.0015181829227 0.001499929444 0.0014819784764 
0.0014643220501 0.0014469660653 0.001429919391 0.0014131209761 0.0013967583922 0.0013807500281 0.0013650895707 0.0013498142404 0.0013347632833 
0.0013199699454 0.0013054089426 0.0012910597355 0.0012769099211 0.0012629424543 0.0012491391365 0.0012354905994 0.001221985295 0.0012086261001 
0.0016250954004 0.0016047161424 0.0015847562784 0.0015651993541 0.001545959652 0.0015270780182 0.0015085445957 0.0014903376674 0.0014724477833 
0.001454867624 0.0014376019703 0.001420668412 0.0014040143548 0.0013878084622 0.0013719611424 0.0013564493779 0.0013412348548 0.0013263455723 
0.0013116304182 0.0012971363412 0.0012828447723 0.0012687466428 0.00125481914 0.0012410523811 0.0012274292177 0.0012139457508 0.0016319715956 
0.0016113078439 0.0015910474161 0.0015710968717 0.0015516153087 0.0015324676693 0.0015136914444 0.001495268729 0.0014771797228 0.0014594053073 
0.0014419513227 0.0014248361119 0.0014080848895 0.0013916388226 0.0013756463725 0.0013600015757 0.0013446651134 0.0013295979843 0.0013148268262 
0.0013002188616 0.0012858232218 0.0012716310453 0.0012576189439 0.0012437639652 0.0012300498701 0.0012164726142 0.0016362807991 0.0016153935594 
0.0015948177327 0.001574652004 0.0015548696208 0.0015354822785 0.0015164942849 0.001497880349 0.0014796128597 0.001461666179 0.0014440420013 
0.0014267670656 0.0014098648869 0.0013933546342 0.0013772370121 0.0013614163589 0.0013459859428 0.001330825513 0.0013159048847 0.0013012680537 
0.0012867916489 0.0012725221702 0.0012584424578 0.0012445234156 0.001230746062 0.0012170887318 0.001639440593 0.0016182959498 0.0015975143487 
0.0015770541921 0.001557036199 0.0015374324078 0.0015182397719 0.0014994417288 0.0014809983676 0.0014628897438 0.0014451057368 0.0014276763428 
0.0014106347324 0.0013940017849 0.0013777726102 0.0013619192819 0.0013463316274 0.001331089616 0.0013160896316 0.0013013213307 0.0012867760643 
0.0012724948647 0.0012583537842 0.0012443742158 0.0012305291915 0.0012168060886 0.0016426908586 0.0016213426844 0.0016003111225 0.0015796592105 
0.0015593565069 0.0015395284611 0.0015201805588 0.0015011868442 0.0014825143468 0.0014642375352 0.0014462951003 0.0014287111522 0.0014115287622 
0.0013947661433 0.0013784222677 0.0013624636175 0.0013468406123 0.0013314494957 0.0013163696782 0.0013015203848 0.0012869000606 0.0012724964423 
0.0012583339982 0.0012442847093 0.0012303668298 0.0012165733468 0.0016471609174 0.0016254963167 0.0016042026927 0.0015833016309 0.0015628566391 
0.0015427396682 0.001523117211 0.0015039640158 0.00148513998 0.0014666694016 0.0014485059258 0.0014307651612 0.0014134254183 0.0013965218083 
0.0013800467889 0.00136396744 0.001348232091 0.0013327924407 0.0013175602506 0.0013026186798 0.0012879063527 0.0012734127378 0.0012591126943 
0.0012450209259 0.0012310176939 0.0012171388527 0.0016534787285 0.0016315129357 0.001609937477 0.0015887653917 0.001568013756 0.0015476427601 
0.0015278227217 0.0015083751993 0.001489378628 0.0014706976991 0.0014523852836 0.0014344614115 0.0014169103463 0.0013998378031 0.0013832087902 
0.00136698062 0.0013511057764 0.0013355389616 0.0013202408019 0.0013051392563 0.0012903168112 0.0012757094427 0.0012612945502 0.0012470448453 
0.0012329765939 0.0012189946577 0.0016619935866 0.0016396950111 0.0016178145968 0.0015963432353 0.0015753104266 0.0015547187381 0.0015345116002 
0.0015147969855 0.0014955916388 0.0014766697801 0.0014581371083 0.0014400071069 0.0014223061004 0.0014050014995 0.0013881828634 0.0013717782057 
0.0013557370925 0.0013400168959 0.0013245768748 0.0013093898255 0.0012943891977 0.0012796454866 0.001265091257 0.0012507032786 0.0012364589931 
0.0012223905015 0.0016728075489 0.0016501517123 0.0016279276635 0.0016061408512 0.0015847909092 0.0015638931352 0.0015434439797 0.0015233620789 
0.0015037671203 0.0014846390876 0.0014659025312 0.0014475380428 0.0014296113149 0.0014121340667 0.0013950974399 0.0013784435982 0.001362207462 
0.0013463061742 0.0013306964352 0.0013153477299 0.0013002346816 0.0012852915474 0.0012705762958 0.0012560275483 0.0012416271564 0.0012273737173 
0.0016859052652 0.00166285678 0.00164026075 0.0016181190241 0.0015964253395 0.0015751965674 0.0015544177737 0.0015340762279 0.0015140928143 
0.0014946056773 0.0014756014347 0.0014570223215 0.0014388404148 0.0014211154108 0.0014038389339 0.0013869923375 0.0013704866534 0.001354376109 
0.0013385714208 0.0013230372711 0.0013077444319 0.0012926567515 0.001277721292 0.0012629912896 0.0012484157884 0.0012339938096 0.0017012154253 
0.0016777418861 0.0016547395707 0.0016322092297 0.0016101463428 0.0015885513051 0.0015674160746 0.0015467249981 0.0015263980573 0.0015065844341 
0.0014872690182 0.0014683472379 0.0014498819901 0.001431929417 0.0014143816243 0.0013972672621 0.0013805593973 0.0013642080757 0.0013481421016 
0.0013323976183 0.0013168971692 0.0013016097616 0.0012865051314 0.0012715419914 0.0012567693907 0.0012421618511 0.0017186779601 0.00169474557 
0.0016713064124 0.0016483577774 0.0016258921379 0.0016039016421 0.0015823804855 0.0015613113286 0.001540695816 0.0015204489108 0.0015007417034 
0.0014815601746 0.0014627869689 0.0014444774086 0.0014266323515 0.0014092743931 0.0013922932373 0.0013756824174 0.0013594048228 0.0013433836736 
0.0013276565494 0.0013121432082 0.0012968166766 0.0012816600154 0.0012666447014 0.0012518266229 0.0017382855378 0.0017138637992 0.0016899553103 
0.0016665521582 0.0016436499725 0.0016212369072 0.0015993029893 0.0015778358619 0.0015568239483 0.0015362816445 0.0015161240203 0.0014965299176 
0.0014774848836 0.0014588542503 0.0014406901442 0.00142297481 0.0014056804317 0.0013888298319 0.001372281417 0.0013560327437 0.0013400485902 
0.0013242502333 0.0013086793796 0.0012932800842 0.0012780518278 0.0012629973205 0.0017600984521 0.0017351519839 0.0017107339475 0.0016868452173 
0.0016634765876 0.001640612142 0.0016182342456 0.0015963366323 0.0015749069623 0.0015539552831 0.0015334918112 0.0015134322214 0.0014940256082 
0.0014750460168 0.0014565389957 0.0014384882527 0.001420871715 0.0014036619808 0.0013868528338 0.0013703102693 0.0013540434332 0.0013380070307 
0.0013221271753 0.0013064614496 0.0012909676984 0.001275655346 0.0017842277822 0.0017587189637 0.0017337579707 0.0017093468331 0.0016854758382 
0.0016621290097 0.0016392798919 0.0016169216902 0.0015950471675 0.001573656003 0.0015527674642 0.00153229997 0.0015124405739 0.0014931518069 
0.0014742791154 0.0014558700594 0.0014378994039 0.0014203461947 0.0014031566439 0.0013862993424 0.0013697656877 0.0013534163775 0.0013372749261 
0.0013213130119 0.001305493171 0.0012898935677 0.0018108380128 0.0017847263255 0.0017591869301 0.0017342101291 0.0017098018413 0.0016859377061 
0.0016625882882 0.0016397404208 0.0016173826136 0.001595520683 0.0015741770397 0.001553364395 0.0015329921934 0.0015132343286 0.0014940403252 
0.0014752450959 0.0014568928603 0.0014389547539 0.0014214030942 0.0014041881402 0.0013872713628 0.0013705964116 0.0013541627273 0.0013378767861 
0.0013217618418 0.0013058143933 0.0018400905401 0.0018133361914 0.0017871658505 0.0017615964418 0.0017366157454 0.0017122006487 0.0016883197271 
0.0016649438425 0.0016420662521 0.001619699992 0.001597861628 0.0015765831878 0.0015558544062 0.0015355668274 0.0015159548232 0.001496745445 
0.0014779752396 0.0014596237099 0.0014416687443 0.0014240621874 0.0014067607566 0.0013897168539 0.0013728852476 0.0013562752738 0.0013398146488 
0.0013235573851 0.0018720858696 0.0018446447053 0.0018178030348 0.0017915917732 0.0017659976791 0.0017409952648 0.0017165446711 0.0016926106499 
0.0016691849175 0.0016462793848 0.0016239130898 0.0016021282503 0.0015809112774 0.0015601532196 0.0015400172922 0.0015204300542 0.0015012112856 
0.0014824081627 0.0014640093136 0.0014459707674 0.0014282516553 0.0014108003928 0.0013935743337 0.0013765414317 0.0013596932063 0.0013431008329 
0.0019067168485 0.0018785507002 0.0018510048665 0.001824118671 0.0017978683309 0.0017722434566 0.0017471871618 0.0017226588539 0.0016986480142 
0.0016751675618 0.0016522474583 0.0016299140309 0.0016081805089 0.0015870214727 0.00156629033 0.0015462220399 0.0015265129152 0.0015072255575 
0.0014883385437 0.0014698383183 0.0014516629065 0.0014337740313 0.0014161161581 0.0013986661794 0.0013814083375 0.0013643756488 0.0019435827365 
0.0019146637731 0.001886389472 0.0018587840271 0.0018318461647 0.0018055515426 0.0017798539838 0.001754706657 0.0017300829999 0.0017060029209 
0.0016825029368 0.0016596040655 0.0016373181273 0.0016156208736 0.0015944675033 0.0015736964326 0.00155355584 0.0015337545601 0.0015143592003 
0.0014953567414 0.0014766900625 0.0014583274533 0.001440214319 0.0014223167323 0.0014046311369 0.0013871712378 0.0019817187448 0.0019520377723 
0.0019231173449 0.0018947773239 0.0018671305306 0.0018401481961 0.0018137827348 0.0017879873613 0.0017627390004 0.0017380496963 0.0017139454702 
0.0016904555578 0.0016675927028 0.0016453332186 0.0016236300196 0.0016023135693 0.0015815680955 0.0015613143469 0.0015413930222 0.0015218688022 
0.0015026950734 0.0014838351442 0.0014652426597 0.0014468783751 0.0014287449295 0.0014108598644 0.0020199820263 0.0019895425357 0.0019597870042 
0.0019308254801 0.001902469774 0.0018747945637 0.0018477534388 0.0018213079509 0.0017954322745 0.0017701306628 0.0017454295446 0.0017213543748 
0.0016979074324 0.0016750748803 0.0016528089233 0.0016310517659 0.0016096456407 0.0015888675123 0.0015684185992 0.0015483721024 0.0015286872697 
0.0015093273654 0.0014902446228 0.0014714148351 0.0014528334589 0.0014345188818 0.0020571238582 0.0020255149876 0.0019949438673 0.0019651983931 
0.0019361638716 0.0019079019068 0.0018802045509 0.0018531237467 0.0018266352657 0.0018007435996 0.0017754665539 0.0017508239235 0.0017268121747 
0.0017034249474 0.0016806064298 0.001658315555 0.0016365012805 0.0016150163872 0.0015941440444 0.0015735892262 0.0015534087071 0.0015335546775 
0.0015139973374 0.0014947097418 0.0014756948385 0.0014569653643 0.0020902010273 0.0020583502995 0.0020267940601 0.0019963028952 0.0019666389479 
0.0019376716945 0.0019094502835 0.0018817764888 0.0018547149546 0.0018282723829 0.0018024618576 0.0017772919824 0.001752762665 0.0017288534494 
0.0017055279033 0.0016827406356 0.0016604454341 0.0016384865126 0.0016171546435 0.0015961424732 0.0015755071657 0.0015552000618 0.0015351982163 
0.0015154821565 0.001496056613 0.0014769347272 0.0021181213364 0.0020856754083 0.0020539838837 0.002022589156 0.0019923648628 0.0019627437967 
0.0019338959957 0.0019056949439 0.0018782143799 0.0018512807559 0.0018249922359 0.0017993571623 0.0017743741151 0.0017500126715 0.00172624519 
0.0017030238091 0.0016803110309 0.0016580645046 0.0016361315899 0.0016148079688 0.0015937805372 0.001573080296 0.001552690601 0.0015325912124 
0.0015127991583 0.0014933278285 0.0017908807037 0.0017686297892 0.0017467900457 0.0017253866358 0.0017043285766 0.0016836395917 0.0016633090717 
0.001643326747 0.0016236886458 0.0016043894445 0.0015854358769 0.00156675924 0.001548528787 0.001530661206 0.0015131490846 0.0014960374823 
0.0014791743113 0.0014625995066 0.0014462904394 0.0014302274575 0.0014143982565 0.0013987860688 0.0013833758617 0.0013681596183 0.0013531289844 
0.0013382853333 0.0018053490435 0.0017826419829 0.0017604020111 0.0017386089348 0.0017171707805 0.0016961241458 0.0016754546864 0.001655153999 
0.0016352139315 0.0016156314121 0.0015963989311 0.0015775336053 0.001558959017 0.0015408414886 0.0015230896924 0.0015056837326 0.0014885990433 
0.0014718735684 0.0014553587639 0.0014391011934 0.001423080018 0.0014072854858 0.0013916985186 0.0013763118715 0.0013611143288 0.0013461011573 
0.0018171199456 0.0017940512991 0.001771442187 0.0017491935541 0.0017274510932 0.0017060720609 0.0016850933987 0.0016644990658 0.0016442820644 
0.0016244316653 0.001604947344 0.0015858344306 0.0015671009562 0.0015486800619 0.0015307153045 0.0015131075273 0.0014958337944 0.0014788622225 
0.0014622283271 0.0014457956202 0.0014296097893 0.0014136591774 0.0013979227503 0.0013823863575 0.001367040076 0.0013518797716 0.0018269545861 
0.001803576537 0.0017805732587 0.0017580374273 0.0017358739602 0.0017142298331 0.0016929583473 0.0016720901075 0.0016516134727 0.0016315124242 
0.0016117840057 0.0015924415655 0.0015734907755 0.0015549333869 0.001536700964 0.0015189084091 0.0015014639371 0.0014843257077 0.001467473061 
0.0014509441755 0.0014346105051 0.0014185129597 0.0014026404039 0.0013869715985 0.0013714987272 0.0013562004047 0.0018358222253 0.0018120963709 
0.0017888035336 0.001765892575 0.0017434655355 0.0017214763319 0.0016999183909 0.0016787828972 0.0016580474521 0.0016377030349 0.001617739801 
0.0015981710694 0.0015790091354 0.0015602555306 0.0015419022582 0.0015239321427 0.0015062534639 0.0014889576135 0.001471953354 0.0014552239099 
0.0014388044288 0.0014225733174 0.0014065699379 0.0013907721087 0.0013751693648 0.0013597460376 0.0018445761612 0.0018205550269 0.0017969276943 
0.001773742887 0.001750950101 0.0017286574627 0.0017068643862 0.0016854535831 0.0016644098709 0.0016438214211 0.0016236234022 0.001603827823 
0.0015844519687 0.0015654967053 0.0015469552376 0.0015288046412 0.0015110162124 0.0014935036115 0.0014763453179 0.0014594664889 0.0014428518261 
0.0014264857276 0.0014103959361 0.0013944680363 0.0013787312676 0.0013631809215 0.0018540869725 0.0018296659177 0.0018056912194 0.0017822274445 
0.001759105735 0.0017365050298 0.0017143640941 0.0016927199989 0.0016714535987 0.0016505981918 0.0016301109114 0.0016100838213 0.0015904809594 
0.0015713148395 0.0015525747869 0.0015342361599 0.0015162665949 0.0014986359453 0.0014812620625 0.001464224977 0.0014474565339 0.0014309411546 
0.001414658494 0.0013986330288 0.0013827570016 0.0013670687195 0.0018648837907 0.001840082305 0.0018157470872 0.0017918787146 0.0017684833524 
0.0017455481845 0.0017230908806 0.0017010907396 0.0016795872789 0.0016584563391 0.0016377494066 0.001617428703 0.0015975918887 0.0015781957792 
0.0015592378747 0.0015406915344 0.0015225244502 0.0015047048012 0.0014872010614 0.0014699433769 0.0014530069604 0.0014363245864 0.001419880785 
0.0014036506573 0.0013876626346 0.0013718235586 0.0018773184837 0.0018521175661 0.0018274009822 0.001803160669 0.0017794090389 0.0017561360286 
0.0017332800202 0.0017110034856 0.0016891879476 0.0016677561134 0.0016467662084 0.0016262195255 0.0016061232262 0.0015864362133 0.0015672356355 
0.0015484619729 0.0015300765668 0.0015120466005 0.0014943444792 0.0014769458124 0.0014597780436 0.001442914509 0.0014262876162 0.0014098774179 
0.0013936740873 0.0013777080716 0.0018915865121 0.0018659599672 0.0018408336964 0.0018162009561 0.0017920662568 0.0017684218009 0.0017452682362 
0.0017225252678 0.0017003132353 0.001678670887 0.0016573729743 0.0016365333989 0.0016161548483 0.0015962393184 0.0015767738296 0.001557703781 
0.0015390751018 0.0015208133258 0.0015028917893 0.0014852773735 0.0014679518815 0.0014508433881 0.0014340164887 0.0014174121725 0.0014010153033 
0.001384821662 0.0019077695738 0.0018816876619 0.0018561248584 0.0018310758355 0.0018065286251 0.001782495578 0.0017589509257 0.0017359004291 
0.0017132547247 0.0016911553157 0.001669583425 0.0016484749514 0.0016277891285 0.0016075773763 0.0015878272989 0.0015685229438 0.0015495816785 
0.0015310676268 0.0015129021269 0.0014950535497 0.0014775000249 0.0014602068698 0.0014431231758 0.0014263032537 0.0014096963488 0.0013932998185 
0.0019258894187 0.0018993226148 0.0018732918641 0.0018477914884 0.0018228118647 0.0017983541356 0.0017744038557 0.0017509551049 0.0017279197568 
0.0017054460433 0.0016835157426 0.0016620124836 0.0016409961613 0.0016205118327 0.0016004506825 0.0015808415869 0.0015616566418 0.0015428601352 
0.0015243856275 0.0015062841731 0.0014884789326 0.0014709431281 0.0014536529552 0.0014365665664 0.0014197311151 0.0014031137256 0.0019459460142 
0.0019188640496 0.0018923361501 0.001866357666 0.0018409195912 0.0018160115587 0.0017916253446 0.001767748513 0.0017443776911 0.0017214282353 
0.0016990574378 0.0016772494897 0.0016558788181 0.0016349940414 0.0016145959775 0.0015947044469 0.001575212166 0.0015561170387 0.0015373922628 
0.0015189686368 0.0015008925261 0.0014830924188 0.0014655429205 0.0014482307334 0.0014311193038 0.0014142600529 0.0019679609604 0.0019403311869 
0.0019132783033 0.0018867889743 0.0018608589152 0.0018354735344 0.0018106258183 0.0017863034889 0.0017624919876 0.001739200587 0.0017163376088 
0.0016940742339 0.001672387074 0.0016511402331 0.001630383349 0.0016100972476 0.0015902589372 0.0015708861378 0.0015518504753 0.0015331583646 
0.001514786543 0.001496662601 0.0014788354719 0.001461245339 0.0014438920391 0.0014267465119 0.0019919719479 0.0019637644391 0.0019361511209 
0.0019091233621 0.0018826730157 0.001856782932 0.0018314442358 0.0018066449072 0.001782371968 0.0017586301448 0.0017354204579 0.001712648339 
0.0016905566776 0.0016689206701 0.0016477829858 0.0016271269284 0.0016069255429 0.0015871624022 0.0015678252956 0.0015488098769 0.0015301169058 
0.0015117195276 0.0014935506679 0.0014756643899 0.0014580159984 0.0014406069551 0.0020180389277 0.0019892224123 0.0019610135477 0.0019334162548 
0.0019064135828 0.0018799942374 0.0018541327515 0.0018288303884 0.0018040723822 0.0017798526999 0.0017561790074 0.0017329604373 0.0017103769699 
0.0016883905692 0.0016668476412 0.0016457939868 0.0016252094896 0.0016050693137 0.001585327201 0.0015659610358 0.0015469681749 0.0015282249325 
0.0015097654647 0.0014915556932 0.0014735565614 0.0014558388486 0.0020462282046 0.0020167646499 0.0019879361959 0.0019597288681 0.0019321442478 
0.0019051591336 0.0018787538359 0.0018529192421 0.0018276433051 0.0018029197528 0.0017787581789 0.001755157742 0.0017320257533 0.0017095300172 
0.0016876276214 0.0016661572408 0.0016451586336 0.0016246113776 0.0016044807026 0.0015847273873 0.0015653245169 0.0015462290396 0.0015274493238 
0.0015088952914 0.0014905844352 0.0014725003997 0.0020765674288 0.0020464235991 0.0020169320604 0.0019880965582 0.001959897195 0.0019323207342 
0.0019053444947 0.0018789473648 0.0018531194554 0.0018278650988 0.0018031823521 0.0017790865457 0.001755563635 0.0017325037739 0.0017101481688 
0.0016882329661 0.0016667953043 0.0016458131262 0.0016252636096 0.0016050993596 0.0015852926303 0.0015658066662 0.0015466098682 0.0015277166255 
0.0015090473469 0.0014906437528 0.002109009588 0.0020781507932 0.0020479655104 0.0020184605928 0.0019896193173 0.0019614189431 0.0019338391855 
0.0019068546434 0.0018804560563 0.0018546420025 0.001829416259 0.0018047935468 0.0017807549787 0.0017571973535 0.0017342901197 0.0017119734867 
0.0016900702672 0.0016686276197 0.0016476258987 0.0016270219593 0.0016067866487 0.0015868795537 0.0015672762718 0.0015479518322 0.0015288896724 
0.0015101439043 0.0021433284997 0.0021117292894 0.0020808275839 0.0020506275973 0.0020211101041 0.0019922672788 0.0019640566325 0.0019364584555 