# vtk DataFile Version 5.1
vtk output
ASCII
DATASET STRUCTURED_POINTS
DIMENSIONS 26 26 26
SPACING 0.08 0.08 0.08
ORIGIN -1 -1 0.5
POINT_DATA 17576
FIELD FieldData 1
potential 1 17576 double
0.018186809661 0.018703741738 0.019228223917 0.019759471539 0.020296309928 0.020837698242 0.021382600768 0.021928922291 0.022475507396 
0.02302130766 0.023565146851 0.024106854726 0.024645155034 0.02517892677 0.025706041968 0.02622485268 0.026734000023 0.027231949531 
0.027718037402 0.028191322119 0.028651174814 0.02909673687 0.029526800591 0.029939822981 0.030335389869 0.030712720486 0.017403156814 
0.017883456289 0.018369749044 0.018861830246 0.019359150375 0.019860616844 0.020365001117 0.020870831894 0.021376647054 0.02188127374 
0.022383772131 0.022883474154 0.02338007552 0.023872459516 0.024359394188 0.024838830242 0.025308695238 0.025768234777 0.026216339534 
0.02665290802 0.027077646922 0.027489894933 0.027888228839 0.028271213886 0.028637837883 0.028987344846 0.016588494366 0.017032785134 
0.01748209012 0.017936432878 0.0183953391 0.018858208329 0.019323905847 0.019791007345 0.020257463854 0.020722145097 0.021184415312 
0.021644141837 0.022100972561 0.022553978961 0.023002395522 0.023443784426 0.023876200742 0.02429856241 0.024710458122 0.025111621039 
0.025502376435 0.025882377755 0.026250272267 0.02660435674 0.026942757922 0.027265326709 0.015764271999 0.01617437421 0.016588301793 
0.017006326707 0.017428866197 0.017854846751 0.018283509697 0.018713355215 0.019142511576 0.019569473075 0.019993501668 0.020414987706 
0.020833899113 0.021249876124 0.021661378678 0.022066701131 0.022463758372 0.022851033756 0.023228062156 0.023595508786 0.023953999639 
0.024303142571 0.02464186183 0.024968122715 0.025280314065 0.02557690576 0.014955364557 0.015333283128 0.015714222543 0.016098491899 
0.01648593046 0.016877181472 0.017271105162 0.017666316237 0.018060315088 0.01845204002 0.018840426915 0.01922607717 0.019609424945 
0.019990338051 0.020367694842 0.020739229687 0.021103018309 0.021457311313 0.021802081062 0.022138166591 0.022466049704 0.022786599653 
0.02309766103 0.023397493644 0.023684270142 0.023956314759 0.014183143627 0.014531193875 0.014881759931 0.015234826799 0.015590866735 
0.015949797548 0.016311377826 0.016673733009 0.017035261131 0.017394594528 0.017750536237 0.018103474219 0.018454204584 0.018802869936 
0.01914821871 0.01948859678 0.019821778124 0.020146021164 0.020461586793 0.020768467504 0.021068330063 0.021361350739 0.021646561673 
0.021922097434 0.022185140419 0.022434949901 0.01346218272 0.013783193467 0.014106139852 0.014431070408 0.014758263293 0.015088091136 
0.015419857042 0.015752682457 0.016084551466 0.016414025611 0.016740520952 0.017063925714 0.017385372356 0.017704477644 0.01802100528 
0.018332783191 0.018637987675 0.018935274004 0.019223824177 0.01950479303 0.019779261216 0.020047551882 0.020308596044 0.020561095675 
0.020802970454 0.021032373657 0.012799529328 0.013095961042 0.013394077899 0.013693795611 0.013995376032 0.014299074045 0.0146043533 
0.014910069458 0.015214942963 0.015517722746 0.015817848237 0.016115185402 0.016410166232 0.016702762424 0.016992694439 0.01727853452 
0.017558377253 0.017831112476 0.018096285746 0.018354397103 0.018605870509 0.018852138119 0.019091691271 0.019323131906 0.019545162681 
0.019756001788 0.012195610625 0.012469920951 0.012745750736 0.013022934792 0.013301598912 0.013581754307 0.013863148752 0.014144823688 
0.014425579128 0.014704606128 0.014981152386 0.015255148931 0.015526661499 0.015795750118 0.016062031479 0.016324346093 0.016581326966 
0.01683200052 0.017076038068 0.01731372771 0.017545676028 0.017771886421 0.017991693686 0.018204330904 0.018408308741 0.018602858566 
0.011646689015 0.011901150468 0.012156987678 0.012414032809 0.01267221177 0.012931444875 0.013191485887 0.013451614883 0.013710914749 
0.013968603613 0.014223940423 0.014477082751 0.014727812656 0.014975978736 0.015221147928 0.015462636806 0.015699290825 0.015930308719 
0.016155441215 0.016374868601 0.016588838353 0.016797308121 0.016999853691 0.017195644989 0.017383371262 0.017562889674 0.011147069165 
0.011383697491 0.011621973801 0.011860882998 0.012100670271 0.012341230823 0.012582161271 0.0128230361 0.013063076038 0.013301679728 
0.013538335533 0.013772766731 0.014004741123 0.014234289393 0.01446081175 0.014683630262 0.014902119683 0.015115652628 0.015323950637 
0.015527008123 0.015724800633 0.015917450335 0.016104470073 0.016285148693 0.016458772207 0.016624909061 0.010691941205 0.010912551124 
0.011134274305 0.011356837176 0.011580095764 0.011803872269 0.012027791114 0.012251818312 0.012474700965 0.012696131509 0.012915869899 
0.013133524912 0.013348879945 0.013561590828 0.013771410028 0.013977702268 0.014179995355 0.014377814088 0.014570925608 0.01475918976 
0.014942626162 0.015121012529 0.015294056716 0.015461279363 0.015622102741 0.015776246634 0.010276213883 0.010482405371 0.010689413571 
0.010897251258 0.011105603957 0.011314264169 0.011522914265 0.011731192239 0.011938615474 0.01214471993 0.012349219344 0.012551777917 
0.01275211715 0.012949950673 0.013144900544 0.013336460456 0.013524029242 0.013707775047 0.013887242975 0.014062191072 0.014232623435 
0.014398274241 0.014558898047 0.014714021295 0.014863387714 0.015006695907 0.0098958804418 0.010088998143 0.010282962331 0.010477490736 
0.010672392284 0.010867434914 0.011062350172 0.011256580654 0.011450121379 0.011642424967 0.01183312333 0.012022002993 0.012208811184 
0.012393095368 0.012574676265 0.012752989856 0.012927754831 0.013098706712 0.013265609342 0.013428573425 0.013587231677 0.013741359053 
0.013890754545 0.014035133047 0.014174152031 0.014307604303 0.0095483802613 0.0097296390356 0.0099115321815 0.010094001079 0.01027677783 
0.0104595978 0.010642109405 0.010824035512 0.011005052806 0.011184782897 0.011363068258 0.011539574704 0.011714101859 0.011886130481 
0.012055573634 0.012221972724 0.01238502516 0.012544503791 0.012700277318 0.012852322918 0.013000438585 0.013144311243 0.013283528706 
0.013418112819 0.013547796173 0.013672391421 0.0092318303659 0.0094022919581 0.0095733592138 0.0097449070829 0.0099167048636 0.01008846843 
0.010259862336 0.010430544852 0.010600178855 0.010768589288 0.010935581253 0.011100936803 0.011264423692 0.011425681289 0.011584311674 
0.011739958778 0.011892344061 0.012041451551 0.012187095759 0.012329244632 0.012467812707 0.012602277989 0.012732630685 0.012858432829 
0.012979565692 0.013096038049 0.008945159523 0.0091058928316 0.0092671172783 0.0094287548936 0.0095906838139 0.0097525553467 0.0099139630149 
0.010074504483 0.010233914031 0.010392036769 0.010548711827 0.010704006535 0.010857587434 0.01100905984 0.011157942127 0.011303887775 
0.011446763155 0.011586399869 0.011722918292 0.011856226563 0.011986175427 0.012112455925 0.012234715491 0.012352635015 0.01246613151 
0.0125751628 0.0086875858962 0.0088399899492 0.0089922989947 0.0091450566223 0.0092980952771 0.009451102487 0.0096035754359 0.0097550441751 
0.0099052237001 0.01005405101 0.01020161478 0.010347803562 0.010492516227 0.010635188307 0.010775407366 0.010912682887 0.011046829051 
0.011177988079 0.011306149057 0.01143143475 0.011553765547 0.011672594146 0.011787660852 0.011898457325 0.012005008542 0.012107379517 
0.0084600502574 0.0086041468849 0.0087484792206 0.0088932805318 0.0090384122014 0.0091839205651 0.0093283782359 0.0094717168158 0.0096136527103 
0.0097541454753 0.0098933729786 0.010031473274 0.010168155522 0.010303012875 0.010435442415 0.01056497973 0.010691396953 0.010814748426 
0.010935453561 0.011053624845 0.011169021431 0.011281303817 0.011389852705 0.011494384286 0.011594727061 0.011691034074 0.0082612392394 
0.0083983333515 0.0085356349503 0.0086733128516 0.008811350437 0.0089493523081 0.0090867329271 0.0092228439354 0.0093574300592 0.0094909433332 
0.0096227426566 0.0097534778569 0.009882982129 0.010010892552 0.01013639971 0.010258991571 0.010378510845 0.0104951115 0.010609069176 
0.010720773077 0.01083001148 0.010936400498 0.011039236874 0.011138100713 0.011232873776 0.011323790173 0.0080890483902 0.008219909546 
0.0083509763797 0.0084823933104 0.0086141303239 0.0087457471624 0.0088767141438 0.0090064084972 0.0091345095023 0.0092609892591 0.0093862725655 
0.0095104965737 0.0096336038476 0.0097550880925 0.0098747984618 0.0099913420267 0.010104733129 0.010215289262 0.010323436618 0.010429376789 
0.010533054353 0.010634027308 0.010731663941 0.01082553024 0.01091540715 0.011001507779 0.0079384726033 0.0080640343316 0.0081896405994 
0.0083154670305 0.0084414885989 0.0085674248304 0.0086926553909 0.008816553248 0.0089388699505 0.0090596448473 0.0091791128215 0.009297547112 
0.0094148373789 0.0095306211358 0.0096442165065 0.009755126814 0.0098631549179 0.009968477495 0.010071453164 0.010172283768 0.010271423225 
0.010367506375 0.010460310044 0.010549517052 0.010635025308 0.010716950511 0.0078018212206 0.0079226562456 0.0080434569857 0.0081643554555 
0.0082853470727 0.0084059929556 0.0085259248765 0.0086444981071 0.0087616497333 0.0088772556001 0.0089915725155 0.0091047911627 0.009216770342 
0.0093272585178 0.0094357098588 0.009541605658 0.0096447857152 0.0097453863871 0.0098437007932 0.009939958981 0.010033969949 0.010125596111 
0.010214067516 0.010299090893 0.010380472382 0.010458639684 0.007668894354 0.0077853706717 0.0079016922547 0.0080180640635 0.0081342477988 
0.0082501473898 0.0083651149786 0.008478812749 0.0085910594573 0.0087018848682 0.0088114531722 0.0089198315149 0.0090269480899 0.0091325257322 
0.0092360123899 0.009337252685 0.0094359730546 0.0095322709265 0.0096263252674 0.0097182623105 0.0098081112106 0.0098953022985 0.0099796021039 
0.010060641014 0.010138364206 0.010213024948 0.0075281921948 0.0076403911818 0.0077524672544 0.0078645006975 0.0079762028385 0.0080873227286 
0.0081974937132 0.0083064784474 0.0084141141894 0.0085203402318 0.0086252023776 0.008728897642 0.0088312861296 0.0089321546966 0.0090310638376 
0.0091278260466 0.0092222619699 0.0093144256782 0.0094044584078 0.0094923665248 0.0095780046677 0.009661085376 0.0097412776732 0.0098183828446 
0.0098923668923 0.0099635845596 0.0073691491303 0.0074771047867 0.0075851633595 0.0076927648914 0.0077998981917 0.0079064565992 0.0080119356194 
0.0081161314183 0.0082190068578 0.00832056175 0.0084208631065 0.0085199693497 0.0086176715378 0.0087138215191 0.008808079472 0.0089003393195 
0.0089905824621 0.0090787103062 0.0091647829781 0.0092487330401 0.0093303230963 0.0094093203253 0.0094854295778 0.009558513948 0.0096287570649 
0.0096962891557 0.020197477385 0.020767157164 0.021345058444 0.021930331997 0.022521647429 0.02311789732 0.02371794571 0.024320187868 
0.024922969183 0.025525190869 0.02612535051 0.026722941113 0.02731635613 0.027904455525 0.028485041042 0.029056761806 0.029618095562 
0.030167504896 0.030703911468 0.031226169488 0.0317334194 0.032224750295 0.032698742352 0.033154490154 0.033591176052 0.034008204637 
0.019353142724 0.019882929865 0.020419757226 0.020962728615 0.021511139478 0.022063941668 0.022619639702 0.023177272595 0.023735281294 
0.024292305383 0.02484752093 0.025399608747 0.025947430973 0.026490247149 0.02702672405 0.027555031544 0.028073342288 0.02858085054 
0.029076146734 0.029558680077 0.030027601663 0.030482214683 0.030921238574 0.031343607337 0.031748481151 0.032135112669 0.018501527398 
0.018993161797 0.019490773107 0.019993710842 0.020501379978 0.021012831642 0.021527056506 0.022042702958 0.02255850306 0.023072744725 
0.023584909657 0.024094233262 0.024599789313 0.025100295813 0.02559509847 0.026082411902 0.026560425647 0.027028124193 0.027484831679 
0.027929965144 0.028362700606 0.028782529852 0.029188574467 0.029579471923 0.029954032114 0.030311723219 0.017654643487 0.018110313006 
0.018570991684 0.019035962045 0.019505255846 0.01997809669 0.020452926152 0.020929013573 0.021404950043 0.021879381705 0.022351400749 
0.022820413995 0.023286036327 0.023747351075 0.024202962676 0.024651690426 0.025092106011 0.025522766447 0.025943125886 0.02635275993 
0.026751457473 0.027138741357 0.027513465619 0.027874773379 0.028220983316 0.028551374784 0.016827636298 0.017249547533 0.017675541829 
0.018105425319 0.018538591862 0.018974699992 0.019413024127 0.019852515868 0.020291262434 0.020728496373 0.021162904656 0.021594602307 
0.02202308637 0.022447566978 0.022867106242 0.023280041254 0.023685264328 0.024081327777 0.024467797306 0.02484469615 0.025211581195 
0.025568590315 0.025914037805 0.026246962547 0.026566340646 0.026871080022 0.016034179734 0.016424647408 0.01681868789 0.017215859931 
0.017615931967 0.018018360365 0.018422738749 0.018827790777 0.019232014571 0.01963473239 0.020035288038 0.020432591237 0.020826689547 
0.021217308373 0.021603147414 0.021983254534 0.022356023438 0.0227202784 0.023075992648 0.023422355157 0.023759703955 0.024087867121 
0.024406081388 0.02471322742 0.025007488286 0.025288550434 0.01528447158 0.015646219121 0.016010878061 0.016378138457 0.016747643903 
0.017119393544 0.017492419722 0.017865994632 0.018238944029 0.018610131902 0.018978920253 0.019344888483 0.019707676972 0.020067400122 
0.020422601258 0.02077241726 0.021115521626 0.021450992864 0.021777980277 0.022096683891 0.02240705202 0.022709161774 0.023001994029 
0.023284635095 0.023556179441 0.023815647715 0.014584470678 0.014919858854 0.015257752836 0.015597800043 0.015939794179 0.01628352073 
0.016628273509 0.016973165332 0.017317446125 0.017659757816 0.018000038028 0.018337563091 0.018672125862 0.019003223701 0.019330387215 
0.019652524001 0.019968695094 0.020277649642 0.020579199549 0.020872900998 0.021158842296 0.021437312849 0.021707311782 0.021968062199 
0.022218306813 0.022457635187 0.013935850074 0.014247270248 0.01456084131 0.014876215368 0.015193178666 0.015511362661 0.0158304694 
0.016149489664 0.016467785384 0.01678428916 0.017098748234 0.017410613879 0.017719587934 0.01802509295 0.018326899933 0.018624040877 
0.018915392541 0.019200501855 0.019478704373 0.019749941244 0.020014069802 0.020271142275 0.020520041189 0.020760550674 0.020991695262 
0.02121283142 0.01333717602 0.013626870174 0.013918431573 0.014211500537 0.014505813615 0.014801060506 0.015096812394 0.015392452311 
0.01568723842 0.01598049759 0.016271511239 0.016560175221 0.016846016741 0.017128713241 0.017407583452 0.017682150032 0.017951495774 
0.018215008682 0.018472150665 0.018723018853 0.018967319952 0.01920478957 0.019435023515 0.019657391463 0.019870950985 0.02007561018 
0.01278519772 0.013055171661 0.01332674782 0.013599966573 0.013873780585 0.014148272224 0.014423023245 0.014697509593 0.014971085258 
0.015243229657 0.015513391446 0.015781167277 0.016046117831 0.016308084645 0.016566454444 0.016820568218 0.01706995503 0.017314024068 
0.01755238116 0.017784806211 0.018011056769 0.018231022354 0.018444246573 0.018650118462 0.01884815663 0.019037922524 0.01227692002 
0.012529047881 0.012782518283 0.013037032043 0.013292326284 0.01354807729 0.01380387045 0.014059267852 0.014314047517 0.014567058374 
0.014818247827 0.015067157825 0.015313427069 0.015556773801 0.015796410507 0.016032245875 0.016263614267 0.016490107906 0.016711388614 
0.016927153627 0.0171372619 0.017341280997 0.017539073847 0.017730164646 0.017913997035 0.018090361896 0.01180848415 0.012044413787 
0.012281343124 0.012519256737 0.012757731786 0.012996485802 0.013235133732 0.013473274089 0.013710471105 0.013946231175 0.014180238901 
0.014412091396 0.014641422089 0.014867875271 0.015091021855 0.01531032717 0.015525263499 0.015735944914 0.015941780172 0.016142467236 
0.016337893578 0.016527683496 0.016711604353 0.016889156234 0.017060205818 0.017224350146 0.011376567994 0.011597714206 0.011819876112 
0.012042700169 0.01226594349 0.01248929003 0.01271242512 0.012934775191 0.013156323392 0.01337649463 0.01359488143 0.013811244088 
0.014025202621 0.014236359319 0.014444395621 0.014648835068 0.014849345791 0.015045518766 0.01523731216 0.015424213657 0.015606293858 
0.015783101121 0.015954432012 0.016119935974 0.016279377697 0.016432293238 0.010978760675 0.011186496199 0.011394978321 0.011604077794 
0.011813492815 0.012022891797 0.012232001407 0.012440381757 0.012647700267 0.012853670488 0.013057972618 0.013260241499 0.013460244517 
0.013657446959 0.013851747685 0.014042669463 0.014229889848 0.014413126154 0.01459206671 0.014766709663 0.014936754111 0.015101885543 
0.015261720582 0.015416234133 0.015564990742 0.01570792016 0.010613060523 0.010808530231 0.011004697399 0.011201332831 0.011398150828 
0.011594882092 0.011791197121 0.011986764831 0.01218121672 0.012374320648 0.012565786507 0.012755350766 0.012942690363 0.013127511389 
0.013309403483 0.013488103445 0.013663250772 0.013834678154 0.014002149664 0.014165493565 0.014324564587 0.014479092896 0.014628555194 
0.014773043943 0.01491218874 0.015045872554 0.010277702832 0.010462095688 0.010647183495 0.01083243244 0.01101786127 0.01120312711 
0.011387891852 0.011571809703 0.011754497731 0.011935886316 0.012115720616 0.012293737524 0.012469666061 0.012643154 0.012813867937 
0.01298144031 0.01314570994 0.013306374386 0.01346340136 0.013616564021 0.013765714663 0.013910571138 0.014050874315 0.01418634668 
0.01431677627 0.014442034244 0.0099714923243 0.010146270942 0.01032096138 0.010495967691 0.010671057138 0.010845935924 0.011020255447 
0.011193646881 0.011365816171 0.01153656836 0.011705864784 0.011873404595 0.012039026693 0.012202265056 0.012362875541 0.012520387991 
0.012674664077 0.012825589546 0.012973105456 0.013117052529 0.013257256893 0.013393393222 0.013525278011 0.013652493403 0.013775003722 
0.013892697362 0.0096939119526 0.009859062839 0.010024512599 0.010190205916 0.010355983532 0.010521916362 0.01068674715 0.010850607725 
0.011013232619 0.011174413746 0.011334029851 0.011492114919 0.011648334985 0.01180234017 0.011953731886 0.012102230601 0.012247563841 
0.012389605977 0.012528457062 0.012664071568 0.012796128575 0.01292447829 0.013048714856 0.013168533287 0.013283882191 0.01339466605 
0.0094426351439 0.0095995468455 0.0097566443921 0.0099139316559 0.01007121691 0.010228222107 0.010384572394 0.010539816911 0.010693744676 
0.010846656988 0.010997643581 0.011147046452 0.01129475916 0.01144045592 0.01158360031 0.011723874553 0.011861070834 0.011995204428 
0.012126193783 0.012254184932 0.012378923415 0.012500183337 0.012617511526 0.012730690224 0.012839452042 0.012943950739 0.0092149891852 
0.0093644345856 0.0095139441868 0.0096636103717 0.0098132230833 0.0099625304112 0.010111058491 0.010258533875 0.010404648013 0.010549227343 
0.010692397457 0.010834050603 0.010974050909 0.011112033136 0.011248077508 0.011380999818 0.01151090524 0.011637810141 0.011761832313 
0.011882929374 0.012000950507 0.012115717444 0.012226743789 0.012333784139 0.012436804706 0.012535647293 0.0090061954894 0.0091489332851 
0.0092916739467 0.0094344506294 0.0095769879908 0.0097192652982 0.0098607748477 0.010001129869 0.010140135599 0.010277679498 0.01041376469 
0.010548315392 0.010681250637 0.010812282079 0.010941004973 0.011067089977 0.011190366464 0.011310820136 0.011428493198 0.011543338235 
0.011655775388 0.0117645595 0.01186976327 0.011971221368 0.012068825727 0.01216251359 0.0088102200531 0.0089468210765 0.0090833431086 
0.0092198301705 0.0093560962621 0.0094918500803 0.0096267749959 0.0097606004829 0.0098930489677 0.010024099196 0.010153692206 0.010281800292 
0.010408285803 0.010532818677 0.010655233754 0.010775107217 0.010892309237 0.011006807619 0.011118630553 0.011227787254 0.011334081488 
0.011437458241 0.011537368221 0.011633705635 0.011726248653 0.01181520668 0.0086196722544 0.0087504814901 0.0088812885435 0.0090119037573 
0.0091421690952 0.0092719198804 0.0094007610142 0.0095284912541 0.0096548203729 0.0097798044348 0.0099033710541 0.010025441454 0.010145885875 
0.010264505126 0.010380967274 0.010495032344 0.010606598355 0.010715590585 0.010821992419 0.010925779721 0.01102690168 0.01112494724 
0.011219884795 0.011311370962 0.011399351641 0.011483897398 0.0084267012467 0.0085520302672 0.0086772743557 0.0088023539138 0.0089269707978 
0.0090509237178 0.0091739429493 0.0092958154409 0.0094164339579 0.0095356570685 0.0096534353401 0.0097696785129 0.0098843805765 0.009997321087 
0.010108160635 0.010216770292 0.010323019893 0.01042681275 0.010528090536 0.010626868151 0.010722959466 0.010816134951 0.010906200699 
0.010993014676 0.011076501741 0.011156820833 0.0082241433788 0.008344138605 0.0084642321406 0.0085838095674 0.0087028744742 0.0088212254186 
0.0089387182771 0.0090549195907 0.009169838352 0.0092834104129 0.009395609202 0.0095063276997 0.0096155299038 0.0097229179083 0.0098282864745 
0.0099315641892 0.010032685566 0.010131484075 0.010227896589 0.010321857804 0.010413171193 0.010501565817 0.01058694767 0.010669141085 
0.010748287285 0.010824369042 0.022214783913 0.022836155999 0.023466321916 0.024104572543 0.024749351506 0.025399289447 0.02605338321 
0.026710130593 0.027367630232 0.028024561995 0.028679769866 0.029331379545 0.029978507907 0.030619502914 0.031252461179 0.031875743908 
0.032487863217 0.033087188597 0.033672441245 0.034242311571 0.034795724709 0.035331682615 0.035848793717 0.03634619345 0.036823049335 
0.037278656388 0.021303875673 0.021882266896 0.022468261377 0.023060840294 0.023659225696 0.02426223292 0.024868463583 0.025476617763 
0.026085501165 0.026693524475 0.027299521585 0.027902359468 0.028500166985 0.029092257148 0.029677100965 0.030253276878 0.030818914936 
0.031372641245 0.031913779254 0.032440749585 0.032952684282 0.033448792572 0.033927828325 0.034388816036 0.034831026403 0.035253673823 
0.020403334523 0.0209410399 0.02148538119 0.022035263905 0.022590325761 0.02314916685 0.02371083772 0.024274000565 0.024837577839 
0.025399901167 0.02596002721 0.026517066314 0.027069687088 0.02761660166 0.028156778394 0.028688743672 0.029211365713 0.029722660252 
0.030222422772 0.030709503956 0.031182781927 0.031641618977 0.032085148937 0.032512192309 0.032921825374 0.033313769881 0.019519492942 
0.020019062745 0.020524358023 0.02103436113 0.021548678808 0.022066668141 0.022586643854 0.02310782636 0.02362902874 0.024148976521 
0.024666652304 0.025181010386 0.025691334223 0.026196494348 0.026695172445 0.027186407779 0.027668642411 0.028140834467 0.028602140929 
0.029051700841 0.029489060774 0.029913159442 0.030323319986 0.030718873724 0.031098192867 0.03146084278 0.018660980888 0.019125079727 
0.019593902782 0.020066956789 0.020543519445 0.021022798925 0.021504133725 0.021986484562 0.022468496702 0.022949119461 0.023427258371 
0.023902146298 0.024373311553 0.024839605876 0.025300101942 0.025753538594 0.026198490604 0.026634359383 0.027059840315 0.027474760694 
0.027878834723 0.028270527662 0.028649913175 0.029015368694 0.029366179592 0.029701862581 0.017836568297 0.018267653535 0.018702693032 
0.019141398362 0.019583110368 0.020026870194 0.020472430503 0.020918557707 0.021364021034 0.021808170845 0.022250364418 0.022689090311 
0.023124030581 0.023554655846 0.023979759214 0.024398125141 0.0248089223 0.025211295916 0.025604130661 0.025987091753 0.026359674524 
0.026721499681 0.027071789387 0.027409932523 0.02773430602 0.028044789248 0.017052950715 0.017453496489 0.01785753367 0.018264553376 
0.018674038611 0.019085332157 0.019497948327 0.01991065446 0.020322974918 0.020733717035 0.0211422027 0.021547703925 0.021949720774 
0.022347247984 0.022739977915 0.023126502291 0.023505877336 0.023877398833 0.024240247711 0.024593695615 0.024937660341 0.025271942459 
0.025595499497 0.025907681752 0.026207871262 0.026495450644 0.016314550092 0.016687052779 0.017062543328 0.01744052695 0.01782055635 
0.018202110238 0.018584595198 0.018967152196 0.019348834798 0.019729103742 0.020106787894 0.020481907374 0.020853607248 0.021221110271 
0.021583906789 0.021941007397 0.022291789262 0.022635025649 0.022970273641 0.023297154825 0.023615430625 0.023924362531 0.024223817162 
0.024512621511 0.024790278228 0.025056186533 0.015623148661 0.015969960743 0.016319309973 0.016670740519 0.017023854803 0.017378131751 
0.017733099758 0.018087904727 0.018441890785 0.018794155032 0.019144349518 0.019491829517 0.019835945237 0.020176197074 0.020511748584 
0.020842208722 0.021166439362 0.021484008474 0.021794269471 0.02209684091 0.022391295981 0.022677359381 0.022954543369 0.023221748136 
0.023478846846 0.023725246603 0.014978311261 0.01530166239 0.01562716179 0.015954404084 0.016282985481 0.016612435311 0.016942263257 
0.017271871725 0.017600537388 0.017927665177 0.018252637947 0.01857468085 0.01889382429 0.019209254577 0.019520287732 0.019826405496 
0.020126941125 0.020421168155 0.020708636998 0.020989008187 0.021261927004 0.021526971963 0.021783742084 0.022031547871 0.022269974817 
0.022498377305 0.014378039048 0.014679927028 0.014983665892 0.015288858427 0.015595421345 0.015902285511 0.016209270164 0.016515952691 
0.016821637487 0.017125749439 0.017427788845 0.01772723585 0.018023502191 0.018316382333 0.018605151267 0.018889181088 0.019168018391 
0.019441084029 0.019707930663 0.019968161207 0.020221394437 0.020467411439 0.020705699335 0.020935729359 0.021157127671 0.021369445807 
0.013820523618 0.014102872815 0.014386757923 0.01467181855 0.014957708576 0.015244026202 0.015530337166 0.015816129081 0.016100906723 
0.016384389184 0.016665619161 0.016944334888 0.017220111708 0.017492552457 0.017760929196 0.018025021255 0.018284134415 0.018537975437 
0.01878598199 0.01902784339 0.019263370538 0.019492042359 0.0197134793 0.019927429472 0.020133299041 0.020330815622 0.013302779379 
0.013567292047 0.013832961485 0.014099711864 0.014367061224 0.014634675616 0.014902100729 0.015168922233 0.015434679928 0.015698940597 
0.015961189464 0.016221091459 0.016478176054 0.016732002923 0.016982197911 0.017228131908 0.0174694588 0.017705637297 0.01793665798 
0.018161962892 0.018381217804 0.01859412598 0.01880032863 0.018999524937 0.019191324679 0.019375365741 0.01282205434 0.013070217866 
0.013319483759 0.013569535666 0.013819987401 0.014070554611 0.014320821068 0.01457024953 0.014818717446 0.01506566408 0.015310687141 
0.015553404959 0.015793441566 0.016030395335 0.016263835201 0.016493321373 0.016718513534 0.016938868077 0.017154331653 0.017364299553 
0.017568818035 0.017767431301 0.017959750135 0.018145503409 0.018324487507 0.018496212205 0.012376148887 0.012609434319 0.012843579647 
0.01307827631 0.013313337857 0.013548362799 0.013782993414 0.014016857881 0.014249524573 0.014480754354 0.014710099674 0.014937185912 
0.015161684916 0.015383256347 0.015601345642 0.015815864609 0.016026238537 0.016232236601 0.016433410172 0.016629751271 0.016820864026 
0.017006426486 0.017186219879 0.017359788191 0.017526740517 0.017687316912 0.011962876575 0.012182488385 0.012402848195 0.012623654201 
0.012844635972 0.013065484366 0.013285853492 0.013505405499 0.013723769389 0.013940641041 0.014155674207 0.014368563014 0.014578952566 
0.014786517266 0.014990871461 0.015191693686 0.015388690319 0.015581508134 0.015769902777 0.015953628238 0.016132472786 0.016306169603 
0.016474208459 0.016636635573 0.016793063615 0.016943316819 0.011580319211 0.01178750212 0.011995258316 0.012203336351 0.012411484947 
0.012619428404 0.012826809966 0.013033309344 0.013238573934 0.013442376606 0.013644394973 0.013844333609 0.014041919719 0.014236729827 
0.014428514398 0.014616906439 0.014801660942 0.014982526401 0.015159195053 0.015331482007 0.015499164527 0.015662032582 0.015819702272 
0.015972022076 0.016118706493 0.016259544654 0.01122668743 0.011422933023 0.011619165 0.01181564385 0.01201210184 0.012208244197 
0.012403787231 0.012598385869 0.012791718299 0.012983565399 0.013173671839 0.013361852739 0.01354773639 0.013730997901 0.013911311457 
0.014088398412 0.014261935524 0.014431779713 0.014597817374 0.01475969779 0.014917257074 0.015070197294 0.015218361505 0.015361447871 
0.01549917462 0.015631525802 0.010900864091 0.011086291703 0.011272008535 0.011457885586 0.011643700172 0.011829550002 0.012014265058 
0.012198015321 0.012380482759 0.012561464592 0.012740694317 0.012918047961 0.013093298866 0.013266006263 0.013435866998 0.013602660892 
0.013766086043 0.013925930462 0.014082137584 0.014234483681 0.014382879509 0.014526878678 0.014666355184 0.014800943316 0.014930630332 
0.015055144045 0.010600083437 0.010776008544 0.010952127514 0.011128317649 0.011304372284 0.01148000559 0.011654930487 0.011828794699 
0.012001321434 0.01217236679 0.012342166908 0.012509655488 0.012675110037 0.012838172083 0.012998631276 0.013156017259 0.013310154183 
0.013460940904 0.013608230505 0.013751913606 0.013891789968 0.014027623257 0.014159174523 0.01428616278 0.014408327932 0.014525710984 
0.010321494192 0.010488741443 0.010656022785 0.010823362339 0.010990480776 0.01115715279 0.011323008012 0.01148783282 0.011651328842 
0.011813269588 0.011973602565 0.012132119179 0.01228863749 0.012442915179 0.012594573718 0.012743792064 0.012889592081 0.01303206466 
0.013171234755 0.013307007016 0.013439130503 0.013567489799 0.01369173137 0.013811632558 0.013927137324 0.014038024094 0.010060783639 
0.010220083214 0.010379387962 0.010538612753 0.010697498694 0.010855873991 0.011013471073 0.011169989146 0.011325175679 0.011478867747 
0.011630946328 0.01178119809 0.01192952278 0.012075662833 0.012219324214 0.012360226255 0.012498193816 0.012633072885 0.012764845003 
0.012893383743 0.013018457805 0.013140293967 0.013257779732 0.013371209895 0.013480427442 0.013585344967 0.0098131853173 0.0099650781504 
0.010116979588 0.010268721761 0.010420097974 0.010570855152 0.010720740212 0.010869565599 0.011017048831 0.011163047966 0.011307461618 
0.011450161966 0.011590966782 0.011729514782 0.011865791766 0.011999407084 0.012130233256 0.012258121883 0.012382978016 0.012504744018 
0.012623242017 0.012738271971 0.012849668202 0.012957091913 0.013060504919 0.013159795255 0.0095730702958 0.0097180867792 0.0098630847599 
0.010007813991 0.010152103803 0.010295716522 0.010438474758 0.010580118034 0.010720371547 0.010859232608 0.010996510574 0.01113213086 
0.011265846695 0.011397505127 0.011526855479 0.011653638663 0.011777812463 0.011899179021 0.012017656675 0.012133154663 0.012245503594 