# vtk DataFile Version 5.1
vtk output
ASCII
DATASET STRUCTURED_POINTS
DIMENSIONS 26 26 26
SPACING 0.08 0.08 0.08
ORIGIN -1 -1 0.5
POINT_DATA 17576
FIELD FieldData 1
potential 1 17576 double
0.44466345111 0.44485082316 0.44507130058 0.44530237493 0.4455113561 0.44566797158 0.44575795567 0.44578599412 0.44577262884 
0.44574101177 0.44570654961 0.44567086629 0.44562644649 0.44556528059 0.44548803339 0.44540495933 0.44533200523 0.44528016279 
0.44524883467 0.44522450414 0.44518882122 0.4451313293 0.44505346106 0.44497036086 0.444902129 0.44486334517 0.48464749582 
0.48479988271 0.48499049017 0.48519442501 0.4853743828 0.48550102748 0.48556320397 0.48557411672 0.48556032696 0.48554746105 
0.48554374215 0.48553969336 0.48551741452 0.48546479181 0.48538487528 0.4852976464 0.48522633221 0.48518713723 0.4851749687 
0.48516923274 0.48514472612 0.48508791572 0.48500537656 0.48492052917 0.48485943875 0.48483771394 0.52310449547 0.52322345648 
0.52339025385 0.52357590809 0.52373763527 0.52384032085 0.52387534559 0.52386418616 0.52384227953 0.52383989272 0.52386220502 
0.5238891563 0.52388994955 0.52384607051 0.52376189993 0.52366606523 0.52359306669 0.52356444791 0.5235735846 0.52359002358 
0.52358024096 0.5235256079 0.52343646367 0.5233450435 0.52328625549 0.5232795222 0.55903145159 0.559118831 0.55926573954 
0.55943967523 0.55958944931 0.55967457377 0.55968596758 0.55965150594 0.55961687403 0.55961896113 0.55966148206 0.5597155535 
0.55973870323 0.55970430638 0.55961604662 0.55950999017 0.55943340157 0.55941263841 0.55944100716 0.55948045716 0.55948735149 
0.55943685445 0.55934126679 0.55924058404 0.55918116754 0.55918496837 0.59154509253 0.59160488652 0.59173289664 0.59189542513 
0.59203639581 0.59210910375 0.59210299386 0.59204927736 0.59200283019 0.59200461873 0.59205951772 0.59213272184 0.59217476487 
0.59215003249 0.59206138265 0.59194913868 0.59186862953 0.59185241309 0.59189462071 0.59195244123 0.59197451111 0.59193068974 
0.59183239504 0.59172535366 0.59166343868 0.59167385707 0.62001368467 0.62005064263 0.62015899269 0.62030668005 0.62043672698 
0.62049999272 0.62048482392 0.62042181048 0.62036796495 0.62036695911 0.62042480106 0.62050669658 0.62055942355 0.62054464124 
0.62046168008 0.62035072683 0.62026986481 0.62025509432 0.62030292438 0.62036980217 0.62040254932 0.62036708953 0.62027279699 
0.62016660706 0.62010417721 0.62011588248 0.64413177962 0.64415343885 0.64424075802 0.64436725442 0.6444815762 0.64453675371 
0.64451922243 0.6444584068 0.64440468393 0.64440074231 0.64445367695 0.64453260547 0.64458741979 0.64458047591 0.64450839393 
0.64440847217 0.64433311388 0.64431846742 0.64436297263 0.64442851472 0.64446471641 0.64443811087 0.64435509518 0.64425803525 
0.64419965047 0.64420915912 0.66391022755 0.66392278047 0.66399012968 0.6640919005 0.66418575531 0.66423205895 0.66421808142 
0.66416685869 0.66412096238 0.66411568909 0.66415897618 0.66422570732 0.66427471118 0.66427215571 0.66421498288 0.66413245749 
0.66406831307 0.66405409836 0.6640893954 0.66414488047 0.66417751651 0.66415843623 0.66409097493 0.66401064439 0.66396094612 
0.66396684098 0.67959355601 0.6796022798 0.67965267442 0.67972943184 0.67980122185 0.6798376317 0.67982882814 0.67979166986 
0.679757374 0.67975335907 0.67978552896 0.67983622914 0.67987421889 0.67987343672 0.67983093254 0.67976846311 0.67971868527 
0.679705164 0.6797299765 0.67977050067 0.67979523957 0.67978097743 0.67973048565 0.67966957314 0.67963099712 0.67963396403 
0.69154639011 0.69155525359 0.69159242821 0.69164781656 0.69169924069 0.69172638278 0.69172198029 0.69169822751 0.69167631864 
0.69167449383 0.69169727364 0.69173223082 0.69175797048 0.69175647988 0.69172618141 0.69168233796 0.69164666041 0.69163539536 
0.69165041416 0.69167625083 0.69169137441 0.69167973612 0.69164386138 0.69160085315 0.69157362826 0.69157512792 0.70014977219 
0.70015969833 0.70018755609 0.70022631516 0.70026142529 0.70028015834 0.7002792661 0.70026597869 0.70025417567 0.70025488319 
0.70027074867 0.70029323413 0.700308639 0.70030567356 0.70028397042 0.7002541315 0.70022975458 0.70022134619 0.70022919024 
0.70024328143 0.70024988822 0.70023908295 0.70021360577 0.70018469859 0.70016676789 0.70016799836 0.70572305977 0.70573438243 
0.70575645166 0.70578396022 0.70580757659 0.70581970497 0.70581969885 0.70581330304 0.70580879852 0.70581206079 0.70582358688 
0.70583746083 0.70584491107 0.70583986723 0.7058235189 0.7058027866 0.70578711367 0.70578119806 0.70578471129 0.70579075843 
0.70579001578 0.70577907577 0.70575998158 0.7057408898 0.7057298674 0.70573190335 0.70848927669 0.70850224594 0.70852166857 
0.70854197416 0.70855766837 0.70856418953 0.70856381719 0.70856116491 0.70856157956 0.7085674222 0.708577251 0.70858553308 
0.70858725589 0.70857927852 0.70856523229 0.7085498788 0.70854005548 0.70853715417 0.70853844634 0.70853905379 0.70853281004 
0.7085200127 0.70850417986 0.70849093584 0.70848516305 0.70848862888 0.70856166204 0.70857750879 0.70859719718 0.70861371594 
0.7086233988 0.70862443522 0.70862202726 0.70862059878 0.70862495769 0.70863470056 0.7086448625 0.7086501787 0.70864614751 
0.70863463259 0.70861989055 0.70860745428 0.70860194787 0.70860262213 0.70860392713 0.70860070554 0.70858949324 0.7085732761 
0.70855738719 0.70854724064 0.70854619676 0.70855227157 0.70594270761 0.70596391777 0.70598676131 0.70600279347 0.70600683167 
0.70600117395 0.70599417125 0.70599313966 0.70600188198 0.70601687765 0.70603015277 0.70603365131 0.70602391203 0.7060058762 
0.70598733397 0.70597618037 0.70597553112 0.70598145108 0.70598487524 0.70597875224 0.70596135181 0.70593852624 0.70591966492 
0.70591126041 0.70591519751 0.70592642768 0.70052467812 0.70055456289 0.70058487473 0.70060216507 0.70060018353 0.70058567182 
0.70057130184 0.70056950584 0.70058367656 0.70060764446 0.70062693136 0.70062961225 0.70061231122 0.70058423221 0.70055833036 
0.70054737389 0.70055261748 0.7005668754 0.70057483873 0.70056611605 0.70054003619 0.70050693308 0.70048136891 0.70047387344 
0.70048446068 0.70050376068 0.6920895407 0.69213275299 0.69217539905 0.69219640072 0.69218800452 0.69216114329 0.69213612501 
0.69213231966 0.69215433787 0.69219061047 0.69221950803 0.69222238083 0.69219562924 0.69215284969 0.69211596475 0.69210326685 
0.6921164979 0.6921421717 0.69215802424 0.69214673453 0.692108806 0.69206057413 0.69202451598 0.69201663468 0.6920362097 
0.69206746806 0.68032334507 0.68038405324 0.68044296669 0.68047102972 0.68045658873 0.68041474409 0.68037627307 0.68036871657 
0.68039931571 0.68045126684 0.68049353717 0.68049787026 0.680459411 0.68039808029 0.68034686131 0.68033038878 0.68035276525 
0.68039312075 0.68041897502 0.68040570603 0.68035362673 0.68028554228 0.68023522971 0.6802252281 0.68025489443 0.68030126538 
0.66485174454 0.66493115019 0.66501005029 0.66504771829 0.66502911705 0.66497302012 0.66492010832 0.66490708978 0.6649458243 
0.66501407554 0.6650699262 0.66507730457 0.66502786782 0.66494727839 0.66487901305 0.66485693581 0.66488698375 0.66494173914 
0.66497897446 0.66496462729 0.66489775022 0.66480849752 0.66474074621 0.66472578389 0.66476423213 0.66482569824 0.6453147319 
0.64541042525 0.64550854109 0.64555831539 0.64554002619 0.64547470927 0.64540999539 0.64539142253 0.64543447144 0.64551460669 
0.64558230516 0.64559277199 0.64553533871 0.64543885367 0.64535479867 0.64532493461 0.64535819105 0.64542344374 0.64546931092 
0.64545537314 0.64537647689 0.6452682372 0.64518297645 0.64515944071 0.64520125953 0.64527318696 0.62147117824 0.62157759396 
0.62169027412 0.62175224386 0.62174102541 0.6216756555 0.62160649044 0.62158354514 0.6216253979 0.62170922605 0.62178161296 
0.62179402914 0.62173365431 0.62162870228 0.62153386545 0.62149545732 0.62152568231 0.62159308465 0.62164208041 0.62162739626 
0.62154207044 0.62142150936 0.62132133325 0.62128617047 0.62132225833 0.62139474097 0.59331122 0.59342274433 0.59354258213 
0.59361597782 0.59361753361 0.59356327292 0.59349920578 0.59347498201 0.59351072989 0.59358755066 0.59365499393 0.59366674198 
0.59360729615 0.59350362566 0.59340540115 0.59336007531 0.59338059456 0.59343949525 0.59348324583 0.59346662943 0.5933806194 
0.59325642114 0.59314683832 0.59309742009 0.59311772205 0.59317767649 0.56113806499 0.56124990956 0.56137161554 0.56145460192 
0.56147390281 0.56143956048 0.56138981214 0.5613683165 0.56139468674 0.56145496425 0.56150818184 0.56151443112 0.56145936757 
0.56136373212 0.56127038742 0.56122043186 0.56122773029 0.5612692821 0.56129997389 0.56127944517 0.56119629984 0.56107540721 
0.56096181907 0.56089633789 0.560892065 0.56092678111 0.52557525871 0.52568704576 0.5258094766 0.52590164167 0.52594089267 
0.5259318136 0.52590195898 0.52588596937 0.52590175422 0.52593960112 0.52597232202 0.52596922029 0.52591837899 0.52583435844 
0.52575047885 0.52569876819 0.52569178121 0.52571209183 0.52572609829 0.52569980979 0.52562220418 0.52550756714 0.52539210411 
0.52530861729 0.52527278753 0.52527307293 0.48748972952 0.48760691684 0.48773295336 0.48783611023 0.48789611281 0.48791297082 
0.4879046511 0.48789475122 0.4878983978 0.48791309018 0.48792303656 0.48790804558 0.48785987517 0.48778769728 0.48771378204 
0.4876620889 0.4876413968 0.48764276603 0.4876415309 0.48761106534 0.48753899803 0.4874316263 0.48731213082 0.48720795134 
0.48713467772 0.48709424528 0.44786544826 0.44799379616 0.44812917779 0.44824647915 0.44832846169 0.44837017292 0.44838068739 
0.44837458962 0.44836548747 0.44835753972 0.44834501616 0.44831835606 0.44827142537 0.44820843602 0.44814315807 0.44809085112 
0.44806010591 0.44804771203 0.44803689591 0.44800684089 0.44794222339 0.44784104138 0.44771485787 0.44758428796 0.4474689759 
0.44738290737 0.43107442738 0.43122780396 0.43139864118 0.43157256129 0.43173059953 0.43185369191 0.43193315415 0.43196958791 
0.43197357334 0.43195743601 0.43193175081 0.43189884603 0.43185900927 0.43180878335 0.43175002336 0.43168790672 0.43163084511 
0.4315840761 0.43154790298 0.43151614413 0.4314796694 0.43143333712 0.4313778521 0.43132108013 0.43127389629 0.43124386765 
0.466104349 0.46623220617 0.46637922431 0.46653093977 0.46666660805 0.46676958621 0.46683230146 0.46685987314 0.46686472997 
0.46685954136 0.46685086687 0.46683695267 0.46681107864 0.46676919741 0.46671337462 0.46665329769 0.46659986836 0.46656173538 
0.46653617866 0.4665148955 0.46648533076 0.46644184234 0.46638689637 0.46633208166 0.46628987662 0.46626956341 0.49981309984 
0.49991712536 0.50004325554 0.50017630421 0.50029485942 0.50038042297 0.50042703113 0.50044331258 0.50044490681 0.50044615998 
0.5004518194 0.50045497628 0.50044284492 0.50040867917 0.50035511113 0.50029552486 0.50024455748 0.50021358204 0.50019975559 
0.50018995503 0.50016906037 0.50012901249 0.50007422691 0.50001979844 0.49998089179 0.4999689001 0.5314349422 0.53151658498 
0.53162427861 0.53174242658 0.53184697593 0.53191826102 0.53195045027 0.53195489941 0.53195098175 0.53195572152 0.53197188269 
0.53198916258 0.53198955257 0.53196287314 0.53191143996 0.53185136967 0.53180250871 0.53177724703 0.53177384306 0.53177557251 
0.53176413609 0.53172811962 0.53167380357 0.53161808813 0.53158200994 0.53157584484 0.56030223514 0.56036425807 0.56045537083 
0.5605602686 0.56065307025 0.56071298136 0.56073358579 0.56072794093 0.560718567 0.56072405401 0.5607469676 0.56077386103 
0.56078460348 0.56076491468 0.56071629777 0.56065633132 0.56060939697 0.56058895687 0.56059345275 0.5606048363 0.5606015586 
0.56057080621 0.56051795443 0.56046235258 0.56042759793 0.5604260637 0.58591785242 0.58596346332 0.58603938704 0.58613108887 
0.58621284341 0.58626300272 0.58627589943 0.58626351084 0.5862505681 0.58625520697 0.58628069409 0.58631270054 0.58633001762 
0.58631637307 0.58627245778 0.58621562723 0.58617117006 0.58615386238 0.58616303596 0.58617983314 0.586183014 0.58615773579 
0.58610829693 0.58605551092 0.58602245038 0.58602278055 0.60799530065 0.60802852584 0.60809029498 0.60816774865 0.60823774723 
0.60827991169 0.60828802819 0.60827392447 0.60825982193 0.60826320215 0.6082874108 0.60831978506 0.6083393987 0.60833076296 
0.60829282314 0.60824254047 0.60820226941 0.60818711353 0.60819733728 0.60821572336 0.60822173956 0.60820191145 0.60815857019 
0.60811057617 0.6080810238 0.60808171868 0.62645575586 0.62648069753 0.62652942021 0.62659219271 0.6266499436 0.62668485582 
0.62669091116 0.62667844976 0.62666597803 0.62666847612 0.62668932415 0.62671796179 0.62673663664 0.62673096054 0.62670053107 
0.62665866458 0.62662395218 0.62661085963 0.62661884978 0.62663546341 0.62664194329 0.6266264917 0.62659034563 0.6265502238 
0.62652475377 0.62652515972 0.64138629124 0.64140547454 0.64144342401 0.641492466 0.64153809303 0.64156580661 0.64157162645 
0.64156277124 0.64155352675 0.64155584942 0.64157244776 0.64159525558 0.64161055381 0.64160667034 0.64158315001 0.64155028988 
0.64152246788 0.64151079049 0.64151600852 0.64152836824 0.64153304849 0.6415210149 0.64149236598 0.64146079679 0.64144047766 
0.64144007412 0.65297268278 0.65298881877 0.6530182064 0.6530556422 0.65309014416 0.65311197063 0.65311735752 0.65311268001 
0.65310729222 0.65311013408 0.65312253842 0.65313912392 0.65314993925 0.6531464902 0.65312870255 0.65310455514 0.65308354627 
0.65307345768 0.65307555091 0.65308251856 0.65308470947 0.65307399107 0.65305284954 0.65302934451 0.65301390406 0.6530131777 
0.66143629944 0.6614505968 0.66147368702 0.66150166317 0.66152699754 0.66154328201 0.66154916941 0.66154782366 0.66154609982 
0.66154916939 0.66155842736 0.66156964861 0.66157629737 0.66157268583 0.66155941105 0.66154150159 0.66152558606 0.66151760568 
0.66151718555 0.66152008218 0.66151902705 0.66150906985 0.66149297697 0.66147586491 0.66146495317 0.661464138 0.66697861554 
0.66699163358 0.667010444 0.66703156279 0.66705026353 0.66706207842 0.66706741251 0.66706819658 0.66706925638 0.66707292057 
0.66708008073 0.66708724921 0.66709026972 0.66708582409 0.66707525659 0.6670615705 0.66705019977 0.66704377752 0.66704187117 
0.66704116177 0.66703681386 0.66702749738 0.66701452789 0.66700193287 0.66699442141 0.66699426334 0.66974778818 0.66976063795 
0.66977700634 0.66979342531 0.66980731788 0.66981544911 0.66981979787 0.66982158669 0.66982429448 0.66982925893 0.66983527796 
0.66983995685 0.66983977185 0.6698338064 0.66982449172 0.6698131911 0.66980507835 0.6698001981 0.66979732294 0.66979409553 
0.66978718204 0.66977704636 0.6697655878 0.66975587182 0.66975087036 0.66975149971 0.6698229323 0.66983653612 0.66985222057 
0.66986633786 0.66987608728 0.66988079665 0.66988331484 0.66988546672 0.66988989262 0.66989648798 0.66990229012 0.66990505002 
0.66990215517 0.669894102 0.66988395273 0.6698743832 0.66986830794 0.6698653691 0.66986227603 0.66985722507 0.66984709442 
0.6698351169 0.66982361982 0.66981550498 0.66981286101 0.66981479208 0.66720585965 0.66722186062 0.66723861717 0.66725167907 
0.66725842104 0.66725937707 0.6672593417 0.66726151991 0.66726769202 0.66727666512 0.66728367574 0.66728506572 0.66727865307 
0.66726757414 0.66725540709 0.66724627432 0.66724211657 0.66724155746 0.6672391278 0.66723190149 0.66721880295 0.66720327336 
0.66718997562 0.6671825239 0.66718195502 0.66718614099 0.6618231458 0.66184242516 0.66186225059 0.66187592825 0.6618798295 
0.66187666985 0.66187284575 0.66187430171 0.66188293941 0.66189560595 0.6619051043 0.66190579565 0.66189579851 0.66187937805 
0.66186317102 0.6618538833 0.66185207319 0.66185463184 0.66185392288 0.66184479259 0.6618269661 0.66180610732 0.66178914999 
0.66178165281 0.66178372092 0.66179127264 0.65352898587 0.6535540136 0.65357942208 0.65359484828 0.65359596328 0.65358793711 
0.65357965443 0.65358023383 0.65359191723 0.65360928436 0.65362306642 0.65362297522 0.65360828323 0.6535850295 0.65356346774 
0.65355273372 0.65355357188 0.65356023215 0.65356216501 0.65355108325 0.65352760893 0.65349885849 0.65347631078 0.65346785553 
0.65347295889 0.65348504164 0.64212654076 0.6421593921 0.64219233169 0.64221097309 0.64221046376 0.64219659551 0.64218314968 
0.6421821888 0.64219719343 0.64222056753 0.64223908564 0.64223947939 0.64221928333 0.64218771221 0.64215922274 0.64214591023 
0.64214950645 0.64216090066 0.64216599353 0.6421530571 0.64212240581 0.64208432598 0.64205449607 0.64204370158 0.64205175302 
0.64206915215 0.62739939124 0.62744010986 0.62748192131 0.6275061067 0.62750497587 0.62748646171 0.62746775597 0.62746475834 
0.62748287678 0.62751261965 0.62753553889 0.62753642966 0.62751103598 0.62747077735 0.62743478104 0.62741796086 0.62742329729 
0.62743904377 0.6274469599 0.62743231005 0.62739405388 0.62734586803 0.62730747219 0.62729254061 0.62730263526 0.62732495386 
0.60916336435 0.6092121067 0.60926289773 0.60929337099 0.60929417014 0.60927354926 0.60925118647 0.60924655791 0.6092661759 
0.60929981678 0.60932695338 0.60932745091 0.60929817425 0.60925057734 0.60920731168 0.60918621241 0.60919110726 0.60920965934 
0.60921845366 0.6092021166 0.60915729129 0.60909963929 0.60905185003 0.60903133413 0.60904032719 0.60906468563 0.58733361319 
0.587389028 0.58744766283 0.58748532717 0.58749076467 0.58747199354 0.58744924017 0.5874435945 0.58746260089 0.58749741612 
0.58752481718 0.58752502384 0.58749314271 0.58744104338 0.58739194356 0.58736627705 0.58736841037 0.58738554993 0.5873941332 
0.58737489606 0.5873251111 0.58725999072 0.58720339818 0.58717532294 0.58717922873 0.58720148856 0.56198728125 0.56204783522 
0.56211296474 0.562158004 0.56217122903 0.56215888165 0.56213953457 0.56213394809 0.56215063818 0.56218209988 0.56220655509 
0.56220511934 0.56217190527 0.56211848002 0.56206656816 0.56203649997 0.56203343813 0.56204566517 0.56205001601 0.5620275585 
0.56197463851 0.56190473881 0.56184077963 0.56180336097 0.56179784241 0.56181166882 0.53340737818 0.5334721755 0.53354211381 
0.53359506144 0.53361886175 0.53361657876 0.53360419664 0.53360039728 0.53361409733 0.53363751171 0.53365512198 0.53365002248 
0.53361679702 0.53356435127 0.53351274701 0.53347935011 0.53346959552 0.53347336635 0.53347090975 0.5334447815 0.53338970828 
0.53331740612 0.53324737762 0.53319898179 0.5331788426 0.53317914323 0.50208303063 0.50215194134 0.50222741208 0.50228874066 
0.50232456365 0.50233508652 0.50233233688 0.50233131357 0.50233977644 0.50235357298 0.50236173912 0.50235128957 0.50231758186 
0.50226834943 0.5022186839 0.50218291789 0.50216654908 0.50216041434 0.5021501908 0.50212008111 0.50206448137 0.50199034987 
0.50191481232 0.50185343781 0.50181482619 0.50179640224 0.46866671596 0.46874278439 0.46882505041 0.46889616816 0.46894460404 
0.46896902899 0.46897705124 0.468978497 0.46898144727 0.46898440533 0.46898172012 0.46896468524 0.468930595 0.46888468141 
0.46883757835 0.46880081171 0.46877765599 0.46876332355 0.46874640454 0.4687134484 0.46865824025 0.4685836256 0.46850103312 
0.468425163 0.4683643356 0.46832303308 0.43390879556 0.43399427256 0.43408550146 0.43416767096 0.43422991097 0.43426803664 
0.43428561608 0.4342893154 0.43428557649 0.43427754814 0.43426346495 0.43423996156 0.43420494311 0.4341620264 0.43411794209 
0.43408028663 0.43405262557 0.43403306908 0.4340123439 0.43397965935 0.43392635878 0.4338518001 0.43376193578 0.43366809894 
0.43358254676 0.43351524501 0.41798070825 0.41810552683 0.41823880778 0.4183720097 0.41849342955 0.41859078598 0.41865872534 
0.41869647761 0.41870935518 0.41870329766 0.41868575203 0.41865940328 0.41862639237 0.41858609175 0.41854048988 0.41849247462 
0.41844680002 0.41840592439 0.41837067439 0.41833833201 0.41830438059 0.41826674667 0.4182257869 0.41818560394 0.4181523574 
0.41813047184 0.44886181649 0.44896802976 0.4490838386 0.44920021882 0.44930509703 0.44938893271 0.44944644631 0.44947883587 
0.4494921559 0.44949290248 0.4494849558 0.44947053137 0.44944669168 0.44941341419 0.44937239825 0.44932821618 0.44928664611 
0.44925170376 0.44922302935 0.44919708026 0.44916799518 0.4491333779 0.44909446928 0.44905695866 0.44902713753 0.44901066125 
0.47859987602 0.47868861324 0.47878776506 0.4788885221 0.47897969861 0.47905087497 0.47909786078 0.47912384289 0.47913545849 
0.47914008618 0.47914090866 0.47913618513 0.47912124052 0.47909428739 0.47905707337 0.47901620785 0.47897830187 0.47894894603 
0.47892713985 0.47890820334 0.47888471145 0.47885358487 0.47881655292 0.47878132598 0.47875457993 0.47874269274 0.50659267472 
0.50666548068 0.5067496246 0.50683710822 0.50691605308 0.50697607212 0.50701345361 0.50703285946 0.50704151151 0.50704834163 
0.5070550441 0.50705834159 0.50705129979 0.50703015271 0.50699658096 0.50695823305 0.50692365491 0.50689920967 0.5068841422 
0.50687161936 0.50685390358 0.50682634878 0.50679178899 0.50675778395 0.50673396891 0.50672554643 0.53231709837 0.53237530554 
0.53244599391 0.53252163533 0.53258999487 0.53264045431 0.5326695571 0.53268275711 0.53268828396 0.53269582759 0.53270650489 
0.53271542925 0.53271464702 0.5326987168 0.53266863058 0.5326323824 0.53260120674 0.53258093145 0.53257126986 0.53256458184 
0.53255195241 0.53252862937 0.53249653077 0.53246428409 0.53244279379 0.53243717101 0.5553667181 0.55541226978 0.55547129485 
0.55553593893 0.55559457309 0.5556367353 0.55565946079 0.55566712838 0.55567086354 0.55567811381 0.55569069274 0.55570273207 
0.55570638161 0.55569471551 0.55566857219 0.55563556992 0.55560762699 0.5555906044 0.55558476043 0.55558215994 0.55557376546 
0.5555543205 0.55552527178 0.55549549699 0.55547587872 0.55547246204 0.57547730267 0.57551316047 0.57556160787 0.5756160053 
0.57566526813 0.57570056861 0.57571854237 0.57572320932 0.57572559047 0.5757319148 0.57574441438 0.57575769734 0.57576331492 
0.57575521457 0.57573315354 0.57570429309 0.57567969627 0.5756652476 0.57566165555 0.57566117192 0.575655713 0.57563978842 
0.57561419257 0.57558785958 0.57557073885 0.57556825497 0.59252711814 0.59255564347 0.5925946058 0.59263892111 0.59267996958 
0.5927090758 0.59272315338 0.59272708191 0.59272873134 0.59273440981 0.59274571327 0.59275824299 0.59276456711 0.59275886537 
0.59274053293 0.59271690028 0.59269563404 0.59268339419 0.59268010405 0.59268065976 0.59267670444 0.59266372847 0.59264214811 
0.59261986112 0.59260520924 0.59260320392 0.60651168561 0.60653464055 0.60656584961 0.60660144112 0.60663478517 0.6066583657 
0.60667024128 0.60667391208 0.60667580599 0.60668082531 0.60669037526 0.60670093574 0.6067064662 0.60670214496 0.60668782937 
0.6066687292 0.6066511577 0.60664088189 0.6066374258 0.60663749354 0.60663393231 0.6066234402 0.60660537228 0.60658737025 
0.60657550279 0.60657358309 0.61750698462 0.61752594664 0.61755102283 0.61757934704 0.61760561437 0.61762462011 0.61763474821 
0.61763895062 0.61764119908 0.61764598173 0.61765367671 0.61766176984 0.61766595009 0.6176626422 0.61765086732 0.6176362093 
0.6176223041 0.61761312325 0.61760940691 0.61760818092 0.61760449661 0.61759504538 0.61758084522 0.61756680791 0.61755723687 
0.61755534868 0.6256275257 0.62564363443 0.62566397148 0.62568636286 0.62570658762 0.62572199393 0.62573056718 0.62573526896 
0.6257385751 0.62574270942 0.6257488445 0.62575466497 0.6257571474 0.62575367545 0.6257448269 0.62573320679 0.62572214365 
0.62571432993 0.62571005654 0.62570740812 0.62570302798 0.62569406615 0.62568288628 0.6256717978 0.62566441344 0.62566265816 
0.6309893778 0.63100324382 0.63102023424 0.63103782592 0.63105382786 0.63106548187 0.63107343644 0.6310780628 0.63108181965 
0.63108603438 0.63109096672 0.63109511036 0.63109573131 0.63109190291 0.63108449014 0.63107520433 0.631065999 0.63105945224 
0.63105470524 0.63105104565 0.63104530696 0.63103679029 0.63102718647 0.63101839009 0.63101267034 0.63101132415 0.63368310299 
0.63369570817 0.63371036035 0.63372521645 0.6337375465 0.63374663273 0.63375333024 0.63375761155 0.63376174184 0.63376623135 
0.63377024281 0.63377289587 0.63377207281 0.63376727652 0.63376070626 0.63375231257 0.63374508264 0.63373933623 0.63373441535 
0.6337294026 0.63372221912 0.63371370326 0.63370485032 0.63369711562 0.63369280455 0.63369205075 0.6337587383 0.6337711427 
0.6337846751 0.63379722627 0.63380727008 0.63381391111 0.63381913726 0.63382344127 0.63382777652 0.63383276313 0.63383639886 
0.63383789842 0.63383556911 0.63382971652 0.63382239953 0.63381452469 0.63380866411 0.63380366454 0.63379849068 0.63379238559 
0.63378369003 0.63377379587 0.63376484313 0.63375820829 0.63375481088 0.63375443931 0.63121839932 0.63123135634 0.6312448534 
0.63125633325 0.63126442805 0.63126908012 0.63127242095 0.63127633712 0.63128123675 0.63128711296 0.63129102138 0.63129153533 
0.63128733898 0.63127975341 0.63127117442 0.63126349811 0.6312577615 0.63125400346 0.63124880304 0.63124125176 0.63123058695 
0.63121916246 0.63120901397 0.63120239065 0.63119957198 0.63120026832 0.62601553768 0.62602948181 0.62604405016 0.62605567415 
0.62606223113 0.62606473536 0.62606624747 0.62606952742 0.62607545705 0.62608263437 0.62608728801 0.6260871018 0.62608073425 
0.62607054082 0.62605943479 0.62605127347 0.62604645333 0.62604372559 0.62603891029 0.62602978121 0.62601641211 0.62600204162 
0.6259897813 0.6259822064 0.62598050018 0.62598229451 0.61806175006 0.61807792621 0.61809493579 0.6181073461 0.61811312685 
0.61811320037 0.61811288236 0.61811553948 0.61812267493 0.61813131134 0.61813783893 0.61813650559 0.61812787058 0.61811411304 
0.61810018811 0.61809084531 0.61808651075 0.61808497025 0.61808054352 0.61806957043 0.61805320067 0.61803448116 0.61801879747 
0.61801052563 0.61800917899 0.6180124392 0.60724407831 0.60726378438 0.60728431346 0.60729829601 0.60730341151 0.60730182896 
0.60729936771 0.60730131437 0.60730988845 0.60732099953 0.60732862488 0.60732726039 0.60731550101 0.60729769758 0.60728026654 
0.60726905262 0.60726489386 0.60726382698 0.60726005153 0.60724752793 0.60722707822 0.60720334629 0.6071835662 0.60717328419 
0.60717216725 0.60717696016 0.59345073669 0.59347433692 0.59349904886 0.59351611953 0.59352173585 0.59351894417 0.59351486019 
0.59351616494 0.59352568302 0.59353882188 0.59354788822 0.59354607183 0.59353149136 0.59350958434 0.5934881775 0.59347456431 
0.59346993261 0.59346962244 0.59346558893 0.59345121741 0.5934263275 0.59339697045 0.59337241104 0.59335894967 0.59335741645 
0.5933630651 0.57660725486 0.57663493638 0.57666439811 0.57668513686 0.57669266822 0.57669001505 0.57668529152 0.57668629519 
0.57669625521 0.57671086156 0.57672077131 0.57671768912 0.57670086776 0.57667476547 0.57664987595 0.57663349526 0.57662749388 
0.57662705493 0.57662157776 0.57660499515 0.57657577664 0.57654103148 0.57651055085 0.57649305169 0.57648949922 0.57649463892 
0.55671779799 0.55674967412 0.55678381413 0.55680900742 0.55681975419 0.55681915755 0.55681494419 0.55681616483 0.55682584875 
0.55684051811 0.55684989289 0.55684575593 0.5568267039 0.55679797577 0.55676952135 0.55675013425 0.55674184101 0.55673922715 
0.55673223652 0.55671264751 0.55667935083 0.55663968864 0.55660361 0.55658065246 0.55657296807 0.55657557333 0.53390252032 
0.53393832016 0.53397713272 0.53400726019 0.53402300614 0.53402655257 0.53402475596 0.53402637116 0.53403535696 0.53404813224 
0.53405560771 0.53404987901 0.5340291411 0.53399854491 0.53396765566 0.53394553606 0.53393424037 0.53392788194 0.53391755638 
0.53389493217 0.53385809576 0.53381373852 0.53377212258 0.53374279681 0.53372875236 0.53372552615 0.5084207916 0.50846038616 
0.50850389848 0.50853988582 0.50856242031 0.508571338 0.50857351478 0.50857644998 0.50858460358 0.50859331987 0.50859708331 
0.50858899086 0.50856706339 0.50853533714 0.50850342885 0.50847860888 0.50846385211 0.50845268579 0.50843815407 0.50841219176 
0.50837232621 0.508324141 0.50827701087 0.50823982674 0.50821694795 0.50820526782 0.48067041812 0.48071462717 0.48076352379 
0.48080609133 0.48083587017 0.4808519077 0.48085932558 0.48086416662 0.48086967504 0.48087394652 0.48087313231 0.48086169768 
0.48083815812 0.48080687403 0.48077449522 0.48074777077 0.48072898307 0.48071320336 0.48069452826 0.48066547752 0.48062335556 
0.4805715982 0.48051865468 0.48047275028 0.48043791667 0.48041545622 0.45116475883 0.45121474591 0.45126956903 0.45131930336 
0.45135720748 0.4513811321 0.45139444804 0.45140071434 0.45140334162 0.45140274419 0.45139623149 0.45138094192 0.45135624762 
0.4513253012 0.45129305955 0.45126560739 0.45124325244 0.45122361003 0.45120167427 0.45117056248 0.45112692135 0.45107242019 
0.45101312668 0.45095682657 0.45090852729 0.45087250138 0.42049169866 0.42054812676 0.42060946871 0.42066698671 0.42071342399 
0.42074540322 0.4207638319 0.42077159968 0.42077097908 0.42076474811 0.42075257732 0.42073373009 0.42070758314 0.42067745793 
0.4206463862 0.42061797929 0.42059379778 0.42057241582 0.42054888421 0.42051750894 0.42047372364 0.4204173936 0.42035226749 
0.42028383848 0.42022057164 0.42016939562 0.40537901214 0.40548021464 0.40558543555 0.40568883852 0.40578361736 0.40586092267 
0.40591851072 0.40595413291 0.40597078407 0.40597161144 0.40596015886 0.40594079173 0.40591497359 0.40588346765 0.40584763249 
0.40580987131 0.40577306781 0.40573798161 0.40570592844 0.40567592679 0.40564626514 0.40561576918 0.40558449635 0.40555541654 
0.40553158118 0.40551565568 0.43275387111 0.43284166054 0.4329339892 0.43302508729 0.43310849235 0.43317666347 0.43322704494 
0.4332591413 0.43327580579 0.4332802796 0.43327530485 0.43326328836 0.43324377154 0.43321755713 0.433186353 0.43315251938 
0.43311956644 0.43308872759 0.43306123337 0.43303589929 0.43300942666 0.43298132322 0.43295263705 0.43292562027 0.43290445318 
0.43289156607 0.45913025035 0.45920510844 0.45928489551 0.45936456951 0.45943662005 0.45949589589 0.45953898336 0.45956714706 
0.45958280804 0.45958942774 0.45958987773 0.45958391147 0.45957009464 0.45954896364 0.45952144273 0.45949145543 0.45946174687 
0.45943561976 0.4594127109 0.45939202031 0.45936952869 0.45934446392 0.45931778535 0.45929316747 0.4592739341 0.45926416915 
0.48402516288 0.48408855899 0.48415675533 0.48422537271 0.48428808713 0.48433878673 0.4843751234 0.4843989765 0.48441257471 
0.4844206321 0.48442428466 0.48442353065 0.48441505574 0.48439834795 0.48437433234 0.48434753746 0.48432130517 0.48429910295 