# vtk DataFile Version 5.1
vtk output
ASCII
DATASET STRUCTURED_POINTS
DIMENSIONS 10 10 20
SPACING 0.1 0.1 0.1
ORIGIN 3.25 -0.45 0.55
POINT_DATA 2000
FIELD FieldData 1
potential 1 2000 double
0.047854771863 0.047927104297 0.0480258123 0.048101975494 0.048184812775 0.048274551454 0.048371538854 0.048476152968 0.048587376848 
0.048703904222 0.047239740563 0.047310266391 0.047432429001 0.047506754777 0.04758784646 0.047675908343 0.04777098313 0.047873399903 
0.047982563514 0.04809700675 0.046712842383 0.046780918186 0.046925146786 0.046997158131 0.047076145999 0.047161867969 0.047254736229 
0.047354836055 0.047461564487 0.047573805969 0.046311391203 0.046375910127 0.046541306571 0.046610777413 0.046687269866 0.046770697771 
0.046861371807 0.046959153549 0.047063611591 0.047173829049 0.046058246348 0.046119030899 0.046303602829 0.046370547132 0.046444640103 
0.046525999293 0.046614597865 0.046710510408 0.046813169006 0.046921906699 0.045963295548 0.046019585703 0.046221457577 0.046285813177 
0.046357634473 0.046436996025 0.046523939979 0.046618434942 0.04671994743 0.046827916395 0.046008074104 0.046060142256 0.046249780991 
0.046310292934 0.046378879077 0.046456153233 0.046542250336 0.046637008814 0.046739758269 0.046849322138 0.046186666371 0.046241874715 
0.046416975331 0.046477471427 0.046545984214 0.046623289945 0.046709640918 0.046804977381 0.046907837279 0.047018267253 0.046484112326 
0.046542154392 0.046700242918 0.046761279992 0.046830183577 0.046907799622 0.04699478377 0.047090357848 0.047194788523 0.047306480043 
0.046860327561 0.046921158332 0.047060768011 0.04712290729 0.04719267806 0.047271248032 0.047358476349 0.047456057095 0.047561873848 
0.047674533309 0.055612254975 0.055703066734 0.055801149349 0.055891312673 0.055988784336 0.056093707291 0.056206259512 0.056326087674 
0.056452950243 0.056586185709 0.054984944449 0.05507438803 0.055194885611 0.055283574051 0.055379583053 0.055483125283 0.055593985712 
0.055712218525 0.055837459311 0.055969075916 0.054462395139 0.054549924774 0.054692026293 0.054778996169 0.054873455218 0.054975129031 
0.05508429494 0.055200839308 0.055324442513 0.055454549656 0.054064886682 0.054149548799 0.054312749466 0.054397788002 0.054490283567 
0.054590262443 0.054697767209 0.054812695552 0.05493477087 0.055063615825 0.053806738603 0.053888465881 0.054071123716 0.054154208365 
0.05424488023 0.054343238117 0.054449237471 0.054562800704 0.054683740357 0.054811624631 0.053695222752 0.053773251076 0.053973817071 
0.054054977181 0.054143957999 0.054240793325 0.054345540033 0.054458108924 0.054578231627 0.05470565812 0.05370887578 0.053783221689 
0.053973786219 0.054051522301 0.054137810869 0.054233001043 0.054337111014 0.054450025179 0.054571425138 0.054700340118 0.053852350136 
0.05392952485 0.054105244396 0.054183047475 0.054269373712 0.054364583266 0.054468741116 0.05458170712 0.054702562299 0.054831708539 
0.054114253138 0.054194018074 0.054352749956 0.05443113515 0.05451787854 0.054613378943 0.054717840251 0.054830659623 0.054952077059 
0.055081768832 0.054471746069 0.054553941831 0.054694487145 0.054773664317 0.05486111392 0.054957229701 0.055061476628 0.055175430876 
0.055297765332 0.055427788053 0.063279493983 0.063388794982 0.063486418804 0.06359106645 0.063703430536 0.06382363982 0.063951844319 
0.064087663383 0.06423104686 0.064381657057 0.06261908878 0.062727354586 0.062846638979 0.062950131151 0.063061265376 0.063180368635 
0.063307128675 0.063441651429 0.06358370111 0.063732995973 0.062079693865 0.062186401836 0.062327036493 0.062429312439 0.062539132314 
0.062656768179 0.062782256735 0.062915532542 0.063056401077 0.06320459752 0.061671375511 0.061775911005 0.061937454548 0.06203812607 
0.062146601053 0.062262966291 0.062387209554 0.062519293941 0.062659149857 0.062806546222 0.061401862571 0.061504001204 0.061685397006 
0.061784547866 0.061891711738 0.062006864851 0.062130054834 0.062261183266 0.062400251492 0.062547136201 0.061275153453 0.061374439641 
0.061574455305 0.061672270364 0.061778165407 0.061892252091 0.062014584312 0.062145081592 0.062283675001 0.062430277279 0.06126665403 
0.061362636665 0.061554739843 0.061649327084 0.061753180063 0.061865957607 0.061987936145 0.062118965507 0.062258884942 0.062407004403 
0.061392480535 0.061490972312 0.061667405878 0.06176232851 0.061865994734 0.06197860066 0.062100325323 0.062231018557 0.062370039889 
0.062518002191 0.0616429144 0.061743689454 0.061903061609 0.061998197379 0.06210198553 0.062214703133 0.062336449084 0.062466625126 
0.062605681695 0.062753582141 0.062005312254 0.062108033671 0.062249216079 0.062344882235 0.062449109941 0.062562103731 0.062683633162 
0.06281411578 0.062953619667 0.063101471369 0.070827855594 0.070955478881 0.071052649932 0.071171950863 0.071299288675 0.071434785985 
0.071578724103 0.071730745056 0.071890872013 0.072059011429 0.070125756278 0.070252620302 0.070370895162 0.070489277167 0.070615656911 
0.070750349181 0.070893054766 0.071043977118 0.071203063943 0.071370192982 0.069558921737 0.069684704635 0.069824083544 0.069941535624 
0.070066930289 0.070200468534 0.070342243497 0.07049221653 0.070650425135 0.070816779317 0.069131457635 0.069255583505 0.06941594728 
0.069532222924 0.069656611659 0.069789234591 0.069930115927 0.070079315392 0.070236870267 0.070402637491 0.06884670014 0.06896893334 
0.069149600619 0.069264835263 0.069388293447 0.069520049313 0.069660257172 0.069808894049 0.069965935319 0.07013145595 0.068706347335 
0.068826320867 0.069026569028 0.069140808315 0.069263429043 0.069394541742 0.069534250923 0.069682481256 0.069839322836 0.070004799404 
0.068681750222 0.06879877674 0.068993070743 0.069104516333 0.069225457138 0.069355595042 0.069495141928 0.069644106389 0.069802447696 
0.069969525933 0.068801004646 0.068920228069 0.069097811388 0.069209416521 0.069329945282 0.069459660932 0.069598688732 0.069747051367 
0.069904149897 0.07007071517 0.069053330384 0.069174397334 0.069334426802 0.069445916439 0.069566386006 0.069695916142 0.069834711465 
0.069982204186 0.070139009433 0.070305184241 0.069432071155 0.069554647577 0.069696231966 0.069807996438 0.069928600651 0.070058169993 
0.070196375944 0.070343891618 0.070500730953 0.070666540878 0.078236121921 0.078381785229 0.078478491848 0.078612407427 0.078754665836 
0.078905422758 0.079065016456 0.079233146149 0.079410034126 0.079595609147 0.077490097384 0.077635361171 0.077752711543 0.077885955201 
0.078027680139 0.078177684457 0.078336329869 0.078503606344 0.078679637701 0.078864356829 0.07689155453 0.077036141771 0.077174482289 
0.077307103949 0.07744793983 0.077597283279 0.0777552166 0.07792182933 0.078097242837 0.078281435159 0.076441014333 0.076584587228 
0.076744075771 0.076875824623 0.077015986255 0.077164717033 0.077322081959 0.077488259499 0.077663249429 0.077847165292 0.076139420871 
0.076281384029 0.076461873389 0.076592958384 0.076732502878 0.076880745518 0.077037721298 0.077203564021 0.077378387328 0.077562219622 
0.075986692258 0.076126862193 0.076328034349 0.076458508115 0.076597606413 0.076745484005 0.076902256357 0.077068015177 0.077242858114 
0.077426924874 0.075949785527 0.076087361385 0.07628444347 0.076412490859 0.076550280444 0.0766974393 0.076854358862 0.077021031621 
0.07719756042 0.077383368914 0.076069046767 0.076208408301 0.076387512758 0.076515457973 0.076652512847 0.076799076305 0.076955213916 
0.077121033936 0.07729602593 0.077480996473 0.076330312642 0.07647112351 0.076631848836 0.076759426981 0.076896173888 0.077042276434 
0.077197864242 0.077362520125 0.077537078133 0.077721292135 0.076730465477 0.076872366077 0.07701424034 0.077141786761 0.077278372328 
0.077424225688 0.077578977738 0.077743325741 0.077917524445 0.078101216646 0.085488044631 0.085651433866 0.085747647018 0.085896031646 
0.086053006333 0.086219002507 0.086393899799 0.086578005198 0.086771409593 0.086974178435 0.084699367761 0.084862868526 0.084979283516 
0.085127212236 0.085283882595 0.08544921836 0.08562354256 0.085807043664 0.085999795498 0.08620189718 0.084068567184 0.084231542525 
0.084369082237 0.084516715526 0.084672800187 0.084837671233 0.085011567686 0.085194665801 0.085387026402 0.085588761443 0.083593917409 
0.083756332457 0.083915425095 0.084062505361 0.084218214362 0.084382753027 0.084556386706 0.084739214229 0.084931423204 0.085133089161 
0.083275045572 0.083436295163 0.083617215303 0.083763904412 0.083919334228 0.084083703198 0.084257202596 0.084440010832 0.08463227616 
0.084834109229 0.083110998937 0.083271436939 0.083473728003 0.083620149742 0.083775414982 0.083939758035 0.084113313867 0.084296276064 
0.084488826733 0.084691079238 0.083064118366 0.083221823372 0.0834221956 0.083566521619 0.083720814508 0.083884759755 0.08405871115 
0.084242835552 0.084437223765 0.084641450636 0.083187048902 0.083346129261 0.083527087411 0.083671038163 0.083824326531 0.083987401058 
0.084160349373 0.084343335956 0.084535941521 0.08473929631 0.083460676643 0.083620785154 0.083782336579 0.083925637648 0.084078357843 
0.08424071378 0.084412839995 0.084594924518 0.084786302254 0.084988375844 0.083883851365 0.084044664322 0.084186715573 0.08432970872 
0.08448197747 0.084643774315 0.084815301772 0.084995827827 0.085187147216 0.085388502381 0.092570926743 0.092751882437 0.092847408138 
0.093009967675 0.093181372744 0.093362174306 0.093552284783 0.093752076034 0.093961706178 0.094181301634 0.091742636874 0.091923940642 
0.092039687149 0.092202042269 0.092373372016 0.092553754192 0.092743488745 0.09294288807 0.093152074005 0.093371211791 0.091080968605 
0.091262059111 0.091399160063 0.091561348036 0.091732385928 0.091912547337 0.09210211479 0.092301302517 0.092510278615 0.092729251603 
0.090582891494 0.090763822544 0.090922886462 0.091084928097 0.091255869611 0.09143596541 0.091625508694 0.091824698907 0.092033720694 
0.092252798823 0.090247233782 0.09042740391 0.090609271673 0.090771253291 0.090942199439 0.091122371096 0.091312043551 0.091511439164 
0.091720763556 0.091940225962 0.090072733964 0.090252500914 0.090457114667 0.090619125637 0.090790233787 0.09097063227 0.091160603382 
0.091360414534 0.091570278443 0.091790352801 0.090017181183 0.090194647793 0.090398700004 0.090558995324 0.090729428863 0.090909751525 
0.091100454234 0.091301679937 0.091513603939 0.091736343665 0.090145891033 0.090324273915 0.090507275218 0.090666942426 0.090836113985 
0.091015306143 0.091204722981 0.091404542413 0.091614932766 0.091835498898 0.090433175532 0.090612212967 0.090774589353 0.090933306135 
0.091101651674 0.091279864293 0.091468223877 0.091666875285 0.091875473722 0.092094899355 0.090879024362 0.091058394755 0.091200460286 
0.091358573213 0.091526196279 0.091703596346 0.091891056918 0.09208808489 0.09229608474 0.092514742375 0.099474708737 0.099673007708 
0.099767673268 0.099944030977 0.100129557 0.10032477824 0.10052973006 0.10074483437 0.10097033278 0.10120633307 0.098610929777 
0.098809845779 0.098924755244 0.099101321438 0.099286838662 0.099481816008 0.09968664411 0.099901539673 0.10012676993 0.10036249672 
0.097920751731 0.098119757692 0.098256389361 0.098432913071 0.098618507272 0.098813580018 0.099018423228 0.099233332403 0.099458548345 
0.099694282405 0.097400847928 0.097599906984 0.097759216072 0.097935871128 0.098121628372 0.098316883416 0.098521928037 0.098737057814 
0.098962521841 0.099198559094 0.097049291784 0.097248068634 0.097431248783 0.097608142219 0.097794181756 0.09798974523 0.098195169683 
0.098410720882 0.098636692188 0.098873302227 0.096864962732 0.09706371316 0.097271201145 0.09744839902 0.097634840317 0.097830916687 
0.09803691745 0.098253147821 0.098479852004 0.098717310486 0.096801444974 0.09699829855 0.097206403445 0.097382254635 0.097568198908 
0.097764737774 0.097971748375 0.098189662124 0.098418673186 0.098659009264 0.096937078292 0.097134485657 0.097319641144 0.097494365127 
0.097679242415 0.097874152934 0.098079605294 0.09829586209 0.098523104805 0.09876105953 0.097238230593 0.097435875671 0.097598868151 
0.097772780278 0.097956331793 0.098150010789 0.098354140261 0.098568996269 0.098794266033 0.099030923182 0.09770541 0.097903022753 
0.098044996161 0.098217804668 0.098400356871 0.09859297439 0.098795997365 0.099009192779 0.099233392676 0.099468999649 0.10619149191 
0.10640701433 0.10650048486 0.1066902238 0.10688954217 0.10709857384 0.10731792407 0.10754792514 0.10778879865 0.10804080742 
0.10529662798 0.10551290568 0.10562689213 0.10581705359 0.10601644784 0.10622566844 0.10644506486 0.10667504136 0.10691583687 
0.10716771957 0.10458086643 0.10479764018 0.10493382466 0.1051242039 0.1053239084 0.10553339445 0.10575304499 0.10598322252 
0.10622420312 0.10647626383 0.1040409996 0.10425806001 0.10441775917 0.10460853548 0.10480866029 0.10501857058 0.10523865144 
0.10546924024 0.10571068443 0.10596322351 0.10367476675 0.10389185506 0.10407668488 0.10426793204 0.10446857477 0.10467906254 
0.10489975597 0.10513101576 0.10537312797 0.10562643632 0.10348105913 0.10369846947 0.10390927635 0.1041011368 0.10430247674 
0.10451369173 0.10473518919 0.10496732431 0.1052103969 0.1054647199 0.10340991495 0.10362588431 0.1038381511 0.10402911354 
0.10423032106 0.1044424034 0.10466521313 0.10489932217 0.10514496367 0.10540239077 0.10355314572 0.10376928164 0.10395664173 
0.10414613928 0.10434600818 0.10455616996 0.10477721868 0.10500943172 0.10525310938 0.10550794165 0.1038677451 0.10408378819 
0.10424746665 0.10443586857 0.10463412937 0.10484281792 0.10506229386 0.10529287053 0.10553435701 0.10578770078 0.10435448813 
0.10457012166 0.10471174599 0.10489876054 0.1050957527 0.10530313009 0.10552126336 0.10574999521 0.10599018831 0.10624224694 
0.11271497946 0.11294743318 0.11303965768 0.11324220864 0.1134546218 0.11367714967 0.11391038805 0.11415472791 0.11441052459 
0.11467801318 0.1117937238 0.11202706771 0.11213997588 0.11234320026 0.11255593615 0.11277881281 0.11301231981 0.11325682577 
0.11351270596 0.11378022338 0.11105557617 0.11128991187 0.11142546069 0.11162913298 0.1118424059 0.11206579336 0.11229973521 
0.1125446383 0.11280088452 0.11306875366 0.11049771142 0.11073251968 0.11089265027 0.11109698622 0.11131090591 0.11153492042 
0.11176950717 0.11201505664 0.11227191094 0.11254041649 0.11011782163 0.11035349704 0.11053961243 0.11074467034 0.11095937488 
0.11118420684 0.11141961192 0.11166600661 0.11192375867 0.11219319462 0.1099154602 0.11015076463 0.11036521351 0.11057113799 
0.11078675898 0.11101257448 0.11124901301 0.11149648903 0.11175538638 0.11202603233 0.10983635793 0.1100712303 0.11028767303 
0.11049312891 0.11070906295 0.11093610404 0.11117420803 0.11142398586 0.11168574637 0.11195972993 0.10998768115 0.1102223224 
0.1104117393 0.11061548899 0.11082978499 0.1110546648 0.11129076257 0.11153842646 0.11179797411 0.11206969232 0.11031513375 
0.11054930575 0.11071346371 0.11091582149 0.1111282247 0.11135139462 0.11158569472 0.11183150362 0.11208913974 0.11235837749 
0.11081949744 0.11105293301 0.1111938675 0.11139453568 0.11160543814 0.11182702753 0.11205974636 0.11230395987 0.11255929924 
0.11282724748 0.11904075436 0.11928998336 0.11938047658 0.11959523831 0.11982016261 0.12005556219 0.12030211228 0.12056026875 
0.12083040189 0.12111283868 0.11809720913 0.11834767319 0.11845931116 0.1186748304 0.11890028955 0.11913624716 0.1193832422 
0.11964175829 0.11991214817 0.12019475998 0.11733994535 0.11759157236 0.11772641386 0.1179427472 0.11816895602 0.11840562893 
0.11865327299 0.11891235889 0.1191832802 0.11946638299 0.11676608951 0.11701846254 0.11717893524 0.11739616398 0.11762325909 
0.117860779 0.11810925802 0.11836915334 0.11864087257 0.11892477343 0.11637350471 0.11662703272 0.11681496662 0.11703319484 
0.11726128501 0.11749983989 0.11774936238 0.11801030472 0.11828308346 0.11856807368 0.11616194344 0.11641546618 0.11663363725 
0.11685297726 0.11708221844 0.11732198138 0.11757274814 0.11783498985 0.11810909669 0.1183954815 0.11607554203 0.11632911988 
0.11654950845 0.11676884707 0.11699884517 0.11724002534 0.11749304982 0.11775791385 0.11803517688 0.11832518104 0.11623543116 
0.11648840783 0.11667956638 0.11689690749 0.11712482589 0.11736401294 0.11761456905 0.11787710036 0.11815196324 0.11843946686 
0.11657507823 0.1168272295 0.11699141593 0.11720690027 0.1174330699 0.11767008989 0.11791862866 0.1181790981 0.11845185433 
0.11873669825 0.11709512682 0.11734623214 0.11748576809 0.11769968447 0.11792388243 0.11815911424 0.11840585767 0.11866451889 
0.11893497898 0.11921817394 0.1251654914 0.12543141101 0.12551965225 0.12574603092 0.1259826366 0.12623026651 0.12648951108 
0.12676087356 0.1270447783 0.12734156881 0.12420387511 0.12447124731 0.12458105015 0.12480827866 0.12504575745 0.12529414604 
0.1255540221 0.1258259052 0.12611021388 0.12640731203 0.12343046077 0.12369912346 0.12383288716 0.12406115985 0.1242996164 
0.12454890233 0.12480960427 0.12508223284 0.125367218 0.12566495793 0.12284230375 0.12311208262 0.12327261879 0.12350202304 
0.12374157056 0.12399191749 0.12425364485 0.12452725907 0.12481320403 0.12511187057 0.12243780292 0.12270903681 0.12289860548 
0.12312923196 0.12337001471 0.12362159688 0.12388455064 0.12415939297 0.12444657093 0.12474648601 0.12221678609 0.12248834249 
0.12271019768 0.12294215925 0.12318432312 0.12343733106 0.12370173296 0.1239780547 0.12426675461 0.12456821729 0.12212326274 
0.12239539008 0.12261927575 0.12285176626 0.1230951446 0.1233500012 0.12361706215 0.12389634642 0.12418850475 0.12449386318 
0.1222922829 0.12256344424 0.12275580709 0.12298603864 0.12322706076 0.12347971258 0.12374405995 0.12402081823 0.12431036782 
0.12461306183 0.12264354669 0.12291354824 0.12307716432 0.123305262 0.12354431129 0.12379453375 0.12405666213 0.12433115446 
0.12461841678 0.12491829988 0.12317754808 0.12344617353 0.12358384467 0.12381011838 0.12404696603 0.12429517536 0.12455527895 
0.1248277824 0.12511305847 0.12541075291 0.13108719693 0.131369727 0.13145507609 0.1316921468 0.13193981639 0.13219895827 
0.13247021625 0.13275412434 0.1330511626 0.13336171341 0.13011132192 0.13039561109 0.1305028734 0.13074100779 0.13098976001 
0.13124983904 0.13152189675 0.13180647573 0.13210405546 0.13241504142 0.12932433465 0.12961002166 0.12974216655 0.12998157495 
0.1302315061 0.13049267888 0.13076572653 0.13105121457 0.13134961773 0.13166135505 0.12872357312 0.12901111972 0.12917077212 
0.12941152548 0.12966276319 0.12992518351 0.13019942761 0.13048605975 0.13078557206 0.13109838314 0.12830819094 0.1285965095 
0.12878733635 0.12902953585 0.12928220691 0.12954605696 0.12982171549 0.1301097468 0.13041064696 0.13072484272 0.12807678377 
0.12836624056 0.12859146488 0.12883524344 0.12908951357 0.12935497661 0.12963226999 0.12992194837 0.1302245204 0.13054042432 
0.1279763372 0.12826691282 0.12849357101 0.12873840894 0.12899439591 0.1292621811 0.1295423415 0.12983557962 0.13014195656 
0.1304620441 0.12815520004 0.12844444879 0.12863723011 0.12887953886 0.12913293407 0.12939828385 0.12967572682 0.12996603281 
0.13026962536 0.13058687375 0.12851769077 0.12880542718 0.12896765948 0.12920759158 0.1294587791 0.12972147497 0.12999649424 
0.13028434577 0.1305854623 0.13090022948 0.12906409251 0.1293501652 0.12948512626 0.12972299155 0.12997171158 0.13023218376 
0.13050500263 0.13079066642 0.13108963391 0.13140159286 0.13680344015 0.13710346837 0.13716790956 0.13741839647 0.13768243945 
0.13795968923 0.13824986 0.13855272821 0.13886816556 0.13919610996 0.13582906381 0.13613009826 0.13620777449 0.1364611587 
0.13672785704 0.13700748728 0.1372997521 0.137604428 0.13792137188 0.13825053539 0.13504235684 0.13534412491 0.13543653446 
0.13569315852 0.13596284479 0.13624520971 0.13653992778 0.13684677122 0.13716560504 0.13749636375 0.13443931465 0.1347423771 
0.13485062998 0.13511083156 0.13538386474 0.13566931311 0.13596684875 0.13627622955 0.13659730894 0.13693003396 0.1340173982 
0.1343208484 0.13444719263 0.13471134603 0.1349880795 0.13527696494 0.13557767329 0.13588995269 0.13621364143 0.13654869648 
0.13377320977 0.13407762761 0.1342240876 0.13449254285 0.13477334266 0.13506604125 0.1353702876 0.1356858219 0.13601248891 
0.13635021916 0.13367876307 0.13398657727 0.13413108031 0.13440104143 0.13468383133 0.1349789828 0.135286123 0.13560518792 
0.135935525 0.13627729799 0.13386608802 0.13417202738 0.13429912795 0.13456370987 0.13484133824 0.13513156889 0.13543426559 
0.13574870068 0.13607493983 0.13641287897 0.13423096354 0.13453518412 0.13464672537 0.13490632769 0.13517920472 0.13546511704 
0.13576334201 0.13607380943 0.13639633877 0.13673084921 0.13477590878 0.13507849067 0.13517603484 0.13543105456 0.13569976576 
0.1359813844 0.13627576013 0.13658263837 0.13690185612 0.137232861 0.14230783056 0.1426211959 0.14268981176 0.14295117605 
0.14322624953 0.14351473384 0.14381641519 0.14413114021 0.14445882735 0.14479946578 0.14132828683 0.14164258689 0.14172576614 
0.14198999452 0.14226768368 0.14255852763 0.14286229212 0.14317881737 0.14350801761 0.14384987808 0.14053551997 0.14085128935 
0.14095008278 0.1412175033 0.14149814677 0.14179169234 0.1420978915 0.1424165698 0.14274764249 0.14309110163 0.13992668633 
0.14024299444 0.14035955844 0.14063052234 0.14091446132 0.14121104536 0.14152002248 0.14184121553 0.14217451813 0.14251993463 
0.1394980198 0.13981541178 0.13995166194 0.14022649722 0.14051408087 0.14081405851 0.14112617681 0.14145023061 0.14178612774 
0.14213385133 0.13924780547 0.13956638442 0.13972448358 0.14000355238 0.14029513546 0.14059886984 0.1409144761 0.14124175417 
0.14158059585 0.14193098357 0.13914714577 0.13946952021 0.13962644796 0.13990757615 0.14020164814 0.14050828013 0.14082717011 
0.1411583051 0.14150110535 0.14185576923 0.13934031294 0.13966057062 0.13979785408 0.14007366122 0.1403626279 0.14066438802 
0.14097886994 0.14130541296 0.14164414286 0.14199498457 0.1397112106 0.14002951025 0.14014919655 0.14042008052 0.14070434265 
0.14100183956 0.14131187986 0.14163448344 0.14196951219 0.14231693614 0.14026211214 0.14057857309 0.14068241885 0.14094875658 
0.14122889682 0.14152210073 0.14182832147 0.14214735918 0.14247910041 0.14282349861 0.14760611137 0.14793157624 0.14800556683 
0.14827784786 0.14856389991 0.14886350462 0.14917650497 0.14950281498 0.14984239471 0.1501952803 0.14662561954 0.14695216764 
0.14704168566 0.14731680157 0.14760545255 0.14790740537 0.14822248062 0.14855058706 0.1488916841 0.14924580217 0.14583063404 
0.14615877319 0.14626497253 0.14654325834 0.1468348337 0.1471394527 0.14745694644 0.14778719923 0.1481301614 0.1484858795 
0.14521862133 0.14554749682 0.14567261664 0.1459543815 0.1462492136 0.14655685243 0.14687709685 0.14720983694 0.14755502903 
0.14791269914 0.14478615018 0.14511630357 0.14526235639 0.14554794365 0.14584636638 0.14615735736 0.14648070814 0.14681629631 
0.14716405881 0.14752402706 0.14453175792 0.1448634652 0.14503255848 0.14532231376 0.14562467968 0.14593937344 0.14626617514 
0.14660495364 0.1469556409 0.14731825717 0.14442520226 0.14476090514 0.14492985988 0.14522219813 0.14552752414 0.14584553713 
0.14617599304 0.14651872605 0.14687386559 0.14724095841 0.14462233146 0.1449556844 0.14510316242 0.14539023686 0.14569050945 
0.14600369162 0.14632956103 0.14666817352 0.14701901354 0.14738232495 0.14499676543 0.14532794025 0.14545614451 0.14573833813 
0.14603394995 0.14634268874 0.14666455798 0.14699902565 0.14734621016 0.14770610824 0.14555049887 0.14587962558 0.14599046327 
0.14626815945 0.14655948355 0.14686435973 0.14718223729 0.14751315199 0.14785703869 0.1482139186 0.1527000402 0.15303644708 
0.1531167827 0.15339993778 0.15369686486 0.15400742808 0.15433151749 0.15466909096 0.15502016703 0.15538482357 0.15172241393 
0.15206053901 0.15215669465 0.15244268859 0.15274220407 0.15305509252 0.15338125401 0.15372063461 0.15407323217 0.15443914124 
0.15092898668 0.15126796786 0.15138203464 0.15167114986 0.15197356558 0.15228910651 0.15261767432 0.15295919075 0.15331367308 
0.15368118917 0.15031611924 0.15065645863 0.15079029699 0.15108285401 0.15138849256 0.15170702501 0.15203832339 0.15238232339 
0.15273902362 0.15310848479 0.14988205668 0.150224011 0.15037953551 0.15067586891 0.15098506142 0.15130691127 0.15164128242 
0.15198810103 0.1523473609 0.15271912482 0.14962509126 0.14996862069 0.15014835484 0.1504487965 0.15076187887 0.15108738673 
0.15142517143 0.15177515007 0.1521373125 0.15251171729 0.14951302651 0.14986087423 0.15004140366 0.15034492999 0.15066142022 
0.15099063949 0.15133242034 0.15168665453 0.15205351134 0.15243261004 0.14971247675 0.15005776156 0.1502153555 0.15051366716 
0.1508251483 0.15114958216 0.15148681255 0.1518369461 0.15219952858 0.15257483674 0.1500881979 0.15043111176 0.15056810228 
0.15086157491 0.15116842898 0.15148845909 0.15182172292 0.15216772109 0.15252666114 0.15289856633 0.15064197319 0.15098265732 
0.15110106946 0.15139006601 0.15169266132 0.15200884938 0.15233812008 0.1526805981 0.15303625695 0.15340514297 0.15759168656 
0.15793853726 0.15802568071 0.1583196315 0.15862728754 0.15894857365 0.15928345925 0.1596319535 0.15999410342 0.16037004123 
0.15662050075 0.15696875098 0.15707264226 0.15736939634 0.15767963193 0.158003245 0.15834021377 0.15869051752 0.15905422037 
0.1594314344 0.15583113751 0.15618038599 0.15630272094 0.15660258375 0.15691570049 0.1572419649 0.1575813215 0.15793376607 
0.15829934741 0.15867817392 0.15522035233 0.15557110726 0.15571377735 0.15601705562 0.15633336415 0.15666259087 0.15700466559 
0.15735957448 0.15772736894 0.15810815116 0.15478662824 0.15513916167 0.15530413221 0.15561113721 0.15593095616 0.1562634658 
0.1566085873 0.15696630093 0.15733664654 0.15771972466 0.15452865529 0.15488278888 0.15507260871 0.15538366564 0.15570732536 
0.15604345048 0.15639195258 0.15675280441 0.1571260374 0.15751175001 0.15441137238 0.15477025049 0.15496186368 0.15527647521 
0.1556039648 0.15594417557 0.15629699789 0.15666237821 0.15704032434 0.15743111707 0.15461170208 0.15496781958 0.15513541448 
0.15544485871 0.15576738597 0.1561028496 0.15645115271 0.15681225328 0.15718637585 0.1575731654 0.15498675357 0.15534031612 
0.1554863141 0.15579095471 0.15610888896 0.15643997791 0.15678414029 0.1571415466 0.15751179827 0.15789521156 0.15553805679 
0.15588922825 0.15601574514 0.15631593705 0.15662963512 0.15695671597 0.15729728746 0.15765096957 0.15801796701 0.15839836226 
0.16228394677 0.16263986331 0.16273510044 0.16303966653 0.16335782726 0.16368958066 0.16403493928 0.16439396888 0.16476675506 
0.16515346034 0.16132267756 0.16167966588 0.16179193112 0.16209929967 0.16242004369 0.16275413147 0.16310157082 0.16346241626 
0.16383676737 0.16422476973 0.16053960034 0.1608981389 0.16102913078 0.16133958883 0.16166320075 0.16199992008 0.16234975031 
0.16271273698 0.16308897587 0.16347860699 0.15993305915 0.16029340225 0.16044485943 0.16075869967 0.16108547847 0.16142513834 
0.16177767314 0.16214312193 0.16252157277 0.16291316673 0.15950137682 0.15986348233 0.16003770322 0.1603552294 0.16068548336 
0.16102839838 0.1613839577 0.16175219313 0.16213318281 0.16252707155 0.15924343461 0.15960731537 0.1598066959 0.16012822279 
0.16046226898 0.16080876162 0.16116767056 0.16153902002 0.16192288637 0.16231940528 0.15912158629 0.15949044249 0.15969265781 
0.16001818519 0.16035645678 0.16070738166 0.16107090944 0.16144704301 0.1618358337 0.16223738622 0.15932156025 0.15968746995 
0.15986494246 0.16018534639 0.16051869635 0.16086491347 0.16122395742 0.16159583885 0.16198081815 0.16237859214 0.15969421268 
0.16005739884 0.16021260579 0.16052824527 0.16085703588 0.16119890965 0.16155383665 0.16192203475 0.16230316457 0.16269756878 
0.16024086893 0.16060151261 0.16073662463 0.16104784253 0.16137242136 0.16171030416 0.16206166708 0.162426142 0.16280402039 
0.16319540731 0.16678048798 0.1671441565 0.16724832332 0.16756329554 0.16789171343 0.16823361981 0.16858908582 0.16895822022 
0.1693411668 0.16973810935 0.16583097697 0.16619622521 0.16631749925 0.166635268 0.16696625766 0.1673104993 0.16766805551 
0.16803902771 0.16842355491 0.16882181871 0.16505691323 0.16542397768 0.16556386526 0.16588470533 0.16621854821 0.16656541489 
0.16692535927 0.16729847637 0.16768489998 0.16808480754 0.16445651049 0.16482533486 0.16498588021 0.16531007471 0.16564706126 
0.16599685045 0.1663594882 0.16673506077 0.1671236982 0.16752557617 0.16402848401 0.16439906134 0.16458237487 0.16491021785 
0.16525064847 0.16560366627 0.16596930656 0.16634765068 0.16673882458 0.16714299766 0.16377144242 0.16414411471 0.16435257947 
0.16468437509 0.1650285559 0.16538511143 0.16575407346 0.16613551187 0.16652954616 0.16693634436 0.16364557683 0.16402341231 
0.16423578891 0.16457199561 0.16492076967 0.16528207869 0.16565593768 0.16604239306 0.16644154009 0.16685352074 0.16384413329 
0.16421884803 0.16440610124 0.16473723318 0.16508112963 0.16543777167 0.16580717962 0.16618941046 0.16658456696 0.16699299771 
0.16421289654 0.16458473163 0.16474936517 0.16507577045 0.16541514011 0.16576746799 0.16613278368 0.16651115425 0.16690288676 
0.16730772245 0.16475299801 0.1651221546 0.16526635814 0.16558836747 0.16592354861 0.16627190648 0.16663347981 0.16700854047 
0.16739680075 0.16779863932 
