# vtk DataFile Version 5.1
vtk output
ASCII
DATASET STRUCTURED_POINTS
DIMENSIONS 10 10 20
SPACING 0.1 0.1 0.1
ORIGIN 3.25 -0.45 0.55
POINT_DATA 2000
FIELD FieldData 1
potential 1 2000 double
0.0004004250958 0.00039669268583 0.00039027679722 0.00038662417759 0.00038303587125 0.00037950914142 0.00037604415258 0.00037264044958 0.00036929326489 
0.00036598993643 0.00039699526959 0.00039326304278 0.00038715750663 0.00038354638277 0.00037999823315 0.00037650878946 0.00037307939318 0.00036970976175 
0.00036639454769 0.00036312182542 0.00039349803706 0.00038976056133 0.00038398095414 0.00038040834159 0.00037689673401 0.00037344325214 0.00037004746002 
0.00036670903783 0.00036342272872 0.00036017904302 0.00039030177041 0.00038654715037 0.00038110578324 0.00037756568916 0.00037408628428 0.00037066309859 
0.0003672964311 0.00036398464539 0.00036072363935 0.00035750564894 0.00038763738171 0.00038385369782 0.00037875897731 0.00037524406015 0.00037178833659 
0.00036838945577 0.00036504550306 0.00036175625162 0.00035851675381 0.00035532126977 0.00038560601254 0.00038178080048 0.00037703837579 0.00037353889659 
0.00037009886567 0.00036671593038 0.00036338901758 0.00036011726585 0.00035689589267 0.00035372001944 0.00038612334886 0.00038243976663 0.00037538532458 
0.00037178764802 0.00036826656382 0.00036482037296 0.00036144754185 0.00035814498129 0.00035490544973 0.00035172279591 0.00038517558725 0.00038145712428 
0.00037471637296 0.00037112051196 0.00036760036812 0.00036415770624 0.00036079225446 0.00035750123007 0.00035427585699 0.00035110823176 0.00038451903626 
0.00038076733868 0.00037432987741 0.00037073396088 0.00036721407273 0.0003637729226 0.00036041328087 0.00035713267968 0.00035392040577 0.00035076550598 
0.00038378986321 0.00038001398249 0.00037387255983 0.00037028227712 0.000366767502 0.0003633333325 0.00035998354525 0.00035671510794 0.00035351635094 
0.00035037407479 0.00047426243249 0.00046954684324 0.00046253134529 0.00045796463791 0.00045348752424 0.00044909585504 0.00044478517095 0.00044055380296 
0.0004363960401 0.00043230506177 0.00047090326963 0.00046618860565 0.0004594609807 0.00045493880148 0.00045050423763 0.00044615249875 0.00044188155717 
0.00043768756939 0.00043356572409 0.00042950949936 0.00046750523134 0.00046278692455 0.00045636457336 0.00045188548634 0.00044749170082 0.00044317960232 
0.00043894636004 0.00043478855039 0.00043070179232 0.00042668026621 0.00046428603796 0.00045955545049 0.00045345268647 0.00044901260714 0.00044465674616 
0.00044038111931 0.0004361828558 0.00043205876551 0.00042800482311 0.0004240163984 0.00046140203189 0.00045665086448 0.00045087854503 0.00044647262252 
0.0004421494933 0.00043790600278 0.00043373883513 0.0004296453008 0.00042562197455 0.0004216639779 0.00045893287037 0.00045415178366 0.00044871758206 
0.00044434006321 0.00044004464251 0.00043582799737 0.00043168799794 0.00042762192079 0.00042362583221 0.00041969614441 0.00045899673765 0.00045443287584 
0.00044662662705 0.00044216547364 0.00043780302478 0.00043353480465 0.00042935740887 0.0004252668238 0.00042125765298 0.00041732461414 0.00045717542356 
0.00045259413387 0.00044512407894 0.00044068387108 0.00043634107904 0.00043209362903 0.00042793835096 0.00042387109223 0.00041988623041 0.00041597818548 
0.00045553129987 0.00045093618532 0.00044379307635 0.0004393728691 0.00043504979726 0.00043082219888 0.00042668791151 0.00042264345239 0.00041868215629 
0.00041479726551 0.00045384961634 0.00044924814851 0.00044242346155 0.00043802580338 0.00043372520354 0.00042951995352 0.00042540928356 0.0004213885858 
0.00041745135035 0.00041358956387 0.0005482275894 0.00054253112512 0.00053493980371 0.00052946574493 0.00052410354303 0.0005188482302 0.00051369440367 
0.0005086391771 0.00050367720822 0.00049880349973 0.00054470959965 0.00053901806409 0.00053169508796 0.00052627102291 0.00052095632437 0.0005157463669 
0.00051063750028 0.00050562530475 0.00050070494261 0.00049587164133 0.00054118883901 0.00053549764016 0.00052846058542 0.00052308497429 0.00051781712889 
0.00051265269913 0.00050758765932 0.00050261791299 0.00049773901103 0.00049294638311 0.00053779169298 0.0005320952268 0.00052535809935 0.00052002920908 
0.0005148062339 0.00050968518718 0.00050466193237 0.00049973264177 0.00049489391561 0.00049014140824 0.00053461654222 0.00052890848311 0.000522484285 
0.00051719815064 0.00051201710965 0.00050693651139 0.00050195289036 0.00049706226696 0.00049226172791 0.00048754766439 0.00053171787599 0.00052599105875 
0.00051988794831 0.00051464216189 0.00050949930426 0.00050445604272 0.00049950940017 0.00049465560817 0.00048989130452 0.00048521325537 0.00053142757852 
0.0005259867556 0.00051742257619 0.00051210848112 0.00050691209508 0.0005018286947 0.0004968543401 0.000491983684 0.0004872121182 0.0004825355563 
0.00052889677385 0.00052345317537 0.000515247383 0.00050996832909 0.00050480683255 0.00049975757859 0.00049481720699 0.00048998064601 0.00048524376749 
0.00048060117924 0.00052649300184 0.00052105087083 0.00051319369097 0.000507950022 0.00050282198465 0.00049780643536 0.00049289959771 0.00048809712505 
0.00048339351087 0.00047878369467 0.00052408999823 0.00051865500695 0.0005111370596 0.00050592962035 0.00050083719038 0.00049585626515 0.00049098431227 
0.00048621596079 0.00048154599942 0.00047696906278 0.00062217134655 0.0006154979958 0.0006073420421 0.00060096659479 0.00059472376155 0.00058860812561 
0.00058261464143 0.00057673966013 0.0005709777339 0.0005653247761 0.00061837329894 0.00061171055215 0.00060380415218 0.00059748511692 0.00059129667756 
0.00058523346206 0.00057929132009 0.00057346570503 0.00056775238486 0.00056214688515 0.00061460123715 0.00060794578115 0.0006003057665 0.00059404174318 
0.00058790720345 0.00058189640347 0.00057600505729 0.00057022859319 0.00056456348776 0.00055900548614 0.00061092872605 0.00060427582487 0.00059691583111 
0.00059070665226 0.00058462442619 0.00057866452266 0.00057282240881 0.00056709433462 0.00056147676552 0.00055596519472 0.00060741506472 0.00060075928102 
0.00059369250537 0.00058753572071 0.00058150407652 0.00057559291125 0.00056979896854 0.00056411800338 0.00055854611107 0.00055308032634 0.0006040943194 
0.00059743013473 0.00059066619008 0.00058455945254 0.00057857614717 0.00057271242187 0.00056696484255 0.00056132890413 0.00055580170512 0.00055037993678 
0.00060351331294 0.00059719816147 0.00058786558021 0.00058170683486 0.00057568402332 0.00056979244686 0.00056402693489 0.00055838278781 0.00055285561926 
0.00054744112569 0.00060037998563 0.00059407499594 0.00058512181886 0.00057901061329 0.00057303452175 0.00056718814885 0.00056146730342 0.00055586739891 
0.0005503840675 0.0005450123472 0.00059735150722 0.00059106032612 0.00058247777766 0.00057641362363 0.00057048336409 0.00056468190681 0.00055900550308 
0.00055344938366 0.00054800877667 0.00054267883455 0.00059435424104 0.00058808190211 0.00057985929555 0.00057384312 0.00056795955765 0.00056220374424 
0.00055657182893 0.00055105962181 0.00054566128475 0.00054037302137 0.00069599799725 0.00068835263275 0.00067963348043 0.00067236233442 0.0006652439396 
0.00065827274189 0.00065144364952 0.00064475265364 0.00063819518445 0.0006317665092 0.00069185495071 0.00068422821288 0.00067573876946 0.00066853145519 
0.00066147456362 0.00065456337605 0.00064779328395 0.00064115913872 0.0006346571494 0.00062828267517 0.00068775985775 0.00068014833324 0.00067190486209 
0.00066476019683 0.00065776488266 0.00065091357639 0.00064420134872 0.00063762374439 0.00063117722494 0.00062485732901 0.00068375448499 0.00067615374862 
0.00066817007623 0.00066108812118 0.00065415325716 0.00064736068877 0.00064070551957 0.00063418425985 0.00062779239955 0.00062152653261 0.00067987417283 
0.00067228006134 0.00066456799299 0.00065754738619 0.0006506715138 0.0006439365966 0.00063733771142 0.00063087109808 0.00062453325192 0.00061832019256 
0.00067613838921 0.00066854586702 0.0006611159677 0.00065415510957 0.00064733737233 0.0006406586671 0.00063411488608 0.0006277021374 0.00062141693848 
0.00061525607884 0.00067530137344 0.00066811521389 0.00065800080753 0.00065100488828 0.0006441625867 0.00063746887397 0.00063091867865 0.00062450709874 
0.00061823007741 0.00061208323066 0.00067163213224 0.00066446720605 0.0006547540145 0.0006478163113 0.00064103084501 0.00063439277562 0.00062789689857 
0.00062153886352 0.00061531429226 0.00060921832467 0.00066805876568 0.00066091890956 0.00065159821241 0.00064471844049 0.00063798941209 0.00063140622154 
0.00062496411251 0.00061865888877 0.00061248587949 0.00060644045301 0.00066453940446 0.00065742908152 0.00064848993481 0.00064166837459 0.00063499590213 
0.00062846783803 0.00062207976265 0.00061582697099 0.00060970484186 0.00060370919862 0.0007696424662 0.00076103243265 0.00075174258479 0.0007435814464 
0.00073559244592 0.00072777003875 0.00072011033177 0.00071260814541 0.00070525888806 0.00069805828046 0.00076512139144 0.00075653893903 0.00074745785748 
0.00073936820632 0.00073144849366 0.00072369448603 0.00071610076199 0.00070866307728 0.00070137677957 0.00069423778489 0.00076066444544 0.00075210559591 
0.00074324899427 0.00073523027023 0.0007273802416 0.00071969339163 0.00071216538469 0.00070479209052 0.00069756868869 0.00069049112097 0.00075629473678 
0.00074775552574 0.00073913663975 0.00073118896781 0.0007234075225 0.00071578739237 0.00070832472332 0.00070101480408 0.00069385386944 0.00068683757029 
0.00075203253612 0.00074350960574 0.00073513981697 0.00072726182417 0.00071954815378 0.000711994232 0.00070459586028 0.00069734896471 0.00069024963586 
0.00068329384823 0.00074788886432 0.00073937687987 0.00073126699985 0.00072345793076 0.00071581113071 0.00070832253744 0.00070098763335 0.00069380273558 
0.00068676427683 0.00067986823127 0.00074680975321 0.00073875675588 0.00072784572932 0.00072001944072 0.00071236416756 0.00070487470846 0.00069754547979 
0.00069037232681 0.00068335069483 0.0006764766645 0.00074264456594 0.0007346232217 0.00072413644762 0.00071637806709 0.00070878925141 0.00070136463764 
0.00069409891845 0.00068698773902 0.00068002680665 0.00067321179505 0.0007385738033 0.00073058785311 0.00072051600789 0.00071282567162 0.00070530273814 
0.00069794229268 0.00069073924052 0.00068368930362 0.00067678822572 0.00067003131273 0.00073457408566 0.00072662784255 0.00071695966385 0.00070933707986 
0.00070187994709 0.00069458348672 0.00068744293104 0.0006804540815 0.00067361215179 0.0006669131426 0.00084305809564 0.00083349262476 0.00082361749556 
0.00081457168362 0.00080571728246 0.00079704922255 0.00078856333088 0.00078025444606 0.00077211787022 0.00076414936763 0.00083814320988 0.00082861410831 
0.00081892626065 0.00080995995308 0.00080118281246 0.00079259099031 0.00078417873332 0.00077594209562 0.00076787615004 0.00075997679408 0.00083330522218 
0.00082380868712 0.00081432173812 0.00080543480716 0.00079673548372 0.00078821872513 0.00077988024676 0.0007717153915 0.00076371967799 0.00075588924401 
0.00082855565176 0.0008190886191 0.00080981568565 0.00080100759388 0.00079238508506 0.00078394324013 0.00077567783971 0.00076758439376 0.00075965860687 
0.00075189666103 0.0008239056875 0.00081446490416 0.00080541657056 0.00079668689878 0.00078814063051 0.00077977305498 0.00077158007627 0.00076355747864 
0.00075570119477 0.00074800732405 0.00081936172028 0.00080994220192 0.00080112812837 0.00079247622492 0.00078400574398 0.00077571173926 0.00076759044422 
0.00075963808597 0.00075185073801 0.00074422410996 0.00081803843655 0.00080912367373 0.00079740120356 0.00078875155518 0.00078028948428 0.00077200984569 
0.00076390776508 0.00075597854055 0.00074821779807 0.00074062105507 0.00081340201227 0.00080452854832 0.0007932542911 0.00078468200366 0.00077629546796 
0.00076808940165 0.00076005910856 0.00075219989082 0.00074450741997 0.00073697761732 0.00080886174602 0.00080003383427 0.00078919778375 0.00078070259486 
0.00077239100056 0.00076425786941 0.00075629877511 0.0007485089109 0.00074088418254 0.00073342048406 0.00080440571529 0.00079562740406 0.00078521787391 
0.0007767994005 0.00076856243242 0.00076050185772 0.00075261335582 0.00074489277797 0.00073733544609 0.00072993694621 0.00091620827581 0.00090569816845 
0.00089521747956 0.00088529234423 0.0008755781391 0.00086606930249 0.00085676204196 0.00084765110618 0.00083873210815 0.00082999986889 0.00091089417263 
0.00090043004533 0.00089011293083 0.00088027514729 0.00087064639505 0.00086122136361 0.00085199585434 0.00084296476492 0.00083412384275 0.00082546830065 
0.00090566681546 0.00089524486654 0.00088510408066 0.00087535424369 0.00086581075571 0.00085646928165 0.00084732501823 0.00083837348032 0.00082961036169 
0.00082103116082 0.00090053149544 0.0008901490973 0.00088019652875 0.00087053385212 0.00086107537196 0.00085181674962 0.00084275343126 0.00083388109612 
0.00082519542793 0.00081669221229 0.00089549463904 0.00088514838675 0.00087539328245 0.00086581757878 0.00085644362182 0.00084726730416 0.00083828449845 
0.0008294908361 0.00082088228789 0.00081245461224 0.00089055820005 0.00088024370209 0.00087069502398 0.00086120550405 0.00085191554929 0.00084282132234 
0.00083391854436 0.0008252032919 0.00081667127981 0.0008083187051 0.00088897708632 0.00087920636819 0.00086665963811 0.00085719298324 0.00084793023403 
0.00083886626975 0.00082999665151 0.00082131667509 0.00081282175483 0.00080450790595 0.00088388417066 0.00087416476564 0.00086209048082 0.00085271008731 
0.00084353136082 0.00083454935056 0.00082575949207 0.00081715737587 0.00080873838559 0.00080049901816 0.00087889112502 0.00086922673575 0.00085761527207 
0.00084832045843 0.00083922530997 0.00083032462003 0.00082161403218 0.00081308919987 0.0008047459104 0.00079657969093 0.0008739928553 0.00086438769466 
0.00085322642532 0.00084401703488 0.00083500492092 0.00082618513011 0.00081755341833 0.00080910555122 0.00080083701664 0.00079274374661 0.00098906225166 
0.0009776200356 0.00096650896414 0.00095570998635 0.00094514038156 0.00093479603881 0.00092467228861 0.00091476439114 0.00090506728486 0.00089557658074 
0.00098334917698 0.00097196254211 0.00096098983002 0.00095028609228 0.0009398103796 0.00092955774619 0.0009195232117 0.00090970274159 0.00090009132041 
0.00089068461284 0.00097773142589 0.00096639738954 0.0009555741819 0.00094496650127 0.00093458406909 0.00092442249013 0.00091447716478 0.00090474385297 
0.0008952178767 0.00088589486771 0.00097221106285 0.00096092666007 0.00095026362366 0.00093975130521 0.00092946193185 0.00091939121971 0.00090953477174 
0.0008998882308 0.00089044746446 0.00088120790618 0.00096679106154 0.00095555301401 0.00094505831268 0.0009346409198 0.00092444414544 0.00091446397376 
0.00090469599592 0.0008951360985 0.00088577983691 0.00087662337251 0.00096147086199 0.00095027516338 0.00093995619938 0.00092963365742 0.00091952938944 
0.00090963920179 0.00089995922138 0.00089048539275 0.00088121351185 0.00087213942447 0.00095960931133 0.00094898995848 0.00093560772001 0.00092533017179 
0.00091527241633 0.00090542977729 0.00089579790851 0.00088637223428 0.00087714841647 0.00086812230612 0.00095406858593 0.00094351012794 0.00093062592545 
0.00092044277906 0.00091047717506 0.00090072465853 0.00089118053646 0.00088184041064 0.00087270024549 0.000863755784 0.00094863241273 0.0009381389412 
0.0009257422035 0.00091565314649 0.00090577941137 0.00089611622954 0.00088665921719 0.00087740403468 0.00086834693421 0.00085948308576 0.00094330025952 
0.00093287545576 0.00092095328391 0.00091095805647 0.00090117559588 0.00089160136907 0.00088223108114 0.0008730606236 0.00086408570135 0.00085530182473 
0.0010615911306 0.0010492307184 0.0010374625044 0.0010257944179 0.0010143745932 0.0010031995305 0.00099226412144 0.00098156373679 0.00097109384383 
0.00096084941011 0.0010554834511 0.0010431885342 0.0010315307968 0.0010199660795 0.0010086482132 0.00099757226895 0.00098673399561 0.00097612863156 
0.00096575190147 0.00095559882807 0.0010494789013 0.0010372467519 0.0010257095958 0.0010142488495 0.0010030321949 0.00099205532844 0.00098131385693 
0.00097080331247 0.00096051951401 0.00095045762492 0.0010435777362 0.001031406042 0.0010199981316 0.0010086408727 0.00099752521751 0.00098664698262 
0.00097600217317 0.00096558633894 0.000955395053 0.00094542392058 0.0010377805825 0.0010256651374 0.0010143944783 0.0010031402727 0.00099212541352 
0.00098134574798 0.00097079711879 0.00096047544897 0.00095037648792 0.00094049576979 0.001032084902 0.0010200243146 0.0010088954704 0.00099774428569 
0.00098682985052 0.00097614832864 0.00096569564989 0.00095546778946 0.00094546066764 0.00093566990792 0.0010299146661 0.0010184550793 0.0010042297291 
0.0009931465226 0.00098229922261 0.000971683086 0.00096129413135 0.00095112790941 0.00094118034045 0.0009314469251 0.0010239311083 0.0010125419412 
0.00099884058475 0.0009878602309 0.00097711294804 0.00096659488548 0.00095630136544 0.00094622830864 0.00093637148345 0.00092672676816 0.0010180578774 
0.0010067431437 0.00099355469511 0.00098267643114 0.00097202909554 0.00096160833815 0.0009514096785 0.00094142912602 0.0009316624763 0.00092210587493 
0.0010122968293 0.0010010603806 0.00098837086671 0.00097759475319 0.00096704677823 0.00095672266254 0.0009466183692 0.00093672980323 0.00092705316902 
0.0009175836963 0.0011337683173 0.001120505156 0.0011080503564 0.0010955179252 0.0010832527442 0.0010712513849 0.0010595090676 0.0010480213251 
0.0010367833759 0.0010257904378 0.0011272716458 0.0011140847655 0.0011017099465 0.0010892890743 0.001077133613 0.0010652391742 0.0010536015507 
0.001042216541 0.0010310792335 0.0010201849639 0.0011208863324 0.0011077727173 0.0010954872689 0.0010831779137 0.0010711314735 0.001059343893 
0.0010478108761 0.0010365282035 0.0010254913091 0.0010146954743 0.0011146110808 0.0011015685278 0.0010893791176 0.0010771811997 0.0010652437315 
0.0010535626306 0.0010421339348 0.0010309534038 0.0010200166054 0.001009318911 0.0011084448501 0.0010954693901 0.0010833824161 0.0010712958154 
0.0010594669186 0.0010478922136 0.0010365676212 0.0010254889353 0.0010146518652 0.0010040519506 0.0011023844002 0.0010894749492 0.0010774934387 
0.0010655178737 0.0010537974123 0.0010423287562 0.0010311078657 0.0010201307704 0.0010093930895 0.00099889061786 0.0010998703329 0.0010875798037 
0.0010725075493 0.0010606239657 0.0010489919382 0.0010376074596 0.0010264663414 0.0010155645758 0.0010048979512 0.00099446246987 0.0010934467925 
0.0010812363033 0.0010667144558 0.0010549416954 0.0010434179583 0.0010321388504 0.0010211007963 0.0010102995691 0.00099973104793 0.00098939102298 
0.0010871397565 0.0010750133035 0.0010610297713 0.0010493674126 0.00103795109 0.0010267771654 0.0010158415953 0.0010051403043 0.00099466920684 
0.00098442428608 0.0010809525757 0.0010689141296 0.0010554543727 0.0010439018291 0.0010325927953 0.0010215234749 0.0010106898733 0.0010000879524 
0.00098971385811 0.00097956337104 0.0012055661534 0.0011914176632 0.0011782464296 0.0011648532695 0.0011517474351 0.0011389244097 0.0011263800345 
0.0011141098456 0.0011021091193 0.0010903728619 0.0011986883197 0.0011846267749 0.0011715028542 0.0011582296074 0.0011452407663 0.0011325323982 
0.0011201003437 0.0011079403028 0.0010960475775 0.0010844172301 0.0011919295903 0.0011779523748 0.0011648834175 0.0011517295764 0.0011388576331 
0.0011262637195 0.0011139438329 0.0011018937136 0.0010901087173 0.0010785841541 0.0011852886153 0.0011713930396 0.0011583840883 0.0011453496003 
0.0011325943805 0.0011201147682 0.0011079068649 0.0010959664234 0.0010842889491 0.0010728697319 0.0011787625304 0.0011649452542 0.0011520009858 
0.0011390856377 0.0011264470168 0.0011140815164 0.0011019852974 0.0010901542779 0.001078584035 0.0010672699546 0.0011723477464 0.0011586076567 
0.0011457295638 0.0011329331539 0.0011204108712 0.0011081592666 0.0010961744755 0.0010844526015 0.0010729893655 0.0010617800121 0.0011694516628 
0.0011563405208 0.0011404224376 0.0011277430945 0.001115331108 0.0011031828378 0.0010912942111 0.0010796617138 0.0010682810754 0.001057148135 
0.001162589605 0.0011495681484 0.0011342270122 0.0011216664251 0.001109370306 0.0010973350573 0.0010855570889 0.0010740323366 0.0010627568431 
0.0010517264454 0.0011558505625 0.0011429228492 0.0011281454689 0.0011157031376 0.0011035224278 0.0010915999046 0.001079931839 0.0010685143332 
0.001057343416 0.0010464151686 0.0011492391759 0.0011364090192 0.0011221799081 0.0011098553904 0.0010977898358 0.0010859795506 0.0010744208133 
0.0010631100876 0.0010520432294 0.0010412164595 0.0012769566044 0.0012619414036 0.0012480244857 0.0012337749833 0.0012198321019 0.0012061917866 
0.0011928499739 0.0011798021792 0.0011670438068 0.0011545697908 0.0012697063317 0.0012547885249 0.001240883844 0.0012267619476 0.0012129438511 
0.001199425761 0.0011862038038 0.0011732735735 0.0011606304731 0.0011482696054 0.0012625834168 0.0012477612341 0.0012338737859 0.0012198791746 
0.001206185696 0.0011927897624 0.001179687463 0.0011668746223 0.0011543466231 0.001142098648 0.0012555857302 0.0012408556127 0.0012269898713 
0.0012131223849 0.001199553438 0.001186279445 0.0011732966539 0.0011606009455 0.0011481878689 0.0011360525924 0.0012487090989 0.001234070225 
0.0012202275415 0.0012064870691 0.0011930424089 0.0011798902209 0.0011670267593 0.0011544479986 0.0011421495625 0.00113012666 0.0012419519745 
0.0012274009263 0.001213581696 0.001199968118 0.0011866476161 0.0011736169744 0.0011608725857 0.0011484104667 0.0011362263688 0.0011243156013 
0.0012386322653 0.0012247119008 0.0012079545666 0.0011944836051 0.001181295941 0.0011683882285 0.0011557568928 0.0011433980875 0.0011313081724 
0.0011194829073 0.0012313322809 0.001217511285 0.0012013573149 0.001188012833 0.0011749487478 0.0011621615863 0.001149648047 0.001137404363 
0.0011254266721 0.001113710817 0.0012241622516 0.001210444627 0.001194879747 0.0011816614315 0.0011687203344 0.001156053512 0.0011436572762 
0.0011315280731 0.0011196619988 0.0011080550063 0.0012171276551 0.0012035174791 0.0011885249763 0.0011754322752 0.0011626140427 0.0011500668938 
0.0011377875647 0.001125772301 0.0011140174048 0.0011025190578 0.0013474156023 0.0013314651007 0.0013171337991 0.0013020238678 0.0012872698124 
0.0012728576019 0.0012587741037 0.0012450069701 0.0012315449372 0.0012183775003 0.0013397089588 0.0013238633959 0.0013095513334 0.0012945827924 
0.0012799659234 0.001265686832 0.0012517325883 0.0012380911154 0.0012247512573 0.001211702801 0.0013321305363 0.0013163873866 0.0013021023216 
0.0012872755125 0.0012727959911 0.0012586501771 0.0012448252453 0.0012313093669 0.0012180916702 0.0012051620279 0.0013246844168 0.0013090393645 
0.0012947873606 0.0012801025503 0.0012657606509 0.0012517482072 0.0012380526972 0.00122466246 0.001211566775 0.0011987558195 0.0013173739764 
0.0013018253098 0.001287607696 0.0012730652788 0.0012588612059 0.0012449822609 0.0012314161987 0.0012181515946 0.0012051778926 0.0011924855163 
0.0013102063218 0.0012947499477 0.0012805653485 0.0012661655558 0.0012520995289 0.0012383542887 0.001224917769 0.0012117787889 0.0011989270703 
0.0011863531094 0.0013069304275 0.0012921230231 0.001274848519 0.0012605409525 0.0012465677325 0.0012329159729 0.0012195736827 0.0012065295202 
0.0011937733876 0.0011812955117 0.0012992066376 0.0012845158801 0.0012678136193 0.0012536450076 0.0012398069608 0.001226286735 0.0012130723651 
0.0012001530115 0.0011875182079 0.0011751585166 0.0012916419866 0.0012770705902 0.001260934884 0.001246904366 0.0012332005902 0.0012198108742 
0.0012067236516 0.0011939278939 0.0011814133973 0.0011691708251 0.0012842326975 0.0012697832745 0.0012542068107 0.0012403135997 0.0012267431965 
0.001213483323 0.0012005222568 0.0011878491445 0.0011754539645 0.0011633276269 0.0014178796929 0.001401073634 0.0013859302519 0.001369992399 
0.0013544278459 0.0013392227412 0.0013243641908 0.0013098401226 0.0012956392494 0.0012817511376 0.001409807907 0.0013931175856 0.0013779594733 
0.0013621704874 0.0013467504363 0.0013316857411 0.0013169636382 0.0013025722725 0.0012885005683 0.001274738221 0.001401872034 0.001385293342 
0.0013701275301 0.0013544877306 0.0013392124261 0.0013242882627 0.0013097027087 0.0012954440095 0.0012815013612 0.0012678646987 0.0013940741528 
0.0013776055424 0.0013624346607 0.0013469444153 0.0013318140952 0.0013170305735 0.0013025815728 0.0012884555997 0.0012746419407 0.0012611308057 
0.001386420011 0.0013700576241 0.0013548818757 0.0013395414072 0.0013245562896 0.0013099135765 0.0012956012663 0.0012816079893 0.0012679233164 
0.0012545375656 0.0013789138596 0.0013626545835 0.0013474706493 0.0013322802866 0.0013174405837 0.001302938866 0.0012887632946 0.0012749027661 
0.0012613470232 0.0012480866036 0.0013751624771 0.0013595647719 0.0013414210262 0.0013263449127 0.0013116175138 0.0012972263922 0.0012831598987 
0.0012694069082 0.0012559575407 0.0012428021269 0.0013670219775 0.0013515493122 0.0013340013738 0.0013190722427 0.0013044878713 0.0012902360076 
0.001276304952 0.001262684093 0.0012493632355 0.0012363329691 0.0013590448454 0.0013436999356 0.0013267420193 0.0013119590001 0.0012975168137 
0.0012834031258 0.0012696068143 0.0012561169254 0.0012429235271 0.0012300173857 0.001351228095 0.0013360136356 0.0013196383011 0.0013050006135 
0.0012906995872 0.0012767234724 0.0012630607637 0.0012497009076 0.0012366340568 0.0012238510036 0.001487846 0.0014701939636 0.0014541997719 
0.0014374483269 0.0014210867462 0.0014051015502 0.0013894800334 0.0013742103231 0.0013592811709 0.0013446821534 0.0014794134129 0.0014618871473 
0.0014458457297 0.0014292503894 0.0014130404989 0.001397202779 0.0013817246772 0.0013665945101 0.0013518012371 0.0013373345854 0.0014711232129 
0.0014537186873 0.0014376352068 0.0014211963584 0.0014051383858 0.001389448213 0.0013741136173 0.0013591230044 0.0013444655157 0.0013301311483 
0.0014629771081 0.0014456930176 0.0014295683266 0.0014132861777 0.0013973803488 0.0013818379574 0.0013666468864 0.0013517958201 0.0013372741421 
0.0013230719464 0.0014549805036 0.0014378131932 0.0014216456115 0.0014055204987 0.0013897669891 0.00137437251 0.0013593251091 0.0013446136821 
0.0013302277259 0.0013161575864 0.0014471374741 0.0014300846312 0.0014138683172 0.0013979005366 0.0013822996127 0.0013670531888 0.0013521495247 
0.0013375777311 0.0013233275051 0.0013093893317 0.0014428819413 0.001426501325 0.001407466164 0.0013916355374 0.0013761673429 0.0013610495984 
0.0013462708787 0.0013318204899 0.0013176882735 0.0013038652067 0.0014343336177 0.0014180861022 0.0013996711979 0.0013839954101 0.0013686779471 
0.001353706921 0.0013390710981 0.0013247597154 0.0013107632046 0.0012970721054 0.001425952354 0.0014098406914 0.0013920402059 0.0013765183736 
0.0013613507645 0.0013465255163 0.0013320315048 0.0013178584295 0.0013039964114 0.0012904362535 0.0014177356584 0.0014017625881 0.0013845689419 
0.001369200312 0.0013541816892 0.0013395012773 0.0013251483899 0.0013111125218 0.0012973839913 0.0012839538079 0.0015572907469 0.0015388038067 
0.0015219211636 0.0015043699957 0.0014872246127 0.0014704719532 0.0014540994451 0.0014380952632 0.0014224483076 0.0014071481649 0.001548502412 
0.0015301499854 0.0015131891197 0.0014958011949 0.0014788144667 0.0014622160671 0.001445993714 0.0014301357551 0.0014146311788 0.0013994698401 
0.0015398610407 0.001521641987 0.0015046048917 0.0014873803875 0.0014705525203 0.0014541085431 0.0014380364455 0.0014223246834 0.0014069625475 
0.0013919399311 0.0015313707982 0.001513281644 0.0014961681419 0.0014791073556 0.0014624385816 0.0014461492509 0.0014302274589 0.0014146619611 
0.0013994421736 0.0013845581389 0.0015230346031 0.0015050732809 0.0014878792183 0.0014709825098 0.0014544730551 0.0014383384811 0.0014225671099 
0.0014071478844 0.0013920704089 0.0013773249491 0.0015148568944 0.0014970199567 0.0014797390635 0.0014630066937 0.0014466567617 0.0014306771076 
0.0014150562466 0.0013997833175 0.0013848481383 0.0013702411513 0.0015100662928 0.001492911044 0.0014729676792 0.001456396182 0.0014402001967 
0.0014243680766 0.001408888821 0.0013937519709 0.0013789475337 0.0013644665303 0.001501118872 0.0014841045828 0.0014648063974 0.0014483973668 
0.0014323595888 0.0014166815618 0.0014013523817 0.001386361548 0.0013716996361 0.0013573573146 0.0014923415047 0.0014754709899 0.0014568121851 
0.0014405647653 0.0014246843203 0.0014091594513 0.00139397923 0.0013791337409 0.0013646131783 0.0013504085072 0.0014837323982 0.0014670083887 
0.0014489814026 0.0014328947783 0.0014171708081 0.0014017980417 0.0013867661979 0.0013720649433 0.0013576847869 0.0013436167857 0.0016261924657 
0.0016068817097 0.0015890743996 0.0015707371349 0.0015528210012 0.0015353131516 0.0015182013297 0.001501473853 0.0014851195934 0.0014691282162 
0.001617053151 0.0015978874581 0.0015799700539 0.0015618027473 0.0015440520103 0.001526705092 0.001509750025 0.0014931751989 0.0014769697612 
0.0014611234364 0.0016080658869 0.0015890434784 0.0015710170781 0.0015530200598 0.001535434918 0.0015182491534 0.0015014508607 0.0014850287268 
0.0014689720195 0.0014532706421 0.0015992347513 0.0015803523936 0.0015622150754 0.0015443886465 0.0015269693082 0.0015099448163 0.0014933034159 
0.0014770339703 0.0014611259754 0.0014455694853 0.0015905623245 0.0015718181392 0.0015535640882 0.0015359084988 0.0015186551841 0.001501792092 
0.0014853076826 0.001469191013 0.0014534317328 0.0014380200788 0.0015820535311 0.0015634436309 0.0015450646916 0.001527580223 0.0015104931493 
0.0014937916242 0.0014774643059 0.0014615004487 0.0014458898694 0.0014306229967 0.0015766942419 0.0015587736968 0.0015379104341 0.0015206111278 
0.0015036998661 0.0014871654433 0.0014709971172 0.001455184671 0.0014397184342 0.0014245891305 0.001567356214 0.0015495842561 0.0015293913677 
0.0015122620083 0.0014955163029 0.0014791431415 0.0014631318974 0.0014474724713 0.0014321551509 0.0014171712098 0.0015581907946 0.0015405702702 
0.001521042053 0.001504081767 0.0014875007254 0.0014712878942 0.0014554328003 0.0014399252923 0.0014247562109 0.0014099164386 0.0015491965763 
0.001531730263 0.0015128592692 0.001496067244 0.0014796499963 0.0014635966364 0.0014478966483 0.0014325404116 0.001417518449 0.00140282191 