# vtk DataFile Version 5.1
vtk output
ASCII
DATASET STRUCTURED_POINTS
DIMENSIONS 10 10 20
SPACING 0.1 0.1 0.1
ORIGIN 3.25 -0.45 0.55
POINT_DATA 2000
FIELD FieldData 1
potential 1 2000 double
0.0077568110887 0.0080531310139 0.0084686804347 0.0087929442722 0.0091249132057 0.009463615833 0.0098078235028 0.01015658764 0.010508160704 
0.010860745295 0.0081563283603 0.0084815184666 0.0089226817771 0.0092798385424 0.0096464865953 0.010021412698 0.010403422482 0.010791098448 
0.01118270995 0.011576178738 0.0085850772883 0.0089424543205 0.009411699656 0.0098062811469 0.010212252759 0.010628455446 0.011053517292 
0.011485842486 0.011923409364 0.012364015923 0.0090527975073 0.0094462737445 0.0099468434508 0.010384071929 0.010835165171 0.011298811459 
0.011773573481 0.012257484503 0.012748470638 0.013243983271 0.0095669781487 0.010001391193 0.010536833488 0.011023023473 0.011526086476 
0.012044597749 0.012576892343 0.013120979958 0.013674317219 0.014234040015 0.010133074718 0.010613898686 0.011188315727 0.011730779322 
0.012293663647 0.012875628886 0.013474849855 0.014089035604 0.014715395899 0.015350537658 0.010931348258 0.011471545883 0.012110324936 
0.012712599117 0.013338546996 0.01398717317 0.014657126649 0.015346053194 0.016051204141 0.016769086393 0.011627899457 0.012231801885 
0.01291817543 0.013591711636 0.014294401645 0.015025799298 0.015783951898 0.016566753709 0.017370759881 0.018192093458 0.012375190166 
0.013050030524 0.013792155272 0.014546394545 0.015336841885 0.016162659649 0.017022528926 0.017913963615 0.018833017798 0.019775092097 
0.013163554635 0.013916857443 0.014723252966 0.015568492648 0.016458111267 0.017391989835 0.018368674332 0.019385397602 0.020437988117 
0.021520410826 0.008991682121 0.0093320612512 0.0098055743213 0.010176992864 0.010556996764 0.010944463966 0.011338083493 0.011736423269 
0.012137566853 0.012539950048 0.0094648660671 0.0098386231626 0.01034319891 0.010752517884 0.011172346903 0.011601450262 0.012038308999 
0.012481290632 0.012928490401 0.013377774103 0.0099712915363 0.010382129354 0.010920776888 0.011372994278 0.011837949987 0.012314248789 
0.012800318494 0.013294302119 0.013794058071 0.014297110603 0.010517945346 0.010970197328 0.011546467915 0.012047278489 0.012563523737 
0.013093746519 0.013636198439 0.014188758031 0.0147489985 0.015314264903 0.011110741385 0.01160962886 0.012227443254 0.01278352208 
0.013358326231 0.013950331222 0.014557535846 0.015177604638 0.015807909193 0.016445254812 0.011754534404 0.012305763661 0.012969494772 
0.013588520806 0.014230291064 0.014893091145 0.015574829477 0.016272959913 0.016984446845 0.017705714649 0.012640309445 0.013257163389 
0.013997161797 0.014683819798 0.015396632591 0.016134343795 0.016895186877 0.017676741162 0.018475710607 0.019288493971 0.013413558386 
0.014100637771 0.01489581465 0.01566141264 0.016459223577 0.017288208462 0.018146348716 0.019030860763 0.019938277094 0.020864148072 
0.014239291833 0.015004519344 0.015863443283 0.016718172114 0.017612603005 0.018545555175 0.019515171209 0.020518436589 0.021551308898 
0.022608905218 0.015113072119 0.015964825415 0.016897097218 0.017852096797 0.018855801287 0.019907329945 0.021004818291 0.022144878683 
0.023323380679 0.02453378069 0.010190936655 0.010572736526 0.011100949468 0.011516495394 0.011941321243 0.012374187984 0.012813628104 
0.013257957089 0.013705484472 0.014153978132 0.010729023725 0.011148089056 0.011712221473 0.012170025971 0.012639070188 0.013118150187 
0.013605535712 0.014099433277 0.014597746621 0.015098193417 0.011303944462 0.01176430566 0.01236774199 0.012873053037 0.01339214001 
0.013923480278 0.014465304643 0.015015551455 0.015571909323 0.016131726293 0.011920988278 0.012427423286 0.013073931445 0.01363287444 
0.014208516824 0.014799224237 0.015403028444 0.016017670485 0.016640443698 0.017268506948 0.012584962141 0.013142863048 0.013836752791 
0.014456331455 0.015096151418 0.015754450906 0.016429052102 0.017117378054 0.017816562715 0.018523243158 0.013300036261 0.013915449563 
0.01466133221 0.015349552514 0.016062280998 0.016797568198 0.017553134198 0.018326139209 0.019113263159 0.019910712016 0.014266669634 
0.014952825956 0.015786721049 0.016549357843 0.017339986692 0.018157257981 0.018999068609 0.019862700043 0.020744625324 0.021640805093 
0.015113439865 0.015875579853 0.01677132473 0.017619421991 0.018502097459 0.019417744752 0.020364283136 0.021338492708 0.022336662203 
0.023353915387 0.016015709299 0.016862274247 0.017828849873 0.018773245733 0.019759906927 0.020787523373 0.021853571736 0.022954905636 
0.024086997806 0.025244556853 0.016972045029 0.017912048446 0.018959760422 0.020012332811 0.021116625303 0.022271260146 0.023474103078 
0.024721402997 0.026008207739 0.027328545816 0.011348283599 0.011768515051 0.012347794482 0.012804037425 0.013270139923 0.013744690505 
0.014226104408 0.014712624051 0.015202193911 0.015692822756 0.011944217816 0.012405056618 0.013024512114 0.013526646481 0.014040787104 
0.014565345455 0.015098711569 0.015638783751 0.016183375132 0.016730035005 0.012579940934 0.013085752958 0.013749012795 0.014302577098 
0.014870755031 0.015451853426 0.016043940165 0.016644791337 0.017251906826 0.017862519947 0.01325970085 0.013815503159 0.01452661501 
0.015138054975 0.015767138804 0.016412097041 0.017070781327 0.017740746916 0.018419155309 0.019102807164 0.013987725219 0.014599014906 
0.015362488347 0.016039018367 0.016736896915 0.017454188164 0.018188606954 0.018937326887 0.019697166213 0.020464638696 0.014767466817 
0.015440690413 0.016261330485 0.017011177402 0.017786806883 0.018586184229 0.019406717597 0.020245326281 0.021098503729 0.021962124948 
0.015807339706 0.016555244079 0.017475184715 0.018305114287 0.019164509668 0.020051652305 0.020964186217 0.021899172494 0.02285290987 
0.023820926926 0.016722242545 0.017550951732 0.01853835426 0.019459247025 0.020416181941 0.021407422971 0.022430485799 0.023482093816 
0.024557951969 0.025653098356 0.017695603825 0.018613797447 0.019678168464 0.020700991833 0.021767861214 0.022877017521 0.024025883932 
0.025210723824 0.026426900228 0.027668438635 0.018727658939 0.019744897347 0.020896712306 0.022033858426 0.023224663564 0.024467387898 
0.025759436436 0.027096900964 0.028474272801 0.029885295333 0.012458991699 0.012914451502 0.013540857522 0.014034160948 0.014537727247 
0.015050032984 0.015569363413 0.016093841552 0.016621357786 0.017149563565 0.013106584232 0.013605476873 0.014275748426 0.014817974552 
0.015372688568 0.015938246591 0.016512781071 0.017094079402 0.0176798807 0.018267583992 0.013796317112 0.014343241983 0.015061221804 
0.015658091951 0.016270151592 0.016895590163 0.01753230407 0.018177947564 0.018829856173 0.019485092641 0.014531845779 0.015131963429 
0.015901842433 0.016559983909 0.017236476166 0.017929366154 0.018636365983 0.019354837625 0.020081786234 0.020813901829 0.015316852799 
0.015975899584 0.016802278881 0.017529091139 0.018278033709 0.019047018515 0.019833521137 0.020634634562 0.021446976005 0.022266737252 
0.016154530041 0.016879013659 0.017766867786 0.018570727089 0.019401221228 0.020256159354 0.021132731673 0.022027740601 0.022937354328 
0.023857349348 0.017259112513 0.018061100461 0.019058837797 0.019947443357 0.020866315821 0.021813567235 0.022786667708 0.023782322244 
0.02479671962 0.025825218203 0.018235264907 0.019121838998 0.020191757014 0.021175459177 0.022196062261 0.02325165648 0.024339454384 
0.025455963177 0.026596656489 0.027756156043 0.019272206748 0.020252248946 0.021403984586 0.022493853537 0.023628678165 0.024806423614 
0.026024248583 0.027278106051 0.028563163861 0.029873146227 0.020371038275 0.021454255663 0.022698430667 0.02390698025 0.025170077168 
0.026485778723 0.027850977363 0.029261456109 0.030711550434 0.032194523044 0.013519531128 0.014006869946 0.014676262758 0.015202848302 
0.015739929906 0.016285911786 0.016838986896 0.017397104866 0.017958113651 0.018519584211 0.014213074942 0.014746185218 0.015462615867 
0.016040545582 0.016631286135 0.017233041226 0.017843858528 0.018461477302 0.019083433881 0.019706862519 0.014950553829 0.015534168079 
0.016301592001 0.016936783937 0.017587436479 0.018251734608 0.018927432484 0.019612021482 0.020302722096 0.020996455395 0.015735233595 
0.016374609545 0.017197314947 0.017896406722 0.018614218439 0.019348695038 0.020097423627 0.020857611261 0.021626125765 0.022399485301 
0.016570374746 0.017271407452 0.018154035237 0.018924510595 0.019717545227 0.020530901968 0.021361923998 0.022207548083 0.023064223335 
0.023928004915 0.017459021601 0.018228240631 0.019175803514 0.020026061837 0.02090341159 0.021805476902 0.022729363725 0.023671610485 
0.024628289443 0.025594929669 0.018619339291 0.019467795139 0.020534804022 0.021473457213 0.02244266384 0.023440462834 0.024463996005 
0.025509913953 0.02657407522 0.027651773074 0.019648977282 0.020584759346 0.021727785454 0.022764364348 0.023838241231 0.024947114644 
0.026088056617 0.027257255929 0.028450126493 0.029661154752 0.020740958171 0.021773019736 0.023001530525 0.024147235929 0.025337981629 
0.026571622252 0.027844914605 0.029153761331 0.030492873882 0.031856025093 0.021896753293 0.0230348265 0.024359447133 0.025626448781 
0.026947973266 0.028321742777 0.029744546972 0.031211692416 0.032717307758 0.03425421314 0.014527277862 0.015043097643 0.015751188054 
0.01630721827 0.016873831762 0.017449366909 0.018031932204 0.018619415419 0.019209454159 0.019799634464 0.015261365838 0.015824828906 
0.016582643485 0.017191893486 0.017814058736 0.018447313442 0.0190895159 0.019738373722 0.020391279298 0.021045428248 0.016040683308 
0.016656578573 0.017468113444 0.018136553969 0.018820634139 0.019518351575 0.020227363992 0.020945134442 0.021668694384 0.022394905286 
0.01686817155 0.017541847803 0.018411396727 0.019145667632 0.019898826553 0.020668659551 0.021452640191 0.022247875705 0.02305111086 
0.023858746432 0.017746795494 0.018484150927 0.019416343563 0.020223939691 0.021054205496 0.021904785213 0.022772905192 0.023655343692 
0.024548459666 0.025448182205 0.018679444916 0.019486973569 0.020486776386 0.021375993367 0.022292388356 0.023233417436 0.024196048792 
0.025176742382 0.026171380958 0.027175358278 0.019886321336 0.020773700535 0.021901335575 0.022881614896 0.0238923156 0.024931269792 
0.025995582547 0.027081633601 0.02818519242 0.029301292806 0.020961283814 0.021937769176 0.023144403193 0.024224362429 0.02534129503 
0.026492813131 0.027675722728 0.028886073199 0.030119077153 0.031369116332 0.022099325969 0.023173812483 0.024468669548 0.025659195693 
0.026894371058 0.028171637982 0.029487685349 0.030838074473 0.032217493041 0.033619461059 0.023302052551 0.024484108948 0.025877403928 
0.027190497707 0.02855723168 0.029975166003 0.031440665731 0.032949021996 0.03449407296 0.036068550118 0.015480406595 0.016021283611 
0.016763734771 0.017345357919 0.017937545849 0.018538539955 0.019146385399 0.019758889725 0.020373679214 0.020988141377 0.016249867042 
0.016839812821 0.017634216033 0.018270430334 0.018919510771 0.019579546958 0.020248377355 0.020923527057 0.021602380684 0.022282003424 
0.017065363091 0.017709190724 0.018559517439 0.019256257878 0.019968575453 0.020694387465 0.02143128479 0.022176561236 0.022927259869 
0.023680091424 0.017929603126 0.018632621078 0.019543138265 0.020307016675 0.021089618969 0.021888751201 0.022701731313 0.023525564974 
0.024356924881 0.02519211373 0.018845267898 0.01961335004 0.020588601679 0.021426943151 0.022287800256 0.023168696391 0.024066752968 
0.024978655994 0.025900660645 0.026828602424 0.019815029654 0.020654589969 0.021699380405 0.022620376688 0.023568266629 0.024540427146 
0.025533689483 0.026544389779 0.02756834044 0.028600845449 0.021059284949 0.021978288955 0.023157948103 0.024171746682 0.025215478509 
0.026286724604 0.027382548117 0.028499184946 0.029632300434 0.030776870995 0.022171347671 0.02318041726 0.024441265993 0.025555470163 
0.026705835769 0.027889889159 0.029104249691 0.030344865511 0.031606796867 0.032884403063 0.023346596086 0.024454301187 0.025805261199 
0.027030285818 0.028298923462 0.029608393214 0.03095516262 0.032334732947 0.033741591653 0.035169147923 0.024586368541 0.025802073686 
0.027252807226 0.028600240324 0.029999845697 0.031448895704 0.032943598049 0.034478984778 0.036048904182 0.037645857159 0.016377750033 
0.016940322413 0.017712765596 0.018316211241 0.018930056432 0.019552498394 0.020181509869 0.02081485626 0.021450072501 0.022084527048 
0.017177620162 0.017790261469 0.018616458898 0.019275373188 0.019946970643 0.020629266736 0.021320019009 0.022016752092 0.022716683573 
0.023416905688 0.018023915084 0.01869140263 0.019575279375 0.020295512607 0.021031087204 0.021779840335 0.022539292081 0.023306707219 
0.024079011125 0.024852902048 0.018919091674 0.019646681241 0.020592386681 0.021380419705 0.02218690476 0.02300947254 0.023845460819 
0.024691762991 0.025544989248 0.026401350127 0.019865598199 0.020659041703 0.021670990488 0.022533995395 0.023419091731 0.024323741211 
0.025244962017 0.026179357225 0.027123131301 0.028072068801 0.02086581107 0.021731435181 0.022814220806 0.02376012341 0.024732388806 
0.025728247002 0.026744462871 0.027777295567 0.028822479485 0.029875279174 0.022138557137 0.023082238988 0.024305301192 0.025344998019 
0.026413710769 0.027508946168 0.028627646631 0.029766007178 0.030919580468 0.032083319665 0.023279734691 0.02431356103 0.025619492712 
0.026759287845 0.027934093672 0.029141286767 0.030377412401 0.031638240465 0.03291883497 0.034213473665 0.024483462657 0.025615784193 
0.027012903948 0.028262793004 0.029554738734 0.030885890589 0.032252462383 0.033649853381 0.035072567499 0.036513967656 0.025750943851 
0.026990634181 0.028488041218 0.029858964322 0.031280127281 0.032748472822 0.034260037094 0.035809787563 0.037391447843 0.038997532644 
0.017218731575 0.017799720278 0.01859781504 0.019219410828 0.019851137718 0.020491145809 0.021137362092 0.021787500705 0.022439075272 
0.023089387592 0.018044267187 0.018675938005 0.01952921574 0.020206717508 0.020896576285 0.021596760907 0.022304986111 0.02301871211 
0.023735166637 0.0244513315 0.018916234264 0.019603286307 0.020515566303 0.021254682522 0.022008751765 0.022775544913 0.023552547295 
0.024336919575 0.025125616466 0.025915239595 0.019836839966 0.020584412587 0.021559716432 0.022366760538 0.023191759108 0.024032288014 
0.024885609497 0.025748574735 0.026617778125 0.02748940518 0.020808282101 0.021621983306 0.022664527393 0.023546423723 0.024449786761 
0.025372002555 0.026310032517 0.027260439986 0.028219353103 0.029182571757 0.02183264685 0.022718604424 0.023832790435 0.024797154788 
0.025787085065 0.026799743625 0.027831798008 0.028879460944 0.029938450885 0.031004012486 0.023125276427 0.024087185449 0.025345250387 
0.026403632449 0.027489906098 0.028601432348 0.029735091049 0.030887011224 0.032052756081 0.033227254425 0.024287995233 0.025339345249 
0.026681417558 0.027838880469 0.029029831773 0.030251577425 0.031500553421 0.032772526943 0.034062476403 0.035364695295 0.02551207985 
0.026660889869 0.028094764585 0.029360651392 0.030666703865 0.032009901171 0.033386431271 0.034791548498 0.036219677236 0.037664428013 
0.026798436027 0.028053226909 0.029587206743 0.030971836186 0.032404243366 0.03388128932 0.035398779416 0.036951578461 0.038533524082 
0.040137227537 0.018003311236 0.018599550973 0.01941899831 0.02005522317 0.020701214708 0.021355084963 0.022014730146 0.0226778304 
0.023341871309 0.024004145519 0.018850004903 0.019497182455 0.020372917244 0.021065078859 0.02176916565 0.022483096187 0.023204561465 
0.023930993839 0.024659584656 0.025387306628 0.019742787262 0.020445489537 0.021381196841 0.022134828979 0.022902881502 0.023683092984 
0.024472910494 0.025269488154 0.026069708844 0.026870141088 0.020683635607 0.021446854145 0.022446378355 0.023267561923 0.024106065078 
0.024959412642 0.025824787941 0.02669908127 0.027578808697 0.02846015627 0.021674467641 0.022503615134 0.023570955406 0.024466354129 
0.02538241335 0.026316458145 0.0272654193 0.028225851704 0.029193867147 0.030165238043 0.022717099574 0.023618048199 0.024757327136 
0.025734222671 0.026735650486 0.027758725776 0.028800112354 0.029855974331 0.030921996232 0.031993485796 0.024021550581 0.024995587412 
0.026280483993 0.027350965982 0.028447963101 0.02956879533 0.030710181993 0.031868329679 0.033038778658 0.034216514121 0.025198662565 
0.026260860387 0.027630537087 0.028798331119 0.029997947374 0.031226448345 0.032480326807 0.033755293652 0.035046369748 0.036347887673 
0.026435516428 0.027593479633 0.029055079827 0.030329008221 0.031640847917 0.03298755772 0.034365228212 0.035769148067 0.037193719857 
0.038632612224 0.027732714078 0.028994478465 0.030555638591 0.031945161422 0.033379734155 0.03485605551 0.036369915386 0.037916062375 
0.039488360871 0.041079640075 0.018731886035 0.019340371241 0.020176953243 0.020824449683 0.021481274049 0.022145509493 0.022815025626 
0.023487490221 0.024160373914 0.024830957303 0.019595488447 0.020254850116 0.02114853047 0.021851644494 0.022566152822 0.023289959177 
0.024020715301 0.024755841773 0.025492526822 0.026227739141 0.020504541143 0.021219220367 0.02217353459 0.022937584829 0.023715422979 
0.02450474728 0.025302991514 0.026107299046 0.026914542306 0.027721349154 0.02146078314 0.0222355852 0.023254193313 0.02408500086 
0.024932347231 0.025793742598 0.026666361188 0.027547046801 0.028432298348 0.029318408786 0.02246586185 0.023305983467 0.024392643381 
0.025296547233 0.026220175897 0.02716082097 0.028115361727 0.029080360417 0.030051928065 0.031025956848 0.023521301824 0.024432334978 
0.025590878436 0.026574774885 0.027582058032 0.028609802789 0.029654613587 0.030712672586 0.031779712183 0.032851039878 0.024830185298 
0.02581074885 0.027114483783 0.028191076423 0.029292610397 0.030416389319 0.031559086474 0.032716942662 0.033885488354 0.035059808305 
0.026015068362 0.027081999387 0.028471082558 0.02964265094 0.030844114212 0.032072486534 0.033324236855 0.034595061682 0.035880043477 
0.037173618537 0.027257750254 0.028418192671 0.029899074414 0.031173815359 0.032484108914 0.033826822495 0.035197994353 0.036592918437 
0.038006111625 0.039431360326 0.02855847879 0.029819988688 0.031399494503 0.032786173063 0.034214960504 0.035682440313 0.037184337676 
0.038715498511 0.040269774477 0.04184022222 0.019405254086 0.020023149698 0.020872730957 0.021528354804 0.022192794692 0.022864120017 
0.023540190501 0.024218668902 0.024897024833 0.025572547784 0.02028179952 0.020950221528 0.021857476311 0.0225680764 0.023289469427 
0.024019535906 0.024755927982 0.025496058179 0.026237120621 0.026976102464 0.02120290001 0.021926124064 0.022894426835 0.023665090313 
0.02444881686 0.025243298217 0.026045946038 0.026853913437 0.027664087306 0.0284731124 0.022170057151 0.022952683684 0.023985493291 
0.024821752587 0.025673687976 0.026538778857 0.027414195176 0.028296797187 0.029183137055 0.030069482953 0.02318465477 0.024031630966 
0.025132461034 0.026040321375 0.026966850627 0.027909318641 0.028864630103 0.029829299424 0.030799552296 0.031771219677 0.024247929476 
0.025164555072 0.026336937965 0.027322889374 0.028330945288 0.029358152757 0.030401111765 0.03145604376 0.032518729342 0.033584528824 
0.025554486554 0.026536575736 0.027851338084 0.028928623835 0.030029213537 0.031150310366 0.032288664106 0.033440432827 0.034601332511 
0.035766489238 0.026741081651 0.027807321937 0.029207936557 0.030377422731 0.031574755993 0.032796923539 0.034040389431 0.035300882607 
0.03657355486 0.037852989015 0.027983313983 0.029140352578 0.030632519082 0.031901764699 0.033204062748 0.034536244028 0.035894320359 
0.037273643486 0.038668818964 0.040073759398 0.029281102969 0.030535934006 0.032125690753 0.033502721307 0.034918829782 0.036370505589 
0.037853465053 0.039362577415 0.040891870732 0.042434591713 0.020015734853 0.020639899882 0.021495463667 0.022158471943 0.022829436229 
0.023506392555 0.02418716919 0.024869421709 0.025550643831 0.026228171512 0.02089732885 0.02157001027 0.022485215535 0.023203158229 
0.023930761363 0.02466587436 0.025406133371 0.026148970484 0.026891619582 0.027631135656 0.021822847679 0.022547999802 0.023526723345 
0.024304478605 0.02509384695 0.025892499455 0.02669785682 0.027507101256 0.028317191514 0.029124858911 0.022794023044 0.023575894573 
0.024622182485 0.025465014514 0.026321710686 0.027189747544 0.028066318264 0.028948332517 0.02983243196 0.030715005114 0.02381248792 
0.024655650388 0.025773702604 0.026687283046 0.027617314958 0.028561068461 0.029515491384 0.030477197214 0.031442483468 0.032407317564 
0.024879762696 0.025789106819 0.026983253469 0.027973668476 0.028983501255 0.030009813225 0.031049279427 0.032098173136 0.033152457145 
0.034207681364 0.026203681889 0.027196874817 0.028501247593 0.029571954926 0.030665478101 0.031778738857 0.032908216142 0.0340498754 
0.035199247404 0.036351362629 0.027392983688 0.02846680644 0.029854850021 0.031014375096 0.032200752601 0.033410738394 0.034640466246 
0.03588560557 0.037141154452 0.038401640696 0.028633501824 0.029793964235 0.031271105623 0.032526581454 0.033813601761 0.035128638133 
0.036467585481 0.037825620759 0.039197276208 0.040576499717 0.029925123167 0.031178351274 0.032750392463 0.034109434263 0.035505295629 
0.036934285165 0.038391906803 0.039872912943 0.04137132978 0.042880461315 0.02058323632 0.021212177813 0.022070128012 0.022735927889 
0.023409041563 0.024087487263 0.024769113145 0.025451585862 0.026132444474 0.026809051414 0.02147089101 0.022147604286 0.023064839902 
0.023784445486 0.024512954463 0.025248213347 0.025987874341 0.026729394415 0.027470043018 0.028206917347 0.022401201783 0.02312943666 
0.024109676642 0.024887709984 0.025676458769 0.026473598899 0.027276574302 0.028082596542 0.028888664393 0.029691571445 0.023375660026 
0.024159448519 0.025206556487 0.026047962816 0.026902171371 0.027766669043 0.028638672976 0.029515133305 0.030392747187 0.03126797425 
0.024395663338 0.025239300842 0.026357260128 0.027267344373 0.028192622005 0.029130378683 0.030077588675 0.031030912614 0.03198672125 
0.032941102303 0.025462452193 0.026370520605 0.027563403634 0.028547833058 0.029550187532 0.030567542169 0.031596605476 0.032633733505 
0.033674932642 0.034715848963 0.026769479464 0.027757463494 0.029059165093 0.030121686794 0.031205171825 0.032306568739 0.033422378823 
0.034548599626 0.035680960351 0.036814572716 0.027951545578 0.029017353716 0.03040148806 0.031549424377 0.032722051916 0.033916080872 
0.035127734598 0.036352706764 0.037586156011 0.038822776882 0.029182177975 0.030331315743 0.031802769243 0.033042768639 0.034311634709 
0.035605878128 0.036921473716 0.038253668156 0.039597172108 0.040946115668 0.030460968426 0.031699207061 0.033263172666 0.034602037691 
0.03597456431 0.037377092142 0.038805149486 0.040253628408 0.04171671583 0.043187913319 0.021099152639 0.021730548028 0.022587519487 
0.023253644264 0.023926393494 0.024603805235 0.025283743728 0.025963918233 0.0266418826 0.027315052171 0.021989615666 0.022667859601 
0.023583482065 0.024302102089 0.025028820977 0.025761508617 0.026497831813 0.027235300575 0.027971221423 0.02870274713 0.022921321364 
0.023649955701 0.024627783888 0.025403226514 0.026188460322 0.02698117148 0.027778833456 0.02857870262 0.029377832081 0.030173084612 
0.023895530202 0.024678343606 0.025722042973 0.026558956154 0.027407581372 0.028265423681 0.029129735352 0.029997519292 0.030865540514 
0.031730341678 0.024913393605 0.02575442271 0.026867748581 0.027771071493 0.028688301593 0.029616748818 0.030553427806 0.031495066568 
0.032438112381 0.033378758076 0.025975907745 0.026879420211 0.02806618686 0.029041170366 0.030032561295 0.031037460618 0.032052629409 
0.033074498023 0.034099167023 0.035122442694 0.027261813003 0.028241211619 0.02953505454 0.030585726557 0.031655495317 0.032741339751 
0.033839815997 0.034947068115 0.036058803242 0.037170419488 0.028432719807 0.02948694345 0.030861616525 0.031994170519 0.033149209316 
0.034323481428 0.03551325957 0.036714280562 0.037921979519 0.03913115003 0.029649483603 0.030783603885 0.032243477129 0.033463931986 
0.034710695165 0.035980270255 0.03726866439 0.038571258771 0.039882936997 0.041198052693 0.030911474001 0.032130716734 0.033680401526 
0.034995062334 0.036340274353 0.037712347421 0.03910699651 0.040519208715 0.041943373178 0.043373276616 0.021565256671 0.022196992359 
0.023049855475 0.023714058514 0.024384186779 0.025058294406 0.025734278925 0.026409875684 0.027082688849 0.02775018839 0.022455588259 
0.023133085428 0.024043731087 0.02475896446 0.025481478544 0.026209169048 0.026939747959 0.027670747714 0.028399538914 0.029123339484 
0.023385621503 0.024112229429 0.025084037022 0.025854349532 0.02663349693 0.027419202027 0.028208965878 0.029000116536 0.029789763487 
0.030574845971 0.024356416255 0.025135680619 0.026172118632 0.027001826476 0.027842143345 0.028690602944 0.029544503069 0.030400908029 
0.0312566604 0.032108396432 0.025368891918 0.026204571748 0.027309165799 0.028202867478 0.029109183057 0.030025456182 0.030948755416 
0.03187588074 0.032803375372 0.033727542912 0.026423800917 0.027319867985 0.028496177547 0.029458716463 0.030436147104 0.031425606795 
0.03242392026 0.033427600992 0.034432866299 0.035435653458 0.027684933292 0.028652825181 0.02993410644 0.030969786838 0.032022711125 
0.03308989569 0.034167973671 0.035253193058 0.036341397368 0.037428170071 0.028841293144 0.029880885089 0.031241097866 0.032355028952 
0.033489265463 0.034640602753 0.035805394764 0.036979518285 0.038158526775 0.039337419119 0.030040771651 0.031156718769 0.032599759211 
0.033797405429 0.035018800509 0.036260510075 0.03751855958 0.03878855263 0.040065538591 0.041344076481 0.03128256436 0.032479633055 
0.034009573265 0.035296578351 0.036611190271 0.037949700816 0.039307972144 0.040681060119 0.042063605506 0.043449665679 0.02198348905 
0.022613645059 0.023459510446 0.024119784633 0.024785272316 0.025454054261 0.026124060823 0.026793077779 0.027458757252 0.028118627767 
0.022871038248 0.023545751472 0.024448331737 0.025158037405 0.025874205583 0.026594759408 0.027317450843 0.02803986835 0.028759437195 
0.029473451101 0.023796668541 0.024519078417 0.025481579758 0.026244502391 0.027015306426 0.027791750149 0.028571394064 0.029351606377 
0.030129578923 0.030902338278 0.024761241115 0.025534668135 0.02656035892 0.027380506002 0.02821015044 0.029046871291 0.029888021922 
0.030730727878 0.031571937379 0.032408380206 0.025765472232 0.026593408912 0.027685593657 0.028567205133 0.029460134978 0.030361788423 
0.031269290366 0.032179523645 0.033089133313 0.03399454309 0.026809893891 0.027696008719 0.028857991848 0.029805526898 0.030766452873 
0.031737961308 0.032716947839 0.033700022829 0.034683521602 0.035663525655 0.028043153553 0.02899704937 0.030261520734 0.031279551288 
0.032313003611 0.033358953296 0.034414115549 0.035474852961 0.036537186486 0.037596781027 0.029182073979 0.030204467333 0.031545750337 
0.032638353368 0.033749140559 0.034874964333 0.036012271597 0.037157104626 0.038305079372 0.039451546812 0.030361395483 0.031456545373 
0.032878100885 0.034050224139 0.035243622005 0.036454918532 0.037680277983 0.038915368482 0.040155512268 0.041395484623 0.03158015458 
0.032752398932 0.034257810324 0.035514534454 0.036795978212 0.038098532447 0.039418038344 0.04074988613 0.042088851814 0.043429307409 
0.022355903391 0.022982757136 0.02381897878 0.024473533412 0.025132590474 0.025794263266 0.026456523073 0.027117206061 0.027774021593 
0.028424567073 0.023238304637 0.023908413344 0.024800122313 0.025502420605 0.026210363137 0.026921910131 0.027634860519 0.028346858585 
0.029055404007 0.029757864861 0.024157115886 0.024873415154 0.025823642576 0.026577200065 0.027337697992 0.028102933803 0.028870521894 
0.029637898962 0.030402338372 0.031160953107 0.025113011478 0.025878592044 0.026890411539 0.027698940798 0.028515880387 0.029338850469 
0.0301652693 0.030992350839 0.031817116345 0.032636414503 0.026106514954 0.026924616571 0.028001121063 0.02886852739 0.029745998395 
0.030630976051 0.031520664368 0.032412035924 0.033301834517 0.03418663091 0.027137966431 0.028011972335 0.029156231599 0.030086604296 
0.031028898939 0.031980377163 0.032938011721 0.033898515593 0.034858351646 0.035813749565 0.028340785062 0.029278599354 0.030522435098 
0.031520599981 0.032532418926 0.033555032866 0.034585252018 0.035619562175 0.036654136311 0.03768485325 0.029459833928 0.030462905121 
0.031781270758 0.032850335181 0.033935533048 0.035033790533 0.036141658348 0.0372553177 0.03837056004 0.039482941853 0.030616611102 
0.03168883191 0.033084792471 0.034229222134 0.035392548833 0.036571476775 0.037762283259 0.038960795589 0.040162532016 0.041362512172 
0.031810031246 0.032955337037 0.034432036342 0.035656391716 0.036902712779 0.038167474002 0.039446637515 0.040735786398 0.042029930674 
0.04332368356 0.022684636059 0.023306651994 0.024130825101 0.024778083785 0.025429140823 0.026082147751 0.02673512169 0.027385954077 
0.028032418352 0.028672182298 0.023559798776 0.024223692265 0.025101994844 0.025795242604 0.026493327182 0.02719425248 0.027895870002 
0.028595887559 0.02929187805 0.029981292988 0.024469670056 0.025178180196 0.02611347195 0.026855965859 0.027604472768 0.028356839628 
0.02911074042 0.029863685292 0.030613030048 0.031355990316 0.025414756037 0.026170751896 0.027165920267 0.027961085626 0.028763592129 
0.029571120055 0.03038115359 0.031190990029 0.031997750322 0.032798394451 0.026395406648 0.027201882778 0.028259814566 0.029111238709 
0.02997149876 0.030838100638 0.03170832161 0.03257923254 0.033447700949 0.034310407792 0.027411782072 0.028271851275 0.029395401902 
0.030306825803 0.031228760132 0.032158524185 0.033093184758 0.034029564613 0.034964257068 0.035893644476 0.028582076694 0.029502093226 
0.030721876317 0.031698363604 0.032686803118 0.033684403777 0.034688092349 0.035694476911 0.036699886906 0.037700386305 0.02967924366 
0.030661281685 0.031953188667 0.03299693961 0.03405486613 0.035123971855 0.036200921675 0.03728204166 0.038363334195 0.039440463557 