# vtk DataFile Version 5.1
vtk output
ASCII
DATASET STRUCTURED_POINTS
DIMENSIONS 10 10 20
SPACING 0.1 0.1 0.1
ORIGIN 3.25 -0.45 0.55
POINT_DATA 2000
FIELD FieldData 1
potential 1 2000 double
0.0012122697423 0.001183359527 0.0010680885891 0.0010487571464 0.0010295577098 0.0010105134441 0.00099165015077 0.00097299156086 0.00095454892167 
0.00093631603612 0.0012287313676 0.0011991188286 0.0010793617816 0.0010598091107 0.0010403396925 0.0010209787129 0.001001758836 0.00098270950951 
0.00096384623831 0.00094516831455 0.001245291571 0.0012149815738 0.0010911774087 0.0010713730497 0.0010515975628 0.0010318823922 0.0010122649418 
0.00099278061025 0.00097344996764 0.00095428283288 0.0012629517204 0.0012319180851 0.0011045994603 0.0010844913743 0.0010643542225 0.0010442233256 
0.0010241460647 0.0010041616748 0.00098430015843 0.0009645798799 0.0012823249266 0.0012505264781 0.0011203276524 0.0010998476428 0.0010792741087 
0.0010586557224 0.0010380422613 0.0010174854781 0.00099701829217 0.00097667083275 0.001303647802 0.0012710266673 0.0011387020185 0.0011177645775 
0.0010966743915 0.0010754847805 0.0010542565166 0.0010330480209 0.0010118989448 0.00099084798107 0.0013238611769 0.0012904416604 0.0011368819121 
0.0011075597839 0.001079709063 0.0010532578333 0.0010281420115 0.0010042907962 0.00098161526449 0.0009600264726 0.0013502865564 0.0013158220123 
0.0011748706145 0.0011438612489 0.0011143898351 0.0010863901953 0.0010597976561 0.0010345409988 0.0010105251419 0.00098765640468 0.0013773554309 
0.0013417558592 0.001213661002 0.0011809549746 0.0011498651357 0.0011203199982 0.0010922596385 0.0010656092839 0.0010402673979 0.0010161291506 
0.0014038597358 0.0013670918187 0.0012520787553 0.0012177066261 0.0011850305391 0.0011539785485 0.0011244873466 0.0010964767922 0.0010698394495 
0.001044461684 0.0014137852336 0.0013800784307 0.0012464714119 0.001223943929 0.0012016041324 0.0011794717725 0.0011575638082 0.0011359021883 
0.001114500289 0.0010933682397 0.0014350176758 0.0014004284627 0.00126155142 0.0012387036264 0.0012159987918 0.001193459978 0.0011711128697 
0.0011489800994 0.0011270812299 0.0011054310712 0.0014564151679 0.0014209437278 0.0012772219069 0.0012540256613 0.0012309242948 0.0012079456625 
0.0011851207671 0.0011624782777 0.0011400428139 0.0011178362993 0.0014785563444 0.0014421832945 0.0012941378945 0.0012705463356 0.001247000254 
0.0012235330384 0.001200180013 0.0011769752634 0.0011539508025 0.0011311353387 0.0015018354957 0.0014645310108 0.0013127890701 0.0012887442744 
0.0012646936308 0.0012406764474 0.0012167328456 0.001192904647 0.0011692302951 0.0011457434461 0.0015264163211 0.0014881376877 0.0013334479224 
0.0013088798294 0.0012842564928 0.001259619908 0.0012350190217 0.0012105016317 0.0011861099635 0.0011618866983 0.0015493378645 0.0015103110593 
0.0013383074717 0.0013053502943 0.0012738915097 0.0012438490121 0.0012151510455 0.0011877240369 0.0011614902994 0.0011363702214 0.0015777212854 
0.0015375265485 0.0013771757016 0.0013424967494 0.0013093897982 0.0012777760776 0.0012475792553 0.0012187235696 0.0011911276091 0.0011647105235 
0.0016063761227 0.0015649414086 0.0014165446044 0.0013801438661 0.0013453955379 0.0013122159633 0.0012805281226 0.0012502538144 0.0012213065008 
0.001193599372 0.0016346006236 0.0015918893593 0.0014557094926 0.0014176061327 0.0013812384761 0.0013465167649 0.0013133633202 0.0012816929194 
0.0012514165412 0.0012224406892 0.0016145774525 0.0015761232247 0.0014247828438 0.0013990589021 0.0013735754878 0.0013483497245 0.0013233978235 
0.00129874064 0.0012743943961 0.0012503759375 0.0016398757108 0.0016003782967 0.0014430199985 0.0014168910614 0.0013909615171 0.0013652540852 
0.0013397907003 0.0013145943923 0.0012896860759 0.0012650867982 0.00166542965 0.0016248852206 0.0014619161618 0.0014353526179 0.0014089465596 
0.0013827248769 0.0013567149354 0.0013309432435 0.0013054367018 0.0012802204832 0.0016915573816 0.0016499536543 0.0014818795055 0.0014548397325 
0.0014279148815 0.0014011356896 0.001374533021 0.001348139088 0.001321987299 0.0012961089949 0.0017184878487 0.001675801301 0.0015032418518 
0.0014756727677 0.0014481772599 0.0014207867658 0.001393538806 0.0013664692681 0.0013396183689 0.0013130233951 0.00174630575 0.001702505542 
0.0015261984269 0.0014980434512 0.0014699164195 0.001441855192 0.0014139031679 0.0013861009179 0.0013584922179 0.0013311204873 0.0017720233813 
0.0017274815964 0.0015370660022 0.0015005848473 0.0014656065331 0.0014320525917 0.001399851329 0.0013689299751 0.0013392174007 0.0013106447712 
0.0018028615093 0.0017570222378 0.0015772771163 0.0015390269647 0.0015023636857 0.0014672023645 0.0014334687252 0.0014010866765 0.001369984935 
0.0013400881908 0.0018338162474 0.0017866137967 0.0016178814181 0.0015778672182 0.001539519021 0.0015027547855 0.0014674939367 0.0014336597977 
0.0014011729666 0.0013699573869 0.0018644853901 0.0018158767949 0.0016584535507 0.0016166849466 0.0015766679133 0.0015383136542 0.0015015416623 
0.0014662678448 0.0014324106103 0.0013998901284 0.0018141094133 0.0017709763513 0.0016026195971 0.0015737033572 0.0015450785735 0.0015167610949 
0.0014887698543 0.0014611247672 0.0014338439087 0.0014069481047 0.0018430627016 0.0017987393301 0.0016236473969 0.0015942494341 0.001565107535 
0.0015362417863 0.0015076737558 0.0014794271573 0.001451526319 0.0014239941899 0.0018723451954 0.0018268282936 0.0016453900973 0.0016154792494 
0.0015857893107 0.0015563419865 0.0015271638277 0.0014982813703 0.0014697244677 0.0014415206765 0.0019021241144 0.0018554025552 0.0016681076374 
0.0016376472805 0.0016073688739 0.0015772991539 0.0015474676743 0.0015179074246 0.0014886517378 0.0014597317902 0.0019325157618 0.0018845695248 
0.0016920242082 0.0016609669115 0.0016300528232 0.0015993116493 0.001568780226 0.0015384931356 0.0015084877468 0.0014788036603 0.0019635448324 
0.0019143504272 0.0017172843553 0.0016855764952 0.001653972676 0.0016225084229 0.0015912228583 0.0015601543815 0.001529346528 0.0014988432262 
0.0019920584646 0.0019420880363 0.0017334645723 0.001693555406 0.0016551431816 0.0016181560341 0.0015825239603 0.0015481803869 0.0015150618412 
0.001483105964 0.0020256545812 0.0019742561687 0.0017752940597 0.0017335666628 0.0016934237869 0.001654786155 0.0016175827572 0.0015817438852 
0.001547202977 0.0015138922587 0.0020593039764 0.0020064098955 0.0018174937114 0.001773948043 0.0017320734353 0.0016917873961 0.0016530156095 
0.0016156837422 0.0015797212218 0.0015450581123 0.0020927815037 0.0020383446322 0.0018598011107 0.0018144436837 0.001770844907 0.0017289177211 
0.0016885834789 0.0016497665091 0.0016123884574 0.0015763799435 0.0020119937973 0.0019642646719 0.001779721668 0.0017476206189 0.0017158603158 
0.0016844576412 0.0016534327007 0.0016228059975 0.0015926001676 0.0015628355245 0.002044343634 0.001995290968 0.0018033239682 0.0017706712043 
0.0017383277751 0.0017063134578 0.0016746524702 0.0016433676813 0.0016124854788 0.0015820304378 0.0020770817008 0.0020266989186 0.0018276802298 
0.001794444091 0.0017614852908 0.0017288272867 0.0016964956354 0.0016645180224 0.001632925307 0.0016017457215 0.0021102826264 0.0020585589823 
0.0018529632216 0.0018191078295 0.0017854960161 0.0017521545393 0.0017191119047 0.0016864022966 0.001654057065 0.0016221118831 0.0021439921001 
0.0020909117167 0.0018793290889 0.0018448107898 0.0018105005032 0.0017764306143 0.0017426322227 0.001709142425 0.001675999647 0.0016432413265 
0.0021781954257 0.0021237377705 0.0019068866234 0.0018716557265 0.0018365986589 0.0018017497149 0.0017671455684 0.0017328261336 0.001698833903 
0.0016652123978 0.0022094330422 0.0021541251945 0.0019276736533 0.0018844232855 0.0018426572411 0.0018023091158 0.0017633163219 0.0017256181823 
0.001689159308 0.0016538843827 0.0022459505344 0.0021890819431 0.0019712666945 0.0019261466441 0.0018826012631 0.0018405598911 0.0017999546989 
0.0017607239212 0.0017228071369 0.0016861442376 0.0022824968514 0.0022240008384 0.0020152423376 0.0019682498245 0.0019229226895 0.0018791848275 
0.0018369661238 0.0017962003567 0.0017568237407 0.0017187731001 0.0023189538514 0.0022587792386 0.0020594370629 0.0020105731292 0.0019634644885 
0.0019180318905 0.0018742016591 0.0018319022792 0.0017910661684 0.0017516287513 0.0022079323181 0.0021557055785 0.0019559159271 0.0019206382168 
0.0018857485399 0.0018512665828 0.0018172146077 0.0017836149472 0.001750490385 0.0017178646484 0.0022435059889 0.0021898299169 0.0019819599202 
0.001946064503 0.0019105292526 0.001875376858 0.0018406308154 0.0018063178266 0.0017724639043 0.0017390964235 0.0022795118424 0.0022243784686 
0.0020087828735 0.0019722392899 0.0019360267634 0.0019001696461 0.0018646960574 0.0018296362286 0.0017950186417 0.0017608742781 0.0023159716104 
0.0022593691835 0.0020365077469 0.0019992799236 0.001962352446 0.0019257526085 0.0018895133625 0.0018536657838 0.0018182451718 0.001783284953 
0.0023528855376 0.0022948007702 0.0020652483253 0.0020272937249 0.0019896084423 0.0019522238128 0.0019151739547 0.0018784958313 0.001842227276 
0.0018064061722 0.0023902158533 0.0023306301812 0.0020950908646 0.0020563623215 0.0020178718011 0.0019796544662 0.0019417464138 0.0019041883521 
0.0018670232611 0.0018302927192 0.0024240565988 0.0023635091439 0.0021197878627 0.0020732757147 0.0020282290667 0.0019845893914 0.0019422994805 
0.0019013094091 0.0018615695926 0.0018230338893 0.0024635614839 0.002401324907 0.0021652035581 0.0021167709059 0.0020698980693 0.0020245207444 
0.0019805789122 0.0019380175324 0.001896784185 0.0018568281364 0.0025030927487 0.0024390989389 0.0022110298339 0.0021606720648 0.0021119663807 
0.0020648457449 0.0020192454896 0.0019751076987 0.0019323757262 0.0018909941993 0.0025425926567 0.0024767885511 0.0022571629409 0.0022048750444 
0.0021543330914 0.0021054650617 0.0020582038627 0.0020124865462 0.0019682524359 0.001925444002 0.002401682467 0.0023450678121 0.00213107941 
0.0020926321763 0.0020546198154 0.0020170654016 0.0019799925393 0.001943425525 0.0019073887614 0.00187190862 0.0024403512505 0.0023821677087 
0.0021594783439 0.002120351303 0.0020816337688 0.0020433511263 0.0020055283843 0.0019681945769 0.001931376874 0.0018951047197 0.0024794882845 
0.0024197267266 0.0021886733713 0.0021488358028 0.0021093812549 0.0020703366187 0.0020317315392 0.0019935965958 0.0019559628387 0.001918863957 
0.0025190816219 0.0024577322448 0.0022187580812 0.0021781737214 0.002137944939 0.0020981010247 0.0020586750139 0.0020197006122 0.0019812126829 
0.0019432478005 0.0025591044573 0.0024961535285 0.0022498187986 0.0022084470102 0.0021674026811 0.0021267174567 0.0020864278353 0.0020465711736 
0.0020071858855 0.0019683124317 0.0025995046306 0.0025349359019 0.0022819279331 0.0022397230673 0.0021978173873 0.0021562444191 0.002115044049 
0.0020742581662 0.0020339290233 0.0019940989168 0.0026357943848 0.0025701134676 0.0023098585887 0.0022601587148 0.0022118989383 0.0021650290131 
0.0021195031278 0.0020752776886 0.0020323124011 0.0019905670592 0.0026782948358 0.0026108013513 0.0023571011911 0.0023054331965 0.0022553021238 
0.0022066527468 0.002159434742 0.0021136008679 0.0020691064993 0.0020259094067 0.0027208260482 0.0026514516531 0.0024047892192 0.0023511442466 
0.0022991324293 0.0022486939372 0.0021997753018 0.0021523244024 0.0021062933371 0.0020616365309 0.0027633683712 0.0026920576706 0.0024528533791 
0.002397222931 0.0023433221439 0.0022910870547 0.0022404595264 0.0021913857088 0.0021438121416 0.0020976880422 0.0025930353597 0.002532153237 
0.0023051193315 0.0022635087762 0.0022223801765 0.0021817577022 0.002141668178 0.002102137987 0.0020631951643 0.0020248650961 0.0026346947665 
0.0025721319495 0.0023358137389 0.0022934639847 0.002251571959 0.0022101645495 0.0021692717538 0.0021289219976 0.0020891465295 0.0020499747512 
0.0026768519712 0.002612598024 0.0023673162307 0.002324196546 0.0022815092413 0.0022392850977 0.0021975551225 0.0021563519194 0.0021157095352 
0.0020756613935 0.0027194758514 0.0026535203794 0.0023997016309 0.0023557757637 0.002312256921 0.0022691782168 0.0022265738049 0.0021844794971 
0.0021429320766 0.0021019692019 0.0027625222576 0.0026948529754 0.0024330400921 0.0023882684739 0.0023438773282 0.0022999024551 0.0022563820811 
0.002213354539 0.0021708605656 0.0021289406778 0.0028059281512 0.0027365292158 0.0024673947229 0.0024217320296 0.0023764235207 0.0023315081424 
0.0022870259124 0.0022430200426 0.0021995332621 0.0021566107288 0.0028444920966 0.0027737927052 0.0024979192248 0.0024450972128 0.0023936852486 
0.002343642616 0.0022949336931 0.0022475242725 0.0022013815222 0.0021564758706 0.0028899565084 0.0028173296043 0.0025469585698 0.0024921237124 
0.0024387977534 0.0023869358023 0.0023364972614 0.0022874439281 0.0022397395995 0.0021933519158 0.0029354604755 0.0028608341177 0.0025964808862 
0.0025396199902 0.002484367904 0.002430674274 0.002378494244 0.0023277859687 0.002278509845 0.0022306274207 0.0029810060647 0.0029043236844 
0.0026464358628 0.0025875377069 0.002530347574 0.0024748108737 0.0024208788838 0.0023685056586 0.0023176468394 0.0022682613029 0.0027818056649 
0.0027167856328 0.0024779625872 0.0024331934506 0.0023889506611 0.0023452623747 0.0023021586192 0.0022596687692 0.0022178215652 0.0021766471606 
0.0028263635256 0.0027595565142 0.0025109082155 0.0024653418356 0.0024202800201 0.0023757533324 0.0023317922526 0.0022884308252 0.002245700352 
0.002203634217 0.0028714457402 0.0028028417658 0.0025446714226 0.0024982773529 0.0024523642965 0.0024069653597 0.0023621145617 0.0023178479061 
0.0022742004421 0.002231208334 0.0029170077616 0.0028465958417 0.0025793138476 0.002532056203 0.0024852557402 0.0024389485145 0.0023931710338 
0.0023479616519 0.0023033599397 0.0022594044059 0.002962995592 0.0028907631065 0.0026148963273 0.0025667352757 0.0025190071812 0.0024717509499 
0.0024250057625 0.0023788133699 0.0023332151561 0.0022882550249 0.0030093375126 0.0029352698455 0.0026514733521 0.0026023659655 0.0025536669864 
0.0025054168505 0.0024576592284 0.0024104384174 0.0023637996808 0.0023177891041 0.0030499909687 0.0029743991449 0.0026839921202 0.0026281063214 
0.0025735956538 0.0025204309195 0.002468586117 0.002418036816 0.0023687603243 0.0023207357484 0.0030983616991 0.0030207332925 0.0027347761749 
0.0026768350752 0.0026203710023 0.0025653503973 0.0025117416756 0.002459516166 0.0024086482568 0.0023591126946 0.0031467817618 0.0030670452553 
0.0027860801024 0.0027260686224 0.0026676363126 0.0026107438357 0.002555356014 0.0025014398498 0.0024489665688 0.0023979053423 0.003195267293 
0.0031133631015 0.0028378658143 0.0027757693311 0.0027153536526 0.0026565752817 0.0025993946136 0.0025437752606 0.002489682448 0.0024370826437 
0.002967821146 0.0028988019515 0.0026495482562 0.0026016207117 0.0025542634543 0.0025075097277 0.0024613914248 0.0024159411386 0.0023711917102 
0.002327174195 0.0030151919687 0.0029442857058 0.00268471072 0.0026359303123 0.002587699944 0.0025400533406 0.0024930260543 0.0024466527664 
0.002400969739 0.0023560109091 0.0030631114568 0.0029903077063 0.0027206977594 0.002671033639 0.002621897464 0.0025733258269 0.0025253563763 
0.002478026982 0.0024313768117 0.0023854431773 0.0031115259959 0.0030368143471 0.0027575625615 0.0027069795377 0.0026569018697 0.0026073685616 
0.0025584208051 0.0025100990217 0.0024624443937 0.0024154985211 0.0031603733286 0.0030837406084 0.0027953588333 0.0027438169412 0.0026927583862 
0.0026422243313 0.0025922576005 0.0025429024096 0.0024942032908 0.0024462046743 0.0032095757366 0.0031310102087 0.002834136413 0.0027815936958 
0.0027295105956 0.0026779316124 0.002626902339 0.0025764697758 0.0025266818494 0.0024775861764 0.0032521340251 0.0031717846667 0.0028680978453 
0.0028091969999 0.0027516338642 0.0026953894278 0.0026404491155 0.0025867983377 0.0025344250794 0.0024833166924 0.0033033344447 0.0032208480589 
0.0029205587475 0.0028595657537 0.0028000132951 0.0027418798906 0.0026851438502 0.0026297877571 0.0025757945306 0.002523148873 0.003354597148 
0.0032699003369 0.0029735778301 0.0029104729601 0.0028489138564 0.0027888724885 0.00273032317 0.0026732438971 0.0026176139418 0.0025634144873 
0.0034059446567 0.0033189769782 0.0030271217495 0.0029618886365 0.0028983048053 0.0028363374819 0.0027759578505 0.0027171391069 0.0026598574378 
0.0026040876446 0.0031509235426 0.0030780511832 0.0028198212601 0.0027687321344 0.002718257382 0.0026684338524 0.0026192976247 0.0025708849177 
0.002523230878 0.002476370033 0.0032010232478 0.003126170697 0.0028571725366 0.00280517637 0.0027537749697 0.002703006285 0.0026529092924 
0.0026035232661 0.0025548855903 0.0025070338988 0.0032516942892 0.0031748503596 0.0028953541715 0.0028424196783 0.0027900591495 0.0027383133173 
0.0026872231905 0.0026368304194 0.0025871760542 0.0025383003528 0.0033028773781 0.0032240314213 0.0029344129473 0.0028805054784 0.0028271507989 
0.0027743916257 0.0027222721879 0.002670836623 0.0026201289626 0.0025701926516 0.0033545029263 0.003273642075 0.0029743964873 0.0029194774971 
0.0028650892056 0.0028112779089 0.0027580898039 0.0027055717317 0.0026537708233 0.0026027339939 0.0034064889711 0.0033236026982 0.0030153518074 
0.0029593789455 0.0029039144363 0.0028490079338 0.0027947077342 0.002741064121 0.0026881267014 0.0026359461224 0.0034507703169 0.0033658066502 
0.003050255042 0.0029883803224 0.0029278016693 0.0028685132193 0.0028105099741 0.0027537889807 0.0026983479756 0.0026441858881 0.0035047123578 
0.0034175198624 0.0031043175588 0.003040317058 0.0029777185522 0.0029165096836 0.0028566829389 0.0027982299587 0.0027411443618 0.0026854203297 
0.00355872999 0.0034692338437 0.0031589743978 0.0030928264535 0.003028185527 0.0029650364397 0.0029033651702 0.0028431598213 0.0027844095942 
0.0027271051591 0.0036128491742 0.0035209883281 0.0032141974089 0.0031458805519 0.0030791774509 0.0030140675839 0.0029505323183 0.0028885550546 
0.0028281217999 0.0027692185756 0.0033309613229 0.0032543905147 0.0029887322213 0.0029344727238 0.0028808726725 0.0028279721918 0.0027758117699 
0.002724430973 0.0026738682219 0.0026241608167 0.0033837069197 0.0033050683356 0.0030282483801 0.0029730295974 0.0029184502662 0.0028645532487 
0.0028113812075 0.0027589764563 0.002707380201 0.0026566323768 0.0034370452017 0.0033563277759 0.0030685992311 0.0030123894813 0.0029567992535 
0.0029018735298 0.0028476575997 0.0027941964039 0.0027415337552 0.0026897130093 0.0034909127212 0.0034081051388 0.0031098273455 0.0030525921926 
0.0029959559938 0.0029399663544 0.0028846711287 0.0028301176077 0.0027763527817 0.0027234228326 0.003545234132 0.003460324713 0.0031519760523 
0.0030936772519 0.00303595685 0.0029788646617 0.0029224510093 0.0028667662017 0.0028118600834 0.002757781955 0.0035999233215 0.0035129016094 
0.003195088042 0.0031356838183 0.0030768371694 0.0030186004213 0.002961026004 0.0029041675603 0.0028480779425 0.0027928090599 0.0036457577341 
0.0035563312845 0.0032304850463 0.0031656676067 0.0031021025929 0.0030397962274 0.0029787547722 0.0029189874373 0.0028605018265 0.0028033066216 
0.0037023440516 0.0036106058514 0.0032860674384 0.0032190949762 0.0031534816819 0.0030892288559 0.0030263393022 0.0029648160275 0.0029046633057 
0.0028458857555 0.0037590198965 0.0036648940153 0.003342279872 0.003273127597 0.0032054418583 0.0031392192154 0.0030744575098 0.0030111555226 
0.0029493132925 0.002888931827 0.0038158140091 0.0037192377743 0.0033990961033 0.00332774023 0.0032579592431 0.0031897439608 0.0031230872846 
0.0030579848687 0.0029944316887 0.0029324251893 0.0035077912733 0.0034276827843 0.0031562326881 0.0030987905833 0.0030420524276 0.0029860635784 
0.0029308684927 0.0028765102573 0.0028230312194 0.0027704715625 0.0035630989461 0.0034808408794 0.0031978933157 0.0031394401071 0.0030816717446 
0.0030246354618 0.0029683784233 0.002912946232 0.0028583836634 0.0028047341816 0.0036190202969 0.0035346020495 0.0032403922415 0.0031808968927 
0.0031220667298 0.0030639514713 0.0030066004126 0.0029500621491 0.0028943839371 0.0028396121829 0.0036754874056 0.0035888970755 0.0032837688802 
0.0032231969789 0.0031632705184 0.0031040412979 0.0030455612547 0.0029878815947 0.0029310526121 0.0028751234901 0.0037324203481 0.0036436487225 
0.003328062716 0.0032663767649 0.0032053159316 0.003144934812 0.0030852876156 0.0030264283637 0.0029684102071 0.0029112851267 0.003789731217 
0.0036987664429 0.0033733128886 0.0033104720114 0.0032482357137 0.0031866611914 0.0031258053111 0.0030657247525 0.0030064757349 0.0029481133938 
0.0038369629405 0.0037432330476 0.0034088101383 0.0033410713888 0.0032745396616 0.0032092332069 0.0031451709946 0.0030823720268 0.0030208566314 
0.0029606437068 0.0038960893438 0.003799973912 0.0034658267355 0.0033959075586 0.0033273036174 0.0032600279627 0.0031940953521 0.0031295205761 
0.0030663189017 0.0030045051709 0.003955320406 0.0038567419889 0.0035235086837 0.0034513819521 0.0033806784304 0.0033114077469 0.003243578779 
0.0031772022202 0.0031122888166 0.0030488497845 0.0040146857077 0.0039135815682 0.0035818311754 0.0035074700337 0.0034346419571 0.0033633499742 
0.0032935997084 0.0032253967281 0.003158748004 0.00309366113 0.0036802303217 0.0035967808766 0.003322618696 0.003261119111 0.0032007362397 
0.0031414413034 0.0030832112086 0.0030260278124 0.0029698788965 0.0029147567243 0.0037374909422 0.0036517470207 0.0033664073652 0.0033037411834 
0.0032422042044 0.0031817659862 0.0031224020832 0.0030640934509 0.0030068265805 0.0029505931857 0.003795290354 0.0037072042551 0.0034109769955 
0.0033471232961 0.0032844104377 0.0032228067629 0.0031622862771 0.0031028289926 0.0030444206802 0.0029870519697 0.003853587089 0.0037631078743 
0.0034563699853 0.0033913059234 0.0033273938714 0.003264600622 0.0032028992089 0.0031422684937 0.0030826931827 0.0030241634892 0.0039123342465 
0.0038194117786 0.003502631421 0.0034363324449 0.003371195904 0.0033071872305 0.0032442784433 0.0031824475309 0.0031216782911 0.0030619603036 
0.0039714837436 0.0038760633342 0.0035498091436 0.0034822484194 0.0034158600704 0.003350608309 0.0032864639999 0.0032234043078 0.0031614123732 
0.0031004768724 0.0040248884254 0.0039255584077 0.0035852240658 0.0035135276655 0.0034433814079 0.0033747410563 0.0033075693205 0.0032418346929 
0.0031775131155 0.0031145849465 0.0040857849687 0.0039841468086 0.0036443468511 0.0035704463235 0.0034981814397 0.0034275063292 0.0033583819922 
0.0032907768199 0.0032246641319 0.0031600242777 0.0041471333226 0.0040431372048 0.0037039364115 0.0036278375639 0.0035534587049 0.0034807521009 
0.0034096780782 0.0033402030835 0.0032722999601 0.0032059478774 0.0042088818633 0.0041024856341 0.0037639720411 0.0036856789009 0.0036091885757 
0.003534452833 0.003461429725 0.0033900845659 0.0033203894354 0.0032523231524 0.0038498372899 0.0037630280531 0.0034890704333 0.0034236784453 
0.003359576029 0.003296729453 0.0032351104668 0.0031746959672 0.0031154674992 0.0030574113638 0.0039094837541 0.003820298679 0.0035352505957 
0.0034685753684 0.0034032082171 0.0033391140873 0.0032762631863 0.0032146313812 0.0031541992181 0.0030949519675 0.0039696996313 0.003878091269 
0.0035822064908 0.00351422689 0.0034475731993 0.0033822090284 0.0033181035171 0.0032552309449 0.0031935712674 0.0031331089942 0.0040304395218 
0.0039363615951 0.0036299757581 0.003560668924 0.0034927052843 0.0034260470148 0.0033606621765 0.0032965241379 0.0032336117059 0.0031719087859 
0.0040916566444 0.0039950590245 0.0036785986877 0.003607939805 0.0035386409316 0.0034706628838 0.0034039726824 0.0033385425791 0.0032743506166 
0.0032113798634 0.0041532973008 0.0040541289021 0.0037281176951 0.003656080268 0.0035854190617 0.0035160937689 0.0034480702102 0.003381319834 
0.003315819797 0.0032515525803 0.0042079253743 0.0041049739533 0.0037607345918 0.0036852380036 0.0036114703161 0.0035393790173 0.0034689178149 
0.0034000456742 0.0033327287831 0.003266937162 0.0042711844173 0.0041658244149 0.003821517608 0.0037437632747 0.0036678246819 0.0035936477527 
0.0035211843828 0.0034503934522 0.0033812387962 0.0033136900139 0.0043348847334 0.0042270654585 0.0038827536041 0.0038027485326 0.0037246450158 
0.0036483869634 0.003573926153 0.0035012187585 0.0034302280659 0.0033609230794 0.0043989782481 0.0042886572128 0.0039444227822 0.003862172223 
0.0037819075626 0.0037035723077 0.0036271152959 0.0035524926094 0.0034796663924 0.0034086043461 0.0040158399115 0.003925822345 0.0036534542378 
0.0035842284554 0.0035164600137 0.0034501108434 0.0033851477638 0.0033215423485 0.0032592703594 0.0031983120488 0.0040777617359 0.0039852926073 
0.0037019708759 0.0036313484721 0.003562207925 0.0034945096867 0.0034282191937 0.0033633068918 0.0032997475382 0.0032375204439 0.004140280016 
0.0040453135419 0.0037512558428 0.00367921551 0.0036086808707 0.0035396109455 0.0034719701654 0.0034057276418 0.0033408571801 0.0032773373876 
0.0042033467749 0.0041058390185 0.0038013424602 0.0037278610239 0.0036559087753 0.0035854433096 0.0035164276779 0.0034488301126 0.003382623566 
0.0033177856886 0.0042669126662 0.004166816051 0.0038522659329 0.0037773188184 0.0037039236725 0.0036320370801 0.0035616207332 0.0034926419363 
0.0034250725958 0.0033588897498 0.0043309215634 0.0042281883706 0.0039040638683 0.0038276247199 0.0037527599495 0.0036794249104 0.003607580192 
0.0035371921813 0.0034682319482 0.0034006757244 0.0043869373358 0.0042805696086 0.0039339821518 0.0038547353475 0.0037773911414 0.0037018888907 
0.0036281732022 0.0035561943999 0.0034859075632 0.0034172742361 0.0044524489251 0.0043435780199 0.0039963603559 0.0039148056464 0.0038352415518 
0.0037576057054 0.0036818415583 0.0036078976092 0.0035357293391 0.003465295746 0.0045183896669 0.004406963979 0.0040591758695 0.0039753215486 
0.0038935449162 0.0038137816494 0.0037359739124 0.0036600699538 0.0035860229586 0.0035137915162 0.0045847136375 0.004470690211 0.0041224082818 
0.0040362612357 0.0039522775756 0.0038703914105 0.00379054438 0.0037126825988 0.0036367584359 0.003562730021 0.0041781310783 0.0040850582297 
0.0038156009113 0.0037426041438 0.0036712281843 0.0036014309067 0.0035331740381 0.0034664236494 0.0034011501032 0.0033373277484 0.0042422191868 
0.0041466238693 0.0038663973345 0.0037918938119 0.0037190412022 0.0036477959558 0.0035781186723 0.0035099742962 0.0034433319798 0.0033781653227 
0.004306926163 0.0042087674778 0.0039179531542 0.0038419210033 0.0037675696198 0.003694853823 0.0036237331718 0.0035541714114 0.0034861368923 
0.0034196020868 0.0043722047234 0.0042714385077 0.0039702967957 0.0038927129278 0.0038168392497 0.0037426291104 0.0036700407639 0.00359903702 
0.0035295852197 0.0034616569565 0.0044380009643 0.0043345836009 0.004023458941 0.0039442990135 0.0038668780328 0.0037911480464 0.0037170662319 
0.0036445943743 0.0035736989225 0.0035043507849 0.0045042566266 0.0043981417452 0.0040774724357 0.0039967102252 0.0039177153257 0.0038404385444 
0.0037648359603 0.0036908683897 0.0036185015001 0.0035477054414 0.0045617846125 0.0044522028625 0.0041048012899 0.0040218610042 0.0039409922472 
0.0038621260574 0.0037851988054 0.003710151602 0.0036369299981 0.0035654854382 0.0046294392283 0.0045172657848 0.0041687083336 0.0040834132419 
0.0040002786435 0.0039192340948 0.0038402144876 0.0037631593018 0.003688014386 0.0036147288966 0.0046975080414 0.0045826907911 0.0042330347702 
0.0041453945797 0.0040600028468 0.0039767875617 0.0038956818197 0.0038166253113 0.003739561363 0.0036644388183 0.0047659486837 0.0046484438792 
0.0042977603742 0.0042077832355 0.0041201415208 0.0040347610311 0.0039515753151 0.0038705211514 0.0037915415182 0.0037145843259 0.004336616832 
0.0042406414157 0.0039753476846 0.0038986472445 0.0038237273067 0.0037505410831 0.0036790457312 0.0036092022259 0.0035409752178 0.0034743333489 
0.0044027623885 0.0043042016708 0.0040283659281 0.003950051072 0.0038735526488 0.0037988222821 0.0037258160695 0.0036544936785 0.0035848188847 
0.0035167592275 0.0044695473588 0.0043683616274 0.0040821325243 0.0040021815948 0.003924082431 0.0038477854514 0.003773245301 0.0037004207348 
0.0036292744707 0.0035597731933 0.0045369228093 0.0044330703804 0.0041366718829 0.0040550618552 0.0039753384194 0.0038974508868 0.0038213526084 
0.0037470012435 0.0036743587322 0.0036033908403 0.004604832369 0.0044982722536 0.0041920100847 0.0041087164114 0.0040273438521 0.0039478404721 
0.0038701585192 0.0037942546834 0.0037200899009 0.0036476291854 0.0046732162716 0.0045639042033 0.0042481749602 0.0041631717607 0.0040801238298 
0.0039989779881 0.0039196854236 0.0038422018827 0.0037664874065 0.0036925063015 0.0047323416013 0.0046197454016 0.0042730334299 0.0041864624076 
0.0041021276326 0.0040199523415 0.0039398641798 0.0038617953332 0.0037856824159 0.0037114658785 0.0048020297474 0.0046867594717 0.0043384018269 
0.0042494323923 0.0041627889902 0.0040783932844 0.003996171577 0.0039160548749 0.003837978294 0.0037618827268 0.0048721156059 0.0047541184665 
0.0044041699511 0.0043128131599 0.0042238712225 0.0041372641741 0.0040529171137 0.0039707593824 0.0038907264158 0.0038127567083 0.0049425588987 
0.0048217909215 0.0044703172858 0.0043765827766 0.0042853508756 0.0041965402014 0.0041100740967 0.0040258819844 0.0039438970159 0.0038640573137 
0.0044912137239 0.0043924911224 0.0041325380415 0.0040522052073 0.0039738088885 0.0038972980748 0.0038226250699 0.0037497457483 0.0036786192862 
0.0036092084999 0.0045593087515 0.0044579439849 0.0041877184016 0.004105666512 0.0040255925445 0.0039474439439 0.0038711717903 0.0037967308512 
0.0037240794306 0.0036531792827 0.004628062701 0.0045240168023 0.0042436347835 0.0041598420161 0.0040780680729 0.0039982590067 0.0039203647889 
0.0038443390678 0.0037701391977 0.0036977259887 0.0046974224507 0.0045906575759 0.0043003072777 0.0042147505489 0.0041312531616 0.0040497598727 
0.003970219491 0.0038925846339 0.0038168116715 0.0037428606577 0.0047673305421 0.0046578067761 0.0043577575808 0.0042704125725 0.0041851670331 
0.0041019645052 0.0040207526587 0.0039414831159 0.0038641112682 0.0037885965069 0.0048377245911 0.0047254014449 0.0044160088832 0.0043268500071 