# vtk DataFile Version 5.1
vtk output
ASCII
DATASET STRUCTURED_POINTS
DIMENSIONS 10 10 20
SPACING 0.1 0.1 0.1
ORIGIN 3.25 -0.45 0.55
POINT_DATA 2000
FIELD FieldData 1
potential 1 2000 double
0.00063032856836 0.0006206100749 0.00060495890457 0.00059584795557 0.00058693490646 0.0005782125077 0.00056967962274 0.00056133619504 0.0005531761739 
0.00054518425222 0.00063424137246 0.00062443128829 0.00060851585527 0.00059928637945 0.00059025541626 0.00058141380435 0.00057276134954 0.00056429835813 
0.00055601873483 0.0005479079262 0.0006380704724 0.00062816472354 0.00061204756676 0.00060269059996 0.00059353264945 0.00058456489464 0.00057578584369 
0.00056719564266 0.00055878830747 0.00055055268123 0.00064233576044 0.00063231784822 0.00061607091727 0.00060657014991 0.0005972707714 0.00058816207037 
0.00057924336985 0.00057051301288 0.00056196682995 0.00055359574119 0.00064736434878 0.00063721472423 0.00062092021327 0.00061125474309 0.0006017923126 
0.00059252508304 0.00058344908668 0.00057456477309 0.00056586625192 0.00055734746681 0.00065329620155 0.00064299309003 0.00062674963903 0.0006168939645 
0.00060724613051 0.00059779795084 0.00058854670613 0.00057949192578 0.00057062758346 0.00056194858385 0.00065946561341 0.00064760458797 0.00063156103887 
0.00062109603124 0.0006109626268 0.00060114544565 0.0005916331231 0.00058241345635 0.00057346836849 0.00056478162565 0.00066830941661 0.00065626483798 
0.00064047316359 0.00062973756671 0.00061934113643 0.00060927394523 0.00059952592172 0.00059008528936 0.00058093101193 0.00057204398706 0.00067750821318 
0.00066526170234 0.00064974247444 0.00063873918276 0.00062808463289 0.00061776950777 0.00060778846901 0.00059812970373 0.00058876899683 0.00057968220508 
0.00068646828513 0.00067401940183 0.00065880170982 0.00064754970326 0.00063665389051 0.00062610797936 0.00061590788808 0.00060604080824 0.00059648102627 
0.00058720073156 0.00073378246059 0.00072233309485 0.00070535041975 0.00069461351259 0.00068412777419 0.0006738832593 0.00066387157053 0.00065408860488 
0.00064452671771 0.00063517715773 0.0007394710118 0.00072788369671 0.00071056816016 0.00069967242983 0.00068902968325 0.00067862912713 0.00066846453687 
0.00065852974693 0.00064881807734 0.00063932109182 0.00074511140197 0.00073338339049 0.00071579828025 0.00070473730074 0.00069393108245 0.00068336903246 
0.0006730447131 0.00066295234214 0.00065308556663 0.00064343713889 0.00075100813818 0.00073912933469 0.00072134831021 0.00071010956782 0.00069912863605 
0.00068839495608 0.00067790140098 0.00066764223748 0.00065761189781 0.00064780445355 0.00075737668954 0.00074533521921 0.00072744370224 0.00071601226402 
0.00070484196467 0.00069392289504 0.00068324727118 0.00067281002296 0.00066260621881 0.00065262958332 0.00076431960537 0.0007521009428 0.00073419998628 
0.00072255856596 0.00071118293234 0.00070006259798 0.00068919132598 0.00067856399631 0.00066817464791 0.0006580187324 0.00077138468962 0.00075775097661 
0.00073990390826 0.00072760933143 0.0007157079305 0.00070417861037 0.00069300488091 0.00068217060152 0.00067165872432 0.00066145260615 0.00078057395674 
0.00076674467802 0.00074911125597 0.00073653957189 0.00072436924118 0.00071258282255 0.00070116340972 0.00069009458748 0.00067935840202 0.00066893778342 
0.00078993228092 0.0007758925773 0.00075849932244 0.00074565581807 0.00073322327108 0.00072118418731 0.0007095230914 0.00069822407351 0.00068726739175 
0.0006766339027 0.00079911098379 0.00078485633825 0.00076773288268 0.00075463046119 0.00074194828987 0.00072966818743 0.00071777656007 0.00070625547654 
0.0006950854285 0.00068424507946 0.00083723664704 0.00082407561402 0.00080578881753 0.00079344415698 0.00078139756046 0.00076963754079 0.00075815365422 
0.00074693923203 0.00073598619221 0.00072528732733 0.00084435412694 0.0008310156989 0.00081233739191 0.00079979995264 0.00078756323749 0.00077561630132 
0.00076394976862 0.00075255579896 0.00074142658882 0.00073055514904 0.00085146975335 0.00083795144514 0.00081894281581 0.00080620646137 0.00079377439861 
0.00078163567091 0.00076978109366 0.00075820255695 0.00074689296704 0.00073584532668 0.0008587561799 0.00084505306803 0.00082578625297 0.00081284198259 
0.00080020611291 0.00078786758047 0.00077581671168 0.00076404580243 0.00075254877982 0.00074131939399 0.00086634456249 0.00085244874575 0.00083301112011 
0.00081984687677 0.00080699649287 0.00079444746272 0.00078219105176 0.00077021898732 0.00075852609231 0.0007471067962 0.00087429762227 0.0008601999007 
0.0008406918489 0.00082729672646 0.00081421919423 0.00080144823695 0.00078897572245 0.00077679341785 0.00076489539755 0.00075327659984 0.00088237073797 
0.00086698606872 0.00084737847056 0.00083328261044 0.00081963372285 0.00080640985696 0.00079359185181 0.00078116021985 0.0007690970947 0.00075738639518 
0.00089216057192 0.00087656209282 0.00085712514343 0.00084273679196 0.00082880677933 0.00081531163654 0.00080223272361 0.00078955031465 0.00077724741423 
0.00076530554474 0.00090203872342 0.00088621262872 0.00086697582396 0.00085230268852 0.0008380957412 0.00082433472571 0.00081099974239 0.00079807216286 
0.00078553226186 0.0007733621638 0.00091180156665 0.00089573932857 0.00087673336228 0.0008617845466 0.0008473116627 0.00083329315567 0.00081971096203 
0.00080654433961 0.00079377395341 0.00078138131562 0.00094046105916 0.00092560842701 0.00090603962841 0.00089210483991 0.00087851131538 0.0008652465369 
0.00085230030034 0.00083966409167 0.00082732905111 0.00081528854655 0.00094881314193 0.00093374765292 0.00091373470268 0.00089957646393 0.00088576413321 
0.00087228536039 0.00085912964065 0.00084628824268 0.00083375353757 0.000821518125 0.00095720008515 0.00094192108008 0.00092152226358 0.00090713457808 
0.0008930984652 0.00087940060356 0.00086603083877 0.00085297990646 0.00084024097623 0.00082780691954 0.00096571830803 0.00095022255972 0.00092950778174 
0.00091488456508 0.00090061726763 0.00088669344408 0.00087310242776 0.00085983598549 0.0008468870836 0.00083424818214 0.00097444220124 0.00095872384448 
0.00093777907482 0.00092291115152 0.0009084042928 0.00089424573848 0.00088042645581 0.00086693708958 0.00085377019072 0.00084092040737 0.00098340409249 
0.00096745733344 0.00094638347139 0.0009312611135 0.00091650515819 0.00090210385359 0.00088804751787 0.00087432646905 0.00086093434935 0.0008478654945 
0.00099255276551 0.00097543544485 0.00095410488027 0.00093823152006 0.00092285611942 0.0009079561632 0.00089350962577 0.00087949635451 0.00086589771625 
0.00085269607973 0.0010031045851 0.00098575189618 0.00096454417882 0.00094836021036 0.00093268564848 0.00091749617256 0.00090277093363 0.00088848961857 
0.0008746334239 0.00086118324793 0.0010137091194 0.0009961058276 0.00097505584857 0.00095856743411 0.00094259862343 0.00092712524444 0.00091212666731 
0.00089758190863 0.00088347135124 0.00086977602371 0.0010242485582 0.0010063841562 0.00098552325632 0.00096873907467 0.00095248437913 0.00093673470762 
0.00092146897001 0.00090666688317 0.00089230671318 0.00087837109482 0.0010433005604 0.0010267768469 0.0010059463977 0.00099043912467 0.00097531394834 
0.00096055811891 0.00094616101772 0.00093211321293 0.00091840668882 0.0009050332108 0.0010527724704 0.0010360046585 0.0010146809688 0.00099892239948 
0.00098355171962 0.00096855619436 0.00095392557808 0.00093964952709 0.00092572035778 0.0009121300378 0.0010623077535 0.001045294805 0.0010235336644 
0.0010075181276 0.00099189692005 0.00097665726803 0.00096178783029 0.00094727897073 0.00093312325825 0.00091931270114 0.0010719567101 0.0010546962095 
0.0010325657047 0.0010162877588 0.0010004100515 0.0009849198833 0.00096980566678 0.00095505902887 0.00094067093464 0.00092663503802 0.0010817583759 
0.0010642467908 0.0010418297551 0.0010252822014 0.0010091404269 0.00099339284714 0.00097802747489 0.00096303545669 0.00094840922024 0.00093414133616 
0.0010917252237 0.0010739579616 0.0010513543421 0.0010345292036 0.0010181163709 0.0010021035858 0.00098647983792 0.00097123585539 0.00095636400372 
0.00094185792344 0.0011019797922 0.0010831481637 0.0010601297215 0.0010425012718 0.0010254198219 0.0010088616027 0.00099280396373 0.0009772252546 
0.00096210637517 0.00094742839051 0.0011133882349 0.0010942961134 0.0010713526397 0.0010533926644 0.0010359912912 0.0010191243804 0.0010027685543 
0.0009869030177 0.00097150773339 0.00095656270609 0.001124833813 0.001105466284 0.0010826362235 0.0010643508222 0.0010466350667 0.0010294641079 
0.0010128150539 0.00099666673291 0.00098099863472 0.00096579077003 0.0011362505262 0.0011165954632 0.0010939127381 0.0010753092534 0.0010572856605 
0.0010398172134 0.0010228810542 0.0010064549168 0.00099051800252 0.00097505107402 0.0011456433857 0.0011274717583 0.0011053995075 0.0010883373215 
0.0010716958918 0.0010554629015 0.0010396280267 0.0010241811987 0.0010091133815 0.00099441664182 0.0011561654857 0.0011377199067 0.0011151093879 
0.0010977695166 0.0010808574621 0.0010643611606 0.0010482690503 0.0010325716814 0.0010172598552 0.001002325749 0.0011667718613 0.0011480511741 
0.0011249552136 0.0011073329502 0.001090145762 0.0010733805956 0.0010570266948 0.0010410746186 0.0010255146887 0.0010103390584 0.0011774863987 
0.0011584884212 0.0011349728455 0.0011170629223 0.0010995947231 0.0010825553174 0.0010659345166 0.0010497217047 0.0010339087054 0.0010184871038 
0.0011883258118 0.0011690485281 0.0011451936044 0.0011269892787 0.0011092337522 0.001091914384 0.0010750200759 0.0010585411992 0.001042469102 
0.0010267957072 0.0011992911765 0.0011797306584 0.0011556339693 0.0011371285249 0.0011190789095 0.0011014729194 0.0010842987462 0.0010675469824 
0.0010512095252 0.0010352782672 0.0012106553254 0.0011901282189 0.0011654576567 0.00114609582 0.0011273284814 0.0011091311693 0.0010914794665 
0.0010743522632 0.0010577285875 0.0010415892958 0.0012229696252 0.0012021561166 0.0011775142754 0.0011577986619 0.0011386900858 0.0011201630323 
0.0011021933758 0.0010847592086 0.0010678397791 0.0010514149368 0.0012353168032 0.0012142015762 0.0011896293275 0.001169566512 0.0011501216466 
0.0011312696937 0.0011129861318 0.0010952491468 0.0010780375845 0.0010613304563 0.0012476605013 0.001226230862 0.0012017647746 0.0011813606477 
0.0011615856429 0.0011424141699 0.0011238221414 0.001105787197 0.0010882872751 0.001071302252 0.0012474038367 0.0012276089733 0.0012043166987 
0.001185716707 0.0011675750739 0.0011498801617 0.001132621145 0.0011157877161 0.0010993703296 0.0010833609509 0.0012589305335 0.0012388324273 
0.0012149612503 0.0011960586633 0.00117762239 0.0011596408665 0.0011421020474 0.0011249965854 0.0011083146158 0.0010920480009 0.0012705583685 
0.0012501559044 0.001225755004 0.0012065453708 0.0011878101357 0.0011695366771 0.0011517140376 0.0011343318913 0.0011173806941 0.0011008526746 
0.0012822947734 0.0012615871118 0.0012367195586 0.0012171974617 0.001198157659 0.0011795872615 0.0011614753571 0.001143811564 0.0011265865151 
0.0011097922247 0.0012941433808 0.0012731285882 0.0012478721101 0.0012280319221 0.0012086818022 0.0011898087235 0.0011714017956 0.001153450806 
0.0011359464973 0.0011188809156 0.0013060985717 0.0012847737586 0.0012592222502 0.0012390577133 0.0012193912915 0.0012002093469 0.0011815011506 
0.0011632570181 0.0011454678223 0.0011281248113 0.0013185555063 0.0012963527371 0.001270068651 0.0012489957667 0.0012285628865 0.0012087449245 
0.0011895181109 0.0011708596342 0.001152748099 0.0011351623668 0.0013317983968 0.0013092826346 0.0012829831309 0.0012615341721 0.0012407381528 
0.0012205692007 0.001201003312 0.0011820174839 0.0011635899472 0.0011457001081 0.0013450739676 0.0013222303033 0.0012959586819 0.0012741395011 
0.0012529852652 0.0012324698352 0.0012125693554 0.0011932601809 0.0011745206638 0.0011563299145 0.0013583644556 0.0013351794837 0.0013089744867 
0.0012867906663 0.0012652835684 0.001244426772 0.0012241959828 0.0012045684599 0.0011855211668 0.0011670325402 0.0013485107932 0.0013271189456 
0.0013026318299 0.0012825111898 0.0012628860689 0.0012437441223 0.0012250749347 0.0012068678892 0.0011891138374 0.0011718029056 0.001361010393 
0.0013392873769 0.0013141840791 0.0012937368498 0.0012737936496 0.0012543421178 0.001235371762 0.0012168715697 0.0011988323936 0.0011812447965 
0.0013736247373 0.0013515693299 0.0013258963185 0.0013051183694 0.0012848526 0.0012650873238 0.0012458109675 0.0012270131464 0.00120868447 
0.0011908158491 0.0013863523031 0.0013639638315 0.0013377810123 0.0013166669432 0.001296073647 0.0012759891258 0.0012564019177 0.0012373016411 
0.0012186786991 0.0012005243866 0.0013991889167 0.0013764660769 0.0013498474118 0.0013283920534 0.0013074657093 0.0012870563378 0.0012671529181 
0.0012477447681 0.0012288226082 0.0012103775041 0.0014121238005 0.0013890641003 0.0013621006416 0.0013402977637 0.0013190325015 0.0012982929542 
0.0012780675386 0.0012583462262 0.0012391191466 0.0012203779559 0.0014256413232 0.0014017838162 0.0013739308272 0.0013511685979 0.0013290909041 
0.0013076720741 0.0012868885014 0.0012667167785 0.0012471342508 0.0012281198381 0.0014398177378 0.001415621684 0.0013877112487 0.0013645503998 
0.0013420871457 0.0013202957969 0.0012991520042 0.0012786323646 0.0012587140749 0.0012393764888 0.00145402923 0.0014294785304 0.0014015578823 
0.0013780033728 0.0013551597353 0.0013330003471 0.001311500704 0.0012906372897 0.001270387509 0.0012507290629 0.0014682687792 0.0014433499835 
0.0014154593993 0.0013915170615 0.0013682978993 0.0013457751908 0.0013239243017 0.0013027215189 0.0012821434621 0.0012621682232 0.0014489020849 
0.0014259409446 0.0014002891313 0.0013786651979 0.0013575720297 0.0013369981902 0.0013169331434 0.0012973665001 0.0012782879683 0.0012596886364 
0.0014623504512 0.0014390305038 0.0014127296421 0.0013907555434 0.0013693219356 0.0013484169647 0.0013280290088 0.001308148509 0.0012887649939 
0.0012698695374 0.0014759259555 0.0014522466466 0.0014253398167 0.0014030116703 0.0013812328875 0.0013599916563 0.0013392766849 0.0013190778718 
0.0012993850749 0.0012801892038 0.00148962134 0.0014655819015 0.0014381258847 0.0014154384899 0.0013933096227 0.0013717274744 0.0013506806198 
0.0013301586194 0.0013101520144 0.0012906512659 0.0015034280252 0.001479027182 0.0014510928035 0.0014280407492 0.0014055564298 0.00138362807 
0.0013622440721 0.0013413941689 0.0013210682314 0.0013012577693 0.0015173316633 0.0014925675119 0.0014642416757 0.0014408197994 0.0014179748885 
0.0013956945664 0.001373967895 0.001352784413 0.0013321342679 0.0013120084241 0.0015318657957 0.0015063767335 0.0014770043838 0.001452574674 
0.0014288727203 0.0014058731653 0.0013835519479 0.0013618852334 0.0013408500924 0.0013204244628 0.0015469693585 0.0015211159531 0.0014916487787 
0.0014667972087 0.0014426873578 0.0014192938528 0.0013965915693 0.0013745565719 0.0013531661716 0.0013323979393 0.0015621113185 0.0015358780371 
0.0015063649871 0.0014810970011 0.0014565845355 0.0014328011643 0.0014097219147 0.0013873225587 0.0013655806441 0.0013444725198 0.0015772917568 
0.0015506640892 0.0015211481036 0.0014954692349 0.0014705588074 0.0014463903307 0.0014229385425 0.0014001793458 0.0013780889898 0.0013566441937 
0.0015485190931 0.0015240179316 0.0014972390698 0.0014741281473 0.0014515827218 0.0014295923206 0.0014081458167 0.001387232898 0.0013668438638 
0.0013469686998 0.0015628968919 0.0015380098422 0.0015105530018 0.0014870692597 0.0014641614637 0.0014418178506 0.0014200278516 0.0013987807542 
0.0013780670774 0.0013578767451 0.0015774134918 0.0015521401501 0.001524045355 0.0015001846781 0.001476909563 0.0014542084357 0.0014320703374 
0.0014104847356 0.0013894421015 0.0013689324905 0.0015920580476 0.0015663981948 0.0015377185658 0.0015134760891 0.0014898288426 0.0014667651485 
0.0014442743941 0.0014223458585 0.001400969489 0.0013801359197 0.0016068186365 0.0015807706294 0.001551574362 0.0015269445872 0.0015029202002 
0.0014794892399 0.0014566405412 0.00143436377 0.001412649014 0.0013914867207 0.0016216786297 0.0015952423709 0.0015656120035 0.0015405900049 
0.0015161829744 0.0014923791891 0.0014691673937 0.001446537158 0.0014244787103 0.0014029825041 0.0016371769257 0.0016100809998 0.0015792465453 
0.0015531703582 0.0015278650193 0.0015033046918 0.0014794654415 0.0014563229654 0.0014338541664 0.0014120356962 0.001653193594 0.0016257082023 
0.0015947455045 0.001568225275 0.0015424897941 0.001517514221 0.001493272943 0.0014697420708 0.0014468978927 0.0014247174744 0.0016692535682 
0.0016413628391 0.0016103233175 0.001583363594 0.00155720344 0.0015318166192 0.0015071775155 0.0014832619208 0.0014600460037 0.0014375069806 
0.0016853604196 0.0016570498882 0.001625977796 0.0015985845866 0.0015720043144 0.0015462104341 0.0015211776546 0.0014968812695 0.0014732978346 
0.0014504028162 0.0016473070265 0.0016212961377 0.0015934350369 0.0015688533041 0.0015448713913 0.0015214789853 0.0014986654312 0.0014764206066 
0.0014547343708 0.001433596906 0.001662596725 0.0016361738234 0.0016076102493 0.0015826334766 0.0015582673574 0.0015345006598 0.0015113229284 
0.0014887241862 0.0014666939503 0.0014452224663 0.0016780367225 0.0016512012622 0.0016219725162 0.0015965962643 0.0015718410388 0.0015476957406 
0.0015241495487 0.0015011922613 0.0014788137585 0.001457004089 0.0016936140874 0.0016663659123 0.0016365213593 0.0016107410092 0.0015855921264 
0.0015610632758 0.001537143879 0.0015138235351 0.0014910921468 0.001468939825 0.0017093141574 0.0016816518502 0.0016512560358 0.0016250666636 
0.0015995188766 0.0015746017625 0.0015503043299 0.0015266160649 0.0015035269296 0.0014810272072 0.0017251190907 0.0016970430743 0.0016661748227 
0.0016395711407 0.0016136193155 0.0015883086398 0.0015636278429 0.0015395666354 0.0015161147088 0.0014932626515 0.0017415200294 0.0017128432332 
0.0016806115066 0.0016529103046 0.0016260219867 0.0015999215317 0.0015745840422 0.0015499855317 0.0015261021204 0.0015029106427 0.0017584312033 
0.0017293406039 0.0016969522481 0.0016687846289 0.0016414450311 0.0016149072936 0.0015891472872 0.0015641401884 0.0015398619694 0.0015162889257 
0.0017753909867 0.0017458704961 0.0017133784861 0.0016847494852 0.0016569626681 0.001629992669 0.0016038140585 0.001578402079 0.001553732412 
0.0015297814672 0.0017924049753 0.0017624402139 0.001729890972 0.0017008053031 0.0016725765011 0.0016451784335 0.0016185853812 0.0015927722196 
0.0015677148626 0.0015433890666 0.0017452109384 0.0017177225584 0.0016888332378 0.0016627955826 0.0016373923162 0.0016126127512 0.0015884467749 
0.0015648842613 0.0015419150507 0.0015195289929 0.0017613967745 0.0017334704025 0.0017038591643 0.0016774049823 0.0016515958521 0.0016264212715 
0.0016018708987 0.0015779346184 0.0015546022127 0.0015318634413 0.0017777442299 0.0017493796 0.0017190803792 0.0016922048985 0.0016659854554 
0.0016404113344 0.00161547219 0.001591157806 0.0015674578549 0.0015443623476 0.0017942392687 0.0017654359516 0.0017344947818 0.0017071934056 
0.0016805589263 0.0016545806679 0.0016292482004 0.0016045511108 0.0015804791891 0.0015570223411 0.0018108650975 0.0017816223196 0.0017501000292 
0.0017223677716 0.0016953134647 0.0016689262338 0.0016431955118 0.0016181109744 0.0015936623769 0.0015698396778 0.0018276028152 0.0017979209709 
0.0017658927509 0.0017377244626 0.001710245166 0.0016834439401 0.0016573099187 0.0016318329715 0.001607002893 0.0015828094059 0.0018448388422 
0.0018146086432 0.0017810530135 0.0017517476508 0.0017232971438 0.0016956766625 0.0016688610889 0.0016428267656 0.0016175490566 0.0015930039932 
0.0018626225038 0.0018319548979 0.001798219612 0.0017684259186 0.0017395023691 0.0017114237071 0.0016841653064 0.0016577021877 0.0016320100121 
0.0016070646054 0.0018804604766 0.0018493393124 0.0018154787346 0.0017852015362 0.001755809539 0.0017272773959 0.001699579799 0.001672691712 
0.0016465885461 0.0016212462506 0.0018983600562 0.0018667705442 0.0018328324604 0.0018020766335 0.0017722211966 0.0017432398708 0.0017151069774 
0.0016877977857 0.0016612870961 0.0016355509332 0.0018421764411 0.0018132436259 0.0017833901657 0.0017559117748 0.0017291014276 0.0017029491842 
0.0016774451204 0.0016525790939 0.0016283411283 0.001604720835 0.0018592433366 0.0018298466542 0.0017992572689 0.0017713407545 0.001744103673 
0.001717535849 0.0016916274125 0.0016663681272 0.0016417478607 0.0016177564009 0.0018764835562 0.0018466233055 0.0018153280033 0.001786968834 
0.001759300462 0.0017323127176 0.0017059954634 0.0016803386113 0.001655331859 0.0016309650142 0.0018938817344 0.0018635570665 0.001831599203 
0.0018027926484 0.0017746884058 0.0017472760603 0.0017205454798 0.0016944864988 0.001669088914 0.0016443424504 0.0019114195349 0.0018806313294 
0.0018480671212 0.0018188083872 0.0017902633431 0.001762421685 0.0017352730853 0.0017088073718 0.0016830143264 0.0016578836261 0.0019290786172 
0.001897825997 0.00186472717 0.0018350112928 0.0018060205192 0.0017777445243 0.0017501729613 0.0017232955694 0.0016971022152 0.0016715826567 
0.0019470754428 0.0019153207949 0.0018805235594 0.0018496345767 0.0018196424255 0.0017905223252 0.0017622496114 0.0017347994984 0.0017081480139 
0.0016822704583 0.0019657071563 0.0019334922685 0.0018984981534 0.001867099091 0.0018366127398 0.0018070137267 0.0017782774783 0.0017503790497 
0.0017232937804 0.0016969968887 0.0019843995244 0.0019517079585 0.0019165726423 0.0018846685207 0.0018536922931 0.001823619129 0.0017944233734 
0.0017660801094 0.0017385643273 0.0017118512668 0.0020031606446 0.001969977926 0.0019347501628 0.0019023456234 0.0018708847117 0.0018403413074 
0.0018106901478 0.0017819057131 0.001753963034 0.0017268375121 0.0019376822293 0.0019071912532 0.0018767395747 0.0018477229124 0.001819485097 
0.0017919966295 0.0017652298731 0.0017391588188 0.0017137595764 0.0016890097945 0.0019555411292 0.0019245502828 0.0018934258472 0.0018639307631 
0.0018352307384 0.0018072956055 0.0017800971796 0.0017536090683 0.0017278067724 0.00170266766 0.0019735816411 0.0019420882501 0.0019103442284 
0.0018803647776 0.0018511965469 0.001822808936 0.0017951730935 0.0017682622089 0.0017420514511 0.0017165176112 0.0019918002125 0.0019598002721 
0.0019275015972 0.001897031488 0.0018673889236 0.0018385426526 0.0018104634447 0.0017831239583 0.0017564988387 0.0017305646281 0.0020101924034 
0.0019776833921 0.0019449056119 0.0019139384072 0.0018838150258 0.001854503687 0.0018259747417 0.0017982004344 0.0017711549416 0.0017448144549 
0.0020287557845 0.0019957333457 0.0019625648173 0.0019310936182 0.0019004826376 0.0018706996069 0.0018417143466 0.0018134987166 0.0017860265495 
0.001759273502 0.0020466258159 0.0020131190576 0.0019780434147 0.0019456927172 0.0019143202518 0.0018838795218 0.0018543271136 0.0018256222115 
0.0017977276933 0.0017706084045 0.0020662078214 0.0020322396693 0.0019968765315 0.0019639690685 0.0019320627537 0.0019011101684 0.0018710667984 
0.0018418916845 0.001813545948 0.0017859941149 0.0020858842541 0.0020514369316 0.0020158371214 0.0019823780078 0.0019499425904 0.0019184823349 
0.0018879523522 0.0018583102701 0.0018295166985 0.0018015352619 0.0021056480054 0.0020707049661 0.0020349183806 0.0020009128242 0.0019679529217 
0.0019359898093 0.0019049771415 0.0018748717641 0.0018456335843 0.0018172257108 0.0020326978035 0.0020008190671 0.001969332083 0.001938936578 
0.0019093505249 0.0018805447636 0.0018524920012 0.0018251666507 0.0017985447168 0.0017726038714 0.002051397507 0.0020189986394 0.0019868263081 
0.00195593085 0.001925861522 0.0018965886878 0.0018680844221 0.001840322697 0.0018132790657 0.0017869306928 0.0020702877048 0.0020373651941 
0.0020045590443 0.0019731576698 0.0019425991541 0.0019128533559 0.0018838919122 0.0018556881176 0.0018282172279 0.0018014560368 0.0020893627718 
0.0020559145857 0.0020225361542 0.0019906226594 0.0019595688063 0.0019293439151 0.0018999191854 0.0018712675253 0.0018433636237 0.0018161839624 
0.0021086189769 0.0020746413903 0.0020407643373 0.0020083321311 0.0019767764831 0.0019460661676 0.0019161719658 0.0018870662556 0.0018587233762 
0.0018311193354 0.0021280510172 0.0020935406084 0.0020592508342 0.0020262931738 0.0019942290087 0.0019630266788 0.0019326564372 0.0019030902977 
0.0018743021489 0.0018462676579 0.0021465401069 0.0021115482596 0.0020752186906 0.0020413764765 0.0020085475623 0.0019766859259 0.0019457483703 
0.0019156940848 0.0018864858953 0.0018580883689 0.0021669414393 0.0021314649254 0.0020948322322 0.002060412613 0.0020270296572 0.0019946364608 
0.0019631886766 0.0019326453656 0.0019029677343 0.0018741198597 0.0021874405244 0.0021514616336 0.0021145791353 0.0020795871568 0.0020456548837 
0.0020127341992 0.0019807806709 0.0019497516257 0.0019196077521 0.0018903124682 0.0022080311631 0.0021715336167 0.0021344533212 0.0020988940979 
0.0020644169662 0.0020309736567 0.0019985179169 0.0019670067954 0.0019364001014 0.0019066602831 0.0021266339016 0.0020933909494 0.0020608513633 
0.0020291136125 0.0019982139467 0.0019681238225 0.0019388162863 0.001910266014 0.0018824490362 0.0018553429693 0.0021461533774 0.0021123707996 
0.002079131254 0.0020468728386 0.0020154697396 0.0019848928597 0.0019551146835 0.0019261094096 0.00189785263 0.0018703215007 0.0021658707692 
0.0021315451636 0.0020976551131 0.0020648700856 0.0020329576066 0.0020018880349 0.0019716335049 0.0019421676096 0.0019134655048 0.0018855040152 
0.0021857793189 0.002150909039 0.0021164280344 0.0020831100412 0.00205068201 0.0020191137551 0.0019883768191 0.001958444431 0.0019292913628 
0.0019008939413 0.0022058742338 0.0021704559334 0.0021354555372 0.0021015981297 0.0020686480665 0.0020365748003 0.002005349314 0.0019749444254 
0.0019453343831 0.0019164952024 0.0022261492894 0.0021901803445 0.0021547439139 0.0021203403628 0.0020868616697 0.0020542768041 0.0020225562883 
0.0019916725252 0.0019615993558 0.0019323123505 0.002245145893 0.0022086783279 0.0021711915343 0.0021359015576 0.0021016576056 0.002068414136 
0.0020361280333 0.0020047588884 0.0019742685889 0.0019446224336 0.0022663532886 0.0022293789789 0.0021915686817 0.0021556815554 0.0021208642484 
0.0020870702499 0.002054255685 0.0020223789657 0.0019914020503 0.0019612884749 0.0022876611555 0.0022501624705 0.0022120844132 0.0021756051083 
0.0021402191087 0.0021058788179 0.0020725394743 0.0020401592718 0.0020086985911 0.0019781204893 0.0023090635868 0.0022710243964 0.0022327326114 
0.0021956662952 0.0021597162509 0.0021248338934 0.0020909741537 0.0020580937919 0.0020261525347 0.0019951128516 0.0022194493042 0.0021848677185 
0.0021512629806 0.0021182188453 0.0020860398118 0.0020546980245 0.0020241667847 0.0019944208493 0.00196543644 0.0019371911447 0.0022397675669 
0.0022046271167 0.0021703065077 0.002136721892 0.0021040199891 0.0020721724128 0.0020411520625 0.0020109332204 0.0019814915504 0.0019528043065 
0.0022602890802 0.0022245884886 0.002189598873 0.0021554675691 0.0021222368128 0.002089877588 0.0020583623919 0.0020276649817 0.0019977606949 
0.0019686262126 0.0022810079991 0.0022447443146 0.00220914404 0.0021744597741 0.0021406940021 0.0021078171439 0.002075801142 0.0020446193877 
0.0020142467359 0.0019846594301 0.0023019171107 0.0022650882676 0.0022289466695 0.0021937030767 0.0021593959117 0.0021259950935 0.0020934721323 
0.0020617999703 0.002030953047 0.0020009072613 0.0023230095093 0.0022856123409 0.0022490120671 0.0022132024182 0.0021783472374 0.0021444159633 
0.002111379648 0.0020792108025 0.0020478834921 0.0020173732196 0.0023424032033 0.0023044715628 0.0022659249639 0.0022292305928 0.0021936127057 
0.0021590260715 0.0021254279907 0.0020927780964 0.0020610381957 0.0020301732612 0.0023644024091 0.0023259432549 0.0022870481933 0.0022497377327 
0.0022135279402 0.0021783727288 0.0021442284983 0.0021110537837 0.0020788104271 0.0020474617917 0.0023865037025 0.0023474995969 0.0023083143476 
0.0022703927472 0.0022335956542 0.0021978760726 0.0021631892781 0.0021294938326 0.0020967498812 0.0020649203722 0.0024087020118 0.0023691368585 
0.0023297176297 0.0022911899233 0.0022538101997 0.0022175302145 0.0021823053992 0.0021480924804 0.0021148512028 0.0020825437157 0.0023111065526 
0.0022752129009 0.0022405349345 0.0022062198026 0.0021727953424 0.0021402340815 0.0021085098025 0.0020775975116 0.0020474734103 0.0020181151266 
0.002332201854 0.0022957324707 0.0022603205491 0.0022254456057 0.0021914795317 0.0021583942304 0.0021261631034 0.0020947605837 0.0020641625176 
0.0020343459994 0.0023535053826 0.0023164586793 0.0022803589133 0.0022449181163 0.0022104044109 0.002176789269 0.0021440454774 0.0021121471223 
0.002081069566 0.0020507894948 0.0023750106084 0.0023373840146 0.0023006533386 0.0022646404344 0.0022295729124 0.0021954218402 0.0021621594775 
0.0021297594437 0.0020981967563 0.0020674476557 0.0023967092691 0.0023585010803 0.0023212075338 0.0022846160175 0.0022489883221 0.0022142950397 
0.002180507988 0.00214760037 0.0021155467355 0.0020843229489 0.0024185940577 0.0023798010241 0.0023420256914 0.0023048489204 0.0022686545186 
0.0022334125962 0.0021990945358 0.0021656731271 0.0021331224937 0.0021014181381 0.0024382759 0.0023988943173 0.0023593849988 0.0023213289364 
0.0022843777339 0.00224848666 0.0022136131634 0.0021797169759 0.0021467601169 0.0021147066019 0.0024610514555 0.0024211228617 0.0023812360959 
0.0023425458621 0.0023049850713 0.0022685080808 0.0022330714968 0.0021986342423 0.002165157273 0.0021326046718 0.002483930152 0.0024434372215 
0.0024032338172 0.0023639142931 0.0023257484504 0.0022886897099 0.0022526938925 0.0022177188127 0.0021837254638 0.0021506762567 0.0025069071211 
0.0024658339728 0.0024253724194 0.0023854286081 0.0023466623157 0.0023090261246 0.0022724747433 0.0022369659277 0.0022024591074 0.0021689162412 
0.0024015702262 0.0023643942563 0.0023286377442 0.0022930862365 0.0022584495827 0.0022247008621 0.002191814138 0.0021597646458 0.0021285286613 
0.0020980837474 0.0024234203647 0.0023856527753 0.0023491440214 0.0023130142311 0.0022778179423 0.0022435276205 0.002210116855 0.0021775604207 
0.0021458342374 0.0021149153605 0.0024454837982 0.0024071223416 0.0023699064595 0.0023331922743 0.0022974302931 0.0022625924474 0.002228651901 