# vtk DataFile Version 5.1
vtk output
ASCII
DATASET STRUCTURED_POINTS
DIMENSIONS 10 10 20
SPACING 0.1 0.1 0.1
ORIGIN 3.25 -0.45 0.55
POINT_DATA 2000
FIELD FieldData 1
potential 1 2000 double
0.015083795002 0.016045473629 0.017042226479 0.01813717603 0.019301722693 0.020536231437 0.021839647785 0.023209209443 0.024639694847 
0.026123059929 0.014163957735 0.015024414581 0.015929822457 0.016902735697 0.017932094144 0.019017494152 0.020157565503 0.021349370665 
0.022588041087 0.023866628773 0.013291762388 0.014060697771 0.01488607473 0.015750682739 0.016660916914 0.017616010667 0.018614374575 
0.019653122217 0.020727875056 0.021832594308 0.012478294652 0.01316511032 0.01392135892 0.01469057626 0.015496638995 0.016338511683 
0.017214570467 0.018122058024 0.019057115726 0.020014666764 0.011729025093 0.012342737711 0.013040034496 0.013725761788 0.014441193353 
0.015185254104 0.0159561599 0.016751580214 0.017568082388 0.018401305195 0.011044542275 0.011593502303 0.012240960423 0.012853837348 
0.013490649295 0.0141502547 0.014831061257 0.015530846051 0.016246769449 0.016975211509 0.010261021159 0.010751539898 0.011334618241 
0.011885405167 0.01245682361 0.013047456011 0.013655413283 0.014278366529 0.014913481992 0.015557506005 0.0097127993643 0.010156407414 
0.010699159478 0.011193361466 0.011704481711 0.012231322577 0.012772174753 0.013324948294 0.013887081576 0.014455731227 0.0092104552122 
0.0096126616458 0.010119408458 0.010564331367 0.011023251118 0.011494993475 0.011978081042 0.012470723405 0.012970547967 0.013474980013 
0.0087425544854 0.0091080268325 0.0095823169176 0.0099840734477 0.010397433769 0.010821275174 0.011254361061 0.011695029524 0.012141131043 
0.01259028154 0.017274810435 0.01835548855 0.019499528418 0.02072780724 0.022031418095 0.023410272337 0.024862625945 0.026384931453 
0.027971545359 0.029614093342 0.016259409748 0.017229363358 0.018271445287 0.019366541549 0.020522964074 0.021739978682 0.023015639837 
0.024346335764 0.025726783121 0.027149506177 0.015298788448 0.016168690479 0.017121403354 0.018098286504 0.019125062299 0.020200577008 
0.02132277191 0.022488212123 0.023692095666 0.024928086451 0.014398243218 0.015178186462 0.016053164842 0.016925543753 0.017838405865 
0.018790437911 0.01977952982 0.020802558001 0.021855214807 0.022932145831 0.013560799265 0.014260218715 0.015068067658 0.015848274144 
0.016661297219 0.017505781116 0.018379682355 0.019280069522 0.020203330544 0.021144679895 0.012786553145 0.013414105528 0.014164350043 
0.014863498086 0.015589169894 0.01634002954 0.017114159391 0.017908995678 0.018721296174 0.019547165719 0.011901149332 0.012463434002 
0.013136447258 0.013765273595 0.014417074684 0.01509015514 0.015782306211 0.016490930092 0.017212847336 0.017944464114 0.011262639038 
0.011771656852 0.012396872374 0.012961934297 0.013545878721 0.01414718104 0.014763875513 0.015393552509 0.016033439223 0.016680364399 
0.010671581315 0.011133055966 0.011715241044 0.012224307682 0.012748955409 0.013287766286 0.013838936922 0.014400354148 0.014969552434 
0.015543719076 0.010119468772 0.010538620794 0.011081825565 0.011541550687 0.012014170699 0.012498269727 0.012992307157 0.013494417154 
0.014002320603 0.014513553 0.019347300593 0.020532740201 0.021809244422 0.023153346332 0.024576569237 0.026078336546 0.027656469036 
0.029306744012 0.031022833301 0.032796052342 0.01824144086 0.019308269515 0.020474193515 0.021676247879 0.022943032172 0.024273424389 
0.025664986096 0.027113625448 0.028613547187 0.030157053848 0.017196277962 0.01815587092 0.019224537662 0.020300303943 0.02142895512 
0.022609095465 0.023838149252 0.025112338618 0.026426367573 0.027773641368 0.016213855413 0.017076849312 0.018060382103 0.019024063285 
0.020030938388 0.021079366062 0.022166839781 0.023289897395 0.024443938061 0.025623060213 0.015295238278 0.016071431944 0.016980831777 
0.017845193967 0.018744712812 0.019677741892 0.020641925464 0.021634034885 0.022650052461 0.023685104993 0.014439804177 0.015138148269 
0.015983235915 0.01675972674 0.017564693792 0.01839664935 0.019253337933 0.020131932693 0.021028867231 0.02193991029 0.013464000299 
0.014091567506 0.014847178595 0.015546382921 0.016270351726 0.017017163671 0.017784443496 0.018569199639 0.019368020504 0.02017699618 
0.012746059545 0.01331488811 0.014016341024 0.014645722658 0.015295597458 0.015964038463 0.016648965312 0.017347708057 0.018057233812 
0.018774075683 0.012077324554 0.012593747409 0.013246012531 0.013813840966 0.014398453775 0.014998269369 0.015611321726 0.016235210516 
0.016867229079 0.017504393098 0.011452055719 0.011921052798 0.01252871082 0.013041979951 0.013569081954 0.014108564203 0.014658617525 
0.015217090137 0.015781649875 0.016349581899 0.021287318291 0.02256250499 0.02395564773 0.025397363979 0.026920177569 0.028523073627 
0.030203343614 0.031956274785 0.033775067257 0.035650379639 0.020100491092 0.021250986681 0.022527063711 0.023820373104 0.025180375085 
0.02660561807 0.028093111248 0.029638466286 0.0312354269 0.032875982891 0.018978448619 0.020016154384 0.021188723673 0.02234967813 
0.023565423556 0.024834165844 0.026153032923 0.027517826263 0.028922970296 0.030361498586 0.017921674855 0.018857463041 0.019938879899 
0.020981952202 0.022069898114 0.02320088557 0.024372135267 0.025579702201 0.02681875368 0.028083130203 0.016929961809 0.017773833708 
0.018775327996 0.019713484807 0.0206882884 0.021697949344 0.022739813213 0.023810404856 0.024905345225 0.026019423121 0.016002081822 
0.016763260051 0.017694858 0.018539594867 0.019414252936 0.020317030046 0.021245529089 0.022196555593 0.023166334128 0.024150318286 
0.014946991079 0.015633151222 0.016463800437 0.017225547208 0.01801334902 0.018825117427 0.019658216002 0.020509487658 0.021375245663 
0.022251269902 0.014159281483 0.014782084103 0.015553270121 0.016240318859 0.016948939692 0.017677133448 0.018422478679 0.019182202229 
0.019953000824 0.020731189685 0.013422710833 0.013988865609 0.014705716563 0.015326542598 0.015965128646 0.016619690126 0.01728804511 
0.017967684019 0.018655665906 0.019348756143 0.012732735769 0.013247581076 0.013914857248 0.014476844438 0.015053396219 0.015643041868 
0.016243620909 0.01685296633 0.017468454833 0.018087289175 0.02308613583 0.024435852613 0.025929653759 0.027450770692 0.029053477758 
0.030736185647 0.032495668859 0.034326826317 0.036222356225 0.038172764782 0.021829718216 0.023050694258 0.024422895261 0.025791742379 
0.027228017121 0.028729773091 0.030293776177 0.031915085847 0.033587214181 0.035301792975 0.020640600748 0.021744741559 0.023008876183 
0.02424136708 0.025529482893 0.026871141854 0.028263085481 0.029700800264 0.031178442602 0.032688732104 0.019518501191 0.020516770062 
0.021685158987 0.02279568746 0.023951960197 0.02515191161 0.026392397229 0.027669348189 0.028977566943 0.030310625212 0.018462554432 
0.019365050223 0.020448843492 0.021450353087 0.022489380641 0.023563915228 0.024671037634 0.025807036767 0.026967301398 0.028146302994 
0.017471165872 0.018287191421 0.019296558781 0.020200542748 0.021135253527 0.02209869507 0.023088260626 0.024100576031 0.025131585115 
0.026176515419 0.01634747668 0.017085536491 0.017983559808 0.018799918831 0.01964323669 0.020511135176 0.021400865655 0.022309057874 
0.023231816065 0.024164683976 0.015498838476 0.016169934782 0.017004067798 0.017741931793 0.018502114589 0.019282496825 0.020080479826 
0.020893035723 0.021716696377 0.022547592297 0.01470302741 0.015313710793 0.016089388275 0.016757356719 0.017443812083 0.018146698937 
0.018863731616 0.019592202555 0.020329052503 0.021070823526 0.013956093637 0.014512379665 0.015234226241 0.015839790557 0.016460700748 
0.017094922004 0.017740476603 0.018394898508 0.019055407463 0.019719040327 0.024739073498 0.026148504209 0.027727182603 0.029310287217 
0.030974017999 0.032716327407 0.034533563899 0.036420145367 0.038368524549 0.040368987245 0.023425179095 0.024703577863 0.026158060367 
0.027587225568 0.029083377487 0.030644240508 0.032266129462 0.033943868023 0.035670613965 0.037437858398 0.022179693265 0.023338739781 
0.024682160567 0.02597290618 0.027319129096 0.028718478818 0.030167473358 0.03166128067 0.033193784029 0.034757509076 0.02100202454 
0.022052593001 0.023296959958 0.024463305507 0.025675511808 0.02693121663 0.028227115811 0.029558827586 0.030920932764 0.032306897869 
0.019891093955 0.020843224941 0.021999532301 0.023054136114 0.024146563661 0.025274490474 0.026434843097 0.027623679163 0.028836179889 
0.030066652773 0.018845228989 0.019708143606 0.020786396712 0.021740705995 0.022726041077 0.023740219488 0.024780440159 0.025843179091 
0.026924179103 0.028018472615 0.017663526194 0.018446666003 0.019404384949 0.020267525873 0.021158057604 0.022073490131 0.023010806265 
0.02396650394 0.024936540622 0.025916291317 0.016762097947 0.017475614356 0.018365894734 0.019147832191 0.019952447865 0.020777533602 
0.021620307847 0.022477639184 0.023345893897 0.024221020854 0.015914927003 0.01656519718 0.017393419062 0.018102749421 0.018830831042 
0.019575656446 0.02033468629 0.021105089691 0.021883683251 0.022666875071 0.015118140618 0.015711417646 0.01648251601 0.01712672196 
0.017786400721 0.018459846392 0.019144559742 0.019838141785 0.020537628205 0.021239920436 0.02624471326 0.027699758685 0.029348281789 
0.030976990977 0.032684214226 0.03446753016 0.03632281981 0.038244205878 0.040223900872 0.042252081165 0.024885411431 0.026208686346 
0.027732073865 0.029207165007 0.030747793675 0.032351436431 0.034014025605 0.035730156121 0.037492780406 0.039293266317 0.023594436549 
0.024797274204 0.026207945855 0.027544213218 0.028935076859 0.030377866814 0.031868833154 0.033402957324 0.034973954375 0.036574248838 
0.022371187186 0.023464184274 0.024773700318 0.025984650901 0.027240923733 0.028539895276 0.02987807369 0.031250867641 0.032652676058 
0.03407688769 0.021214622296 0.022207618442 0.023426597007 0.024524509169 0.025659883809 0.026830260739 0.028032368031 0.029262106874 
0.030514513787 0.031783743284 0.02012311964 0.021025261975 0.022163367392 0.023159337039 0.024186182697 0.025241547747 0.02632242929 
0.027425207136 0.028545483853 0.029678149708 0.018893561039 0.019715188579 0.020725098095 0.021627395883 0.022557100239 0.02351162059 
0.024487805377 0.025482013296 0.026490019301 0.027507076138 0.017947440463 0.018697223987 0.019637111103 0.020456336847 0.021298427465 
0.022160868803 0.02304087791 0.023935129534 0.02483987567 0.025750975297 0.017056055624 0.017740807636 0.018615633337 0.019360312347 
0.020124007372 0.020904309219 0.021698814703 0.022504400451 0.023317791536 0.024135319648 0.016216091599 0.016841862713 0.017656835675 
0.018334487241 0.019027858713 0.019734764824 0.020453072295 0.021179905474 0.021912419565 0.022647260657 0.027604271854 0.029091744088 
0.030796059282 0.032455325113 0.034190158717 0.035997648583 0.037873419702 0.039811316705 0.041803414324 0.043839891085 0.026211132788 
0.027567500586 0.029147002644 0.03065463856 0.032225663195 0.033857120467 0.0355448253 0.037283118378 0.039064826617 0.040881308872 
0.024885201007 0.026121327267 0.027587682786 0.02895759386 0.030380525784 0.031853567041 0.033372735274 0.034932862213 0.036527551244 
0.038149165366 0.023626169855 0.024752217841 0.02611631974 0.027361344082 0.028650523949 0.029981123034 0.031349365962 0.032750601241 
0.034179110658 0.035628193278 0.022433165173 0.023458659589 0.024730555784 0.025862433824 0.027030952751 0.028233489706 0.029466616917 
0.03072612561 0.032006961996 0.033303216635 0.021304653894 0.022238601424 0.023427578123 0.024456935886 0.025516560129 0.026604026109 
0.027716203008 0.028849283614 0.029998781083 0.03115957698 0.020037062343 0.020890820677 0.021945473176 0.022879638767 0.023840837042 
0.02482642044 0.025833149271 0.026857239855 0.027894394839 0.028939803806 0.019053682761 0.019834267318 0.020816759428 0.021666957549 
0.022539690589 0.023432518442 0.024342439723 0.025266128012 0.026199685169 0.02713890201 0.018124986421 0.018839195489 0.01975470519 
0.02052907976 0.021322256694 0.022132006017 0.022955465618 0.023789699888 0.024631228491 0.025476303431 0.017248169228 0.017901989773 
0.018755473148 0.019461569564 0.020183301499 0.020918458714 0.021664629515 0.022419067347 0.023178680623 0.023940186119 0.028821050424 
0.030328838184 0.032075955652 0.033752288597 0.035500477862 0.037317329675 0.039198160916 0.041136713645 0.043124927201 0.045153142017 
0.02740478934 0.028783361405 0.030407073773 0.031935060041 0.033523643766 0.035169627657 0.036868546118 0.038614651376 0.04040073222 
0.042218207081 0.02605392329 0.027313498726 0.028824554079 0.030217207071 0.031660708901 0.033152008512 0.034686930415 0.03626021102 
0.037865401338 0.039494906359 0.024768461851 0.025918737453 0.027327223025 0.028596533767 0.029908409583 0.031259861796 0.032647094289 
0.034065289033 0.035508737496 0.036970697369 0.023547730896 0.024597875684 0.025913230784 0.027070281995 0.028262765634 0.029487928006 
0.0307422286 0.032021345184 0.033320147444 0.034632783837 0.022390640354 0.023349120387 0.024580166916 0.025635114556 0.026719411525 
0.027830478377 0.028965127576 0.030119483213 0.031289000747 0.032468491359 0.021094467526 0.021973943558 0.023066360464 0.024025374587 
0.025010853952 0.026019962133 0.027049423737 0.028095379018 0.029153462869 0.030218833825 0.020080642197 0.02088656692 0.021905354352 
0.022780115459 0.023677098376 0.024593565412 0.025526589504 0.026472612091 0.027427777905 0.028387769188 0.019121129569 0.01985992307 
0.020810263561 0.021608817038 0.022425891655 0.023258981244 0.024105461065 0.024962044443 0.025825348064 0.026691467339 0.018213458482 
0.01889099225 0.019777652347 0.020507325824 0.021252322701 0.022010475319 0.022779213009 0.023555743719 0.024336942811 0.025119436881 
0.029899840301 0.031417081101 0.033195222874 0.034876598731 0.036625707609 0.038439052899 0.040311722006 0.042237330442 0.044207949805 
0.046214040104 0.028470279005 0.029861125394 0.031518047412 0.033055481814 0.034650259532 0.036298952674 0.037996995258 0.039738494766 
0.041516321683 0.043321999422 0.027103775183 0.028377804619 0.029923222416 0.031328661234 0.03278245031 0.03428133045 0.035820973556 
0.037396094297 0.039000263797 0.040625967307 0.025800608303 0.026966964437 0.028410139184 0.029694763135 0.03101995851 0.032382653951 
0.033778892231 0.035203854871 0.03665176065 0.038116009444 0.024560369192 0.025627779408 0.026977460292 0.028151628448 0.029359688695 
0.03059875616 0.031865227147 0.033154738243 0.034462172354 0.03578164723 0.0233823858 0.02435892039 0.02562323441 0.026696566361 
0.02779797552 0.028924871459 0.030073973077 0.031241349256 0.032422454908 0.033612117036 0.022066601275 0.022966231905 0.024089436269 
0.025066800683 0.026069740548 0.027095391869 0.028140361733 0.029200800695 0.030272308776 0.031350016705 0.021028897468 0.021854941669 
0.022903882773 0.023797410125 0.024712459818 0.025646383233 0.026595959577 0.027557742483 0.028527794037 0.029501783208 0.02004466332 
0.020803366644 0.021782850768 0.02260037274 0.023435854225 0.024286853487 0.025150487317 0.026023664706 0.026902697143 0.027783888003 
0.019111774837 0.019808852956 0.020723449096 0.02147202841 0.022235497842 0.023011622591 0.023797847209 0.02459126448 0.025388739409 
0.026186827028 0.030846700019 0.032363704906 0.034162249694 0.035838257892 0.037577539016 0.039376346842 0.041229667035 0.043131082086 
0.045072735678 0.047045375176 0.029412696742 0.030806912778 0.032486901431 0.034024137548 0.035615174093 0.037256391357 0.038943090667 
0.04066944197 0.042428327808 0.044211507258 0.028038901149 0.029319274371 0.030889433886 0.032298829677 0.033753734134 0.035250759057 
0.036785531397 0.038352718363 0.039945939492 0.041557862567 0.026725975006 0.027901080249 0.029369753345 0.030661601933 0.031991778149 
0.033357085541 0.034753528755 0.036176244468 0.037619544663 0.039076895621 0.02547394101 0.026551854416 0.027927000429 0.029110986452 
0.03032700284 0.031572158311 0.032842797625 0.034134519247 0.035442240133 0.036760177372 0.02428244795 0.025270787938 0.026559867707 
0.027644854795 0.028756529951 0.029892145396 0.031048423294 0.032221436225 0.033406624419 0.034598884175 0.022955256725 0.023869589078 
0.02501736241 0.026006870408 0.02702105692 0.028056765216 0.029110696484 0.030178907678 0.031257004039 0.032340163136 0.021899687039 
0.022740980626 0.023814169643 0.02472101822 0.02564856563 0.026594008327 0.027554292517 0.02852577379 0.029504568496 0.030486344699 
0.02089639467 0.021670618661 0.022673748053 0.023505332683 0.024354172199 0.025217782432 0.02609331781 0.026977527915 0.02786689688 
0.028757564816 0.019943566249 0.020656235381 0.021593677859 0.022356728228 0.02313412553 0.023923560954 0.024722457052 0.02552792081 
0.026336743106 0.027145494636 0.031668526711 0.033176817437 0.034986256139 0.03664792828 0.038368244462 0.040143308248 0.041968000195 
0.04383593678 0.045739455122 0.047669546696 0.030237800312 0.031627599144 0.033321467016 0.034850109531 0.036428798179 0.038053817781 
0.039720403978 0.041422743548 0.043153857447 0.044905711823 0.028864330862 0.030143749484 0.031729757359 0.033135305841 0.034583342701 
0.036070370913 0.037592003048 0.03914290756 0.040716825231 0.042306610793 0.027548942407 0.028725979221 0.030211535156 0.03150343813 
0.032831193163 0.0341915669 0.0355805252 0.036993252966 0.038424110262 0.039866705986 0.026292159435 0.027374293566 0.028766494003 
0.029953614123 0.03117083676 0.032415122011 0.033682825363 0.034969600688 0.036270395017 0.037579535473 0.025093650829 0.026088265035 
0.027393810978 0.028484346045 0.029600050031 0.030738040157 0.031895047703 0.033067096578 0.034249741505 0.03543791351 0.0237627458 
0.024686823719 0.025853201723 0.026849417745 0.02786904296 0.028909006765 0.029965958443 0.031035872315 0.032114447048 0.033196922485 
0.022694843428 0.023546858005 0.024638683269 0.025553842707 0.026488657926 0.027440415713 0.028405905964 0.02938160924 0.030363649039 
0.031347624283 0.021677709414 0.022463344615 0.02348486187 0.024325925409 0.025183449833 0.026054884048 0.026937376069 0.027827719763 
0.028722351839 0.029617453273 0.020709845701 0.021434374732 0.022389736114 0.023163117082 0.023950182683 0.02474860165 0.025555745001 
0.026368734776 0.027184386308 0.027999244453 0.032372689024 0.033865027998 0.035676918147 0.037316653657 0.039010375924 0.040754060492 
0.04254259054 0.044369627703 0.046227706249 0.048108179477 0.030952220077 0.032330616599 0.034030040836 0.035542890594 0.037101962162 
0.038703448628 0.040342597452 0.042013629929 0.043709775137 0.045423260757 0.029585750256 0.030857711448 0.032451291163 0.033846244157 
0.035280528879 0.036750611341 0.038252095318 0.039779739483 0.041327410403 0.042888157002 0.028274424692 0.029447332203 0.030941585362 
0.032227183959 0.033546105213 0.034895004111 0.036269884179 0.037665978332 0.039077792216 0.040499086349 0.027019002384 0.028100005059 
0.029501070627 0.030685447159 0.031897820755 0.033135174135 0.034393802119 0.035669403026 0.036957059947 0.03825120752 0.025819610341 
0.026815424813 0.028129423315 0.029220090482 0.030334222633 0.031468973471 0.032620928906 0.033786261335 0.034960554979 0.036138885382 
0.0244918973 0.025421192764 0.026600613167 0.02759855417 0.028618526748 0.029657550591 0.030712137207 0.031778481301 0.032852171052 
0.03392854914 0.023416676648 0.024275260095 0.025380436151 0.02629930095 0.027236739834 0.028189969959 0.02915586316 0.030130862854 
0.031111102376 0.032092356302 0.022390461963 0.023183709178 0.024218602969 0.025064944272 0.025926840452 0.026801738867 0.027686749835 
0.02857869838 0.029474076954 0.030369072524 0.021412064477 0.022144998011 0.0231135212 0.02389339587 0.024686202741 0.025489597194 
0.02630095823 0.027117375142 0.027935709046 0.028752545513 0.032985638704 0.034463389467 0.036250810409 0.037860312667 0.039519862039 
0.041225198662 0.042971027147 0.044751019537 0.046557788894 0.048382927126 0.031581153848 0.0329516809 0.034630635787 0.036119032409 
0.037650697314 0.03922151457 0.040826566902 0.042460025956 0.044115144866 0.045784321678 0.030225689752 0.031495621319 0.033072556071 
0.034448155867 0.035860904498 0.03730701934 0.038781867521 0.040280105895 0.041795612915 0.043321493531 0.028920720576 0.030096589688 
0.031577514661 0.032848292536 0.034150873697 0.035481672877 0.036836425566 0.038210237938 0.039597524665 0.040992094755 0.027667062103 
0.028755035819 0.030145839527 0.031319410229 0.032520060119 0.033744548592 0.034988778896 0.036248322742 0.037518138267 0.038792635551 
0.026464952026 0.027471106162 0.028777171141 0.029860804399 0.030967426859 0.032093930265 0.033236664024 0.034391552209 0.035553931176 
0.036718785328 0.025127665749 0.026050785896 0.02724377828 0.028245539022 0.029266774945 0.030304474827 0.031355259355 0.032415304015 
0.033480453766 0.034546178087 0.024048777111 0.024904493864 0.026020883265 0.026944786224 0.027885164419 0.028839231291 0.029803857658 
0.030775589499 0.031750654984 0.032724943568 0.023018942542 0.023812232626 0.024856487335 0.025708700792 0.026574778909 0.027452142941 
0.028337925377 0.029228966618 0.030121841436 0.03101286961 0.022036705636 0.022772220016 0.023748642336 0.024534916235 0.025332787233 
0.026139871143 0.026953538671 0.02777091389 0.028588884317 0.029404129792 0.033481406426 0.03493375753 0.036703799018 0.038280152397 
0.039902021719 0.041565070728 0.043264099639 0.044992938099 0.046744478591 0.048510676626 0.032097162585 0.033447383834 0.035113030827 
0.036574734715 0.038075836671 0.039612279098 0.041179203774 0.042770891594 0.044380854566 0.046001803861 0.030758633158 0.032012789918 
0.03357949764 0.034933982426 0.036322415831 0.037740974172 0.039185134636 0.040649676408 0.04212865105 0.043615464656 0.029467440479 
0.030631319729 0.032104603835 0.033359035281 0.034642559093 0.035951716065 0.037282145911 0.03862911079 0.039987228538 0.04135052244 
0.028224532868 0.02930394848 0.030688982321 0.03185027538 0.033036438656 0.034244114612 0.035469484014 0.036708083761 0.037954950404 
0.039204692976 0.027030434878 0.028030948557 0.029332571273 0.030407441602 0.031503412653 0.032617361828 0.033745724137 0.034884480466 
0.036029138759 0.037174853949 0.025711713699 0.026633093063 0.027824150973 0.028819543715 0.029832875384 0.030861154053 0.031901017079 
0.032948743943 0.034000258639 0.035051135554 0.024633735969 0.025489546387 0.026605174625 0.027525276622 0.028460559893 0.029408254878 
0.030365267894 0.031328189461 0.032293319833 0.033256661913 0.023602749843 0.024397645063 0.025442065513 0.026292612197 0.027155934002 
0.028029461614 0.028910355681 0.029795503929 0.030681533952 0.031564842588 0.022617573846 0.023355926687 0.02433323554 0.025119603343 
0.025916641595 0.026721982041 0.027533012819 0.028346893135 0.029160562285 0.029970754068 0.033883202855 0.035306081517 0.037052444623 
0.03859157339 0.040171818975 0.041788881045 0.04343763643 0.045112119118 0.046805480948 0.048510090184 0.032523193963 0.033849177853 
0.035495188369 0.036926114428 0.03839270838 0.039890925298 0.041416000299 0.042962415175 0.044523917815 0.046093532934 0.031205612474 
0.032439981605 0.03399058598 0.035319881176 0.036679946808 0.038067108817 0.03947677953 0.04090391634 0.042342845107 0.043787228909 
0.029932112984 0.031080304807 0.032540284362 0.033774365093 0.035034930192 0.036318463048 0.037620772316 0.038937236943 0.040262562279 
0.041591008465 0.02870390264 0.029771176234 0.031145116821 0.032290340022 0.033458182422 0.034645325928 0.035847962566 0.037061820831 
0.038282101332 0.03950364251 0.02752171786 0.028513190556 0.029805418163 0.030867852906 0.031949484226 0.033047227341 0.034157573535 
0.035276594375 0.036399962432 0.037522928663 0.026225938174 0.027142274 0.028326700192 0.029312246998 0.030314173828 0.031329522958 
0.032354986429 0.033386916643 0.034421338316 0.035453981342 0.025152661619 0.026005450409 0.027115930524 0.028028945076 0.028955820648 
0.029893814122 0.03083988064 0.031790677396 0.032742587681 0.033691725635 0.024124202944 0.024917781841 0.025958285049 0.026804078365 
0.027661523108 0.028528075849 0.029400936863 0.030277049422 0.031153117107 0.032025616513 0.023139635686 0.023878100181 0.024852503623 
0.02563607923 0.026429369855 0.027230023104 0.028035465771 0.028842900994 0.029649327991 0.030451553365 0.03419859978 0.035588813331 
0.037305922404 0.038804702362 0.040340365584 0.04190871982 0.043504732913 0.045122647636 0.046755933238 0.048397332554 0.0328660971 
0.034164434711 0.035785506072 0.037182367624 0.03861127855 0.040068349264 0.041548839196 0.043047393614 0.044558083076 0.046074258877 
0.03157268458 0.032784096577 0.034313366409 0.035614106094 0.036942618254 0.038295149783 0.039667440463 0.041054466052 0.042450713664 
0.043850137893 0.030320226824 0.031449570654 0.03289122173 0.03410171108 0.035336080481 0.036590823569 0.037861919791 0.039144852469 
0.04043456324 0.041725584082 0.029110085929 0.030162158 0.031520238769 0.032646159174 0.033792481785 0.03495593834 0.036132812572 
0.03731894026 0.038509733914 0.039700165168 0.027943171765 0.028922661207 0.030201028652 0.031247885275 0.032312049271 0.033390483968 
0.034479759845 0.035576059684 0.036675188965 0.037772602971 0.02667410647 0.027582493885 0.028756075819 0.029728773969 0.03071629704 
0.031715727491 0.032723826868 0.033737040773 0.034751511996 0.035763102118 0.025608846353 0.026455860892 0.027557214197 0.028460272186 
0.029375864465 0.0303012852 0.031233547384 0.032169388263 0.033105288354 0.034037482795 0.024586164121 0.025375827577 0.026408676688 
0.027246992961 0.028095825827 0.028952667211 0.029814764569 0.030679129695 0.031542547297 0.032401594406 0.023605370721 0.024341502889 
0.025309507778 0.026087718552 0.026874672101 0.027668046976 0.028465311661 0.029263726113 0.030060356868 0.030852092175 0.034434950555 
0.035789809394 0.037473063189 0.038929115109 0.040418058344 0.041935826573 0.04347749149 0.045037483159 0.04660965225 0.048187095526 
0.033132442719 0.034400594112 0.035992077327 0.037352261552 0.038741141975 0.04015479121 0.041588745423 0.043037795811 0.044496166727 
0.045957570695 0.031865883038 0.03305170608 0.034555069257 0.03582467295 0.037119114605 0.038434716219 0.03976726648 0.041112020088 
0.042463718659 0.043816582273 0.030637240885 0.031745124658 0.033164009934 0.034348224515 0.03555379991 0.036777300963 0.038014819738 
0.039261982137 0.040513958341 0.041765491882 0.029447996723 0.030482302255 0.031820273095 0.032924204364 0.034046377835 0.035183591837 
0.036332231035 0.037488270619 0.03864728817 0.039804489693 0.028299213715 0.029264226491 0.030524707627 0.031553333429 0.032597413658 
0.033653974201 0.034719676531 0.035790824737 0.036863376895 0.037932966128 0.027060060273 0.027957986103 0.029116964064 0.030074252319 
0.031044830764 0.03202583807 0.033014112158 0.034006199913 0.034998370785 0.035986636325 0.026005687417 0.026844515936 0.027933170538 
0.028823792361 0.029725634596 0.03063603708 0.031552080209 0.032470590382 0.033388152163 0.034301130189 0.024991625324 0.02577507452 
0.026796890825 0.027625348493 0.028463194926 0.029307961595 0.030156956035 0.031007261691 0.031855755921 0.032699122886 0.024017399336 
0.024749016948 0.025707440461 0.02647801718 0.027256365497 0.028040201665 0.028827039674 0.029614206539 0.03039884479 0.031177931642 
0.034599162658 0.035916827418 0.037562295449 0.038973844147 0.040414617699 0.04188054194 0.04336691969 0.044868499956 0.046379274377 
0.047892719455 0.03332864216 0.034564587099 0.036122499996 0.037444170989 0.038791308286 0.040160078648 0.041546101586 0.042944449818 
0.044349667846 0.045755769521 0.032091082964 0.033249229095 0.034722716484 0.03595913524 0.037217600546 0.038494519569 0.039785817957 
0.041086936453 0.042392846438 0.043698075684 0.03088850845 0.031972817157 0.033365040076 0.034520833653 0.035695578687 0.036885919057 
0.038088072135 0.039297828611 0.040510567234 0.041721276806 0.029722502741 0.030736925708 0.032051013586 0.033130760534 0.034226670761 
0.035335617138 0.036454096228 0.037578229686 0.038703776995 0.039826160486 0.028594244075 0.029542692381 0.030781684171 0.031789871707 
0.032811720541 0.03384432497 0.034884446793 0.03592851936 0.036972659619 0.038012690821 0.027387654802 0.028272966816 0.029414020257 
0.030353744402 0.031305264253 0.032265781674 0.033232218857 0.034201233136 0.035169225755 0.036132362331 0.026346628651 0.027175182522 
0.028247951663 0.029124025586 0.030010029292 0.030903362297 0.03180117719 0.032700395546 0.033597715131 0.034489632679 0.025343647807 
0.026118870844 0.027126613478 0.027943163203 0.028767986157 0.029598668236 0.030432578449 0.031266883548 0.032098558893 0.0329243999 
0.024378434674 0.025103613068 0.02604956879 0.026810536639 0.027578311694 0.028350655106 0.029125139869 0.029899161257 0.030669945804 
0.031434567426 0.03469787396 0.035976988943 0.037581367558 0.038947380313 0.040339136354 0.041752672149 0.043183465181 0.04462643989 
0.046075978906 0.047525951897 0.033460849775 0.034663085024 0.036184025816 0.037465840724 0.038770085764 0.040093037621 0.041430474424 
0.042777683278 0.044129471385 0.045480192416 0.032253946899 0.033382813763 0.034822987426 0.036024694158 0.037245806304 0.03848283611 
0.039731851736 0.04098848664 0.042247950099 0.043505052419 0.031079231506 0.032138293815 0.033500440843 0.034626154777 0.035768526595 
0.036924297477 0.038089814371 0.039261039358 0.040433561622 0.041602620166 0.029938357793 0.030931194221 0.032218060141 0.033271876745 
0.034339865823 0.035418990566 0.036505864218 0.037596761172 0.038687627868 0.039774102822 0.028832596329 0.029762769032 0.030977054398 
0.031963007498 0.03296089417 0.033967890955 0.034980868261 0.035996392386 0.03701074468 0.038019937491 0.027660716275 0.028531593817 
0.029651806743 0.030572188609 0.031502922152 0.032441278487 0.033384275745 0.034328682499 0.035271037501 0.036207664864 0.026635111732 
0.027451602454 0.028505662956 0.029365416887 0.030233847801 0.031108417268 0.031986363132 0.032864704062 0.033740258045 0.034609654721 