# vtk DataFile Version 5.1
vtk output
ASCII
DATASET STRUCTURED_POINTS
DIMENSIONS 10 10 20
SPACING 0.1 0.1 0.1
ORIGIN 3.25 -0.45 0.55
POINT_DATA 2000
FIELD FieldData 1
potential 1 2000 double
0.41580608774 0.41557102029 0.41526947215 0.41492117136 0.41457882218 0.41426312183 0.41398084313 0.4137366406 0.4135535485 
0.41347711075 0.45252442237 0.45233308105 0.45207901698 0.45178837807 0.45150630792 0.45124580606 0.45100760322 0.45079359066 
0.45062522061 0.45054801306 0.48139779372 0.48126568621 0.48107639349 0.48085939776 0.48064905304 0.48045320274 0.48027028285 
0.48010144656 0.47996561159 0.47990117178 0.50105635385 0.50099075054 0.50087156878 0.50073089 0.50059379865 0.50046272991 
0.50033661234 0.50021701316 0.50012040959 0.50007298434 0.51090028316 0.51090343904 0.51085293425 0.51078664767 0.51071995305 
0.51065152819 0.51057894645 0.51050446286 0.51044070257 0.51040556527 0.510748343 0.51082175997 0.51083903155 0.51084513831 
0.51085008011 0.51084499457 0.51082327079 0.51078580215 0.51074413026 0.51071033705 0.50056951913 0.50070804609 0.50080285387 
0.50089345834 0.50098166764 0.5010492716 0.50108298377 0.50107956525 0.50105099523 0.5010095947 0.48055643318 0.48076110211 
0.48093796222 0.48111609857 0.48129281061 0.48143968295 0.48153160714 0.48156084224 0.48154063369 0.48148569526 0.45134207446 
0.45160700431 0.45186176051 0.45212304446 0.45238480781 0.45260670279 0.45275384147 0.45281387354 0.45280132046 0.45273187174 
0.41435076525 0.41465990891 0.41497640667 0.41530204906 0.41562674601 0.41590397878 0.41609477866 0.4161835643 0.41618259743 
0.41610595859 0.38268961763 0.38252698431 0.38231709512 0.38206871245 0.38182253462 0.38159207828 0.38138789604 0.38121997281 
0.38110470328 0.381062116 0.41191002326 0.41177842742 0.4115991184 0.41138610004 0.41117623036 0.41097902538 0.41080186379 
0.410652772 0.41054631711 0.41050226587 0.43509892148 0.43500838698 0.43487054845 0.43470460582 0.43454127278 0.43438593708 
0.43424439743 0.434122617 0.4340330121 0.43399178305 0.45106951318 0.45102614255 0.45093556568 0.45082192734 0.45070870748 
0.4505998286 0.45049719918 0.45040653565 0.45033667449 0.45030094092 0.45914273345 0.45915063456 0.45910926968 0.45904873168 
0.45898757072 0.45892540767 0.45886228953 0.45880137952 0.45875058447 0.45871803512 0.45902780952 0.45908888036 0.45909745547 
0.45909034021 0.45908151126 0.45906625446 0.45904151167 0.45900815258 0.45897164716 0.45893867417 0.45070254619 0.45081065237 
0.45087728491 0.45093252163 0.45098333504 0.45102040717 0.45103670121 0.45103033382 0.45100555635 0.45096847587 0.43447790802 
0.43463073138 0.43475727417 0.43487306461 0.43498325644 0.4350730926 0.43513022992 0.43514950816 0.43513488297 0.43509204298 
0.41105552854 0.41124772695 0.41142758325 0.41159777454 0.41176113657 0.41189797645 0.41199145372 0.41203379947 0.41202804217 
0.41197985136 0.38164808406 0.38186831992 0.38208881179 0.38229905655 0.38250160537 0.38267336012 0.38279495542 0.38285666048 
0.38286001716 0.38280960326 0.35398908242 0.35387788003 0.35372887983 0.35354604155 0.35336480002 0.35319493965 0.35304580933 
0.35292604041 0.35284560238 0.35281438848 0.37745158918 0.37736223599 0.37723359023 0.37707402753 0.37691608354 0.37676682724 
0.37663482213 0.37652657369 0.37645193576 0.37641904294 0.3961277646 0.39606737949 0.39596633182 0.3958376328 0.39571018688 
0.39558905218 0.39547985671 0.39538874851 0.39532323442 0.39529102269 0.40905505911 0.40902882303 0.40895979928 0.40886644815 
0.40877389746 0.40868462777 0.40860176331 0.40853035702 0.40847621397 0.40844517894 0.41562131549 0.41563233914 0.41559823439 
0.41554218793 0.41548621251 0.41543021367 0.41537506664 0.41532388903 0.41528092205 0.41525052867 0.41553677705 0.41558730642 
0.41558815575 0.41557038829 0.41555112705 0.41552876691 0.41550092036 0.41546926798 0.41543595624 0.41540439791 0.40878417394 
0.40886666566 0.40890988689 0.40893713878 0.40896092825 0.40897619262 0.40897814586 0.40896636997 0.40894229096 0.40890899271 
0.39567051444 0.39578283866 0.39586956078 0.39593979246 0.39600475235 0.39605618571 0.39608701187 0.39609477023 0.39607984181 
0.39604492513 0.37682608613 0.3769640168 0.37708846535 0.37719533967 0.37729565526 0.37737897474 0.37743470691 0.37745948945 
0.37745247015 0.37741595521 0.35322571454 0.35338197525 0.35353473113 0.35366856938 0.35379494134 0.35390169334 0.35397690134 
0.35401498602 0.35401483966 0.35397864266 0.32885130496 0.32877499536 0.32866822355 0.32852979075 0.32839307528 0.3282652071 
0.32815325377 0.3280639602 0.32800298272 0.32797541312 0.34785715714 0.34779676295 0.34770369205 0.34758082693 0.34745924096 
0.34734501329 0.34724406735 0.34716210884 0.34710451137 0.34707568716 0.36298037959 0.36294080569 0.36286660938 0.36276418999 
0.36266319197 0.36256737334 0.3624815764 0.36241046639 0.36235837452 0.36232890624 0.37346400688 0.37344912702 0.37339660511 
0.37331826297 0.37324098569 0.37316707809 0.37309896536 0.37304044927 0.37299516621 0.37296578028 0.37880004609 0.37881283942 
0.37878393922 0.37873142747 0.37867953666 0.37862883859 0.37857966874 0.37853490075 0.37849640517 0.37846703048 0.37873853501 
0.37878012929 0.37877513157 0.37874912268 0.37872288304 0.37869538949 0.37866553036 0.37863384948 0.3786019988 0.37857172877 
0.3732636034 0.37332689 0.3733526667 0.37335965053 0.37336415286 0.3733633842 0.37335474058 0.3733376011 0.3733129159 
0.37328196124 0.36263993992 0.36272276938 0.36278077019 0.36281824814 0.36285187553 0.36287700183 0.36288926554 0.36288683468 
0.36286961572 0.36283908004 0.34738999076 0.34748963397 0.34757496155 0.34763808823 0.34769636002 0.34774359793 0.34777384621 
0.34778396197 0.34777319084 0.34774279578 0.32827701858 0.32838885792 0.32849475603 0.3285771974 0.32865383358 0.32871754733 
0.32876143726 0.3287814795 0.32877603194 0.32874663515 0.30666601382 0.30661450441 0.30653752228 0.3064289672 0.30632286939 
0.3062241519 0.30613712943 0.30606704023 0.30601749865 0.30599110982 0.32219528925 0.32215539129 0.3220876418 0.32198967018 
0.32189374125 0.32180380155 0.32172423538 0.32165899137 0.32161138091 0.321583888 0.33452507459 0.33450045372 0.33444507549 
0.3343614119 0.3342790163 0.33420143017 0.33413180897 0.33407355874 0.33402938147 0.33400122089 0.34306773685 0.34306134122 
0.34302072087 0.34295332063 0.34288714805 0.34282405108 0.34276654659 0.34271680889 0.34267665474 0.34264786272 0.34741887416 
0.34743234949 0.34740768893 0.34735792739 0.34730905005 0.34726174034 0.34721729593 0.34717651239 0.34714091755 0.34711160691 
0.34737372784 0.34740834281 0.34739982982 0.34736783436 0.34733670749 0.34730516689 0.34727382592 0.34724215489 0.34721080727 
0.34718113954 0.34291868761 0.34296809274 0.3429818512 0.34297378411 0.34296471128 0.34295239424 0.34293603479 0.34291480785 
0.3428886133 0.34285894348 0.33426763024 0.33433006626 0.33436762337 0.33438183764 0.33439386163 0.33440032233 0.33439917045 
0.33438892756 0.33436892266 0.33434008157 0.32183880033 0.32191207941 0.32197004691 0.32200301328 0.32203289518 0.32205528456 
0.32206721251 0.32206630962 0.32205153614 0.32202376589 0.30622340809 0.30630459023 0.30637863394 0.30642555838 0.30646881131 
0.30650324298 0.30652548093 0.30653205233 0.30652167848 0.30649465801 0.28697113389 0.28693705979 0.28688067361 0.28679305811 
0.28670800051 0.28662894082 0.28655921806 0.28650147769 0.28645905994 0.28643268778 0.2997666431 0.29974119807 0.2996910124 
0.29961043422 0.29953215462 0.29945923403 0.29939421117 0.29933981803 0.29929825172 0.29927096448 0.30989449046 0.30988042491 
0.30983861023 0.30976756587 0.30969812432 0.30963343923 0.30957507726 0.30952535267 0.30948575252 0.30945791852 0.31690069971 
0.31689989435 0.31686797104 0.31680796643 0.31674937161 0.31669439049 0.31664416541 0.31659978508 0.31656270975 0.3165343774 
0.32046798351 0.32048204256 0.32046065172 0.32041248172 0.32036581712 0.32032120523 0.32027960391 0.3202414801 0.32020743662 
0.32017839839 0.32043458132 0.3204640138 0.32045290596 0.32041699192 0.32038238164 0.32034838915 0.32031551622 0.32028335466 
0.32025237455 0.32022277154 0.31678845865 0.31682794191 0.31683289566 0.31681454423 0.31679589785 0.31677525439 0.31675317115 
0.31672834601 0.31670095251 0.31667143309 0.30969628288 0.30974413522 0.30976742005 0.30976549225 0.30976230906 0.30975570642 
0.30974507966 0.30972859378 0.30970610431 0.30967780815 0.29948869377 0.2995433951 0.29958293741 0.29959481998 0.29960476039 
0.29961011784 0.29960917196 0.29959980667 0.29958167311 0.29955441012 0.28662248473 0.28668225984 0.28673451169 0.28675666541 
0.28677688179 0.28679135709 0.28679797138 0.28679441156 0.28677970664 0.28675395139 0.26940060814 0.26937921465 0.26933651551 
0.26926371309 0.26919317036 0.26912771432 0.26906950987 0.26902047279 0.26898224621 0.26895525967 0.28002918279 0.28001436609 
0.27997594172 0.2799077171 0.27984178328 0.2797801462 0.27972514853 0.27967797749 0.27964043167 0.27961282534 0.28841295864 
0.28840635947 0.28837342137 0.28831145208 0.28825172013 0.28819548242 0.28814476816 0.28810042075 0.28806403614 0.28803572593 
0.29420030903 0.29420358401 0.29417719866 0.29412267858 0.2940698759 0.29402022611 0.29397468369 0.2939341676 0.2938992687 
0.29387050629 0.29714460189 0.29715886934 0.29713947555 0.29709296272 0.29704782303 0.29700528165 0.29696544533 0.2969288452 
0.29689584839 0.29686664013 0.29711911466 0.29714499852 0.29713232181 0.29709362157 0.29705642275 0.29702095388 0.29698686967 
0.29695433806 0.29692315727 0.29689373248 0.29411477854 0.29414742481 0.29414664506 0.29412051914 0.29409461992 0.29406894955 
0.29404220199 0.2940147481 0.29398617662 0.29395669223 0.28825743014 0.28829495206 0.28830923048 0.28829534159 0.28828122867 
0.28826604217 0.28824806307 0.28822699358 0.28820216973 0.28817426165 0.27980844897 0.27985020244 0.27987729899 0.27987390019 
0.27986983896 0.27986358818 0.27985289806 0.27983747219 0.2798161664 0.27978938123 0.26912007984 0.26916515999 0.26920257631 
0.26920732547 0.26921100368 0.26921173108 0.26920716906 0.26919624535 0.26917795445 0.26915226523 0.25365651935 0.25364328331 
0.25361070793 0.25354790654 0.25348771723 0.25343164122 0.25338111447 0.25333799672 0.25330246704 0.25327568173 0.26255415727 
0.26254630792 0.26251618032 0.2624564788 0.26239911919 0.26234563249 0.26229713655 0.26225497675 0.26221972256 0.26219206223 
0.26954737952 0.26954577047 0.26951936694 0.26946370579 0.26941035037 0.2693603293 0.2693145643 0.26927429024 0.26923982512 
0.2692115521 0.27436383314 0.27436973438 0.27434750347 0.27429651513 0.27424788045 0.27420216855 0.27415986423 0.27412170561 
0.27408811787 0.27405929468 0.27681160496 0.27682585726 0.27680803265 0.2767620146 0.2767185882 0.27667730257 0.27663877946 
0.27660310227 0.27657076448 0.2765414743 0.27679168998 0.2768147425 0.2768010588 0.27676015291 0.27672168048 0.27668518503 
0.27665035083 0.27661737977 0.27658613617 0.27655663668 0.27429817405 0.27432575151 0.27432118328 0.27428939998 0.27425887083 
0.27422894707 0.27419925304 0.27416955443 0.27414007851 0.27411022519 0.26942367491 0.26945413819 0.26946170116 0.26943946385 
0.26941791547 0.26939613533 0.26937307495 0.26934838731 0.26932201851 0.26929330626 0.26237554701 0.26240854233 0.26242661419 
0.26241254231 0.26239867925 0.26238384788 0.26236659348 0.26234634537 0.262322868 0.26229516707 0.25342689126 0.2534616211 
0.25348863315 0.25348106863 0.25347328007 0.25346396416 0.25345162569 0.25343501248 0.25341384172 0.2533874836 0.23949144389 
0.23948423561 0.23945822709 0.23940260104 0.23934967122 0.23930040523 0.23925562469 0.23921610146 0.23918296775 0.23915538208 
0.2469956358 0.24699227243 0.24696812976 0.24691434614 0.24686316441 0.24681534974 0.24677174216 0.2467327446 0.24669957906 
0.24667146004 0.25287291032 0.25287466446 0.25285273144 0.25280149026 0.25275275389 0.25270703329 0.25266505617 0.25262733828 
0.25259414407 0.25256563204 0.25691143067 0.25691878573 0.25689945834 0.2568512195 0.25680552481 0.25676255501 0.25672270535 
0.25668618056 0.25665359051 0.25662447608 0.25896164768 0.2589750733 0.25895845304 0.2589133751 0.25887081684 0.2588308507 
0.25879340388 0.25875852293 0.25872650307 0.2586969837 0.25894611841 0.25896621152 0.25895175531 0.25890979831 0.25887043435 
0.25883329847 0.25879837119 0.25876519766 0.25873374761 0.25870390298 0.25686159841 0.25688513381 0.25687753619 0.2568420235 
0.25680793098 0.25677519249 0.25674340123 0.25671234253 0.25668164874 0.25665157905 0.25277374673 0.25279886407 0.25280160393 
0.25277360842 0.25274668646 0.25272022147 0.25269353465 0.25266666996 0.25263850956 0.25260956486 0.24684965273 0.24687591541 
0.24688770047 0.24686619053 0.24684535877 0.24682431292 0.24680240137 0.24677888755 0.24675305088 0.24672522719 0.23930161609 
0.23932881644 0.23934825511 0.23933186968 0.23931607002 0.23929955877 0.23928145003 0.239261064 0.23923728735 0.23921039308 
0.22669904541 0.22669568643 0.22667383137 0.22662357555 0.22657583593 0.22653137496 0.22649069302 0.22645448327 0.22642225743 
0.22639474588 0.23307265649 0.2330723003 0.23305180906 0.23300240144 0.23295564637 0.23291213226 0.23287200172 0.23283581295 
0.23280336725 0.23277516708 0.23804818224 0.23805143246 0.23803248524 0.23798461353 0.23793930595 0.23789707625 0.23785773797 
0.23782197872 0.23778967627 0.23776087577 0.24145919215 0.24146689736 0.2414494103 0.24140340963 0.24135972468 0.24131908484 
0.24128108842 0.24124615995 0.24121388631 0.24118467202 0.24318864312 0.24320123967 0.24318529752 0.24314104651 0.24309937933 
0.24306049686 0.24302393199 0.2429898524 0.24295781371 0.24292827113 0.24317606389 0.24319388013 0.24317888773 0.24313648635 
0.24309689604 0.24305957643 0.24302457401 0.24299148087 0.24295985758 0.24292996088 0.24142153749 0.24144216487 0.24143203087 
0.24139396337 0.24135772855 0.24132299967 0.24128970737 0.24125770402 0.24122633002 0.24119583871 0.23796840946 0.23798937172 
0.23798837488 0.23795628115 0.23792561841 0.23789592964 0.23786702391 0.23783809375 0.23780899712 0.23777937664 0.23295262592 
0.23297378323 0.2329809797 0.23295398247 0.23292832415 0.23290310624 0.23287785562 0.23285182353 0.23282470945 0.23279608294 
0.22654059079 0.22656200172 0.22657632456 0.22655374023 0.22653202932 0.22651059877 0.22648845435 0.22646484764 0.22643947479 
0.22641195584 0.2151044901 0.21510327156 0.21508426292 0.21503786149 0.21499414268 0.2149534828 0.2149160649 0.21488172529 
0.21485087315 0.2148233842 0.22055424941 0.22055555096 0.22053717519 0.22049119945 0.22044793565 0.22040746747 0.22037001896 
0.2203356697 0.22030448004 0.22027626323 0.2247953595 0.22479965783 0.22478210467 0.2247369443 0.2246943594 0.22465456073 
0.22461754234 0.2245832734 0.22455176143 0.22452297253 0.22769674245 0.22770439356 0.22768778546 0.22764347543 0.22760197956 
0.22756303369 0.22752670559 0.22749273172 0.22746122261 0.22743190202 0.22916612856 0.22917742118 0.2291616 0.22911823559 
0.22907792351 0.22903994378 0.22900435199 0.22897084775 0.22893952698 0.22890970631 0.22915595088 0.22917119485 0.22915570123 
0.22911328273 0.22907399213 0.22903707099 0.2290023202 0.22896947976 0.22893821181 0.22890807231 0.22766924073 0.22768707229 
0.22767540142 0.22763543953 0.2275977897 0.22756210464 0.22752795778 0.22749512621 0.22746348426 0.22743282551 0.22473132494 
0.22474884539 0.22474532666 0.22471038226 0.22467738596 0.22464574681 0.22461490779 0.22458466274 0.22455492723 0.22452515538 
0.22045503438 0.22047232658 0.22047602201 0.22044555444 0.22041650221 0.22038844471 0.22036072539 0.22033290723 0.22030476658 
0.22027590448 0.21497187395 0.21498887688 0.214998984 0.21497214708 0.21494663537 0.21492158854 0.214896508 0.21487090113 
0.21484429259 0.21481627299 0.20455949544 0.20455913154 0.20454147469 0.20449853056 0.20445815788 0.20442041039 0.2043854171 
0.20435298287 0.20432334716 0.20429592703 0.20924872302 0.20925044816 0.20923333555 0.20919026483 0.20914981354 0.20911197257 
0.20907681821 0.20904405467 0.20901379644 0.2089857784 0.21288769525 0.21289178829 0.2128752168 0.21283234947 0.21279209653 
0.21275444781 0.21271931507 0.21268650653 0.21265586434 0.21262726197 0.21537219591 0.21537894641 0.21536273457 0.21532026328 
0.21528046605 0.2152432197 0.2152083195 0.2151756128 0.21514478641 0.21511566081 0.21662917086 0.21663876401 0.21662284458 
0.21658070589 0.2165414807 0.21650479015 0.21647031725 0.21643768896 0.21640677246 0.21637727057 0.21662082046 0.21663345547 
0.21661726659 0.21657563654 0.21653709123 0.21650091323 0.21646685671 0.21643446002 0.21640352271 0.21637377226 0.21535332029 
0.21536871265 0.21535527754 0.21531461765 0.21527629496 0.21524005908 0.21520554644 0.2151725317 0.21514073954 0.21511011357 
0.21283692282 0.21285157286 0.21284569752 0.21280915045 0.21277464718 0.21274168687 0.21270998228 0.21267915306 0.21264892674 
0.21261904914 0.20916706659 0.20918106033 0.20918203743 0.20914916191 0.20911805122 0.20908807711 0.20905897504 0.20903014805 
0.20900134753 0.20897229383 0.20444838406 0.20446177625 0.20446881423 0.20443907622 0.20441082877 0.2043835759 0.20435664574 
0.20432976556 0.20430225611 0.2042740241 0.19493738788 0.19493684591 0.19491972066 0.1948797569 0.19484241044 0.19480737529 
0.19477465345 0.19474400322 0.19471513603 0.19468802763 0.19899645879 0.19899759365 0.19898087937 0.19894053931 0.19890273404 
0.19886740616 0.19883423278 0.1988031078 0.19877376202 0.19874594193 0.20213818534 0.20214129422 0.20212488441 0.20208437825 
0.20204643426 0.2020110045 0.20197763151 0.20194617227 0.20191645379 0.2018880494 0.20427937752 0.20428454449 0.20426832551 
0.20422774173 0.20418996655 0.20415453558 0.20412113184 0.20408951713 0.20405952981 0.20403066303 0.20536162316 0.20536904506 
0.20535276361 0.20531232339 0.20527464975 0.20523932803 0.20520609057 0.20517450716 0.20514426448 0.20511507991 0.20535494465 
0.20536469273 0.20534784738 0.20530755665 0.20527008859 0.20523503526 0.20520202126 0.20517050696 0.20514016 0.20511066027 
0.20426829129 0.20428118141 0.20426598092 0.2042251613 0.20418686276 0.20415061194 0.20411629088 0.2040834992 0.20405197438 
0.20402137467 0.20209908584 0.20211091319 0.20210290322 0.20206556237 0.20203040743 0.20199700226 0.20196495662 0.20193401543 
0.20190374434 0.20187383286 0.19893016011 0.19894111521 0.19893952182 0.19890533218 0.19887299651 0.19884213431 0.19881227574 
0.19878303657 0.1987539781 0.19872478651 0.19484526431 0.19485530552 0.19485954052 0.19482794087 0.19479819709 0.19476959094 
0.19474178725 0.19471401172 0.19468612723 0.19465775654 0.18613395857 0.18612609522 0.18611115508 0.18607968684 0.18604703455 
0.18601415742 0.18598151888 0.18594985024 0.18591937209 0.18589034642 0.18967040519 0.18966520841 0.18965038203 0.18961706187 
0.18958279962 0.18954841911 0.18951449165 0.18948156938 0.18945004388 0.18941998429 0.19240344341 0.19240154722 0.19238664439 
0.19235118688 0.19231506162 0.19227899724 0.19224367009 0.1922094913 0.1921767597 0.19214573905 0.19426595817 0.19426798825 
0.19425277249 0.19421482706 0.19417659699 0.19413865271 0.19410168637 0.19406612372 0.19403221355 0.19400018029 0.19521106524 
0.1952176066 0.19520173222 0.19516090905 0.19512015603 0.19508016145 0.19504141767 0.1950043543 0.19496912893 0.19493606359 
0.19521462415 0.19522615057 0.19520918233 0.19516501694 0.19512146319 0.19507914577 0.19503835538 0.19499964926 0.19496311169 
0.19492895248 0.19425281233 0.19426033798 0.19424637331 0.19420842271 0.19417031258 0.19413257972 0.19409556965 0.1940597311 
0.19402521126 0.19399218245 0.19236701498 0.19237192819 0.1923645886 0.1923309225 0.19229671415 0.19226239589 0.19222841608 
0.19219483805 0.19216202735 0.19213008711 0.18961134903 0.18961423061 0.18961285532 0.18958290731 0.1895520206 0.18952077285 
0.18948933966 0.18945789284 0.18942658327 0.18939567844 0.18605311509 0.18605438411 0.1860584236 0.18603150185 0.18600353474 
0.18597486493 0.18594562484 0.18591602353 0.18588618229 0.18585616175 0.17805041832 0.17804161578 0.17802610711 0.17799660848 
0.17796601884 0.17793494952 0.17790403758 0.17787350585 0.177843803 0.17781513487 0.18114513694 0.18113871481 0.18112321274 
0.18109185864 0.18105959044 0.18102694771 0.18099466701 0.18096291788 0.1809321512 0.18090252673 0.1835319433 0.18352843979 
0.18351274088 0.18347921122 0.18344504536 0.18341073478 0.18337684529 0.1833438801 0.18331199134 0.1832813859 0.18515645514 
0.1851563986 0.18514030159 0.18510423978 0.18506783229 0.18503168967 0.18499612161 0.18496176133 0.18492868124 0.18489707413 
0.18598074694 0.1859846054 0.18596781393 0.18592883336 0.18588992863 0.18585161088 0.18581426482 0.18577837179 0.18574406072 
0.18571144885 0.18598519881 0.18599352274 0.18597556664 0.1859332692 0.18589153475 0.18585078145 0.18581156431 0.18577396683 
0.18573833294 0.18570468242 0.18514891068 0.18515375351 0.18513844244 0.18510125866 0.18506395994 0.18502698904 0.18499078433 
0.18495556216 0.18492148348 0.1848887298 0.18350386622 0.18350611912 0.18349720953 0.1834638171 0.18342994102 0.1833960416 
0.18336236691 0.18332918653 0.18329666194 0.1832648932 0.18109713443 0.18109724603 0.18109414232 0.18106402069 0.18103317098 
0.18100190046 0.18097048124 0.18093915711 0.18090804542 0.18087725358 0.17798321623 0.17798162213 0.17798375188 0.1779564425 
0.17792817627 0.17789914088 0.17786967521 0.17784000662 0.17781015967 0.17778023952 0.17061025585 0.17060031783 0.17058376665 
0.17055591659 0.17052692184 0.17049740702 0.17046762795 0.17043814715 0.17040915158 0.17038077439 0.17333175726 0.17332399282 
0.17330744472 0.17327768098 0.17324695796 0.17321590612 0.17318480814 0.17315408025 0.17312401364 0.17309471774 0.17542682908 
0.17542170408 0.17540503731 0.17537302922 0.1753403684 0.17530754096 0.17527502582 0.17524299822 0.17521181159 0.17518160501 
0.17685118144 0.17684908186 0.17683201689 0.17679752158 0.17676266291 0.1767279089 0.17669377107 0.176660337 0.17662801249 
0.17659686361 0.17757388185 0.17757528124 0.17755741392 0.17752010919 0.1774827297 0.17744592233 0.17740999055 0.17737512084 
0.17734153559 0.17730942903 0.17757897916 0.17758433614 0.17756528444 0.17752475514 0.17748463063 0.17744547878 0.17740759583 
0.17737113425 0.17733632561 0.17730321241 0.1768484179 0.1768507482 0.17683411243 0.17679765188 0.17676120759 0.1767250273 
0.17668952205 0.17665491375 0.17662135589 0.17658898347 0.17540590359 0.17540579228 0.17539523181 0.1753622409 0.17532885543 
0.17529536868 0.1752620731 0.17522929478 0.17519710308 0.17516561485 0.17329308158 0.17329092758 0.17328607853 0.17325599994 
0.17322523998 0.1731941433 0.17316290238 0.17313175795 0.17310077578 0.17307013032 0.17055460538 0.17055079637 0.17055110774 
0.1705234963 0.17049499121 0.17046589954 0.17043642743 0.17040676884 0.17037695437 0.17034711327 0.16374367194 0.16373261861 
0.16371489224 0.16368825482 0.16366051863 0.16363213197 0.16360347096 0.16357482312 0.16354634168 0.16351822528 0.16614801998 
0.1661389187 0.16612125293 0.16609274587 0.16606331343 0.16603339458 0.16600338113 0.16597354881 0.1659440262 0.16591501781 
0.16799593371 0.16798918431 0.16797132492 0.16794066328 0.16790927032 0.16787772392 0.16784624741 0.16781514289 0.1677846138 
0.16775471121 0.1692509103 0.16924689576 0.1692286113 0.16919546551 0.16916198369 0.1691285839 0.16909552959 0.1690630786 
0.16903142858 0.1690006285 0.16988765782 0.16988678345 0.16986768491 0.16983182709 0.16979598941 0.16976054706 0.16972575157 
0.16969188318 0.16965906453 0.16962742108 0.16989313078 0.16989570803 0.16987551177 0.16983657313 0.16979809201 0.16976042013 
0.16972375688 0.16968836523 0.16965435247 0.16962181987 0.16925209963 0.16925224145 0.16923419103 0.16919853204 0.16916284122 
0.16912749296 0.16909269437 0.16905868402 0.16902561169 0.16899359342 0.16798105262 0.16797882002 0.16796684307 0.16793419457 
0.16790121022 0.16786821286 0.16783543012 0.16780302731 0.16777115697 0.16773991288 0.16611754446 0.16611333802 0.16610692419 
0.16607687482 0.16604625857 0.16601535592 0.16598434723 0.16595340529 0.16592264847 0.1658921684 0.16369818263 0.16369238193 
0.1636910351 0.16366318757 0.16363460204 0.16360549672 0.16357607694 0.16354644275 0.16351670971 0.16348694989 0.15739030805 
0.1573781534 0.15735910901 0.15733344961 0.15730671379 0.15727928979 0.15725146903 0.15722347721 0.15719548424 0.15716760046 
0.15952369105 0.15951328544 0.15949430131 0.15946680546 0.15943842255 0.15940951484 0.15938037869 0.15935124778 0.15932227315 
0.15929358546 0.1611608557 0.16115249003 0.16113340808 0.16110383999 0.1610736251 0.16104309197 0.16101254835 0.16098220365 
0.16095222879 0.1609226905 0.16227167937 0.16226574995 0.162246266 0.16221437316 0.16218213913 0.16214983286 0.16211776191 
0.16208612767 0.16205509408 0.16202470838 0.16283524154 0.16283217515 0.16281194936 0.16277743364 0.16274292703 0.16270868659 
0.16267497688 0.16264199641 0.16260987943 0.1625786783 0.16284088994 0.16284091357 0.16281956649 0.16278216622 0.16274517448 
0.16270882639 0.16267336063 0.16263895745 0.16260571299 0.16257369166 0.16227626126 0.1622742958 0.16225487144 0.16221993827 
0.16218505518 0.16215044592 0.16211637178 0.16208297888 0.16205039742 0.16201869141 0.16115124062 0.16114704291 0.16113357666 
0.16110135495 0.16106885393 0.16103633699 0.16100401766 0.160972038 0.1609405117 0.1609095106 0.15950028972 0.15949423481 
0.15948623053 0.15945633995 0.15942592133 0.15939526569 0.15936451287 0.15933381396 0.15930329924 0.15927297478 0.1573536666 
0.15734608653 0.15734308029 0.157315166 0.15728658598 0.15725752229 0.15722816591 0.15719863727 0.15716901103 0.15713936803 
0.15149744617 0.15148419815 0.15146384122 0.15143892116 0.1514129791 0.15138633821 0.15135921436 0.15133179489 0.15130419618 
0.15127651558 0.15339808924 0.15338639439 0.15336613777 0.15333946945 0.15331194716 0.15328388978 0.15325550819 0.15322699329 
0.15319846535 0.15317000456 0.15485464716 0.15484480643 0.15482443207 0.15479580792 0.15476654004 0.15473693839 0.15470721602 
0.15467755269 0.15464806837 0.1546188221 0.15584208009 0.1558344013 0.15581364393 0.15578283964 0.15575164409 0.15572036869 
0.15568920754 0.15565834529 0.15562786905 0.15559785262 0.15634307437 0.15633784606 0.15631637671 0.15628316686 0.15624985702 
0.1562167683 0.15618407603 0.15615193801 0.15612046273 0.15608968026 0.15634869496 0.15634620961 0.15632365924 0.15628778069 
0.1562521662 0.15621711893 0.15618280173 0.15614934167 0.15611684154 0.15608531206 0.15584948005 0.15584549553 0.15582460708 
0.15579051751 0.15575641854 0.15572257116 0.15568919928 0.15565641956 0.15562432307 0.15559298349 0.15484952908 0.15484349152 
0.15482850171 0.15479676373 0.15476478031 0.1547327614 0.154700931 0.15466938627 0.15463820761 0.1546074621 0.15338082783 
0.15337304827 0.15336346532 0.15333378559 0.15330365879 0.15327327465 0.15324283116 0.15321241275 0.15318210861 0.15315195145 
0.15146851415 0.15145931832 0.15145468603 0.15142676284 0.15139824599 0.15136931601 0.15134008817 0.15131070764 0.15128121042 
0.15125163589 0.14601910012 0.14600473447 0.14598299294 0.14595869622 0.14593344181 0.14590744109 0.14588090033 0.14585395406 
0.14582669783 0.1457991989 0.14771886454 0.14770589254 0.14768425367 0.14765830297 0.14763155257 0.1476042101 0.14757648729 
0.14754851034 0.1475203739 0.14749213971 0.14901982268 0.14900850888 0.14898676223 0.14895898094 0.14893059579 0.14890180918 
0.14887283101 0.14884378109 0.14881475054 0.14878578641 0.14990107705 0.14989165072 0.14986955924 0.14983975136 0.1498095815 
0.14977924012 0.14974893137 0.14971876288 0.14968881846 0.14965914327 0.15034817065 0.15034087929 0.15031813136 0.15028609845 
0.1502539873 0.15022197753 0.1501902579 0.15015892483 0.15012805737 0.15009767863 0.15035363422 0.15034871881 0.15032496409 
0.15029050084 0.15025628962 0.15022250986 0.15018928431 0.15015674991 0.15012494563 0.15009389518 0.14991073933 0.14990477939 
0.14988241036 0.14984909163 0.14981583467 0.14978281544 0.14975015962 0.14971801221 0.14968641426 0.14965539912 0.1490184667 
0.14901062794 0.14899411299 0.1489628674 0.14893144832 0.14890002147 0.14886869757 0.14883761312 0.14880680844 0.14877630545 
0.14770680656 0.14769739514 0.14768624798 0.14765681048 0.14762701326 0.14759700738 0.14756690599 0.14753678974 0.14750673048 
0.1474767487 0.14599680338 0.14598609923 0.14597986496 0.14595197796 0.14592359419 0.1458948475 0.14586583748 0.14583661308 
0.1458072689 0.14577779926 
