# vtk DataFile Version 5.1
vtk output
ASCII
DATASET STRUCTURED_POINTS
DIMENSIONS 10 10 20
SPACING 0.1 0.1 0.1
ORIGIN 3.25 -0.45 0.55
POINT_DATA 2000
FIELD FieldData 1
potential 1 2000 double
0.029207003684 0.029877728853 0.030419397804 0.030810309817 0.03104709416 0.031124820203 0.031041749317 0.030799962723 0.030404170119 
0.029861867914 0.025831241888 0.026379708573 0.026821734492 0.027139972287 0.027332746253 0.027395975651 0.027328587157 0.027132098511 
0.026810133717 0.026368188901 0.022932336562 0.023383433762 0.023744678118 0.024004746384 0.02416218455 0.024213775353 0.024158629564 
0.023998010778 0.023734360175 0.02337210229 0.020447565242 0.020820452648 0.021116278685 0.021329743214 0.021458965367 0.021501313318 
0.02145576086 0.02132369992 0.02110652523 0.020807983189 0.018321153989 0.018631493998 0.018873677808 0.019050199436 0.019157017793 
0.0191918409 0.019154455708 0.01904486073 0.018865064592 0.018617546583 0.016501802989 0.01676193942 0.016960218802 0.017106985966 
0.017195930671 0.017225243581 0.017194189569 0.017103181664 0.016953525657 0.016747353179 0.015096204618 0.015331838867 0.015538719148 
0.015669635673 0.015748301008 0.015773995329 0.015746655366 0.015666899809 0.015535939343 0.015355701055 0.013746169152 0.013945002336 
0.014110625318 0.014222375873 0.014289566176 0.014311718468 0.014288916801 0.014221623292 0.014110759281 0.013957898144 0.012574661955 
0.012743113912 0.012876812469 0.012972696834 0.013030423629 0.013049640826 0.013030406605 0.01297322133 0.012878866857 0.012748389138 
0.011545793174 0.011689124563 0.011798386666 0.011880991128 0.011930661143 0.011947320831 0.011931098948 0.011882400796 0.011801630251 
0.011689589787 0.032718744652 0.033446375096 0.034032344229 0.034455440769 0.03471140961 0.034794706592 0.034703628925 0.03443977635 
0.034008644704 0.033418901154 0.02907926365 0.029678239928 0.030159239847 0.030506102746 0.030715895742 0.030784269787 0.030709787286 
0.030493812792 0.030140493415 0.02965651851 0.025944196028 0.026440127375 0.026836093207 0.027121680472 0.027294384966 0.027350698897 
0.027289530269 0.027111775271 0.026820522641 0.026421598513 0.023239737445 0.023652398527 0.023978870539 0.024215266275 0.024358171718 
0.02440488802 0.024354357098 0.024207379401 0.02396647143 0.023635617354 0.020904386212 0.021249773426 0.021519199356 0.021715946401 
0.021835016881 0.021874430372 0.021832390553 0.021710327495 0.021509808174 0.021234090921 0.018885278172 0.019176085683 0.019398528034 
0.019563426081 0.019663383231 0.019696496388 0.019662028367 0.01956031506 0.019392834705 0.019162134174 0.017296311469 0.017556711375 
0.017780915443 0.017924777918 0.018010453375 0.018036924971 0.018004012396 0.017912401543 0.017763495079 0.017559484364 0.015765377314 
0.015985643602 0.016167212827 0.016290353898 0.016363661026 0.016386523582 0.016358841547 0.016281084368 0.016154488594 0.015980793639 
0.014424648553 0.01461174023 0.014760035589 0.014865798316 0.014928839532 0.014948636335 0.014925091956 0.014858757332 0.014750588785 
0.014601937603 0.013241350086 0.013400860462 0.013523495997 0.013614456138 0.013668752964 0.013685881242 0.013665837424 0.013609010496 
0.013516093113 0.013388201162 0.035765474616 0.036533055595 0.037149898343 0.037595394297 0.037864632233 0.03795183083 0.037855025147 
0.037576149697 0.037120848731 0.036498398776 0.031934542782 0.032570807036 0.033080388498 0.03344814101 0.033670407338 0.033742467242 
0.033662831209 0.033432972956 0.033057172919 0.032542879055 0.028618050425 0.029148125176 0.029570390887 0.029875374519 0.030059654524 
0.030119579654 0.030053812272 0.029863448381 0.029551871406 0.029125002023 0.025739701554 0.02618344892 0.02653384217 0.026788117979 
0.02694178878 0.026991920642 0.026937408448 0.026779221314 0.026519850157 0.026163708243 0.023236140819 0.023609687292 0.023900903402 
0.024114250824 0.024243255606 0.024285646064 0.024240460699 0.024108364878 0.023891436623 0.023592853636 0.02105436574 0.021370395437 
0.021612470874 0.021792350796 0.021901419034 0.021937681814 0.021900415735 0.021789993979 0.021608002022 0.021357246575 0.019315538151 
0.019596167505 0.019833000954 0.019987375544 0.02007850037 0.020105217736 0.020067347171 0.019965499395 0.019801256874 0.019577078333 
0.017634343097 0.017872527032 0.018066270297 0.018198660997 0.018276880993 0.018299908559 0.018267748157 0.018180919774 0.018040734553 
0.017849144124 0.016152675874 0.016355416986 0.016515257936 0.016629128547 0.016696348953 0.016716273651 0.016688857647 0.016614511048 
0.016494256702 0.016329732276 0.014839223025 0.015012657093 0.015146099728 0.015244288909 0.015302162573 0.015319358746 0.015295795802 
0.015231777654 0.015128174009 0.014986240249 0.038344137862 0.039135900072 0.039770826285 0.040229549679 0.040506502253 0.040595912167 
0.040495797464 0.040208204556 0.039738737349 0.039097067609 0.034394206806 0.035055313375 0.035583531442 0.035964900561 0.036195190809 
0.036269700066 0.036186794789 0.035947869045 0.0355577718 0.035023462713 0.030953299613 0.031507584761 0.031948019803 0.032266612247 
0.032459055796 0.032521418096 0.032452506309 0.032253349512 0.031927747556 0.031481393633 0.027947899533 0.028414847629 0.028782772503 
0.029050041969 0.029211607548 0.029264337019 0.029207038988 0.029040453458 0.028767581837 0.028393030648 0.025317037778 0.025712215809 
0.026019841694 0.026245385482 0.026381849888 0.026426685012 0.026378989786 0.026239379521 0.026010016867 0.025694630074 0.023008014585 
0.023343975882 0.023601473301 0.023792925876 0.023909107505 0.023947900211 0.023908441513 0.023791182814 0.023597865382 0.023331368443 
0.021151169834 0.021447506628 0.021692483046 0.021855061325 0.02195016377 0.021976693008 0.021934336656 0.021823880333 0.021646980524 
0.021406140904 0.019348345861 0.019600772174 0.019802983423 0.019942737972 0.020024515225 0.020047412732 0.020011232735 0.01991659324 
0.019764948918 0.019558319384 0.017750914721 0.017966606307 0.018134900199 0.018255291146 0.018325758802 0.01834552543 0.018314488167 
0.018233152397 0.018102618562 0.017924591219 0.016329346202 0.016514231652 0.016656072654 0.016760122651 0.016820979883 0.01683791596 
0.01681106303 0.016740763632 0.01662786843 0.016473761628 0.040471670874 0.041273267864 0.041915110047 0.04237873771 0.042658550666 
0.04274868253 0.042647325454 0.042356263212 0.041881466897 0.041232384882 0.036468630921 0.03714286538 0.037680695798 0.038069138162 
0.038303544284 0.038379202164 0.03829457545 0.038051110632 0.037653321177 0.037109018411 0.032957225874 0.033526375184 0.033977775312 
0.034304539098 0.034501591636 0.034565485624 0.034494726295 0.03429055013 0.033956416977 0.033498295319 0.029869919288 0.030352417959 
0.030731788131 0.031008059263 0.031174755778 0.031229047081 0.03116982557 0.030997999981 0.03071607501 0.030329343336 0.02715016017 
0.027560740324 0.027879934437 0.028114240803 0.028256007006 0.02830252357 0.028253083735 0.028108215495 0.027870162647 0.027542937379 
0.024748040678 0.025098861202 0.025367663813 0.025567750331 0.025689160843 0.025729812775 0.02568881988 0.025566615169 0.025364953613 
0.025086866193 0.022802845193 0.023110637692 0.023359629731 0.023527979499 0.023625740409 0.023651622497 0.023605447942 0.023487975971 
0.023300908424 0.023046882193 0.020904848859 0.02116806865 0.021375412166 0.021520509615 0.021604676535 0.021627050117 0.021587413929 
0.021486365339 0.021325303371 0.021106437309 0.019215005567 0.019440669917 0.019614875999 0.019740163004 0.019812869884 0.019832176035 
0.019797938728 0.019710653127 0.019571485559 0.01938221367 0.017705367782 0.017899392861 0.018047306029 0.018155992734 0.018218901994 
0.018235532557 0.018205739004 0.018129903908 0.018009065973 0.017844781712 0.042177263464 0.042977073281 0.043616299635 0.044077836189 
0.044356212362 0.044445839189 0.044344887944 0.044055094304 0.043582100638 0.042935067097 0.038177904308 0.03885546408 0.039394836078 
0.039784593463 0.040019577925 0.040095384371 0.040010404326 0.039766040434 0.039367112051 0.03882049959 0.034643963677 0.035219837067 
0.035675513578 0.036005519128 0.036204689841 0.036269382879 0.036197677483 0.035991312197 0.035653667574 0.035190614367 0.031516348582 
0.032007498054 0.0323928049 0.032673455241 0.03284292002 0.032898100631 0.032837929406 0.032663267988 0.032376948398 0.031983650683 
0.028742974302 0.029163386683 0.029489469738 0.029729179691 0.029874244788 0.029921999024 0.029871581741 0.029723580222 0.029480225013 
0.029145303306 0.02627915374 0.026640080915 0.026916312021 0.027122280447 0.027247301723 0.027289219639 0.027247209228 0.027121701684 
0.026914522708 0.026628618951 0.024272781637 0.024588054612 0.024837363641 0.025009275568 0.025108338518 0.025133273855 0.025083825578 
0.024960805868 0.024765970338 0.024501970126 0.02230411764 0.02257461146 0.022784097949 0.022932726482 0.023018313246 0.023039856792 
0.022997150332 0.022890854837 0.022722402742 0.022494000559 0.020543123324 0.02077601155 0.020953573912 0.021082411388 0.021156437799 
0.021175003262 0.021137911867 0.021045666652 0.020899494003 0.020701192861 0.01896394218 0.019164829471 0.019316855163 0.019428754 
0.019493113878 0.019509092584 0.019476695889 0.019396264822 0.019268986867 0.019096286462 0.043498472787 0.044286452032 0.044915322818 
0.045369208178 0.045642771596 0.045730773235 0.045631408645 0.045346540235 0.044881357956 0.044244717834 0.039548841993 0.040221414467 
0.040755657396 0.041141709636 0.041374442209 0.041449333811 0.041365267873 0.041123290426 0.040727824975 0.040185919479 0.036033206266 
0.036608726927 0.037063230811 0.037392463809 0.037591010446 0.03765521592 0.037583851263 0.037378068433 0.037041271726 0.036579132728 
0.03290100898 0.033394944799 0.033781358964 0.034063061884 0.034233188958 0.034288640572 0.034228149148 0.034052889155 0.033765671543 
0.033370695237 0.03010614465 0.030531262685 0.030860156535 0.031102339154 0.031248828053 0.0312971191 0.031246292918 0.03109694207 
0.030851260062 0.030512970234 0.027608793828 0.027975638693 0.02825570927 0.028464958078 0.028592014849 0.028634700566 0.028592144103 
0.028464872971 0.028254657293 0.027964416354 0.025565540079 0.025884727258 0.02613111973 0.026304612102 0.026403785435 0.026427429052 
0.026375289049 0.026248160819 0.026047746633 0.025776713007 0.023548300106 0.02382329913 0.024032089854 0.024182665773 0.024268642061 
0.024289069902 0.024243752414 0.024133339949 0.023959291837 0.023723803923 0.021735868937 0.021973344969 0.022152049118 0.022282991221 
0.0223576583 0.02237528969 0.022335629429 0.022239422008 0.022087767497 0.021882532706 0.020104194486 0.020309778895 0.020464124716 
0.020578152194 0.020643089559 0.020658346466 0.020623539745 0.020539442831 0.020406940633 0.020227584075 0.044475872104 0.045244439329 
0.045856802311 0.046298592113 0.046564767492 0.046650316138 0.046553596085 0.046276358229 0.045823512014 0.045203255409 0.04061205427 
0.041272769851 0.041796571217 0.042175032216 0.042403214555 0.042476636794 0.042394109384 0.04215676651 0.041768983448 0.041237274265 
0.03714846369 0.037717713715 0.038165808872 0.038490706183 0.03868653416 0.038749885017 0.038679482871 0.038476394015 0.03814389862 
0.037687447608 0.034041677072 0.034533276422 0.034916631696 0.035196526476 0.03536541084 0.035420417796 0.035360540551 0.035186537779 
0.034901074711 0.03450853214 0.031252872964 0.031678348661 0.03200630814 0.032248345812 0.032394720678 0.032443016033 0.032392281444 
0.032243124977 0.031997746103 0.031659676123 0.028746619141 0.029115781095 0.029396504128 0.029606719057 0.029734357558 0.029777316807 
0.029734755002 0.029607100603 0.029396024885 0.02910448302 0.026688163639 0.027007734912 0.027248584376 0.027421893032 0.027520167698 
0.027542230704 0.027487842993 0.02735777655 0.027153746655 0.026878403264 0.024642063191 0.02491861097 0.025124691917 0.025275656583 
0.025361084191 0.025380156295 0.025332630468 0.025219161635 0.025041163558 0.024800895977 0.022795791657 0.023035504112 0.023213451271 
0.023345206708 0.023419724017 0.023436177058 0.023394505958 0.023295218615 0.023139528156 0.022929268767 0.021127242449 0.02133549944 
0.02149066125 0.021605724469 0.021670598421 0.021684783519 0.021648084557 0.021561046687 0.021424528979 0.021240167662 0.045150632109 
0.045894199917 0.0464855005 0.046911812551 0.047168531736 0.047251172404 0.047157844673 0.046890131863 0.046452946336 0.045853780956 
0.041399921049 0.042043708727 0.04255276969 0.042920512183 0.043141987828 0.043213277533 0.043133019545 0.042902501545 0.042525513672 
0.042008307523 0.038014208769 0.038572514348 0.03901057248 0.039328427246 0.039519943633 0.039581859157 0.039512982968 0.039314322506 
0.038988966909 0.038542026664 0.03495803034 0.035443057367 0.035819782263 0.036095281069 0.036261507951 0.036315616512 0.036256658766 
0.036085376058 0.035804303124 0.035417684393 0.032198291082 0.032620464469 0.032944353507 0.033183925626 0.033328769938 0.033376580594 
0.033326430772 0.033178879684 0.032935940404 0.032601103697 0.029704321483 0.030072489477 0.030351029497 0.030560337872 0.030687400539 
0.030730183549 0.030687877939 0.030560915753 0.030350912504 0.030060661964 0.027648784109 0.027966160024 0.028199155626 0.028370684937 
0.028467168518 0.02848741865 0.028431220826 0.028299324375 0.02809341781 0.027816114371 0.025591411651 0.025867030705 0.026068457981 
0.026218508318 0.02630274325 0.026320300112 0.026270873526 0.026155304909 0.025974929386 0.025731925433 0.023727118127 0.023966923135 
0.024142650719 0.024274004638 0.02434765002 0.024362859761 0.024319336944 0.024217828299 0.024059451597 0.023846037833 0.022035678555 
0.022244758932 0.02239954195 0.022514656928 0.022579071609 0.022592117559 0.022553708746 0.022464293012 0.022324882841 0.022137010231 
0.045562740182 0.046277316625 0.046844421117 0.047252968746 0.047498860908 0.047577790783 0.047488295983 0.047231843243 0.046812699026 
0.046237875572 0.041944333424 0.042567230882 0.043058362823 0.043413190934 0.043626723533 0.043695388601 0.043617927281 0.043395470186 
0.043031593999 0.042532027141 0.038656583567 0.039200205799 0.039625125482 0.039933738493 0.040119581715 0.040179559568 0.040112605225 
0.039919621406 0.039603549642 0.039169149554 0.035670568584 0.036145690964 0.036512915343 0.036781940122 0.03694416247 0.036996952883 
0.0369393398 0.036772034207 0.036497380865 0.036119371782 0.032958567297 0.033374469588 0.033691594402 0.033926894501 0.034069126502 
0.034116031156 0.034066733339 0.033921788148 0.03368311562 0.033353958444 0.030494710035 0.030859238573 0.031132998617 0.031339691637 
0.031465127095 0.031507370773 0.031465624204 0.031340276982 0.031132883622 0.03084610049 0.028457310948 0.028769811009 0.028993420515 
0.029161928799 0.029255806899 0.029274052295 0.029216430667 0.029083677174 0.028877435466 0.028600207256 0.026403792482 0.026676278718 
0.026871701273 0.027019642607 0.027101989544 0.027117804136 0.027067009098 0.026950175851 0.026768741653 0.02652480776 0.024535355127 
0.024773313708 0.024945699988 0.025075615709 0.025147847133 0.025161553945 0.025116618256 0.025013570888 0.024853707027 0.024638670897 
0.022833748236 0.023041964096 0.023195386554 0.023309676993 0.023373032951 0.023384819395 0.023344946648 0.023253873025 0.023112606146 
0.022922647873 0.045749528237 0.046432396723 0.04697317767 0.047362484717 0.047596644972 0.047671704909 0.047586349488 0.047341886744 
0.046942234606 0.046393831209 0.042276360644 0.042875579775 0.043346539238 0.043686738345 0.04389133719 0.043957023235 0.043882569733 
0.04366911786 0.043319869706 0.042840185179 0.039100921441 0.039627148256 0.040036598745 0.040334268555 0.040513406446 0.040571143007 
0.040506432557 0.040320134823 0.040014913402 0.039595251537 0.036199916935 0.036662559944 0.037017978191 0.037278965758 0.037436243009 
0.037487327265 0.037431302832 0.037268825546 0.037002109611 0.036634841713 0.033550666371 0.033957720246 0.034265865806 0.034495394651 
0.034634042274 0.034679701449 0.034631531908 0.034490022946 0.034256979268 0.033935457567 0.031131009452 0.031489789784 0.031756774748 
0.031959340663 0.032082284505 0.032123643747 0.032082666338 0.031959704935 0.031756218905 0.031474711484 0.029124164851 0.029429755104 
0.029642808656 0.029807163166 0.029897896148 0.029914010164 0.029855322485 0.029722461935 0.029517201227 0.029241836122 0.027087494146 
0.027354963172 0.02754345364 0.027688309296 0.02776817128 0.027782158535 0.027730182164 0.027612860329 0.027431529914 0.027188232822 
0.025226852584 0.025461316178 0.02562961285 0.025757348303 0.025827633441 0.025839755962 0.025793617912 0.025689745027 0.025529296948 
0.025314005789 0.023526173855 0.023732076145 0.023883540483 0.023996215418 0.024058068107 0.024068491707 0.024027406192 0.023935263199 
0.023793042048 0.023602236827 0.04574513732 0.046394959047 0.046908245712 0.047277319871 0.047499178941 0.047570150488 0.047489037899 
0.047257010088 0.046877657881 0.046356792061 0.042424915366 0.042998735572 0.043447956692 0.043772433942 0.043967451248 0.04402990412 
0.043958706579 0.043754801673 0.043421217882 0.042962805136 0.039371496905 0.039878424768 0.040270723321 0.040556249823 0.040727941556 
0.040783125017 0.040720830325 0.040541822924 0.040248569687 0.03984519229 0.036566459232 0.037014562793 0.037356370078 0.03760810131 
0.037759661027 0.037808753437 0.037754508897 0.037597521443 0.037339825808 0.036984842367 0.033991021948 0.034387647737 0.034684939554 
0.034907367323 0.035041701848 0.035085818092 0.035038932259 0.034901490156 0.034675160474 0.034362787478 0.031627162479 0.031978422765 
0.032236735901 0.032434179624 0.032553853271 0.032594039867 0.032553903803 0.032433892049 0.032235301912 0.031960537581 0.02966037242 
0.029957272199 0.030159184589 0.030318515931 0.030405569115 0.030419443156 0.030359934215 0.030227835932 0.030024584425 0.029752518682 
0.027651373889 0.02791223336 0.028093273542 0.028234244695 0.028311162303 0.028323242469 0.028270373641 0.028153161187 0.027972896488 
0.027731619679 0.025808878948 0.026038397024 0.026202183539 0.026326912589 0.026394849598 0.026405304985 0.026358202358 0.026254060994 
0.026093997294 0.025879705726 0.024118601241 0.024320894059 0.024470118738 0.024580508806 0.024640486807 0.024649469635 0.024607384553 
0.024514689214 0.024372342162 0.024181781136 0.045580295861 0.046196507238 0.046681779826 0.047030329823 0.047239638997 0.047306422691 
0.047229526995 0.047010068316 0.046651245893 0.046158346578 0.042416650676 0.042964025659 0.043390628858 0.043698732707 0.04388373409 
0.043942774903 0.043874857201 0.043680839197 0.043363428227 0.042927087097 0.03949107932 0.039977499466 0.040351399943 0.040623995767 
0.040787731723 0.040840153341 0.040780350785 0.04060901742 0.040328407859 0.039942286461 0.036789239029 0.037221711487 0.037548453684 
0.037789979376 0.037935276028 0.037982138991 0.037929761984 0.037778679243 0.037530768872 0.037189174068 0.034296104094 0.034680754048 
0.034965767896 0.035180302542 0.035309702629 0.035351972728 0.035306470972 0.035173519434 0.034954675022 0.034652573538 0.031996585732 
0.032339022619 0.032587205854 0.032778513978 0.032894343321 0.032933071571 0.032893993511 0.032777407339 0.032584472325 0.03231743035 
0.030077002052 0.030363803946 0.030554468698 0.030708054738 0.030791068862 0.030802625857 0.030742616584 0.030611698007 0.030411383782 
0.030143835644 0.028104540513 0.028357474464 0.028531066893 0.02866745249 0.028741059566 0.028751144765 0.028697618548 0.028581071652 
0.028402759728 0.028164572918 0.026288762507 0.026512122134 0.026671401933 0.02679252109 0.026857764123 0.026866497289 0.026818649074 
0.026714737967 0.0265558466 0.026343595771 0.024617096669 0.024814689872 0.024961681044 0.025069219771 0.025127006071 0.025134490943 
0.025091627401 0.024998835974 0.024857060969 0.024667703864 0.045267271842 0.045846007437 0.046306692769 0.046638890924 0.046838961581 
0.046904081677 0.046833343387 0.046627804012 0.046290464482 0.045826165027 0.042259931107 0.042775773623 0.043187085674 0.04348256243 
0.043660501581 0.0437184092 0.043655516717 0.043472722735 0.043172586753 0.042759262987 0.039466339111 0.039926198001 0.040293242508 
0.040555915662 0.040714017452 0.040765448035 0.040709486159 0.040546906777 0.040279897045 0.039911997848 0.036875535855 0.037285572263 
0.037613184083 0.037846574974 0.037986992263 0.038032507929 0.0379826532 0.037838008853 0.037600401372 0.037272890323 0.034475702351 
0.034841797005 0.03513399846 0.035341303901 0.035465957239 0.035506272902 0.03546177323 0.035332962932 0.03512149598 0.03482975529 
0.032254877685 0.032582033138 0.032842450391 0.033026681658 0.033137310443 0.03317299889 0.033133156982 0.033018321651 0.032829834798 
0.03256987102 0.03035628111 0.03063235416 0.03088357114 0.031017692724 0.031084825505 0.031084262253 0.031015993477 0.030880727654 
0.03067987955 0.030415539372 0.028439730851 0.028685888276 0.028904549665 0.029025658289 0.029086690247 0.029087059874 0.029026789944 
0.028906511206 0.028727467462 0.028491461547 0.026667481479 0.026887165483 0.027076706868 0.027186244101 0.027241854131 0.027243061003 
0.02718990847 0.027082948815 0.026923268815 0.026712452873 0.025028716883 0.025224964715 0.025388642526 0.02548785543 0.025538629654 
0.02554055647 0.025493696059 0.025398551143 0.025256070545 0.025067629024 0.044857662361 0.045403273725 0.045836816245 0.046149153826 
0.046337222345 0.04639841371 0.046331928102 0.046138716116 0.045821471963 0.045384560596 0.042005050248 0.042493951832 0.04288278639 
0.043162033655 0.043330112933 0.043384794301 0.043325367372 0.043152619128 0.042868882074 0.042477905519 0.039342419836 0.039780361547 
0.040129034203 0.040378480825 0.04052858056 0.040577308013 0.040524144956 0.040369720232 0.040116022334 0.039766288187 0.036861408671 
0.037254021643 0.037566407337 0.037789071287 0.037923020487 0.03796644941 0.037918847446 0.037780778705 0.03755402052 0.037241126076 
0.034553000794 0.034905101913 0.035184746889 0.035383576246 0.03550305405 0.035541765409 0.035499031095 0.035375500137 0.035172597652 
0.034892695808 0.032407544012 0.032723605699 0.032973669136 0.033151120085 0.033257652871 0.033291986264 0.033253672095 0.033143107172 
0.032961527159 0.032710962589 0.030569160326 0.030834475544 0.031067005954 0.031195232019 0.031258638166 0.031256575598 0.03118905917 
0.031056766066 0.030861038421 0.030603836599 0.028702256289 0.028939746074 0.029143718388 0.029259951923 0.029317838008 0.029316847401 
0.029257017211 0.029138942824 0.028963807059 0.028733328028 0.026969682001 0.027182411637 0.027360710401 0.027466201591 0.027519152037 
0.027519106066 0.027466119915 0.0273607371 0.027203991236 0.026997385557 0.025362097825 0.025552807831 0.025708207288 0.025804054489 
0.025852541132 0.025853305729 0.025806409292 0.02571232912 0.025571980176 0.025386676479 0.044358215136 0.044871641614 0.045278836126 
0.045571965216 0.045748430012 0.045805860708 0.045743517436 0.045562258932 0.045264488845 0.044854137708 0.041656486257 0.042118712673 
0.042485632832 0.042748989132 0.042907473364 0.042958986672 0.042902964974 0.042740095135 0.042472461199 0.042103463378 0.039123216537 
0.039539475062 0.039869790523 0.040106094721 0.040248293358 0.040294482969 0.040244130478 0.040097833915 0.039857492831 0.039525789886 
0.036752489728 0.037127310376 0.0374243861 0.037636448455 0.037763939905 0.037805215556 0.037760017166 0.037628588272 0.037412606833 
0.037114597796 0.034537377565 0.034875030873 0.035141910469 0.035332057703 0.035446298156 0.035483277656 0.035442521722 0.035324468825 
0.035130443052 0.034862625389 0.032470098861 0.032774482054 0.033013868628 0.033184327981 0.033286669476 0.033319695237 0.03328297835 
0.033176885444 0.033002540845 0.032761829202 0.030694843304 0.030948968774 0.031163634291 0.031285817953 0.031345471699 0.031342013776 
0.031275475587 0.03114649591 0.030956341769 0.030706865181 0.028881768989 0.029110094343 0.029299900615 0.029411093992 0.029465798501 
0.02946353706 0.029404356894 0.029288838711 0.029118099463 0.028893760798 0.027193304299 0.027398567794 0.027565902383 0.027667172487 
0.027717402243 0.02771618845 0.02766359677 0.027560140732 0.027406810575 0.027205029462 0.025621451569 0.025806118379 0.025953295595 
0.026045599247 0.026091766251 0.026091446873 0.026044717939 0.025952047646 0.02581430404 0.025632745893 0.043786665512 0.044268977368 
0.044650898109 0.044925707209 0.045091089086 0.045144907726 0.045086560898 0.044916766204 0.044637694904 0.044252862161 0.041230585943 
0.041667052182 0.042012610634 0.042260526795 0.042409741254 0.04245828566 0.042405604688 0.042252333253 0.042000452095 0.041652806134 
0.03882394278 0.03921870357 0.0395309959 0.039754627223 0.039889118381 0.039932945849 0.039885290781 0.039746971589 0.03951956301 
0.039205720985 0.036562569723 0.036919603375 0.037201493158 0.037402984404 0.037524107802 0.037563441861 0.037520498284 0.037395746611 
0.037190596703 0.036907336451 0.034441054916 0.034764048796 0.035018115371 0.035199576436 0.035308609119 0.035343951865 0.03530516551 
0.035192645279 0.035007595156 0.03475202025 0.032453463104 0.032745810374 0.032974432248 0.033137813792 0.033235933021 0.033267675799 
0.033232630212 0.03313112393 0.032964196935 0.03273357777 0.030742952448 0.030985624172 0.031183419248 0.031299522383 0.031355462651 
0.031350717809 0.031285335008 0.031159934737 0.030975705183 0.030734379888 0.028986682766 0.02920552187 0.029381850459 0.029487914082 
0.029539448575 0.029536019196 0.029477689634 0.029365009952 0.029199040328 0.02898130942 0.027345678503 0.027543118389 0.0276999094 
0.027796854268 0.027844372743 0.027842086962 0.027790073709 0.027688835504 0.027539311028 0.02734284848 0.025813149353 0.025991409331 
0.026130558719 0.026219201842 0.026263020262 0.02626170985 0.026215342941 0.026124376645 0.025989636609 0.025812314674 0.04315800143 
0.04361081566 0.043968603972 0.044225876424 0.044380745348 0.04443120204 0.044376674353 0.044217827134 0.043956696134 0.043596202203 
0.040741790974 0.041153270164 0.041478241729 0.041711538813 0.041851881552 0.041897708364 0.041848157217 0.041704109557 0.041467186774 
0.041140131914 0.038458063726 0.038831840462 0.03912659922 0.03933784778 0.039464891101 0.039506252264 0.039461436041 0.039330940315 
0.039116227435 0.038819710991 0.036303791932 0.036643248027 0.036910213981 0.037101364292 0.037216283194 0.037253667168 0.037213055506 
0.037094870534 0.036900387775 0.03663170873 0.03427519956 0.034583531879 0.034824935492 0.034997812612 0.035101718538 0.035135478604 
0.035098684767 0.03499168599 0.034815583639 0.034572204027 0.032367702057 0.032647855766 0.03286573535 0.033022050537 0.033115972718 
0.033146461131 0.033113134825 0.033016282855 0.032856847533 0.03263641726 0.030722430296 0.030953552953 0.031135594804 0.031245656967 
0.031297966063 0.031292059769 0.031228003155 0.031106381247 0.030928314807 0.030695432103 0.029024928001 0.029234106874 0.029397772793 
0.029498712839 0.029547128729 0.029542641161 0.029485321701 0.029375704975 0.029214790236 0.029004016104 0.027433818188 0.027623209677 
0.027770004349 0.027862584077 0.027907409138 0.0279041514 0.02785289325 0.027754115493 0.027608704854 0.027417937343 0.025943339866 
0.026114914529 0.026246354092 0.026331279561 0.026372777433 0.026370571748 0.026324740891 0.026235722014 0.02610430255 0.025931611898 
0.042485228541 0.042909912283 0.043244808795 0.04348571622 0.043630772723 0.043678074137 0.043627185055 0.043478578955 0.043234201128 
0.042896786302 0.040202605635 0.040590127947 0.040895403823 0.041114649543 0.041246542256 0.04128957866 0.041243249252 0.041108071929 
0.040885562386 0.04057819867 0.038037109645 0.038390542133 0.038668384867 0.038867729729 0.038987631044 0.039026735859 0.038984591702 
0.038861636981 0.038659195554 0.038379442051 0.035987100136 0.036309364235 0.036561825826 0.036742940987 0.036851855922 0.036887367795 
0.036849057085 0.036737294271 0.036553231338 0.036298772177 0.034049875623 0.034343702883 0.034572686414 0.034737162213 0.034836061311 
0.034868304862 0.034833505021 0.034731972449 0.034564699983 0.034333353847 0.032221962694 0.032489905369 0.032697184207 0.032846521591 
0.03293632023 0.0329656142 0.032934031721 0.032841831829 0.032689873269 0.032479608797 0.030641516395 0.030861135242 0.031028658737 
0.031132796051 0.031181594295 0.031174655043 0.031112052113 0.030994356493 0.030822616604 0.030598350623 0.029003926008 0.029203397874 
0.029355318349 0.029451174258 0.02949655778 0.029491130317 0.029434971638 0.029328595685 0.029172941291 0.028969361377 0.027464311992 
0.027645545807 0.027782989559 0.027871224583 0.027913427387 0.027909308733 0.027858953281 0.027762825465 0.027621765695 0.027436975946 
0.026017868226 0.026182615993 0.026306757677 0.026387962691 0.026427185414 0.026424180859 0.026379033893 0.026292164 0.026164319872 
0.025996570956 0.041779380482 0.042177479809 0.042490755792 0.042716140856 0.042851755401 0.042896087242 0.042848635025 0.042709925581 
0.042481499647 0.042165873692 0.039623457748 0.039988147136 0.040274675159 0.040480598229 0.040604491717 0.040644993536 0.040601643867 
0.040474896934 0.040266108496 0.039977503593 0.037571350997 0.037905234992 0.038166844471 0.038354807435 0.03846788764 0.038504860183 
0.038465301253 0.038349599975 0.038158941206 0.037895288094 0.03562214269 0.03592771182 0.036166146519 0.036337595174 0.036440741852 
0.036474482599 0.036438427319 0.036332896315 0.036158929849 0.035918255166 0.033774039109 0.034053645071 0.034270545491 0.034426866346 
0.0345209309 0.034551731247 0.034518906973 0.034422728205 0.034264099873 0.034044531196 0.032024511991 0.032280363721 0.032477279316 
0.032619789619 0.032705569901 0.03273371532 0.032703886109 0.032616300438 0.032471737713 0.032271518141 0.030507788876 0.030716058944 
0.030870363886 0.030968722493 0.031014162608 0.031006325687 0.030945302528 0.03083163334 0.030666305365 0.030450737434 0.028930521464 
0.029120345073 0.029261510849 0.029352398742 0.029394869591 0.029388621834 0.029333748978 0.029230741923 0.029080486888 0.028884251375 