# vtk DataFile Version 5.1
vtk output
ASCII
DATASET STRUCTURED_POINTS
DIMENSIONS 10 10 20
SPACING 0.1 0.1 0.1
ORIGIN 3.25 -0.45 0.55
POINT_DATA 2000
FIELD FieldData 1
potential 1 2000 double
0.0049594353091 0.0047435547752 0.0046085404512 0.0044111341242 0.0042263968099 0.0040531571728 0.0038903784938 0.0037371147711 0.0035925581959 
0.0034558453722 0.0048169197901 0.0046112357081 0.0044631611431 0.0042767781825 0.0041022902433 0.0039384681073 0.0037843370915 0.0036389711426 
0.0035015288327 0.0033712163815 0.0046739550175 0.0044780153896 0.004316273177 0.0041413274345 0.0039773563869 0.0038232172717 0.0036778687718 
0.0035404327531 0.0034101033699 0.003286149203 0.0045348791076 0.0043485645231 0.004172204327 0.0040089609789 0.0038557241433 0.0037113110497 
0.0035747414073 0.0034451589423 0.0033218150822 0.0032040463077 0.0044026530546 0.0042250672797 0.0040339611843 0.0038826042473 0.00374013155 
0.003605427161 0.0034775267569 0.0033556392898 0.0032390644644 0.0031272184447 0.0042780576838 0.0041086738036 0.0039031911278 0.0037638165841 
0.0036321204982 0.0035070274499 0.0033876399273 0.0032732215708 0.0031631371443 0.0030568858168 0.0042075755689 0.0040489485902 0.00380984819 
0.0036838224028 0.0035611403367 0.0034418477902 0.0033260290108 0.0032137879984 0.0031052004721 0.0030003670883 0.0040999978429 0.0039481823719 
0.0037058062478 0.0035846311089 0.0034669683872 0.0033528112812 0.0032421967897 0.0031351622971 0.0030317199679 0.0029319003533 0.0039970926049 
0.003851676397 0.0036083339078 0.0034917309736 0.0033787620068 0.0032693709767 0.0031635625466 0.0030613278749 0.0029626185893 0.0028673921177 
0.0038955908271 0.0037563435435 0.003513780794 0.0034016664733 0.0032932431846 0.0031884328734 0.0030872020867 0.0029895013401 0.0028952325279 
0.0028042960169 0.0057575950626 0.0055089389869 0.005319708863 0.0050951350474 0.004884544138 0.0046866720929 0.0045003540508 0.004324659148 
0.0041586555682 0.004001526115 0.0056012275388 0.0053639791259 0.0051632724916 0.004950585707 0.004750996616 0.004563215088 0.0043861873635 
0.0042189168823 0.0040605375795 0.0039102815123 0.0054448637114 0.0052185382816 0.0050059253913 0.004805487193 0.0046171321586 0.0044396660639 
0.0042719957508 0.0041131814183 0.0039624106047 0.0038189728505 0.0052911274232 0.0050756446839 0.0048504150882 0.004662489274 0.0044855840877 
0.0043184938642 0.0041601871177 0.0040097733143 0.0038664962211 0.0037297191504 0.0051421884887 0.0049367189902 0.0046990098089 0.0045237997615 
0.0043584122639 0.0042017023856 0.004052683031 0.0039105346011 0.0037745652711 0.0036442050933 0.0049986800613 0.0048027625556 0.0045532050024 
0.004390844218 0.004237015825 0.0040906231208 0.003950763689 0.0038166814656 0.0036877548571 0.0035635068637 0.0049083930113 0.0047234164402 
0.0044456221429 0.0042967955609 0.0041524999891 0.0040126788904 0.003877336517 0.0037464992797 0.0036202024821 0.0034984949591 0.0047777036308 
0.0046008958877 0.0043223395278 0.004179536077 0.0040413286639 0.0039076185355 0.0037783540197 0.0036535076543 0.003533063876 0.0034170220448 
0.0046508927948 0.0044818651576 0.004204767846 0.0040677067815 0.0039352661713 0.0038073045777 0.003683730813 0.0035644806981 0.0034494891428 
0.0033387069139 0.0045261304451 0.004364603303 0.0040905782308 0.0039591068181 0.0038322349662 0.0037097837398 0.0035916368966 0.0034776895528 
0.0033678434291 0.0032620052667 0.0065424813887 0.0062622193441 0.0060191883932 0.0057684646157 0.0055329521996 0.0053112969841 0.0051022762558 
0.0049048975297 0.0047181891704 0.004541323223 0.0063703351885 0.0061027231125 0.0058497608728 0.005611869799 0.005388186896 0.0051773736637 
0.0049783153622 0.0047899732386 0.0046114503075 0.0044419727008 0.0061988085002 0.0059433802224 0.0056800912577 0.0054553029837 0.0052436604316 
0.0050438640011 0.004854797505 0.0046754896023 0.0045051037721 0.004342931386 0.0060292478984 0.0057858047897 0.0055119968839 0.0053005979359 
0.0051011438782 0.0049124062428 0.004733318885 0.004562970326 0.004400602906 0.0042455740209 0.005863438829 0.0056312619444 0.0053471830152 
0.0051493300024 0.0049621552566 0.0047844764575 0.0046152980184 0.0044537800882 0.0042992364153 0.0041511125521 0.0057017940707 0.0054803708089 
0.0051868998963 0.0050027458103 0.0048278795297 0.0046612040649 0.0045018065355 0.0043489249915 0.004201950678 0.0040604215905 0.0055933593237 
0.0053831066288 0.0050690051001 0.0048979215654 0.0047325098245 0.0045726381222 0.0044182420795 0.0042692705815 0.0041257122052 0.003987567492 
0.0054417933916 0.0052409356801 0.0049283063137 0.0047643374717 0.0046060142169 0.0044531571039 0.0043056521606 0.0041634109424 0.0040263783941 
0.0038945077215 0.0052938833118 0.0051020266826 0.0047929904585 0.0046358406321 0.0044842575583 0.0043380433996 0.0041970431044 0.0040611362942 
0.0039302234643 0.0038042252952 0.0051486621574 0.0049654795396 0.0046615361344 0.0045109950725 0.0043659127697 0.0042260620923 0.004091265816 
0.0039613710866 0.0038362518419 0.0037158010482 0.0073104511934 0.0069999524962 0.0067039358436 0.0064282488299 0.0061689028184 0.0059244765076 
0.0056936947894 0.0054755098219 0.0052689133202 0.0050730523351 0.007121925838 0.0068252773477 0.0065208094728 0.0062589175636 0.0060122663871 
0.0057794531064 0.0055593221532 0.0053507938146 0.0051529555534 0.0049650125483 0.0069344385424 0.0066511508308 0.0063380336639 0.0060901454746 
0.0058563422283 0.0056352699585 0.0054257798092 0.0052268717934 0.0050377073633 0.0048575631103 0.0067487583252 0.0064786699522 0.0061568867631 
0.0059232542582 0.0057024095033 0.0054930861908 0.0052941955771 0.0051048216101 0.0049241913897 0.0047516600709 0.0065662485328 0.0063085460162 
0.0059786967939 0.0057594538649 0.0055516318783 0.0053540324998 0.00516566067 0.0049856690856 0.0048133634423 0.0046482011245 0.0063871269328 
0.0061413561036 0.0058045522623 0.0055998081843 0.0054050170427 0.0052190807706 0.0050410823513 0.0048702568858 0.0047060155531 0.00454790428 
0.0062621606323 0.006027754968 0.0056797272281 0.0054869908753 0.0053010270932 0.0051216464254 0.0049487055596 0.0047821019237 0.0046217687489 
0.0044676504994 0.0060914550529 0.0058675538509 0.0055229758802 0.0053383934307 0.005160460323 0.0049889428035 0.0048236664701 0.0046644935114 
0.0045113181959 0.0043640485435 0.0059244213868 0.0057106134538 0.0053715243161 0.0051947629235 0.0050244932122 0.0048604540562 0.0047024444238 
0.0045502938858 0.0044038667247 0.0042630441998 0.0057606201006 0.0055565435165 0.0052243430648 0.0050551519608 0.004892260617 0.0047353867889 
0.004584306606 0.0044388368029 0.0042988101006 0.0041640959603 0.0080586919402 0.0077194593078 0.0073716070862 0.0070722930684 0.0067903424852 
0.0065242821727 0.0062727866685 0.0060347571121 0.0058091627145 0.0055951142551 0.0078538883142 0.0075296506339 0.007174751909 0.0068901883488 
0.006621761841 0.0063680980268 0.00612793376 0.005900176877 0.0056838918174 0.0054782639796 0.0076504300993 0.0073406684942 0.0069787452578 
0.0067090854416 0.0064543304359 0.0062131001549 0.005984212461 0.0057666537319 0.0055595673326 0.0053622186464 0.0074489039178 0.0071532687867 
0.006784574282 0.0065300179416 0.0062889803286 0.0060601749052 0.0058424974868 0.0056350229904 0.0054369656624 0.0052476912106 0.0072499645359 
0.0069679765999 0.0065933325203 0.0063539775486 0.0061266780647 0.0059102490916 0.0057036691074 0.0055060954416 0.0053168459542 0.0051353749634 
0.0070541371631 0.0067851685887 0.0064059972942 0.0061819063468 0.0059683312658 0.0057641753081 0.0055685202173 0.0053806190448 0.0051998893456 
0.0050258937785 0.0069141221505 0.006656746899 0.0062771212774 0.0060634096503 0.0058575352452 0.0056592452394 0.0054683377154 0.0052846562759 
0.0051080768891 0.0049384932311 0.0067256690451 0.0064797965615 0.0061053885011 0.0059008195326 0.0057038696098 0.0055142575051 0.0053317501936 
0.00515616293 0.0049873410457 0.0048251472616 0.0065410111773 0.0063062175345 0.0059389861137 0.0057431977784 0.0055547842116 0.0053734404391 
0.0051989138079 0.0050309992779 0.0048695176919 0.0047143131918 0.0063600342097 0.0061359306839 0.0057771993449 0.0055898932686 0.0054096882216 
0.0052362658561 0.0050693634773 0.0049087549204 0.0047542497371 0.0046056790835 0.0087849561302 0.0084187315565 0.0080203301775 0.0076988510707 
0.0073956435661 0.0071091628037 0.0068381160294 0.0065812904135 0.006337643472 0.0061062688601 0.0085643834914 0.0082139685342 0.0078101242341 
0.0075043181701 0.0072154537539 0.0069421257331 0.0066830291231 0.0064370579674 0.0062032457159 0.0059807703776 0.0083452387845 0.0080105894765 
0.0076011852046 0.0073111582239 0.007036739694 0.0067765249856 0.0065293186911 0.0062940982945 0.0060699794721 0.0058562297718 0.0081283038909 
0.0078086625606 0.007394353861 0.0071202512645 0.0068602762894 0.0066131321336 0.0063777190378 0.0061530925671 0.0059384746837 0.005733223976 
0.0079136970303 0.0076087073511 0.0071906002369 0.0069324620231 0.0066869123546 0.0064527558788 0.0062289822285 0.0060147502393 0.005809380953 
0.0056123395468 0.0077019894725 0.0074106381383 0.0069908283265 0.0067486736742 0.0065174867461 0.006296178179 0.0060838387025 0.0058797386351 
0.0056833088295 0.0054941220848 0.007548399143 0.0072692941751 0.0068603076139 0.0066263782556 0.0064013092326 0.006184786607 0.0059765523987 
0.0057764013646 0.0055841553349 0.005399658977 0.0073433769901 0.0070766745623 0.0066745007754 0.0064506596177 0.0062353702135 0.006028298599 
0.0058291630202 0.0056377344011 0.0054538119756 0.0052772214608 0.007142323065 0.0068875881455 0.0064941080375 0.0062799623627 0.0060740363241 
0.0058759823588 0.0056855078403 0.0055023657015 0.0053263415485 0.0051572427343 0.0069453232702 0.0067021468701 0.0063186154985 0.0061138244869 
0.0059168974344 0.0057274849471 0.005545286417 0.0053700474296 0.0052015440951 0.0050395764724 0.0094874303475 0.0090958205389 0.0086485816803 
0.0083065092886 0.007983492689 0.0076779457848 0.0073885357686 0.0071140196077 0.0068533285971 0.0066055355682 0.0092519270482 0.0088771273604 
0.0084256503532 0.0081001267854 0.0077922263491 0.007500513847 0.0072236581288 0.0069605366822 0.0067101633031 0.0064717070472 0.0090177966175 
0.0086596789608 0.0082043367015 0.0078954375856 0.0076027094012 0.0073247516325 0.0070603620277 0.0068084956121 0.0065682699622 0.0063389519804 
0.0087859990307 0.0084437755509 0.0079854793925 0.007693251546 0.0074156474584 0.0071513672395 0.0068993017748 0.006658509962 0.0064282116578 
0.0062077786057 0.0085565310825 0.0082298214197 0.0077699145283 0.0074943705081 0.0072318289179 0.0069810952154 0.0067411680241 0.0065112160232 
0.0062905693865 0.0060787077385 0.0083297670027 0.0080176576675 0.0075585363872 0.0072996417877 0.0070520516474 0.0068146832782 0.0065866533688 
0.0063672482341 0.0061559141902 0.0059522425101 0.0081640933224 0.0078645492676 0.0074283072796 0.0071750070769 0.0069315326985 0.0066975202599 
0.0064726670168 0.0062567140897 0.0060494348296 0.0058506256573 0.0079435671242 0.007657227831 0.0072292513479 0.0069869446865 0.0067540652963 
0.0065302361364 0.0063151399494 0.006108500991 0.0059100786444 0.0057196550206 0.0077271934145 0.0074536213717 0.0070357175878 0.0068039725962 
0.0065812412864 0.0063671409864 0.0061613469843 0.0059635750759 0.0057735744294 0.0055911218267 0.0075151848601 0.0072539548849 0.0068473227869 
0.0066257574688 0.0064127769935 0.0062079987086 0.006011099244 0.0058217933729 0.0056398270231 0.0054649674991 0.010164637367 0.0097494215306 
0.0092550960663 0.0088941054653 0.0085528167625 0.0082296056003 0.0079231114911 0.0076320672527 0.0073553872703 0.0070921204564 0.0099149807126 
0.0095174187129 0.0090202406836 0.0086765892841 0.0083511503439 0.0080423942888 0.0077490109919 0.0074698468744 0.007203917672 0.0069503764816 
0.0096667779596 0.0092867252866 0.0087873431041 0.0084611010359 0.0081514767414 0.0078570714789 0.0075766666441 0.007309217611 0.0070538429769 
0.0068098059613 0.0094209192037 0.0090576024708 0.0085572152297 0.0082483548241 0.0079544805596 0.0076742985966 0.0074067011421 0.0071507546845 
0.0069056872659 0.0066708760241 0.0091774133077 0.0088304065301 0.0083306689782 0.0080391508953 0.0077609144827 0.0074947852283 0.0072397742605 
0.006995063019 0.0067599975367 0.0065340730233 0.0089365557403 0.0086049615455 0.0081085929404 0.0078343218598 0.0075715623157 0.0073192650848 
0.0070765619683 0.0068427612033 0.0066173279192 0.0063998841356 0.0087603329414 0.0084416796234 0.0079801292008 0.0077083807134 0.007447365196 
0.0071966771151 0.0069559692599 0.0067249369742 0.0065033083222 0.0062908395134 0.0085253004016 0.008220567993 0.0077686265432 0.0075087253108 
0.0072590741416 0.0070192601139 0.0067889284439 0.0065677670557 0.0063554948345 0.0061518619369 0.0082945988039 0.0080033383528 0.0075627533843 
0.0073142319936 0.0070754697419 0.0068460528627 0.0066256266891 0.0064138759494 0.0062105186886 0.0060152947994 0.0080685268003 0.007790306637 
0.0073622186071 0.0071246574464 0.0068963539047 0.006676902625 0.0064659541202 0.0062631961788 0.0060683464823 0.0058811502968 0.010815387311 
0.010378246538 0.0098388477634 0.0094606984564 0.009102716579 0.0087633283319 0.0084410854531 0.0081347258173 0.0078431450152 0.0075653911849 
0.010552531352 0.010133905641 0.0095929917125 0.0092329160375 0.0088914505931 0.0085670599115 0.0082584127934 0.0079643615108 0.0076839086832 
0.0074162135512 0.010291315697 0.0098907810182 0.0093494108688 0.009007433554 0.0086823857947 0.0083728657302 0.0080776562951 0.0077957203821 
0.007526176361 0.0072682964404 0.010032216293 0.0096492368425 0.0091089169116 0.0087849611421 0.0084762188986 0.0081814079929 0.0078994314404 
0.007629367545 0.0073704576895 0.0071220927768 0.0097755227645 0.0094096130116 0.0088723248517 0.0085662928402 0.0082736985995 0.0079933869387 
0.0077243849432 0.0074658961004 0.007217283303 0.0069780678962 0.009521512282 0.0091717266492 0.008640521785 0.0083522700538 0.0080756160503 
0.0078095350783 0.0075531894615 0.0073059125959 0.0070671997429 0.0068366970613 0.0093363157021 0.0089999197084 0.0085148086979 0.0082256060895 
0.007947981532 0.0076814937719 0.0074257546869 0.0071804198435 0.0069451788697 0.0067197460657 0.0090877369461 0.0087658835935 0.0082916617943 
0.0080151059437 0.0077495654237 0.007494598366 0.0072498156664 0.0070148699051 0.0067894502865 0.0065732655311 0.0088436513172 0.0085358964396 
0.0080742391868 0.0078098325465 0.0075558741411 0.0073119288154 0.0070776132031 0.0068525834309 0.0066365304144 0.0064291628736 0.0086044195427 
0.0083103216039 0.0078623213529 0.0076096072562 0.007366771429 0.0071333920618 0.0069090961215 0.0066935483234 0.0064864445137 0.0062875008227 
0.011438839557 0.010981777944 0.01039902327 0.010005534772 0.0096325470462 0.0092784801043 0.0089418655488 0.0086214347104 0.0083160818818 
0.0080248460101 0.011163541128 0.01072574167 0.010143180333 0.0097684208588 0.0094125168622 0.0090739297029 0.0087513340625 0.0084435750276 
0.0081496656304 0.007868762615 0.010890263291 0.010470986704 0.0098899149082 0.0095338609035 0.0091948996411 0.0088716384637 0.0085628711264 
0.0082675649661 0.0079848557679 0.0077140229592 0.01061897809 0.010217890788 0.0096400536745 0.0093025802987 0.0089804082663 0.0086722716665 
0.0083770949406 0.0080939714884 0.0078221606362 0.007561071823 0.010350093966 0.0099663278361 0.0093944252005 0.0090753836805 0.0087697980615 
0.0084765370764 0.0081946554189 0.00792338179 0.0076621071988 0.0074103718607 0.010083518978 0.0097172185275 0.0091539326923 0.0088531243023 
0.0085638657469 0.0082851691398 0.0080162281534 0.0077564086614 0.0075052384507 0.0072623943933 0.0098913337218 0.0095385835403 0.0090314413723 
0.0087258409655 0.0084326016246 0.0081512464742 0.0078813544632 0.0076225461346 0.0073744756432 0.0071368182082 0.0096301422085 0.0092924710086 
0.0087974657877 0.008505259799 0.0082247718549 0.0079555370059 0.0076971355617 0.0074491935595 0.0072113654136 0.0069833311035 0.0093735938714 
0.0090505563313 0.0085692947595 0.0082899513273 0.0080216893859 0.0077640551884 0.0075166391231 0.0072790766082 0.0070510295431 0.0068321831968 
0.0091220870711 0.008813243272 0.0083467622852 0.008079793233 0.0078232694464 0.0075767538795 0.0073398572749 0.0071122252871 0.0068935331213 
0.0066834722179 0.012034054752 0.011558899202 0.010935000489 0.010528049276 0.010141770383 0.0097745780512 0.0094250048425 0.0090917831205 
0.0087738045191 0.0084701132797 0.011747713833 0.011292147792 0.010670238921 0.010282600011 0.0099138842296 0.0095625816224 0.0092273736239 
0.0089071191737 0.0086008328623 0.0083076849077 0.011463130826 0.011026702879 0.010408384986 0.010039949709 0.0096886203908 0.0093530208604 
0.0090319608945 0.0087244277756 0.0084295680663 0.0081466806632 0.011180593054 0.010762907189 0.010150228414 0.0098008480303 0.0094667107295 
0.0091465769016 0.0088393940691 0.0085442824425 0.0082605229854 0.0079875483157 0.010900488121 0.010500640913 0.0098966396461 0.0095661166778 
0.0092489226751 0.0089439656017 0.0086503313033 0.0083672787581 0.0080942278253 0.0078307501571 0.010622693033 0.010240808703 0.009648544665 
0.0093366241469 0.0090360687588 0.0087459352285 0.0084654552878 0.0081940329991 0.0079312292083 0.0076767599306 0.010424786973 0.010057080691 
0.0095291964038 0.0092083163682 0.008900508242 0.0086052713888 0.0083221547201 0.008050747104 0.0077906692595 0.0075415677629 0.01015190177 
0.0097997243925 0.0092852342944 0.0089784351145 0.0086839952711 0.0084014241842 0.0081302847112 0.00787017395 0.0076207211703 0.0073815758855 
0.0098837871483 0.0095466993341 0.009047133641 0.0087538550791 0.0084722290443 0.0082017872416 0.0079421055656 0.0076927948365 0.0074534960157 
0.0072238692834 0.0096208716972 0.0092984370577 0.0088147775054 0.0085344975163 0.008265172749 0.0080063592218 0.0077576511257 0.0075186780171 
0.0072890954555 0.0070685796291 0.012600623018 0.012109154567 0.011446357292 0.011027831632 0.01063002875 0.010251299446 0.0098902088041 
0.0095454944774 0.0092160568065 0.0089009475858 0.012304105987 0.011832626864 0.011173841478 0.010775118864 0.010395245967 0.010032732853 
0.009686276389 0.0093547481415 0.0090371805961 0.0087327579737 0.012009304007 0.011557384102 0.010904511423 0.01052541919 0.010163290151 
0.0098167742436 0.0094847067433 0.00916609614 0.0088601110735 0.0085660736886 0.011716558334 0.011283769074 0.010639189954 0.010279534572 
0.0099349146377 0.0096041254401 0.0092861460882 0.0089801251833 0.0086853724356 0.0084013499879 0.011426206746 0.011011674892 0.010378773966 
0.010038308982 0.0097109085987 0.0093955178429 0.009091263252 0.0087974396199 0.0085135011992 0.0082390538663 0.011138156791 0.010741986 
0.010124210982 0.0098026308762 0.0094920977173 0.0091917125663 0.0089007527831 0.0086186640026 0.0083450503882 0.0080796618167 0.010936185944 
0.010554923418 0.010007335491 0.0096723425813 0.0093510630489 0.0090429749047 0.0087476021847 0.0084645090411 0.0081932883864 0.007933554074 
0.010652508468 0.010287141602 0.0097542542068 0.0094339660342 0.0091266087586 0.0088316807455 0.0085487221702 0.008277309687 0.0080170493829 
0.0077675664972 0.010373708475 0.010023806833 0.0095070655253 0.0092008940454 0.008906886564 0.0086245628796 0.0083534844162 0.0080932463033 
0.0078434692809 0.0076037952344 0.010100241594 0.0097653738168 0.0092656980474 0.0089730930746 0.0086918975376 0.0084216578222 0.0081619591304 
0.0079124206972 0.0076726818011 0.0074424021624 0.013138228182 0.012632210299 0.01193285693 0.011504719693 0.011097135796 0.010708477671 
0.01033732444 0.0099824279544 0.009642705027 0.0093172232242 0.012832565272 0.012346785015 0.011653776933 0.01124580701 0.010856452416 
0.01048424767 0.010127914662 0.0097863456605 0.0094585958894 0.0091438735464 0.012528512215 0.012062651285 0.011378153368 0.010990142994 
0.010618796845 0.010262798467 0.0099210142223 0.0095924817274 0.0092763984152 0.0089721147769 0.012226519296 0.011779757478 0.011106845481 
0.010738557728 0.010384948246 0.010044852343 0.0097172866175 0.0094014360892 0.0090966461804 0.008802411572 0.011926538397 0.011499042204 
0.010840778025 0.010491921109 0.010155716812 0.009831158779 0.0095174164298 0.0092138268168 0.0089198855305 0.0086352357928 0.011629540133 
0.011220359547 0.010580922917 0.010251142415 0.0099319480962 0.0096224948517 0.0093221104661 0.009030287246 0.0087466749939 0.0084710694232 
0.011425151238 0.011031724023 0.010465215103 0.010117318093 0.0097837036358 0.0094638339772 0.0091572137772 0.008863384892 0.0085819163747 
0.0083123975672 0.01113156452 0.010754318716 0.01020390518 0.0098712703078 0.0095520740599 0.0092458012244 0.0089519776104 0.008670163916 
0.0083999458666 0.0081409278402 0.010842942933 0.010481459698 0.0099484941458 0.0096305103327 0.0093251380516 0.0090318907664 0.0087503188591 
0.00848000462 0.0082205542494 0.0079715908554 0.010559765621 0.010213625545 0.0096989538113 0.0093950427398 0.0091029347794 0.0088221735813 
0.0085523400551 0.0082930399004 0.0080439038591 0.0078045772678 0.013653395492 0.013134324966 0.012450840321 0.012000499455 0.011571413542 
0.011162472182 0.010772649186 0.01040098909 0.010046599821 0.0097086394611 0.013339556033 0.012840149048 0.012172591462 0.011738298847 
0.011324461017 0.010929986356 0.010553865471 0.010195158675 0.0098529878094 0.0095265249588 0.013027737507 0.012547669581 0.011894665592 
0.011476565557 0.011078086194 0.010698159767 0.010335796458 0.0099900757989 0.0096601374303 0.0093451692604 0.012718594573 0.012257109066 
0.011617396576 0.01121564987 0.010832653507 0.010467366231 0.010118823129 0.0097861255261 0.0094684329527 0.0091649539427 0.01241235231 
0.011969667634 0.011341178948 0.010955957552 0.010588575784 0.010238023391 0.0099033638795 0.009583724871 0.0092782886733 0.008986286755 
0.012110240007 0.011685514177 0.011066472357 0.010697950551 0.010346316445 0.010010594512 0.0096898800108 0.0093833293457 0.0090901526033 
0.0088096050057 0.011866771613 0.011459409355 0.010852907136 0.010509608958 0.010178569638 0.0098592678182 0.0095512503041 0.0092541221634 
0.0089675419914 0.0086912122541 0.011569424532 0.011179982037 0.010595885601 0.010264614906 0.0099452605282 0.0096373017001 0.0093402836102 
0.0090538071208 0.0087775233181 0.0085111271664 0.011277009887 0.010904809838 0.010344062726 0.010024528476 0.0097165528841 0.0094196208419 
0.0091332772906 0.0088571221706 0.0085908031379 0.0083340103739 0.010989797767 0.010634170385 0.010097218906 0.0097891629123 0.0094922935706 
0.0092061022952 0.0089301386078 0.0086640040539 0.0084073461057 0.0081598528049 0.014134519887 0.013604695506 0.012895374061 0.012436475284 
0.011998792315 0.011581227111 0.011182763511 0.010802455693 0.010439416994 0.010092811911 0.013813626682 0.013303642762 0.012612189455 
0.012169507588 0.011747198244 0.011344189963 0.01095948896 0.010592171393 0.010241370708 0.0099062695585 0.013494700584 0.013003863081 
0.012329484922 0.011903132545 0.011496279996 0.011107885307 0.010736981628 0.010382668129 0.010044102076 0.0097204882394 0.013178006597 
0.012706579986 0.012047615689 0.011637718424 0.011246415282 0.010872696972 0.010515627068 0.010174332688 0.0098479952347 0.0095358449246 
0.012864806306 0.012412000464 0.011766994348 0.01137368305 0.010998025477 0.010639047964 0.010295848376 0.0099675830508 0.0096534627787 
0.0093527434094 0.012555296806 0.012120625061 0.011488090798 0.01111149784 0.0107515804 0.010407405183 0.010078105711 0.0097628720601 
0.0094609461024 0.0091716134471 0.01230855142 0.011891585976 0.011271064323 0.010917201076 0.010576019876 0.010246990702 0.0099296479019 
0.0096235801242 0.0093284280236 0.0090438732667 0.012003401708 0.011604487807 0.011007629093 0.010666180293 0.010337021591 0.010019628934 
0.0097135368341 0.0094183342971 0.0091336583606 0.008859186747 0.01170317954 0.011321660675 0.01074932659 0.01041998549 0.010102533419 
0.0097964521045 0.0095012820952 0.0092166136973 0.0089420839247 0.0086773691941 0.011408177441 0.011043402653 0.010495975027 0.01017846714 
0.00987243389 0.0095773690493 0.0092928196374 0.0090183814156 0.0087536938876 0.0084984335675 0.014587161549 0.014048398972 0.013317346345 
0.012850983146 0.012405729109 0.0119805083 0.011574322378 0.011186241292 0.010815391128 0.010460948179 0.014260237837 0.013741381788 
0.013029794645 0.012579769382 0.01214997474 0.011739366585 0.011346975198 0.01097189735 0.010613284417 0.010270336383 0.013935178003 
0.013435556921 0.012742860336 0.012309256874 0.011894978777 0.011499016491 0.01112043394 0.010758355802 0.01041196094 0.010080476874 
0.013612255645 0.013132123154 0.012456921379 0.012039830121 0.011641131105 0.011259852386 0.010895091364 0.010546006151 0.01021180618 
0.0098917461438 0.013292706192 0.012831294869 0.012172404671 0.011771920303 0.011388862603 0.011022302358 0.010671373189 0.010335268015 
0.010013228553 0.0097045408904 0.012976738583 0.012533307606 0.011889793362 0.011506007722 0.011138650675 0.010786836671 0.010449739662 
0.010126590304 0.0098166652404 0.0095192834803 0.012726617612 0.012301351642 0.011670607672 0.011307120541 0.010956678118 0.010618745942 
0.01029284798 0.0099785621353 0.0096755128825 0.0093833665794 0.012414666307 0.01200751709 0.011401371744 0.011050641829 0.01071252047 
0.010386481029 0.010072053585 0.0097688179874 0.0094764005846 0.0091944650962 0.012107610469 0.011717944589 0.011137185764 0.01079889322 
0.010472766878 0.010158290095 0.0098550012782 0.009562485981 0.0092803725512 0.009008326099 0.011805761925 0.011432950166 0.010877902149 
0.010551757305 0.010237327903 0.0099341109445 0.0096416555688 0.0093595544102 0.0090874409804 0.008824984628 0.015011593814 0.014465632447 
0.01371677625 0.013244040336 0.012792241674 0.012360335264 0.011947347103 0.011552367817 0.011174544028 0.010813069621 0.014679625716 
0.014153245002 0.013425441292 0.012969116398 0.01253282075 0.012115546239 0.011716353659 0.0113343653 0.01096875639 0.010618750755 
0.014349067029 0.01384257193 0.013134844522 0.012694985343 0.012274225539 0.011871595555 0.011486194096 0.011117176202 0.010763750503 
0.010425169511 0.014021176614 0.013533863625 0.012845381624 0.012422048085 0.012016858993 0.0116288867 0.01125726743 0.010901193993 
0.01055990873 0.010232696075 0.013696204499 0.013227381125 0.012557496415 0.012150748883 0.01176116244 0.011387853762 0.011030001139 
0.01068683606 0.010357636982 0.010041723494 0.013374686022 0.012924168301 0.012271683302 0.011881575252 0.01150761544 0.011148968037 
0.010804854969 0.010474548781 0.010157366961 0.0098526655596 0.013121103744 0.012688795558 0.012051297037 0.011679139825 0.011320328589 
0.010974327584 0.010640657165 0.010318886551 0.010008628748 0.0097095361329 0.012803311726 0.01238912441 0.011776882065 0.011417778022 
0.011071544502 0.010737657161 0.010415644305 0.010105080425 0.0098055832948 0.0095168060386 0.012490358289 0.012093683535 0.01150741562 
0.011161034956 0.010827046315 0.010504938405 0.010194249772 0.0098945641042 0.0096055036873 0.0093267259154 0.012182573897 0.011802805236 
0.011242785838 0.010908825779 0.010586774726 0.010276136864 0.0099764647944 0.0096873509442 0.0094084255935 0.0091393520079 0.015408254128 
0.014856417628 0.01409377223 0.013615745029 0.013158420721 0.012720789688 0.012301910711 0.011900902965 0.011516937249 0.0111492323 
0.015072148663 0.014540142037 0.013799248986 0.013337654287 0.012895833574 0.012472817079 0.012067703802 0.011679647388 0.011307854041 
0.010951572924 0.014737337798 0.014225156544 0.013505564986 0.01306043367 0.012634126898 0.012225719412 0.01183434888 0.01145920849 
0.011099539453 0.010754625431 0.014405051693 0.013912018932 0.013213136669 0.01278450008 0.012373715786 0.011979905373 0.011602248685 
0.011239978929 0.010892375644 0.010558758205 0.014075545015 0.013600990515 0.012922421777 0.012510306484 0.012115047408 0.011735814091 
0.011371831808 0.011022375795 0.010686765201 0.010364357233 0.013749094667 0.013293094369 0.012633924258 0.012238348498 0.011858606679 
0.011493919081 0.011143557934 0.010806842744 0.010483134192 0.010171829339 0.013492236557 0.013054097272 0.012412974537 0.012033103415 
0.011666820672 0.011313593871 0.010972941284 0.0106444271 0.010327656682 0.010022271145 0.01316952156 0.01274945031 0.012134004378 
0.011767436843 0.011413947281 0.011073017071 0.010744175284 0.010426994595 0.010121086349 0.0098260969717 0.012851567564 0.012448982391 
0.011859865088 0.011506262785 0.011165228349 0.01083625834 0.010518895228 0.010212721444 0.0099173573486 0.0096324544781 0.012538719658 
0.012153038549 0.011590477916 0.011249527949 0.010920634507 0.010603312075 0.010297117202 0.010001645711 0.0097165268151 0.0094414203508 
0.015777620684 0.01522177627 0.014448532133 0.013966273143 0.01350442174 0.013062012271 0.012638140797 0.012231960597 0.011842673806 
0.011469526509 0.015437957511 0.01490212646 0.014151417194 0.01368556376 0.01323917375 0.012811325021 0.012401156128 0.012007860212 
0.011630677658 0.011268889797 0.015100068908 0.014583648036 0.013855227889 0.013405787518 0.012974848192 0.012561534559 0.012165029859 
0.011784568491 0.011419430157 0.011068933525 0.014764248507 0.014266624955 0.013560396991 0.01312737338 0.012711868867 0.012313057524 
0.011930168445 0.011562479345 0.011209310842 0.010870020833 0.014431059016 0.013952112749 0.013267395486 0.012850785224 0.012450690877 
0.012066337663 0.011697002548 0.011342008424 0.011000718377 0.010672531321 0.014100776836 0.013640317444 0.012976736709 0.012576525047 
0.01219180302 0.011821849206 0.011465990018 0.011123595376 0.010794072995 0.010476864155 0.013840324947 0.013397514237 0.012755559685 
0.012368930116 0.01199607412 0.011636464884 0.011289622306 0.010955109123 0.010632525501 0.010321504967 0.013513561106 0.013088713164 
0.012472657954 0.012099535492 0.011739646091 0.011392478881 0.011057566849 0.010734483176 0.010422836313 0.010122267426 0.01319146097 
0.012784021311 0.012194452663 0.011834493734 0.011487229966 0.011152168087 0.01082885608 0.010516879169 0.010215857187 0.0099254383957 
0.012874384623 0.012483797095 0.011920899163 0.011573782715 0.011238825374 0.010915553366 0.010603531034 0.01030235868 0.01001166679 