# vtk DataFile Version 5.1
vtk output
ASCII
DATASET STRUCTURED_POINTS
DIMENSIONS 10 10 20
SPACING 0.1 0.1 0.1
ORIGIN 3.25 -0.45 0.55
POINT_DATA 2000
FIELD FieldData 1
potential 1 2000 double
0.0014716127172 0.0014318888622 0.0013262800571 0.0012886998753 0.0012529856156 0.0012190373982 0.0011867671821 0.0011560873655 0.001126909083 
0.0010991143559 0.0014441258824 0.0014056733781 0.0012860518095 0.0012499941437 0.0012157474053 0.0011832039321 0.0011522846597 0.0011229044178 
0.0010949688532 0.0010683668626 0.0014162236226 0.0013790057565 0.0012453162616 0.0012107944333 0.0011780294326 0.0011469235932 0.0011173848472 
0.0010893301269 0.0010626660904 0.0010372896311 0.0013891121727 0.0013530221353 0.0012052416399 0.0011722423533 0.0011409622839 0.001111292689 
0.0010831436755 0.0010564261179 0.0010310496926 0.0010069168581 0.0013635312931 0.0013284646869 0.0011665898191 0.0011350873177 0.0011052656804 
0.001077022199 0.0010502561686 0.0010248799352 0.0010007991794 0.00097792152057 0.0013398216679 0.0013056508397 0.0011297212932 0.0010996801197 
0.0010712910886 0.001044449754 0.0010190554272 0.00099501540287 0.00097223290577 0.00095061654104 0.0013184218575 0.001285390985 0.0011474328001 
0.0011269173825 0.0011061528748 0.0010851917242 0.0010640835598 0.0010428789565 0.0010216223447 0.0010003667878 0.001300303711 0.001267945732 
0.0011332657432 0.001112993936 0.0010925457498 0.0010719786878 0.0010513419642 0.0010306788388 0.001010021093 0.00098940728518 0.0012831864949 
0.0012514925687 0.0011208715341 0.0011007938974 0.0010806087019 0.0010603737485 0.0010401428774 0.0010199545192 0.00099982809151 0.00097978410874 
0.0012659849047 0.0012349852745 0.0011091060155 0.0010892153186 0.0010692771892 0.001049353763 0.0010294980965 0.001009743584 0.00099009960087 
0.00097057251995 0.0017120413577 0.0016659465748 0.0015413875563 0.0014994747607 0.0014594964127 0.0014213514291 0.0013849380876 0.0013501754862 
0.0013169657494 0.0012852122918 0.0016828425942 0.0016381298489 0.0015003534683 0.0014600087137 0.0014215388794 0.0013848391359 0.0013498231818 
0.0013163971563 0.0012844694636 0.0012539459406 0.001653332572 0.0016099714956 0.0014589673144 0.0014202065121 0.0013832608034 0.0013480356864 
0.0013144364472 0.0012823724281 0.0012517544048 0.0012224910166 0.0016242168058 0.0015821235957 0.0014179240869 0.0013807457874 0.0013453342751 
0.0013115898278 0.0012794194306 0.0012487325909 0.0012194409205 0.001191456869 0.001595989248 0.0015550858886 0.0013777489189 0.0013421444923 
0.0013082577391 0.001275992412 0.0012452529951 0.0012159504767 0.0011879967874 0.0011613031419 0.0015689175714 0.0015290988063 0.0013387233846 
0.0013046795136 0.0012723088792 0.0012415143827 0.0012122046217 0.0011842887952 0.0011576763514 0.001132281439 0.0015439281927 0.001505236463 
0.001347216586 0.0013228283691 0.0012982807372 0.0012736215381 0.0012489014622 0.0012241705939 0.0011994780225 0.0011748755892 0.0015210585475 
0.001483244471 0.0013292988465 0.0013052891666 0.0012811820706 0.0012570279164 0.0012328727823 0.0012087603462 0.0011847319312 0.0011608313127 
0.0014988261634 0.0014618840332 0.0013127735162 0.0012890958552 0.0012653816541 0.0012416790183 0.0012180322744 0.0011944815121 0.0011710589872 
0.001147798065 0.0014766110528 0.0014405582432 0.0012969342057 0.0012735663836 0.0012502198818 0.0012269387878 0.0012037669676 0.0011807373949 
0.0011578764439 0.0011352071092 0.0019513429012 0.0018989533592 0.0017555327278 0.001709371017 0.0016651969115 0.0016229097842 0.0015824098986 
0.0015436159662 0.0015064337439 0.0014707753534 0.0019197053546 0.001868826753 0.0017130178996 0.0016684865496 0.0016258778914 0.0015850923291 
0.0015460427959 0.0015086371411 0.0014727862582 0.0014384036586 0.0018878789381 0.0018384745644 0.0016703115591 0.0016274211671 0.0015863952335 
0.0015471363679 0.0015095531166 0.0014735566216 0.0014390597721 0.0014059777504 0.0018562715474 0.0018082846016 0.0016278241758 0.0015865862973 
0.0015471516493 0.0015094271884 0.001473321604 0.0014387469722 0.0014056204869 0.0013738575265 0.0018251770259 0.0017785387711 0.0015858984445 
0.0015463083659 0.0015084675685 0.001472281396 0.0014376610218 0.0014045188767 0.0013727728146 0.0013423408688 0.001794778567 0.0017493993679 
0.0015447246971 0.0015067853555 0.0014705368997 0.0014358902796 0.0014027592211 0.0013710565497 0.0013406985837 0.0013116045305 0.0017666996843 
0.0017224474081 0.0015452370618 0.0015170009122 0.0014886924082 0.0014603586733 0.0014320508856 0.0014038157995 0.0013757048623 0.0013477712608 
0.001739627169 0.0016964326204 0.0015240494144 0.0014963009382 0.0014685375618 0.0014408017518 0.0014131405357 0.0013855966854 0.001358216306 
0.0013310432622 0.0017130306679 0.0016708881219 0.0015040698491 0.0014767658173 0.0014494976031 0.0014223101111 0.001395244707 0.0013683408215 
0.0013416353029 0.0013151665994 0.0016865657768 0.0016454822326 0.0014848529471 0.0014579627544 0.0014311604012 0.0014044860439 0.0013779796219 
0.0013516734893 0.0013255998124 0.0012997902712 0.0021887955156 0.0021302065274 0.0019681818317 0.0019178561224 0.0018695607448 0.0018231986714 
0.0017786756447 0.0017359120219 0.0016948174886 0.0016553100756 0.002154357649 0.0020974131771 0.0019238488146 0.0018752218903 0.0018285587921 
0.0017837618414 0.001740747811 0.0016994278565 0.0016597192843 0.0016215397748 0.0021198255692 0.0020644923982 0.0018794536679 0.0018325336376 
0.0017875165262 0.0017443053949 0.0017028130382 0.0016629536455 0.0016246478111 0.0015878145668 0.0020854321585 0.0020316541604 0.0018352374 
0.0017900401307 0.0017466775985 0.0017050594731 0.0016650987537 0.0016267137583 0.0015898249265 0.0015543514522 0.0020513403027 0.0019990626677 
0.0017914179616 0.0017479452219 0.0017062436211 0.0016662240585 0.0016278052569 0.0015909043105 0.0015554411632 0.0015213401721 0.0020176643584 
0.0019668013528 0.0017481240587 0.0017063798614 0.0016663431392 0.0016279301763 0.0015910597744 0.0015556487166 0.0015216210481 0.00148890032 
0.00198690456 0.001937201606 0.0017417768145 0.0017097095441 0.0016776557806 0.0016456634533 0.001613779778 0.0015820537702 0.0015505371028 
0.0015192813243 0.0019560069216 0.0019075240614 0.0017176357222 0.001686152612 0.0016547335646 0.0016234207686 0.0015922596194 0.0015612945991 
0.0015305715121 0.0015001349566 0.001925513636 0.0018782424834 0.0016946101723 0.0016636656512 0.0016328336302 0.0016021531541 0.0015716663316 
0.001541412001 0.0015114300062 0.0014817597171 0.0018952452168 0.0018491871961 0.0016724086158 0.0016419703258 0.0016116909649 0.0015816059509 
0.0015517526296 0.0015221675519 0.0014928823494 0.001463933799 0.0024238755278 0.0023591953864 0.0021789941866 0.0021245895464 0.0020722510442 
0.0020218871769 0.0019734087063 0.0019267391352 0.0018817958298 0.0018384990746 0.0023864666661 0.002323568367 0.0021326844398 0.0020800505674 
0.0020294099178 0.0019806791641 0.0019337720832 0.001888605494 0.0018451023691 0.0018031843384 0.0023490315421 0.0022878804726 0.0020864094305 
0.002035552345 0.001986626044 0.0019395405522 0.0018942120012 0.0018505606124 0.0018085115443 0.0017679876939 0.0023116901427 0.002252237593 
0.0020403126509 0.0019912474283 0.0019440411917 0.0018986090478 0.0018548688165 0.0018127449838 0.0017721603778 0.0017330423946 0.0022745493201 
0.0022167323746 0.0019945323791 0.0019472638736 0.0019017836095 0.0018580126474 0.0018158699295 0.0017752799891 0.0017361700104 0.001698466534 
0.0022376487759 0.0021813909062 0.0019491539106 0.0019036875411 0.0018599417148 0.0018178382286 0.0017773001415 0.0017382528092 0.0017006245972 
0.001664345071 0.0022045586554 0.0021495257297 0.0019369665511 0.0019010808866 0.0018652938487 0.0018296518577 0.0017942023816 0.0017589944417 
0.0017240795334 0.0016895086555 0.0021700942969 0.0021164283757 0.0019100770688 0.0018748619083 0.0018397901522 0.0018049052139 0.0017702497782 
0.0017358693867 0.0017018096686 0.0016681153615 0.0021360059561 0.002083698427 0.0018842543201 0.0018496650442 0.0018152630245 0.0017810873111 
0.0017471774949 0.0017135750017 0.0016803199968 0.0016474526574 0.0021022141399 0.0020512625109 0.0018593014096 0.0018253022492 0.0017915322151 
0.001758026876 0.0017248227684 0.0016919552788 0.0016594605347 0.0016273747116 0.0026561796056 0.00258553201 0.0023877470719 0.0023293470943 
0.0022730430502 0.0022187470509 0.0021663858151 0.0021158779952 0.0020671480434 0.0020201230036 0.0026157389715 0.0025470129951 0.0023394016733 
0.0022828441392 0.0022283064125 0.0021757128311 0.0021249801483 0.0020760338268 0.002028799359 0.0019832055248 0.0025753203968 0.0025084671088 
0.002291162562 0.0022364528685 0.0021836961333 0.0021328081777 0.0020837129578 0.0020363378542 0.0019906089857 0.0019464563909 0.0025349746871 
0.0024699539944 0.0022431178682 0.0021902692377 0.0021392970054 0.002090122531 0.0020426734037 0.0019968760879 0.0019526616177 0.0019099600766 
0.0024947664347 0.0024315152348 0.0021953592173 0.0021443745495 0.0020951931655 0.0020477399789 0.0020019429182 0.0019577318225 0.0019150386673 
0.001873795824 0.0024547034191 0.0023931345228 0.0021479423378 0.002098828513 0.0020514447146 0.0020057191721 0.0019615806125 0.0019189618378 
0.001877797192 0.0018380199838 0.0024195900218 0.0023593577458 0.0021308493425 0.0020911554003 0.0020516440202 0.0020123605838 0.0019733514758 
0.0019346676481 0.0018963593121 0.0018584780157 0.0023817405397 0.0023230118819 0.0021013451216 0.002062402035 0.0020236824903 0.0019852283317 
0.0019470820424 0.0019092896517 0.001871896951 0.0018349505462 0.0023442631626 0.0022870288369 0.0020728813644 0.0020346457887 0.0019966725154 
0.001959000319 0.0019216685431 0.0018847186889 0.0018481922614 0.0018121300547 0.0023071375638 0.0022513929146 0.0020453189768 0.0020077529611 
0.0019704868723 0.0019335565453 0.0018969978331 0.0018608480971 0.0018251440945 0.0017899229405 0.0028853844941 0.0028089130782 0.0025942910413 
0.0025319756974 0.0024717821249 0.0024136298171 0.002357450759 0.0023031696133 0.0022507164562 0.0022000239363 0.0028419098637 0.0027674801557 
0.0025439059082 0.0024835037558 0.002425143755 0.002368757337 0.0023142668191 0.0022616046931 0.0022107013532 0.0021614915746 0.0027984939995 
0.0027260637512 0.0024936799293 0.0024351969753 0.0023786827293 0.0023240627924 0.0022712683902 0.0022202307038 0.0021708834757 0.0021231632824 
0.0027551430915 0.0026846761545 0.00244367938 0.0023871206492 0.0023324536847 0.0022796069234 0.0022285130989 0.0021791059412 0.0021313211404 
0.0020850968156 0.0027118896807 0.0026433235078 0.0023939570701 0.0023393282417 0.0022865138746 0.0022354449573 0.0021860566913 0.0021382854108 
0.0020920690402 0.0020473466299 0.0026687396818 0.0026019780424 0.0023445548356 0.0022918614446 0.0022409053944 0.0021916192497 0.002143941382 
0.0020978111707 0.0020531685287 0.0020099526224 0.0026318759477 0.0025665846029 0.0023234168787 0.0022799249105 0.0022366958527 0.0021937755887 
0.0021512128278 0.0021090572906 0.0020673596249 0.0020261703091 0.0025907805896 0.0025271197368 0.0022913868969 0.0022487231981 0.0022063593473 
0.0021643377437 0.0021227033215 0.0020815014606 0.0020407786306 0.0020005814193 0.0025500641596 0.002488025836 0.0022603838944 0.0022185039466 
0.0021769596884 0.00213579007 0.0020950367183 0.002054740751 0.002014944481 0.0019756907073 0.0025097431176 0.0024493206795 0.0022303032636 
0.0021891681383 0.0021484035599 0.0021080448175 0.0020681302541 0.0020286981408 0.00198978596 0.0019514306551 0.0031112182088 0.0030290768207 
0.0027985198604 0.0027323661753 0.0026683568864 0.0026064168493 0.002546485561 0.0024884940923 0.0024323796961 0.0023780783289 0.0030647495896 
0.0029847698916 0.0027461237369 0.0026819487947 0.0026198404939 0.0025597266727 0.0025015435474 0.0024452260913 0.0023907138348 0.0023379453064 
0.003018360679 0.0029404988943 0.0026939327943 0.0026317461965 0.0025715420761 0.002513255704 0.0024568232037 0.0024021832675 0.0023492768748 
0.0022980450459 0.0029720366969 0.002896258652 0.0026419947273 0.002581796396 0.002523500169 0.0024670433415 0.002412364903 0.0023594060112 
0.0023081091981 0.0022584178378 0.0029257991756 0.0028520376241 0.0025903456882 0.0025321398516 0.0024757544589 0.002421130058 0.0023682090092 
0.0023169342335 0.0022672507111 0.0022191034123 0.0028796351632 0.002807796358 0.0025390181664 0.0024828073215 0.002428336177 0.0023755483621 
0.0023243879108 0.002274801156 0.0022267339413 0.0021801341113 0.0028412680768 0.0027710665381 0.0025146356826 0.0024673529967 0.0024204115271 
0.0023738587923 0.0023277447794 0.0022821198131 0.0022370345158 0.0021925410762 0.0027970399969 0.0027285899786 0.0024801427618 0.0024337618725 
0.0023877561288 0.0023421693269 0.002297047718 0.0022524381493 0.0022083869973 0.0021649431772 0.0027532034983 0.0026864950079 0.0024466693998 
0.0024011452965 0.0023560297798 0.0023113627242 0.002267187094 0.0022235458398 0.0021804821428 0.0021380383256 0.002709798256 0.002644824399 
0.0024141321817 0.0023694256887 0.0023251597778 0.0022813713621 0.0022380999719 0.0021953847895 0.0021532642727 0.0021117778146 0.0033334463264 
0.0032458040184 0.0030003577751 0.0029304387209 0.0028626776739 0.0027970174875 0.0027333961946 0.0026717551126 0.002612036368 0.0025541850919 
0.0032840436934 0.0031986706092 0.0029459984677 0.0028781227192 0.002812328112 0.002748551382 0.0026867332439 0.0026268193304 0.0025687535199 
0.0025124828841 0.0032347283991 0.0031515935957 0.0028918842596 0.0028260596988 0.002762229135 0.0027003351775 0.0026403217942 0.0025821360819 
0.0025257247037 0.0024710360962 0.003185496063 0.0031045511959 0.0028380516539 0.0027742761696 0.0027124107405 0.0026524008009 0.0025941932463 
0.0025377366665 0.0024829811496 0.0024298763597 0.0031363465042 0.0030575229749 0.002784528539 0.0027228029869 0.0026629035459 0.0026047788813 
0.002548378099 0.0024936524577 0.0024405530652 0.0023890333997 0.0030872540099 0.0030104622149 0.0027313394009 0.0026716662476 0.0026137349777 
0.0025574962556 0.0025029030769 0.0024499089173 0.0023984676361 0.0023485332708 0.0030476064506 0.0029726541893 0.0027044564367 0.0026533879806 
0.0026027371373 0.0025525539648 0.0025028895955 0.002453795665 0.0024053243102 0.0023575278752 0.0030003442524 0.0029272562628 0.0026675468227 
0.0026174502887 0.0025678031663 0.0025186519339 0.0024700437512 0.0024220264424 0.0023746489923 0.0023279588824 0.002953488682 0.0028822563845 
0.0026316515178 0.0025824830783 0.00253379479 0.0024856293627 0.0024380309022 0.0023910435535 0.0023447126841 0.0022990807252 0.0029070954063 
0.0028377097489 0.0025967017774 0.0025484217523 0.0025006515915 0.0024534310275 0.0024068007355 0.0023608014536 0.0023154735797 0.0022708563126 
0.0035518557384 0.0034588810519 0.0031997485023 0.003126129277 0.0030546818799 0.0029853592 0.0029181051453 0.0028528689998 0.002789601768 
0.0027282537557 0.0034996009992 0.0034089967451 0.0031434852108 0.0030719716591 0.0030025502817 0.0029351658524 0.0028697691999 0.0028063112133 
0.0027447455547 0.0026850243671 0.0034474380388 0.0033591784631 0.0030875030097 0.0030180998544 0.002950699143 0.002885252005 0.0028217110848 
0.0027600301061 0.002700165043 0.0026420701308 0.0033953690212 0.0033094037935 0.003031832148 0.0029645354135 0.0028991543056 0.0028356425952 
0.0027739565122 0.0027140519515 0.0026558860746 0.0025994161783 0.0033433840518 0.0032596294742 0.0029764951603 0.0029113034453 0.0028479409735 
0.0027863642502 0.0027265312799 0.0026684013336 0.002611933955 0.0025570881054 0.0032914423365 0.003209843712 0.0029215137994 0.0028584271427 
0.0027970821852 0.002737439026 0.0026794583718 0.0026231018331 0.00256833139 0.0025151081807 0.0032507269967 0.0031711920991 0.0028928236125 
0.0028379700922 0.0027836104317 0.0027297960024 0.0026765803795 0.0026240168399 0.0025721592549 0.0025210599211 0.0032005210384 0.0031229567656 
0.0028535314603 0.0027997194691 0.0027464297788 0.0026937122276 0.0026416153539 0.0025901894591 0.0025394838948 0.002489547924 0.0031507396551 
0.0030751368422 0.0028152509906 0.0027624357837 0.0027101721344 0.0026585057208 0.0026074817124 0.0025571469768 0.0025075470784 0.0024587275236 
0.0031014474959 0.0030277972824 0.0027779217898 0.0027260644912 0.0026747862333 0.0026241292026 0.0025741365401 0.0025248508731 0.0024763147317 
0.0024285679103 0.0037662667652 0.0036681491491 0.0033966462968 0.0033193864054 0.0032443096441 0.0031713772848 0.003100542435 0.0030317628972 
0.0029649964746 0.0029002017067 0.0037112302326 0.0036155890062 0.0033385433812 0.0032634502958 0.0031904551493 0.0031195146615 0.0030505879642 
0.0029836358037 0.0029186175264 0.0028554938196 0.0036563111874 0.0035631038464 0.0032807603488 0.0032078307697 0.0031369098648 0.003067957918 
0.0030009361326 0.0029358073393 0.0028725339425 0.0028110783334 0.0036014961701 0.0035106715323 0.0032233157736 0.0031525465801 0.0030836968338 
0.0030167294031 0.002951608905 0.0028883002533 0.0028267683054 0.0027669775715 0.0035467671261 0.0034582451776 0.0031662317618 0.0030976199112 
0.0030308374337 0.0029658515975 0.0029026290419 0.0028411370426 0.0027813429591 0.0027232137705 0.0034920860926 0.0034058109904 0.0031095293336 
0.0030430715327 0.0029783534202 0.002915345511 0.0028540171021 0.0027943384204 0.0027362786552 0.0026798075653 0.0034504668723 0.0033665250873 
0.0030796764873 0.003021036457 0.0029629644779 0.0029055158306 0.0028487458411 0.0027927098816 0.0027374629627 0.0026830600925 0.0033974044162 
0.0033155331015 0.0030380301165 0.0029804988665 0.0029235633673 0.0028672744833 0.0028116852725 0.0027568471583 0.0027028114797 0.0026496284034 
0.0033447844962 0.0032649746016 0.0029973925168 0.0029409262343 0.0028850818144 0.0028299084384 0.0027754547362 0.002721768748 0.0026688980638 
0.0026168891385 0.0032926782813 0.0032149209819 0.0029577107935 0.0029022695052 0.0028474764168 0.002793377573 0.0027400179737 0.0026874422486 
0.0026356944355 0.0025848171508 0.0039765065639 0.0038734473919 0.0035910154023 0.0035101623706 0.0034315083448 0.0033550140299 0.0032806451569 
0.0032083676576 0.0031381476241 0.0030699508704 0.0039187897881 0.0038182914559 0.0035311466982 0.0034525191075 0.0033759959477 0.003301544296 
0.0032291321307 0.0031587281215 0.0030903004792 0.0030238170302 0.0038612012877 0.0037632232069 0.0034716293408 0.003395218205 0.0033208201944 
0.0032484052206 0.0031779440782 0.0031094078363 0.0030427669334 0.0029779918586 0.0038037330856 0.0037082185418 0.003412480853 0.0033382807317 
0.0032660021259 0.0031956181147 0.0031271023769 0.0030604282081 0.0029955686182 0.0029324961102 0.0037463583052 0.003653229603 0.0033537220858 
0.0032817272513 0.0032115625152 0.0031432038173 0.0030766275331 0.0030118097298 0.0029487258054 0.0028873505357 0.0036890405865 0.0035982397367 
0.0032953727578 0.0032255776276 0.0031575209238 0.0030911818438 0.0030265391766 0.0029635718892 0.0029022580849 0.0028425740067 0.0036466665648 
0.003558501352 0.003264953888 0.0032025213382 0.0031407310888 0.0030796416677 0.0030193108193 0.0029597969862 0.0029011568536 0.0028434461971 
0.0035908332405 0.0035048318366 0.0032209762068 0.0031597185508 0.0030991287016 0.0030392622568 0.0029801740406 0.0029219180104 0.0028645475971 
0.0028081146717 0.0035354603581 0.0034516140138 0.0031780044541 0.0031178780395 0.0030584448999 0.0029997571627 0.0029418664117 0.0028848232336 
0.0028286771518 0.0027734767339 0.0034806249256 0.0033989242428 0.0031359913545 0.0030769567867 0.003018640473 0.0029610910116 0.0029043564529 
0.0028484848253 0.0027935215087 0.0027395113994 0.0041824171331 0.004074627568 0.0037828237319 0.0036984243969 0.0036162311827 0.003536215651 
0.0034583525685 0.0033826164435 0.0033089822445 0.0032374238151 0.0041221203215 0.0040169622092 0.003721263457 0.0036391410104 0.0035591287995 
0.0034812035432 0.0034053430422 0.0033315243376 0.0032597244252 0.0031899196908 0.0040619681001 0.0039594036493 0.003660085195 0.0035802290914 
0.0035023896535 0.0034265468937 0.003352680981 0.0032807719369 0.0032107988464 0.0031427403189 0.0040019455506 0.0039019075322 0.0035993066883 
0.0035217088163 0.0034460343077 0.0033722659141 0.0033003867726 0.0032303793843 0.0031622255739 0.0030959058672 0.0039420175528 0.0038444614374 
0.0035389479843 0.0034636004723 0.0033900826337 0.0033183807251 0.0032484803956 0.0031803668346 0.0031140243157 0.0030494355138 0.003882182432 
0.0037870143539 0.0034790283609 0.0034059233158 0.0033345542292 0.0032649104844 0.0031969807177 0.0031307526651 0.0030662132294 0.0030033474735 
0.0038391708038 0.0037469727419 0.003448592987 0.0033823574631 0.0033168386436 0.0032520985339 0.0031881982521 0.0031251981465 0.0030631577681 
0.0030021346903 0.0037806519475 0.0036907044666 0.0034023027692 0.0033373068831 0.0032730523603 0.0032095976674 0.0031470008033 0.0030853187379 
0.0030246070432 0.0029649194453 0.0037226114938 0.0036349059844 0.0033570159996 0.0032932170814 0.0032301831825 0.0031679703441 0.0031066327871 
0.0030462241432 0.0029867962781 0.0029283993305 0.0036651311145 0.0035796589502 0.0033126902588 0.0032500488268 0.0031881962476 0.0031271847154 
0.0030670660805 0.0030078898622 0.0029497048093 0.0028925576185 0.0043838869253 0.0042710770594 0.0039723933158 0.0038838074253 0.0037977875591 
0.0037142218802 0.0036330094678 0.0035540595193 0.0034772920277 0.0034026363905 0.0043209800766 0.0042106591058 0.0039091101147 0.0038228302894 
0.0037390269506 0.0036575901217 0.0035784207122 0.0035014297821 0.003426538624 0.0033536782518 0.0042583523841 0.0041504970155 0.003846069779 
0.0037621096649 0.0036805346611 0.0036012371703 0.0035241196768 0.0034490951226 0.0033760865579 0.0033050261462 0.0041960613382 0.0040906217106 
0.0037832903275 0.0037016652846 0.0036223325992 0.0035451865803 0.003470131901 0.0033970831529 0.0033259648308 0.0032567108826 0.0041341473833 
0.0040311008911 0.003720793048 0.0036415206285 0.0035644458826 0.003489465337 0.0034164858343 0.0033454239053 0.0032762055041 0.0032087662203 
0.0040726889245 0.0039719709986 0.0036586029034 0.0035817019539 0.0035069025375 0.0034341034135 0.0033632134151 0.0032941509361 0.0032268438558 
0.0031612288492 0.0040235829541 0.0039270988485 0.0036315001447 0.0035596118481 0.0034891821387 0.0034201584548 0.0033524955895 0.0032861548325 
0.003221104699 0.0031573193106 0.003963338328 0.0038693934889 0.0035828522836 0.0035124181119 0.0034434203043 0.0033758078607 0.0033095369794 
0.003244570648 0.0031808778253 0.0031184339515 0.0039035504647 0.0038120888094 0.0035351831129 0.0034661684202 0.0033985676337 0.0033323315194 
0.0032674178016 0.003203790554 0.0031414200637 0.0030802828514 0.0038442661477 0.0037552335691 0.0034884450421 0.0034208174477 0.0033545811937 
0.0032896888427 0.0032260993876 0.0031637782797 0.0031026971872 0.0030428339012 0.0045804435417 0.004463476508 0.0041607058792 0.0040678525566 
0.0039777561696 0.0038902970284 0.0038053661201 0.0037228645014 0.0036427027411 0.0035648009791 0.0045152076985 0.0044008385532 0.0040957085796 
0.004005225203 0.0039174067187 0.0038321357087 0.0037493047777 0.0036688167802 0.0035905839004 0.003514527453 0.0044502509677 0.0043384376577 
0.0040309439867 0.0039428454222 0.0038573181748 0.0037742469758 0.0036935264497 0.003615060826 0.0035387641653 0.0034645593836 0.0043856096581 
0.0042763369972 0.0039664305033 0.0038807335823 0.0037975126871 0.0037166546966 0.0036380563734 0.0035616239019 0.0034872725911 0.003414927144 
0.0043213573952 0.0042145687403 0.0039021901577 0.0038189130125 0.0037380152138 0.0036593856879 0.0035829234587 0.003508536246 0.0034361412901 
0.0033656645016 0.0042575351826 0.0041531765177 0.0038382476132 0.0037574103824 0.0036788540702 0.0036024700241 0.0035281591314 0.0034558311214 
0.0033854048472 0.0033168078428 0.0042079102586 0.0041075997019 0.0038140074291 0.0037374638965 0.0036625882084 0.0035893234261 0.0035176194299 
0.003447431945 0.0033787237791 0.0033114627723 0.0041451391496 0.0040474466867 0.0037629116361 0.0036879451762 0.0036146178427 0.0035428745478 
0.0034726661959 0.0034039503583 0.0033366904407 0.0032708555211 0.0040828504358 0.0039877222855 0.0037127756345 0.0036393516135 0.0035675381893 
0.0034972813603 0.0034285342184 0.0033612550508 0.0032954086279 0.0032309653055 0.004021094198 0.0039284784251 0.003663557824 0.003591643975 
0.0035213114897 0.0034525087698 0.0033851896855 0.0033193143779 0.0032548488235 0.0031917642919 0.0047723859356 0.0046515054657 0.0043459161047 
0.0042489124639 0.0041548472773 0.0040635937845 0.0039750350798 0.0038890640097 0.0038055822255 0.003724500627 0.0047049412431 0.0045867560967 
0.0042792838424 0.0041847098382 0.0040929802717 0.0040039704346 0.0039175651632 0.0038336590126 0.0037521552422 0.0036729660821 0.0046377688398 
0.0045222368498 0.0042128721867 0.0041207442115 0.0040313648777 0.0039446115496 0.0038603714286 0.0037785404521 0.0036990234429 0.0036217344149 
0.0045709024558 0.0044580076468 0.0041467006776 0.0040570362491 0.003970023435 0.0038855416746 0.0038034797876 0.003723735818 0.0036462163769 
0.0035708366341 0.0045044120853 0.0043940975789 0.0040807911942 0.0039936099043 0.0039089813399 0.0038267875194 0.0037469190302 0.0036692757484 
0.0035937657692 0.0035203059658 0.0044383365337 0.0043305654095 0.0040151691463 0.0039304920737 0.003848267434 0.0037683794462 0.0036907207275 
0.0036151930656 0.003541706236 0.0034701785375 0.0043879724692 0.0042840217545 0.003993780748 0.0039126822565 0.0038334543172 0.0037560358051 
0.003680371397 0.0036064119525 0.0035341139061 0.0034634399083 0.0043228028229 0.0042215421495 0.0039403113475 0.0038609090036 0.0037833422966 
0.003707551592 0.0036334832554 0.0035610891256 0.0034903275542 0.0034211614152 0.0042581379207 0.0041595159464 0.0038877812018 0.0038100404692 
0.0037341005214 0.003659903063 0.0035873960739 0.0035165331926 0.0034472733931 0.0033795808559 0.0041940303135 0.0040979974149 0.0038361534822 
0.0037600421053 0.0036856962994 0.0036130594349 0.0035420814161 0.0034727168685 0.0034049261021 0.0033386747384 0.004959573317 0.0048350204278 
0.0045278482874 0.0044268164903 0.0043288962242 0.0042339541109 0.0041418653267 0.0040525142621 0.0039657942283 0.0038816070906 0.0048900397188 
0.0047682602747 0.0044596611997 0.0043611150439 0.0042655842623 0.0041729374962 0.004083052069 0.0039958140523 0.0039111179991 0.0038288675728 
0.0048207561335 0.0047017420432 0.0043916816719 0.0042956382369 0.0042025128279 0.0041121758655 0.0040245069237 0.0039393934975 0.0038567321461 
0.00377642753 0.0047517885254 0.0046354912792 0.0043239291927 0.004230407505 0.0041397050387 0.0040516942411 0.0039662562686 0.0038832807854 
0.003802665812 0.0037243173826 0.0046831720349 0.0045695633957 0.0042564265127 0.0041654474077 0.004077186983 0.0039915197628 0.0039083289928 
0.0038275061376 0.0037489508462 0.0036725708358 0.0046149529841 0.0045039580951 0.004189199417 0.0041007848995 0.0040149870207 0.0039316825054 
0.0038507565463 0.003772102454 0.0036956216681 0.0036212234287 0.0045636678393 0.0044562642365 0.0041706396223 0.0040850903827 0.0040016080149 
0.0039201270301 0.0038405877942 0.0037629359863 0.0036871224796 0.0036131039065 0.0044962257037 0.0043915775986 0.0041148718954 0.0040311338481 
0.0039494217673 0.0038696718073 0.0037918257002 0.003715830213 0.0036416381041 0.0035692064387 0.0044293071389 0.0043273657815 0.0040600208483 
0.00397805976 0.0038980837317 0.0038200304391 0.0037438429034 0.0036694699741 0.0035968649305 0.0035259862419 0.0043629675764 0.0042636854988 
0.0040060549403 0.0039258384261 0.0038475659116 0.0037711764702 0.0036966154834 0.0036238323908 0.0035527820246 0.0034834240212 0.0051418882659 
0.0050138856744 0.0047063366534 0.004601404298 0.0044997487775 0.0044012295194 0.0043057145542 0.0042130803351 0.0041232114082 0.0040360011409 
0.0050703792162 0.0049452451228 0.0046366764084 0.0045342811632 0.0044350652435 0.0043388897163 0.0042456248746 0.0041551484789 0.0040673470121 
0.0039821148192 0.0049991096834 0.0048768250816 0.0045672086212 0.0044673693566 0.0043706102413 0.0042767945952 0.004185794116 0.0040974887114 
0.0040117662376 0.0039285225675 0.0049281428968 0.004808659471 0.0044979539828 0.004400691043 0.0043064074894 0.0042149689391 0.0041262488539 
0.004040128888 0.0039564986752 0.0038752555117 0.0048575111298 0.0047407997053 0.0044289355848 0.0043342706002 0.0042424829027 0.0041534401539 
0.0040670178682 0.0039830994909 0.0039015762448 0.003822346964 0.0047872757528 0.0046732438853 0.0043601793522 0.004268135484 0.0041788652918 
0.0040922386171 0.0040081329342 0.0039264335365 0.0038470332755 0.0037698325848 0.0047349077886 0.0046242396902 0.0043444117299 0.004254518897 
0.0041668835286 0.0040814362095 0.0039981125487 0.0039168532286 0.0038376039495 0.0037603150495 0.0046653169493 0.00455746325 0.0042864215197 
0.0041984514237 0.004112692056 0.0040290755238 0.0039475388622 0.0038680240998 0.0037904779426 0.0037148524518 0.0045962657526 0.0044911802667 
0.0042293239976 0.0041432425285 0.0040593251029 0.0039775052602 0.0038977216474 0.003819917378 0.0037440410303 0.0036700450917 0.0045278115522 
0.0044254491599 0.0041730922342 0.0040888671095 0.0040067592034 0.0039267037475 0.0038486406049 0.0037725149378 0.0036982759772 0.0036258776089 
0.005319220311 0.0051880101684 0.0048812256834 0.0047725248341 0.0046672587174 0.0045652802001 0.0044664497338 0.0043706359502 0.0042777151203 
0.0041875716852 0.0052458406025 0.005117587076 0.0048101741713 0.0047040585779 0.0046012787571 0.0045016891359 0.0044051520405 0.0043115377905 
0.0042207244332 0.0041325976124 0.0051727086702 0.0050473725431 0.0047392992905 0.0046357890793 0.0045355140173 0.004438330415 0.0043441025912 
0.0042527025177 0.0041640098328 0.0040779115875 0.0050998542849 0.004977415356 0.0046686221183 0.004567738735 0.0044699884147 0.0043752295349 
0.0042833282604 0.0041941583129 0.0041076009026 0.0040235446228 0.0050273178175 0.0049077097167 0.0045981662386 0.0044999325715 0.0044047284608 
0.004312414348 0.0042228582912 0.004135935794 0.0040515296225 0.003969529986 0.0049551567461 0.0048383056372 0.004527957944 0.0044323982735 