# vtk DataFile Version 5.1
vtk output
ASCII
DATASET STRUCTURED_POINTS
DIMENSIONS 10 10 20
SPACING 0.1 0.1 0.1
ORIGIN 3.25 -0.45 0.55
POINT_DATA 2000
FIELD FieldData 1
potential 1 2000 double
0.00093191133686 0.00091259339086 0.00088042004642 0.00086145271647 0.00084323250842 0.00082571925757 0.00080888025115 0.00079268290835 0.00077709048694 
0.00076204921156 0.00091799256826 0.00089910865324 0.00086598145986 0.00084733602851 0.00082943751338 0.00081224066271 0.00079571581589 0.00077983017499 
0.0007645432597 0.00074980305248 0.00090384253924 0.00088538960714 0.00085114287146 0.00083283462448 0.00081527128439 0.00079841147122 0.00078221846124 
0.00076665903456 0.00075169193199 0.00073726902344 0.00089025815075 0.00087220560457 0.00083666441263 0.00081869580145 0.00080147573818 0.0007849567238 
0.00076910276413 0.00075387633918 0.00073923727984 0.00072513994787 0.00087773396747 0.00086004921296 0.00082302896198 0.00080539644353 0.00078851327646 
0.00077233538179 0.00075682013364 0.0007419311644 0.00072762516477 0.00071385929506 0.00086648756583 0.00084913272781 0.00081044656824 0.00079314055168 
0.00077658893274 0.00076074586406 0.00074556880322 0.00073101829463 0.0007170495284 0.00070362006855 0.00085644354611 0.00083836192166 0.00081413589071 
0.00079868372713 0.00078355155204 0.00076873572849 0.00075423266466 0.00074003770438 0.00072613978976 0.00071253230391 0.00085033882873 0.00083250673955 
0.0008084289947 0.00079314845924 0.00077819684738 0.00076357604861 0.00074928445201 0.00073531624627 0.00072165585199 0.00070829142856 0.00084480048736 
0.00082721622932 0.0008034368648 0.00078831196264 0.00077352545588 0.00075908075515 0.00074498152167 0.0007312215501 0.00071778056299 0.00070463877976 
0.00083907643052 0.00082175999375 0.00079842216362 0.00078345957887 0.00076884165611 0.00075457623222 0.00074066834052 0.00072711069381 0.00071387963003 
0.00070094952172 0.0010909583769 0.0010680265768 0.001034033147 0.0010117304939 0.00099029410241 0.00096967722083 0.00094983340147 0.00093072689201 
0.0009123129475 0.00089454694933 0.0010764240714 0.0010539568443 0.0010190721148 0.00099712384919 0.00097603858668 0.00095576676328 0.00093626848558 
0.0009175003073 0.00089941928663 0.00088198073611 0.0010617183279 0.0010397150489 0.001003779859 0.00098220412739 0.00096148658919 0.00094158133637 
0.00092244390979 0.00090403124051 0.00088630050444 0.0008692075288 0.001047311044 0.0010257520972 0.00098860228386 0.00096740828727 0.00094707163357 
0.00092754333546 0.00090877850368 0.00089073334586 0.00087336462765 0.00085662956025 0.0010335367276 0.0010124025067 0.00097386684011 0.00095306035357 
0.00093310870681 0.00091396390801 0.00089557880102 0.00087790971204 0.00086091307295 0.00084454443715 0.0010205680841 0.0009998324691 0.00095973676796 
0.00093932092667 0.00091975898779 0.00090100126549 0.00088300224855 0.00086571664619 0.00084909861646 0.00083310507269 0.0010089106134 0.00098769170688 
0.00096018585613 0.00094179660845 0.00092382073817 0.00090624784772 0.00088907054904 0.00087228117372 0.00085587080639 0.00083983212238 0.0010001309773 
0.00097924937687 0.00095201115565 0.00093387776635 0.00091616231385 0.00089885832177 0.00088195790102 0.00086545211092 0.00084933024101 0.00083358318693 
0.00099167238379 0.00097113066536 0.00094431233379 0.00092642172889 0.00090895465299 0.00089190499421 0.00087526609891 0.00085902939729 0.00084318123089 
0.00082770891691 0.00098309414665 0.0009629066589 0.00093664643994 0.00091899749635 0.00090177728494 0.00088497901358 0.00086859802232 0.0008526233502 
0.00083704042517 0.00082183281309 0.0012497535487 0.0012232341516 0.001187530483 0.0011619223939 0.0011372915131 0.0011135857906 0.0010907541573 
0.0010687552436 0.0010475417264 0.0010270697495 0.0012341124878 0.0012081001148 0.0011715739291 0.001146362087 0.0011221212095 0.0010987990406 
0.0010763494084 0.0010547246509 0.0010338785291 0.0010137666845 0.0012183753946 0.0011928679715 0.0011553639775 0.0011305651583 0.0011067332133 
0.0010838159207 0.0010617642741 0.001040530904 0.0010200695217 0.001000335442 0.0012028154352 0.0011778035865 0.0011391582269 0.0011147891588 
0.001091380692 0.0010688813968 0.0010472411623 0.0010264121307 0.0010063495199 0.00098700779457 0.0011876403366 0.0011631111199 0.0011231646722 
0.0010992342957 0.0010762608982 0.0010541906835 0.0010329740064 0.0010125619874 0.00099290946882 0.00097397153879 0.0011729699036 0.0011489046648 
0.0011074897493 0.001084011365 0.0010614826072 0.0010398517695 0.001019069527 0.00099908627763 0.00097985487848 0.00096133020702 0.0011599494161 
0.001135626853 0.0011049750861 0.0010836874168 0.0010629007487 0.0010426022206 0.0010227822465 0.0010034289919 0.0009845336977 0.00096608932282 
0.0011488457953 0.0011249375479 0.0010946656751 0.0010737040002 0.0010532469294 0.0010332803848 0.0010137947493 0.00099477812021 0.00097622136739 
0.00095811415416 0.001137951869 0.0011144616923 0.0010847203788 0.0010640743778 0.0010439329228 0.0010242857577 0.001005121798 0.00098642964484 
0.00096819671429 0.00095041218358 0.001127011766 0.0011039488111 0.0010748724133 0.0010545365216 0.0010347071834 0.0010153730143 0.00099652449957 
0.00097814783264 0.00096023011768 0.00094275886389 0.0014079033649 0.0013778351832 0.0013405044912 0.0013116250048 0.0012838283832 0.0012570589763 
0.0012312636064 0.0012063964204 0.0011824071658 0.001159250731 0.0013909023412 0.0013613891324 0.0013233029714 0.0012948656308 0.0012675043384 
0.0012411622544 0.0012157897065 0.0011913357444 0.0011677527905 0.0011449940518 0.0013738642573 0.001344906368 0.0013059094341 0.0012779308907 
0.0012510234526 0.0012251291057 0.0012001956529 0.0011761720178 0.0011530113477 0.0011306664002 0.0013569481029 0.0013285381452 0.001288469534 
0.0012609703453 0.0012345325741 0.001209100462 0.0011846205467 0.001161042944 0.0011383195907 0.0011164019681 0.0013402769652 0.0013124066585 
0.0012711097863 0.0012441036245 0.001218150595 0.0011931942072 0.0011691831839 0.0011460656074 0.0011237918133 0.0011023155022 0.0013239270442 
0.0012965820106 0.0012538978104 0.0012273994287 0.0012019451527 0.0011774800781 0.001153951627 0.0011313064197 0.001109496147 0.001088472849 
0.0013097056398 0.0012823158492 0.0012486525379 0.0012245013144 0.0012009359608 0.0011779423785 0.0011555067182 0.0011336169879 0.0011122632622 
0.0010914363149 0.0012965124848 0.0012696068245 0.001236427373 0.0012126658446 0.0011894903059 0.0011668849361 0.0011448371342 0.0011233344342 
0.0011023658491 0.0010819202193 0.0012834769386 0.001257057908 0.0012245138002 0.0012011301996 0.0011783319123 0.0011561032122 0.0011344316895 
0.0011133036673 0.0010927067649 0.001072629144 0.0012704535551 0.0012445277679 0.0012127488872 0.0011897371622 0.0011673095714 0.0011454502267 
0.0011241458604 0.0011033836174 0.001083148199 0.00106342881 0.0015651345805 0.0015315653301 0.0014926700386 0.0014605570036 0.0014296292149 
0.0013998285406 0.0013710992143 0.0013433918341 0.0013166554721 0.0012908409449 0.0015466448068 0.00151368434 0.0014740925103 0.001442470636 
0.0014120242278 0.0013826976362 0.0013544354981 0.0013271839482 0.0013008935545 0.0012755145333 0.0015281614555 0.0014958095493 0.0014553659581 
0.0014242520498 0.0013943077088 0.0013654733661 0.0013376930027 0.0013109134814 0.0012850852796 0.0012601580676 0.0015097735739 0.0014780246445 
0.0014365715384 0.0014059869056 0.0013765607611 0.0013482346826 0.0013209521508 0.0012946613651 0.0012693098799 0.0012448488749 0.0014915569042 
0.0014604040896 0.0014177838503 0.0013877452185 0.0013588533669 0.0013310518646 0.0013042834084 0.0012784948183 0.00125363506 0.0012296533471 
0.0014735515501 0.0014429833645 0.0013990430442 0.001369567344 0.0013412277622 0.0013139666471 0.0012877278022 0.001262457074 0.0012381027718 
0.0012146148074 0.0014582220158 0.0014278065265 0.0013912694448 0.0013642884775 0.001337976253 0.0013123162919 0.0012872934307 0.0012628940287 
0.001239106905 0.0012159211617 0.0014430920199 0.001413223967 0.001377270165 0.0013507368908 0.0013248693955 0.0012996513469 0.0012750666855 
0.001251102048 0.0012277448531 0.0012049826247 0.0014280962351 0.0013987783486 0.0013635579245 0.0013374611827 0.0013120271307 0.0012872387293 
0.001263080209 0.0012395378416 0.0012165979141 0.0011942475088 0.0014131560858 0.0013843930545 0.0013500335437 0.0013243654149 0.0012993562333 
0.0012749888781 0.0012512477592 0.0012281175228 0.0012055840954 0.0011836345375 0.001721243679 0.0016842324654 0.0016438158967 0.0016085103619 
0.0015744893975 0.0015416919715 0.0015100646578 0.0014795511429 0.0014500986383 0.0014216565635 0.0017012078384 0.0016648625116 0.0016237970186 
0.0015890326229 0.0015555415477 0.0015232670565 0.0014921497423 0.0014621353989 0.001433170386 0.0014052037554 0.0016812093611 0.0016455255544 
0.0016036577199 0.0015694523845 0.0015365123131 0.0015047755134 0.0014741849898 0.0014446861803 0.0014162243375 0.0013887478201 0.001661295484 
0.0016262703595 0.0015834424023 0.0015498176436 0.0015174447713 0.0014862631259 0.0014562163421 0.0014272477922 0.0013993043634 0.0013723329867 
0.0016415114506 0.0016071395217 0.0015631952022 0.0015301679044 0.0014983799973 0.0014677712764 0.0014382839795 0.0014098621467 0.0013824517143 
0.0013559996072 0.0016218784487 0.0015881455744 0.0015429376249 0.0015105269778 0.0014793422726 0.0014493237767 0.0014204125346 0.0013925528633 
0.0013656907429 0.0013397722778 0.0016054809303 0.0015720863729 0.0015328203871 0.001503043242 0.0014740158549 0.0014457197748 0.0014181375328 
0.0013912554394 0.0013650599688 0.0013395394043 0.0015885136586 0.0015557264341 0.0015171389986 0.0014878641347 0.0014593341111 0.0014315301232 
0.0014044344903 0.0013780325585 0.001352310411 0.0013272553221 0.0015716737902 0.0015394963349 0.0015017345225 0.0014729516201 0.0014449074739 
0.0014175835105 0.001390962101 0.0013650280089 0.001339766804 0.0013151643413 0.001554922028 0.0015233581056 0.0014865466869 0.0014582464694 
0.0014306788765 0.0014038253783 0.0013776683492 0.0013521920512 0.0013273810598 0.0013032213873 0.0018760703954 0.0018356874504 0.0017937758351 
0.0017553207575 0.0017182478754 0.0016824949979 0.0016480060654 0.0016147226512 0.0015825896201 0.0015515541667 0.0018544701035 0.0018148069891 
0.0017722864481 0.0017344233245 0.0016979294116 0.0016627465873 0.0016288128623 0.0015960725342 0.0015644691638 0.0015339496676 0.0018329307381 
0.0017939843464 0.0017506951126 0.0017134431989 0.0016775493907 0.0016429512995 0.0016095902967 0.0015774083361 0.0015463494412 0.0015163602143 
0.0018114733587 0.0017732431063 0.0017290298257 0.0016924079863 0.0016571306812 0.0016231354853 0.0015903631741 0.0015587556137 0.0015282565236 
0.0014988119244 0.001790123744 0.001752604591 0.0017073111132 0.0016713389314 0.0016366966316 0.0016033216864 0.0015711547061 0.0015401375734 
0.0015102138529 0.0014813286489 0.0017688956455 0.0017320726593 0.0016855512558 0.0016502484556 0.0016162603279 0.0015835234877 0.0015519788113 
0.0015215685143 0.0014922358399 0.0014639243855 0.0017514284802 0.0017151066776 0.0016732665976 0.001640728433 0.0016090178739 0.001578115322 
0.0015480034236 0.0015186661243 0.0014900888066 0.0014622574757 0.0017326938535 0.0016970360079 0.0016559642029 0.0016239813095 0.0015928187529 
0.0015624566173 0.0015328772714 0.0015040640811 0.0014760019497 0.0014486768088 0.0017140873983 0.0016790968997 0.0016389368729 0.0016074980887 
0.0015768719451 0.0015470383365 0.0015179796565 0.0014896786152 0.0014621197636 0.0014352887279 0.0016955941885 0.0016612738077 0.0016221473791 
0.0015912429177 0.0015611432534 0.0015318279341 0.0015032792401 0.0014754803712 0.0014484147091 0.0014220663909 0.0020294790428 0.0019858029567 
0.0019424096054 0.0019008504258 0.0018607699811 0.0018221033151 0.0017847931659 0.001748779072 0.0017140044985 0.001680412645 0.0020063212832 
0.0019634209397 0.0019194419831 0.0018785244167 0.0018390730214 0.001801022943 0.0017643143216 0.0017288869536 0.0016946840663 0.0016616489499 
0.001983240501 0.0019411124358 0.0018963870408 0.0018561329678 0.0018173287273 0.0017799118083 0.0017438205499 0.0017089954658 0.0016753790614 
0.001642914606 0.0019602443553 0.0019188893672 0.001873260387 0.0018336874723 0.0017955490277 0.0017587820577 0.0017233249686 0.0016891181262 
0.0016561033788 0.0016242239286 0.0019373501721 0.0018967617963 0.0018500715951 0.0018111999669 0.0017737458747 0.0017376465077 0.0017028406865 
0.0016692681667 0.0016368707485 0.0016055909961 0.0019145611145 0.0018747261614 0.0018268270163 0.0017886760228 0.0017519254298 0.0017165125604 
0.0016823754783 0.0016494544056 0.0016176900023 0.001587025093 0.0018959907441 0.0018567982295 0.0018125530347 0.0017772886861 0.0017429277737 
0.0017094500715 0.0016768376248 0.0016450732406 0.0016141406942 0.0015840256827 0.0018755400957 0.0018370674222 0.0017936725859 0.0017590142461 
0.0017252501336 0.0016923597029 0.0016603245689 0.0016291274794 0.0015987516348 0.0015691829312 0.0018552230653 0.0018174723189 0.0017750695977 
0.001741005557 0.0017078266578 0.0016755117196 0.0016440422906 0.0016134007306 0.0015835703924 0.001554534943 0.0018350397373 0.0017980137117 
0.0017567206396 0.0017232410608 0.0016906369012 0.0016588870618 0.0016279729067 0.0015978764642 0.0015685801128 0.0015400678142 0.0021813494356 
0.0021344682799 0.0020895945716 0.0020449788542 0.0020019340876 0.0019603987192 0.0019203101315 0.0018816076802 0.0018442316749 0.001808125096 
0.0021566549237 0.0021106036496 0.0020651534279 0.0020212294031 0.0019788640833 0.0019379919233 0.0018985496615 0.0018604776823 0.0018237157434 
0.001788206376 0.002132049108 0.0020868281158 0.0020406366455 0.0019974265718 0.0019557572474 0.0019155644797 0.0018767853221 0.0018393592827 
0.0018032262326 0.0017683279352 0.0021075369872 0.0020631439379 0.0020160522101 0.0019735739076 0.0019326190981 0.0018931234947 0.0018550241795 
0.0018182598628 0.0017827709538 0.0017484982701 0.0020831267771 0.0020395553671 0.0019914042488 0.0019496772145 0.001909455579 0.0018706752425 
0.001833272849 0.001797187076 0.0017623571959 0.0017287248792 0.0020588159498 0.0020160543411 0.0019666939429 0.0019257390535 0.0018862705356 
0.0018482236031 0.0018115355892 0.0017761447973 0.0017419905152 0.0017090130905 0.0020390828284 0.0019970823547 0.0019506142463 0.0019126588384 
0.0018756806635 0.0018396595045 0.0018045765313 0.0017704137827 0.001737154436 0.0017047827021 0.0020169568799 0.0019757297783 0.0019301875952 
0.001892886757 0.001856552578 0.0018211645929 0.0017867032644 0.0017531503145 0.0017204890284 0.0016887026676 0.0019949724988 0.0019545216982 
0.0019100424244 0.0018733851278 0.001837683619 0.0018029168012 0.0017690652275 0.0017361102889 0.0017040351408 0.0016728217403 0.0019731399366 
0.0019334668999 0.0018901647844 0.0018541408193 0.0018190613262 0.0017849052561 0.0017516529378 0.0017192856549 0.0016877852711 0.00165713384 
0.0023315673958 0.0022815748754 0.002235218835 0.0021875940618 0.0021416327776 0.0020972734271 0.0020544508269 0.0020131030536 0.001973169844 
0.00193459115 0.0023053687392 0.0022562602566 0.0022093163786 0.0021624336368 0.0021172006127 0.0020735504268 0.0020314199017 0.0019907463354 
0.0019514694398 0.0019135286495 0.0022792684813 0.0022310459226 0.002183348185 0.002137229168 0.0020927405199 0.002049816948 0.0020083945614 
0.0019684107174 0.0019298048297 0.0018925159891 0.0022532710179 0.0022059330944 0.0021573179473 0.0021119807921 0.0020682550753 0.002026075313 
0.0019853780515 0.0019461002161 0.0019081801824 0.0018715573371 0.0022273793622 0.0021809147455 0.002131226146 0.0020866903581 0.0020437466172 
0.0020023292103 0.0019623739179 0.0019238180101 0.0018865996513 0.0018506575398 0.0022015848962 0.0021559942117 0.0021050722107 0.0020613586629 
0.0020192162061 0.0019785794739 0.0019393840665 0.0019015669058 0.0018650659606 0.0018298195752 0.0021806134287 0.0021358728344 0.0020873809033 
0.0020467686111 0.0020072065771 0.0019686736627 0.0019311509217 0.0018946197396 0.0018590627902 0.0018244625524 0.0021568468378 0.0021129319226 
0.0020654319198 0.0020255225943 0.0019866505942 0.0019487958887 0.0019119380818 0.0018760587319 0.0018411396665 0.0018071635647 0.0021332326185 
0.0020901459273 0.0020437706357 0.0020045524005 0.0019663595379 0.001929171065 0.001892966435 0.0018577269829 0.0018234341342 0.0017900703501 
0.0021097865266 0.0020675296849 0.0020223881652 0.0019838512884 0.0019463268208 0.0019097934588 0.001874231279 0.001839620902 0.0018059439149 
0.0017731809312 0.0024800279879 0.0024270276461 0.0023791756571 0.0023285907285 0.0022797609579 0.0022326236488 0.0021871129957 0.0021431660452 
0.0021007204644 0.0020597151188 0.0024523583782 0.0024002993242 0.0023518280477 0.0023020358577 0.0022539822293 0.002207600792 0.0021628271329 
0.0021195983669 0.0020778513493 0.0020375245895 0.0024248020463 0.002373682738 0.0023244260212 0.0022754456514 0.0022281843679 0.0021825761394 
0.0021385559651 0.0020960604435 0.0020550266185 0.0020153923223 0.0023973584277 0.0023471777127 0.0022969671562 0.0022488181705 0.0022023679889 
0.0021575502291 0.0021143001826 0.0020725539281 0.0020322482767 0.0019933206666 0.0023700270476 0.0023207746516 0.0022694508897 0.002222153298 
0.0021765328254 0.0021325239525 0.0020900613302 0.0020490806706 0.002009518576 0.0019713122972 0.0023427990814 0.0022944758833 0.0022418761512 
0.0021954502016 0.0021506791341 0.0021074975385 0.0020658398013 0.0020256416708 0.0019868390781 0.0019493692747 0.002320488244 0.002273079974 
0.0022227801817 0.0021795458553 0.00213743273 0.0020964204227 0.0020564891721 0.0020176200822 0.0019797947762 0.0019429958136 0.0022951130808 
0.0022485816775 0.0021993293441 0.0021568448423 0.0021154679768 0.0020751773305 0.0020359537416 0.0019977776727 0.0019606304066 0.0019244934713 
0.0022699022139 0.0022242501549 0.0021761725835 0.002134426532 0.0020937736997 0.0020541935971 0.0020156660041 0.0019781712043 0.0019416900765 
0.001906203872 0.0022448751498 0.0022001041047 0.0021533056986 0.0021122873364 0.0020723483354 0.002033467912 0.0019956254599 0.0019588009809 
0.0019229751683 0.0018881286946 0.0026266247909 0.0025707289964 0.0025213632126 0.0024678651407 0.0024162164045 0.0023663490274 0.0023181980303 
0.0022716991148 0.0022267887121 0.0021834038237 0.002597527992 0.0025426273889 0.0024925917448 0.0024399371939 0.0023891106028 0.0023400455119 
0.0022926764793 0.0022469390895 0.0022027693062 0.0021601036476 0.0025685558807 0.0025146501566 0.0024637741955 0.002411980585 0.0023619942055 
0.0023137484076 0.0022671776396 0.0022222171306 0.0021788024383 0.0021368700202 0.0025397098232 0.0024867957011 0.002434907217 0.0023839940781 
0.0023348663682 0.0022874574929 0.0022417017766 0.0021975339931 0.0021548895131 0.0021137042517 0.0025109847519 0.0024590535944 0.0024059892902 
0.0023559763744 0.0023077263927 0.0022611725547 0.0022162489438 0.0021728902238 0.0021310314353 0.0020906081496 0.0024823722421 0.0024314244869 
0.0023770183905 0.0023279259972 0.0022805730605 0.0022348928354 0.0021908189748 0.0021482861001 0.0021072291049 0.0020675826979 0.0024586112026 
0.002408612495 0.0023567390922 0.0023109167374 0.0022662858276 0.0022228261633 0.0021805176312 0.0021393415407 0.0020992787132 0.0020603104467 
0.0024316581937 0.0023825864018 0.0023318038106 0.0022867774507 0.0022429272074 0.0022002327933 0.0021586742886 0.002118231881 0.0020788863758 
0.0020406185757 0.0024048824557 0.0023567401107 0.0023071695722 0.0022629276922 0.0022198467678 0.0021779062142 0.0021370858077 0.0020973655373 
0.0020587256944 0.0020211469959 0.0023783067789 0.0023310951027 0.0022828354047 0.002239367462 0.002197045351 0.0021558479379 0.0021157546003 
0.0020767456498 0.0020388006272 0.0020018999397 0.0027712529428 0.002712581042 0.0026616805791 0.002605320195 0.0025508995417 0.0024983507479 
0.002447607909 0.002398605521 0.0023512790554 0.0023055640401 0.0027407749088 0.0026831498904 0.0026315075487 0.0025760391392 0.00252248819 
0.0024707875819 0.0024208714039 0.0023726738667 0.002326129895 0.0022811748312 0.0027104352953 0.0026538590641 0.0026012968175 0.002546738177 
0.002494074778 0.0024432395933 0.0023941662502 0.0023467889749 0.0023010421553 0.0022568607448 0.0026802333762 0.0026246985466 0.002571044974 
0.0025174153405 0.0024656580393 0.0024157057433 0.0023674920167 0.0023209507557 0.0022760162237 0.0022326227835 0.0026501602969 0.0025956700663 
0.0025407498285 0.0024880690606 0.0024372365989 0.0023881853237 0.0023408484215 0.0022951595737 0.0022510527265 0.0022084617845 0.0026202194527 
0.0025667622741 0.0025104089598 0.0024586973956 0.0024088092519 0.0023606773604 0.0023142348315 0.0022694150279 0.0022261516916 0.0021843784159 
0.0025948848298 0.0025423775329 0.0024891836063 0.0024408066197 0.0023936906627 0.0023478157381 0.0023031620394 0.0022597099979 0.0022174405993 
0.0021763343763 0.002566384371 0.0025148529236 0.0024627793273 0.0024152435907 0.0023689525892 0.0023238858437 0.0022800234997 0.0022373457457 
0.0021958328743 0.0021554649783 0.0025380753319 0.0024875221399 0.0024366837795 0.0023899781697 0.0023445005109 0.0023002307324 0.0022571482457 
0.0022152330806 0.0021744650571 0.0021348239746 0.0025099829276 0.0024604096355 0.0024108987327 0.0023650124379 0.0023203377954 0.0022768539036 
0.002234540572 0.0021933770527 0.0021533431252 0.0021144184061 0.0029110718557 0.0028490247095 0.0027987472691 0.0027395998437 0.0026826256027 
0.0026277036883 0.002574720369 0.0025235686444 0.0024741487975 0.0024263675809 0.0028788949849 0.0028179175457 0.0027669838851 0.0027088582884 
0.0026528625988 0.002598877714 0.0025467917146 0.0024964994961 0.0024479028848 0.0024009104698 0.0028468683578 0.0027869648736 0.0027351996539 
0.0026781144103 0.0026231144806 0.0025700828696 0.0025189092841 0.0024694905032 0.0024217302257 0.0023755385177 0.0028150098933 0.0027561754891 
0.0027034054939 0.0026473790244 0.0025933923049 0.0025413301025 0.0024910841581 0.0024425529718 0.0023956418795 0.0023502628574 0.002783331753 
0.0027255722779 0.0026716142577 0.0026166652455 0.002563709075 0.0025126324887 0.0024633292322 0.0024156996966 0.0023696508724 0.0023250965361 
0.0027518604903 0.0026951683532 0.0026398409858 0.0025859877916 0.0025340795273 0.0024840049144 0.0024356595504 0.0023889456904 0.0023437722559 
0.0023000544606 0.0027283074649 0.002673156906 0.0026205401617 0.0025689737945 0.0025189737171 0.0024704754532 0.0024234183902 0.0023777452693 
0.0023334028894 0.0022903408597 0.0026983915428 0.0026442784119 0.0025923679794 0.0025417781183 0.0024927205814 0.0024451319961 0.0023989527325 
0.0023541269414 0.0023106017647 0.0022683279882 0.0026686944618 0.002615612795 0.0025645929068 0.0025149623814 0.0024668305468 0.0024201351708 
0.0023748178751 0.0023308235399 0.002288100422 0.002246600224 0.002639223718 0.0025871671808 0.0025372021812 0.0024885146256 0.0024412924811 
0.0023954748735 0.0023510042305 0.0023078264918 0.0022658910076 0.0022251505663 0.0030511302758 0.0029864990046 0.0029345715527 0.0028727967132 
0.0028132682837 0.0027558654056 0.0027004742981 0.0026469879347 0.0025953058018 0.0025453340107 0.0030176333789 0.0029541277613 0.0029014583625 
0.002840754124 0.002782251301 0.0027258310544 0.0026713812584 0.0026187966973 0.0025679786061 0.0025188346047 0.0029842949265 0.002921911668 
0.0028683328593 0.0028087176107 0.00275125767 0.0026958361289 0.0026423427613 0.0025906738932 0.0025407326614 0.0024924284566 0.0029511252125 
0.0028898715788 0.0028352061623 0.0027766984031 0.0027202986215 0.0026658918364 0.0026133697867 0.0025626307055 0.0025135792267 0.0024661266162 
0.0029181487194 0.0028580187467 0.0028020915861 0.0027447095128 0.0026893871019 0.0026360112231 0.0025844756421 0.002534680221 0.0024865315191 
0.0024399423078 0.0028853794995 0.0028263691881 0.0027690039806 0.0027127659843 0.0026585381215 0.0026062093351 0.0025556751665 0.0025068374098 
0.0024596043303 0.0024138904607 0.0028602816171 0.0028027090888 0.0027492087495 0.0026952171185 0.0026428553495 0.0025920596047 0.0025427696073 
0.0024949280701 0.0024484817089 0.0024033797223 0.0028289209247 0.0027724367754 0.0027196466771 0.0026666772095 0.0026153021622 0.0025654589448 
0.0025170880367 0.0024701336206 0.0024245428497 0.0023802659937 0.0027977907056 0.0027423890997 0.0026904847998 0.0026385202777 0.0025881152889 
0.0025392079836 0.0024917404903 0.0024456574407 0.0024009071049 0.0023574408036 0.0027669002722 0.0027125750427 0.0026617128382 0.0026107369158 
0.002561285639 0.0025132988872 0.0024667192158 0.0024214926744 0.0023775684697 0.0023348986974 0.0031889110067 0.0031217756496 0.0030680446243 
0.0030037516888 0.002941772376 0.0028819862701 0.0028242795627 0.0027685450787 0.0027146817512 0.0026625949831 0.0031541275744 0.0030881682637 
0.0030336194535 0.0029704438727 0.0029095354828 0.0028507757301 0.0027940525194 0.0027392604185 0.0026863000891 0.0026350785149 0.0031195073513 
0.0030547204835 0.0029991894673 0.0029371496836 0.0028773293724 0.0028196118523 0.0027638871338 0.0027100513151 0.0026580067456 0.0026076622685 
0.0030850601808 0.0030214527522 0.002964766494 0.0029038805488 0.0028451654455 0.0027885063648 0.0027337949392 0.0026809292412 0.0026298134473 
0.0025803578653 0.003050809868 0.002988375739 0.0029303637507 0.00287064993 0.0028130570116 0.0027574723358 0.0027037892654 0.0026519076792 
0.0026017333534 0.0025531784051 0.0030167703987 0.0029555094848 0.0028959965854 0.0028374730532 0.0027810194718 0.0027265251124 0.0026738852105 
0.0026230014858 0.0025737814615 0.0025261388609 0.0029901129813 0.0029302008694 0.0028757693992 0.002819437649 0.0027647955614 0.0027117800035 
0.0026603308074 0.0026103910817 0.0025619068398 0.0025148276704 0.0029573586342 0.0028985826429 0.0028448652355 0.0027895994351 0.0027359864972 
0.0026839643094 0.0026334738949 0.0025844590855 0.002536867455 0.0024906487793 0.0029248448666 0.0028671993517 0.0028143634091 0.0027601463185 
0.0027075457694 0.0026565005503 0.0026069527961 0.0025588477471 0.0025121334087 0.0024667606509 0.0028925822208 0.002836061197 0.0027842552876 
0.0027310705446 0.0026794662372 0.0026293822379 0.0025807621114 0.0025335517428 0.00248770019 0.0024431594509 0.0033243155359 0.0032547588158 
0.003199092595 0.0031323901909 0.0030680631626 0.003005991736 0.0029460619913 0.0028881663664 0.00283220354 0.0027780782721 0.0032882811422 
0.0032199428158 0.0031633941097 0.0030978541069 0.0030346414195 0.0029736381079 0.0029147322314 0.0028578179371 0.0028027953783 0.0027495711699 
0.0032524083169 0.0031852969017 0.003127697914 0.0030633382368 0.0030012569149 0.0029413376842 0.0028834706118 0.002827551395 0.002773482143 
0.002721170816 0.0032167190633 0.0031508300809 0.0030920157906 0.0030288545511 0.0029679216283 0.0029091025807 0.0028522890756 0.0027973788174 
0.0027442755067 0.0026928886894 0.0031812257968 0.0031165609499 0.0030563615295 0.0029944169346 0.0029346493747 0.0028769462673 0.0028212011811 
0.002767313587 0.0027151888941 0.0026647384178 0.0031459455857 0.0030824955521 0.0030207507546 0.0029600407232 0.0029014553667 0.0028448840233 
0.0027902220782 0.0027373707928 0.002686237371 0.0026367347941 0.003117722987 0.0030555549162 0.0030001631731 0.0029415757596 0.0028847341146 
0.0028295756267 0.0027760407495 0.0027240727072 0.0026736174225 0.0026246241169 0.0030836258528 0.0030226387168 0.0029679640971 0.0029104844367 
0.0028547124516 0.0028005866468 0.0027480484508 0.0026970418716 0.0026475143538 0.0025994154461 0.0030497776359 0.002989966053 0.0029361682923 
0.0028797792285 0.0028250601728 0.0027719506624 0.0027203929926 0.0026703327783 0.002621717797 0.0025744987481 0.0030161904475 0.0029575484868 
0.002904769139 0.002849454155 0.0027957718628 0.0027436626747 0.0026930706474 0.0026439417156 0.0025962248742 0.0025498717412 0.003457258647 
0.0033853598976 0.0033276477404 0.0032586441691 0.00319207259 0.003127813444 0.0030657531427 0.0030057840015 0.0029478041109 0.0028917178427 
0.0034200078653 0.0033493752655 0.0032907158593 0.003222917418 0.0031575017379 0.0030943508559 0.003033353201 0.0029744025568 0.0029173989132 
0.0028622479878 0.0033829208535 0.0033135589163 0.003253792237 0.0031872170653 0.0031229741969 0.0030609476378 0.0030010273033 0.0029431089672 
0.0028870941631 0.0028328902736 0.0033460194829 0.0032779236917 0.0032168894477 0.0031515555735 0.0030885023859 0.0030276158816 0.0029687876774 
0.0029119152765 0.002856902007 0.0028036568505 0.0033093156673 0.0032424873805 0.0031800215396 0.0031159467917 0.003054100114 0.0029943693374 
0.0029366479507 0.0028808352169 0.0028268361223 0.0027745613182 0.0032728305881 0.0032072560841 0.0031432042752 0.0030804064583 0.0030197829992 
0.0029612236299 0.0029046236582 0.0028498841332 0.0027969117247 0.002745618786 0.0032430401484 0.0031787012334 0.0031223358298 0.0030615759899 
0.0030026146713 0.0029453900352 0.0028898428254 0.0028359164527 0.002783557001 0.0027327129831 0.0032076506643 0.0031445345419 0.00308888824 
0.0030292762508 0.0029714234579 0.0029152690451 0.0028607547659 0.0028078250193 0.0027564266404 0.0027065095836 0.0031725171877 0.0031106186855 
0.003055844029 0.0029973626978 0.0029406016804 0.0028855011292 0.0028320039131 0.0027800551964 0.0027296033116 0.0026805985015 0.0031376527521 
0.0030769661048 0.0030231981667 0.002965830958 0.0029101455192 0.002856083131 0.0028035874758 0.0027526052681 0.0027030852623 0.0026549788208 
0.0035876605013 0.003513509899 0.0034536488229 0.0033824514718 0.0033137377819 0.00324738874 0.0031832907423 0.0031213360091 0.0030614222827 
0.0030034532531 0.0035492271925 0.0034763871772 0.0034155239047 0.0033455728726 0.0032780549636 0.0032128527116 0.0031498542887 0.0030889536094 
0.0030300502202 0.0029730492647 0.0035109659852 0.0034394339138 0.0033774129293 0.0033087261924 0.0032424208194 0.0031783810802 0.0031164969929 
0.0030566641441 0.0029987837517 0.0029427625416 0.0034728877286 0.0034026667592 0.003339328769 0.0032719241394 0.003206848022 0.0031439865289 
0.0030832314302 0.003024480042 0.00296763523 0.0029126053932 0.0034350079247 0.0033660902757 0.0033012858542 0.0032351810671 0.0031713508765 