# vtk DataFile Version 5.1
vtk output
ASCII
DATASET STRUCTURED_POINTS
DIMENSIONS 10 10 20
SPACING 0.1 0.1 0.1
ORIGIN 3.25 -0.45 0.55
POINT_DATA 2000
FIELD FieldData 3
potential 1 2000 double
0.37960889466 0.37985903636 0.38012684771 0.38042136649 0.38070730856 0.38096386884 0.38118318592 0.38136021055 0.38147439933 
0.38148630419 0.34852601155 0.34873467842 0.34894989905 0.34918616158 0.34941100456 0.34961183066 0.34978696905 0.34993404773 
0.35003422755 0.3500478879 0.32420980577 0.32436280305 0.32450957742 0.32467235137 0.32482567721 0.32496235705 0.32508331126 
0.32518697948 0.32525757395 0.32526128871 0.30795252952 0.30804568597 0.30811805747 0.30820447854 0.30828471119 0.30835736174 
0.3084226703 0.30847960764 0.30851406109 0.30850378111 0.30031361128 0.30034599082 0.30034561521 0.30035704323 0.30036711028 
0.30037713728 0.30038978217 0.30040300894 0.30040653114 0.30038578666 0.30147136024 0.30144310546 0.30137004726 0.30130916822 
0.30124745235 0.30119403285 0.30115577015 0.30113181042 0.30111328555 0.30109074499 0.31146467965 0.31137417951 0.31123481187 
0.31109573315 0.31095771518 0.31083744165 0.31074749854 0.31069196671 0.31066132848 0.3106461213 0.3301606468 0.33000329901 
0.32979820043 0.32958199933 0.32936584323 0.3291744676 0.32903190003 0.32894644967 0.32890864915 0.32890623516 0.35703378888 
0.35681640165 0.3565473836 0.35625734879 0.35596408141 0.35570477621 0.35551132467 0.3553968302 0.35535070326 0.35536159449 
0.39079694627 0.39053434643 0.39021459387 0.3898657415 0.38951498898 0.38920433426 0.38897006198 0.38882689785 0.38876810358 
0.38878604138 0.38174761914 0.38192627385 0.38210639168 0.38230201163 0.38249189117 0.38266330635 0.38280616885 0.38291129562 
0.38296347054 0.38294538175 0.35836671307 0.35851679655 0.35866225977 0.35882163785 0.35897479078 0.35911257732 0.35922792153 
0.35931378287 0.35935712887 0.35934081378 0.33983721703 0.33994958392 0.34004923519 0.34016090957 0.34026685827 0.34036276842 
0.34044272922 0.34050186555 0.34052914259 0.34051054453 0.32734045662 0.3274112814 0.32745882961 0.32751722632 0.32757268621 
0.32762176362 0.32766303254 0.32769171808 0.3277002374 0.32767717795 0.32155176277 0.32157770246 0.32157096743 0.32157501808 
0.32157772197 0.32157912394 0.32158117458 0.32158028964 0.32156999346 0.32154434486 0.32276889444 0.32274971322 0.32268753638 
0.32263663423 0.32258563759 0.32253995676 0.32250241323 0.32247320247 0.32244823469 0.32242211553 0.33102197747 0.33095712929 
0.33084715213 0.3307389434 0.33063319331 0.33053924823 0.33046405289 0.33040984919 0.33037421367 0.33035285028 0.34604655009 
0.34593514342 0.34577908536 0.34561830891 0.34546085422 0.34532028411 0.34520886432 0.34513290224 0.34508931625 0.34507411483 
0.36721054336 0.36705875311 0.36686182929 0.36665347833 0.36644871422 0.36626637848 0.3661226938 0.36602568349 0.36597437167 
0.36596467106 0.39336420884 0.39318262191 0.39295475304 0.39271129545 0.39247155301 0.39225803768 0.39208892596 0.39197413404 
0.39191418591 0.39190760491 0.38067388539 0.38080178301 0.38092305824 0.38105212818 0.3811764099 0.38128676066 0.38137502519 
0.38143318525 0.38145213158 0.38142299701 0.36323354712 0.36334186267 0.36343915239 0.36354431359 0.36364481155 0.3637342192 
0.36380487726 0.36385083662 0.36386356739 0.36383585527 0.34932816372 0.34941113627 0.34947615749 0.3495493782 0.34961867005 
0.34967956607 0.34972696931 0.34975545004 0.34975897165 0.34973058433 0.33995319577 0.34000638715 0.34003473305 0.3400711037 
0.34010442425 0.34013263169 0.34015352744 0.34016237416 0.34015436908 0.34012489923 0.33574100258 0.33576226994 0.33574990144 
0.33574718003 0.33574234023 0.33573631644 0.33572864246 0.3357170675 0.33569767849 0.3356673625 0.33699883302 0.33698703629 
0.33693409492 0.33689058648 0.3368474003 0.3368063922 0.33676995293 0.33673753209 0.33670771713 0.3366776744 0.34375099689 
0.34370762254 0.34362204328 0.34353754777 0.3434549159 0.34337938988 0.34331579563 0.3432652955 0.34322758551 0.34320019192 
0.35572251613 0.35564715218 0.35552994118 0.35540928037 0.35529121251 0.35518488399 0.35509669521 0.35503023571 0.35498535266 
0.35496097578 0.37232490458 0.37222183953 0.37207817198 0.37192594099 0.37177832895 0.37164417528 0.37153459203 0.37145335845 
0.37140272497 0.37138032624 0.39260252006 0.39247948226 0.39231668136 0.39214214858 0.39197185807 0.3918179149 0.39169142414 
0.39159925337 0.39154303804 0.39152149878 0.3773523756 0.37744539533 0.37752566085 0.37760840924 0.37768683015 0.37775448781 
0.37780505688 0.3778322352 0.37783144466 0.37779734683 0.36448771982 0.36456729579 0.36463003792 0.36469685427 0.36475960551 
0.36481292928 0.36485199826 0.36487156399 0.36486637615 0.36483304948 0.35421702305 0.35427892476 0.35431841641 0.35436347206 
0.35440454248 0.3544389478 0.3544619978 0.35447027141 0.35445924695 0.35442613272 0.3473458035 0.34738652405 0.34739943879 
0.34741875745 0.34743492126 0.34744618889 0.34745118032 0.34744610028 0.34742781625 0.34739463602 0.34441388959 0.34443176408 
0.34441550245 0.34440665915 0.34439569356 0.34438281898 0.34436742894 0.3443476898 0.34432223909 0.34428845602 0.34569609476 
0.34569057942 0.34564429484 0.34560630359 0.34556763397 0.34552928055 0.34549300684 0.3454590767 0.34542607641 0.34539250217 
0.3512138823 0.35118694288 0.35111916484 0.35105086438 0.35098396617 0.35092148 0.35086631276 0.35081948246 0.35078042187 
0.35074859908 0.36072235856 0.36067301739 0.3605842869 0.36049113573 0.36040026115 0.3603165745 0.36024445962 0.3601858508 
0.36014137144 0.36011034325 0.37372323336 0.37365484064 0.37354870293 0.37343501266 0.37332404339 0.3732219497 0.37313501764 
0.37306652649 0.37301754984 0.37298753666 0.38945012846 0.38936821453 0.38925023563 0.38912114106 0.38899505536 0.38887967851 
0.38878196322 0.38870552173 0.38865322099 0.38862331142 0.37244257307 0.3725112942 0.3725618381 0.37261273112 0.37265864408 
0.37269584585 0.37272039869 0.37272778239 0.37271398605 0.37267656942 0.36309818467 0.36315734358 0.3631950726 0.36323468098 
0.36326991179 0.36329778313 0.36331416328 0.36331584566 0.36329962315 0.36326291533 0.35565542632 0.3557018385 0.35572303141 
0.35574681713 0.35576755988 0.35578210105 0.35578788317 0.35578192378 0.35576153416 0.35572527455 0.35075360675 0.3507848975 
0.35078644239 0.35079206462 0.35079507079 0.35079392404 0.35078678021 0.35077128551 0.3507465203 0.3507104915 0.34883283663 
0.34884824743 0.34882848604 0.34881429763 0.34879832611 0.34877986825 0.34875829297 0.34873298835 0.34870266404 0.3486665392 
0.35012427614 0.35012346274 0.35008125442 0.35004648409 0.35001017156 0.349973898 0.34993743227 0.3499017287 0.34986632613 
0.3498298573 0.35464743899 0.35463172631 0.3545759048 0.35451916366 0.3544627009 0.35440938585 0.35435967853 0.35431508042 
0.35427556504 0.35424009072 0.36219692203 0.36216544334 0.36209658522 0.36202286658 0.36195018363 0.3618817122 0.36182037266 
0.36176721728 0.36172368019 0.36168899976 0.3723709014 0.37232654488 0.37224613476 0.37215807873 0.37207139089 0.37199078708 
0.37191919482 0.3718594399 0.37181238072 0.37177761746 0.38456354683 0.38450975685 0.38442212265 0.38432330838 0.38422664995 
0.3841368959 0.38405764924 0.38399258379 0.38394299896 0.38390849039 0.36641404645 0.36646522479 0.36649468739 0.36652234243 
0.36654560065 0.36656169129 0.36656764279 0.36656119184 0.3665387766 0.36649937328 0.35977353672 0.35981790187 0.35983795724 
0.3598575772 0.35987323907 0.35988241018 0.35988304813 0.35987247476 0.35984831773 0.35980947073 0.35451601837 0.35455123967 
0.35455861059 0.35456727777 0.35457293949 0.35457275556 0.35456608319 0.35454991701 0.35452338071 0.35448488255 0.35114318511 
0.35116785518 0.35116072954 0.35115639652 0.35114966002 0.35113890658 0.35112264371 0.3511002604 0.35107052088 0.35103202723 
0.35000711329 0.35002036842 0.34999740727 0.34997901642 0.34995839538 0.34993536216 0.34990920268 0.34987945156 0.34984586722 
0.34980757891 0.35129371205 0.35129602536 0.35125664123 0.35122302401 0.35118796597 0.35115222515 0.35111564484 0.35107885792 
0.3510411458 0.35100271705 0.35502119873 0.35501300983 0.35496583082 0.35491638274 0.35486695483 0.35481943762 0.35477375335 
0.35473086644 0.35469078909 0.35465293347 0.36102428799 0.36100522623 0.36094965587 0.3608883276 0.36082758369 0.36076971243 
0.36071537196 0.36066657272 0.36062353678 0.36058572231 0.36898290706 0.36895515346 0.36889239922 0.36882104129 0.36875088481 
0.36868413825 0.36862302737 0.3685691834 0.36852355704 0.36848613956 0.37842357842 0.3783892722 0.37832174681 0.37824361098 
0.37816609084 0.37809294535 0.37802677978 0.37796966125 0.37792193955 0.37788406927 0.35961062796 0.35964887086 0.35966374272 
0.35967410948 0.35968124055 0.35968222254 0.35967535152 0.35965856208 0.35963022914 0.35958945248 0.35504281178 0.3550760694 
0.35508333595 0.35508818283 0.35508962586 0.35508584653 0.35507500254 0.35505557733 0.3550259398 0.35498550234 0.35146477768 
0.35149167328 0.35148929822 0.35148643129 0.35148036738 0.35147045878 0.35145420404 0.35143116479 0.35139981595 0.35135970035 
0.34926874233 0.34928810877 0.34927488228 0.34926270696 0.34924814517 0.34923000921 0.34920760712 0.34917991593 0.34914621306 
0.34910623402 0.34873208657 0.34874355965 0.34871810059 0.34869547717 0.3486712361 0.3486444777 0.34861490745 0.34858219913 
0.34854585467 0.34850583267 0.35000221526 0.35000568456 0.34996770708 0.34993448572 0.34989986235 0.34986403783 0.34982737935 
0.34978930765 0.3497501292 0.34970970046 0.3530939366 0.35309014062 0.35304830818 0.35300387032 0.35295947387 0.35291524172 
0.35287227895 0.35283033006 0.35278954358 0.35274989517 0.35787768362 0.35786694015 0.35781935035 0.35776660391 0.35771409367 
0.3576624581 0.35761350605 0.35756741617 0.35752479571 0.3574848522 0.36410072824 0.36408397656 0.36403240287 0.36397272969 
0.3639132208 0.36385570478 0.36380187894 0.36375225438 0.36370783366 0.36366790456 0.37139428906 0.37137280879 0.37131884144 
0.37125412961 0.37118984898 0.3711278325 0.37107031903 0.37101801337 0.37097187201 0.3709318164 0.35228881769 0.35231814778 
0.35232158294 0.3523198845 0.35231480674 0.35230505973 0.3522892465 0.35226514651 0.3522324572 0.35218993457 0.34930496391 
0.34933022776 0.34932802214 0.34932195602 0.34931293998 0.34929987662 0.34928098858 0.34925539419 0.34922191267 0.34917990637 
0.34701188087 0.3470324452 0.34702266959 0.34701120356 0.34699709492 0.34697911919 0.34695659925 0.34692812365 0.34689321366 
0.3468514705 0.34571450873 0.34572958476 0.34571128844 0.34569305811 0.34567256391 0.34564892105 0.34562183243 0.34559038934 
0.34555404188 0.34551247711 0.34562926337 0.34563873568 0.34561110903 0.34558550329 0.34555777557 0.34552825601 0.34549610742 
0.34546114599 0.3454227963 0.34538119651 0.34687244843 0.34687615404 0.34683878725 0.34680561537 0.34677080511 0.34673452598 
0.34669714283 0.34665816968 0.34661785061 0.3465757443 0.34945510938 0.34945401885 0.34941497795 0.34937383802 0.34933223562 
0.34929062388 0.3492492367 0.34920805838 0.34916677361 0.34912569947 0.3532769684 0.353270835 0.35322895893 0.35318168041 
0.35313425665 0.35308735362 0.35304183519 0.35299775666 0.35295507953 0.35291402 0.35813933834 0.35812922201 0.3580851442 
0.35803293017 0.35798066991 0.35792939881 0.35788032167 0.35783362252 0.35778951919 0.35774868346 0.36375404403 0.36374132583 
0.36369580719 0.36364008728 0.36358447908 0.36353014888 0.36347814886 0.36342949759 0.36338449972 0.36334304167 0.34464259046 
0.34466463168 0.34465995608 0.34464913101 0.34463536318 0.34461767896 0.34459493781 0.34456617979 0.34452994095 0.34448662258 
0.34286471609 0.34288385933 0.34287420449 0.34286029736 0.3428437196 0.34282347163 0.34279876288 0.3427686537 0.34273189933 
0.34268882848 0.34154925105 0.34156459669 0.34154911974 0.34153101661 0.34151053737 0.34148707143 0.34145968805 0.34142752145 
0.341390195 0.34134722768 0.34093207677 0.34094366608 0.34092139211 0.34089843063 0.34087331191 0.34084576834 0.34081513293 
0.34078100097 0.34074233854 0.34069958541 0.34118180938 0.3411896115 0.34115980674 0.34113157788 0.34110169485 0.34106952814 
0.34103519346 0.34099839203 0.3409586081 0.3409157079 0.34238905688 0.34239297043 0.34235568136 0.34232187204 0.34228658282 
0.34225007879 0.34221187633 0.34217223865 0.34213088635 0.34208788845 0.34456216678 0.34456232498 0.34452528909 0.34448584974 
0.34444633713 0.344406337 0.34436607638 0.34432523352 0.34428402548 0.34424183837 0.34762422368 0.34762082395 0.3475822854 
0.34753867611 0.34749474043 0.34745097064 0.34740769294 0.34736455873 0.34732212891 0.34727984917 0.35141788268 0.35141181383 
0.35137231032 0.35132505047 0.35127772182 0.35123089565 0.35118487005 0.35114008901 0.3510966609 0.35105417451 0.35571842429 
0.35571058947 0.35567064951 0.35562096017 0.3555710656 0.35552192272 0.35547402854 0.35542762941 0.35538351096 0.35534103977 
0.33681814672 0.33683404795 0.33682346149 0.33680581574 0.33678590983 0.33676257677 0.33673501738 0.33670212063 0.33666390551 
0.33661934086 0.33595389043 0.33596767271 0.33595278301 0.33593278951 0.33591061186 0.33588528859 0.33585619423 0.33582255728 
0.3357840064 0.3357398738 0.33537668675 0.33538811825 0.33536821041 0.33534510582 0.33532009453 0.33529226139 0.33526148627 
0.33522670484 0.33518748249 0.33514360246 0.33527001107 0.33527851832 0.33525325913 0.33522654491 0.33519840824 0.33516776319 
0.33513446476 0.33509789833 0.33505807079 0.3350142585 0.33576444079 0.33576985485 0.33573849951 0.33570812662 0.33567626465 
0.33564239337 0.33560665724 0.335568361 0.33552764952 0.33548371794 0.33692963645 0.33693239318 0.33689495 0.33686039791 
0.33682469722 0.33678772223 0.33674908686 0.33670885998 0.33666707041 0.3366230421 0.33877090566 0.33877041869 0.33873465954 
0.33869649779 0.33865821529 0.33861959995 0.33858019833 0.3385396869 0.33849829144 0.33845546548 0.34123028917 0.341227838 
0.34119147583 0.34115015921 0.3411087776 0.34106720993 0.34102532718 0.34098325575 0.34094082311 0.3408979966 0.34418305785 
0.34417918145 0.3441422098 0.34409857705 0.34405462448 0.34401066164 0.34396683807 0.34392342847 0.34388016586 0.34383710951 
0.34745365174 0.34744872375 0.34741168994 0.34736605034 0.34732037661 0.34727473391 0.34722958675 0.3471852212 0.34714137058 
0.34709805171 0.32892627756 0.32893722015 0.32892206903 0.32889947348 0.32887489534 0.32884745239 0.32881632507 0.32878114645 
0.32874104387 0.32869559729 0.32874905886 0.32875818926 0.32873951428 0.32871506409 0.32868875364 0.32865999491 0.32862802999 
0.32859204277 0.32855171962 0.32850674162 0.32872568231 0.3287327713 0.32870999112 0.32868318353 0.32865486952 0.32862423417 
0.32859079745 0.32855401934 0.32851348813 0.32846882978 0.32899768248 0.32900264048 0.3289752413 0.32894591143 0.3289150518 
0.32888241072 0.32884730164 0.32880948009 0.32876837412 0.3287239008 0.32966610705 0.3296691457 0.32963669868 0.32960456307 
0.32957110674 0.32953620218 0.32949924399 0.32946008785 0.32941822242 0.32937388087 0.33078464316 0.33078570741 0.33074813446 
0.33071320977 0.33067703687 0.33063970517 0.33060085085 0.33056021282 0.33051768066 0.33047322262 0.33235533785 0.33235347597 
0.33231776774 0.33228100447 0.33224392176 0.33220616573 0.33216744414 0.33212761096 0.33208613298 0.33204276903 0.33433575823 
0.33433280128 0.3342971463 0.33425776144 0.33421807812 0.3341782166 0.33413782531 0.33409666498 0.33405429922 0.33401081807 
0.33662583939 0.33662212586 0.33658674338 0.33654516064 0.33650369459 0.3364620247 0.33642016774 0.33637786123 0.33633489549 
0.33629128708 0.33908794174 0.33908380988 0.33904871787 0.33900584444 0.33896296716 0.338920117 0.33887710906 0.33883398522 
0.3387905687 0.3387467606 0.32105082126 0.32105693135 0.3210387882 0.32101250906 0.32098467891 0.32095452421 0.32092114811 
0.32088412313 0.3208425833 0.32079667946 0.32138569071 0.32139026085 0.32136882185 0.32134115909 0.3213120884 0.32128085101 
0.32124668157 0.32120920437 0.32116775763 0.32112220184 0.32177273414 0.32177585817 0.32175072109 0.32172135735 0.32169077962 
0.32165824579 0.32162310749 0.32158493697 0.32154340079 0.32149806539 0.32232152742 0.32232315353 0.32229416314 0.32226279994 
0.32223046571 0.32219640995 0.32216011265 0.32212112503 0.32207928575 0.32203426388 0.32310985468 0.32310987126 0.323076713 
0.32304352253 0.32300920761 0.32297345865 0.32293585713 0.32289609415 0.32285383879 0.32280882794 0.32417891033 0.32417750606 
0.32414007212 0.32410477791 0.32406843027 0.32403103788 0.32399211291 0.32395136113 0.32390853613 0.32386347291 0.32552720579 
0.325522719 0.32548731308 0.32545148682 0.32541563808 0.32537896917 0.32534119487 0.32530188314 0.32526065415 0.32521698111 
0.32712519584 0.32712037202 0.32708532627 0.32704736718 0.32700952495 0.32697112009 0.32693191465 0.32689150739 0.32684945006 
0.32680569739 0.32889216626 0.32888717929 0.32885251789 0.32881290997 0.32877337314 0.32873373824 0.32869327542 0.32865194453 
0.32860940604 0.32856540992 0.33071973685 0.33071485291 0.33068074864 0.33064002637 0.3305994852 0.33055868754 0.33051758546 
0.3304754134 0.33043242908 0.33038824449 0.31325460871 0.31325584545 0.31323578249 0.31320707553 0.31317707589 0.31314506557 
0.31311018083 0.31307193066 0.31302991114 0.31298360083 0.31396577886 0.31396603262 0.31394286159 0.31391305443 0.31388214092 
0.31384927199 0.313813853 0.31377530597 0.31373324138 0.31368736217 0.31465286602 0.31465188435 0.31462551988 0.31459436255 
0.31456233014 0.3145284629 0.31449238996 0.31445347318 0.31441130351 0.31436575191 0.31540001817 0.31539776784 0.31536799286 
0.31533554495 0.31530207814 0.31526722005 0.31523036542 0.31519099652 0.31514862372 0.31510326003 0.31626695156 0.31626352934 
0.31623002863 0.31619608755 0.31616141703 0.31612550814 0.31608768483 0.31604770401 0.31600517952 0.31595993499 0.31728485505 
0.31728024228 0.31724305086 0.31720769702 0.31717175026 0.31713461417 0.31709587054 0.31705524826 0.31701245573 0.31696724953 
0.31844881821 0.31844083292 0.31840576254 0.31837134488 0.31833678388 0.31830153394 0.31826485075 0.31822614187 0.31818519024 
0.31814166978 0.31974049525 0.31973277157 0.31969822706 0.31966192234 0.31962567557 0.31958880695 0.31955082593 0.31951121727 
0.31946970733 0.31942593809 0.32109369955 0.32108623389 0.32105230261 0.32101453433 0.32097699349 0.32093894913 0.32089998555 
0.32085959962 0.32081749141 0.32077353879 0.32242314579 0.32241618774 0.32238284562 0.32234427297 0.32230576234 0.32226697088 
0.32222712267 0.32218629772 0.32214381782 0.32209955312 0.30559377834 0.30558407505 0.30556434171 0.30553786642 0.30550713663 
0.30547214084 0.30543337075 0.30539089074 0.30534503229 0.30529597201 0.30657738048 0.30656754403 0.30654422128 0.30651634633 
0.30648416917 0.306448088 0.30640843263 0.3063654324 0.30631931913 0.30627042979 0.30748101976 0.30747131737 0.3074440813 
0.3074142513 0.30738040548 0.30734285592 0.30730200183 0.30725818459 0.30721167303 0.30716269847 0.30836969244 0.3083604679 
0.30832895066 0.30829682076 0.30826080296 0.30822157309 0.30817928876 0.30813436702 0.30808722348 0.30803804403 0.3092893905 
0.30928104753 0.30924491588 0.30921013312 0.30917178392 0.30913032452 0.30908632178 0.30904011293 0.30899212869 0.30894260428 
0.31026376744 0.31025690914 0.31021587495 0.31017806502 0.31013697471 0.31009308394 0.31004718202 0.30999942402 0.30995035859 
0.30990025936 0.31129305906 0.31128791868 0.31125056536 0.31120833118 0.31116343042 0.31111649229 0.31106805997 0.3110184803 
0.31096824525 0.31091760625 0.31232759121 0.31231925404 0.31228384649 0.31224386159 0.31220077989 0.31215537917 0.31210810589 
0.31205966375 0.31201030309 0.311960413 0.31334462798 0.31333359439 0.31330006021 0.31326205273 0.31322074994 0.31317665455 
0.3131305389 0.31308304758 0.3130346357 0.31298531636 0.31427695221 0.31426371992 0.31423183687 0.31419576737 0.31415596333 
0.31411319321 0.31406821727 0.3140216005 0.31397375322 0.31392507167 0.29808571566 0.29807154634 0.29805031529 0.29802282527 
0.29799100362 0.2979552915 0.2979157943 0.29787298952 0.29782684869 0.29777758465 0.29926008057 0.29924585235 0.29922125361 
0.29919254813 0.29915968182 0.29912310829 0.29908290653 0.2990396186 0.29899329293 0.29894416461 0.30031221565 0.30029822514 
0.30026999779 0.30023966147 0.30020532328 0.3001675641 0.30012654297 0.30008250745 0.30003584087 0.29998670222 0.30129198416 
0.30127854864 0.30124628043 0.30121406606 0.3011780728 0.30113867817 0.30109651747 0.30105160707 0.30100438165 0.30095513146 
0.30223438911 0.30222197865 0.30218532419 0.3021508483 0.3021128339 0.30207176388 0.30202812506 0.30198211967 0.30193419805 
0.30188463075 0.30315720896 0.3031462095 0.30310493856 0.30306791494 0.30302759234 0.30298459415 0.30293917319 0.30289194431 
0.30284312373 0.30279306459 0.30405724922 0.30404768579 0.3040097943 0.30396930792 0.30392608207 0.30388065367 0.30383339866 
0.30378478075 0.30373517671 0.30368482572 0.30489382223 0.30488150721 0.30484555178 0.30480720843 0.30476584295 0.30472186435 
0.30467589774 0.30462838436 0.30457963054 0.3045299585 0.30565223276 0.30563761993 0.30560342305 0.30556710275 0.30552730049 
0.30548473075 0.30543993704 0.30539335392 0.30534531854 0.30529616221 0.30627902716 0.30626272216 0.30623005544 0.30619550901 
0.30615721599 0.30611599859 0.30607224958 0.30602648422 0.30597913385 0.30593047424 0.29076406965 0.29074615879 0.29072350611 
0.29069484853 0.29066212318 0.29062557362 0.2905856307 0.29054224206 0.29049572223 0.29044622697 0.29206709152 0.29204910661 
0.29202324027 0.29199356802 0.29195997183 0.2919227329 0.29188223368 0.29183856026 0.29179194404 0.29174262072 0.29321729802 
0.29319946358 0.29317003936 0.29313920755 0.29310448575 0.29306627865 0.29302488597 0.29298072259 0.29293382935 0.29288452844 
0.29425264494 0.29423547878 0.29420217966 0.29416968247 0.29413354523 0.29409422096 0.29405179449 0.2940069118 0.29395960739 
0.29391016922 0.2951997144 0.29518350407 0.29514613034 0.29511170603 0.29507394118 0.29503306225 0.29498951042 0.2949436576 
0.2948958241 0.29484609026 0.29607157468 0.29605677547 0.29601495506 0.29597838833 0.29593868966 0.2958961318 0.29585117583 
0.29580422985 0.29575557286 0.29570551719 0.29686252052 0.29684878141 0.29680994035 0.2967708225 0.29672883552 0.29668454611 
0.29663828173 0.29659042641 0.29654124415 0.29649099854 0.29753947693 0.29752337476 0.29748647158 0.2974492729 0.29740899551 
0.29736616459 0.29732118695 0.29727432866 0.29722597455 0.29717635018 0.29809337596 0.29807535159 0.29803995537 0.29800464564 
0.297966003 0.29792446858 0.29788056541 0.29783462805 0.29778701487 0.29773790063 0.29848189679 0.29846233075 0.29842837803 
0.29839480121 0.29835752702 0.29831724534 0.29827437309 0.29822922004 0.29818216837 0.29813345454 0.28364536509 0.28362414275 
0.28360005179 0.28357021625 0.28353657691 0.28349932563 0.28345865202 0.28341479391 0.28336796749 0.28331822855 0.28502949065 
0.28500810145 0.28498085769 0.28495025859 0.28491592403 0.28487809562 0.28483699988 0.28479290926 0.28474600593 0.28469644041 
0.28623907434 0.28621789012 0.2861872591 0.28615560341 0.28612040281 0.28608172845 0.28604011224 0.28599559745 0.28594846196 
0.28589896038 0.28730309474 0.2872824539 0.28724812035 0.28721525448 0.28717882896 0.28713920916 0.28709673752 0.28705165253 
0.28700418435 0.28695458864 0.28824147573 0.28822177303 0.28818348939 0.28814899983 0.28811116229 0.28807034243 0.28802690174 
0.2879810696 0.28793313289 0.2878832766 0.28906362447 0.28904526874 0.28900269663 0.28896640815 0.28892694886 0.28888469868 
0.28884008824 0.28879335936 0.28874479702 0.28869459603 0.28976198507 0.28974424538 0.2897041213 0.28966592231 0.28962494679 
0.28958153807 0.28953607315 0.28948881423 0.28943997397 0.28938978647 0.29030987037 0.29029016503 0.29025173092 0.29021540389 
0.29017603591 0.29013400061 0.29008964643 0.29004331021 0.28999525193 0.28994565808 0.29070214152 0.29068084845 0.29064384738 
0.29060925338 0.29057133595 0.29053054346 0.29048723297 0.29044177509 0.29039436235 0.29034521303 0.2909052387 0.29088269446 
0.29084693196 0.29081393063 0.29077740009 0.29073771477 0.29069538986 0.29065064585 0.29060378451 0.29055500243 0.27674001097 
0.27671570094 0.27669023847 0.27665925088 0.2766246365 0.27658657881 0.27654528014 0.27650096361 0.27645367734 0.27640363405 
0.27816887709 0.27814444249 0.27811590105 0.27808428766 0.27804914112 0.27801064135 0.27796910176 0.27792455277 0.27787728115 
0.27782739526 0.27940861306 0.27938442948 0.27935248399 0.27932002526 0.27928414951 0.2792450949 0.2792030565 0.2791582408 
0.27911082235 0.27906099091 0.28048109564 0.28045734439 0.28042178796 0.28038829803 0.28035147324 0.28031161434 0.28026895774 
0.28022376385 0.28017611352 0.28012624753 0.2814010768 0.28137806203 0.28133864411 0.28130390998 0.28126598997 0.28122516775 
0.28118172065 0.28113587616 0.2810878364 0.28103780044 0.28217520883 0.28215332885 0.2821098181 0.28207359506 0.2820343177 
0.28199233144 0.28194791727 0.2819013103 0.28185276692 0.28180245504 0.28279429725 0.28277282758 0.28273114833 0.28269370524 
0.28265347824 0.28261080648 0.28256592266 0.28251911465 0.28247056379 0.28242040411 0.28323760152 0.28321451041 0.28317436973 
0.28313856433 0.28309979951 0.28305836338 0.28301453588 0.28296858382 0.28292067814 0.28287102703 0.28350241911 0.28347802161 
0.28343918408 0.28340495546 0.28336753837 0.28332722993 0.28328434848 0.28323913168 0.28319180591 0.28314256879 0.28356208721 
0.28353673058 0.28349899738 0.28346619716 0.28342997112 0.28339069935 0.28334864471 0.28330410793 0.28325731861 0.2832083904 
0.27005385906 0.27002679378 0.26999987271 0.26996767952 0.26993206487 0.2698932484 0.26985133698 0.2698065197 0.26975883973 
0.26970846579 0.27149991781 0.27147271563 0.27144275149 0.27141011001 0.27137416501 0.27133503995 0.27129294375 0.27124800632 
0.27120036316 0.27115015068 0.2727477748 0.27272064634 0.27268740961 0.27265415924 0.27261765654 0.27257809992 0.27253566819 
0.27249052444 0.27244280701 0.27239268424 0.27381359608 0.2737868754 0.27375007164 0.27371600468 0.27367878725 0.2736386235 
0.27359572015 0.2735502365 0.27350236115 0.27345222292 0.27470823275 0.27468217867 0.27464161453 0.27460652191 0.27456841868 
0.27452748373 0.27448395491 0.27443801427 0.27438989109 0.27433965174 0.27543627962 0.27541118103 0.27536660421 0.27533030162 
0.27529115274 0.27524927448 0.27520497328 0.27515844789 0.27510987122 0.27505941227 0.27598737382 0.27596234682 0.27591903994 
0.27588204795 0.27584241677 0.27580031926 0.2757559417 0.27570947785 0.27566110101 0.27561092994 0.2763457192 0.27631940135 
0.27627744002 0.27624197804 0.27620362662 0.27616262002 0.27611914551 0.27607342774 0.27602562252 0.27597589054 0.27651031103 
0.2764829743 0.27644215616 0.27640805803 0.27637087054 0.27633085236 0.27628820626 0.27624314129 0.27619586016 0.27614649305 
0.27645982873 0.27643174549 0.27639186931 0.27635901916 0.27632289832 0.27628376446 0.27624186148 0.27619739689 0.27615055407 
0.27610147519 0.26358905623 0.26355949651 0.26353123221 0.26349783777 0.26346129295 0.26342170941 0.26337918232 0.26333381864 
0.26328572439 0.26323498298 0.26503172463 0.26500192755 0.26497068217 0.26493702827 0.26490025093 0.26486049312 0.26481785702 
0.26477247159 0.26472445235 0.26467389056 0.26627118093 0.26624140304 0.26620690778 0.2661728233 0.26613567081 0.26609561045 
0.26605275638 0.26600724682 0.26595921494 0.2659087694 0.26731933602 0.26728980644 0.26725183605 0.26721716031 0.26717948249 
0.26713898373 0.26709578103 0.26705005434 0.26700192572 0.26695149791 0.26818399663 0.26815496278 0.26811327399 0.26807782846 
0.2680394529 0.2679983667 0.26795471247 0.26790865568 0.26786031809 0.26780984284 0.26886805141 0.26883984466 0.2687941432 
0.26875774687 0.26871854937 0.26867674178 0.26863250523 0.26858598388 0.26853734623 0.2684867176 0.2693604182 0.26933199773 
0.26928696227 0.26925044007 0.26921123842 0.26916957998 0.26912557146 0.26907935883 0.26903109628 0.26898088956 0.26964973469 
0.26962034207 0.26957649081 0.26954124875 0.26950314296 0.26946238201 0.2694191536 0.26937358094 0.269325816 0.26927595995 
0.26973573357 0.26970558624 0.26966271158 0.2696286089 0.26959150578 0.26955159637 0.26950906243 0.2694640706 0.26941672731 
0.26936719173 0.26960139444 0.26957070785 0.26952863421 0.26949559431 0.26945940495 0.2694202649 0.26937836127 0.26933386166 
0.26928690673 0.26923761334 
field 3 2000 double
0.0022788369255 -0.33797790669 0.041823617135 0.0027038452156 -0.33827104575 0.040979203105 0.0029271738398 -0.33868828047 0.039908220091 
0.0029809421491 -0.33915703557 0.038687409736 0.0027586488185 -0.33966431986 0.037527973397 0.0024108991097 -0.34013953206 0.03653783756 
0.0020253147034 -0.34050891502 0.035658057547 0.0015247493711 -0.34072345525 0.034767219128 0.00072495762274 -0.34077223964 0.033912999204 
-0.00050248201481 -0.34067770291 0.033432943572 0.0019001954724 -0.27992947716 0.12923127086 0.0022438677935 -0.28043138266 0.12854688859 
0.002351977428 -0.28105477755 0.12770449345 0.0023691619202 -0.28173866653 0.12678233453 0.0021555498068 -0.28243346986 0.12595011508 
0.0019008735515 -0.2830604586 0.12525425124 0.001646877742 -0.28356867418 0.12459561094 0.0012998975149 -0.28394878687 0.12384312557 
0.0006674576403 -0.28418539552 0.12305491461 -0.00040930093149 -0.28421806879 0.12257799125 0.0014202947178 -0.20430154141 0.1933131716 
0.0016321129255 -0.20489513914 0.19284560287 0.001642614263 -0.2056468354 0.19229662249 0.0016269560315 -0.20642111113 0.19171334532 
0.0014727507662 -0.20715615959 0.19120154525 0.001307219599 -0.20779783609 0.19077449425 0.0011648439377 -0.20836825001 0.19034155191 
0.00093622143753 -0.20882120334 0.18980349755 0.00045347341127 -0.20917587358 0.18922109549 -0.00038978999404 -0.20930683495 0.18887768422 
0.00086687675049 -0.11999433622 0.23383989273 0.00097971190364 -0.12062723544 0.23358724428 0.00090048827891 -0.12136922703 0.23330689143 
0.00086892261796 -0.12214214194 0.23300852396 0.00078563451261 -0.122841486 0.23274967973 0.00071740616768 -0.12347889633 0.23252333855 