# vtk DataFile Version 5.1
vtk output
ASCII
DATASET STRUCTURED_POINTS
DIMENSIONS 50 50 50
SPACING 0.002 0.002 0.002
ORIGIN 0.1742 -0.052672 0.02732
POINT_DATA 125000
FIELD FieldData 1
potential 1 125000 double
0.00035464343521 0.00035342885091 0.00035222247281 0.00035102471551 0.00034983504592 0.00034865330869 0.00034747970035 0.00034631376562 0.00034515540702 
0.00034400445892 0.00034286090113 0.00034172479929 0.00034059641813 0.00033947518475 0.0003383614278 0.00033725554094 0.00033615633911 0.0003350646245 
0.0003339802996 0.00033290304751 0.0003318329739 0.00033076956951 0.00032971281632 0.0003286623586 0.00032761859794 0.00032658147995 0.00032555094539 
0.00032452736236 0.00032351041055 0.00032250038137 0.00032149720346 0.00032050115641 0.00031951189147 0.00031852940973 0.00031755352721 0.00031658443188 
0.00031562186015 0.00031466544241 0.00031371528879 0.00031277048665 0.00031183206168 0.00031089937093 0.00030997261862 0.00030905167871 0.00030813647045 
0.00030722702356 0.00030632325876 0.00030542515657 0.00030453242063 0.00030364514663 0.000356183646 0.00035495903277 0.00035374357071 0.00035253597354 
0.00035133711357 0.00035014618804 0.0003489627646 0.00034778757789 0.00034661999081 0.00034546005345 0.00034430752117 0.00034316272168 0.00034202562386 
0.00034089583337 0.00033977359751 0.00033865915088 0.00033755220225 0.00033645257216 0.00033536019292 0.00033427509509 0.00033319721636 0.00033212627823 
0.00033106209687 0.00033000435864 0.00032895347142 0.00032790938242 0.00032687207059 0.00032584154501 0.00032481808738 0.00032380155476 0.0003227920716 
0.00032178975036 0.00032079435232 0.00031980581936 0.00031882421894 0.00031784927272 0.00031688097303 0.00031591892309 0.00031496304237 0.00031401296277 
0.00031306901257 0.00031213102917 0.00031119902391 0.00031027266201 0.00030935229323 0.00030843761035 0.00030752871136 0.00030662550213 0.0003057276767 
0.00030483527823 0.00035756182813 0.00035632787748 0.00035510324507 0.0003538869723 0.0003526792078 0.00035147954203 0.00035028765072 0.0003491034953 
0.00034792748402 0.00034675894669 0.00034559831966 0.00034444523886 0.00034329994568 0.00034216206478 0.00034103190974 0.00033990928312 0.00033879471027 
0.00033768788488 0.00033658818323 0.00033549587095 0.00033441076158 0.0003333327218 0.00033226142466 0.00033119693588 0.00033013950714 0.00032908885163 
0.0003280450589 0.00032700820029 0.00032597861879 0.00032495592176 0.00032394049429 0.00032293236037 0.00032193126033 0.00032093713631 0.00031994982845 
0.00031896957852 0.00031799599266 0.00031702868109 0.00031606743099 0.00031511254022 0.00031416360142 0.00031322065471 0.00031228372073 0.00031135265454 
0.00031042740051 0.0003095080093 0.00030859424794 0.00030768624092 0.00030678374895 0.00030588660751 0.00035875851054 0.00035751627813 0.00035628345341 
0.00035505888278 0.00035384281671 0.00035263512687 0.000351435203 0.00035024316434 0.00034905903942 0.00034788274769 0.00034671432187 0.00034555342023 
0.00034440077924 0.00034325563913 0.00034211819501 0.0003409885243 0.00033986681822 0.00033875271731 0.0003376460773 0.00033654721802 0.00033545545584 
0.00033437093933 0.0003332931942 0.00033222252207 0.00033115897822 0.00033010222135 0.00032905249576 0.00032800980019 0.00032697438301 0.00032594616402 
0.00032492525397 0.00032391166606 0.00032290537418 0.00032190619655 0.00032091380376 0.00031992856099 0.00031895004088 0.00031797784969 0.00031701174729 
0.00031605257692 0.00031509916837 0.00031415190462 0.00031321030342 0.00031227495361 0.00031134540531 0.00031042159103 0.00030950358989 0.00030859133175 
0.00030768455068 0.0003067831404 0.00035975983727 0.00035851011256 0.00035726975996 0.00035603760153 0.00035481412095 0.00035359890644 0.00035239175842 
0.00035119266631 0.00035000163982 0.00034881787073 0.00034764238373 0.00034647463687 0.00034531517528 0.00034416303143 0.00034301891416 0.00034188273614 
0.00034075453722 0.00033963409394 0.00033852117471 0.00033741600353 0.00033631839755 0.00033522790217 0.00033414428209 0.00033306782149 0.00033199880726 
0.00033093657594 0.00032988138369 0.00032883363371 0.00032779292992 0.00032675971995 0.00032573375803 0.00032471526087 0.00032370417293 0.00032270019785 
0.00032170340399 0.00032071371845 0.00031973073783 0.00031875431871 0.00031778404563 0.00031682072207 0.00031586342849 0.00031491203392 0.00031396670182 
0.000313027459 0.00031209399923 0.00031116640923 0.0003102445779 0.0003093285124 0.00030841806105 0.00030751283342 0.00036055683089 0.00035930023425 
0.00035805345272 0.00035681435096 0.00035558413949 0.00035436228172 0.00035314865083 0.00035194296785 0.00035074560438 0.00034955540257 0.00034837343566 
0.00034719950239 0.00034603389369 0.0003448756346 0.00034372533693 0.00034258343946 0.00034144956415 0.00034032349546 0.00033920502035 0.0003380942466 
0.00033699112202 0.00033589540294 0.00033480653051 0.00033372491964 0.00033265072761 0.00033158359457 0.00033052352766 0.00032947100857 0.00032842570301 
0.00032738795647 0.00032635756533 0.00032533469283 0.0003243194309 0.0003233114354 0.00032231059327 0.00032131701782 0.00032033035339 0.00031935002227 
0.00031837623256 0.00031740927302 0.00031644849368 0.00031549367965 0.00031454488931 0.00031360226082 0.00031266555481 0.00031173464496 0.00031080962669 
0.00030989030517 0.00030897659732 0.00030806820412 0.00036114620345 0.00035988365932 0.00035863060519 0.00035738586991 0.00035614975168 0.00035492203542 
0.00035370228928 0.00035249100121 0.0003512878215 0.00035009238109 0.00034890427696 0.00034772491832 0.00034655366469 0.00034539026664 0.000344234758 
0.00034308753802 0.00034194842556 0.00034081750035 0.00033969405354 0.00033857842717 0.00033747045522 0.00033636977891 0.00033527659791 0.00033419043721 
0.00033311194312 0.00033204049679 0.00033097611158 0.00032991944614 0.00032886996216 0.00032782810952 0.00032679399819 0.00032576742715 0.00032474838826 
0.00032373686296 0.00032273253474 0.00032173548953 0.0003207453467 0.00031976190162 0.00031878515628 0.00031781525924 0.00031685153899 0.00031589380697 
0.00031494224121 0.00031399692946 0.00031305747548 0.00031212385941 0.00031119607865 0.00031027405358 0.00030935761097 0.00030844651905 0.00036153009282 
0.00036026222932 0.00035900333169 0.00035775386133 0.00035651246407 0.00035527962106 0.00035405506427 0.00035283860756 0.00035163048065 0.00035043022551 
0.00034923784136 0.00034805309446 0.00034687709286 0.00034570884623 0.00034454888595 0.00034339715504 0.00034225363569 0.0003411180768 0.00033999027054 
0.00033887059363 0.00033775836252 0.00033665371685 0.00033555628901 0.00033446647845 0.00033338400985 0.00033230869205 0.00033124076673 0.0003301803407 
0.00032912739185 0.00032808218121 0.0003270447369 0.00032601478167 0.00032499257146 0.00032397800079 0.00032297072196 0.00032197090303 0.00032097793444 
0.00031999176353 0.00031901275642 0.00031804040007 0.00031707423127 0.00031611423882 0.00031516036244 0.00031421280108 0.00031327107123 0.00031233528928 
0.00031140539611 0.00031048117053 0.00030956254345 0.00030864932764 0.00036171600166 0.00036044352578 0.00035918005273 0.00035792608744 0.00035668027318 
0.00035544309088 0.00035421426862 0.00035299369524 0.00035178118761 0.00035057667406 0.00034938010361 0.00034819172729 0.00034701124655 0.00034583905673 
0.00034467511069 0.00034351949643 0.00034237207892 0.00034123267029 0.00034010128015 0.00033897772867 0.00033786201372 0.00033675388934 0.00033565320795 
0.00033455977089 0.00033347388986 0.00033239552206 0.00033132458331 0.00033026105759 0.00032920511525 0.00032815697571 0.00032711663812 0.00032608397255 
0.00032505918216 0.00032404197193 0.00032303239726 0.00032203013783 0.00032103492104 0.0003200470524 0.00031906595074 0.00031809149955 0.0003171232587 
0.00031616148621 0.00031520604369 0.00031425669341 0.00031331326898 0.00031237590917 0.00031144440204 0.00031051853517 0.00030959814511 0.00030868306162 
0.00036171672076 0.00036044036051 0.00035917315733 0.00035791537675 0.000356666009 0.00035542513482 0.00035419278018 0.00035296856363 0.000351752413 
0.00035054427099 0.00034934428309 0.00034815255878 0.00034696855382 0.00034579276053 0.00034462564653 0.00034346670855 0.00034231589306 0.00034117337165 
0.00034003884175 0.00033891227603 0.00033779337832 0.00033668246584 0.00033557903178 0.00033448280407 0.00033339398658 0.00033231280453 0.00033123943087 
0.00033017332619 0.00032911496303 0.00032806436932 0.00032702167553 0.00032598683133 0.00032495979229 0.00032394055634 0.0003229290061 0.00032192494396 
0.00032092818954 0.00031993868256 0.00031895600724 0.00031797996667 0.00031701048419 0.0003160473639 0.00031509059482 0.00031414000123 0.00031319539344 
0.00031225695674 0.00031132422606 0.00031039702168 0.00030947548141 0.00030855899999 0.0003615504535 0.00036027083842 0.00035900040417 0.00035773954678 
0.00035648706555 0.00035524306822 0.00035400765327 0.00035278049892 0.0003515614109 0.0003503502198 0.00034914727111 0.00034795276855 0.000346766211 
0.00034558760599 0.00034441751678 0.00034325586747 0.00034210229792 0.00034095710893 0.00033982000588 0.00033869081364 0.00033756953504 0.0003364560653 
0.00033535004238 0.00033425168593 0.00033316080958 0.00033207734482 0.00033100143814 0.00032993359966 0.00032887319301 0.00032782063128 0.00032677598958 
0.00032573947756 0.00032471064423 0.00032368980375 0.00032267653152 0.00032167107784 0.00032067327107 0.00031968245343 0.00031869879612 0.00031772160634 
0.00031675118652 0.00031578732721 0.00031482973855 0.00031387831167 0.00031293297663 0.0003119936868 0.0003110601083 0.00031013207921 0.00030920955983 
0.00030829229377 0.00036123937686 0.00035995706109 0.00035868407036 0.0003574204429 0.00035616543112 0.00035491910935 0.00035368101569 0.00035245151688 
0.00035122988986 0.00035001636833 0.00034881108796 0.00034761429247 0.00034642533224 0.00034524486161 0.00034407239891 0.00034290841096 0.00034175261455 
0.00034060509558 0.00033946587777 0.00033833449975 0.00033721127292 0.00033609578308 0.00033498785486 0.00033388745089 0.00033279461176 0.00033170940668 
0.00033063185535 0.00032956200954 0.00032850029533 0.00032744621928 0.00032640004174 0.00032536201111 0.00032433194547 0.00032330979858 0.0003222955235 
0.00032128897198 0.00032029012384 0.00031929850179 0.00031831407745 0.00031733632358 0.00031636530048 0.00031540085211 0.0003144427759 0.00031349092426 
0.00031254522724 0.00031160545948 0.0003106713764 0.00030974284318 0.00030881965003 0.00030790190946 0.00036080969287 0.00035952490301 0.0003582497795 
0.00035698427275 0.00035572705026 0.00035447867797 0.00035323874939 0.00035200692372 0.00035078334758 0.0003495679766 0.00034836080237 0.00034716196832 
0.00034597131568 0.00034478906095 0.00034361481192 0.00034244905034 0.00034129152952 0.00034014208237 0.00033900099202 0.00033786802333 0.00033674310203 
0.00033562597819 0.00033451631716 0.00033341444476 0.00033232022721 0.00033123341879 0.00033015442417 0.00032908328993 0.00032801997922 0.00032696491701 
0.00032591771228 0.00032487850586 0.00032384727314 0.00032282412867 0.0003218090737 0.00032080165822 0.00031980219249 0.00031881005105 0.00031782508203 
0.00031684683741 0.00031587550591 0.00031491085722 0.00031395260254 0.00031300057586 0.00031205476663 0.00031111488245 0.00031018067791 0.00030925182592 
0.00030832842357 0.000307410308 0.00036029027758 0.00035900383596 0.00035772684926 0.00035645959585 0.00035520066379 0.00035395062231 0.00035270905619 
0.00035147562649 0.00035025040098 0.00034903335191 0.00034782476504 0.00034662454843 0.00034543226009 0.00034424853345 0.00034307329666 0.00034190556714 
0.00034074655796 0.00033959551092 0.00033845309627 0.00033731858913 0.00033619220341 0.00033507367185 0.00033396283154 0.00033285946046 0.000331763927 
0.00033067606368 0.000329595991 0.00032852379651 0.0003274594788 0.00032640319806 0.00032535516322 0.00032431513279 0.00032328300699 0.00032225903992 
0.00032124328876 0.00032023541835 0.00031923544243 0.00031824289963 0.00031725758421 0.00031627917455 0.00031530768758 0.00031434296901 0.00031338485538 
0.00031243281197 0.00031148698616 0.00031054716393 0.00030961303874 0.00030868417313 0.00030776051019 0.00030684232171 0.00035971246572 0.00035842459384 
0.00035714619019 0.00035587690228 0.00035461709183 0.00035336569773 0.00035212262129 0.00035088771189 0.00034966143901 0.00034844308564 0.00034723291668 
0.00034603149686 0.00034483809528 0.00034365284389 0.00034247623535 0.00034130789942 0.00034014719687 0.00033899530125 0.00033785148969 0.00033671578878 
0.00033558830998 0.00033446871274 0.00033335624362 0.00033225196233 0.00033115534149 0.00033006638264 0.00032898525597 0.0003279122496 0.00032684692311 
0.00032578970904 0.0003247407966 0.00032369992452 0.00032266730286 0.00032164277206 0.00032062631913 0.00031961795025 0.00031861758442 0.00031762486272 
0.0003166392582 0.0003156609258 0.00031468945796 0.00031372476131 0.00031276667807 0.00031181488705 0.00031086902483 0.000309929353 0.00030899515513 
0.00030806649137 0.00030714290647 0.00030622446692 0.00035910822708 0.00035781940217 0.00035653981991 0.00035526912167 0.00035400830473 0.00035275564207 
0.00035151122399 0.00035027523762 0.00034904775785 0.00034782844899 0.00034661700241 0.0003454144499 0.00034421973511 0.00034303339467 0.00034185574185 
0.00034068623844 0.00033952452558 0.00033837167212 0.0003372267538 0.0003360899127 0.00033496136488 0.00033384065073 0.00033272742156 0.0003316219199 
0.00033052445635 0.00032943448195 0.00032835224974 0.00032727821906 0.00032621221487 0.0003251541657 0.00032410429856 0.00032306269819 0.00032202951192 
0.00032100435324 0.00031998725289 0.00031897855039 0.00031797780665 0.00031698481985 0.0003159990228 0.00031502057894 0.00031404911439 0.00031308450144 
0.00031212647953 0.00031117470046 0.00031022896357 0.0003092892466 0.00030835512115 0.00030742622499 0.00030650293563 0.00030558441038 0.00035851040289 
0.0003572203577 0.00035593968735 0.00035466805269 0.00035340581386 0.00035215197969 0.00035090670923 0.00034966945417 0.0003484408325 0.00034722035585 
0.0003460081606 0.00034480429261 0.00034360857181 0.00034242120288 0.0003412424079 0.00034007188376 0.00033890960077 0.00033775516305 0.0003366093325 
0.00033547141305 0.00033434182991 0.00033322025103 0.00033210601222 0.00033099951089 0.00032990093294 0.00032880988668 0.00032772679897 0.00032665178432 
0.0003255845813 0.00032452569099 0.00032347502522 0.00032243254571 0.00032139865849 0.0003203727146 0.00031935526955 0.00031834599777 0.00031734481155 
0.00031635132929 0.00031536532703 0.00031438660289 0.00031341509967 0.00031245042082 0.00031149227792 0.00031054040487 0.00030959451825 0.0003086549321 
0.00030772064645 0.0003067916992 0.00030586814027 0.00030494950052 0.00035794992309 0.00035665860745 0.00035537693687 0.00035410396575 0.00035284069313 
0.00035158569414 0.00035033929092 0.00034910112001 0.00034787137671 0.00034664950603 0.0003454362715 0.00034423132391 0.00034303452688 0.00034184604547 
0.00034066615877 0.00033949450791 0.00033833112134 0.00033717605349 0.00033602874171 0.00033488989453 0.00033375924678 0.00033263648949 0.00033152097521 
0.0003304135691 0.00032931390693 0.000328221708 0.00032713744435 0.00032606110211 0.00032499278549 0.00032393295082 0.00032288128307 0.00032183785542 
0.00032080281216 0.00031977632432 0.00031875800292 0.00031774813066 0.00031674640611 0.00031575240308 0.00031476589368 0.00031378683263 0.00031281501926 
0.0003118496672 0.0003108913231 0.00030993915306 0.00030899315888 0.00030805301636 0.00030711853782 0.00030618918465 0.00030526524388 0.00030434619232 
0.00035745588479 0.00035616349708 0.00035488014137 0.00035360599044 0.00035234156772 0.00035108550219 0.00034983768811 0.0003485983712 0.00034736735208 
0.00034614443619 0.00034492976414 0.00034372354719 0.00034252554417 0.00034133602748 0.00034015465449 0.00033898183182 0.00033781736921 0.00033666102478 
0.00033551247799 0.00033437252732 0.00033324083675 0.0003321162451 0.00033099984495 0.0003298909211 0.00032879005552 0.00032769654566 0.0003266110334 
0.00032553335966 0.00032446376229 0.00032340265439 0.00032234976558 0.00032130515742 0.00032026894017 0.00031924133093 0.00031822195977 0.00031721105406 
0.00031620875862 0.00031521381176 0.00031422663157 0.00031324684106 0.00031227422789 0.00031130813312 0.00031034905675 0.00030939645959 0.00030844981702 
0.00030750882292 0.0003065736886 0.00030564388835 0.00030471910289 0.00030379953599 0.00035705423679 0.00035576057833 0.000354475831 0.00035320021254 
0.00035193464059 0.00035067700403 0.00034942780637 0.00034818698995 0.00034695435531 0.00034573016923 0.00034451422196 0.00034330643485 0.00034210708089 
0.00034091608041 0.00033973343721 0.00033855909758 0.00033739305821 0.00033623545016 0.00033508585336 0.00033394398142 0.00033281086291 0.00033168511567 
0.00033056693564 0.00032945680306 0.00032835404024 0.00032725913772 0.0003261717351 0.00032509283849 0.00032402161879 0.00032295876054 0.00032190417605 
0.00032085801059 0.00031982066517 0.00031879156984 0.00031777077696 0.00031675882261 0.00031575502789 0.00031475906046 0.00031377073438 0.00031278984566 
0.00031181591001 0.00031084887175 0.00030988872476 0.00030893504384 0.0003079872276 0.00030704521126 0.00030610895308 0.00030517807456 0.00030425234305 
0.00030333167262 0.00035676838522 0.00035547300978 0.00035418654032 0.00035290930994 0.00035164202686 0.00035038267553 0.00034913177938 0.0003478893858 
0.00034665503332 0.00034542911337 0.00034421147826 0.0003430021318 0.00034180114102 0.00034060828078 0.00033942386451 0.00033824790767 0.00033708021288 
0.00033592094406 0.00033476982253 0.0003336266091 0.00033249131146 0.00033136380826 0.00033024400997 0.0003291316173 0.00032802706269 0.00032693011598 
0.00032584092939 0.00032475978401 0.00032368688358 0.00032262228671 0.00032156565047 0.00032051744358 0.00031947823889 0.00031844756034 0.00031742517516 
0.00031641151458 0.00031540589859 0.00031440815249 0.00031341847226 0.00031243591627 0.00031146041459 0.00031049199959 0.00030953011458 0.00030857469121 
0.00030762525115 0.0003066817451 0.00030574404407 0.00030481152963 0.0003038843823 0.00030296231708 0.00035661715261 0.00035531977646 0.00035403149624 
0.0003527525103 0.00035148293546 0.0003502214676 0.00034896847721 0.00034772408173 0.00034648794121 0.0003452599599 0.00034404040979 0.00034282893915 
0.00034162580916 0.00034043105275 0.00033924449631 0.00033806676389 0.00033689710769 0.00033573564264 0.00033458249878 0.00033343729628 0.0003322999557 
0.00033117021779 0.00033004827251 0.00032893373112 0.0003278267179 0.00032672766751 0.00032563604607 0.00032455262715 0.00032347746916 0.00032241019973 
0.00032135119802 0.00032030100073 0.00031925961767 0.00031822652191 0.00031720190866 0.00031618628734 0.00031517845991 0.0003141786347 0.00031318667981 
0.00031220232835 0.00031122471138 0.00031025411463 0.00030928987428 0.00030833230088 0.00030738084557 0.00030643514756 0.00030549527346 0.00030456088308 
0.00030363175274 0.00030270761092 0.00035661611531 0.00035531652111 0.00035402573664 0.00035274431652 0.00035147213361 0.00035020883495 0.00034895349268 
0.00034770645183 0.00034646799575 0.00034523777599 0.00034401570885 0.00034280173018 0.00034159627752 0.00034039924293 0.00033921056584 0.0003380301538 
0.00033685819208 0.00033569438123 0.00033453887988 0.00033339129427 0.00033225152679 0.0003311188544 0.00032999443818 0.00032887742466 0.00032776785985 
0.00032666582418 0.00032557138553 0.00032448509777 0.0003234070096 0.00032233701073 0.00032127543592 0.00032022261686 0.00031917826139 0.00031814272965 
0.00031711559837 0.00031609698105 0.00031508668958 0.00031408418754 0.00031308957708 0.00031210216423 0.0003111221061 0.00031014856424 0.00030918167718 
0.00030822128766 0.00030726697229 0.00030631867705 0.00030537609651 0.00030443899925 0.0003035072946 0.00030258073409 0.00035677761481 0.00035547496621 
0.00035418153356 0.00035289718421 0.00035162206319 0.00035035604377 0.00034909800188 0.0003478484703 0.00034660712248 0.00034537389255 0.0003441490042 
0.00034293222653 0.00034172408997 0.00034052435958 0.00033933293508 0.00033814989637 0.00033697490242 0.00033580836224 0.00033464983104 0.00033349943863 
0.00033235676031 0.00033122100466 0.00033009359139 0.00032897381683 0.00032786085203 0.00032675563817 0.00032565800672 0.00032456842735 0.00032348695377 
0.00032241354333 0.00032134896842 0.00032029279145 0.00031924538538 0.00031820668072 0.00031717636037 0.00031615467857 0.00031514090786 0.00031413513802 
0.00031313724165 0.00031214653765 0.00031116267471 0.00031018593887 0.00030921572903 0.0003082517958 0.00030729420544 0.00030634267571 0.00030539673038 
0.00030445648684 0.00030352144253 0.00030259161175 0.00035711013252 0.00035580415487 0.00035450759027 0.00035321975798 0.00035194147906 0.0003506722669 
0.00034941067471 0.00034815792455 0.00034691351505 0.00034567730134 0.00034444878901 0.00034322894718 0.0003420175281 0.00034081470344 0.00033962006328 
0.00033843374656 0.00033725558564 0.00033608569073 0.00033492380212 0.00033376978493 0.00033262387104 0.00033148523619 0.00033035391232 0.00032923034115 
0.00032811410589 0.00032700495475 0.00032590360761 0.00032481037823 0.00032372509351 0.00032264804855 0.00032157985634 0.00032051987951 0.00031946883114 
0.00031842621577 0.00031739202555 0.00031636649022 0.00031534916689 0.00031433921962 0.00031333732482 0.0003123425889 0.00031135490476 0.00031037365996 
0.00030939962072 0.00030843182491 0.00030747028962 0.00030651463117 0.00030556505136 0.00030462060644 0.0003036816889 0.00030274812905 0.00035761995603 
0.00035631014731 0.00035500960042 0.0003537182458 0.00035243609459 0.00035116295047 0.00034989792189 0.00034864152595 0.00034739302995 0.00034615302832 
0.00034492125911 0.00034369792141 0.00034248265086 0.00034127592386 0.00034007750923 0.00033888746569 0.00033770570261 0.00033653190244 0.0003353662877 
0.00033420843383 0.00033305854736 0.00033191604808 0.00033078112496 0.00032965302893 0.00032853255484 0.00032741948267 0.00032631420007 0.0003252165211 
0.00032412698394 0.00032304576373 0.0003219730838 0.00032090897832 0.00031985340446 0.00031880635946 0.00031776815644 0.00031673803742 0.00031571608956 
0.00031470177945 0.00031369529416 0.000312695598 0.00031170325994 0.00031071766643 0.00030973872914 0.00030876626369 0.00030780032767 0.00030684014457 
0.00030588556118 0.00030493669397 0.00030399334106 0.00030305538002 0.00035831083639 0.00035699694613 0.00035569192834 0.00035439628867 0.00035310955416 
0.00035183225205 0.00035056291688 0.00034930230674 0.00034804989722 0.00034680559624 0.00034556946229 0.00034434186808 0.00034312258329 0.00034191163989 
0.00034070878669 0.00033951438857 0.0003383286769 0.00033715068153 0.00033598064314 0.00033481860853 0.00033366410562 0.00033251718953 0.0003313775752 
0.00033024498489 0.00032912001586 0.00032800229624 0.00032689230038 0.00032578997722 0.00032469564747 0.00032360980593 0.00032253202672 0.00032146311828 
0.00032040282315 0.00031935091747 0.00031830742969 0.00031727229841 0.00031624523232 0.00031522559014 0.00031421380748 0.0003132090732 0.00031221133176 
0.00031122025759 0.00031023607372 0.00030925833406 0.00030828702019 0.00030732132821 0.00030636173751 0.00030540798625 0.00030445962075 0.00030351678692 
0.00035918487834 0.00035786603437 0.00035655599585 0.00035525529379 0.00035396381068 0.00035268163082 0.00035140765144 0.00035014233576 0.00034888518527 
0.00034763617375 0.00034639532108 0.00034516262883 0.00034393841639 0.00034272287381 0.00034151553733 0.00034031642204 0.00033912562809 0.0003379429836 
0.00033676825645 0.00033560128688 0.00033444176278 0.00033328976684 0.00033214540236 0.00033100802877 0.00032987757409 0.00032875459986 0.00032763936378 
0.00032653158379 0.00032543238298 0.00032434094797 0.00032325801779 0.00032218372411 0.00032111802689 0.00032006038203 0.00031901139793 0.00031797031531 
0.00031693736794 0.00031591206456 0.00031489444282 0.00031388379724 0.00031288016636 0.00031188301367 0.00031089286094 0.00030990906458 0.00030893159621 
0.00030796030742 0.00030699513664 0.00030603554455 0.00030508173135 0.0003041333668 0.00036024160568 0.00035891685764 0.00035760150554 0.00035629534292 
0.00035499838377 0.00035371095072 0.00035243142804 0.00035116066705 0.00034989839936 0.00034864398174 0.00034739770521 0.00034615984764 0.00034493035108 
0.00034370945494 0.0003424968033 0.0003412924185 0.0003400966199 0.00033890837903 0.0003377280803 0.00033655571276 0.0003353909726 0.00033423351715 
0.0003330833795 0.00033194057668 0.0003308044597 0.00032967573731 0.00032855473452 0.00032744123538 0.00032633616707 0.00032523923144 0.0003241502584 
0.0003230697132 0.00032199780915 0.00032093414392 0.00031987892515 0.00031883159294 0.00031779231814 0.00031676048264 0.0003157364153 0.00031471926527 
0.00031370913103 0.00031270550143 0.00031170852818 0.00031071811512 0.00030973419955 0.00030875645399 0.00030778473232 0.00030681925782 0.00030585936109 
0.00030490525724 0.00036147840305 0.00036014744505 0.00035882623558 0.00035751406021 0.00035621113156 0.00035491763156 0.00035363223635 0.00035235543161 
0.00035108724427 0.00034982694883 0.00034857480137 0.00034733117828 0.00034609567609 0.00034486879043 0.00034365010919 0.00034243978577 0.00034123772314 
0.00034004394195 0.0003388579075 0.00033767948756 0.0003365088605 0.00033534542121 0.00033418931247 0.0003330402995 0.00033189830384 0.00033076305439 
0.00032963573883 0.0003285162501 0.00032740447898 0.00032630100748 0.00032520562139 0.00032411856086 0.00032303996532 0.00032196974154 0.0003209077993 
0.0003198537079 0.00031880743988 0.00031776868712 0.00031673739104 0.00031571329686 0.00031469586368 0.00031368515106 0.00031268118933 0.00031168348417 
0.00031069235837 0.00030970764017 0.00030872907257 0.0003077568369 0.00030679058248 0.00030583032022 0.00036289122467 0.00036155364651 0.00036022534247 
0.00035890668631 0.00035759722558 0.0003562971014 0.00035500544672 0.00035372225385 0.00035244712681 0.00035118024827 0.00034992174652 0.00034867148563 
0.00034742954353 0.00034619612193 0.00034497095864 0.00034375403094 0.0003425455687 0.00034134520093 0.00034015273683 0.00033896794138 0.00033779066529 
0.00033662079625 0.0003354581853 0.00033430255342 0.00033315383215 0.00033201259323 0.00033087779284 0.00032975140071 0.00032863281466 0.00032752225614 
0.00032642001918 0.0003253260262 0.00032424005855 0.00032316246882 0.00032209306611 0.00032103168726 0.0003199780732 0.00031893201968 0.00031789337141 
0.00031686148511 0.00031583623729 0.00031481786257 0.0003138060584 0.0003128010174 0.00031180235652 0.00031081026658 0.0003098244257 0.000308844849 
0.00030787181546 0.00030690464894 0.00036447329473 0.00036312841834 0.00036179298271 0.00036046681494 0.00035914984112 0.00035784265146 0.0003565435201 
0.00035525317978 0.00035397101562 0.00035269713824 0.00035143137734 0.00035017399095 0.00034892509429 0.00034768454179 0.00034645235416 0.00034522831081 
0.00034401266571 0.000342805199 0.00034160557469 0.00034041366125 0.00033922938566 0.00033805215597 0.00033688258433 0.00033572008253 0.00033456450523 
0.00033341557739 0.00033227395847 0.00033114028065 0.00033001439981 0.00032889639008 0.00032778638707 0.00032668484881 0.00032559120732 0.00032450577674 
0.00032342869343 0.00032235934443 0.00032129777303 0.00032024346286 0.00031919673522 0.0003181567664 0.00031712344537 0.00031609719233 0.0003150775856 
0.00031406452359 0.00031305824271 0.00031205811734 0.00031106461014 0.00031007754921 0.00030909697863 0.00030812267732 0.00036621459546 0.00036486138219 
0.00036351787762 0.00036218361946 0.00036085901902 0.00035954338163 0.00035823668169 0.00035693865685 0.00035564888755 0.00035436736348 0.00035309399853 
0.00035182906859 0.00035057252814 0.00034932457194 0.00034808478586 0.00034685323169 0.00034563000021 0.00034441463868 0.00034320714785 0.00034200762 
0.00034081560274 0.00033963112025 0.00033845370186 0.00033728332719 0.00033612004436 0.00033496359558 0.00033381458302 0.00033267280972 0.00033153919528 
0.00033041348875 0.00032929546583 0.00032818575335 0.0003270841555 0.00032599038755 0.00032490452989 0.00032382705743 0.00032275706271 0.00032169424089 
0.00032063890653 0.00031959063811 0.0003185490672 0.00031751419269 0.00031648622666 0.0003154651202 0.00031445056679 0.00031344248923 0.00031244078692 
0.00031144592595 0.00031045744058 0.00030947528091 0.00036810101211 0.00036673926475 0.00036538703947 0.00036404452149 0.00036271109427 0.00036138714163 
0.00036007217568 0.00035876574619 0.00035746787869 0.00035617793204 0.00035489639251 0.00035362339573 0.00035235884292 0.00035110258469 0.00034985453625 
0.00034861472698 0.00034738329711 0.00034616001485 0.00034494430662 0.00034373645466 0.00034253651295 0.00034134391974 0.00034015811077 0.00033897966683 
0.0003378081797 0.00033664376413 0.00033548680667 0.00033433649542 0.00033319473639 0.00033206062441 0.0003309344902 0.00032981627942 0.00032870606604 
0.00032760370795 0.00032650922366 0.00032542281637 0.00032434402572 0.00032327263852 0.00032220845751 0.00032115136227 0.00032010103252 0.00031905740919 
0.000318020679 0.00031699090163 0.00031596785428 0.00031495164086 0.00031394181234 0.00031293835894 0.00031194195697 0.00031095188771 0.00037011626174 
0.00036874502209 0.00036738377204 0.00036603198949 0.00036468962994 0.00036335662162 0.00036203293247 0.00036071758736 0.00035941076047 0.00035811218091 
0.00035682204359 0.00035554043564 0.00035426709781 0.00035300203605 0.00035174534289 0.00035049671491 0.00034925677562 0.00034802463118 0.00034680025612 
0.00034558401227 0.00034437542293 0.00034317420489 0.00034198011236 0.00034079295611 0.00033961304617 0.00033844005349 0.00033727440484 0.0003361164652 
0.0003349652974 0.00033382244783 0.00033268735401 0.00033156040943 0.00033044138057 0.00032933028469 0.00032822678034 0.00032713146029 0.00032604361938 
0.00032496283102 0.00032388967355 0.0003228233894 0.00032176424334 0.00032071157726 0.00031966609753 0.00031862738218 0.00031759567092 0.00031657059244 