# vtk DataFile Version 5.1
vtk output
ASCII
DATASET STRUCTURED_POINTS
DIMENSIONS 50 50 50
SPACING 0.002 0.002 0.002
ORIGIN 0.1742 -0.052672 0.02732
POINT_DATA 125000
FIELD FieldData 1
potential 1 125000 double
0.00047716695448 0.00047486143471 0.00047256716307 0.00047028765347 0.00046802234298 0.00046577067251 0.00046353433905 0.00046131210271 0.00045910410499 
0.00045691037081 0.00045473123537 0.00045256712613 0.00045041902994 0.00044828620603 0.00044616983096 0.00044407139064 0.00044198909423 0.00043992524956 
0.00043788044968 0.00043585501906 0.00043385015744 0.000431866006 0.00042990360347 0.00042796328069 0.00042604710156 0.00042415594781 0.00042229092638 
0.00042045377166 0.00041864517655 0.00041686673671 0.00041511940364 0.00041340458823 0.00041172263445 0.00041007415122 0.00040845931746 0.00040687854146 
0.00040533119382 0.00040381609667 0.00040233235746 0.00040087715155 0.00039945006407 0.00039804787122 0.00039666827844 0.00039530827154 0.00039396482821 
0.00039263508017 0.00039131610662 0.00039000527035 0.0003886999013 0.00038739818309 0.00047891078198 0.00047659422099 0.00047429589873 0.0004720083533 
0.00046973591324 0.00046747729746 0.00046523169054 0.00046300167217 0.00046078571237 0.00045858415486 0.00045639709594 0.00045422522352 0.00045206922748 
0.0004499285385 0.00044780420258 0.00044569714878 0.00044360792495 0.00044153642169 0.00043948353978 0.00043745017965 0.00043543719157 0.00043344514975 
0.00043147476259 0.0004295265102 0.00042760241551 0.0004257033653 0.00042383052571 0.00042198510017 0.00042016867551 0.00041838215352 0.0004166268038 
0.0004149037468 0.00041321346837 0.00041155647182 0.00040993328223 0.00040834354966 0.0004067870531 0.00040526261089 0.00040376902514 0.00040230427697 
0.00040086706949 0.00039945491077 0.00039806528531 0.00039669509636 0.00039534195308 0.00039400262434 0.00039267452018 0.00039135498716 0.00039004137955 
0.00038873180206 0.00048040209897 0.00047807922641 0.00047577458284 0.00047348135861 0.00047120267744 0.00046893813202 0.00046668720446 0.00046444977909 
0.0004622277062 0.00046001967306 0.00045782652114 0.00045564828209 0.00045348575268 0.00045133854264 0.00044920772525 0.00044709363779 0.00044499768731 
0.00044292046221 0.0004408611682 0.00043882134247 0.00043680163226 0.0004348028438 0.0004328254635 0.00043087054647 0.00042893980988 0.00042703390248 
0.00042515409132 0.00042330166882 0.00042147833395 0.00041968462539 0.00041792213324 0.00041619185533 0.00041449423504 0.00041282978149 0.00041119864283 
0.00040960122038 0.00040803673022 0.00040650396096 0.00040500162785 0.00040352865067 0.00040208271428 0.00040066172036 0.00039926326532 0.0003978845054 
0.00039652271817 0.00039517515257 0.00039383887689 0.00039251158723 0.00039119075175 0.00038987421484 0.00048161164583 0.00047928457502 0.00047697579423 
0.00047467817873 0.00047239490396 0.00047012600564 0.00046787076765 0.00046562947683 0.00046340187896 0.00046118926867 0.0004589913863 0.00045680807756 
0.00045464102157 0.00045248922294 0.00045035359384 0.00044823474505 0.00044613374586 0.00044405074224 0.00044198623376 0.00043994183229 0.00043791682312 
0.00043591273548 0.00043392985909 0.00043196960113 0.0004300333903 0.00042812175324 0.00042623622367 0.0004243780223 0.00042254859048 0.00042074902721 
0.00041898047451 0.00041724392213 0.00041554011265 0.00041386940134 0.00041223164567 0.00041062750202 0.00040905602288 0.00040751609492 0.00040600636203 
0.00040452666193 0.00040307348505 0.0004016453397 0.00040023920238 0.00039885333627 0.00039748444641 0.00039612978578 0.00039478685356 0.00039345313393 
0.00039212609119 0.00039080365941 0.00048251794812 0.00048018861642 0.00047787743342 0.00047557722598 0.00047329155748 0.00047101984826 0.00046876215198 
0.00046651849657 0.00046428910808 0.00046207244641 0.00045987160697 0.00045768547707 0.0004555154318 0.00045336018627 0.00045122135008 0.00044909935708 
0.0004469949545 0.0004449085161 0.0004428403936 0.00044079180343 0.00043876363366 0.00043675559499 0.00043476867788 0.00043280419775 0.00043086400443 
0.00042894809118 0.00042705802966 0.00042519557022 0.00042336134297 0.00042155711625 0.00041978356256 0.00041804195423 0.00041633298104 0.00041465689438 
0.00041301403262 0.00041140447168 0.00040982732746 0.00040828184425 0.00040676641251 0.00040528088883 0.00040382213506 0.00040238799082 0.00040097634649 
0.00039958475194 0.00039821016256 0.00039685008705 0.00039550178817 0.00039416289577 0.00039283104541 0.00039150380615 0.00048310685395 0.00048077700796 
0.00047846584724 0.00047616473675 0.00047387839804 0.0004716059997 0.00046934771346 0.00046710314695 0.0004648732256 0.00046265535355 0.00046045326057 
0.00045826610073 0.0004560948301 0.0004539381974 0.00045179761026 0.0004496743954 0.00044756857033 0.0004454804731 0.00044341053647 0.000441359817 
0.00043932904141 0.00043731909474 0.00043532971181 0.00043336259148 0.00043141941177 0.00042950060528 0.00042760740593 0.00042574168611 0.00042390412252 
0.00042209640042 0.00042031926286 0.00041857386553 0.00041686114462 0.00041518125835 0.0004135343746 0.00041192081026 0.0004103397691 0.00040878989266 
0.00040727046133 0.00040578064245 0.00040431775878 0.00040287947827 0.00040146367839 0.00040006795439 0.00039868947005 0.00039732540527 0.00039597340036 
0.00039463076956 0.00039329526604 0.00039196459717 0.00048337238839 0.0004810441704 0.00047873398833 0.00047643480842 0.0004741498064 0.0004718787861 
0.00046962119376 0.00046737802455 0.0004651489371 0.00046293357026 0.00046073069999 0.00045854446385 0.00045637360797 0.00045421788048 0.00045207786925 
0.00044995478103 0.00044784894099 0.00044576118164 0.00044369107198 0.00044164004462 0.00043960867709 0.00043759736327 0.00043560778375 0.00043363952206 
0.00043169527192 0.00042977507898 0.00042788016777 0.00042601265338 0.00042417297272 0.00042236293168 0.00042058373172 0.00041883606287 0.00041712074116 
0.00041543837577 0.00041378887293 0.00041217253776 0.00041058860382 0.00040903614364 0.00040751436244 0.00040602210506 0.00040455670182 0.00040311594145 
0.00040169776617 0.00040029983562 0.0003989190105 0.00039755266251 0.00039619826292 0.00039485331982 0.00039351545988 0.0003921824789 0.00048331651861 
0.00048099165296 0.00047868124766 0.00047638872216 0.00047410681072 0.0004718390031 0.0004695849497 0.00046734469086 0.00046511866249 0.00046290638747 
0.0004607080519 0.00045852286437 0.00045635461126 0.00045420111563 0.0004520637008 0.00044994280294 0.00044783908158 0.00044575273778 0.00044368418806 
0.00044163490893 0.00043960459619 0.00043759447504 0.00043560497528 0.00043363794846 0.00043169380129 0.00042977353748 0.00042787869448 0.00042601061446 
0.00042417046391 0.00042235980102 0.00042057975782 0.00041883089078 0.00041711443628 0.00041543089919 0.00041378019098 0.00041216277247 0.00041057755133 
0.00040902388333 0.00040750146833 0.0004060082882 0.00040454197242 0.00040310051011 0.00040168155385 0.00040028288122 0.00039890122438 0.00039753412081 
0.00039617893444 0.00039483301139 0.00039349405621 0.00039215998463 0.0004829490018 0.00048062931844 0.00047832404112 0.0004760366127 0.00047375992314 
0.00047149732542 0.00046924854919 0.00046701353484 0.0004647922473 0.00046258479939 0.00046039124693 0.00045821229107 0.00045604714918 0.00045389815112 
0.00045176493615 0.00044964813623 0.00044754814161 0.00044546534143 0.00044340041461 0.00044135393631 0.00043932670745 0.00043731932165 0.00043533252302 
0.00043336701532 0.00043142459847 0.00042950651768 0.00042761326768 0.00042574630663 0.0004239070917 0.00042209714193 0.00042031753121 0.00041856909232 
0.00041685302887 0.00041516957136 0.00041351928226 0.00041190195598 0.00041031696928 0.00040876435242 0.00040724235476 0.00040574959295 0.00040428371767 
0.00040284310001 0.00040142523299 0.00040002725537 0.00039864633036 0.00039727999163 0.00039592536805 0.0003945797527 0.00039324075846 0.00039190628533 
0.00048228737231 0.00047997465403 0.00047767649972 0.00047539599624 0.00047312657064 0.00047087093094 0.0004686292708 0.00046640113509 0.00046418663121 
0.00046198582555 0.00045979918239 0.00045762716207 0.00045546835768 0.00045332514457 0.00045119835738 0.00044908747284 0.00044699296112 0.00044491578383 
0.00044285607176 0.00044081463446 0.00043879188106 0.0004367891696 0.0004348067738 0.00043284514863 0.00043090606844 0.0004289908207 0.00042710113438 
0.00042523688449 0.00042340023913 0.00042159247325 0.0004198148581 0.00041806836578 0.00041635388365 0.00041467213299 0.00041302346177 0.0004114078617 
0.00040982490714 0.00040827411473 0.00040675405809 0.0004052631504 0.00040379966301 0.00040236124294 0.00040094552909 0.00039954975615 0.00039817091677 
0.00039680662595 0.00039545356852 0.00039410912302 0.00039277128428 0.00039143733115 0.00048135695274 0.00047905272215 0.00047676319757 0.0004744914351 
0.00047223070381 0.00046998371308 0.00046775076163 0.00046553139512 0.00046332566283 0.00046113330802 0.00045895516752 0.00045679174431 0.00045464241233 
0.00045250685971 0.00045038767473 0.00044828464739 0.00044619766177 0.00044412777366 0.00044207519684 0.00044004042776 0.00043802438259 0.00043602770185 
0.00043405077224 0.00043209518981 0.00043016172114 0.0004282513513 0.00042636550433 0.00042450640837 0.0004226738072 0.00042086979162 0.00041909562888 
0.00041735269004 0.00041564128427 0.00041396264703 0.00041231673554 0.00041070414246 0.00040912468699 0.00040757694485 0.00040606035322 0.00040457264763 
0.00040311263114 0.00040167789776 0.00040026564232 0.00039887317708 0.00039749757502 0.0003961360548 0.00039478549172 0.00039344317419 0.00039210690191 
0.00039077443141 0.00048018874476 0.00047789454151 0.00047561529537 0.00047335346182 0.00047110297575 0.00046886658803 0.00046664370191 0.00046443496525 
0.00046223939955 0.00046005755313 0.00045788983963 0.0004557368443 0.00045359758369 0.00045147342996 0.00044936339704 0.00044726977293 0.00044519218786 
0.00044313121842 0.00044108760688 0.00043906131533 0.00043705374296 0.00043506503689 0.00043309587909 0.00043114742737 0.00042922082061 0.00042731720905 
0.00042543787848 0.00042358406444 0.00042175788214 0.00041995932743 0.00041819019755 0.00041645198087 0.00041474535847 0.00041307112295 0.00041142978886 
0.00040982147988 0.00040824623959 0.00040670294042 0.00040519077699 0.00040370769606 0.00040225216189 0.00040082183228 0.00039941396529 0.00039802570861 
0.00039665414864 0.00039529617962 0.00039394871154 0.00039260910243 0.00039127483018 0.00038994422838 0.00047882302549 0.00047653634776 0.00047426854624 
0.00047201865481 0.00046977962365 0.00046755500469 0.00046534423786 0.00046314692059 0.00046096340069 0.00045879376139 0.00045663811275 0.00045449697009 
0.00045236998171 0.00045025780924 0.00044815956352 0.00044607767602 0.00044401135008 0.00044196111338 0.0004399280429 0.00043791238099 0.0004359148975 
0.00043393601215 0.00043197612024 0.00043003694651 0.00042811927108 0.0004262238883 0.00042435253978 0.0004225065605 0.00042068703843 0.00041889611397 
0.0004171338716 0.0004154019321 0.00041370121184 0.00041203277283 0.00041039725406 0.00040879437596 0.00040722468537 0.00040568690576 0.00040418001872 
0.00040270217344 0.00040125194112 0.00039982684746 0.00039842403679 0.00039704050986 0.00039567342822 0.00039431949181 0.00039297559367 0.0003916387987 
0.00039030699386 0.00038897816662 0.00047729354455 0.00047501971493 0.00047276426289 0.00047052704834 0.00046830085564 0.00046608926995 0.00046389169902 
0.00046170773916 0.00045953760623 0.00045738139955 0.00045523965124 0.00045311246297 0.00045099896966 0.00044890043905 0.00044681712658 0.00044474708259 
0.00044269394768 0.00044065616951 0.0004386357734 0.00043663215705 0.00043464645323 0.00043267916222 0.00043073070677 0.00042880217003 0.00042689497157 
0.00042500996862 0.00042314859778 0.00042131209973 0.00041950172385 0.00041771888704 0.00041596535938 0.00041424139253 0.00041254811754 0.00041088680565 
0.00040925817049 0.00040766218492 0.00040609893349 0.00040456745714 0.00040306661569 0.00040159481258 0.000400150322 0.0003987307826 0.0003973334357 
0.00039595477969 0.00039459207696 0.00039324218603 0.00039190182245 0.00039056788832 0.00038923806901 0.00038791101672 0.00047564784379 0.0004733876332 
0.00047114572862 0.00046891874183 0.00046670974161 0.00046451230324 0.00046232883339 0.00046015927855 0.0004580044248 0.00045586312683 0.00045373605958 
0.0004516242474 0.00044952626165 0.00044744260418 0.00044537425596 0.00044332087853 0.00044128115954 0.00043925872992 0.00043725223464 0.00043526266166 
0.00043329082208 0.00043133706149 0.0004294009719 0.00042748545009 0.00042559062224 0.00042371756765 0.00042186771536 0.00042004263937 0.00041824292177 
0.00041647034286 0.00041472636816 0.00041301175816 0.00041132804018 0.00040967538119 0.00040805467922 0.00040646640998 0.00040491052476 0.00040338620792 
0.0004018919562 0.00040042670972 0.00039898826005 0.00039757429959 0.00039618204172 0.0003948082303 0.00039344944646 0.00039210312672 0.00039076547823 
0.00038943404272 0.00038810604556 0.0003867798605 0.00047393091366 0.00047168525341 0.00046945776025 0.00046724485625 0.00046505087264 0.00046286824832 
0.00046069989177 0.00045854610203 0.00045640714789 0.00045428242528 0.00045217159201 0.00045007644169 0.0004479949418 0.00044592812809 0.00044387666884 
0.00044183987323 0.00043981681907 0.00043781094627 0.0004358206299 0.00043384666572 0.00043189035385 0.00042995175393 0.00042803101914 0.0004261297678 
0.00042424940173 0.00042239011483 0.00042055346683 0.00041874126264 0.00041695437755 0.00041519388632 0.00041346123201 0.00041175767452 0.00041008434992 
0.00040844180157 0.00040683028232 0.00040525095601 0.00040370320965 0.00040218648317 0.00040069923046 0.00039924041851 0.00039780784452 0.00039639917519 
0.00039501150743 0.00039364157838 0.00039228612646 0.00039094226912 0.00038960661478 0.00038827613985 0.00038694934475 0.0003856234264 0.00047218890623 
0.00046995761826 0.00046774485135 0.00046554720302 0.0004633679797 0.00046120096768 0.00045904909929 0.00045691154764 0.00045478946408 0.0004526820036 
0.00045058950451 0.00044851182167 0.00044644865098 0.00044440021327 0.00044236695682 0.00044034854352 0.0004383450726 0.00043635574764 0.00043438351642 
0.00043242708323 0.00043048816465 0.00042856688142 0.00042666300117 0.00042477825773 0.00042291385655 0.0004210701944 0.00041924908518 0.00041745170982 
0.00041567883626 0.00041393230062 0.00041221299683 0.00041052196426 0.00040886073793 0.00040722907032 0.00040562867348 0.00040405896445 0.00040252009094 
0.00040101117225 0.00039953113226 0.00039807843752 0.00039665139082 0.00039524722337 0.00039386311242 0.00039249590482 0.00039114231568 0.00038979998514 
0.00038846476509 0.0003871343198 0.00038580676712 0.00038447992003 0.00047046502613 0.00046824818773 0.00046605046888 0.00046386776928 0.00046170426822 
0.00045955335394 0.00045741813807 0.0004552981726 0.00045319389579 0.00045110439353 0.0004490308313 0.00044697238393 0.00044492879317 0.00044290005679 
0.00044088669281 0.00043888805384 0.00043690443669 0.00043493624189 0.00043298231538 0.00043104571249 0.00042912588581 0.00042722344379 0.00042533800745 
0.00042347198196 0.00042162571041 0.00041979970061 0.00041799569782 0.00041621482045 0.00041445816512 0.00041272753398 0.00041102332611 0.00040934666316 
0.00040769855814 0.00040608001918 0.00040449091865 0.00040293219733 0.00040140288848 0.00039990225803 0.00039842920319 0.00039698237683 0.00039555995679 
0.00039415867684 0.00039277694374 0.00039141093006 0.00039005784407 0.0003887145584 0.00038737822666 0.00038604582546 0.0003847159062 0.00038338637207 
0.00046879988009 0.0004666006032 0.0004644142557 0.00046224689074 0.00046009928683 0.00045796502388 0.00045584669692 0.00045374465597 0.0004516588628 
0.00044958884365 0.00044753478364 0.00044549664661 0.00044347387174 0.00044146650874 0.0004394740116 0.00043749689741 0.00043553492175 0.00043358801726 
0.0004316553869 0.00042974019602 0.00042784184709 0.00042595912981 0.00042409503519 0.00042224897095 0.00042042287916 0.00041861658189 0.00041683201313 
0.00041506985671 0.00041333150446 0.00041161850578 0.00040993128453 0.00040827076288 0.00040663780146 0.00040503327974 0.00040345698053 0.00040190939124 
0.00040039076891 0.00039889836827 0.00039743218779 0.00039599047197 0.00039457131663 0.00039317182975 0.00039179044962 0.0003904239219 0.00038906889229 
0.00038772246107 0.00038638255491 0.00038504635186 0.00038371178312 0.00038237785546 0.00046722968404 0.00046504472174 0.00046287310987 0.00046072074699 
0.00045858937928 0.00045647138752 0.00045437046944 0.00045228655477 0.00045021954806 0.00044816971788 0.00044613660217 0.00044411964983 0.00044211891021 
0.00044013379614 0.00043816421 0.00043620982798 0.00043427062443 0.00043234696087 0.0004304386032 0.00042854498305 0.00042666955918 0.00042481021134 
0.00042296815865 0.00042114495879 0.00041934038674 0.00041755611691 0.00041579242248 0.00041405173473 0.0004123336474 0.00041063998048 0.00040897140373 
0.00040732870208 0.000405713066 0.00040412395945 0.00040256159549 0.00040102669641 0.00039951790964 0.00039803442809 0.00039657461837 0.00039513714624 
0.00039371976811 0.00039232063605 0.00039093764463 0.00038956791828 0.00038820829076 0.00038685647356 0.00038551032593 0.00038416746161 0.00038282616466 
0.00038148530755 0.00046578733114 0.00046361592702 0.00046145843155 0.0004593209492 0.00045720510097 0.00045510351587 0.00045301998971 0.0004509547867 
0.00044890726373 0.00044687795241 0.00044486628234 0.00044287179556 0.00044089412187 0.00043893232257 0.00043698655707 0.00043505655631 0.00043314186208 
0.0004312429102 0.00042935950988 0.00042749179922 0.00042563975536 0.00042380504436 0.00042198792553 0.0004201883575 0.00041840806724 0.00041664738403 
0.0004149073145 0.00041318912266 0.00041149381032 0.00040982208358 0.00040817412166 0.00040655090256 0.0004049537228 0.00040338187373 0.00040183489735 
0.00040031312299 0.00039881500065 0.00039733950289 0.0003958860566 0.00039445170583 0.00039303497998 0.00039163434255 0.0003902471733 0.0003888714518 
0.00038750451733 0.00038614443146 0.00038478934274 0.00038343686867 0.0003820861877 0.00038073609536 0.00046449964449 0.00046234101447 0.00046019746556 
0.00045807467858 0.0004559735357 0.00045388811832 0.00045182177232 0.00044977521021 0.00044774788577 0.0004457395047 0.00044375016514 0.00044177851598 
0.00043982451843 0.00043788754136 0.00043596670476 0.00043406261518 0.00043217386307 0.00043030075853 0.00042844365601 0.00042660245814 0.00042477688021 
0.00042296855403 0.00042117788686 0.00041940486839 0.0004176502893 0.00041591577641 0.00041420102849 0.0004125079348 0.00041083714705 0.00040918863169 
0.00040756333237 0.00040596213235 0.00040438515103 0.00040283136699 0.00040130064079 0.00039979302709 0.00039830600844 0.00039683884543 0.00039539015251 
0.00039395851248 0.00039254082613 0.0003911362877 0.00038974240018 0.0003883581197 0.00038698116394 0.0003856095594 0.00038424218938 0.00038287756779 
0.00038151458568 0.00038015238238 0.00046338930944 0.00046124297007 0.00045911207197 0.00045700292743 0.00045491388269 0.00045284753678 0.00045079848138 
0.00044877007332 0.00044676279452 0.00044477605624 0.0004428089981 0.00044086086406 0.00043893156398 0.00043702021222 0.00043512597136 0.00043324811922 
0.00043138668542 0.00042954110404 0.00042771185212 0.00042589869367 0.00042410206633 0.00042232061901 0.00042055839702 0.0004188138445 0.00041708763717 
0.00041538044187 0.00041369314614 0.000412026912 0.00041038226508 0.00040875942691 0.00040715890291 0.0004055811455 0.00040402539663 0.00040249163568 
0.0004009783864 0.00039948482584 0.00039800948451 0.00039655034538 0.00039510618767 0.00039367467976 0.00039225494485 0.00039084409503 0.00038944149548 
0.00038804575489 0.00038665539414 0.00038526948608 0.00038388685709 0.00038250670264 0.00038112848206 0.0003797518133 0.00046247567255 0.00046033999631 
0.00045822138714 0.00045612494522 0.00045404988263 0.00045199908353 0.00044996716472 0.00044795767941 0.00044597022344 0.00044400453952 0.00044206025417 
0.00044013621209 0.00043823232882 0.00043634724207 0.00043448002806 0.00043263010389 0.00043079651872 0.00042897973827 0.00042717928613 0.00042539558344 
0.00042362861594 0.00042187683884 0.00042014455203 0.00041843041216 0.00041673370838 0.00041505628981 0.00041339819834 0.00041176073524 0.00041014404761 
0.00040854817817 0.00040697421729 0.00040542095925 0.00040388833687 0.00040237525627 0.00040088009084 0.00039940169568 0.00039793748036 0.00039648599036 
0.00039504545617 0.00039361359152 0.00039218858751 0.00039077014717 0.00038935629558 0.00038794636189 0.00038654003416 0.00038513676627 0.00038373584356 
0.00038233749429 0.0003809410781 0.00037954694761 0.0004617737021 0.00045964782397 0.00045754266223 0.00045545595051 0.00045339444143 0.00045135862669 
0.00044934271919 0.00044735138052 0.00044538400792 0.00044344008068 0.0004415180464 0.00043961848611 0.00043773998352 0.00043588175281 0.00043404204675 
0.00043222035354 0.00043041592873 0.00042862866184 0.00042685821373 0.00042510467141 0.00042336865114 0.00042164968888 0.0004199474603 0.00041826438415 
0.00041659958319 0.00041495295172 0.00041332569589 0.00041171870213 0.00041013154901 0.00040856453169 0.00040701811049 0.00040549059502 0.00040398193519 
0.00040249003131 0.000401013186 0.00039954979464 0.00039809724938 0.00039665241142 0.00039521449852 0.0003937807837 0.00039234999602 0.00039092057424 
0.00038949364826 0.00038806747302 0.00038664256509 0.00038521892685 0.00038379751811 0.00038237773507 0.00038096069796 0.00037954699185 0.0004612966794 
0.00045917946757 0.00045708385571 0.00045500876452 0.00045295982074 0.00045093784398 0.00044893826476 0.000446964747 0.00044501607842 0.00044309307102 
0.00044119431041 0.00043931918351 0.0004374659074 0.00043563399593 0.00043382189458 0.0004320288969 0.00043025407596 0.00042849679004 0.00042675729009 
0.00042503506171 0.000423330735 0.00042164404245 0.00041997551717 0.0004183236169 0.000416691181 0.00041507728659 0.00041348254053 0.00041190651312 
0.00041035005317 0.00040881278724 0.00040729425161 0.00040579345392 0.00040430877204 0.00040283832914 0.00040138044176 0.00039993165631 0.00039848963151 
0.00039705135644 0.00039561508494 0.00039417781233 0.000392739427 0.00039129863304 0.00038985563899 0.00038841104027 0.00038696559778 0.00038551968673 
0.0003840745193 0.0003826316548 0.00038119203667 0.00037975663602 0.00046105581297 0.00045894631361 0.00045685919261 0.00045479439823 0.00045275666142 
0.00045074828289 0.00044876368241 0.0004468071314 0.00044487765837 0.00044297478997 0.0004410978376 0.00043924619898 0.00043741819536 0.00043561263094 
0.00043382767942 0.00043206300295 0.00043031814552 0.00042859130646 0.00042688268968 0.00042519248723 0.00042352012704 0.00042186620678 0.00042023044556 
0.00041861188849 0.00041701281986 0.00041543199239 0.00041386995644 0.00041232627958 0.00041080080417 0.00040929379001 0.00040780329414 0.00040632908905 
0.00040486881057 0.00040341974056 0.00040197940007 0.0004005447836 0.00039911263626 0.00039767941468 0.00039624355779 0.00039480227836 0.00039335470504 
0.00039190036027 0.0003904403176 0.00038897531329 0.00038750736896 0.00038603699784 0.00038456724404 0.00038309990829 0.00038163611273 0.00038017778459 
0.00046106127321 0.00045895771321 0.00045687781706 0.00045482182855 0.00045279489084 0.00045079873198 0.00044882851755 0.00044688792838 0.00044497616154 
0.00044309277787 0.00044123693702 0.0004394074218 0.00043760329885 0.00043582345071 0.00043406571776 0.00043232905548 0.00043061274953 0.00042891612237 
0.00042723857103 0.00042557988363 0.000423939667 0.00042231832068 0.00042071609433 0.00041913200562 0.00041756505748 0.0004160172438 0.0004144878688 
0.00041297588956 0.00041148219125 0.00041000436624 0.00040854224484 0.00040709401179 0.00040565722605 0.00040422826491 0.00040280499186 0.00040138296899 
0.00039995927858 0.00039853031111 0.00039709369468 0.00039564684663 0.00039418913558 0.00039272006918 0.00039124176235 0.00038975520863 0.0003882630211 
0.00038676805874 0.00038527279069 0.000383779508 0.00038229090112 0.00038080858962 0.00046132103944 0.0004592210825 0.00045714758605 0.00045509934227 
0.00045308179073 0.00045109697962 0.00044913941634 0.00044721325751 0.00044531820255 0.00044345281996 0.00044161654385 0.00043980856792 0.00043802727515 
0.00043627161307 0.00043453939286 0.00043282965724 0.00043114184357 0.00042947392685 0.00042782615102 0.0004261983336 0.00042459012304 0.00042300102249 
0.00042143103008 0.00041987992214 0.0004183456995 0.00041683032531 0.0004153329407 0.00041385227719 0.00041238865163 0.00041094021075 0.00040950465767 
0.00040808069497 0.00040666565631 0.0004052558067 0.00040384780488 0.00040243723473 0.00040102071458 0.0003995941662 0.00039815549655 0.00039670194235 
0.00039523307 0.00039374879176 0.00039225117515 0.0003907426386 0.00038922647244 0.00038770582791 0.0003861844284 0.0003846656994 0.00038315189454 
0.00038164588164 0.00046183982103 0.00045974268022 0.00045767418178 0.00045563251096 0.00045362303415 0.0004516478476 0.00044970185398 0.000447788644 
0.00044590844593 0.00044405945993 0.00044224121013 0.0004404529625 0.00043869247057 0.00043695911197 0.00043525057142 0.00043356594936 0.00043190400204 
0.00043026424689 0.0004286454029 0.00042704694451 0.00042546922751 0.00042391116862 0.00042237258897 0.00042085283343 0.00041935116421 0.00041786577629 
0.00041639885058 0.00041494842513 0.00041351279196 0.00041209113334 0.00041068082342 0.00040927947487 0.00040788429233 0.00040649148156 0.00040509689093 
0.00040369588697 0.00040228459981 0.00040085913396 0.00039941678282 0.00039795565861 0.00039647457994 0.00039497466495 0.00039345819267 0.0003919276357 
0.00039038747605 0.00038884184359 0.00038729473442 0.00038575068228 0.00038421250616 0.00038268328485 0.00046262138547 0.0004605259899 0.00045845971584 
0.00045642327176 0.00045442050062 0.00045245337928 0.00045051766112 0.00044861601908 0.00044674801667 0.00044491328181 0.00044311120007 0.0004413400437 
0.00043959848967 0.00043788521982 0.00043619836937 0.00043453656176 0.0004328990923 0.00043128464781 0.00042969250557 0.00042812182638 0.00042657232562 
0.00042504335864 0.0004235343421 0.00042204405125 0.00042057176188 0.00041911714459 0.0004176769732 0.00041625383421 0.00041484447157 0.00041344707293 
0.00041205948316 0.00041067849235 0.00040930040813 0.00040792163735 0.00040653773051 0.00040514413198 0.00040373629612 0.00040231049388 0.00040086376964 
0.00039939375142 0.00039790011135 0.00039638446162 0.00039484904928 0.0003932978873 0.00039173495149 0.00039016557207 0.00038859421362 0.00038702554215 
0.00038546427694 0.00038391239339 0.00046366472002 0.00046156907614 0.00045950475088 0.00045747249609 0.00045547267199 0.00045351218787 0.00045158383847 
0.00044969167026 0.00044783445158 0.00044601200283 0.00044422311795 0.00044246679493 0.00044074166301 0.00043904595424 0.00043737819217 0.0004357366501 
0.00043412065647 0.00043252908905 0.00043096079758 0.00042941498518 0.00042789141165 0.0004263884028 0.00042490630664 0.00042344331483 0.00042199816063 
0.00042056916477 0.00041915519297 0.00041775669323 0.00041637065834 0.00041499470035 0.00041362616916 0.00041226242461 0.00041089851287 0.00040953096495 
0.00040815542388 0.00040676646377 0.00040535991161 0.00040393139993 0.00040247880326 0.00040099955947 0.00039949352805 0.00039796294133 0.00039641019681 
0.00039483935826 0.00039325578308 0.00039166396572 0.00039007017596 0.00038847920692 0.00038689565078 0.00038532297281 0.00046496301733 0.00046286478734 
0.00046080004264 0.00045876890416 0.00045677256623 0.00045481353123 0.00045289344705 0.00045100843315 0.00044915979228 0.00044734707439 0.00044556908295 
0.00044382508234 0.00044211346236 0.00044043283171 0.00043878116167 0.00043715717276 0.00043555990918 0.00043398778874 0.00043244007931 0.00043091619708 
0.00042941504298 0.00042793576673 0.00042647684566 0.00042503711208 0.00042361530644 0.00042220956842 0.00042081895069 0.00041944043939 0.0004180742437 
0.00041671654837 0.00041536390955 0.00041401362503 0.00041266112316 0.00041130153992 0.00040993054036 0.00040854418022 0.0004071367791 0.00040570435221 
0.00040424473585 0.00040275615048 0.00040123830954 0.00039969302091 0.00039812403918 0.00039653575424 0.00039493308825 0.00039332176632 0.00039170750599 
0.0003900964645 0.00038849279424 0.00038690029109 0.00046650186422 0.00046440002049 0.00046233301263 0.0004603020216 0.00045830607925 0.00045634966018 
0.00045443337481 0.00045255309624 0.00045071067929 0.0004489046677 0.00044713494763 0.00044540040164 0.00044369948153 0.00044203032916 0.00044039144966 
0.00043878149456 0.00043719956176 0.00043564430767 0.00043411401151 0.00043260825496 0.00043112651574 0.00042966688957 0.00042822747618 0.00042680773943 
0.00042540550129 0.00042401921352 0.00042264729509 0.00042128557563 0.00041993543782 0.00041859186283 0.00041725184785 0.0004159115055 0.00041456657301 
0.00041321226252 0.00041184369221 0.00041045689138 0.00040904674764 0.000407609471 0.00040614229124 0.00040464401195 0.0004031146232 0.00040155607129 
0.00039997229397 0.00039836811428 0.00039674880749 0.00039512065524 0.00039348902202 0.00039185965298 0.00039023859977 0.00038862886468 0.00046826188046 
0.00046615402066 0.00046408343037 0.00046204995983 0.00046005340871 0.00045809724487 0.00045618273184 0.00045430485282 0.00045246563251 0.00045066425665 
0.00044890008349 0.0004471720884 0.00044547848719 0.00044381764843 0.00044218852824 0.00044058910023 0.00043901933968 0.00043747676394 0.00043596027235 
0.0004344696778 0.00043300323293 0.0004315592842 0.00043013629698 0.00042873227411 0.00042734598116 0.00042597481577 0.00042461704705 0.00042327069671 
0.00042193069866 0.00042059738555 0.00041926551689 0.00041793173624 0.00041659122584 0.00041523927299 0.0004138705343 0.00041248158649 0.00041106710473 
0.00040962307161 0.00040814809607 0.00040664015087 0.00040510031128 0.00040352979516 0.00040193344555 0.00040031553482 0.00039868214946 0.00039703903229 