# vtk DataFile Version 5.1
vtk output
ASCII
DATASET STRUCTURED_POINTS
DIMENSIONS 50 50 50
SPACING 0.002 0.002 0.002
ORIGIN 0.1742 -0.052672 0.02732
POINT_DATA 125000
FIELD FieldData 1
potential 1 125000 double
0.00047172053107 0.00046942998317 0.00046716165256 0.00046491486352 0.00046269001668 0.00046048849203 0.00045830782239 0.00045614818586 0.00045401147033 
0.00045189531272 0.00044979994969 0.0004477256714 0.00044567145167 0.00044363889775 0.00044162718151 0.00043963739977 0.0004376690385 0.00043572103213 
0.00043379403127 0.00043188763347 0.00042999971438 0.00042812915963 0.00042627381699 0.00042443330377 0.00042260571065 0.00042078897025 0.00041898474176 
0.00041719196442 0.00041541108732 0.00041364209701 0.00041188392789 0.00041014127317 0.0004084121021 0.00040669605744 0.00040499393816 0.00040330389766 
0.00040162567653 0.00039995690956 0.00039829653133 0.00039664326276 0.00039499522897 0.00039335159983 0.00039171188161 0.00039007568183 0.00038844427741 
0.00038681790415 0.00038519775868 0.00038358542089 0.00038198159046 0.00038038823953 0.00047192608748 0.00046963932674 0.00046737406539 0.00046513064301 
0.00046290990745 0.00046071168447 0.00045853408981 0.00045637884655 0.00045424436589 0.00045213039663 0.00045003706574 0.00044796407813 0.00044591186966 
0.0004438799407 0.00044186914432 0.0004398791134 0.00043791051992 0.00043596161959 0.00043403390304 0.00043212545019 0.00043023524734 0.00042836209061 
0.00042650456062 0.00042466104265 0.00042283135108 0.00042101386769 0.00041920692629 0.000417412816 0.0004156307138 0.00041386113803 0.00041210237194 
0.00041035938943 0.00040862990509 0.00040691412555 0.00040521098805 0.00040352090377 0.00040184195148 0.0004001728887 0.00039851164327 0.0003968572237 
0.00039520806956 0.00039356333618 0.00039192267075 0.00039028504418 0.00038865250858 0.00038702500853 0.00038540406586 0.00038379103904 0.00038218677071 
0.00038059330759 0.00047193875675 0.0004696575092 0.00046739732578 0.00046515916941 0.00046294313846 0.00046074981778 0.00045857823628 0.00045642674839 
0.00045429672891 0.00045218736554 0.00045009751486 0.0004480280532 0.00044597836262 0.0004439492275 0.00044193949856 0.00043995079973 0.00043798270726 
0.00043603436941 0.00043410595008 0.00043219658688 0.00043030525965 0.00042843019396 0.00042657161173 0.00042472579173 0.00042289408833 0.00042107432868 
0.00041926737998 0.00041747288514 0.00041569083129 0.0004139216725 0.00041216354346 0.00041042096357 0.00040869212238 0.00040697676216 0.00040527433041 
0.00040358434469 0.00040190538299 0.00040023578625 0.00039857465007 0.00039691958347 0.00039526992914 0.00039362457482 0.00039198249544 0.00039034511421 
0.00038871208231 0.00038708452887 0.00038546366368 0.00038385087165 0.00038224723915 0.00038065455633 0.0004717173233 0.000469442956 0.0004671900517 
0.00046495874985 0.00046275040996 0.00046056391331 0.00045839778832 0.00045625278141 0.00045412911292 0.00045202531183 0.00044994089861 0.00044787623218 
0.00044583140036 0.00044380539579 0.00044179959064 0.00043981406237 0.00043784796631 0.00043590106987 0.00043397314682 0.00043206351499 0.00043017275066 
0.00042829745967 0.00042643636763 0.00042459027017 0.00042275725115 0.00042093811647 0.00041913173836 0.00041733738664 0.00041555620508 0.00041378621796 
0.00041203173126 0.00041029085504 0.00040856393665 0.00040685007957 0.00040514935975 0.00040346000367 0.00040178184811 0.00040011283895 0.00039845166048 
0.00039679710425 0.00039514750108 0.00039350154971 0.00039186026912 0.000390222951 0.00038859050222 0.00038696381359 0.00038534366038 0.00038373199919 
0.00038213040508 0.00038054002644 0.00047123018143 0.0004689644269 0.00046672047741 0.00046449896403 0.00046229838379 0.00046011993058 0.00045796263298 
0.00045582579043 0.00045370970853 0.00045161323029 0.00044953624485 0.00044747804235 0.00044543877748 0.00044341873053 0.00044141801192 0.0004394370001 
0.00043747410695 0.0004355307313 0.00043360470924 0.00043169650079 0.00042980574658 0.00042793001874 0.0004260705873 0.00042422447203 0.0004223931063 
0.0004205748646 0.00041877015086 0.0004169781589 0.00041519928858 0.00041343214006 0.00041168036175 0.00040994210566 0.00040821765262 0.00040650664995 
0.00040480833454 0.0004031214781 0.00040144461629 0.00039977738892 0.00039811723155 0.0003964633461 0.00039481501861 0.00039317000946 0.0003915296172 
0.00038989348479 0.00038826245798 0.00038663725404 0.00038501923513 0.00038341000768 0.0003818112477 0.00038022384135 0.00047045761774 0.00046820194078 
0.00046596905175 0.00046375731978 0.00046156724279 0.00045939887803 0.00045725150803 0.00045512456664 0.00045301752462 0.00045093069992 0.00044886174 
0.00044681222921 0.00044478129691 0.00044276840449 0.00044077398737 0.00043879957313 0.0004368415272 0.00043490129583 0.00043297903977 0.00043107378267 
0.000429184594 0.00042731171954 0.00042545359926 0.00042361113522 0.00042178227579 0.00041996679724 0.00041816485889 0.00041637630187 0.00041459920635 
0.00041283795946 0.00041109001528 0.00040935604443 0.00040763551836 0.00040592839851 0.00040423341775 0.00040254946136 0.00040087566479 0.00039921066755 
0.0003975526889 0.00039590082933 0.00039425342 0.00039261163266 0.00039097290928 0.00038933925906 0.00038771026759 0.00038608769502 0.0003844727631 
0.00038286654136 0.00038127156038 0.00037968889459 0.00046939243014 0.00046714859532 0.00046492719513 0.00046272710506 0.00046054925647 0.00045839231274 
0.00045625665058 0.00045414087628 0.00045204507823 0.00044996833125 0.00044791029092 0.00044587051714 0.00044384826953 0.00044184529923 0.00043985928599 
0.00043789117505 0.00043593959073 0.00043400530488 0.00043208808801 0.00043018687921 0.00042830272045 0.0004264331259 0.00042458006922 0.00042274140586 
0.00042091683601 0.00041910592074 0.00041730846686 0.00041552474982 0.00041375286205 0.00041199681615 0.00041025431099 0.00040852572643 0.00040681062449 
0.00040510839587 0.00040341780706 0.00040173857581 0.00040006852574 0.00039840683588 0.00039675215484 0.0003951033656 0.00039345870958 0.00039181957349 
0.00039018394904 0.00038855317872 0.00038692741065 0.00038530852329 0.00038369766595 0.00038209617129 0.00038050619995 0.00037892859011 0.00046804001334 
0.00046580925256 0.00046360062182 0.00046141385479 0.00045924917684 0.0004571048897 0.00045498189735 0.00045287957156 0.00045079581727 0.00044873139292 
0.00044668608693 0.00044465724272 0.00044264557227 0.00044065181727 0.00043867527186 0.0004367156096 0.00043477261855 0.00043284556943 0.00043093555254 
0.00042904163361 0.00042716238309 0.00042529996721 0.00042345268444 0.00042161961035 0.00041980116013 0.00041799655113 0.00041620560615 0.00041442609445 
0.00041266272987 0.00041091346264 0.00040917802689 0.00040745604991 0.00040574725843 0.00040405092683 0.00040236674963 0.00040069272938 0.00039902748283 
0.00039737050262 0.00039571996326 0.00039407445071 0.00039243428789 0.00039079841323 0.00038916707085 0.00038753991353 0.00038591859353 0.00038430453476 
0.00038269862537 0.0003811026294 0.00037951862861 0.00037794753137 0.00046642050523 0.00046420329523 0.00046200857095 0.00045983525911 0.00045768490876 
0.00045555523949 0.00045344584409 0.00045135776923 0.00044928814869 0.00044723676633 0.00044520341927 0.0004431867426 0.00044118765792 0.00043920495836 
0.00043723935142 0.00043529031242 0.00043335596877 0.00043143893246 0.00042953803355 0.00042765155826 0.00042578155387 0.00042392699278 0.00042208726886 
0.00042026214037 0.00041845124312 0.00041665467278 0.00041487192209 0.00041310075776 0.00041134517761 0.00040960411717 0.00040787672906 0.00040616265372 
0.00040446132273 0.0004027722889 0.00040109458981 0.00039942691976 0.00039776774928 0.0003961161237 0.00039447109826 0.00039283016291 0.00039119441379 
0.00038956365642 0.00038793711393 0.00038631527103 0.00038469921729 0.00038309051144 0.00038149081702 0.00037990043637 0.00037832296412 0.00037675867848 
0.00046456346327 0.00046236063025 0.00046018020035 0.00045802207133 0.00045588637125 0.00045377206483 0.00045167789084 0.00044960284665 0.00044754765005 
0.00044551028045 0.00044349073621 0.00044148755296 0.0004395013301 0.00043753134983 0.0004355780659 0.00043363935448 0.00043171746781 0.00042981139772 
0.0004279197171 0.00042604465013 0.00042418493001 0.00042234065146 0.00042051083452 0.00041869546166 0.00041689442727 0.00041510738822 0.00041333414644 
0.00041157259482 0.00040982692934 0.00040809457388 0.00040637600521 0.00040467077968 0.00040297786632 0.00040129714981 0.00039962691006 0.00039796636705 
0.00039631396898 0.00039466803657 0.00039302820155 0.00039139378885 0.00038976464978 0.00038813911578 0.00038651841742 0.000384902429 0.00038329280052 
0.0003816898782 0.00038009681676 0.00037851434243 0.00037694444599 0.00037538796963 0.00046250840818 0.00046032082697 0.00045815612794 0.00045601288927 
0.00045389250069 0.00045179243816 0.00044971268984 0.00044765310455 0.00044561265152 0.00044358962026 0.000441583688 0.00043959485075 0.00043762249734 
0.00043566650459 0.00043372602562 0.00043180115366 0.00042989207587 0.00042799726123 0.00042611903647 0.00042425615158 0.00042240817579 0.00042057505375 
0.00041875666233 0.00041695303889 0.00041516324731 0.00041338741582 0.00041162330156 0.00040987493542 0.00040814003569 0.00040641872681 0.00040470989923 
0.00040301427274 0.00040133079785 0.00039965834998 0.00039799624375 0.00039634294586 0.00039469795429 0.00039305927546 0.00039142598103 0.00038979862797 
0.00038817525219 0.00038655621868 0.00038494129809 0.00038333230332 0.00038172925692 0.00038013456339 0.00037854912882 0.00037697454885 0.00037541284122 
0.00037386482986 0.00046030258227 0.00045813024141 0.0004559801898 0.00045385154545 0.00045174630644 0.00044966141983 0.00044759690791 0.00044555206324 
0.00044352584669 0.00044151743713 0.00043952629704 0.00043755201601 0.00043559423155 0.00043365174057 0.00043172616494 0.00042981547318 0.00042791925666 
0.00042603950118 0.00042417533818 0.00042232573675 0.00042049109158 0.00041867110819 0.00041686572079 0.00041507471334 0.00041329777699 0.0004115348189 
0.00040978316546 0.00040804689486 0.00040632364977 0.00040461371224 0.00040291615288 0.00040123098142 0.00039955630177 0.00039789301902 0.00039623968219 
0.00039459477958 0.00039295733971 0.00039132539184 0.00038970030935 0.00038807963182 0.00038646254918 0.00038485050642 0.00038324334659 0.00038164194462 
0.00038004656845 0.00037845953918 0.00037688267661 0.00037531655487 0.00037376342556 0.00037222491539 0.00045799137686 0.00045583440944 0.00045369977363 
0.00045158786089 0.00044949572547 0.00044742569785 0.00044537634597 0.00044334597977 0.00044133425337 0.00043934023995 0.00043736374154 0.00043540326533 
0.00043346036203 0.00043153355911 0.00042962265075 0.00042772591877 0.00042584584664 0.00042398102095 0.00042213119609 0.00042029658621 0.00041847654271 
0.00041667121873 0.00041488044366 0.00041310359038 0.00041134052691 0.0004095887273 0.00040785262682 0.00040612929238 0.00040441889535 0.00040272106648 
0.00040103433984 0.00039935987275 0.00039769588761 0.00039604196573 0.00039439745347 0.00039276077355 0.0003911303268 0.00038950643172 0.0003878882864 
0.0003862750031 0.00038466600881 0.00038306149717 0.00038146250751 0.00037986898616 0.00037828226165 0.0003767038535 0.00037513568565 0.00037357864977 
0.0003720344825 0.00037050509089 0.00045562562918 0.0004534833568 0.00045136330463 0.00044926580652 0.00044718847107 0.00044513254368 0.00044309715777 
0.00044108134772 0.0004390832816 0.00043710346316 0.00043514085378 0.00043319590697 0.00043126784055 0.00042935655237 0.00042745930224 0.00042557919195 
0.00042371474723 0.00042186548717 0.00042003113681 0.00041821223441 0.00041640769143 0.00041461808337 0.0004128423292 0.00041108056568 0.00040933239062 
0.00040759506458 0.0004058729154 0.00040416263537 0.00040246486859 0.00040077948649 0.0003991054241 0.00039744216747 0.00039578836445 0.00039414400809 
0.00039250732494 0.00039087895008 0.00038925648613 0.00038764086432 0.00038603022091 0.00038442445735 0.00038282318059 0.00038122693871 0.00037963586207 
0.00037805107979 0.00037647328188 0.00037490379274 0.00037334486639 0.00037179757206 0.00037026331196 0.00036874266693 0.00045324871026 0.00045112062121 
0.00044901480324 0.00044693155034 0.00044486866717 0.00044282577938 0.00044080369671 0.00043880149789 0.00043681738344 0.00043485070685 0.00043290287438 
0.000430972108 0.00042905894351 0.00042716142678 0.00042528062917 0.00042341631526 0.00042156751535 0.00041973438732 0.00041791612942 0.00041611305268 
0.00041432470217 0.0004125509354 0.00041079092372 0.00040904461708 0.00040730894563 0.00040558885976 0.00040388115622 0.00040218538167 0.00040050096108 
0.00039882842128 0.00039716576465 0.00039551252564 0.0003938692564 0.0003922346698 0.00039060734329 0.00038898634011 0.00038737268232 0.0003857644041 
0.00038416117273 0.00038256303644 0.00038096972025 0.00037938148498 0.0003777992892 0.0003762230475 0.00037465447759 0.00037309466372 0.00037154527184 
0.00037000782658 0.00036848293472 0.00036697138717 0.00045090128555 0.0004487866675 0.00044669413799 0.00044462410355 0.00044257436299 0.00044054551419 
0.00043853568117 0.00043654587396 0.00043457417626 0.00043262180572 0.00043068739318 0.00042877071224 0.00042687069507 0.00042498910093 0.00042312370757 
0.00042127474716 0.00041944167383 0.00041762433241 0.00041582239983 0.00041403506814 0.00041226295496 0.00041050460991 0.00040876054855 0.0004070298729 
0.00040531009945 0.00040360512496 0.00040191189876 0.00040023006513 0.00039855841862 0.00039689772164 0.00039524683139 0.00039360496956 0.00039197193796 
0.00039034681377 0.00038872796462 0.00038711550008 0.00038550939314 0.00038390841986 0.00038231280733 0.00038072232048 0.00037913695812 0.00037755700539 
0.00037598331858 0.00037441611821 0.00037285672473 0.00037130667132 0.0003697674492 0.00036823907683 0.00036672335885 0.00036522142138 0.00044861625143 
0.00044651451695 0.00044443463033 0.00044237708948 0.00044033987409 0.00043832324399 0.00043632523739 0.00043434735695 0.00043238913434 0.00043044951425 
0.0004285282333 0.00042662383918 0.00042473842072 0.00042287091664 0.00042102006288 0.00041918568164 0.00041736799798 0.00041556587268 0.00041377952539 
0.00041200822871 0.00041025162117 0.00040850967198 0.00040678142845 0.00040506408253 0.00040336155176 0.00040167033238 0.00039999136763 0.00039832304204 
0.00039666516496 0.0003950167277 0.00039337711046 0.00039174577233 0.00039012224629 0.0003885060827 0.00038689594401 0.00038529159634 0.00038369301532 
0.00038209963465 0.0003805111774 0.00037892831831 0.0003773510428 0.00037577912767 0.00037421410875 0.0003726560365 0.00037110612825 0.00036956543655 
0.00036803554801 0.00036651668531 0.00036501020018 0.00036351666833 0.00044642062818 0.00044433089458 0.0004422635724 0.00044021748882 0.00043819209057 
0.0004361862167 0.00043420084887 0.00043223437358 0.00043028772927 0.00042835988183 0.00042644963289 0.00042455878554 0.00042268689368 0.0004208327975 
0.00041899484271 0.00041717490937 0.00041537187963 0.0004135850158 0.00041181367835 0.00041005754807 0.0004083161578 0.00040658929991 0.00040487527808 
0.0004031726029 0.00040148445173 0.00039980826806 0.00039814265263 0.00039648777256 0.00039484185408 0.00039320523346 0.00039157667751 0.00038995578188 
0.00038834176069 0.00038673390741 0.00038513215508 0.00038353601023 0.00038194438676 0.00038035836696 0.00037877753953 0.0003772019892 0.00037563208276 
0.00037406863471 0.00037251183728 0.00037096267288 0.00036942249247 0.00036789117279 0.00036637001383 0.00036486024305 0.00036336216123 0.00036187744047 
0.00044433453303 0.00044225649575 0.00044019978563 0.00043816480128 0.00043614996179 0.00043415551118 0.00043218130479 0.00043022645344 0.00042829024103 
0.00042637244952 0.00042447423239 0.00042259522763 0.00042073595534 0.00041889425088 0.0004170703133 0.00041526344084 0.00041347380173 0.00041170060834 
0.00040994254091 0.00040820042086 0.00040647330291 0.00040476024173 0.00040305891468 0.00040137216327 0.00039969758776 0.00039803431897 0.00039638175352 
0.0003947388216 0.0003931046849 0.0003914791434 0.00038986124121 0.00038824966205 0.00038664561317 0.00038504578929 0.00038345188168 0.00038186329054 
0.00038027965433 0.00037870028523 0.00037712640504 0.0003755583092 0.00037399638776 0.00037244055639 0.00037089221805 0.00036935175381 0.00036782064097 
0.00036629807862 0.00036478545521 0.00036328431777 0.00036179494537 0.00036031829862 0.00044237075063 0.00044030358051 0.00043825771935 0.00043623361709 
0.00043422959983 0.00043224654705 0.00043028182903 0.00042833733605 0.00042641020486 0.00042450367492 0.00042261688691 0.00042074891799 0.00041890047162 
0.00041707086685 0.0004152577707 0.00041346321263 0.00041168588718 0.00040992512238 0.00040818050869 0.00040645120722 0.00040473675889 0.00040303653426 
0.00040134769879 0.0003996736996 0.00039801139214 0.00039636028507 0.00039471935122 0.00039308775352 0.00039146465039 0.00038984933684 0.00038824100642 
0.00038663973667 0.00038504285046 0.00038345197301 0.0003818658461 0.00038028440804 0.00037870799121 0.00037713597563 0.00037556916119 0.00037400828384 
0.00037245373923 0.00037090588033 0.00036936552359 0.00036783308816 0.00036631024312 0.00036479619022 0.00036329228814 0.00036179874455 0.00036031790362 
0.00035884875969 0.00044054040438 0.00043848227276 0.00043644753217 0.00043443324176 0.00043243948418 0.00043046588421 0.00042851161081 0.00042657558692 
0.00042466029608 0.00042276405537 0.00042088654352 0.00041902872022 0.00041719049315 0.00041537096786 0.00041356953267 0.00041178537966 0.00041001845419 
0.00040826888064 0.00040653522172 0.00040481719079 0.00040311425097 0.00040142310132 0.00039974770882 0.00039808483545 0.00039643344801 0.00039479329372 
0.00039316274487 0.00039154134699 0.00038992816142 0.00038832261141 0.00038672405006 0.00038513114326 0.00038354220451 0.00038195920541 0.00038038051555 
0.00037880645352 0.00037723679849 0.00037567181754 0.00037411253166 0.00037255863572 0.00037101102221 0.00036947080022 0.00036793840005 0.00036641413142 
0.00036489842041 0.00036339256254 0.00036189656967 0.0003604111978 0.00035893745907 0.00035747554627 0.00043884769995 0.00043680068082 0.00043477580831 
0.00043277069931 0.00043078681443 0.00042882243544 0.00042687552032 0.00042494987981 0.00042304359811 0.00042115670919 0.00041928819269 0.00041743984312 
0.00041561009772 0.00041379936491 0.00041200747923 0.00041023318233 0.00040847633903 0.00040673619898 0.00040501230014 0.00040330403189 0.00040161058281 
0.00039992916223 0.00039826325455 0.00039661013197 0.00039496840947 0.00039333754108 0.00039171614688 0.00039010407895 0.00038849927776 0.00038690305853 
0.00038531266397 0.00038372680377 0.00038214648787 0.0003805707688 0.00037899945562 0.00037743225381 0.00037586963772 0.00037431153743 0.00037275925885 
0.00037121265746 0.0003696722013 0.0003681388296 0.00036661423156 0.00036509716965 0.00036358899641 0.00036209012385 0.00036060179117 0.00035912382701 
0.0003576569091 0.0003562016256 0.00043729799769 0.00043526007346 0.00043324373543 0.00043124810029 0.00042927301727 0.00042731612924 0.00042537981002 
0.00042346267746 0.00042156455493 0.00041968571835 0.00041782586111 0.00041598479307 0.00041416312 0.00041236012029 0.00041057606308 0.00040880920887 
0.00040706022837 0.00040532800208 0.00040361229216 0.0004019117918 0.0004002241344 0.00039855300484 0.00039689563 0.00039525040964 0.00039361702435 
0.00039199397893 0.00039038079761 0.00038877671018 0.0003871808585 0.00038559173693 0.00038400814505 0.00038243045426 0.00038085762673 0.0003792886751 
0.00037772441301 0.00037616410169 0.00037460831226 0.00037305710292 0.00037151137871 0.00036997158495 0.00036843827709 0.00036691256416 0.00036539408514 
0.00036388412177 0.00036238294397 0.0003608918146 0.00035941002359 0.00035793854951 0.0003564784995 0.0003550294507 0.00043589037278 0.00043386158517 
0.00043185441429 0.00042986603428 0.00042789932852 0.00042595182019 0.00042402330593 0.00042211381409 0.00042022330132 0.0004183517226 0.00041649869141 
0.00041466447519 0.00041284945286 0.00041105284919 0.00040927482644 0.00040751464224 0.00040577197927 0.00040404612695 0.00040233671608 0.0004006426659 
0.00039896145724 0.00039729658833 0.00039564487986 0.00039400633372 0.00039237958387 0.00039076288931 0.00038915645046 0.00038755954108 0.00038597025882 
0.00038438794904 0.0003828106357 0.00038124034434 0.00037967414066 0.00037811193792 0.00037655407968 0.00037500048722 0.00037345135076 0.00037190692037 
0.00037036810922 0.00036883485466 0.00036730883746 0.00036578969006 0.0003642781731 0.00036277468127 0.00036128047869 0.00035979513859 0.00035832016425 
0.00035685559032 0.00035540155788 0.00035395848201 0.00043462627021 0.000432606005 0.00043060551379 0.00042862651744 0.0004266674815 0.00042472729107 
0.00042280592738 0.00042090327684 0.00041901923988 0.00041715385206 0.00041530677095 0.00041347863732 0.00041166813744 0.00040987687277 0.00040810345188 
0.00040634818471 0.00040461022913 0.0004028891815 0.00040118432866 0.00039949280898 0.00039781861543 0.00039615815377 0.00039451176761 0.00039287775084 
0.00039125578243 0.0003896448172 0.00038804444577 0.00038645214579 0.00038486828957 0.00038329065806 0.00038172007674 0.00038015507028 0.00037859502125 
0.00037703923172 0.00037548764148 0.00037394055244 0.00037239783389 0.00037086002849 0.00036932765588 0.00036780100564 0.00036628186495 0.00036476925991 
0.00036326543741 0.00036176876236 0.00036028025837 0.00035880167898 0.0003573328928 0.00035587407353 0.00035442614 0.00035298850393 0.00043350398311 
0.00043149083437 0.00042949912947 0.00042752711088 0.00042557507844 0.00042364131813 0.00042172624628 0.00041982971224 0.00041795099015 0.00041609069523 
0.00041424856062 0.00041242443952 0.00041061763238 0.00040883004799 0.00040706043173 0.00040530822354 0.00040357375056 0.0004018557173 0.00040015149913 
0.00039846539568 0.00039679416986 0.0003951372105 0.00039349397439 0.00039186362225 0.00039024516123 0.00038863852159 0.00038704123527 0.00038545327334 
0.0003838730097 0.00038230046073 0.000380734991 0.00037917592001 0.00037762142519 0.00037607157403 0.00037452600859 0.000372985139 0.00037144867864 
0.00036991755855 0.00036839163505 0.00036687212295 0.00036535887232 0.00036385286564 0.00036235447418 0.0003608643485 0.00035938236002 0.0003579094928 
0.00035644663612 0.00035499337349 0.00035355053956 0.00035211817229 0.00043252171988 0.00043051666719 0.00042853147373 0.00042656610758 0.00042462030892 
0.0004226925558 0.0004207828323 0.0004188910796 0.00041701687116 0.00041516049213 0.00041332184004 0.00041150089628 0.00040969767226 0.0004079117293 
0.00040614421706 0.00040439374745 0.00040266103189 0.00040094445982 0.00039924183439 0.00039755721523 0.00039588782766 0.00039423278953 0.00039259109814 
0.00039096267207 0.0003893469951 0.00038774203774 0.00038614759988 0.00038456254014 0.00038298514237 0.00038141658537 0.00037985510402 0.00037829966907 
0.00037674993745 0.00037520529609 0.000373665509 0.00037213081832 0.00037060050724 0.00036907534519 0.00036755676968 0.00036604337397 0.00036453646688 
0.00036303698389 0.00036154463733 0.00036006053935 0.00035858502722 0.00035711823036 0.00035566078473 0.00035421263242 0.00035277471634 0.00035134723982 
0.00043168042398 0.00042968136653 0.00042770223663 0.00042574258354 0.00042380203536 0.00042187904252 0.0004199738087 0.00041808587779 0.0004162148508 
0.00041436097555 0.00041252468164 0.000410705543 0.00040890379785 0.00040711938527 0.0004053516149 0.00040360177319 0.00040186877045 0.00040015061659 
0.00039845045525 0.00039676593374 0.00039509653626 0.00039344197358 0.00039180076518 0.00039017338864 0.00038855751732 0.00038695348048 0.00038536058975 
0.00038377660086 0.00038220229488 0.00038063630184 0.00037907773398 0.00037752623467 0.00037598094226 0.0003744411116 0.00037290650594 0.00037137739989 
0.00036985297345 0.00036833500993 0.0003668218085 0.00036531513002 0.00036381493342 0.00036232143251 0.00036083566441 0.0003593573922 0.00035788778386 
0.00035642656694 0.0003549744191 0.00035353160002 0.00035209773444 0.00035067461844 0.00043097828 0.00042898453854 0.00042701047292 0.00042505518065 
0.00042311861205 0.00042119967007 0.00041929758555 0.00041741216774 0.00041554316337 0.00041369108478 0.00041185562611 0.00041003692745 0.00040823507217 
0.00040645037897 0.00040468191169 0.00040293089247 0.00040119691855 0.00039947720019 0.00039777625502 0.00039609052772 0.0003944201838 0.00039276424265 
0.0003911228374 0.00038949419162 0.00038787776107 0.00038627391745 0.00038468005237 0.00038309744231 0.00038152441571 0.00037995999097 0.00037840387536 
0.00037685521662 0.00037531363836 0.00037377825987 0.00037224863075 0.00037072464312 0.00036920617364 0.00036769437232 0.00036618751883 0.00036468737166 
0.00036319337448 0.00036170643295 0.00036022652437 0.00035875434455 0.00035729062088 0.00035583475556 0.00035438756242 0.00035294931299 0.00035152025645 
0.00035010083856 0.00043041462891 0.00042842464191 0.00042645446604 0.00042450250601 0.00042256881071 0.00042065221543 0.00041875228863 0.00041686831029 
0.00041500027295 0.00041314841369 0.00041131234144 0.00040949265582 0.00040768968037 0.00040590321277 0.00040413361467 0.00040237987433 0.00040064133626 
0.00039892138336 0.00039721777447 0.00039552999572 0.00039385712631 0.00039219984975 0.0003905558818 0.00038892545603 0.0003873079876 0.00038570226211 
0.00038410755922 0.00038252472954 0.00038095152371 0.00037938832414 0.00037783347428 0.00037628712275 0.00037474861201 0.00037321678643 0.00037169174272 
0.00037017280989 0.00036866094905 0.00036715462349 0.00036565438838 0.00036416011549 0.00036267234395 0.00036119209117 0.00035971818369 0.00035825185343 
0.00035679304808 0.00035534239793 0.00035389985905 0.00035246612226 0.00035104127929 0.0003496257141 0.00042998756998 0.00042800062412 0.00042603296672 
0.00042408322994 0.00042215100388 0.00042023545911 0.00041833587822 0.00041645219324 0.00041458354557 0.00041273067826 0.00041089321445 0.0004090714328 
0.00040726563553 0.00040547653829 0.00040370348736 0.00040194735104 0.0004002046779 0.00039848135857 0.00039677400689 0.00039508333703 0.00039340805767 
0.00039174707608 0.00039010009551 0.00038846689006 0.00038684693426 0.0003852384086 0.00038364282935 0.00038205824451 0.00038048454154 0.00037892105449 
0.00037736729267 0.00037582251885 0.00037428552962 0.00037275726478 0.00037123639605 0.00036972282325 0.00036821595599 0.00036671544079 0.00036522139699 
0.00036373358297 0.00036225216503 0.00036077738414 0.00035930964624 0.00035784891157 0.00035639525167 0.00035494913174 0.00035351113681 0.00035208146384 
0.00035066036929 0.00034924785221 0.00042969593551 0.00042771042704 0.00042574407218 0.00042379497786 0.00042186300921 0.0004199470781 0.00041804674521 
0.00041616164061 0.00041429166891 0.00041243618806 0.00041059566417 0.00040877090915 0.00040696132522 0.00040516795498 0.00040339102407 0.00040162810483 
0.00039988334109 0.00039815586774 0.00039644456421 0.00039475036976 0.00039307050868 0.00039140476019 0.00038975417511 0.0003881177853 0.00038649375578 
0.00038488320895 0.00038328478552 0.00038169818132 0.00038012302932 0.00037855872272 0.00037700507411 0.00037546139316 0.00037392722023 0.00037240169138 
0.0003708850731 0.00036937566661 0.0003678737807 0.00036637911687 0.00036489083166 0.00036340924516 0.00036193440768 0.00036046523156 0.00035900301315 
0.00035754738696 0.00035609899966 0.0003546572437 0.00035322337192 0.00035179714537 0.00035037881198 0.00034896919181 0.00042953642129 0.00042755111051 
0.00042558467275 0.00042363506313 0.00042170198898 0.00041978435038 0.00041788205725 0.00041599391827 0.00041412066833 0.00041226176801 0.00041041762792 
0.0004085882244 0.00040677405063 0.00040497509771 0.00040319075362 0.00040142495689 0.00039967553729 0.00039794218228 0.00039622719068 0.00039452713476 
0.00039284304535 0.0003911738047 0.00038951919623 0.00038787852634 0.00038625064234 0.00038463644176 0.00038303504995 0.0003814457538 0.00037986826801 
0.00037830288259 0.00037674871551 0.00037520540023 0.00037367254865 0.00037215020561 0.00037063648039 0.00036913128113 0.00036763441773 0.00036614518226 
0.00036466292167 0.00036318720621 0.0003617183078 0.00036025494166 0.00035879799319 0.00035734728333 0.00035590308971 0.0003544655287 0.00035303483216 
0.00035161160967 0.00035019596265 0.00034878882783 0.00042950514903 0.00042751916018 0.0004255508008 0.00042359943918 0.00042166353211 0.00041974261212 
0.0004178368275 0.0004159443747 0.00041406706967 0.00041220343215 0.00041035410418 0.00040851947123 0.00040669959779 0.00040489553342 0.00040310518498 
0.00040133368271 0.00039957957134 0.00039784095227 0.00039611953621 0.00039441439149 0.00039272549399 0.00039105173948 0.00038939223286 0.000387746396 
0.00038611480097 0.00038449707952 0.00038289190962 0.00038129941427 0.00037971942173 0.0003781519452 0.00037659663467 0.00037505320102 0.00037352204551 
0.00037200111868 0.00037049032945 0.00036898938602 0.00036749720131 0.00036601318836 0.00036453672837 0.00036306680582 0.00036160319699 0.00036014551951 
0.00035869349761 0.00035724730323 0.00035580718425 0.00035437315616 0.00035294548917 0.0003515246323 0.00035011120785 0.00034870567521 0.00042959677924 
0.00042760858279 0.00042563663142 0.00042368150475 0.00042174188237 0.00041981652513 0.00041790577479 0.00041600940481 0.00041412616799 0.00041225687092 
0.00041040169459 0.00040856089289 0.00040673473666 0.00040492177643 0.00040312716274 0.00040135023832 0.0003995895168 0.00039784557625 0.00039611780556 
0.000394407406 0.00039271293403 0.00039103462052 0.00038936978285 0.00038771998592 0.00038608422934 0.00038446178707 0.0003828527156 0.00038125693983 
0.0003796738321 0.00037810401582 0.0003765472317 0.00037500328398 0.00037347277212 0.00037195366695 0.00037044556913 0.00036894823304 0.00036746042123 
0.00036598147285 0.00036451034525 0.00036304602777 0.00036158744487 0.00036013485418 0.0003586876683 0.0003572458544 0.00035580926749 0.00035437749866 