# vtk DataFile Version 5.1
vtk output
ASCII
DATASET POLYDATA
POINTS 5197 double
0.57499998808 0.16750000417 9.5409791179e-17 0.57499998808 0.23749999702 9.5253662444e-17 0.56000000238 0.15250000358 -0.014999999665 
0.56000000238 0.25249999762 -0.014999999665 0.56000000238 0.18999999762 -0.014999999665 0.56000000238 0.25249999762 -0.014999999665 
0.57499998808 0.23749999702 9.9812204599e-17 0.63499999046 0.25249999762 -0.014999999665 0.64999997616 0.23749999702 1.1102230246e-16 
0.67000001669 0.23749999702 1.2490009027e-16 0.74500000477 0.23749999702 1.2490009027e-16 0.68500000238 0.25249999762 -0.014999999665 
0.75999999046 0.25249999762 -0.014999999665 0.59125000238 0.25249999762 -0.014999999665 0.70125001669 0.23749999702 1.2490009027e-16 
0.61249998212 0.23749999702 1.0408340856e-16 0.72249999642 0.25249999762 -0.014999999665 0.74500000477 0.16750000417 1.3305328531e-16 
0.57499998808 0.16750000417 9.6248245823e-17 0.75999999046 0.15250000358 -0.014999999665 0.56000000238 0.15250000358 -0.014999999665 
0.68500000238 0.15250000358 -0.014999999665 0.65999999642 0.16750000417 1.1465076557e-16 0.72874999046 0.15250000358 -0.014999999665 
0.62250000238 0.15250000358 -0.014999999665 0.7025000006 0.16750000417 1.2385202544e-16 0.74500000477 0.16750000417 1.3305328531e-16 
0.75999999046 0.15250000358 -0.014999999665 0.74500000477 0.23749999702 1.2836953722e-16 0.75999999046 0.25249999762 -0.014999999665 
0.75999999046 0.18999999762 -0.014999999665 0.63499999046 0.5 -0.014999999665 0.63499999046 0.25249999762 -0.014999999665 
0.64999997616 0.5 1.1102230246e-16 0.64999997616 0.23749999702 1.1102230246e-16 0.63499999046 0.375 -0.014999999665 
0.64999997616 0.36874999851 1.1102230246e-16 0.64999997616 0.43437499925 1.1102230246e-16 0.63499999046 0.4375 -0.014999999665 
0.64999997616 0.46718749963 1.1102230246e-16 0.63499999046 0.40625 -0.014999999665 0.63499999046 0.31374999881 -0.014999999665 
0.64999997616 0.30312499776 1.1102230246e-16 0.67000001669 0.5 1.1709383463e-16 0.64999997616 0.5 1.1275702594e-16 
0.67000001669 0.23749999702 1.1639994259e-16 0.64999997616 0.23749999702 1.120631339e-16 0.74500000477 0.16750000417 1.3247790178e-16 
0.57499998808 0.16750000417 9.5615099001e-17 0.57499998808 0.23749999702 9.5800136857e-17 0.74500000477 0.23749999702 1.3266293964e-16 
0.67000001669 0.375 1.1676340985e-16 0.64999997616 0.36874999851 1.1241007992e-16 0.65999999642 0.16750000417 1.1404650039e-16 
0.67000001669 0.4375 1.1692862224e-16 0.64999997616 0.43437499925 1.1258355293e-16 0.67000001669 0.30624999851 1.1658167622e-16 
0.64999997616 0.30312499776 1.1223660691e-16 0.64999997616 0.46718749963 1.1267028943e-16 0.67000001669 0.46875 1.1701122843e-16 
0.67000001669 0.34062499925 1.1667254304e-16 0.65999999642 0.20321428928 1.1414090747e-16 0.67000001669 0.40625 1.1684601605e-16 
0.67000001669 0.27187499776 1.1649080941e-16 0.6102971133 0.2025000006 1.0336144639e-16 0.70970287954 0.2025000006 1.2491659225e-16 
0.68500000238 0.5 -0.014999999665 0.67000001669 0.5 1.1622647289e-16 0.68500000238 0.25249999762 -0.014999999665 
0.67000001669 0.23749999702 1.1622647289e-16 0.68500000238 0.375 -0.014999999665 0.67000001669 0.36874999851 1.1622647289e-16 
0.67000001669 0.43437499925 1.1622647289e-16 0.68500000238 0.4375 -0.014999999665 0.68500000238 0.46875 -0.014999999665 
0.67000001669 0.46718749963 1.1622647289e-16 0.68500000238 0.40625 -0.014999999665 0.67000001669 0.29999999702 1.1622647289e-16 
0.68500000238 0.31374999881 -0.014999999665 0.34000000358 0.25249999762 -0.014999999665 0.35499998927 0.23749999702 4.6835371095e-17 
0.41499999166 0.25249999762 -0.014999999665 0.43000000715 0.23749999702 4.5102810375e-17 0.44999998808 0.23749999702 5.5511151231e-17 
0.52499997616 0.23749999702 5.5511151231e-17 0.46500000358 0.25249999762 -0.014999999665 0.54000002146 0.25249999762 -0.014999999665 
0.37125000358 0.25249999762 -0.014999999665 0.48124998808 0.23749999702 5.5511151231e-17 0.35562500358 0.25249999762 -0.014999999665 
0.39249999821 0.23749999702 4.5102810375e-17 0.50250001252 0.25249999762 -0.014999999665 0.46562498808 0.23749999702 5.5511151231e-17 
0.41437500715 0.23749999702 4.1633363423e-17 0.39312499762 0.25249999762 -0.014999999665 0.37374999374 0.23749999702 4.7704895589e-17 
0.40343750268 0.24477864326 -0.0072786457862 0.3821875006 0.24580728599 -0.0083072884526 0.34000000358 0.25249999762 -0.014999999665 
0.34000000358 0.15250000358 -0.014999999665 0.35499998927 0.23749999702 4.6837533851e-17 0.35499998927 0.16750000417 4.5102810375e-17 
0.34000000358 0.18999999762 -0.014999999665 0.34000000358 0.16812500358 -0.014999999665 0.35499998927 0.2025000006 4.5102810375e-17 
0.34773437114 0.1790625006 -0.0072656249007 0.34000000358 0.22124999762 -0.014999999665 0.34000000358 0.20562499762 -0.014999999665 
0.34000000358 0.23687499762 -0.014999999665 0.35499998927 0.21999999881 4.5102810375e-17 0.34000000358 0.15250000358 -0.014999999665 
0.54000002146 0.15250000358 -0.014999999665 0.35499998927 0.16750000417 4.3368086899e-17 0.52499997616 0.16750000417 6.2450045135e-17 
0.46500000358 0.15250000358 -0.014999999665 0.43999998271 0.16750000417 5.3776427755e-17 0.50875002146 0.15250000358 -0.014999999665 
0.40250000358 0.15250000358 -0.014999999665 0.52437502146 0.15250000358 -0.014999999665 0.37125000358 0.15250000358 -0.014999999665 
0.35562500358 0.15250000358 -0.014999999665 0.48249997944 0.16750000417 5.8980598183e-17 0.39749998599 0.16750000417 4.8572257327e-17 
0.37624998763 0.16750000417 4.6837533851e-17 0.41874998435 0.16750000417 5.0306980803e-17 0.38687500358 0.1578124976 -0.0096875059729 
0.36562498845 0.16135416745 -0.0061458363456 0.40812498517 0.16135417373 -0.0061458300592 0.43375000358 0.15250000358 -0.014999999665 
0.42937498353 0.1615625007 -0.0059375031075 0.46124998108 0.16750000417 5.5511151231e-17 0.4506249819 0.15843749316 -0.0090625104494 
0.48687501252 0.15250000358 -0.014999999665 0.47187498026 0.16109375895 -0.0064062448219 0.5037499778 0.16750000417 6.0715321659e-17 
0.49312497862 0.16123047942 -0.006269524359 0.51437497698 0.16135417862 -0.0061458251698 0.54000002146 0.25249999762 -0.014999999665 
0.52499997616 0.23749999702 8.4796802694e-17 0.54000002146 0.15250000358 -0.014999999665 0.52499997616 0.16750000417 9.0205620751e-17 
0.54000002146 0.18999999762 -0.014999999665 0.41499999166 0.5 -0.014999999665 0.41499999166 0.25249999762 -0.014999999665 
0.43000000715 0.5 6.4184768611e-17 0.43000000715 0.23749999702 6.4184768611e-17 0.41499999166 0.375 -0.014999999665 
0.43000000715 0.36874999851 6.4184768611e-17 0.43000000715 0.43437499925 6.4184768611e-17 0.41499999166 0.4375 -0.014999999665 
0.43000000715 0.46718749963 6.4184768611e-17 0.41499999166 0.40625 -0.014999999665 0.41499999166 0.31374999881 -0.014999999665 
0.43000000715 0.30312499776 6.4184768611e-17 0.41499999166 0.3443749994 -0.014999999665 0.43000000715 0.26874999702 6.4184768611e-17 
0.43000000715 0.35234374832 6.4184768611e-17 0.43000000715 0.33593749814 6.4184768611e-17 0.43000000715 0.25312499702 6.4184768611e-17 
0.41499999166 0.28312499821 -0.014999999665 0.43000000715 0.31953124795 6.4184768611e-17 0.41937988177 0.32906249911 -0.01062011417 
0.41949096632 0.3596874997 -0.010509029741 0.41895833239 0.29843749851 -0.011041663108 0.43000000715 0.28593749739 6.4184768611e-17 
0.41499999166 0.26781249791 -0.014999999665 0.44999998808 0.5 6.7220534694e-17 0.43000000715 0.5 6.2883726004e-17 
0.44999998808 0.23749999702 6.7550129772e-17 0.43000000715 0.23749999702 6.3213321082e-17 0.52499997616 0.16750000417 8.3901067295e-17 
0.35499998927 0.16750000417 4.7038161119e-17 0.35499998927 0.23749999702 4.6950269108e-17 0.52499997616 0.23749999702 8.3813175284e-17 
0.44999998808 0.375 6.737748473e-17 0.43000000715 0.36874999851 6.3048523543e-17 0.43999998271 0.16750000417 6.5469614207e-17 
0.43000000715 0.43437499925 6.2966124774e-17 0.44999998808 0.4375 6.7299009712e-17 0.43000000715 0.30312499776 6.3130922313e-17 
0.44999998808 0.30624999851 6.7463807251e-17 0.43000000715 0.46718749963 6.2924925389e-17 0.43000000715 0.33593749814 6.3089722928e-17 
0.43999999762 0.20321428502 6.5424774577e-17 0.43000000715 0.40156249888 6.3007324158e-17 0.44999998808 0.27187499776 6.7506968512e-17 
0.43000000715 0.27031249739 6.3172121698e-17 0.43999999762 0.22181547167 6.5401418922e-17 0.43000000715 0.28671874758 6.3151522005e-17 
0.43999999762 0.25390624721 6.5361125735e-17 0.39249999821 0.23749999702 5.5081795095e-17 0.47187498026 0.18774688318 7.2355987128e-17 
0.42541244453 0.21251487835 6.2249922383e-17 0.39749998599 0.16750000417 5.6253887663e-17 0.39810012215 0.19971830835 5.6343568261e-17 
0.41874998435 0.16750000417 6.0861750935e-17 0.45031867956 0.18535714029 6.7684705624e-17 0.48749998212 0.23749999702 7.5681652528e-17 
0.48249997944 0.16750000417 7.4685340751e-17 0.46124998108 0.16750000417 7.0077477479e-17 0.45679773537 0.20493709562 6.9065043643e-17 
0.45704321408 0.22197933192 6.9096875167e-17 0.48074343751 0.21311506455 7.4247176791e-17 0.4687499851 0.23749999702 7.161589115e-17 
0.46730801774 0.21330859018 7.1333588761e-17 0.47187498026 0.1748355916 7.2372198549e-17 0.47812498361 0.22696909569 7.3661994442e-17 
0.44999998808 0.28906249814 6.7485387881e-17 0.41125000268 0.22802899445 5.9159449882e-17 0.42421990821 0.22564756674 6.1974842636e-17 
0.39540547605 0.21995660022 5.5733848267e-17 0.35499998927 0.2025000006 4.6994215113e-17 0.41209774694 0.21458155415 5.93601599e-17 
0.42616478185 0.19760463497 6.2431780997e-17 0.46039476431 0.19288488434 6.9860158463e-17 0.37374999374 0.23749999702 5.1016032102e-17 
0.43390643241 0.18293102872 6.4128909653e-17 0.41226358012 0.20040254768 5.9413922439e-17 0.40598397976 0.1834567128 5.8073527064e-17 
0.41997849005 0.18496179564 6.1106215868e-17 0.38083153319 0.2077176026 5.2588992439e-17 0.35499998927 0.21999999881 4.6972242111e-17 
0.36667532714 0.2112499997 4.9514916364e-17 0.38651244463 0.18405853197 5.3850551255e-17 0.36934390958 0.19552490084 5.0113317929e-17 
[...]
CELL_DATA 5793
FIELD FieldData 4
electrode_index 1 5793 int
0 0 0 0 0 0 0 0 0 
0 0 0 0 0 0 0 0 0 
0 0 0 0 0 0 0 0 0 
0 0 0 0 0 0 0 0 0 
0 0 0 0 0 0 0 0 0 
0 0 0 0 0 0 0 0 0 
0 0 0 0 0 0 0 0 0 
0 0 0 1 1 1 1 1 1 
1 1 1 1 1 1 1 1 1 
1 1 1 1 1 1 1 1 1 
1 1 1 1 1 1 1 1 1 
1 1 1 1 1 1 1 1 1 
1 1 1 1 1 1 1 1 1 
1 1 1 1 1 1 1 1 1 
1 1 1 1 1 1 1 1 1 
1 1 1 1 1 1 1 1 1 
1 1 1 1 1 1 1 1 1 
1 1 1 1 1 1 1 1 1 
1 1 1 1 1 1 1 1 1 
1 1 1 1 1 1 1 1 1 
1 1 1 1 1 1 1 1 1 
1 1 1 1 1 1 1 1 1 
1 1 1 1 1 1 1 1 1 
1 1 1 1 1 1 1 1 1 
1 1 1 1 1 1 1 1 1 
1 1 1 1 1 1 1 1 1 
1 1 1 1 1 1 1 1 1 
1 1 1 1 1 1 1 1 1 
1 1 1 1 1 1 1 1 1 
1 1 1 1 1 1 1 1 1 
1 1 1 1 1 1 2 2 2 
2 2 2 2 2 2 2 2 2 
2 2 2 2 2 2 2 2 2 
2 2 2 2 2 2 2 2 2 
2 2 2 2 2 2 2 2 2 
2 2 2 2 2 2 2 2 2 
2 2 2 2 2 2 2 2 2 
2 2 2 2 2 2 2 2 2 
2 2 2 2 2 2 2 2 2 
2 2 2 2 2 2 2 2 2 
2 2 2 2 2 2 2 2 2 
2 2 2 2 2 2 2 2 2 
2 2 2 2 2 2 2 2 2 
2 2 2 2 2 2 2 2 2 
2 2 2 2 2 2 2 2 2 
2 2 2 2 2 2 2 2 2 
2 2 2 2 2 2 2 2 2 
2 2 2 2 2 2 2 2 3 
3 3 3 3 3 3 3 3 3 
3 3 3 3 3 3 3 3 3 
3 3 3 3 3 3 3 3 3 
3 3 3 3 3 3 3 3 3 
3 3 3 3 3 3 3 3 3 
3 3 3 3 3 3 3 3 3 
3 3 3 3 3 3 3 3 3 
3 3 3 3 3 3 3 3 3 
3 3 3 3 3 3 3 3 3 
3 3 3 3 3 3 3 3 3 
3 3 3 3 3 3 3 3 3 
3 3 3 3 3 3 3 3 3 
3 3 3 3 3 3 3 3 3 
3 3 3 3 3 3 3 3 3 
3 3 3 3 3 3 3 3 3 
3 3 3 3 3 3 3 3 3 
3 3 3 3 3 3 3 3 3 
3 3 3 3 3 3 3 3 3 
3 3 3 3 3 3 3 3 3 
3 3 3 3 3 3 3 3 3 
3 3 3 3 3 3 3 3 3 
3 3 3 3 3 3 3 3 3 
3 3 3 3 3 3 3 3 3 
3 3 3 3 3 3 3 3 3 
3 3 3 3 3 3 3 3 3 
3 3 3 3 3 3 3 3 3 
3 3 3 3 3 3 3 3 3 
3 4 4 4 4 4 4 4 4 
4 4 4 4 4 4 4 4 4 
4 4 4 4 4 4 4 4 4 
4 4 4 4 4 4 4 4 4 
4 4 4 4 4 4 4 4 4 
4 4 4 4 4 4 4 4 4 
4 4 4 4 4 4 4 4 4 
4 4 4 4 4 4 4 4 4 
4 4 4 4 4 4 4 4 4 
4 4 4 4 4 4 4 4 4 
5 5 5 5 5 5 5 5 5 
5 5 5 5 5 5 5 5 5 
5 5 5 5 5 5 5 5 5 
5 5 5 5 5 5 5 5 5 
5 5 5 5 5 5 5 5 5 
5 5 5 5 5 5 5 5 6 
6 6 6 6 6 6 6 6 6 
6 6 6 6 6 6 6 6 6 
6 6 6 6 6 6 6 6 6 
6 6 6 6 6 6 6 6 6 
6 6 6 6 6 6 6 6 6 
6 6 6 6 6 6 6 6 6 
6 6 6 6 6 6 6 6 6 
6 6 6 6 6 6 6 6 6 
6 6 6 6 6 6 6 6 6 
6 6 6 6 6 6 6 6 6 
6 6 6 6 6 6 6 6 6 
6 6 6 6 6 6 6 6 6 
6 6 6 6 6 6 6 6 6 
6 6 6 6 6 6 6 6 6 
6 6 6 6 6 6 6 6 6 
6 6 6 6 6 6 6 6 6 
6 6 6 6 6 6 6 6 6 
6 6 6 6 6 6 6 6 6 
6 6 6 6 6 6 6 6 6 
6 6 6 6 6 6 6 6 6 
6 6 6 6 6 6 6 6 6 
6 6 6 6 6 6 6 6 6 
6 6 6 6 6 6 6 6 6 
6 6 6 6 6 6 6 6 6 
6 6 6 6 6 6 6 6 6 
6 6 6 6 6 6 6 6 6 
6 6 6 6 6 6 6 6 6 
6 6 6 6 6 6 6 6 6 
6 6 6 6 6 6 6 6 6 
6 6 6 6 6 6 6 6 6 
6 6 6 6 6 6 6 6 6 
6 6 6 6 6 6 6 6 6 
6 6 6 6 6 6 6 6 6 
6 6 6 6 6 6 6 6 6 
6 6 6 6 6 6 6 6 6 
6 6 6 6 6 6 6 6 6 
6 6 6 6 6 6 6 6 6 
6 6 6 6 6 6 6 6 6 
6 6 6 6 6 6 6 6 6 
6 6 6 6 6 6 6 6 6 
6 6 6 6 6 6 6 6 6 
6 6 6 6 6 6 6 6 6 
6 6 6 6 6 6 6 6 6 
6 6 6 6 6 6 6 6 6 
6 6 6 6 6 6 6 6 6 
6 6 6 6 6 6 6 6 6 
6 6 6 6 6 6 6 6 6 
6 6 6 6 6 6 6 6 6 
6 6 6 6 6 6 6 6 6 
6 6 6 6 6 6 6 6 6 
6 6 6 6 6 6 6 6 6 
6 6 6 6 6 6 6 6 6 
6 6 6 6 6 6 6 6 6 
6 6 6 6 6 6 6 6 6 
6 6 6 6 6 6 6 6 6 
6 6 6 6 6 6 6 6 6 
6 6 6 6 6 6 6 6 6 
6 6 6 6 6 6 6 6 6 
6 6 6 6 6 6 6 6 6 
6 6 6 6 6 6 6 6 6 
6 6 6 6 6 6 6 6 6 
6 6 6 6 6 6 6 6 6 
6 6 6 6 6 6 6 6 6 
6 6 6 6 6 6 6 6 6 
6 6 6 6 6 6 6 6 6 
6 6 6 6 6 6 6 6 6 
6 6 6 6 6 6 6 6 6 
6 6 6 6 6 6 6 6 6 
6 6 6 6 6 6 6 6 6 
6 6 6 6 6 6 6 6 6 
6 6 6 6 6 6 6 6 6 
6 6 6 6 6 6 6 6 6 
6 6 6 6 6 6 6 6 6 
6 6 6 6 6 6 6 6 6 
6 6 6 6 6 6 6 6 6 
6 6 6 6 6 6 6 6 6 
6 6 6 6 6 6 6 6 6 
6 6 6 6 6 6 6 6 6 
6 6 6 6 6 6 6 6 6 
6 6 6 6 6 6 6 6 6 
6 6 6 6 6 6 6 6 6 
6 6 6 6 6 6 6 6 6 
6 6 6 6 6 6 6 6 6 
6 6 6 6 6 6 6 6 6 
6 6 6 6 6 6 6 6 6 
6 6 6 6 6 6 6 6 6 
6 6 6 6 6 6 6 6 6 
6 6 6 6 6 6 6 6 6 
6 6 6 6 6 6 6 6 6 
6 6 6 6 6 6 6 6 6 
6 6 6 6 6 6 6 6 6 
6 6 6 6 6 6 6 6 6 
6 6 6 6 6 6 6 6 6 
6 6 6 6 6 6 6 6 6 
6 6 6 6 6 6 6 6 6 
6 6 6 6 6 6 6 6 6 
6 6 6 6 6 6 6 6 6 
6 6 6 6 6 6 6 6 6 
6 6 6 6 6 6 6 6 6 
6 6 6 6 6 6 6 6 6 
6 6 6 6 6 6 6 6 6 
6 6 6 6 6 6 6 6 6 
6 6 6 6 6 6 6 6 6 
6 6 6 6 6 6 6 6 6 
6 6 6 6 6 6 6 6 6 
6 6 6 6 6 6 6 6 6 
6 6 6 6 6 6 6 6 6 
6 6 6 6 6 6 6 6 6 
6 6 6 6 6 6 6 6 6 
6 6 6 6 6 6 6 6 6 
6 6 6 6 6 6 6 6 6 
6 6 6 6 6 6 6 6 6 
6 6 6 6 6 6 6 6 6 
6 6 6 6 6 6 6 6 6 
6 6 6 6 6 6 6 6 6 
6 6 6 6 6 6 6 6 6 
6 6 6 6 6 6 6 6 6 
6 6 6 6 6 6 6 6 6 
6 6 6 6 6 6 6 6 6 
6 6 6 6 6 6 6 6 6 
6 6 6 6 6 6 6 6 6 
6 6 6 6 6 6 6 6 6 
6 6 6 6 6 6 6 6 6 
6 6 6 6 6 6 6 6 6 
6 6 6 6 6 6 6 6 6 
6 6 6 6 6 6 6 6 6 
6 6 6 6 6 6 6 6 6 
6 6 6 6 6 6 6 6 6 
6 6 6 6 6 6 6 6 6 
6 6 6 6 6 6 6 6 6 
6 6 6 6 6 6 6 6 6 
6 6 6 6 6 6 6 6 6 
6 6 6 6 6 6 6 6 6 
6 6 6 6 6 6 6 6 6 
6 6 6 6 6 6 6 6 6 
6 6 6 6 6 6 6 6 6 
6 6 6 6 6 6 6 6 6 
6 6 6 6 6 6 6 6 6 
6 6 6 6 6 6 6 6 6 
6 6 6 6 6 6 6 6 6 
6 6 6 6 6 6 6 6 6 
6 6 6 6 6 6 6 6 6 
6 6 6 6 6 6 6 6 6 
6 6 6 6 6 6 6 6 6 
6 6 6 6 6 6 6 6 6 
6 6 6 6 6 6 6 6 6 
6 6 6 6 6 6 6 6 6 
6 6 6 6 6 6 6 6 6 
6 6 6 6 6 6 6 6 6 
6 6 6 6 6 6 6 6 6 
7 7 7 7 7 7 7 7 7 
7 7 7 7 7 7 7 7 7 
7 7 7 7 7 7 7 7 7 
7 7 7 7 7 7 7 7 7 
7 7 7 7 7 7 7 7 7 
7 7 7 7 7 7 7 7 7 
7 7 7 7 7 7 7 7 7 
7 7 7 7 7 7 7 7 7 
7 7 7 7 7 7 7 7 7 
7 7 7 7 7 7 7 7 7 
7 7 7 7 7 7 7 7 7 
7 7 7 7 7 7 7 7 7 
7 7 7 7 7 7 7 7 7 
7 7 7 7 7 7 7 7 7 
7 7 7 7 7 7 7 7 7 
7 7 7 7 7 7 7 7 7 
7 7 7 7 7 7 7 7 7 
7 7 7 7 7 7 7 7 7 
7 7 7 7 7 7 7 7 7 
7 7 7 7 7 7 7 7 7 
7 7 7 7 7 7 7 7 7 
7 7 7 7 7 7 7 7 7 
7 7 7 7 7 7 7 7 7 
7 7 7 7 7 7 7 7 7 
7 7 7 7 7 7 7 7 7 
7 7 7 7 7 7 7 7 7 
7 7 7 7 7 7 7 7 7 
7 7 7 7 7 7 7 7 7 
7 7 7 7 7 7 7 7 7 
7 7 7 7 7 7 7 7 7 
7 7 7 7 7 7 7 7 7 
7 7 7 7 7 7 7 7 7 
7 7 7 7 7 7 7 7 7 
7 7 7 7 7 7 7 7 7 
7 7 7 7 7 7 7 7 7 
7 7 7 7 7 7 7 7 7 
7 7 7 7 7 7 7 7 7 
7 7 7 7 7 7 7 7 7 
7 7 7 7 7 7 7 7 7 
7 7 7 7 7 7 7 7 7 
7 7 7 7 7 7 7 7 7 
7 7 7 7 7 7 7 7 7 
7 7 7 7 7 7 7 7 7 
7 7 7 7 7 7 7 7 7 
7 7 7 7 7 7 7 7 7 
7 7 7 7 7 7 7 7 7 
7 7 7 7 7 7 7 7 7 
7 7 7 7 7 7 7 7 7 
7 7 7 7 7 7 7 7 7 
7 7 7 7 7 7 7 7 7 
7 7 7 7 7 7 7 7 7 
7 7 7 7 7 7 7 7 7 
7 7 7 7 7 7 7 7 7 
7 7 7 7 7 7 7 7 7 
7 7 7 7 7 7 7 7 7 
7 7 7 7 7 7 7 7 7 
7 7 7 7 7 7 7 7 7 
7 7 7 7 7 7 7 7 7 
7 7 7 7 7 7 7 7 7 
7 7 7 7 7 7 7 7 7 
7 7 7 7 7 7 7 7 7 
7 7 7 7 7 7 7 7 7 
7 7 7 7 7 7 7 7 7 
7 7 7 7 7 7 7 7 7 
7 7 7 7 7 7 7 7 7 
7 7 7 7 7 7 7 7 7 
7 7 7 7 7 7 7 7 7 
7 7 7 7 7 7 7 7 7 
7 7 7 7 7 7 7 7 7 
7 7 7 7 8 8 8 8 8 
8 8 8 8 8 8 8 8 8 
8 8 8 8 8 8 8 8 8 
8 8 8 8 8 8 8 8 8 
8 8 8 8 8 8 8 8 8 
8 8 8 8 8 8 8 8 8 
8 8 8 8 9 9 9 9 9 
9 9 9 9 9 9 9 9 9 
9 9 9 9 9 9 9 9 9 
9 9 9 9 9 9 9 9 9 
9 9 9 9 9 9 9 9 9 
9 9 9 9 9 9 9 9 9 
9 9 10 10 10 10 10 10 10 
10 10 10 10 10 10 10 10 10 
10 10 10 10 10 10 10 10 10 
10 10 10 10 10 10 10 10 10 
10 10 10 10 10 10 10 10 10 
10 10 10 10 10 10 10 10 10 
11 11 11 11 11 11 11 11 11 
11 11 11 11 11 11 11 11 11 
11 11 11 11 11 11 11 11 11 
11 11 11 11 11 11 11 11 11 
11 11 11 11 11 11 11 11 11 
11 11 11 11 11 11 11 12 12 
12 12 12 12 12 12 12 12 12 
12 12 12 12 12 12 12 12 12 
12 12 12 12 12 12 12 12 12 
12 12 12 12 12 12 12 12 12 
12 12 12 12 12 12 12 12 12 
12 12 12 12 13 13 13 13 13 
13 13 13 13 13 13 13 13 13 
13 13 13 13 13 13 13 13 13 
13 13 13 13 13 13 13 13 13 
13 13 13 13 13 13 13 13 13 
13 13 13 13 13 13 13 13 13 
13 13 14 14 14 14 14 14 14 
14 14 14 14 14 14 14 14 14 
14 14 14 14 14 14 14 14 14 
14 14 14 14 14 14 14 14 14 
14 14 14 14 14 14 14 14 14 
14 14 14 14 14 14 14 14 14 
15 15 15 15 15 15 15 15 15 
15 15 15 15 15 15 15 15 15 
15 15 15 15 15 15 15 15 15 
15 15 15 15 15 15 15 15 15 
15 15 15 15 15 15 15 15 15 
15 15 15 15 15 15 15 16 16 
16 16 16 16 16 16 16 16 16 
16 16 16 16 16 16 16 16 16 
16 16 16 16 16 16 16 16 16 
16 16 16 16 16 16 16 16 16 
16 16 16 16 16 16 16 16 16 
16 16 16 16 16 17 17 17 17 
17 17 17 17 17 17 17 17 17 
17 17 17 17 17 17 17 17 17 
17 17 17 17 17 17 17 17 17 
17 17 17 17 17 17 17 17 17 
17 17 17 17 17 17 17 17 17 
17 17 17 17 17 17 17 17 17 
17 17 17 17 17 17 17 17 17 
17 17 17 17 17 17 17 17 17 
17 17 17 17 17 17 17 17 17 
17 17 17 17 17 17 17 17 17 
17 17 17 17 17 17 17 17 17 
17 17 17 17 17 18 18 18 18 
18 18 18 18 18 18 18 18 18 
18 18 18 18 18 18 18 18 18 
18 18 18 18 18 18 18 18 18 
18 18 18 18 18 18 18 18 18 
18 18 18 18 18 18 18 18 18 
18 18 18 18 18 18 18 18 18 
18 18 18 18 18 18 18 18 18 
18 18 18 18 18 18 18 18 18 
18 18 18 18 18 18 18 18 18 
18 18 18 18 18 18 18 18 18 
18 18 18 18 18 18 18 18 18 
18 18 18 18 18 18 18 18 18 
18 18 18 18 18 18 18 18 18 
18 18 18 18 18 18 18 18 18 
18 18 18 18 18 18 18 18 18 
18 18 18 18 18 18 18 18 18 
18 18 18 18 18 18 18 18 18 
18 18 18 18 18 18 18 18 18 
18 18 18 18 18 18 18 18 18 
18 18 18 18 18 18 18 18 18 
18 18 18 18 18 18 18 18 18 
18 18 18 18 18 18 18 18 18 
18 18 18 18 18 18 18 18 18 
18 18 18 18 18 18 18 18 18 
18 18 18 18 18 18 18 18 18 
18 18 18 18 18 18 18 18 18 
18 18 18 18 18 18 18 18 18 
18 18 18 18 18 18 19 19 19 
19 19 19 19 19 19 19 19 19 
19 19 19 19 19 19 19 19 19 
19 19 19 19 19 19 19 19 19 
19 19 19 19 19 19 19 19 19 
19 19 19 19 19 19 19 19 19 
19 19 19 19 19 19 19 19 19 
19 19 19 19 19 19 19 19 19 
19 19 19 19 19 19 19 19 19 
19 19 19 19 19 19 19 19 19 
19 19 19 19 19 19 19 19 19 
19 19 19 19 19 19 19 19 19 
19 19 19 19 19 19 19 19 19 
19 19 19 19 19 19 19 19 19 
19 19 19 19 19 19 19 19 19 
19 19 19 19 19 19 19 19 19 
19 19 19 19 19 19 19 19 19 
19 19 19 19 19 19 19 19 19 
19 19 19 19 20 20 20 20 20 
20 20 20 20 20 20 20 20 20 
20 20 20 20 20 20 20 20 20 
20 20 20 20 20 20 20 20 20 
20 20 20 20 20 20 20 20 20 
20 20 20 20 20 20 20 20 20 
20 20 20 20 20 20 20 20 20 
20 20 20 20 20 20 20 20 20 
20 20 20 20 20 20 20 20 20 
20 20 20 20 20 20 20 20 20 
20 20 20 20 20 20 20 20 20 
20 20 20 20 20 20 20 20 20 
20 20 20 20 20 20 20 20 20 
20 20 20 20 20 20 20 20 20 
20 20 20 20 20 20 20 20 20 
20 20 20 20 20 20 20 20 20 
20 20 20 20 20 20 20 20 20 
20 20 20 20 20 20 20 20 20 
20 20 20 20 20 20 20 20 20 
20 20 20 20 20 20 20 20 20 
20 20 20 20 20 20 20 20 20 
20 20 20 20 20 20 20 20 20 
20 20 20 20 20 20 20 20 20 
20 20 20 20 20 20 20 20 20 
20 20 20 20 20 20 20 20 20 
20 20 20 20 20 20 20 20 20 
20 20 20 20 20 20 21 21 21 
21 21 21 21 21 21 21 21 21 
21 21 21 21 21 21 21 21 21 
21 21 21 21 21 21 21 21 21 
21 21 21 21 21 21 21 21 21 
21 21 21 21 21 21 21 21 21 
21 21 21 21 21 21 21 21 21 
21 21 21 21 21 21 21 21 22 
22 22 22 22 22 22 22 22 22 
22 22 22 22 22 22 22 22 22 
22 22 22 22 22 22 22 22 22 
22 22 22 22 22 22 22 22 22 
22 22 22 22 22 22 22 22 22 
22 22 22 22 22 22 22 22 22 
22 22 22 22 22 22 22 22 22 
22 22 22 22 22 22 22 22 22 
22 22 22 22 22 22 22 22 22 
22 22 22 22 22 22 22 22 22 
22 22 22 22 22 22 22 22 22 
22 22 22 22 22 22 22 22 22 
22 22 22 22 22 22 22 22 22 
22 22 22 22 22 22 22 22 22 
22 22 22 22 22 22 22 22 22 
22 22 22 22 22 22 22 22 22 
22 22 22 22 22 22 22 22 22 
22 22 22 22 22 22 22 22 22 
22 22 22 22 22 22 22 22 22 
22 22 22 22 22 22 22 22 22 
22 22 22 22 22 22 22 22 22 
22 22 22 22 22 22 22 22 22 
22 22 22 22 22 22 22 22 22 
22 22 22 22 22 22 22 22 22 
22 22 22 22 22 22 22 22 22 
22 22 22 22 22 22 22 22 22 
22 22 22 22 22 22 22 22 22 
22 22 22 22 22 22 22 22 22 
22 22 22 22 22 22 22 22 22 
22 22 22 22 22 22 22 22 22 
22 22 22 22 22 22 22 22 22 
22 22 22 22 22 22 22 22 22 
22 22 22 22 22 22 22 22 22 
22 22 22 22 22 22 22 22 22 
22 22 22 22 22 22 22 22 22 
22 22 22 22 22 22 22 22 22 
22 22 22 22 22 22 22 22 22 
22 22 22 22 22 22 22 22 22 
22 22 22 22 22 22 22 22 22 
22 22 22 22 22 22 22 22 22 
22 22 22 22 22 22 22 22 22 
22 22 22 22 22 22 22 22 22 
22 22 22 22 22 22 22 22 22 
22 22 22 22 22 22 22 22 22 
22 22 22 22 22 22 22 22 22 
22 22 22 22 22 22 22 22 22 
22 22 22 22 22 22 22 22 22 
22 22 22 22 22 22 22 22 22 
22 22 22 22 22 22 22 22 22 
22 22 22 22 22 22 22 22 22 
22 22 22 22 22 22 22 22 22 
22 22 22 22 22 22 22 22 22 
22 22 22 22 22 22 22 22 22 
22 22 22 22 22 22 22 22 22 
22 22 22 22 22 22 22 22 22 
22 22 22 22 22 22 22 22 22 
22 22 22 22 22 22 22 22 22 
22 22 22 22 22 22 22 22 22 
22 22 22 22 22 22 22 22 22 
22 22 22 22 22 22 22 22 22 
22 22 22 22 22 22 22 22 22 
22 22 22 22 22 22 22 22 22 
22 22 22 22 22 22 22 22 22 
22 22 22 22 22 22 22 22 22 
22 22 22 22 22 22 22 22 22 
22 22 22 22 22 22 22 22 22 
22 22 22 22 22 22 22 22 22 
22 22 22 22 22 22 22 22 22 
22 22 22 22 22 22 22 22 22 
22 22 22 22 22 22 22 22 22 
22 22 22 22 22 22 22 22 22 
22 22 22 22 22 22 22 22 22 
22 22 22 22 22 22 22 22 22 
22 22 22 22 22 22 22 22 22 
22 22 22 22 22 22 22 22 22 
22 22 22 22 22 22 22 22 22 
22 22 22 22 22 22 22 22 22 
22 22 22 22 22 22 22 22 22 
22 22 22 22 22 22 22 22 22 
22 22 22 22 22 22 22 22 22 
22 22 22 22 22 22 22 22 22 
22 22 22 22 22 22 22 22 22 
22 22 22 22 22 22 22 22 22 
22 22 22 22 22 22 22 22 22 
22 22 22 22 22 22 22 22 22 
22 22 22 22 22 22 22 22 22 
22 22 22 22 22 22 22 22 22 
22 22 22 22 22 22 22 22 22 
22 22 22 22 22 22 22 22 22 
22 22 22 22 22 22 22 22 22 
22 22 22 22 22 22 22 22 22 
22 22 22 22 22 22 22 22 22 
22 22 22 22 22 22 22 22 22 
22 22 22 22 22 22 22 22 22 
22 22 22 22 22 22 22 22 22 
22 22 22 22 22 22 22 22 22 
22 22 22 22 22 22 22 22 22 
22 22 22 22 22 22 22 22 22 
22 22 22 22 22 22 22 22 22 
22 22 22 22 22 22 22 22 22 
22 22 22 22 22 22 22 22 22 
22 22 22 22 22 22 22 22 22 
22 22 22 22 22 22 22 22 22 
22 22 22 22 22 22 22 22 22 
22 22 22 22 22 22 22 22 22 
22 22 22 22 22 22 22 22 22 
22 22 22 22 22 22 22 22 22 
22 22 22 22 22 22 22 22 22 
22 22 22 22 22 22 22 22 22 
22 22 22 22 22 22 22 22 22 
22 22 22 22 22 22 22 22 22 
22 22 22 22 22 22 22 22 22 
22 22 22 22 22 22 22 22 22 
22 22 22 22 22 22 22 22 22 
22 22 22 22 22 22 22 22 22 
22 22 22 22 22 22 22 22 22 
22 22 22 22 22 22 22 22 22 
22 22 22 22 22 22 22 22 22 
22 22 22 22 22 22 22 22 22 
22 22 22 22 22 22 22 22 22 
22 22 22 22 22 22 22 22 22 
22 22 22 22 22 22 22 22 22 
22 22 22 22 22 22 22 22 22 
22 22 22 22 22 22 22 22 22 
22 22 22 22 22 22 22 22 22 
22 22 22 22 22 22 22 22 22 
22 22 22 22 22 22 22 22 22 
22 22 22 22 22 22 22 22 22 
22 22 22 22 22 22 22 22 22 
22 22 22 22 22 22 22 22 22 
22 22 22 22 22 22 22 22 22 
22 22 22 22 22 22 22 22 22 
22 22 22 22 22 22 22 22 22 
22 22 22 22 22 22 22 22 22 
22 22 22 22 22 22 22 22 22 
22 22 22 22 22 22 22 22 22 
22 22 22 22 22 22 22 22 22 
22 22 22 22 22 22 22 22 22 
22 22 22 22 22 22 22 22 22 
22 22 22 22 22 22 22 22 22 
22 22 22 22 22 22 22 22 22 
22 22 22 22 22 22 22 22 22 
22 22 22 22 22 22 22 22 22 
22 22 22 22 22 22 22 22 22 
22 22 22 22 22 22 22 22 22 
22 22 22 22 22 22 22 22 22 
22 22 22 22 22 22 22 22 22 
22 22 22 22 22 22 22 22 22 
22 22 22 22 22 22 22 22 22 
22 22 22 22 22 22 22 22 22 
22 22 22 22 22 22 22 22 22 
22 22 22 22 22 22 22 22 22 
22 22 22 22 22 22 22 22 22 
22 22 22 22 22 22 22 22 22 
22 22 22 22 22 22 22 22 22 
22 22 22 22 22 22 22 22 22 
22 22 22 22 22 22 22 22 22 
22 22 22 22 22 22 22 22 22 
22 22 22 22 22 22 22 22 22 
22 22 22 22 22 22 22 22 22 
22 22 22 22 22 22 22 22 22 
22 22 22 22 22 22 22 22 22 
22 22 22 22 22 22 22 22 22 
22 22 22 22 22 22 22 22 22 
22 22 22 22 22 22 22 22 22 
22 22 22 22 22 22 22 22 22 
22 22 22 22 22 22 22 22 22 
22 22 22 22 22 22 22 22 22 
22 22 22 22 22 22 22 22 22 
22 22 22 22 22 22 22 22 22 
22 22 22 22 22 22 22 22 22 
22 22 22 22 22 22 22 22 22 
22 22 22 22 22 22 22 22 22 
22 22 22 22 22 22 22 22 22 
22 22 22 22 22 22 22 22 22 
22 22 22 22 22 22 22 22 22 
22 22 22 22 22 22 22 22 22 
22 22 22 22 22 22 22 22 22 
22 22 22 22 22 22 22 22 22 
22 22 22 22 22 22 22 22 22 
22 22 22 22 22 22 22 22 22 
22 22 22 22 22 22 22 22 22 
22 22 22 22 22 22 22 22 22 
22 22 22 22 22 22 22 22 22 
22 22 22 22 22 22 22 22 22 
22 22 22 22 22 22 22 22 22 
22 22 22 22 22 22 22 22 22 
22 22 22 22 22 22 22 22 22 
22 22 22 22 22 22 22 22 22 
22 22 22 22 22 22 
area 1 5793 double
0.00039774730709 0.00066291228385 0.00074246168205 0.00033145630656 0.00046403870275 0.00039774750465 0.00039774750465 0.00039774750465 0.00033145630656 
0.00039774750465 0.00046403870275 0.00046403870275 0.00090156124236 0.00045078062118 0.00066291261312 0.00033145630656 0.00066291261312 0.00045078062118 
0.00074246168205 0.00039774730709 0.00066291228385 0.00034802895297 0.00064965405082 0.00033145614193 0.00064965405082 0.00033145614193 0.00034802895297 
0.00069605790595 0.00066291228385 0.00069605790595 0.00069605790595 0.00032812566869 0.00034375070408 0.00034285777223 0.0012353992566 0.0012353992566 
0.00085562071293 0.0003125006333 0.00034375070408 0.00088755146917 0.00032812566869 0.0003125006333 0.00034375070408 0.00034375070408 0.0003125006333 
0.0003125006333 0.0013124996573 0.00065625133738 0.001487499994 0.001487499994 0.00065625133738 0.00065625133738 0.00085562071293 0.0013124996573 
0.00088755146917 0.00064965405082 0.00034802895297 0.00064965405082 0.00033145614193 0.00069605790595 0.00034802895297 0.00033145614193 0.00033145614193 
0.00066291228385 0.00033145614193 0.00072920352804 0.00016572815328 0.00011943357058 0.00039774766271 0.00039774766271 0.00016572815328 0.00016572815328 
0.00011305188999 0.00016572815328 0.00046403870275 0.00019887383135 0.00016572815328 0.00011258585749 0.00011279302031 0.00010352256994 0.00011922641242 
0.00010417856816 0.00011014015464 0.00016572807096 0.00011942775624 0.00016572807096 0.00018561542051 0.00017981494018 0.00011963491765 0.00018437246308 
0.00016572807096 0.00018561542051 0.00016572807096 0.00016572807096 0.00016572815328 0.00011895592648 0.00011621690072 0.00013617344883 0.00013255098231 
0.00011895611942 9.7825611235e-05 9.7825734711e-05 0.00013058006112 0.00016572815328 9.23473556e-05 0.00014556464307 9.234745006e-05 0.00013681772169 
0.00011739063847 0.00010997897169 0.00011895598298 0.00011895592648 0.00019565136138 8.9217030989e-05 9.0782193295e-05 0.00013292792182 0.00011269523991 
0.00012650569726 9.3276635279e-05 0.0001312012193 0.00011621690072 9.6260352617e-05 9.5233170521e-05 0.00013504270952 0.00010997923566 9.4205988426e-05 
9.2347282132e-05 0.00066291360094 0.00039774809734 0.00074246315719 0.00034802929871 0.00016241367405 0.0003314564712 0.00015454157857 0.00034802929871 
0.0003314564712 0.0001657282356 0.0006629129424 0.00069605859742 9.4847108126e-05 0.00013267463508 0.00017401464935 0.00017401464935 0.00012191501109 
0.00013710813918 0.00016241367405 0.00013628232452 0.00014450886582 0.00012320369899 9.7252658878e-05 0.0001425661883 0.00018230106311 8.5718399678e-05 
0.00013419379788 0.0001657282356 0.0003281246908 0.0003281246908 0.00015684510392 0.00013283807989 0.00013567289887 0.00014520714901 0.0003281246908 
0.00017187483981 0.00016166960163 0.0003281246908 0.0003281246908 0.00016395462317 0.0003281246908 0.00011785743526 0.00062499940395 0.00068749935925 
0.00015886838445 0.00017187483981 0.00062499940395 0.0001640623454 0.00010459114908 0.00011384867097 0.0001640623454 0.0001640623454 0.00017187483981 
0.0001640623454 0.00016396573829 0.00013495978726 0.00015622892763 8.853184601e-05 8.6196594273e-05 0.00013317333268 0.00013499442885 0.00012873858722 
0.00012322022948 9.4223229915e-05 0.00013223411321 0.00010525339162 9.5080393506e-05 0.00013414316522 0.00010046861588 0.00014873812814 0.00017127421961 
7.7940610356e-05 0.00014550621219 0.00010450437796 0.00014743240336 7.8392326e-05 0.00011700676224 9.2813993008e-05 0.00010450437796 7.4112207804e-05 
9.8727184263e-05 0.00013439453132 0.0001775813406 0.00017187483981 0.00015071049017 0.00010133254223 8.374489439e-05 0.00010215919595 0.00016406252235 
0.00015594678615 0.00018973205663 8.6196594273e-05 0.00010995582585 0.000129379349 7.4258307714e-05 0.00015905507318 9.4325827144e-05 0.0001705260786 
0.00013402071078 0.00010622283038 0.00010258266341 0.00016954001612 0.0001228508169 9.6529682256e-05 0.00012126010879 0.00012456632126 0.00010347296811 
0.00010909956152 0.00011752232493 0.00010659062333 0.00012546801899 0.00012307979381 0.00018155774185 0.00017593434432 0.00012843695792 0.00015790372136 
0.00012550928987 0.00013955905664 0.00013066259888 0.00015645431484 0.00012841361333 0.00018940106672 0.00010064676476 0.00011021373241 0.00012307979381 
0.00013100274386 0.00016708917759 7.6423702321e-05 0.00016065367256 0.00012136549934 0.00010708263477 0.00018593746666 0.00013464474176 0.00010656535212 
0.00012718536081 0.00010196169679 9.3394380229e-05 0.00011982989506 0.00010920240925 0.00034802929871 0.00064965469619 0.0003314564712 0.00064965469619 
0.00034802929871 0.0003314564712 0.00069605859742 0.0006629129424 0.00069605859742 0.00069605859742 0.00016572815328 0.00011942781546 0.00016572815328 