# vtk DataFile Version 5.1
vtk output
ASCII
DATASET STRUCTURED_POINTS
DIMENSIONS 50 50 50
SPACING 0.002 0.002 0.002
ORIGIN 0.1742 -0.052672 0.02732
POINT_DATA 125000
FIELD FieldData 1
potential 1 125000 double
0.00046003968019 0.00045803430877 0.00045604009465 0.00045405908267 0.00045209062 0.00045013445482 0.00044819109774 0.00044625991044 0.0004443407527 
0.00044243342063 0.00044053791668 0.00043865434369 0.00043678305791 0.00043492332159 0.0004330755624 0.00043124039558 0.00042941625531 0.00042760425921 
0.00042580431965 0.00042401610987 0.00042223984978 0.00042047498896 0.00041872158021 0.00041697921115 0.00041524853759 0.00041352949826 0.00041182210338 
0.00041012685729 0.00040844345963 0.0004067723331 0.00040511346795 0.00040346726597 0.0004018334061 0.00040021193581 0.00039860271201 0.00039700599485 
0.00039542149479 0.00039384878189 0.00039228795426 0.00039073788958 0.00038919970255 0.00038767253485 0.00038615649303 0.00038465128056 0.00038315666196 
0.00038167251568 0.00038019860228 0.00037873475977 0.00037728053898 0.00037583594269 0.00046220707117 0.00046018436557 0.00045817703733 0.00045618058675 
0.00045419752098 0.00045222687878 0.00045026807434 0.00044832228824 0.00044638862568 0.00044446709857 0.00044255747165 0.00044066012355 0.00043877509388 
0.00043690182944 0.00043504069246 0.00043319198261 0.00043135547806 0.00042953087231 0.0004277181966 0.00042591753408 0.00042412887833 0.00042235197213 
0.00042058665039 0.00041883257048 0.00041709037871 0.00041536001686 0.00041364153838 0.00041193502742 0.00041024088452 0.00040855901587 0.00040688964716 
0.00040523297715 0.00040358880314 0.00040195711091 0.0004003380379 0.00039873128822 0.00039713687948 0.00039555435453 0.00039398357877 0.00039242406011 
0.0003908761277 0.00038933947089 0.00038781397432 0.00038629914424 0.00038479522038 0.00038330171302 0.00038181859286 0.00038034561885 0.0003788823414 
0.00037742869864 0.00046418527596 0.00046214768579 0.00046012567413 0.00045811515685 0.00045611785265 0.00045413323359 0.00045216091813 0.00045020077091 
0.0004482535967 0.00044631840849 0.00044439572326 0.00044248517565 0.00044058707685 0.00043870090851 0.00043682710601 0.0004349654749 0.00043311665476 
0.00043128043135 0.00042945593807 0.00042764361658 0.00042584331143 0.00042405493384 0.00042227814863 0.00042051304621 0.00041876008016 0.00041701894217 
0.00041528979874 0.00041357280232 0.00041186842881 0.00041017629362 0.00040849691188 0.00040683037959 0.00040517646967 0.00040353516399 0.0004019063316 
0.00040029027369 0.00039868656077 0.00039709473042 0.00039551451936 0.00039394618685 0.00039238921655 0.00039084354949 0.00038930908981 0.00038778554473 
0.00038627273698 0.00038477056742 0.00038327865005 0.000381796999 0.00038032523613 0.00037886307089 0.00046595174455 0.00046390050851 0.00046186502755 
0.00045984098468 0.00045783018305 0.00045583243514 0.00045384710156 0.00045187426799 0.00044991381919 0.00044796602932 0.00044603075488 0.00044410760714 
0.00044219751698 0.000440299482 0.00043841384641 0.00043654066862 0.00043468026426 0.00043283223838 0.00043099645669 0.00042917341877 0.00042736221031 
0.00042556315445 0.00042377575124 0.00042200036425 0.00042023721657 0.0004184859197 0.00041674683066 0.00041502002427 0.00041330583304 0.00041160425907 
0.00040991548587 0.00040823959773 0.00040657662455 0.00040492641524 0.00040328862216 0.00040166371412 0.0004000511861 0.00039845059589 0.00039686162936 
0.00039528521967 0.00039371992147 0.00039216609477 0.0003906230889 0.00038909145113 0.00038757053961 0.00038606015532 0.00038456025903 0.0003830706524 
0.00038159093374 0.00038012087916 0.0004674902887 0.00046542640869 0.00046337829705 0.00046134162127 0.00045931842729 0.00045730825854 0.00045531087576 
0.00045332625173 0.00045135436389 0.00044939420044 0.00044744724949 0.00044551272471 0.00044359132742 0.00044168183126 0.00043978515207 0.0004379011685 
0.00043603000564 0.00043417143113 0.00043232520169 0.00043049163116 0.00042867063545 0.00042686157152 0.0004250643122 0.0004232791852 0.00042150668645 
0.0004197460579 0.00041799765533 0.00041626200989 0.00041453873842 0.0004128284264 0.00041113084821 0.00040944632261 0.00040777483903 0.00040611612667 
0.00040447026439 0.00040283722944 0.00040121654718 0.00039960806175 0.00039801124349 0.00039642700167 0.00039485417216 0.00039329253999 0.00039174217922 
0.00039020301511 0.00038867457271 0.00038715683381 0.00038564954578 0.00038415260553 0.00038266574079 0.00038118841452 0.00046879042529 0.00046671470734 
0.00046465531932 0.00046260682637 0.00046057212351 0.00045855061453 0.00045654211089 0.00045454630118 0.00045256360857 0.00045059250575 0.00044863465047 
0.00044668960308 0.00044475776284 0.0004428379172 0.00044093082161 0.00043903704544 0.00043715616377 0.00043528795552 0.00043343220821 0.00043158911169 
0.00042975862499 0.00042794060258 0.00042613431427 0.00042434028719 0.00042255887517 0.00042078966412 0.00041903273144 0.00041728869283 0.00041555722448 
0.00041383879653 0.00041213323677 0.00041044079111 0.0004087616147 0.00040709537362 0.00040544196134 0.00040380154956 0.00040217372154 0.00040055782055 
0.00039895402673 0.00039736266693 0.00039578290128 0.00039421439981 0.00039265715233 0.00039111117217 0.00038957609295 0.00038805164446 0.00038653782715 
0.0003850343033 0.00038354088285 0.00038205713648 0.00046984820376 0.00046776179238 0.00046569137211 0.00046363266862 0.00046158749012 0.00045955560826 
0.00045753651372 0.00045553074478 0.00045353791518 0.00045155758282 0.0004495890922 0.00044763448743 0.00044569289673 0.00044376391949 0.00044184765552 
0.00043994461602 0.00043805460922 0.0004361777647 0.00043431327319 0.00043246160138 0.0004306225803 0.00042879583941 0.00042698176183 0.00042517961888 
0.00042339040597 0.00042161340323 0.00041984868544 0.00041809706828 0.00041635800404 0.00041463206764 0.0004129194444 0.00041121996201 0.0004095336681 
0.00040786058681 0.00040620038023 0.00040455318799 0.00040291857691 0.00040129627015 0.00039968629694 0.00039808875761 0.00039650280516 0.00039492815768 
0.00039336491423 0.00039181306834 0.00039027205473 0.00038874173811 0.00038722200122 0.00038571264877 0.00038421338874 0.00038272386677 0.00047066595795 
0.00046856964604 0.00046648732324 0.0004644209521 0.00046236611391 0.00046032478362 0.00045829667088 0.00045628153825 0.00045427964614 0.00045229045964 
0.00045031400723 0.00044834976767 0.00044639954557 0.00044446185451 0.00044253740984 0.00044062613545 0.00043872806389 0.0004368429157 0.00043497048173 
0.00043311126924 0.00043126448713 0.00042943036023 0.00042760850156 0.00042579947441 0.00042400294109 0.00042221875556 0.00042044725984 0.00041868862842 
0.00041694289321 0.00041521041974 0.00041349130136 0.00041178526177 0.00041009265279 0.00040841340049 0.00040674713273 0.00040509408429 0.00040345355137 
0.00040182544092 0.00040021018751 0.00039860715323 0.00039701572615 0.00039543581704 0.00039386726461 0.00039231018689 0.00039076392381 0.00038922849212 
0.00038770370942 0.00038618923031 0.00038468487085 0.00038319034595 0.00047125222814 0.00046914689038 0.00046705564798 0.00046498049869 0.0004629170526 
0.00046086726431 0.00045883082669 0.00045680761622 0.00045479740382 0.00045280008489 0.00045081564349 0.00044884433498 0.00044688565797 0.00044494040051 
0.0004430083854 0.00044108970429 0.00043918423316 0.00043729179097 0.00043541240892 0.00043354593026 0.00043169238318 0.00042985153018 0.00042802324033 
0.00042620729612 0.00042440419668 0.00042261397117 0.00042083641262 0.00041907163544 0.00041731988972 0.00041558149047 0.00041385648569 0.00041214477572 
0.00041044665474 0.00040876181693 0.000407090359 0.00040543196192 0.00040378627872 0.00040215369061 0.00040053349168 0.0003989255186 0.00039732918677 
0.00039574471352 0.00039417184325 0.00039261019939 0.00039105948445 0.00038951974307 0.0003879906226 0.00038647177253 0.0003849629246 0.00038346379612 
0.00047162164475 0.00046950817643 0.00046740904423 0.00046532595826 0.00046325495356 0.00046119750462 0.00045915365682 0.00045712297801 0.00045510536319 
0.00045310073639 0.00045110924353 0.00044913110927 0.00044716538048 0.00044521297566 0.00044327442414 0.00044134907205 0.00043943687426 0.00043753807637 
0.00043565233731 0.00043377968511 0.00043191981834 0.00043007313107 0.00042823909237 0.00042641737195 0.00042460836794 0.00042281232014 0.00042102955869 
0.00041925935249 0.0004175023713 0.00041575870906 0.00041402855943 0.00041231191356 0.000410608775 0.00040891917909 0.00040724302844 0.0004055801357 
0.0004039302622 0.0004022933777 0.00040066897157 0.0003990567643 0.0003974566185 0.00039586821377 0.00039429144138 0.00039272600046 0.0003911715535 
0.00038962820677 0.00038809530861 0.00038657256498 0.00038506004092 0.00038355695371 0.00047179510339 0.00046967426102 0.00046756783811 0.00046547771841 
0.0004633996968 0.00046133529925 0.00045928463639 0.00045724736102 0.00045522322067 0.0004532119902 0.00045121406956 0.0004492297632 0.00044725835379 
0.00044529973753 0.0004433548873 0.00044142364053 0.00043950554618 0.00043760098109 0.00043570963823 0.0004338313469 0.00043196617367 0.00043011401198 
0.00042827444817 0.00042644787684 0.0004246340865 0.0004228330238 0.00042104490288 0.00041927043658 0.00041750877706 0.00041576052774 0.00041402582353 
0.00041230495248 0.00041059744176 0.000408903699 0.00040722327297 0.00040555645241 0.00040390310104 0.00040226243346 0.00040063462274 0.00039901882811 
0.00039741534735 0.00039582384076 0.00039424387723 0.00039267524022 0.00039111771665 0.00038957114405 0.00038803503232 0.00038650909091 0.00038499319066 
0.00038348695687 0.00047179807087 0.00046967050553 0.00046755760392 0.00046546081219 0.00046337646986 0.00046130606867 0.00045924906813 0.00045720591077 
0.00045517574269 0.00045315879765 0.0004511552237 0.00044916538865 0.00044718835263 0.0004452249819 0.00044327450253 0.0004413378177 0.00043941449878 
0.00043750463013 0.00043560828547 0.00043372495038 0.0004318550572 0.00042999812938 0.00042815398619 0.00042632270414 0.00042450433968 0.0004226989928 
0.00042090673515 0.00041912765613 0.00041736236183 0.00041561017498 0.00041387151473 0.00041214671717 0.00041043560584 0.00040873818218 0.00040705442078 
0.00040538416833 0.00040372746028 0.00040208371164 0.00040045287803 0.00039883429736 0.00039722799256 0.0003956336896 0.00039405105177 0.00039247980243 
0.00039091973723 0.00038937049469 0.00038783166896 0.00038630301544 0.00038478418704 0.00038327525577 0.00047166211008 0.00046952659869 0.00046740771099 
0.00046530526479 0.00046321497732 0.0004611389023 0.00045907655207 0.00045702754998 0.00045499206487 0.00045296999174 0.0004509613274 0.00044896624703 
0.00044698448196 0.00044501631549 0.00044306108804 0.00044111976434 0.0004391918283 0.00043727718319 0.00043537618238 0.00043348856969 0.00043161432364 
0.00042975316757 0.00042790473125 0.00042606950925 0.00042424734482 0.00042243798732 0.00042064193025 0.00041885926625 0.00041708997346 0.0004153346563 
0.00041359275169 0.00041186454634 0.00041015004081 0.00040844941601 0.00040676270875 0.00040508942428 0.00040342996829 0.00040178359552 0.00040015011354 
0.00039852896266 0.00039692029862 0.00039532376068 0.00039373892151 0.00039216546564 0.00039060326644 0.00038905187081 0.00038751087504 0.00038597981364 
0.00038445868875 0.00038294725874 0.00047141739901 0.00046927638421 0.00046715177372 0.00046504380902 0.00046294813605 0.00046086679836 0.0004587993383 
0.00045674532833 0.00045470487143 0.00045267788056 0.00045066469235 0.00044866517311 0.00044667877382 0.00044470620746 0.00044274738661 0.00044080101163 
0.0004388688597 0.0004369498382 0.00043504487096 0.00043315310091 0.00043127483003 0.00042940980133 0.00042755779022 0.00042571869324 0.00042389291437 
0.00042208027891 0.00042028097002 0.00041849509798 0.00041672268728 0.00041496394918 0.00041321923574 0.00041148815176 0.00040977069563 0.00040806720891 
0.00040637777223 0.0004047020631 0.0004030401089 0.00040139137747 0.00039975559479 0.00039813236534 0.00039652163384 0.00039492313272 0.00039333656062 
0.00039176119571 0.00039019706925 0.00038864382586 0.00038710098818 0.00038556795485 0.00038404455842 0.00038253106165 0.00047110141043 0.00046895509331 
0.00046682522288 0.00046471000465 0.00046261121462 0.00046052495359 0.00045845247348 0.00045639359216 0.00045434884227 0.00045231736894 0.00045029943989 
0.00044829572802 0.00044630530065 0.00044432830228 0.0004423652835 0.00044041583746 0.00043847903917 0.00043655664946 0.00043464764291 0.00043275217342 
0.00043087038129 0.0004290019313 0.00042714591352 0.00042530370522 0.00042347467664 0.00042165883923 0.00041985641599 0.00041806774327 0.00041629234224 
0.00041453071856 0.00041278311944 0.00041104928008 0.00040932954023 0.00040762361376 0.00040593158526 0.00040425352125 0.00040258933303 0.00040093861493 
0.00039930073042 0.00039767580709 0.00039606332104 0.00039446307032 0.00039287475204 0.0003912978761 0.00038973190247 0.0003881769951 0.00038663222757 
0.00038509754602 0.00038357234825 0.00038205664527 0.0004707508005 0.00046859965199 0.00046646470602 0.00046434424514 0.00046224075928 0.00046014960954 
0.00045807226603 0.00045600892491 0.00045395967758 0.00045192410614 0.0004499017767 0.00044789393418 0.0004458992445 0.0004439183188 0.00044195149851 
0.00043999816913 0.0004380577367 0.00043613183871 0.00043421924759 0.00043232015008 0.00043043492432 0.00042856306259 0.00042670412516 0.0004248585374 
0.00042302663771 0.00042120779097 0.00041940231252 0.00041761073212 0.00041583284424 0.00041406858331 0.0004123182259 0.0004105818998 0.00040885979097 
0.00040715154871 0.00040545713746 0.00040377704294 0.00040211076337 0.00040045808023 0.00039881831534 0.00039719160762 0.00039557745431 0.0003939756158 
0.00039238567752 0.0003908071156 0.0003892395542 0.00038768284515 0.00038613638276 0.00038459962374 0.00038307293442 0.00038155529148 0.00047040320739 
0.00046824679305 0.0004661067846 0.00046398153516 0.00046187278002 0.0004597767714 0.00045769505172 0.00045562695992 0.00045357322713 0.00045153326117 
0.00044950716978 0.00044749492962 0.00044549630791 0.00044351152458 0.00044154078329 0.00043958375728 0.00043764038626 0.00043571008856 0.00043379414079 
0.00043189155923 0.0004300029927 0.00042812806605 0.00042626600462 0.0004244173793 0.00042258239169 0.00042076058094 0.00041895246169 0.00041715813483 
0.00041537730896 0.00041361054827 0.00041185774854 0.00041011889636 0.00040839448685 0.00040668376884 0.0004049875171 0.00040330524592 0.00040163693601 
0.00039998215289 0.00039834060775 0.00039671202219 0.00039509626237 0.00039349276 0.00039190108207 0.00039032078176 0.00038875139653 0.00038719315612 
0.00038564479285 0.00038410623135 0.00038257746257 0.00038105789005 0.00047009402887 0.00046793215987 0.00046578707015 0.00046365640373 0.00046154272877 
0.00045944176797 0.00045735524522 0.00045528273979 0.00045322447354 0.00045117975472 0.00044914949145 0.00044713312316 0.0004451304743 0.00044314170782 
0.00044116710279 0.0004392062297 0.0004372591388 0.00043532592781 0.00043340579317 0.00043149998974 0.0004296080485 0.00042772975466 0.00042586432025 
0.00042401285584 0.00042217492036 0.00042035017019 0.00041853913874 0.00041674181652 0.00041495827955 0.00041318904846 0.00041143373302 0.00040969243322 
0.00040796531308 0.00040625263146 0.00040455393964 0.00040286967262 0.0004011993507 0.0003995425607 0.00039789900978 0.00039626858595 0.00039465100462 
0.00039304523874 0.00039145180528 0.00038986961162 0.00038829851155 0.00038673801227 0.00038518776233 0.00038364704858 0.00038211611538 0.0003805943213 
0.0004698565423 0.00046769050629 0.00046553815472 0.0004634021365 0.0004612832573 0.00045917732109 0.00045708556539 0.00045500826407 0.00045294520194 
0.00045089607841 0.00044886108986 0.00044684031749 0.0004448334414 0.00044284075738 0.00044086179286 0.00043889702709 0.00043694623598 0.00043500917148 
0.00043308533311 0.00043117608603 0.00042928092196 0.0004273984711 0.00042553023294 0.00042367528887 0.00042183435372 0.00042000659291 0.00041819272461 
0.00041639251878 0.00041460622533 0.00041283428523 0.00041107635247 0.00040933249783 0.00040760283716 0.0004058876632 0.00040418654546 0.00040249978993 
0.00040082762923 0.00039916847738 0.00039752284447 0.00039589025009 0.00039427037662 0.00039266235255 0.00039106663385 0.00038948246158 0.0003879090867 
0.00038634603644 0.00038479341997 0.00038325054182 0.00038171697068 0.00038019287846 0.00046972040239 0.00046754852246 0.00046539032754 0.00046324848153 
0.00046112421867 0.00045901258535 0.0004569154841 0.0004548328655 0.00045276448428 0.00045071061892 0.00044867101498 0.00044664542037 0.00044463409482 
0.00044263691416 0.00044065381325 0.00043868472291 0.00043672963362 0.00043478872506 0.00043286158861 0.00043094778307 0.00042904893834 0.00042716329498 
0.00042529119764 0.00042343322504 0.00042158858552 0.00041975782913 0.00041794048569 0.00041613767978 0.00041434838301 0.00041257333211 0.00041081239333 
0.00040906569049 0.0004073337156 0.0004056157932 0.00040391198966 0.00040222295007 0.00040054788241 0.00039888647452 0.00039723835469 0.00039560327614 
0.00039398060163 0.00039237016852 0.00039077184622 0.000389185 0.00038760880297 0.00038604305701 0.00038448759019 0.0003829418677 0.00038140556037 
0.00037987853418 0.00046971237234 0.00046753393214 0.0004653693272 0.00046322127911 0.00046109082161 0.00045897315007 0.00045687019061 0.00045478203028 
0.00045270810164 0.00045064883424 0.0004486040429 0.0004465735501 0.00044455738384 0.00044255521663 0.00044056734224 0.00043859377419 0.00043663426639 
0.00043468906235 0.00043275788881 0.00043084056682 0.00042893701524 0.00042704748189 0.00042517184255 0.00042330967755 0.00042146156273 0.00041962716135 
0.0004178065908 0.00041600012124 0.00041420790038 0.00041242991211 0.00041066572583 0.0004089157941 0.00040718081447 0.0004054601921 0.00040375365691 
0.00040206172783 0.00040038360733 0.00039871909067 0.00039706841428 0.00039543031916 0.00039380467652 0.00039219141945 0.00039058979734 0.00038899959177 
0.00038742010977 0.00038585116632 0.00038429251174 0.00038274333652 0.00038120379607 0.00037967352309 0.00046985399952 0.00046766844255 0.00046549712483 
0.00046334251475 0.00046120500535 0.00045908064224 0.00045697120883 0.00045487684491 0.00045279716924 0.00045073200519 0.00044868164987 0.00044664551975 
0.00044462383345 0.00044261658309 0.00044062345396 0.0004386451794 0.00043668086689 0.00043473071085 0.00043279491879 0.00043087316441 0.00042896525528 
0.00042707133422 0.00042519156291 0.0004233254702 0.00042147315756 0.00041963515739 0.0004178107305 0.00041600069711 0.00041420501993 0.00041242317672 
0.00041065552009 0.00040890260657 0.00040716441085 0.0004054402917 0.00040373046211 0.0004020355027 0.00040035403367 0.00039868626128 0.00039703198232 
0.0003953908824 0.00039376174432 0.00039214483777 0.0003905392783 0.00038894529554 0.00038736213054 0.00038578923089 0.00038422658139 0.00038267370948 
0.00038113031033 0.00037959603979 0.00047016311493 0.00046797001576 0.00046579095846 0.00046362879297 0.00046148243183 0.00045935278884 0.00045723641926 
0.00045513495084 0.0004530487555 0.00045097739735 0.00044892063086 0.00044687831683 0.00044485082576 0.0004428379349 0.00044083952486 0.00043885543819 
0.00043688589197 0.00043493057646 0.00043298977074 0.00043106311416 0.00042915062922 0.00042725133353 0.00042536711253 0.00042349675247 0.00042164028417 
0.00041979771599 0.00041796911603 0.00041615495925 0.00041435518275 0.00041256957014 0.00041079835156 0.00040904186853 0.0004072997016 0.00040557222824 
0.00040385891806 0.00040215990002 0.0004004749233 0.00039880334643 0.00039714522266 0.00039549966832 0.00039386681832 0.00039224546679 0.00039063572311 
0.00038903725301 0.00038744947018 0.00038587219713 0.00038430498126 0.00038274749181 0.00038119957369 0.00037966094332 0.00047065403471 0.0004684521942 
0.00046626503872 0.00046409452952 0.00046194000024 0.00045980262213 0.00045767870428 0.00045557019168 0.00045347665669 0.00045139803219 0.00044933441552 
0.0004472854603 0.00044525165164 0.00044323256578 0.00044122806115 0.00043923817209 0.00043726249218 0.00043530154623 0.00043335492821 0.00043142288208 
0.00042950507815 0.00042760046184 0.00042571120677 0.00042383628809 0.00042197473181 0.00042012753766 0.00041829437133 0.0004164757166 0.00041467144433 
0.00041288135685 0.00041110625552 0.00040934548408 0.00040759940114 0.00040586785383 0.00040415045162 0.00040244743901 0.00040075794185 0.00039908201533 
0.00039741943282 0.0003957693337 0.00039413117711 0.00039250524706 0.0003908906022 0.00038928689878 0.0003876940743 0.00038611171604 0.00038453921105 
0.0003829766271 0.00038142334834 0.0003798794 0.00047133672109 0.0004691256035 0.00046693054341 0.00046474994043 0.00046258679209 0.00046044094206 
0.00045830834633 0.00045619176297 0.00045409055793 0.00045200456595 0.00044993303584 0.00044787701459 0.00044583606591 0.00044381024445 0.00044179902864 
0.00043980250421 0.00043782048857 0.0004358531597 0.00043390031591 0.00043196193756 0.00043003838408 0.00042812892086 0.00042623342701 0.00042435279617 
0.00042248633995 0.00042063366657 0.00041879544477 0.00041697195863 0.0004151627945 0.00041336810819 0.00041158847518 0.00040982302703 0.0004080724641 
0.00040633614328 0.00040461398869 0.00040290619778 0.00040121221646 0.0003995310086 0.00039786327334 0.00039620786799 0.00039456454496 0.00039293247532 
0.00039131248388 0.00038970322089 0.00038810464528 0.00038651623374 0.00038493815738 0.00038336929838 0.00038181006703 0.00038026030586 0.0004722187893 
0.00046999762978 0.00046779248971 0.00046560254865 0.00046342981627 0.00046127444882 0.0004591331837 0.00045700787051 0.00045489765444 0.00045280321993 
0.00045072407706 0.00044866037817 0.00044661152755 0.0004445779209 0.00044255925157 0.00044055552404 0.00043856659362 0.00043659219204 0.00043463267766 
0.00043268768757 0.00043075758067 0.00042884190278 0.00042694090623 0.00042505355865 0.00042318111234 0.00042132301497 0.000419479556 0.00041765031674 
0.00041583579756 0.00041403597015 0.00041225089826 0.00041048047417 0.00040872451479 0.00040698290318 0.0004052559226 0.00040354262444 0.0004018430266 
0.00040015643176 0.00039848294876 0.00039682126077 0.00039517189447 0.00039353400603 0.00039190738047 0.00039029174053 0.00038868693527 0.00038709205487 
0.00038550688142 0.00038393152133 0.00038236573961 0.00038080940586 0.0004733050766 0.00047107341709 0.00046885748531 0.00046665717495 0.00046447385166 
0.00046230861695 0.00046015749799 0.00045802266552 0.00045590354672 0.00045379990524 0.00045171173658 0.00044963932284 0.00044758228243 0.00044554044417 
0.00044351346377 0.0004415016967 0.00043950541012 0.0004375235489 0.00043555650514 0.00043360448678 0.00043166706365 0.00042974451275 0.00042783655828 
0.00042594270302 0.00042406395383 0.00042219959019 0.00042034998719 0.00041851487576 0.00041669436126 0.0004148888882 0.00041309770416 0.00041132156978 
0.00040956003289 0.00040781268429 0.00040607948437 0.00040436024133 0.00040265452867 0.00040096149713 0.00039928153052 0.0003976135382 0.00039595732483 
0.00039431238203 0.00039267883003 0.00039105605389 0.00038944400232 0.00038784156713 0.00038624932002 0.00038466696395 0.00038309397673 0.00038153057714 
0.00047459868881 0.00047235539706 0.00047012790334 0.00046791620414 0.00046572199611 0.00046354591082 0.00046138444713 0.00045923939469 0.00045711024586 
0.00045499682839 0.00045289909855 0.00045081691184 0.00044875048501 0.00044669984902 0.00044466441955 0.00044264412458 0.00044063908103 0.00043864917552 
0.00043667424969 0.00043471428564 0.00043276904111 0.00043083881866 0.00042892380529 0.00042702326412 0.00042513686319 0.00042326549618 0.00042140909072 
0.00041956707761 0.00041774053675 0.00041592823717 0.00041413087238 0.00041234834745 0.00041058044456 0.00040882636772 0.00040708671476 0.00040536047204 
0.00040364779136 0.00040194797952 0.00040026093137 0.00039858567629 0.00039692210667 0.00039526945706 0.00039362820643 0.00039199748591 0.00039037720623 
0.00038876719882 0.00038716725943 0.00038557684459 0.00038399620584 0.00038242500467 0.00047609995828 0.00047384375503 0.00047160428954 0.00046938062799 
0.00046717462131 0.00046498715847 0.00046281419145 0.0004606579855 0.00045851824158 0.00045639413931 0.00045428591256 0.00045219375491 0.00045011742117 
0.00044805701847 0.00044601206152 0.00044398251506 0.00044196873094 0.00043996961489 0.00043798573674 0.00043601721912 0.00043406388508 0.00043212550827 
0.00043020219159 0.00042829395735 0.00042639980274 0.00042452078963 0.00042265689541 0.00042080760754 0.0004189737636 0.00041715474902 0.00041535006002 
0.00041356008974 0.00041178483833 0.00041002368175 0.0004082766812 0.00040654307048 0.00040482289548 0.00040311528974 0.00040142046339 0.00039973727229 
0.00039806564554 0.00039640484593 0.00039475492622 0.00039311565331 0.00039148690241 0.00038986825273 0.00038825960233 0.00038666111084 0.00038507211258 
0.00038349291911 0.00047780658235 0.0004755371472 0.0004732850267 0.00047104874748 0.00046883028951 0.00046663044696 0.0004644455243 0.00046227737453 
0.00046012603621 0.00045799059312 0.00045587124757 0.0004537683068 0.00045168111407 0.00044961010055 0.00044755470118 0.00044551503559 0.0004434909772 
0.00044148264853 0.00043948954989 0.0004375116479 0.00043554938266 0.00043360217203 0.00043167022706 0.00042975330486 0.00042785122238 0.00042596334763 
0.0004240911876 0.00042223421087 0.00042039196609 0.00041856487406 0.00041675239298 0.00041495452218 0.00041317126928 0.00041140230644 0.00040964733116 
0.00040790568338 0.00040617718419 0.00040446128346 0.00040275773517 0.00040106605928 0.00039938543588 0.0003977157862 0.00039605700515 0.00039440841215 
0.00039277032338 0.00039114252683 0.00038952473547 0.00038791723978 0.00038631960557 0.0003847319689 0.00047971490435 0.00047743181815 0.00047516549811 
0.00047291605243 0.0004706844857 0.00046847156469 0.00046627423063 0.00046409366246 0.00046192948816 0.00045978178715 0.00045765067608 0.0004555358341 
0.00045343720807 0.00045135484991 0.00044928838087 0.00044723773363 0.00044520316722 0.00044318432411 0.00044118112084 0.00043919339918 0.00043722121838 
0.00043526452682 0.00043332325185 0.00043139701737 0.00042948570466 0.00042758979285 0.00042570770117 0.00042384176672 0.00042199083016 0.00042015484178 
0.00041833385307 0.00041652747826 0.0004147352886 0.00041295742701 0.00041119348637 0.00040944309456 0.00040770573583 0.00040598100751 0.00040426851133 
0.00040256730176 0.00040087703981 0.00039919783361 0.00039752918174 0.00039587120958 0.00039422341467 0.00039258602347 0.00039095867671 0.00038934143579 
0.00038773475483 0.00038613784085 0.00048181798369 0.00047952040744 0.00047724002467 0.00047497679715 0.0004727303419 0.00047050386219 0.00046829264376 
0.00046609880487 0.00046392158576 0.00046176110826 0.00045961709691 0.00045748972009 0.00045537895441 0.00045328447751 0.00045120622681 0.00044914391321 
0.00044709783067 0.0004450678007 0.00044305355023 0.00044105504183 0.00043907242631 0.00043710506486 0.0004351537623 0.0004332177983 0.00043129691644 
0.00042939063873 0.00042749935158 0.00042562383048 0.00042376342599 0.00042191791074 0.00042008714286 0.0004182713844 0.00041646965533 0.00041468216628 
0.00041290882527 0.0004111487139 0.00040940166357 0.00040766685368 0.0004059444494 0.00040423327127 0.00040253298505 0.00040084390441 0.00039916538173 
0.00039749721641 0.00039583962273 0.00039419185456 0.00039255450916 0.00039092742908 0.0003893107518 0.00038770436782 0.00048410503769 0.00048179181376 
0.00047949628832 0.00047721802801 0.00047495727861 0.00047271456264 0.00047049049827 0.00046828269728 0.0004660917902 0.00046391773542 0.00046176037863 
0.00045961990032 0.00045749612365 0.00045538913752 0.00045329835211 0.00045122383005 0.00044916567633 0.00044712343457 0.00044509721782 0.00044308724829 
0.00044109320006 0.00043911516365 0.00043715264824 0.00043520560326 0.00043327397356 0.00043135733817 0.00042945612759 0.00042756966308 0.00042569903076 
0.00042384345006 0.00042200236419 0.00042017621362 0.00041836446018 0.00041656651616 0.00041478228552 0.00041301208184 0.00041125460013 0.00040950926368 
0.00040777618039 0.00040605464688 0.00040434401535 0.00040264410007 0.00040095500757 0.00039927657425 0.00039760838563 0.00039595034684 0.00039430238406 
0.00039266510176 0.00039103805648 0.00038942128844 0.00048656039407 0.00048423141417 0.00048192005583 0.00047962671342 0.00047735027192 0.0004750926334 
0.00047285381169 0.00047063126116 0.00046842608553 0.00046623754008 0.00046406612834 0.0004619119025 0.00045977462102 0.00045765399995 0.00045554984144 
0.00045346216944 0.00045139114297 0.00044933657075 0.00044729787957 0.00044527549615 0.00044326967476 0.00044127980828 0.00043930529366 0.00043734675449 
0.00043540360315 0.00043347583736 0.00043156364435 0.00042966563892 0.00042778404071 0.00042591732259 0.00042406554323 0.00042222834852 0.00042040552985 
0.00041859665242 0.00041680143655 0.00041501996861 0.00041325141327 0.00041149527555 0.00040975107014 0.00040801841378 0.0004062967163 0.00040458571398 
0.00040288548759 0.00040119599324 0.00039951690844 0.00039784836309 0.00039618985508 0.00039454145617 0.00039290404438 0.00039127688625 0.00048916576017 
0.00048681996829 0.00048449252786 0.00048218296179 0.00047989088278 0.00047761752975 0.00047536347976 0.00047312561102 0.00047090517957 0.00046870190418 
0.00046651593787 0.00046434730233 0.00046219557992 0.00046006069007 0.00045794264926 0.00045584108905 0.00045375676078 0.00045168866949 0.00044963684891 
0.00044760188749 0.00044558332207 0.00044358086012 0.00044159428945 0.00043962329424 0.00043766817078 0.00043572833893 0.00043380404959 0.00043189546479 
0.00043000100667 0.00042812248529 0.00042625875195 0.00042440997491 0.00042257558684 0.00042075530543 0.00041894843568 0.00041715548872 0.00041537533647 
0.00041360721798 0.00041185154862 0.00041010718167 0.0004083742097 0.00040665166267 0.00040494021578 0.0004032392671 0.00040154902742 0.00039986907878 