# vtk DataFile Version 5.1
vtk output
ASCII
DATASET STRUCTURED_POINTS
DIMENSIONS 50 50 50
SPACING 0.002 0.002 0.002
ORIGIN 0.1742 -0.052672 0.02732
POINT_DATA 125000
FIELD FieldData 1
potential 1 125000 double
0.008745098694 0.0087044146369 0.0086629371321 0.0086206769922 0.0085776576677 0.0085338895207 0.0084894547509 0.008444245408 0.0083983167121 
0.0083517442954 0.0083045251308 0.008256688896 0.0082082558221 0.008159243358 0.0081096878205 0.008059609916 0.0080090303312 0.0079579646564 
0.0079064540736 0.0078545050842 0.0078021509952 0.0077494004086 0.0076963115439 0.0076428150236 0.0075889952494 0.0075348670067 0.0074804496426 
0.007425780637 0.0073708693062 0.0073157458238 0.0072604315348 0.0072049554401 0.007149338712 0.0070935837836 0.0070377250562 0.0069817883231 
0.0069257868016 0.0068697288593 0.0068136526427 0.0067575314742 0.0067014181556 0.0066453290023 0.0065892749949 0.0065332753001 0.006477350414 
0.0064215192748 0.0063657995682 0.0063102064766 0.0062547511782 0.0061994614964 0.0089375500973 0.0088954574958 0.0088525377652 0.0088088207438 
0.0087643081967 0.0087190267214 0.0086729920733 0.0086262317385 0.0085787566172 0.0085305931696 0.0084817733033 0.0084323083957 0.0083822394018 
0.0083315763112 0.0082803518046 0.0082286398983 0.0081763700756 0.0081236106231 0.0080703748965 0.0080167034428 0.0079626024681 0.007908114271 
0.0078532418337 0.0077980083582 0.0077424361622 0.0076865511043 0.0076303783122 0.0075739411735 0.0075172705062 0.0074603842182 0.0074033425446 
0.0073461020106 0.0072887220754 0.0072312173314 0.0071736208192 0.007115929373 0.007058181498 0.0070003900519 0.0069425688593 0.0068847320627 
0.0068269023552 0.0067691008773 0.0067113445646 0.0066536640417 0.0065960609935 0.0065385605756 0.0064811936867 0.006423954319 0.0063668696262 
0.0063099525518 0.009130486686 0.0090869501858 0.0090425586982 0.0089973344343 0.0089513606609 0.0089045376442 0.0088569280004 0.0088085877747 
0.0087595103479 0.0087097209181 0.0086592455101 0.008608135523 0.0085563816869 0.0085040244435 0.0084510955706 0.0083976164544 0.0083436210016 
0.0082891319314 0.0082341593778 0.0081787346715 0.0081229214394 0.00806665724 0.0080099991347 0.0079529832128 0.007895619419 0.0078379433374 
0.0077799708605 0.0077217352005 0.0076632652606 0.0076045819392 0.007545713217 0.0074866849039 0.0074275161301 0.007368228178 0.007308842489 
0.0072494087429 0.0071898968375 0.0071303324442 0.0070707471105 0.0070111651006 0.0069515936196 0.0068920555609 0.0068325749998 0.0067731681049 
0.006713862178 0.0066546762676 0.0065956161108 0.006536709205 0.0064779706742 0.0064194108564 0.0093236372213 0.009278624513 0.0092327337614 
0.0091859837288 0.0091383951265 0.009089991001 0.0090407854203 0.0089908186574 0.0089401454731 0.0088886974665 0.0088365636379 0.0087837388259 
0.0087302845641 0.0086762187072 0.0086215580394 0.0085663313757 0.0085105716241 0.0084543034521 0.0083975454193 0.0083403309561 0.0082826736857 
0.0082246045941 0.0081661329596 0.0081073048679 0.0080481605168 0.0079886518736 0.0079288558254 0.0078687956507 0.0078084920879 0.007747985372 
0.0076872906381 0.0076264372582 0.0075654482838 0.0075043416242 0.0074431409805 0.0073818762748 0.0073205548592 0.0072591991836 0.0071978317829 
0.0071365030896 0.0070751598714 0.0070138652327 0.0069526300076 0.0068914885055 0.0068304523493 0.0067695424949 0.0067087801686 0.0066481887458 
0.0065877722743 0.0065275488308 0.0095167249355 0.0094702036052 0.0094227758161 0.0093744625644 0.0093253001587 0.009275285293 0.0092244633789 
0.0091728416153 0.0091204587242 0.0090673191629 0.0090134646079 0.0089589522992 0.0089037509992 0.0088479229056 0.0087914829104 0.0087344839087 
0.0086769258156 0.0086188498712 0.0085602728662 0.0085012279524 0.0084417372661 0.008381826486 0.0083215099426 0.0082608268161 0.0081997998861 
0.0081384419926 0.0080767871491 0.0080149003579 0.0079527401197 0.0078903729133 0.0078278144968 0.0077651047404 0.0077022585317 0.0076393084803 
0.007576266738 0.0075131645869 0.0074500119158 0.007386832612 0.0073236468217 0.0072604891354 0.0071973599075 0.0071342803761 0.007071275314 
0.0070083902397 0.0069456007469 0.0068829542853 0.0068204649067 0.006758155607 0.0066960425683 0.0066341389303 0.0097096832041 0.0096616250249 
0.0096126409785 0.0095627295523 0.0095119500418 0.0094603013054 0.0094078159218 0.009354498003 0.0093004073655 0.0092455409273 0.0091899334996 
0.0091336260161 0.0090766473307 0.0090190034789 0.0089607824193 0.0089019621892 0.0088425838594 0.0087826621087 0.0087222332611 0.0086613283384 
0.0085999711257 0.0085381804131 0.0084759860411 0.008413416147 0.0083505020211 0.0082872528934 0.0082237044771 0.0081598935322 0.0080958399675 
0.0080315823566 0.007967160149 0.0079025607248 0.0078378364121 0.0077730043735 0.0077080917883 0.0076431290309 0.0075781184642 0.0075130875701 
0.0074480618857 0.0073830665995 0.0073181127525 0.0072532205131 0.0071884231835 0.0071237257427 0.0070591679033 0.0069947579105 0.0069305399148 
0.0068664967097 0.0068026649951 0.0067390575483 0.009902588675 0.0098529823065 0.0098023926186 0.0097508761408 0.0096984417421 0.0096451172629 
0.009590909013 0.0095358814167 0.0094800332411 0.0094233974267 0.0093660051304 0.0093078922088 0.0092490918107 0.0091896250952 0.0091295330465 
0.0090688393206 0.0090075778726 0.0089458245565 0.0088835028999 0.0088206963675 0.0087574305285 0.0086937234349 0.0086296099594 0.0085651141342 
0.0085002702433 0.0084351034161 0.0083696206343 0.0083038787226 0.008237893188 0.008171705022 0.0081053412471 0.008038824059 0.0079721834106 
0.0079054618512 0.0078386430133 0.007771772993 0.0077048747821 0.0076379642309 0.0075710673868 0.0075042099266 0.0074374059831 0.0073706768034 
0.0073040472564 0.0072375455108 0.0071711839562 0.0071049909089 0.007038984245 0.0069731865485 0.0069076273656 0.0068422959141 0.010095744596 
0.010044509094 0.0099922828357 0.0099390948472 0.0098849779244 0.0098299274754 0.0097739947112 0.0097172002571 0.0096595765021 0.0096011444719 
0.0095419238608 0.0094819687922 0.0094213083944 0.0093599613931 0.0092979748174 0.0092353759289 0.009172206657 0.0091084781468 0.0090442224322 
0.0089795198295 0.0089143018091 0.0088486428609 0.0087825600631 0.0087161000628 0.0086492857652 0.0085821379881 0.0085146911826 0.008446975469 
0.0083790225775 0.0083108646243 0.0082425442793 0.0081740671755 0.0081054706997 0.0080367828002 0.0079680241093 0.0078992383955 0.0078304097693 
0.0077615813545 0.0076927842837 0.0076240344685 0.0075553496885 0.0074867513735 0.0074182631875 0.0073499199591 0.0072817314037 0.007213722833 
0.0071459179912 0.0070783419241 0.0070110048961 0.0069439304893 0.010289535192 0.010236649377 0.010182738352 0.01012783745 0.010071975116 
0.01001517457 0.0099574698732 0.009898868462 0.0098394118942 0.0097791279239 0.0097180490207 0.0096561993012 0.0095936260835 0.0095303685712 
0.0094664387701 0.0094018842 0.0093367452877 0.0092710468493 0.0092048127564 0.0091380729979 0.0090708729662 0.0090032258727 0.0089351508287 
0.0088666796501 0.0087978464309 0.0087286828145 0.0086592223976 0.0085894910508 0.0085195229632 0.0084493572562 0.0083790174506 0.008308531397 
0.0082379402102 0.0081672679919 0.0080965280002 0.0080257574963 0.007954969211 0.0078842050972 0.0078134617571 0.007742779579 0.0076721729493 
0.0076016728757 0.0075312994622 0.0074610767143 0.0073910257705 0.0073211746075 0.007251548073 0.0071821563217 0.0071130247841 0.0070441742607 
0.01048455277 0.010429958787 0.010374318852 0.010317666068 0.010260031172 0.010201418421 0.01014187369 0.010081416207 0.010020076793 
0.009957888227 0.0098948885567 0.0098311070426 0.0097665759872 0.0097013251073 0.0096354170954 0.0095688654416 0.0095016975524 0.0094339691574 
0.0093656895258 0.0092969178012 0.0092276522344 0.0091579538553 0.0090878315985 0.009017297272 0.0089463982012 0.0088751676119 0.008803639603 
0.0087318427354 0.0086598099492 0.0085875782531 0.0085151799959 0.0084426418059 0.0083700020518 0.0082972843943 0.0082245150055 0.008151732493 
0.0080789475097 0.0080061782839 0.0079334542231 0.0078607951955 0.0077882375697 0.0077157930059 0.0076434897745 0.0075713542415 0.0074994024548 
0.0074276753853 0.0073561765252 0.0072849359662 0.0072139803375 0.0071433110201 0.010681547295 0.010625196349 0.010567773979 0.010509303501 
0.010449818701 0.010389346399 0.010327917284 0.010265544841 0.010202271066 0.010138121961 0.010073137857 0.010007349738 0.0099408074392 
0.0098735298358 0.009805555242 0.0097369393259 0.0096677006956 0.0095978895642 0.0095275146146 0.0094566269645 0.0093852627261 0.0093134214339 
0.0092411751295 0.0091685186694 0.0090955128013 0.0090221574502 0.0089484994383 0.0088745815563 0.00880042838 0.0087260733501 0.0086515592399 
0.0085769182377 0.0085021712518 0.0084273617596 0.0083525083994 0.0082776453464 0.0082028074713 0.0081279906368 0.0080532351967 0.0079785597773 
0.0079039951799 0.0078295588833 0.0077552789957 0.0076811853376 0.0076072957938 0.007533641043 0.0074602383164 0.0073871072768 0.0073142788432 
0.0072417710886 0.010881427895 0.01082325938 0.010763991589 0.010703639952 0.010642250897 0.010579838922 0.010516445239 0.01045210499 
0.010386823074 0.010320647773 0.010253620463 0.010185774199 0.0101171358 0.010047764624 0.0099776745009 0.0099069274075 0.0098355292694 
0.0097635497489 0.0096910181591 0.0096179462001 0.0095443974914 0.009470380252 0.0093959450367 0.0093210961799 0.0092458788249 0.0091703317068 
0.0090944973342 0.0090183848407 0.0089420419353 0.0088655083592 0.0087888127746 0.0087119993233 0.0086350906038 0.0085581240889 0.0084811237942 
0.0084041280388 0.0083271589582 0.0082502432819 0.0081733993627 0.0080966476796 0.0080200199515 0.0079435469468 0.0078672415341 0.0077911276614 
0.007715241969 0.0076396110052 0.0075642526587 0.007489189902 0.0074144430156 0.007340043813 0.011085200553 0.011025137453 0.010963952379 
0.010901660411 0.010838291375 0.010773885157 0.010708457137 0.010642043946 0.010574702737 0.010506438542 0.010437285374 0.010367295213 
0.010296503342 0.01022495517 0.010152664751 0.010079706882 0.010006110713 0.0099318658418 0.0098570859954 0.0097817694241 0.0097059611694 
0.0096296767697 0.0095529614187 0.0094758530743 0.0093983697972 0.0093205550183 0.0092424259328 0.0091640621266 0.0090854584613 0.0090066677575 
0.008927710311 0.0088486516811 0.0087695014747 0.008690302185 0.0086110884872 0.0085318809512 0.0084527250123 0.0083736302288 0.0082946221473 
0.0082157328967 0.0081369793793 0.0080583933278 0.0079800006035 0.0079018222895 0.0078238918626 0.0077462183939 0.007668844132 0.0075917898358 
0.0075150733799 0.0074387246737 0.011294066484 0.011232057615 0.011168859545 0.011104538763 0.011039111452 0.010972615861 0.010905088994 
0.010836537643 0.010767010347 0.010696553868 0.010625193951 0.010553001357 0.010479957577 0.010406140228 0.010331596304 0.010256329916 
0.010180379826 0.01010383073 0.010026701086 0.0099490286367 0.0098708655574 0.0097922348767 0.0097131593065 0.0096336774753 0.0095538326192 
0.0094736653757 0.0093932055206 0.0093124781791 0.0092315226802 0.0091503863387 0.0090691037876 0.0089876925472 0.0089062177941 0.0088247072473 
0.0087432047233 0.0086617173947 0.0085802892578 0.0084989403819 0.0084176924505 0.0083365764543 0.0082556248107 0.0081748546568 0.0080943000206 
0.0080139790627 0.0079339242167 0.0078541664582 0.0077747233437 0.0076955913341 0.0076168368262 0.0075384805202 0.011509304591 0.011445254365 
0.011379957998 0.011313506708 0.011245915927 0.011177241816 0.011107493463 0.011036714857 0.010964933027 0.010892179407 0.010818516818 
0.010743969159 0.010668614008 0.01059242177 0.010515481231 0.01043782565 0.010359486256 0.010280504384 0.010200943998 0.010120823704 
0.010040210704 0.0099591128816 0.0098775623819 0.0097956227321 0.0097133186263 0.0096306932313 0.0095477763679 0.0094646051377 0.0093812051859 
0.0092976237656 0.0092139159776 0.0091300813524 0.009046195368 0.0089622508126 0.0088783428669 0.0087944775196 0.0087106915112 0.0086270009367 
0.0085434299767 0.0084600060266 0.008376760628 0.0082937364458 0.0082109353863 0.0081283912881 0.0080461307947 0.0079641922904 0.0078825908077 
0.0078013529245 0.0077204822796 0.0076400267168 0.011732179257 0.011665988965 0.011598543523 0.011529849769 0.011460037939 0.011389083095 
0.011317001848 0.011243869121 0.011169722718 0.01109457896 0.011018484774 0.01094150709 0.010863638238 0.010784961611 0.010705536903 
0.01062537667 0.010544513436 0.010463014962 0.010380901936 0.01029821622 0.010215020613 0.01013135932 0.010047283095 0.0099627564377 
0.0098778796462 0.0097926695576 0.0097071611314 0.0096214284945 0.0095354799187 0.0094493463458 0.009363080744 0.0092767405744 0.0091903222532 
0.0091038954053 0.009017455532 0.0089311131355 0.0088448562909 0.008758719408 0.0086727229032 0.0085868978069 0.0085012672219 0.008415868064 
0.0083307245971 0.008245876184 0.0081613222682 0.0080771071259 0.007993260914 0.0079097980155 0.0078267618499 0.0077441574277 0.011964146563 
0.01189569968 0.01182597146 0.011754985155 0.011682791996 0.011609401455 0.011534913017 0.011459288077 0.011382647088 0.011305005197 
0.011226373084 0.011146818338 0.0110663709 0.010985104375 0.010903038741 0.010820240259 0.010736722929 0.01065255054 0.010567771898 
0.010482412538 0.010396510997 0.010310157975 0.010223358179 0.010136131661 0.010048539858 0.009960622212 0.0098724267923 0.0097839869152 
0.0096953937626 0.0096065817844 0.0095176480723 0.0094286357119 0.0093395982868 0.0092505444906 0.0091615055016 0.0090725600609 0.0089836949571 
0.0088949954381 0.0088064571402 0.0087181101101 0.0086299981224 0.0085421257473 0.0084545344107 0.0083672488841 0.0082803078372 0.0081937315088 
0.0081075396518 0.0080217629211 0.0079364342369 0.0078515717972 0.012206590603 0.012135759341 0.012063616721 0.01199016641 0.011915489056 
0.011839619227 0.011762531129 0.011684348289 0.011605083085 0.01152475104 0.011443443583 0.011361185868 0.011278019083 0.011193988682 
0.011109174706 0.011023579186 0.010937267456 0.010850305835 0.010762706501 0.01067453068 0.010585831281 0.010496642319 0.010406940378 
0.010316896711 0.010226479724 0.010135728692 0.010044659338 0.0099533799828 0.0098619050853 0.0097703093933 0.0096785732031 0.0095867628877 
0.0094949718633 0.0094031662331 0.0093113996513 0.0092197267208 0.0091281664041 0.0090367461548 0.0089455433702 0.0088545556633 0.0087638229552 
0.008673350684 0.0085832012293 0.0084933766258 0.0084039156638 0.0083148624892 0.0082262197404 0.008138017248 0.008050292682 0.0079630639304 
0.012460865158 0.012387549761 0.012312844922 0.012236818709 0.0121595126 0.012080963407 0.012001211517 0.011920254824 0.011838217343 
0.011755111144 0.011670951071 0.011585843777 0.011499802407 0.011412882795 0.011325125307 0.011236615034 0.011147360561 0.011057417785 
0.010966856181 0.010875711525 0.010784026648 0.010691826861 0.010599188793 0.01050607033 0.010412656029 0.010318919953 0.010224900193 
0.010130619901 0.010036157214 0.0099415714681 0.0098468890186 0.0097521560632 0.0096574028066 0.0095626769018 0.0094680241682 0.0093734836694 
0.0092791331772 0.0091848987653 0.0090908938282 0.0089970864589 0.0089035947986 0.0088103955297 0.0087175432877 0.0086250606595 0.0085329593156 
0.0084412793095 0.008350072094 0.0082593274083 0.0081690896262 0.0080793886281 0.012728316813 0.012652347261 0.012574961492 0.01249621289 
0.012416138023 0.012334769757 0.012252156643 0.012168348357 0.012083384617 0.011997271938 0.011910143503 0.011822018735 0.011732919461 
0.011642936111 0.011552104793 0.011460471186 0.011368108879 0.011275036949 0.011181321735 0.011087029639 0.01099218935 0.010896843741 
0.01080103504 0.010704823649 0.010608168619 0.010511262604 0.010414071277 0.010316687683 0.01021909169 0.010121354339 0.010023527406 
0.0099256859129 0.009827865223 0.0097300696482 0.0096323612506 0.0095348033507 0.0094374081634 0.0093402062929 0.0092432511155 0.0091465778593 
0.009050120183 0.0089540517139 0.0088583542385 0.0087630559912 0.0086681747675 0.0085737548754 0.0084798231428 0.0083864165323 0.0082935381073 
0.0082012305237 0.013010283453 0.012931529117 0.012851264919 0.012769604107 0.012686580555 0.012602225915 0.012516617345 0.012429745108 
0.012341681852 0.012252482838 0.012162138831 0.01207081859 0.011978525896 0.011885277763 0.011791177755 0.011696258058 0.011600582666 
0.011504224956 0.011407189134 0.01130954622 0.011211380917 0.0111126838 0.011013527693 0.010913954927 0.010814014952 0.010713742098 
0.01061316201 0.010512419169 0.010411530976 0.010310495282 0.010209374459 0.010108222451 0.010007128786 0.0099061135577 0.0098051861865 
0.0097044244353 0.0096038506761 0.0095035079417 0.0094034289224 0.0093036476741 0.0092041680027 0.0091050230109 0.0090063604673 0.0089080955081 
0.0088102847168 0.008712966596 0.0086161717272 0.0085199316266 0.0084242908393 0.0083292393279 0.013307965599 0.013226222215 0.013142983563 
0.013058259394 0.012972089754 0.012884562761 0.012795708482 0.012705598439 0.01261427821 0.012521754803 0.012428113745 0.012333350926 
0.012237632755 0.012140972466 0.012043395083 0.011945016092 0.011845837921 0.01174594427 0.011645404216 0.011544231295 0.011442503704 
0.011340280295 0.011237576383 0.011134447248 0.011030957033 0.010927162048 0.01082308044 0.010718754758 0.010614334921 0.010509789645 
0.010405211344 0.010300597994 0.010196048891 0.010091566132 0.0099872509641 0.0098831117948 0.0097791847118 0.0096755193871 0.0095721476005 
0.0094690976265 0.0093664034194 0.0092641070143 0.009162161901 0.0090607625054 0.0089598674253 0.0088595332952 0.0087597285688 0.0086605155781 
0.0085619311392 0.0084639888912 0.013622477288 0.013537610915 0.013451150105 0.013363184591 0.013273742467 0.01318287178 0.013090616326 
0.012997032194 0.012902200188 0.01280614714 0.012708973855 0.012610675735 0.012511285543 0.012410983261 0.012309765099 0.012207667088 
0.012104794148 0.012001171567 0.011896881417 0.011791980517 0.011686494426 0.011580485611 0.011474045145 0.011367162474 0.011259908729 
0.01115234864 0.011044531669 0.010936503241 0.010828298098 0.01072005471 0.010611773713 0.010503516735 0.010395293564 0.010287212884 
0.010179278449 0.010071552452 0.0099640783758 0.0098568894744 0.0097500379535 0.009643532582 0.009537421321 0.0094317351074 0.0093265212643 
0.0092217933708 0.0091175679982 0.0090139781289 0.0089109914003 0.0088086792727 0.0087069905278 0.0086060034545 0.013954996378 0.013866784106 
0.01377689511 0.013685455282 0.013592521015 0.013498114054 0.013402267787 0.013305046916 0.013206511922 0.013106696632 0.013005727064 
0.012903621647 0.01280048626 0.012696247987 0.012591140886 0.012485151645 0.012378323597 0.012270759926 0.012162496073 0.012053603934 
0.011944156862 0.011834160353 0.01172370294 0.011612861332 0.011501620912 0.011390077268 0.011278292211 0.011166318706 0.011054198119 
0.010941955531 0.01082977764 0.01071761358 0.010605541071 0.010493613704 0.010381871559 0.010270366166 0.010159129209 0.010048217269 
0.0099376694342 0.0098275185426 0.0097177819262 0.0096085240361 0.0094997760866 0.0093915738531 0.0092839348138 0.0091768789715 0.0090705301435 
0.0089648664896 0.0088599053668 0.0087556853796 0.014306489955 0.014214714526 0.014121268778 0.014026181874 0.013929507862 0.013831313542 
0.013731602156 0.013630513054 0.013528084457 0.013424339207 0.013319351416 0.013213184364 0.013105943725 0.012997675206 0.012888460736 
0.012778254816 0.012667275655 0.012555519998 0.012443038098 0.012329916162 0.012216229541 0.012102027948 0.01198734413 0.011872248424 
0.011756808976 0.01164103844 0.011525042878 0.011408870489 0.01129256757 0.011176226297 0.011059832452 0.010943548382 0.010827392888 
0.010711387549 0.010595606378 0.010480095317 0.010364893278 0.010250029622 0.01013558313 0.010021565644 0.0099080151208 0.0097949613625 
0.0096824767747 0.0095705873102 0.0094593250244 0.0093487028899 0.0092387472336 0.0091295737015 0.0090211572914 0.0089135354049 0.014678001265 
0.014582465746 0.014485168294 0.014386180492 0.014285582562 0.014183365712 0.01407964626 0.013974442525 0.013867803675 0.013759843027 
0.013650639942 0.013540216346 0.013428653128 0.013315997858 0.01320237353 0.013087859246 0.012972385902 0.012856177641 0.012739252652 
0.012621642505 0.01250347413 0.012384769835 0.012265622522 0.012146033152 0.012026101353 0.011905882133 0.011785418866 0.011664797536 
0.011544084217 0.011423311834 0.011302582186 0.011181877111 0.011061372889 0.010941057157 0.010821009553 0.010701258795 0.0105818472 
0.010462845185 0.010344270649 0.010226128862 0.010108540693 0.009991498932 0.0098750588093 0.0097592603439 0.0096441545509 0.0095297501693 
0.0094160933611 0.0093031415887 0.0091910831794 0.009079863049 0.015070523729 0.014970939278 0.014869571411 0.014766456602 0.014661634901 
0.014555190535 0.014447156842 0.014337623107 0.014226603171 0.014114167943 0.014000407889 0.013885430766 0.013769309382 0.013652066876 
0.013533771077 0.013414542441 0.013294439494 0.013173477808 0.013051816713 0.012929492814 0.012806544533 0.012683083185 0.012559153694 
0.012434831261 0.012310146032 0.012185177474 0.012060004679 0.011934672098 0.011809263276 0.011683837718 0.01155843355 0.011433167022 
0.011308008087 0.01118313043 0.011058545221 0.010934302611 0.0108104508 0.010687014709 0.010564092884 0.010441658904 0.010319765939 
0.010198500539 0.010077885356 0.0099579666459 0.0098387811702 0.0097203615983 0.0096027458377 0.0094859776461 0.0093699789835 0.009254970199 
0.01548485022 0.015381109526 0.01527535455 0.015167856558 0.01505859459 0.014947627492 0.01483503051 0.01472086506 0.014605185073 
0.014488040809 0.014369520357 0.014249697525 0.014128659436 0.01400651691 0.01388333666 0.013759150764 0.013634049776 0.013508139349 
0.013381403462 0.013254050943 0.01312608824 0.012997557053 0.012868587774 0.012739236582 0.012609514961 0.012479520474 0.01234932989 
0.012219013588 0.012088633333 0.011958251967 0.011827946147 0.011697771666 0.011567818674 0.011438035494 0.011308658562 0.011179649237 
0.011051076491 0.010923000937 0.01079544037 0.010668466383 0.010542081964 0.010416323162 0.010291307132 0.010167023409 0.010043534183 
0.0099208695751 0.0097990815411 0.009678183437 0.0095582213857 0.0094391190764 0.015921924877 0.015813616899 0.015703456064 0.015591212824 
0.015477223292 0.015361475088 0.015244019055 0.015124949892 0.015004288778 0.014882160772 0.014758581207 0.014633688027 0.014507500226 
0.014380182949 0.01425174584 0.0141223059 0.013991968366 0.013860703711 0.013728708696 0.01359592131 0.013462647058 0.013328775513 
0.01319445749 0.013059750849 0.012924718005 0.012789399677 0.012653908241 0.012518312029 0.012382673202 0.012247069477 0.012111547435 
0.011976181595 0.011841042313 0.01170623538 0.011571706271 0.011437674244 0.011304127658 0.011171105809 0.011038685708 0.010906867236 
0.01077573728 0.010645291385 0.010515584881 0.010386706614 0.010258681161 0.01013154615 0.010005333773 0.0098801007728 0.0097558534343 
0.0096326344717 0.016382402524 0.016269409998 0.016154409558 0.016037425031 0.015918379839 0.015797556784 0.015674966839 0.015550637464 
0.015424745891 0.015297304854 0.015168354545 0.015038033299 0.014906351684 0.0147735045 0.014639511198 0.014504496394 0.014368505488 
0.014231742826 0.014094116048 0.013955790282 0.013816770315 0.013677280317 0.013537290412 0.013396879099 0.013256184785 0.013115257295 
0.012974146535 0.012832951504 0.012691707962 0.012550557416 0.012409517993 0.012268688327 0.01212811749 0.011987942026 0.011848139712 
0.011708723969 0.011569905279 0.011431678881 0.011294067315 0.011157181891 0.011020988048 0.01088559284 0.010751000546 0.010617241222 
0.010484414536 0.010352555996 0.010221693026 0.010091865636 0.0099631222968 0.0098354887971 0.016867243826 0.016749221714 0.016629042204 
0.016506809432 0.016382553773 0.016256349922 0.016128429466 0.015998623237 0.015867102753 0.015734021581 0.015599408745 0.015463244494 
0.015325814377 0.015187118167 0.015047271191 0.01490633386 0.014764456168 0.014621674124 0.014478053286 0.014333785797 0.014188845249 
0.014043357412 0.013897430206 0.013751021496 0.013604352902 0.013457455286 0.013310426658 0.013163237071 0.013016114511 0.012869087969 
0.012722221023 0.012575624437 0.012429314855 0.012283379509 0.012137921172 0.011992988562 0.011848551507 0.011704869706 0.011561861276 
0.011419565822 0.01127807516 0.011137411915 0.010997629478 0.010858788028 0.010720891404 0.010584061775 0.010448301795 0.010313650611 
0.010180155197 0.01004784928 0.017376929137 0.017253589727 0.017127994492 0.017000247906 0.016870381376 0.016738501756 0.0166046892 
0.016469070447 0.016331686479 0.016192695426 0.01605203793 0.015909907358 0.015766359262 0.015621492336 0.015475339663 0.015328174867 
0.015180004413 0.015030913896 0.014881016569 0.014730385093 0.014579158597 0.014427242141 0.014274971835 0.014122344822 0.013969309531 
0.013816189317 0.013662861367 0.013509523498 0.01335618894 0.013202952408 0.013049861677 0.012897133626 0.012744751683 0.012592791344 
0.012441368411 0.012290518416 0.012140310739 0.011990710494 0.011841979068 0.011694030997 0.0115469591 0.011400791211 0.011255589978 
0.011111365059 0.010968223203 0.010826088633 0.010685176144 0.010545457626 0.010406973361 0.010269749177 0.017911848218 0.017782779092 
0.017651462242 0.017517883962 0.017382140597 0.017244270552 0.017104390797 0.016962567257 0.016818957372 0.01667361092 0.016526574013 
0.016378070321 0.016228160319 0.016076806308 0.01592417889 0.015770421031 0.015615632693 0.01545979424 0.015303197132 0.015145909802 
0.014987951225 0.014829441911 0.01467040942 0.014511072114 0.01435143487 0.014191567291 0.014031609931 0.013871736077 0.013711815874 
0.013552062042 0.013392535459 0.013233367206 0.013074521526 0.012916229574 0.012758479459 0.012601413586 0.012445039478 0.012289426454 
0.012134558955 0.011980654421 0.011827668877 0.011675652574 0.011524719944 0.011374921145 0.011226175888 0.011078607659 0.010932248677 
0.010787200139 0.010643453854 0.010501084751 0.018472184966 0.018337296365 0.018199944224 0.018060236967 0.017918130178 0.01777396495 
0.017627698014 0.017479349021 0.017329173362 0.017177174392 0.017023437093 0.016868095771 0.016711290681 0.016553060193 0.01639357525 
0.016232861022 0.016071082776 0.015908350543 0.015744773743 0.015580305017 0.015415325233 0.015249783075 0.015083749071 0.014917195852 
0.014750532337 0.014583681225 0.014416757486 0.014249769908 0.014082958822 0.013916319813 0.013750057734 0.013584068244 0.013418562535 
0.013253592973 0.013089233887 0.012925536449 0.012762681184 0.01260065924 0.012439520195 0.012279262218 0.012120083976 0.011961966803 
0.011804969141 0.011649169528 0.011494606686 0.011341343936 0.011189327683 0.011038656963 0.010889441728 0.010741670248 0.019058233285 
0.018917025962 0.018773308315 0.018627111375 0.018478564778 0.018327721942 0.018174505972 0.018019355607 0.017862147869 0.017703125226 
0.017542336962 0.017379847255 0.017215805312 0.017050301854 0.016883471329 0.016715392687 0.016546354623 0.016376227989 0.016205224439 
0.016033458177 0.015861033393 0.015687938163 0.015514511441 0.015340696841 0.015166571582 0.014992330516 0.014818018027 0.014643799029 
0.014469503149 0.014295638803 0.014122068959 0.013948953285 0.013776479032 0.013604492212 0.013433173616 0.013262655664 0.013092984587 
0.012924124869 0.012756354707 0.012589598908 0.012423860249 0.012259337639 0.012096029942 0.011933965327 0.011773259083 0.011613902953 
0.011455941471 0.011299528562 0.011144533943 0.010991116668 0.019669319888 0.019521562273 0.019371261477 0.019218269665 0.019062772136 
0.01890486169 0.018744702057 0.018582337676 0.018417755098 0.018251261184 0.018082987428 0.017913015939 0.017741353212 0.017568183228 
0.01739367357 0.017217909899 0.017040989686 0.016863081374 0.016684405796 0.0165048266 0.01632458615 0.016143790473 0.015962538179 
0.015780813735 0.015598953346 0.015416879552 0.015234849481 0.015052869812 0.014871116205 0.014689601685 0.014508498246 0.014327869585 
0.014147702299 0.01396837597 0.013789885671 0.013612127477 0.013435324959 0.013259487188 0.013084727357 0.012910983742 0.012738443356 
0.012567210402 0.012397293082 0.012228718083 0.012061592598 0.011895946571 0.01173179144 0.011569171985 0.011408177545 0.011248926467 
0.020305404709 0.020150724334 0.019993171281 0.019833003771 0.019670385619 0.019505140377 0.019337489084 0.019167554049 0.018995444509 
0.018821105351 0.01864489548 0.01846696866 0.018287348202 0.018106199735 0.017923607168 0.01773970589 0.017554670693 0.017368581977 
0.017181554375 0.016993774832 0.016805448949 0.016616463999 0.016427013896 0.016237191954 0.016047175353 0.015856797424 0.015666661714 
0.015476633871 0.015286810485 0.015097347384 0.014908308387 0.014719817104 0.014531987129 0.01434491672 0.014158702597 0.013973382904 
0.013789094096 0.013605888492 0.013423823811 0.013242945199 0.013063382748 0.012884947302 0.012708124258 0.012532758906 0.012358908751 
0.012186672714 0.012016072611 0.011847129604 0.011679912735 0.011514439164 0.020965695862 0.020803611125 0.020638748125 0.020471056503 
0.02030067648 0.020127677808 0.019952296044 0.019774390985 0.019594210275 0.019411882462 0.019227516688 0.019041064129 0.0188530853 
0.018663497444 0.01847243424 0.018280079166 0.018086437734 0.017891792953 0.017696200651 0.017499825861 0.017302766196 0.017105285279 
0.016907202258 0.016708816734 0.016510210675 0.016311525297 0.016112780268 0.015914173641 0.015715941551 0.015518156199 0.015320851855 
0.015124130169 0.014928127103 0.014732977687 0.014538778107 0.014345594052 0.014153482979 0.013962682104 0.013772857903 0.013584491219 
0.013397507078 0.013211932619 0.013027710972 0.012845262027 0.012664445295 0.012485330749 0.012308010455 0.012132439992 0.011958735141 
0.011786915215 0.021649206165 0.021479653956 0.021307056239 0.02113148432 0.020953092611 0.020771827557 0.020588094155 0.020401967986 
0.020213356623 0.020022492773 0.019829533115 0.019634499143 0.019437755113 0.019239212626 0.019039275264 0.01883796497 0.018635435262 
0.018431833785 0.018227232057 0.018021835227 0.017815749891 0.01760913375 0.017402070342 0.017194815213 0.016987266728 0.016779624111 