# vtk DataFile Version 5.1
vtk output
ASCII
DATASET STRUCTURED_POINTS
DIMENSIONS 50 50 50
SPACING 0.002 0.002 0.002
ORIGIN 0.1742 -0.052672 0.02732
POINT_DATA 125000
FIELD FieldData 1
potential 1 125000 double
0.0015028012998 0.0015143658533 0.001526059143 0.0015378814114 0.0015498340518 0.0015619167692 0.001574130647 0.0015864770085 0.0015989570822 
0.0016115733489 0.0016243262523 0.0016371739615 0.0016502060138 0.0016633792916 0.0016766968641 0.0016901599476 0.0017037673835 0.0017175202788 
0.0017314215788 0.0017454708675 0.0017596709922 0.0017740203161 0.0017885206771 0.0018031730079 0.0018179795671 0.0018329411162 0.0018480640426 
0.0018633503411 0.0018787985902 0.0018944121799 0.0019101929982 0.0019261337162 0.0019422530513 0.0019585455214 0.001975011001 0.0019916540197 
0.0020084763781 0.0020254790721 0.0020426313447 0.0020601654448 0.0020777359892 0.0020955930502 0.0021135677321 0.0021316170078 0.002150011085 
0.0021686222505 0.002187455463 0.0022065140253 0.0022258031783 0.0022453230691 0.0015135348364 0.0015252259275 0.0015370473657 0.0015489999377 
0.0015610854539 0.0015733031379 0.0015856537773 0.0015981394401 0.0016107606073 0.0016235220417 0.0016363766793 0.0016494182854 0.0016626024275 
0.0016759298747 0.0016894043016 0.0017030266592 0.0017167974534 0.001730717056 0.0017447851468 0.0017590064318 0.0017733800638 0.0017879068868 
0.0018025873049 0.0018174226391 0.0018324133618 0.0018475675039 0.0018628841492 0.0018783647455 0.0018940122252 0.0019098280908 0.0019258064914 
0.0019419649923 0.0019582971055 0.0019748053192 0.0019914916562 0.0020083586813 0.002025408781 0.0020426067152 0.0020600286078 0.0020778054405 
0.0020957046741 0.0021137233183 0.0021318163517 0.0021502520888 0.0021689067665 0.0021877822369 0.0022068841562 0.0022262167124 0.0022457846413 
0.0022655874121 0.0015235798366 0.001535391781 0.0015473361724 0.0015594150685 0.0015716283666 0.0015839762828 0.0015964589025 0.0016090784351 
0.0016218380183 0.0016346931411 0.0016477353879 0.0016609201751 0.0016742503875 0.0016877263247 0.0017013527478 0.0017151283313 0.001729056924 
0.0017431370024 0.0017573688443 0.001771755745 0.0017862980913 0.0018009963199 0.0018158505035 0.0018308605092 0.0018460356189 0.0018613727974 
0.0018768756936 0.0018925456385 0.0019083863633 0.0019243913511 0.0019405761496 0.0019569377908 0.0019734763393 0.0019901937339 0.0020070929326 
0.0020241771482 0.0020414127912 0.0020588706786 0.0020766809287 0.0020946131112 0.0021126659422 0.0021309248711 0.0021492593312 0.0021679454991 
0.0021868518411 0.0022059847664 0.0022253480569 0.00224494716 0.0022647864999 0.0022848656644 0.0015328529784 0.0015447815414 0.0015568444752 
0.001569043041 0.0015813782472 0.0015938506871 0.0016064596422 0.0016192075347 0.0016320992627 0.001645087778 0.0016582655253 0.0016715874947 
0.0016850584746 0.001698678995 0.0017124507818 0.001726375795 0.0017404551609 0.0017546882324 0.001769076131 0.0017836225288 0.0017983266086 
0.0018131869671 0.0018282078168 0.0018433928887 0.0018587418494 0.0018742552863 0.0018899380543 0.0019057907836 0.0019218168964 0.0019380122708 
0.0019543890081 0.0019709452914 0.0019876828619 0.0020046033681 0.0020217079292 0.0020389663974 0.002056448929 0.0020741225962 0.0020922323328 
0.0021103107028 0.0021285915369 0.0021469471203 0.0021656508912 0.0021845781497 0.0022037290123 0.002223110462 0.0022427275374 0.0022625871638 
0.0022826862751 0.0023030332648 0.0015412932285 0.0015533324621 0.0015655074613 0.0015778202723 0.0015902721441 0.0016028626608 0.00161559249 
0.001628464579 0.0016414369162 0.0016545959577 0.0016679021069 0.0016813566212 0.0016949621037 0.0017087186625 0.0017226291775 0.0017366962668 
0.0017509191149 0.0017652994557 0.0017798368947 0.0017945353803 0.001809391259 0.0018244123334 0.0018395933763 0.0018549420303 0.0018704577119 
0.0018861414376 0.0019019951933 0.0019180246585 0.001934224832 0.001950605836 0.0019671666261 0.001983910197 0.0020008382513 0.0020179518818 
0.0020352208775 0.0020527138467 0.0020703993512 0.0020884442707 0.0021066030473 0.0021248960472 0.0021432596307 0.0021619728347 0.0021809043415 
0.002200062725 0.002219448893 0.0022390702264 0.0022589311926 0.0022790388883 0.0022993932056 0.0023199974994 0.0015488606896 0.0015610037785 
0.0015732867411 0.0015857070203 0.0015982687127 0.0016109716457 0.0016238151226 0.0016367602247 0.001649893446 0.0016631735504 0.0016766015027 
0.0016901812965 0.0017039144328 0.0017177997372 0.0017318422184 0.0017460440143 0.001760404449 0.0017749246298 0.0017896056546 0.0018044446521 
0.00181945149 0.0018346221351 0.0018499566039 0.0018654607456 0.0018811341802 0.0018969800004 0.0019129977164 0.0019291929034 0.0019455656011 
0.0019621196925 0.001978856473 0.0019957784189 0.0020128891509 0.0020301557079 0.0020476459486 0.0020653305341 0.0020832126975 0.0021015290223 
0.0021198174479 0.0021381774111 0.0021568874986 0.0021758129165 0.0021949621237 0.0022143412433 0.0022339534568 0.0022538046717 0.0022739029559 
0.0022942473341 0.0023148451007 0.0023357454178 0.0015555398554 0.0015677813503 0.0015801632826 0.0015926865727 0.0016053517831 0.0016181598205 
0.001631067504 0.0016441645368 0.0016574089504 0.0016708023354 0.0016843453182 0.0016980438711 0.0017118965706 0.0017259056222 0.001740073369 
0.0017544019684 0.0017688918244 0.0017835423574 0.0017983580012 0.0018133374046 0.0018284840601 0.0018437967411 0.0018592772806 0.0018749288919 
0.0018907541163 0.0019067526407 0.0019229270269 0.0019392814598 0.001955815605 0.0019725339706 0.0019894391646 0.0020065325082 0.0020237841413 
0.0020412597573 0.0020589295816 0.0020767963672 0.0020950955854 0.0021133705006 0.0021318515227 0.002150405658 0.0021693154894 0.0021884448652 
0.0022078015612 0.002227393064 0.0022472210609 0.0022672925158 0.0022876146115 0.0023081885823 0.0023290628945 0.0023501496453 0.0015613384512 
0.0015736717349 0.0015861469815 0.0015987646767 0.0016115261937 0.0016244324265 0.001637442858 0.0016506414537 0.0016639913271 0.0016774913699 
0.0016911443659 0.0017049533983 0.0017189195655 0.0017330440023 0.00174732945 0.0017617787044 0.0017763887067 0.0017911658078 0.001806108611 
0.0018212188997 0.0018364974537 0.0018519453963 0.0018675631333 0.0018833549379 0.0018993226907 0.001915465839 0.0019317904547 0.0019482948181 
0.0019649833785 0.0019818586176 0.0019989232061 0.0020161466014 0.0020335944356 0.0020512381948 0.0020690784331 0.0020871854724 0.0021055949662 
0.0021240488295 0.0021425750289 0.0021614555792 0.0021805549364 0.0021998788058 0.0022194329999 0.0022392264904 0.0022592602587 0.0022795420183 
0.0023000795702 0.0023208726008 0.0023419690559 0.0023632854104 0.0015662873709 0.0015787055198 0.0015912671595 0.0016039738074 0.0016168261397 
0.0016297835488 0.0016429300195 0.0016562257346 0.0016696736143 0.0016832734762 0.0016970290364 0.0017109426189 0.0017250153336 0.0017392490536 
0.0017536455447 0.0017682047143 0.0017829333813 0.0017978276822 0.0018128915823 0.0018281232589 0.0018435271171 0.0018591028128 0.0018748518611 
0.0018907762177 0.0019068779862 0.0019231624403 0.0019396254925 0.0019562731506 0.0019731075716 0.0019901310549 0.002007316038 0.0020247249145 
0.0020423296327 0.002060131743 0.0020781354983 0.0020965687903 0.0021149850924 0.0021334719426 0.0021523102758 0.0021713683624 0.0021906471963 
0.002210156017 0.0022299003434 0.0022498862277 0.0022701165681 0.0022906018557 0.002311343494 0.0023323847865 0.0023536555087 0.0023752937137 
0.0015704390537 0.0015829365035 0.0015955800588 0.0016083697323 0.0016212665313 0.0016343512819 0.0016475867684 0.0016609730359 0.0016745122914 
0.0016882059951 0.0017020576543 0.0017160687087 0.0017302420405 0.0017445782789 0.0017590774263 0.0017737463293 0.0017885830592 0.0018035893336 
0.0018187665625 0.0018341156537 0.0018496357051 0.0018653332152 0.0018812054181 0.0018972559331 0.0019134902991 0.001929901467 0.0019464980906 
0.0019632817732 0.0019802552655 0.0019973897705 0.0020147488637 0.0020323044697 0.0020500574792 0.0020680126598 0.0020862312442 0.0021047615366 
0.0021231982168 0.0021419868554 0.002160991487 0.0021802187133 0.0021996710678 0.0022193560009 0.002239280746 0.0022594497986 0.0022798685055 
0.002300547403 0.0023215191328 0.0023427246163 0.0023642983055 0.0023860533933 0.001573870331 0.0015864426368 0.0015991622474 0.0016120300311 
0.0016250056111 0.0016381716439 0.0016514896557 0.0016649613848 0.0016785866593 0.0016923690405 0.0017063110357 0.0017204151214 0.0017346829694 
0.0017491139435 0.001763714715 0.0017784850062 0.0017934240479 0.0018085365979 0.0018238211012 0.0018392797818 0.0018549124173 0.0018707237246 
0.0018867127774 0.0019028829345 0.0019192412625 0.0019357766718 0.0019524996931 0.0019694140596 0.0019864902286 0.0020037892323 0.0020212858239 
0.0020389825227 0.0020568777636 0.0020750347221 0.0020935047059 0.0021120244616 0.00213061305 0.0021495572554 0.0021687225039 0.002188110168 
0.0022077277093 0.0022275829876 0.0022476806231 0.0022680254003 0.0022886254773 0.0023094882419 0.0023306477641 0.0023521517469 0.0023738211464 
0.0023957780931 0.0015766764777 0.0015893189628 0.0016021101047 0.0016150097805 0.0016281006331 0.001641343993 0.0016547389867 0.0016682912408 
0.0016819980263 0.0016958643589 0.0017098922708 0.0017240841232 0.0017384383503 0.0017529645272 0.0017676610411 0.0017825271499 0.0017975648895 
0.0018127768755 0.0018281641621 0.0018437270347 0.0018594669461 0.0018753876801 0.0018914889892 0.0019077809155 0.0019242477743 0.0019409031771 
0.0019577482888 0.0019747574449 0.001991990216 0.002009419992 0.0020270484418 0.0020448785144 0.0020629126687 0.0020812073804 0.002099821004 
0.0021183419497 0.0021372184412 0.0021563127937 0.0021756314866 0.0021951752588 0.0022149524945 0.0022349696234 0.0022552333202 0.0022757487252 
0.0022965258735 0.0023175954192 0.0023390114473 0.0023605909579 0.0023824591537 0.0024046131601 0.00157896775 0.0015916766075 0.0016044960635 
0.0016175053406 0.0016306663452 0.0016439821259 0.0016574529112 0.0016710795888 0.001684864449 0.0016988110314 0.0017129178039 0.001727193559 
0.0017416373717 0.001756252304 0.0017710391999 0.0017859975521 0.0018011302971 0.0018164381637 0.0018319233842 0.0018475868857 0.0018634300025 
0.0018794554403 0.0018956748719 0.0019120669235 0.0019286478253 0.0019454171178 0.0019623523407 0.001979510439 0.001996865857 0.0020144220082 
0.0020321798853 0.0020501399841 0.0020683574807 0.0020868967869 0.0021053444487 0.0021241460809 0.0021431661114 0.0021624062344 0.0021818726478 
0.0022015664564 0.0022214983975 0.002241673927 0.0022620996864 0.0022827818725 0.0023037295703 0.0023250744057 0.0023465663892 0.0023683282467 
0.002390384316 0.0024127302703 0.0015808703678 0.0015936432667 0.0016065272272 0.0016196025904 0.0016328316698 0.0016462170057 0.0016597594163 
0.0016734592621 0.0016873193404 0.0017013394694 0.001715529188 0.0017298871932 0.0017444138742 0.0017591146647 0.0017739899213 0.0017890367252 
0.0018042600803 0.001819661667 0.0018352428603 0.0018510036129 0.0018669472676 0.0018830734856 0.0018993997795 0.0019158982033 0.0019325879919 
0.0019494440812 0.0019665220145 0.0019837985427 0.0020012749695 0.0020189540434 0.0020368367499 0.0020549721985 0.0020732702637 0.0020919432437 
0.0021105243952 0.0021294638658 0.0021486236419 0.0021680060647 0.0021876167827 0.0022074590801 0.0022275425207 0.002247874823 0.00226845974 
0.0022893036262 0.0023105452022 0.0023319342108 0.0023536025447 0.0023755445827 0.00239778463 0.0024203204555 0.0015825179691 0.001595313519 
0.0016082993719 0.0016214392899 0.0016347347176 0.0016481883275 0.0016618000948 0.0016755708955 0.0016895022071 0.0017036014438 0.0017178680361 
0.001732305107 0.001746914644 0.0017616973997 0.0017766576616 0.0017917939403 0.0018071074819 0.0018226016728 0.0018382764924 0.0018541335536 
0.0018701765737 0.0018864179196 0.0019028317566 0.0019194370921 0.0019362091798 0.0019532030698 0.0019703945772 0.0019877884527 0.0020053836962 
0.0020231836916 0.0020411913691 0.0020594519029 0.0020778792764 0.0020965400993 0.0021153973127 0.0021344717943 0.0021537703028 0.0021732948284 
0.0021930480686 0.0022130416228 0.0022332758272 0.0022537604801 0.0022745030728 0.0022956359495 0.0023169165353 0.0023384767785 0.0023603102239 
0.0023824408605 0.0024048654679 0.0024275888981 0.0015840478715 0.0015969052848 0.0016099539963 0.0016231570706 0.0016365193112 0.0016500414107 
0.0016637205695 0.0016775591577 0.0016915668099 0.0017057413898 0.0017200846737 0.0017346013143 0.0017492910091 0.0017641569757 0.0017792029082 
0.0017944265305 0.0018098298397 0.001825416279 0.0018411842285 0.001857137463 0.001873278277 0.0018896218713 0.0019061404488 0.0019228255803 
0.0019397330219 0.0019568381066 0.0019741427196 0.0019916534185 0.0020093688021 0.002027290451 0.002045464093 0.0020638081103 0.0020823857776 
0.002101158333 0.0021201474928 0.0021393595335 0.0021587973275 0.002178466529 0.0021983639553 0.0022185037856 0.0022388900412 0.0022595298978 
0.0022805364961 0.0023017272113 0.0023231746706 0.0023449059412 0.0023669153089 0.0023892260868 0.0024118407916 0.0024347535035 0.0015855636708 
0.001598520146 0.0016116320701 0.0016249007231 0.0016383277832 0.0016519172328 0.0016656637847 0.0016795767425 0.0016936579209 0.0017079078852 
0.0017223298158 0.0017369262951 0.0017516978055 0.0017666481879 0.0017817798843 0.0017970913754 0.0018125862511 0.0018282640673 0.0018441278022 
0.0018601775364 0.0018764354275 0.0018928676628 0.0019094655355 0.0019262836822 0.0019433007912 0.0019605183743 0.0019779397996 0.0019955685038 
0.0020134031427 0.0020314877308 0.0020497481316 0.0020682212946 0.0020869290721 0.0021058355731 0.0021249621757 0.002144315396 0.0021638956265 
0.0021837050537 0.0022037516154 0.0022240421932 0.0022445831933 0.0022654862254 0.0022865655834 0.0023079061776 0.0023295227824 0.002351429896 
0.0023736192386 0.0023961170137 0.0024189166466 0.0024420233669 0.001587276046 0.0016002941906 0.0016134712162 0.0016268049748 0.0016403007972 
0.0016539554982 0.0016677769779 0.0016817642428 0.0016959215261 0.0017102478224 0.0017247491214 0.0017394278606 0.0017542835613 0.0017693204781 
0.001784539262 0.0017999419574 0.0018155287908 0.0018313021355 0.0018472625556 0.0018634316577 0.0018797758581 0.0018962887628 0.0019130170275 
0.0019299468827 0.00194707776 0.0019644112254 0.0019819515059 0.0019997003792 0.0020176594806 0.0020358697113 0.0020542600126 0.0020728829099 
0.0020917070782 0.0021107546575 0.0021300218995 0.0021495153115 0.0021692425128 0.002189201538 0.0022094005514 0.0022298473576 0.0022506517902 
0.0022716134069 0.0022928603552 0.0023143694802 0.0023361640887 0.0023582449336 0.0023806270092 0.0024033097911 0.0024263020444 0.0024496078458 
0.0015892732874 0.0016023558982 0.0016155983922 0.0016290014366 0.0016425644877 0.0016562952817 0.0016701897427 0.0016842543674 0.0016984896246 
0.0017128980898 0.0017274807898 0.0017422438871 0.0017571869461 0.0017723136524 0.0017876231213 0.0018031188189 0.0018188025414 0.0018346737218 
0.0018507356387 0.0018670102106 0.0018834616614 0.0019000815334 0.0019169226074 0.0019339668558 0.0019512155688 0.001968669648 0.001986334102 
0.0020042094334 0.0020223311449 0.0020406391384 0.0020590183565 0.0020779232985 0.0020968897892 0.0021160781475 0.0021354907857 0.0021551341835 
0.0021750144133 0.0021951285107 0.0022154869406 0.0022361988956 0.0022570675249 0.0022782058885 0.002299615638 0.0023213049785 0.0023432853263 
0.002365548184 0.0023881204349 0.0024110014312 0.0024341939294 0.0024577083409 0.0015916685871 0.0016048204613 0.0016181330532 0.0016316034721 
0.0016452454652 0.0016590510836 0.0016730240587 0.0016871681413 0.00170148543 0.0017159785821 0.0017306488403 0.001745500228 0.0017605344305 
0.001775754724 0.0017911604587 0.0018067532932 0.0018225360912 0.0018385123322 0.0018547011347 0.0018710632512 0.001887602976 0.0019043623482 
0.0019213201187 0.001938485637 0.0019558572501 0.0019734387064 0.0019912305278 0.0020092408846 0.0020274953576 0.0020459410812 0.0020646228166 
0.0020835111576 0.0021026233723 0.002121960301 0.002141526268 0.0021613279479 0.0021813673515 0.0022016441173 0.002222169675 0.0022430538019 
0.002264094916 0.0022854108879 0.0023070061076 0.0023288813885 0.002351048588 0.0023735065871 0.0023962788389 0.0024193656164 0.0024427709882 
0.0024665008835 0.0015945657525 0.0016077894878 0.0016211717487 0.001634722219 0.0016484421415 0.0016623279298 0.0016763831657 0.0016906127043 
0.0017050165462 0.0017195989849 0.0017343608164 0.0017493067743 0.0017644378405 0.0017797552057 0.0017952615982 0.0018109576058 0.0018268468548 
0.0018429309252 0.0018592338847 0.0018756884608 0.0018923685101 0.0019092481199 0.0019263310882 0.0019436215805 0.001961123179 0.0019788378033 
0.0019967675068 0.0020149422755 0.0020333144896 0.0020517603648 0.002070733333 0.0020897720044 0.0021090382995 0.0021285349247 0.0021482635216 
0.002168231562 0.0021884373157 0.0022088867252 0.0022296924655 0.0022506537532 0.002271881176 0.0022933855239 0.0023151685682 0.0023372399225 
0.0023595994379 0.0023822720482 0.0024052562523 0.0024285588453 0.0024521862625 0.0024761445166 0.0015980471788 0.0016113441576 0.0016248096447 
0.0016384421657 0.0016522436351 0.0016662142032 0.0016803568895 0.0016946767876 0.0017091734693 0.0017238506302 0.0017387102472 0.0017537554149 
0.0017689880297 0.0017844100199 0.0018000229456 0.0018158299487 0.0018318312822 0.0018480532161 0.0018644301914 0.0018810290707 0.0018978331536 
0.0019148398554 0.0019320545279 0.0019494790735 0.0019671182524 0.0019849749531 0.0020030717692 0.0020213720864 0.0020397483192 0.0020584904592 
0.0020776209129 0.0020968210975 0.0021162523135 0.0021359147129 0.0021558146638 0.0021759587736 0.0021963432445 0.0022170785655 0.0022379692812 
0.0022591265646 0.0022805455944 0.0023022471337 0.002324230029 0.0023465091309 0.002369083271 0.002391973159 0.002415180147 0.0024387116064 
0.002462573274 0.0024867703347 0.0016021804409 0.001615563765 0.0016291128618 0.0016428309338 0.0016567223191 0.0016707842596 0.0016850203762 
0.0016994348635 0.0017140305308 0.0017288085098 0.0017437717237 0.0017589219092 0.0017742639343 0.0017897986937 0.0018055256263 0.0018214476526 
0.0018375931899 0.0018538931723 0.0018704164932 0.0018871451796 0.0019040791033 0.0019212211741 0.0019385758187 0.00195614358 0.0019739300229 
0.0019919375462 0.0020101850918 0.0020286389915 0.0020471740471 0.0020662409745 0.0020853790539 0.0021047493614 0.0021243526397 0.0021441957739 
0.0021642778798 0.0021846061548 0.002205283226 0.002226112374 0.0022472055934 0.0022685544565 0.002290183716 0.0023120949628 0.0023342945815 
0.0023567944462 0.0023795942091 0.0024027152598 0.0024261582676 0.0024499300246 0.0024740396034 0.0024984822366 0.0016070292808 0.0016204989114 
0.0016341384213 0.0016479487895 0.0016619338714 0.001676093433 0.0016904300056 0.001704947223 0.0017196472192 0.0017345321334 0.0017496055035 
0.0017648693545 0.0017803272599 0.0017959805697 0.001811829156 0.0018278754557 0.0018441286991 0.00186057895 0.0018772342942 0.0018941002804 
0.0019111744892 0.0019284601187 0.0019459619607 0.0019636868565 0.0019816251416 0.0019998067464 0.0020181983874 0.0020366725523 0.0020555208594 
0.0020747626189 0.0020940775986 0.0021136278208 0.0021334184713 0.0021534500313 0.0021737252804 0.0021943528785 0.0022151345641 0.0022361700367 
0.0022574696247 0.0022790300006 0.0023008770511 0.0023230133067 0.002345443167 0.0023681687809 0.0023912160046 0.0024145827003 0.0024382747173 
0.0024623024779 0.0024866630595 0.002511380691 0.0016126307333 0.0016261941242 0.0016399297499 0.0016538381575 0.0016679245381 0.0016821878338 
0.0016966293123 0.0017112559202 0.0017260684101 0.0017410691773 0.0017562586947 0.0017716437837 0.0017872244548 0.0018030042104 0.0018189819334 
0.0018351694282 0.0018515501003 0.001868137861 0.0018849350105 0.0019019435767 0.001919169631 0.0019366076992 0.0019542685991 0.0019721500607 
0.0019902549159 0.0020086016164 0.0020271659536 0.0020458143936 0.002065004184 0.0020842706522 0.0021037746052 0.002123517335 0.0021435042376 
0.0021637355278 0.0021842160168 0.0022050576826 0.0022260516654 0.002247302095 0.0022688129303 0.002290610911 0.0023126936596 0.0023350648614 
0.0023577379249 0.0023807130115 0.0024040141895 0.0024276394678 0.0024515967643 0.0024758837609 0.0025005280037 0.0025255284568 0.001619016269 
0.0016326800787 0.0016465174822 0.001660532572 0.0016747258656 0.0016890989082 0.0017036548063 0.0017183974142 0.0017333276304 0.0017484500788 
0.0017637672871 0.0017792806262 0.0017949921384 0.0018109047308 0.0018270194029 0.0018433484979 0.0018598741131 0.0018766077273 0.0018935550952 
0.0019107180575 0.0019281035302 0.001945704232 0.001963528959 0.0019815797163 0.0019998693792 0.0020183819588 0.002036982878 0.0020559634312 
0.0020753452162 0.0020948060315 0.002114509396 0.0021344568468 0.0021546504211 0.0021750943306 0.0021958994827 0.0022168578615 0.0022380760556 
0.0022595599551 0.0022813049683 0.0023033415091 0.0023256718071 0.0023482968773 0.0023712270788 0.0023944648388 0.0024180351111 0.0024419336333 
0.0024661594683 0.0024907413747 0.0025156738394 0.0025409519893 0.00162620781 0.0016399794928 0.001653925762 0.0016680536654 0.0016823606072 
0.0016968514178 0.0017115278992 0.0017263934253 0.0017414515719 0.0017567036198 0.0017721524137 0.0017878021434 0.0018036538521 0.0018197092996 
0.0018359811398 0.0018524469975 0.0018691259647 0.0018860158269 0.0019031224509 0.0019204516385 0.001938000469 0.0019557727045 0.0019737729667 
0.0019920092891 0.0020104753649 0.0020290302422 0.0020479680198 0.0020671464044 0.0020867306631 0.0021063994445 0.0021263122076 0.002146475486 
0.002166894971 0.0021876641049 0.0022085930969 0.0022297857402 0.0022512448164 0.0022729544829 0.0022949632269 0.0023172572152 0.0023398476164 
0.0023627378717 0.0023859408562 0.0024094564131 0.0024333005837 0.0024574850504 0.0024820158686 0.0025068966405 0.0025321177168 0.0025577180291 
0.0016342182492 0.0016481044535 0.001662167134 0.0016764136873 0.0016908437928 0.0017054593326 0.0017202638352 0.001735261364 0.0017504535871 
0.0017658427862 0.0017814327547 0.0017972249809 0.0018132236089 0.0018294125652 0.0018458590733 0.0018624828913 0.0018793219233 0.001896379732 
0.0019136560677 0.0019311555003 0.0019488799435 0.0019668325629 0.0019850181643 0.0020034426212 0.0020221024938 0.0020408537342 0.0020599951949 
0.0020795407932 0.0020991802025 0.0021190652822 0.0021392022349 0.0021595978603 0.0021803443269 0.0022012509125 0.0022224243588 0.0022438618486 
0.0022655725276 0.0022875383071 0.0023098106932 0.0023323742178 0.002355239232 0.0023784096423 0.002401891416 0.0024256973851 0.0024498465686 
0.0024743326044 0.0024991917355 0.0025243501594 0.0025499039988 0.002575844089 0.0016430511834 0.0016570583617 0.0016712472177 0.0016856205848 
0.0017001793267 0.0017149286434 0.0017298681267 0.0017450040325 0.0017603387437 0.0017758732667 0.0017916114217 0.0018075568253 0.001823693938 
0.0018400931042 0.0018566704922 0.001873460835 0.0018904740746 0.0019077030657 0.0019251567134 0.0019428383317 0.0019607496647 0.0019788922556 
0.00199727357 0.0020158951825 0.0020346123663 0.0020537173091 0.0020730714509 0.0020928372437 0.0021126997925 0.002132816194 0.0021531917111 
0.0021739156776 0.0021948094582 0.0022159664736 0.0022373948326 0.0022590930812 0.002281045619 0.0023033029825 0.0023258524692 0.0023487005716 
0.0023718534522 0.0023953182973 0.0024190892827 0.0024432106627 0.0024676687833 0.0024924979382 0.002517617939 0.0025431369811 0.0025690419735 
0.002595329801 0.0016527013326 0.0016668379705 0.0016811598483 0.0016956683665 0.0017103649418 0.0017252544769 0.0017403377348 0.0017556199869 
0.0017711046212 0.0017867928629 0.0018026883976 0.0018187782435 0.0018350943102 0.0018516622172 0.0018684104635 0.0018853787197 0.0019025679422 
0.00191998301 0.0019376249257 0.0019554974427 0.0019736049739 0.0019919481501 0.0020105327133 0.0020293624643 0.0020482923326 0.0020676166022 
0.002087194916 0.0021071911374 0.0021272857557 0.0021476453184 0.0021682598923 0.0021892375948 0.0022103866352 0.002231806653 0.0022535023246 
0.0022754739941 0.0022977016163 0.0023202442174 0.0023430824154 0.0023662278597 0.0023896819676 0.0024134459282 0.002437542606 0.002461979297 
0.0024867871624 0.0025119299536 0.0025373722536 0.0025632525673 0.0025895130136 0.002616164403 0.0016631551777 0.0016774293341 0.0016918899719 
0.0017065414434 0.0017213834683 0.001736421483 0.0017516574077 0.0017670951258 0.0017827354669 0.0017985851214 0.0018146302837 0.0018309034605 
0.0018474289552 0.0018641400119 0.0018810686444 0.0018982187452 0.0019155964976 0.001933204314 0.0019510428234 0.001969118035 0.0019874296633 
0.0020059800952 0.0020247793299 0.0020436828838 0.0020629799994 0.0020825360394 0.0021025045722 0.002122585924 0.0021429237974 0.0021635282835 
0.0021844982211 0.0022056417645 0.0022270575124 0.0022487510558 0.0022707246605 0.002292981239 0.0023154979499 0.0023383387387 0.0023614821417 
0.0023849353649 0.0024086938619 0.0024327829761 0.0024572089651 0.0024820065593 0.0025071354258 0.0025325591888 0.0025584205176 0.0025846628263 
0.0026112943207 0.002638320435 0.0016743869365 0.0016888056964 0.001703413498 0.0017182138481 0.0017332089459 0.0017484031135 0.001763797063 
0.0017793968432 0.0017952043058 0.0018112232126 0.0018274403311 0.0018438892928 0.0018606000771 0.0018774932575 0.0018946106901 0.001911954072 
0.0019295285362 0.0019473370665 0.0019653815941 0.0019836662612 0.0020021924694 0.002020957299 0.0020399819617 0.0020591138923 0.0020786466772 
0.0020984384045 0.0021186584224 0.0021389811988 0.0021595753636 0.0021805366304 0.0022016764481 0.0022230917564 0.0022447867006 0.0022667636987 
0.002289027964 0.0023115471034 0.002334396612 0.0023575449671 0.0023810038137 0.0024047699374 0.0024288636181 0.0024532873323 0.0024780835432 
0.0025032061008 0.0025286193485 0.0025544731224 0.0025807046765 0.0026073242767 0.0026343404134 0.0026617572284 0.001686353548 0.0017009230227 
0.0017156848049 0.0017306416094 0.0017457979015 0.0017611550567 0.0017767142579 0.0017924844907 0.0018084661676 0.0018246474118 0.0018410601499 
0.0018577357334 0.0018745939558 0.0018916810494 0.0019089958143 0.0019265410222 0.0019443217397 0.0019623385303 0.0019805955352 0.0019990992495 
0.0020178385251 0.0020368410656 0.002055950136 0.0020754623065 0.002095237898 0.0021154377572 0.0021357484519 0.0021563301205 0.0021771894806 
0.002198422125 0.0022198371132 0.0022415338368 0.0022635182451 0.0022857885649 0.0023083506714 0.0023311756631 0.0023543383642 0.002377806314 
0.0024015844166 0.0024256895815 0.0024501270824 0.0024749223849 0.0025000473862 0.0025255120683 0.0025513112956 0.0025775413481 0.0026041552211 
0.0026311665451 0.0026585781197 0.0026863995374 0.0016989938406 0.0017137215187 0.0017286435518 0.0017437656023 0.0017590887102 0.0017746165802 
0.0017903501359 0.0018062972989 0.0018224464842 0.001838826678 0.0018554265957 0.0018722946422 0.0018893498711 0.0019066359038 0.0019241541027 
0.0019419080202 0.0019599016066 0.0019781374843 0.0019966164366 0.0020153450101 0.002034315342 0.0020534083692 0.0020728999744 0.002092657278 
0.0021126864326 0.0021331391121 0.0021537112311 0.0021745588282 0.0021957850911 0.0022172009741 0.0022389030528 0.0022608921601 0.0022831715161 
0.0023057450988 0.0023285791345 0.0023517567903 0.0023752429993 0.0023990339251 0.0024231546338 0.0024476062397 0.0024724150848 0.0024975493847 
0.002523039989 0.0025488167 0.0025750516807 0.0026016710281 0.0026286816392 0.0026560919907 0.0026839159699 0.0027121564654 0.0017122330213 
0.0017271241295 0.0017422142491 0.0017575062412 0.0017730032209 0.0017887072699 0.0018046223953 0.0018207397361 0.0018370897606 0.001853659452 
0.0018704965637 0.0018875221004 0.0019047791694 0.0019222713859 0.0019400005472 0.0019579698941 0.0019761838198 0.0019946433544 0.0020133519655 
0.0020322998662 0.0020515200481 0.0020708542094 0.0020905952393 0.0021106094266 0.0021308918778 0.0021516074858 0.0021724465886 0.0021936653662 
0.002215075345 0.0022367767916 0.0022587700159 0.0022810589788 0.0023036436441 0.0023265312559 0.0023496806062 0.0023731842121 0.0023969943186 
0.0024211281318 0.0024455984551 0.0024704313676 0.0024955753213 0.0025210762139 0.0025468571306 0.0025730979904 0.0025997240912 0.0026267395254 
0.0026541554332 0.0026819843984 0.0027102287791 0.002738900458 0.0017259712804 0.0017410316499 0.0017562950658 0.0017717637848 0.0017874384839 
0.001803326048 0.0018194264514 0.0018357361654 0.0018522758167 0.0018690416776 0.0018860787432 0.0019033082708 0.0019207724003 0.001938477584 
0.0019564246248 0.0019746165807 0.0019930541767 0.0020117451338 0.0020306899286 0.0020498751247 0.0020691947333 0.0020889197885 0.002108921477 
0.0021291894496 0.002149889965 0.0021707177483 0.0021919258402 0.0022133307514 0.0022350269269 0.0022570216688 0.0022793150263 0.0023019083664 
0.0023248043693 0.0023479647546 0.0023714840929 0.0023953095657 0.0024194655002 0.0024439521233 0.0024688065155 0.0024939705202 0.0025194808827 
0.0025452658578 0.0025715184542 0.0025981490776 0.0026251748915 0.0026525994248 0.0026804328637 0.0027086811222 0.0027373579729 0.0027664723434 
0.0017400938202 0.0017553279757 0.0017707676309 0.0017864153818 0.0018022757762 0.0018183514766 0.0018346314932 0.0018511431661 0.0018678801795 
0.001884889067 0.0019020886935 0.0019195263045 0.001937203774 0.001955126099 0.0019732941811 0.0019917099475 0.0020103799473 0.0020293051175 
0.0020484682377 0.002067916265 0.0020874888062 0.0021074717843 0.002127725229 0.0021482568189 0.0021692266908 0.0021903272718 0.0022118128514 
0.0022335037832 0.0022554908415 0.0022777825427 0.0023003793565 0.0023232818442 0.0023464951119 0.0023699757788 0.0023938154004 0.0024179864886 
0.0024424922886 0.0024673647829 0.0024925446764 0.002518076125 0.0025439334499 0.002570123162 0.0025967652896 0.0026237948631 0.0026512242285 
0.0026790645331 0.0027073227962 0.0027360033549 0.002765119281 0.0027946811615 0.0017544642306 0.0017698740715 0.0017854936367 0.0018013257457 