# vtk DataFile Version 5.1
vtk output
ASCII
DATASET STRUCTURED_POINTS
DIMENSIONS 50 50 50
SPACING 0.002 0.002 0.002
ORIGIN 0.1742 -0.052672 0.02732
POINT_DATA 125000
FIELD FieldData 1
potential 1 125000 double
0.00050979563675 0.00050747390831 0.00050519908754 0.00050297112199 0.00050078725362 0.00049864883093 0.00049655400219 0.00049450266523 0.00049249413033 
0.00049052729586 0.00048860160014 0.00048671603723 0.00048487132284 0.00048306363815 0.00048129335466 0.00047955996966 0.00047785898037 0.00047619223164 
0.00047455725509 0.00047295124678 0.0004713722095 0.00046981713658 0.00046828359952 0.00046676777738 0.00046526871584 0.00046378277892 0.00046230668829 
0.00046083779328 0.00045937224261 0.00045790719773 0.00045643911255 0.00045496524617 0.00045348198894 0.00045198605359 0.00045047471094 0.0004489460194 
0.00044739771581 0.00044582822625 0.00044423713889 0.00044262242417 0.00044098822989 0.00043933451162 0.00043766379123 0.0004359787725 0.00043428283327 
0.00043257950638 0.00043087233224 0.00042916528849 0.00042746060075 0.00042576185814 0.00051117504057 0.00050884246608 0.00050655598723 0.00050431477835 
0.00050212078546 0.00049997152393 0.00049786567791 0.00049580413872 0.00049378562547 0.00049180929296 0.00048987422489 0.00048797998708 0.00048612643723 
0.00048431041512 0.00048253179804 0.00048079030401 0.00047908218534 0.00047740817892 0.00047576508171 0.00047415109226 0.00047256413058 0.000471001333 
0.00046945998531 0.0004679362058 0.0004664290917 0.00046493493133 0.00046345052375 0.00046197257195 0.00046049830654 0.0004590240877 0.00045754674893 
0.0004560634593 0.00045457030829 0.00045306450857 0.00045154360713 0.00045000491436 0.00044844691652 0.00044686778213 0.00044526688575 0.00044364326705 
0.00044199984549 0.00044033732863 0.0004386579545 0.0004369641612 0.00043525979615 0.00043354783886 0.00043183238315 0.00043011635439 0.00042840270845 
0.00042669478107 0.00051225653754 0.00050991236065 0.00050761535456 0.0005053657106 0.00050316245902 0.00050100383764 0.00049889006454 0.00049682014372 
0.00049479385459 0.00049280977262 0.00049086794385 0.00048896650677 0.00048710609275 0.00048528337936 0.00048349804366 0.00048174917121 0.00048003636237 
0.00047835644307 0.00047670763912 0.00047508806467 0.00047349513371 0.00047192638338 0.00047037871029 0.00046884909202 0.00046733609178 0.00046583559724 
0.00046434454064 0.00046285978682 0.0004613785989 0.00045989687683 0.00045841216914 0.00045692092799 0.00045541978397 0.0004539058029 0.00045237602661 
0.0004508290986 0.00044926258064 0.00044767480574 0.0004460650735 0.00044443339289 0.00044278157313 0.00044111070746 0.00043942301956 0.00043772137226 
0.00043600864653 0.00043428884533 0.00043256452945 0.00043083979756 0.00042911767393 0.00042740096294 0.00051300378242 0.00051065153188 0.00050834746022 
0.00050609067025 0.00050387998562 0.00050171518923 0.00049959471836 0.00049751861863 0.0004954865165 0.00049349700369 0.00049154943513 0.00048964266955 
0.00048777777691 0.00048595077087 0.00048416181018 0.00048240862953 0.00048069145897 0.00047900752635 0.00047735482948 0.00047573135982 0.00047413472797 
0.00047256240132 0.00047101092407 0.00046947747611 0.00046796049461 0.00046645572059 0.00046496018971 0.00046347059238 0.00046198420486 0.00046049725873 
0.00045900706367 0.00045750980795 0.00045600260114 0.0004544823398 0.00045294580891 0.00045139184723 0.0004498180112 0.00044822263432 0.00044660438631 
0.00044496636899 0.00044330713556 0.00044162869401 0.00043993285091 0.0004382234058 0.0004365032101 0.00043477494758 0.00043304271539 0.00043130995642 
0.00042957970953 0.0004278548523 0.00051339362126 0.00051103639604 0.00050872724203 0.0005064651875 0.00050424953382 0.00050208013203 0.00049995570491 
0.00049787607565 0.00049584075523 0.00049384763714 0.00049189703911 0.00048998760214 0.00048812014446 0.00048629002789 0.0004844989345 0.00048274375717 
0.00048102468581 0.00047933897873 0.000477684589 0.00047605974235 0.00047446156605 0.00047288751718 0.00047133435879 0.00046979910413 0.00046828058315 
0.00046677377126 0.00046527591425 0.00046378435592 0.00046229500057 0.000460805413 0.00045931141668 0.000457810276 0.00045629886906 0.00045477359835 
0.00045323247014 0.0004516731557 0.00045009351574 0.00044849219138 0.00044686749903 0.00044522274158 0.00044355662196 0.00044187083883 0.00044016833727 
0.00043845138705 0.0004367232128 0.00043498739624 0.00043324747024 0.00043150706078 0.00042976938956 0.0004280369941 0.00051341119595 0.0005110508503 
0.00050873962712 0.00050647435236 0.00050425630642 0.00050208463045 0.00049995887057 0.00049787762192 0.000495841176 0.00049384691467 0.00049189518157 
0.00048998522819 0.00048811730472 0.00048628759042 0.00048449516515 0.0004827410047 0.00048102246399 0.00047933749735 0.00047768368612 0.00047605936566 
0.00047446207138 0.00047288848406 0.00047133580305 0.00046980113362 0.00046828279532 0.0004667762856 0.00046527846295 0.00046378667905 0.00046229708895 
0.00046080652332 0.00045931131257 0.00045780846064 0.00045629500838 0.00045476747248 0.00045322313171 0.0004516601855 0.00045007650755 0.00044847016094 
0.00044684040069 0.00044518977259 0.00044351763309 0.00044182572747 0.00044011584348 0.0004383918879 0.00043665662475 0.00043491352835 0.00043316648517 
0.00043141896059 0.00042967428368 0.00042793522336 0.00051305190564 0.00051069119025 0.00050837875781 0.00050611389636 0.00050389596203 0.00050172466893 
0.00049959887329 0.00049751864673 0.00049548301364 0.00049349015696 0.00049153940989 0.00048963147067 0.00048776467464 0.00048593735652 0.00048414726515 
0.00048239533012 0.00048067916962 0.00047899704938 0.00047734595886 0.00047572450262 0.00047412993142 0.0004725592253 0.00047100971499 0.00046947791762 
0.00046796260408 0.00046645875543 0.00046496322744 0.0004634738578 0.00046198572532 0.00046049632695 0.00045900242284 0.00045750019727 0.00045598642714 
0.00045445830514 0.00045291265069 0.00045134758945 0.00044976091162 0.00044815044427 0.00044651767139 0.00044486255163 0.00044318541123 0.00044148726778 
0.00043977138815 0.00043804102349 0.00043629905078 0.00043454918768 0.00043279534974 0.00043104122423 0.00042929013743 0.00042754540059 0.00051232071372 
0.00050996154756 0.00050765059437 0.00050538778679 0.00050317216176 0.00050100366407 0.00049888103593 0.0004968035657 0.0004947710933 0.00049278205181 
0.00049083534146 0.0004889300724 0.00048706743334 0.00048524338014 0.00048345841776 0.00048171095244 0.00047999944141 0.0004783216742 0.00047667532172 
0.00047505896442 0.00047346920648 0.00047190381729 0.00047035944149 0.00046883285892 0.00046732219789 0.00046582303521 0.00046433225927 0.00046284695914 
0.00046136289892 0.00045987726632 0.00045838640752 0.0004568864376 0.00045537462095 0.00045384773282 0.00045230254808 0.00045073728047 0.00044914927136 
0.00044753663151 0.00044590137373 0.00044424287973 0.00044256084191 0.00044085770381 0.00043913611544 0.00043739965266 0.00043565125973 0.00043389511487 
0.00043213512991 0.00043037490477 0.00042861848493 0.00042686817201 0.00051123270557 0.00050887716919 0.00050657028382 0.00050431181234 0.00050210070512 
0.00049993700745 0.00049781945634 0.00049574752197 0.00049372008648 0.00049173622666 0.000489794617 0.00048789571956 0.0004860392425 0.00048422085772 
0.00048244197921 0.00048070097083 0.00047899571288 0.00047732436971 0.00047568486024 0.00047407505372 0.00047249235335 0.00047093392645 0.00046939679205 
0.00046787707256 0.00046637314594 0.00046488065031 0.00046339707533 0.00046191782055 0.00046043976517 0.00045895966927 0.00045747376442 0.00045597833501 
0.00045447038646 0.00045294631409 0.00045140352845 0.00044983928423 0.00044825058544 0.00044663859615 0.00044500186299 0.00044333993205 0.00044165384591 
0.00043994626485 0.000438219889 0.00043647773374 0.00043472354807 0.00043296169837 0.0004311960295 0.00042943076847 0.00042766882826 0.00042591369167 
0.00050981185444 0.00050746233578 0.00050516181649 0.00050290964156 0.00050070546895 0.00049854853516 0.00049643827291 0.00049437325997 0.00049235264991 
0.0004903758093 0.00048844183222 0.00048655125881 0.00048470128063 0.00048289036921 0.00048111962968 0.0004793863307 0.00047768889643 0.00047602586661 
0.00047439471621 0.00047279335238 0.0004712190331 0.00046966954951 0.00046814138795 0.00046663043185 0.00046513476548 0.00046365132739 0.00046217590392 
0.00046070472369 0.00045923460647 0.00045776180446 0.00045628264383 0.00045479354445 0.00045329086622 0.00045177137884 0.00045023219632 0.00044867058783 
0.00044708364094 0.00044547243062 0.00044383450082 0.0004421704016 0.00044048160348 0.00043877014213 0.0004370390881 0.0004352918744 0.00043353243216 
0.00043176542111 0.00042999500358 0.00042822434713 0.00042645822246 0.00042469917882 0.00050809238885 0.00050575073321 0.00050345785098 0.00050121418041 
0.00049901853094 0.00049686998119 0.00049476811473 0.00049271171475 0.00049069991732 0.00048873129241 0.00048680636384 0.0004849249638 0.00048308361262 
0.0004812825551 0.00047952077909 0.00047779677912 0.00047610863246 0.00047445494624 0.00047283363025 0.00047124194029 0.00046967773585 0.00046813816386 
0.00046661922217 0.00046511927392 0.00046363432225 0.00046216053162 0.00046069458176 0.0004592333139 0.00045777242967 0.000456308401 0.00045483742363 
0.00045335610701 0.0004518601075 0.00045034659983 0.00044881193028 0.00044725362703 0.0004456705769 0.00044406020581 0.00044242259894 0.00044075712931 
0.00043906616038 0.00043735173641 0.00043561675924 0.00043386501416 0.00043210085827 0.00043032933723 0.00042855379931 0.00042677898482 0.00042500911308 
0.00042324739942 0.00050611500913 0.00050378279883 0.0005014997542 0.00049926561052 0.00049707982808 0.00049494136534 0.00049284913375 0.00049080287298 
0.00048880050295 0.00048684238127 0.00048492757294 0.00048305663588 0.00048122491125 0.0004794342978 0.00047768279632 0.00047596903451 0.00047429115034 
0.00047264779237 0.00047103701668 0.00046945598469 0.00046790287361 0.00046637423158 0.00046486648507 0.000463377506 0.00046190337088 0.0004604407084 
0.00045898584239 0.00045753505855 0.00045608467947 0.0004546305818 0.00045316886829 0.00045169603139 0.00045020802302 0.00044870133511 0.00044717320842 
0.00044561915518 0.00044403952767 0.00044243144261 0.00044079457422 0.00043912891894 0.00043743632976 0.00043571920355 0.00043398082389 0.00043222521527 
0.00043045737912 0.00042868121265 0.00042690163341 0.00042512348124 0.00042335057988 0.00042158716304 0.00050392737142 0.0005016056507 0.0004993338528 
0.00049711122724 0.00049493618443 0.0004928086811 0.00049072776404 0.00048869148103 0.00048670034868 0.00048475325357 0.00048284936032 0.00048098847724 
0.0004791683644 0.00047738863066 0.000475647985 0.00047394488543 0.00047227820969 0.00047064565036 0.00046904574582 0.00046747621746 0.00046593442034 
0.00046441732421 0.00046292076029 0.00046144379186 0.00045998150851 0.00045853022835 0.00045708683584 0.00045564727891 0.00045420768532 0.00045276420744 
0.00045131267194 0.00044984905077 0.00044836933197 0.00044687050591 0.00044534860471 0.00044379986904 0.00044222441949 0.00044061920299 0.00043898374063 
0.00043731815154 0.00043562457796 0.00043390560479 0.00043216445812 0.00043040597449 0.0004286343088 0.00042685478112 0.00042507230979 0.00042329148155 
0.00042151693961 0.00041975251567 0.00050158284391 0.00049927311437 0.00049701313335 0.00049480237175 0.00049263913154 0.00049052352509 0.00048845405364 
0.00048642940744 0.00048444962951 0.00048251369209 0.00048062155552 0.00047877171024 0.00047696232042 0.00047519360906 0.00047346424254 0.00047177179786 
0.00047011604067 0.00046849424735 0.00046690585038 0.00046534736358 0.00046381679076 0.00046231097608 0.00046082664861 0.00045936066936 0.00045790998706 
0.00045647061066 0.00045503880432 0.00045361070599 0.00045218215756 0.0004507492268 0.00044930768215 0.00044785398347 0.0004463828206 0.00044489131364 
0.00044337530517 0.00044183324984 0.00044026223011 0.00043866021617 0.0004370266598 0.00043536186873 0.00043366788821 0.00043194754265 0.00043020507733 
0.00042844363735 0.00042666922586 0.00042488722845 0.00042310276946 0.00042132051271 0.000419544949 0.00041778088113 0.00049913716965 0.00049684042481 
0.00049459310438 0.00049239421462 0.00049024367676 0.00048814026459 0.00048608212101 0.00048406921998 0.00048210161832 0.00048017693808 0.00047829486664 
0.00047645666641 0.00047465829402 0.00047289968652 0.00047118079523 0.00046949960671 0.00046785386712 0.00046624327124 0.00046466529854 0.00046311756238 
0.00046159786807 0.00046010360874 0.00045862922886 0.00045717472456 0.0004557351203 0.00045430664533 0.00045288571305 0.00045146871062 0.00045005049862 
0.00044862760587 0.00044719623502 0.00044575111708 0.00044428831392 0.00044280452627 0.00044129495558 0.00043975855661 0.00043819205195 0.00043659369899 
0.00043496226086 0.0004332989839 0.00043160530286 0.00042988431357 0.00042814050755 0.00042637765484 0.00042460135293 0.00042281797285 0.00042103232644 
0.0004192499623 0.00041747502319 0.00041571204494 0.00049664844234 0.00049436549952 0.0004921310474 0.00048994451297 0.00048780678438 0.00048571483486 
0.0004836686151 0.00048166756633 0.00047971092977 0.0004777977548 0.00047592566887 0.00047409766631 0.00047230892571 0.00047056029571 0.00046885120985 
0.00046717948755 0.000465543455 0.00046394269456 0.00046237419182 0.00046083596189 0.00045932648378 0.00045784159386 0.00045637761285 0.00045493271509 
0.00045350334083 0.00045208469067 0.00045067335142 0.0004492657573 0.00044785730627 0.00044644378777 0.00044502047833 0.00044358342599 0.0004421286753 
0.00044065049258 0.00043914773834 0.00043761676582 0.0004360546206 0.00043445962509 0.00043283072562 0.00043116903472 0.00042947619697 0.00042775587706 
0.00042601128265 0.00042424777945 0.00042247105135 0.00042068725234 0.00041890197211 0.00041712010806 0.000415347562 0.00041358726522 0.00049417567005 
0.0004919055146 0.00048968386054 0.00048751007178 0.00048538360177 0.00048330357888 0.00048126919693 0.00047927867835 0.00047733232747 0.0004754288233 
0.00047356747367 0.00047174731876 0.00046996758513 0.00046822747911 0.00046652654109 0.00046486300854 0.00046323552498 0.00046164229108 0.00046008185058 
0.00045855211606 0.00045705035001 0.00045557388241 0.00045411811025 0.00045268142184 0.00045126009164 0.00044984951141 0.00044844640987 0.00044704699714 
0.00044564576055 0.00044423939751 0.00044282324054 0.00044139267097 0.00043994417105 0.00043847175736 0.00043697417146 0.0004354475789 0.00043388922987 
0.00043229726355 0.00043067096536 0.0004290110599 0.00042732017668 0.00042560040348 0.00042385648384 0.00042209363477 0.00042031762738 0.00041853541325 
0.00041675176825 0.00041497250478 0.00041320313404 0.00041144715245 0.00049177365039 0.00048951588923 0.00048730671471 0.0004851442979 0.00048302952089 
0.00048096048559 0.00047893640752 0.0004769559182 0.00047501863369 0.00047312278934 0.00047126987367 0.00046945726364 0.0004676845513 0.00046595107303 
0.00046425662754 0.00046259916894 0.0004609777488 0.00045939068949 0.00045783629465 0.00045631224655 0.00045481654668 0.00045334581947 0.00045189573137 
0.00045046521625 0.00044904971928 0.00044764481672 0.0004462477044 0.00044485312584 0.00044345719638 0.00044205608601 0.00044064475046 0.00043921880634 
0.00043777331542 0.00043630609374 0.00043481225413 0.0004332888286 0.00043173360512 0.00043014431123 0.00042852031416 0.00042686309947 0.00042517380469 
0.00042345538763 0.00042171355683 0.00041995284855 0.00041817961247 0.00041639996826 0.00041462002908 0.00041284503182 0.00041108088547 0.00040933066772 
0.00048949413687 0.00048724820424 0.00048505002002 0.00048289857809 0.00048079440106 0.0004787354192 0.00047672001631 0.00047474787837 0.00047281820957 
0.00047092896531 0.00046908184698 0.00046727450066 0.00046550662743 0.00046377789341 0.00046208689109 0.00046043331004 0.00045881548741 0.000457232158 
0.00045568071246 0.00045416001201 0.00045266762532 0.00045119865961 0.0004497527307 0.00044832483569 0.00044691275298 0.00044551067765 0.00044411597687 
0.00044272403155 0.00044133060461 0.00043993185805 0.0004385226319 0.0004370987464 0.00043565491931 0.00043418952102 0.0004326973247 0.00043117573747 
0.00042962253152 0.00042803492732 0.000426413602 0.00042475817058 0.00042307129806 0.00042135560246 0.00041961694142 0.00041786035355 0.00041609139277 
0.00041431634642 0.00041254224071 0.00041077392598 0.00040901628484 0.00040727391793 0.00048738282748 0.00048514794079 0.00048295985425 0.00048081833462 
0.00047872362297 0.00047667253399 0.00047466448326 0.00047269859039 0.00047077339749 0.00046888955048 0.00046704628037 0.00046524152587 0.00046347609598 
0.00046174877564 0.0004600592645 0.00045840623892 0.00045678885802 0.0004552060354 0.00045365505872 0.00045213391636 0.00045064149332 0.00044917265633 
0.00044772598768 0.0004462985056 0.00044488502455 0.00044348271149 0.00044208679755 0.00044069458357 0.00043930020938 0.00043790017522 0.00043648971724 
0.00043506371812 0.00043362042308 0.00043215406955 0.00043066113263 0.00042913977557 0.0004275866732 0.00042600043874 0.00042438026757 0.00042272725234 
0.00042104321473 0.00041933169157 0.0004175978349 0.00041584701936 0.00041408430195 0.00041231652979 0.00041055004953 0.00040879021828 0.00040704177537 
0.00040530883547 0.00048548025047 0.0004832545686 0.00048107566997 0.00047894233868 0.0004768549631 0.00047481014698 0.00047280733838 0.00047084583384 
0.00046892364587 0.00046704171719 0.00046519937486 0.00046339495441 0.000461628698 0.00045989973816 0.00045820792412 0.00045655278576 0.00045493283617 
0.0004533467462 0.00045179265931 0.00045026826175 0.00044877155296 0.00044729911818 0.0004458484977 0.00044441581719 0.00044299807529 0.00044159105259 
0.00044019082339 0.00043879347486 0.00043739470083 0.00043599027634 0.00043457504218 0.00043314431944 0.00043169687595 0.00043022711052 0.00042873129865 
0.00042720754291 0.0004256532979 0.00042406637633 0.00042244741372 0.00042079661055 0.00041911630868 0.00041741043913 0.00041568279133 0.00041393909342 
0.00041218500496 0.00041042693151 0.00040867099756 0.00040692185779 0.00040518490917 0.00040346364564 0.00048381827098 0.00048160099009 0.00047942949224 
0.00047730297575 0.00047522044748 0.00047317966713 0.00047117966086 0.00046921960739 0.00046729865477 0.00046541588431 0.00046357170704 0.00046176403495 
0.00045999355582 0.00045825989022 0.00045656254125 0.0004549019698 0.00045327550839 0.00045168225304 0.00045012094665 0.00044858909106 0.00044708504474 
0.00044560398959 0.00044414510009 0.00044270397615 0.00044127737936 0.00043986191634 0.00043845271609 0.00043704661118 0.00043563920533 0.00043422554213 
0.0004328007736 0.00043136342335 0.00042990854366 0.00042843164069 0.00042692986457 0.00042540227484 0.00042384426487 0.00042225593583 0.00042063757702 
0.00041898946818 0.00041731359826 0.00041561385094 0.00041389393219 0.00041215992458 0.0004104170491 0.00040867095272 0.00040692776396 0.00040519234455 
0.00040346907496 0.00040176132956 0.00048242331851 0.00048021221984 0.00047804576578 0.00047592351633 0.00047384420948 0.00047180561991 0.00046980647966 
0.00046784498061 0.00046592188865 0.00046403614887 0.0004621860403 0.00046037181802 0.00045859393581 0.00045685225321 0.00045514655481 0.00045347552182 
0.00045183890504 0.00045023490177 0.00044866271992 0.00044711924866 0.00044560255504 0.00044410889761 0.00044263745637 0.00044118374502 0.00043974415611 
0.00043831512293 0.00043689251568 0.00043547312936 0.00043405237429 0.00043262598703 0.00043118912367 0.00042974009209 0.00042827375449 0.00042678716889 
0.0004252775259 0.00042374198401 0.00042217953966 0.00042058857465 0.00041896988122 0.00041732389717 0.000415653239 0.00041396066537 0.00041225067509 
0.0004105283398 0.00040879862539 0.00040706730741 0.00040533947115 0.00040361979428 0.00040191242477 0.00040022045651 0.00048131337715 0.00047910600286 
0.00047694311405 0.00047482267338 0.00047274378234 0.0004707048115 0.00046870334744 0.00046673913289 0.00046481069024 0.00046291771741 0.00046105932834 
0.00045923520549 0.00045744680139 0.00045569375728 0.00045397509363 0.00045229080788 0.00045063948234 0.00044902103406 0.00044743282884 0.00044587353757 
0.00044434043191 0.00044282975429 0.00044134135581 0.00043987058445 0.00043841294349 0.00043696612773 0.00043552591691 0.00043408866982 0.00043265042809 
0.00043120595506 0.00042975404104 0.00042828925469 0.00042680860209 0.00042530965906 0.00042378827784 0.00042224377773 0.00042067415297 0.00041907938594 
0.00041746005289 0.00041581660547 0.00041415104289 0.00041246715385 0.00041076863826 0.00040905976146 0.00040734579059 0.00040563163642 0.00040392146946 
0.00040222004418 0.00040053042409 0.00039885572998 0.00048049945648 0.00047829411769 0.00047613190556 0.000474010972 0.00047193085254 0.00046988897691 
0.00046788204674 0.00046591131784 0.00046397491262 0.0004620724712 0.00046020168719 0.00045836526973 0.00045656285916 0.00045479445151 0.00045305934725 
0.00045135796298 0.00044968856371 0.000448050811 0.00044644292127 0.00044486300425 0.0004433090371 0.00044177820389 0.00044026775651 0.00043877478708 
0.00043729559317 0.00043582608471 0.00043436373087 0.00043290473566 0.00043144490947 0.00042997958576 0.00042850795692 0.000427023948 0.00042552624142 
0.0004240105383 0.00042247522703 0.00042091944147 0.00041934222074 0.00041774226376 0.00041612164357 0.00041448060501 0.00041282157489 0.00041114681377 
0.00040946131044 0.00040776823693 0.00040607194477 0.00040437652767 0.00040268678806 0.00040100482948 0.00039933488695 0.00039767912028 0.00047998699017 
0.0004777813791 0.00047561758086 0.00047349446862 0.000471409737 0.00046936138516 0.00046734773617 0.00046536792558 0.00046341967264 0.00046150400754 
0.00045961971628 0.00045776788403 0.00045594745001 0.00045416031004 0.00045240523728 0.00045068250062 0.00044899146539 0.00044733073703 0.00044569944338 
0.00044409531372 0.00044251627416 0.00044096016515 0.00043942422102 0.00043790468477 0.00043639889366 0.00043490340669 0.00043341510127 0.00043193013263 
0.00043044396511 0.00042895516142 0.00042745985851 0.00042595383619 0.00042443476855 0.00042290052219 0.0004213500171 0.00041978125238 0.0004181944603 
0.00041658920747 0.0004149670676 0.00041332824786 0.00041167600892 0.00041001253747 0.00040834102625 0.00040666467308 0.00040498802258 0.00040331344405 
0.00040164429602 0.00039998389724 0.00039833501844 0.0003966994943 0.00047977563681 0.00047756846295 0.00047540075446 0.00047327234581 0.00047118006504 
0.00046912354578 0.00046709949731 0.00046510764478 0.00046314631056 0.00046121458586 0.00045931299822 0.00045744215674 0.00045560152986 0.00045379216895 
0.00045201367325 0.000450266509 0.00044855078491 0.00044686386949 0.00044520520746 0.00044357329 0.00044196531211 0.00044038000944 0.00043881393702 
0.00043726471231 0.00043572889542 0.00043420314257 0.00043268497625 0.00043117038175 0.00042965552649 0.00042813961124 0.00042661684398 0.00042508604873 
0.00042354443926 0.00042198997623 0.00042042163269 0.00041883901147 0.00041724200226 0.00041563048721 0.00041400669037 0.00041237113444 0.00041072611281 
0.0004090737449 0.00040741737519 0.00040575935974 0.00040410240058 0.00040244906343 0.00040080264721 0.00039916521927 0.00039753829624 0.00039592383027 
0.00047986155972 0.00047764975049 0.00047547578685 0.00047333931466 0.00047123774476 0.00046917010086 0.00046713350491 0.00046512692448 0.0004631493419 
0.00046119996382 0.00045927817728 0.00045738477124 0.00045552081027 0.0004536872115 0.00045188319885 0.00045010903193 0.00044836444876 0.00044664839796 
0.00044495963641 0.0004432964669 0.00044165639967 0.00044003833548 0.00043843977396 0.00043685694897 0.00043528735954 0.00043372813804 0.00043217678093 
0.00043062850484 0.00042908403825 0.00042753691814 0.00042598565238 0.000424428021 0.00042286199894 0.00042128552043 0.00041969893718 0.00041810116714 
0.00041649334048 0.00041487591042 0.00041325063348 0.00041161813634 0.00040998083099 0.00040833998654 0.00040669905739 0.00040505927997 0.00040342296317 
0.00040179201318 0.00040016869871 0.00039855377799 0.00039694921165 0.00039535578492 0.00048023433777 0.00047801540459 0.00047583321495 0.00047368647135 
0.00047157345864 0.00046949250793 0.00046744024189 0.00046541646559 0.00046342113823 0.00046145046764 0.00045950626105 0.00045758924733 0.00045570006896 
0.00045383951076 0.00045200730537 0.00045020367202 0.0004484289039 0.00044668056353 0.00044495847833 0.00044326151411 0.00044158703245 0.00043993370258 
0.00043829886417 0.00043668013297 0.00043507429501 0.00043347903909 0.00043189213248 0.00043030965609 0.00042873094679 0.00042715204875 0.00042557021017 
0.00042398397659 0.00042239223177 0.00042079341281 0.00041918788742 0.00041757517008 0.00041595669205 0.00041433301512 0.00041270636884 0.00041107708709 
0.00040944759355 0.00040781886286 0.00040619304909 0.00040457146426 0.00040295578651 0.0004013467504 0.00039974540185 0.00039815352044 0.00039657077807 
0.00039499832589 0.00048088054395 0.00047865263196 0.0004764604223 0.00047430140198 0.00047217452643 0.00047007754681 0.00046800841495 0.00046596565253 
0.00046394897359 0.00046195591982 0.00045998770552 0.00045804536429 0.00045612901224 0.00045423969826 0.00045237719283 0.00045054200455 0.00044873387456 
0.00044695224109 0.00044519558634 0.00044346215092 0.00044175158564 0.00044006079179 0.00043838821323 0.00043673136541 0.0004350875651 0.00043345434711 
0.00043182973557 0.00043021195504 0.00042859764041 0.00042698514113 0.00042537202517 0.00042375703576 0.00042213923109 0.00042051797158 0.00041889358991 
0.00041726624214 0.00041563712236 0.00041400766472 0.00041237957737 0.00041075394777 0.00040913180149 0.00040751476684 0.00040590403266 0.00040429987273 
0.00040270355754 0.00040111555221 0.0003995359994 0.00039796529515 0.00039640367516 0.00039485137542 0.00048178356343 0.00047954506237 0.00047733959459 
0.00047516701709 0.0004730244133 0.00047090998569 0.00046882197686 0.00046675857515 0.00046471872286 0.00046270159842 0.00046070823725 0.00045873871448 
0.00045679382056 0.00045487444302 0.00045298062397 0.00045111262167 0.00044927063313 0.00044745366998 0.00044566094508 0.00044389039509 0.00044214161652 
0.0004404123565 0.00043870095849 0.00043700484946 0.00043532190915 0.0004336512918 0.00043198728954 0.00043033227574 0.00042868252364 0.00042703611342 
0.00042539177741 0.00042374822472 0.00042210408756 0.00042046041034 0.00041881726706 0.00041717573777 0.00041553691668 0.00041390229319 0.00041227341973 
0.00041065079397 0.00040903564786 0.00040742944724 0.00040583237992 0.00040424503335 0.00040266711787 0.00040109870294 0.00039953915101 0.00039798824074 
0.00039644610729 0.00039491208666 0.00048292321395 0.00048067285322 0.00047845358784 0.00047626438755 0.00047410370005 0.00047197058433 0.00046986112898 
0.000467775719 0.00046571181446 0.00046366989808 0.0004616499025 0.00045965250815 0.00045767848401 0.00045572842248 0.00045380267436 0.0004519012106 
0.00045002443707 0.00044817168613 0.00044634184548 0.00044453349694 0.00044274609619 0.000440977423 0.000439226761 0.00043749136008 0.00043577008122 
0.00043405820583 0.00043235772716 0.00043066594472 0.00042898092443 0.00042730099224 0.00042562524305 0.00042395350676 0.0004222845911 0.00042061926226 
0.00041895872431 0.00041730340091 0.000415655104 0.00041401486473 0.00041238481223 0.00041076504423 0.0004091564926 0.00040756053881 0.00040597645504 
0.00040440404027 0.00040284302965 0.00040129186591 0.00039975030327 0.00039821736369 0.0003966925479 0.00039517507782 0.00048427593229 0.0004820103371 
0.0004797753873 0.00047756862191 0.00047538967646 0.00047323506904 0.00047110354181 0.0004689950458 0.00046690683901 0.00046483931242 0.0004627923879 
0.0004607669133 0.00045876348342 0.00045678290837 0.00045482509147 0.00045289040406 0.00045097896295 0.00044908992376 0.00044722282629 0.00044537654521 
0.00044355068921 0.00044174358437 0.00043995330575 0.00043817891468 0.00043641711739 0.00043466819595 0.00043293038131 0.00043120233444 0.00042948303282 
0.00042777118981 0.00042606556467 0.00042436653742 0.00042267393 0.00042098813615 0.00041931008042 0.00041764227246 0.000415985023 0.00041433959359 
0.00041270815523 0.00041109107969 0.00040948859451 0.00040790090573 0.00040632793266 0.00040476889395 0.00040322216929 0.00040168653494 0.00040016033598 
0.00039864310584 0.00039713317943 0.00039562977905 0.00048581130009 0.00048353125589 0.00048127911818 0.00047905440208 0.00047685462413 0.00047467866777 
0.00047252466126 0.0004703920163 0.00046827924954 0.00046618543058 0.00046411144453 0.00046205799825 0.00046002545532 0.00045801410609 0.00045602431413 
0.00045405637056 0.00045211067077 0.00045018671661 0.00044828311855 0.00044639971697 0.00044453644062 0.00044269119862 0.00044086270801 0.00043904978097 
0.00043724999093 0.00043546433226 0.00043369096956 0.00043192758352 0.0004301755769 0.00042843279325 0.0004266991931 0.00042497454721 0.00042325942026 
0.00042155445271 0.0004198609797 0.00041818085308 0.00041651515524 0.00041486531751 0.00041323230583 0.00041161690982 0.00041001897119 0.00040843828068 
0.00040687431521 0.0004053259164 0.00040379116623 0.00040226852632 0.00040075562208 0.00039925079751 0.0003977537119 0.00039626236502 0.00048750061298 
0.00048520403176 0.00048293451788 0.00048068984837 0.00047846929997 0.00047627116779 0.00047409436891 0.00047193764777 0.00046979962896 0.00046767995263 
0.00046557929292 0.00046349820852 0.00046143659945 0.00045939500411 0.00045737414637 0.00045537379334 0.00045339505848 0.0004514362891 0.00044949710706 
0.00044757858533 0.00044567892346 0.00044379757145 0.00044193235809 0.00044008158704 0.0004382469085 0.00043642591485 0.00043461827606 0.00043282333014 
0.00043103941249 0.00042926763401 0.00042750724972 0.00042575897779 0.00042402308065 0.00042230074782 0.00042059279583 0.00041890178642 0.00041722825779 
0.00041557313661 0.0004139383821 0.00041232350275 0.00041072915772 0.00040915367324 0.00040759702051 0.00040605687283 0.00040453167013 0.00040301878074 