# vtk DataFile Version 5.1
vtk output
ASCII
DATASET STRUCTURED_POINTS
DIMENSIONS 50 50 50
SPACING 0.002 0.002 0.002
ORIGIN 0.1742 -0.052672 0.02732
POINT_DATA 125000
FIELD FieldData 1
potential 1 125000 double
0.0019937383131 0.0020125676964 0.0020316913388 0.002051092351 0.002070775436 0.0020907419195 0.0021109966532 0.0021315463406 0.0021523116455 
0.0021733352903 0.0021947951247 0.002216572188 0.0022386664064 0.0022610912567 0.0022838126974 0.0023069101164 0.0023303484382 0.002354277078 
0.0023784790201 0.0024029827912 0.0024278537305 0.0024530956592 0.0024787116045 0.0025047119066 0.0025311014245 0.0025578907382 0.0025850859062 
0.0026126978022 0.0026407303363 0.0026691927641 0.0026980933188 0.0027274413046 0.0027572387853 0.0027875005329 0.002818227249 0.0028494371954 
0.0028811360155 0.0029133323398 0.002946044456 0.0029792725843 0.0030130445552 0.0030473687049 0.0030822641024 0.003117744317 0.0031538257497 
0.0031905238028 0.0032278550353 0.0032658336045 0.0033044728442 0.0033437922027 0.0019905994695 0.0020093459591 0.0020283815702 0.0020476919763 
0.0020672833298 0.0020871566184 0.0021073178806 0.0021277707506 0.0021485195873 0.002169363253 0.0021907203993 0.0022123946218 0.0022343867316 
0.002256699139 0.0022793093226 0.002302294933 0.0023256198089 0.0023492899592 0.0023735157453 0.0023978994129 0.0024226462319 0.0024477595341 
0.0024732483042 0.0024991165486 0.0025253718463 0.0025520233586 0.0025790782242 0.0026065440674 0.0026344281417 0.0026627392418 0.0026914841708 
0.0027206714255 0.0027503062977 0.0027803986171 0.0028109551243 0.0028419888195 0.0028735069172 0.0029055173593 0.0029380341731 0.0029710713552 
0.0030046393672 0.0030387556653 0.0030734374958 0.0031086935943 0.0031445460526 0.0031810067843 0.0032180923633 0.0032558198953 0.0032941986451 
0.0033332495663 0.0019865455758 0.0020052136159 0.0020241324745 0.0020433467686 0.0020628376834 0.0020826097497 0.0021026659455 0.0021230136992 
0.0021436575603 0.0021645211461 0.0021856404503 0.0022071993697 0.0022290756406 0.0022512690285 0.0022737592742 0.0022966190491 0.0023198204013 
0.0023433640248 0.002367463 0.0023917149304 0.0024163266072 0.0024413023191 0.0024666471486 0.0024923719887 0.0025184836644 0.0025449845553 
0.0025718855823 0.0025991940429 0.0026269184476 0.0026550624323 0.0026836380088 0.0027126533753 0.0027421112156 0.0027720217392 0.0028023898989 
0.0028332332506 0.0028645556296 0.0028963654702 0.0029286733084 0.002961500281 0.0029948514549 0.0030287433084 0.0030631922828 0.0030982137434 
0.0031338188203 0.0031700264243 0.0032068500482 0.0032443074086 0.0032824088906 0.0033211721897 0.001981465144 0.0020000323472 0.002018840979 
0.002037946801 0.0020573321724 0.002076993689 0.0020969361301 0.0021171649966 0.0021376920321 0.0021584401983 0.0021794362871 0.0022008700512 
0.0022226199286 0.0022446900729 0.0022670419236 0.0022897704484 0.0023128347994 0.0023362385424 0.0023601338109 0.0023843038651 0.0024087679446 
0.0024335944188 0.002458785993 0.0024843547552 0.002510305143 0.0025366435522 0.0025633772287 0.0025905133249 0.002618061917 0.0026460276772 
0.0026744187747 0.0027032439385 0.0027325111284 0.0027622253272 0.0027923943101 0.002823026981 0.0028541371054 0.002885728642 0.0029178125746 
0.0029504117285 0.0029835267886 0.0030171792425 0.0030513764247 0.0030861419721 0.0031214830818 0.0031574178156 0.0031939621301 0.0032311309125 
0.0032689346676 0.0033073922425 0.0019752857987 0.0019937411206 0.0020124335203 0.0020314215854 0.0020506841372 0.0020702268669 0.0020900451018 
0.0021101504575 0.0021305481881 0.0021512403138 0.0021721621735 0.0021933284588 0.0022149408651 0.0022368678472 0.0022591197521 0.0022816572833 
0.0023045723059 0.0023278246256 0.0023515657786 0.0023755799618 0.0023998827358 0.0024245451609 0.0024495685727 0.0024749665463 0.0025007440194 
0.0025269024423 0.0025534530375 0.0025804074784 0.0026077641991 0.0026355355764 0.0026637274227 0.0026923484571 0.0027214061553 0.0027509043647 
0.0027808570723 0.0028112663138 0.0028421444754 0.0028735013507 0.0029053437887 0.0029376930127 0.0029705572149 0.0030039453972 0.0030378755577 
0.0030723647722 0.0031074217347 0.0031430646854 0.0031793078494 0.0032161670121 0.0032536554668 0.0032917845924 0.00196796315 0.0019862913734 
0.0020048881024 0.002023719686 0.0020428515976 0.0020622584204 0.0020819448287 0.0021019128346 0.0021221699442 0.0021427209956 0.0021634973238 
0.0021845162565 0.002205980053 0.002227754154 0.0022498498442 0.0022722321248 0.0022949814386 0.0023180700393 0.0023414978796 0.0023654868552 
0.0023896163403 0.0024140999362 0.0024389405735 0.0024641525699 0.0024897384525 0.0025157064361 0.0025420591958 0.0025688091529 0.0025959603509 
0.002623522383 0.0026514991116 0.0026798990646 0.0027087314079 0.0027380011647 0.0027677158457 0.002797883041 0.0028285170788 0.0028596165399 
0.0028912009168 0.0029232820916 0.002955872386 0.0029889786 0.0030226182189 0.0030568113165 0.0030915640452 0.0031268938918 0.0031628162523 
0.0031993450367 0.0032364936062 0.0032742747765 0.001959476216 0.0019776715441 0.0019961308717 0.002014825054 0.002033816084 0.0020530788124 
0.0020726146991 0.0020924374448 0.0021125428045 0.0021329390255 0.002153629207 0.0021744202565 0.0021957186423 0.0022173298735 0.0022392572314 
0.0022614667594 0.0022840446387 0.0023069516964 0.0023301980059 0.0023539345998 0.0023779438468 0.0024022352463 0.0024268813398 0.0024518932436 
0.0024772761209 0.0025030352668 0.0025291748803 0.002555708512 0.0025826356605 0.0026099688296 0.0026377158164 0.0026658803313 0.0026944698376 
0.0027234911139 0.0027529518386 0.0027828582947 0.002813223065 0.0028440539188 0.0028753575793 0.0029071532666 0.0029394483455 0.0029722546827 
0.0030055864778 0.0030394623458 0.0030738904718 0.003108886549 0.0031444657998 0.0031806425234 0.0032174293672 0.0032548404279 0.0019498426752 
0.0019678965698 0.0019862065229 0.0020047500938 0.002023588864 0.0020426969596 0.0020620781078 0.0020817351355 0.0021016812883 0.0021219108171 
0.0021424341267 0.0021631895131 0.0021841793285 0.0022056104106 0.0022273566065 0.0022493830946 0.0022717736281 0.0022944922507 0.0023175393644 
0.0023410781857 0.0023648858209 0.0023889710724 0.002413407486 0.0024382045205 0.0024633680721 0.0024889029591 0.0025148158346 0.0025411149276 
0.0025678066475 0.0025948978568 0.0026223943961 0.0026503042485 0.0026786347027 0.0027073911907 0.0027365806835 0.0027662100727 0.0027962894544 
0.0028268280331 0.0028578373252 0.0028893268241 0.0029213086769 0.0029537956468 0.0029867981944 0.0030203367225 0.0030544172623 0.0030890587332 
0.0031242756626 0.0031600792216 0.0031964833961 0.0032335038098 0.0019391047716 0.0019570050735 0.0019751613648 0.0019935734298 0.0020122180452 
0.0020311613141 0.0020503748921 0.002069862849 0.0020896308566 0.0021096862103 0.0021300294481 0.0021506041246 0.0021714078979 0.0021926499695 
0.0022142026853 0.0022360303361 0.002258222088 0.0022807356403 0.0023035757547 0.0023269025866 0.0023504960239 0.0023743615436 0.0023985754305 
0.0024231428347 0.0024480723732 0.0024733680758 0.0024990400498 0.0025250918072 0.0025515309902 0.0025783636692 0.0026055979603 0.0026332379726 
0.0026612924379 0.0026897671055 0.0027186710687 0.0027480064674 0.0027777829081 0.0028080154253 0.0028387070289 0.0028698726693 0.0029015192631 
0.0029336646218 0.0029663234612 0.002999505165 0.0030332208712 0.003067488617 0.0031023215113 0.003137732305 0.0031737326797 0.0032103384618 
0.0019273352023 0.0019450724381 0.0019630634435 0.0019813065873 0.0019997795846 0.0020185483249 0.0020375852704 0.0020568921517 0.0020764759782 
0.0020963402565 0.0021164952202 0.0021369403455 0.0021576210476 0.0021785268242 0.0021998763814 0.0022215377331 0.0022434720535 0.0022657709407 
0.0022883969414 0.0023113467582 0.0023347858423 0.0023584955529 0.0023824727278 0.0024067997327 0.0024314809297 0.0024565261838 0.0024819422539 
0.0025077328181 0.0025339060833 0.0025604664789 0.0025874225505 0.0026147801944 0.0026425439285 0.0026707216616 0.0026993213246 0.0027283464965 
0.0027578074161 0.0027877144504 0.0028180736336 0.0028488979574 0.0028801965831 0.0029119835912 0.002944276175 0.0029770807622 0.0030104145729 
0.0030442913774 0.0030787219088 0.0031137195259 0.0031492995594 0.0031854708446 0.0019146341449 0.0019322007081 0.0019500172634 0.0019680874805 
0.0019864102387 0.0020049600508 0.0020238097677 0.0020429284073 0.0020623178506 0.0020819857576 0.0021019370787 0.0021221826531 0.0021426580859 
0.0021633554274 0.0021844900644 0.002205933774 0.0022276441546 0.0022497172363 0.0022721106896 0.0022948298767 0.0023180274381 0.0023414932756 
0.00236522259 0.0023892967932 0.0024137209779 0.0024385023408 0.0024636480669 0.002489167112 0.0025150611966 0.0025413373777 0.0025680023254 
0.0025950638991 0.0026225236665 0.0026503924288 0.0026786718681 0.0027073747172 0.0027365026581 0.0027660682533 0.0027960834415 0.002826549374 
0.0028574836178 0.0028888995007 0.0029208108695 0.0029532236193 0.0029861580311 0.0030196235751 0.0030536352625 0.0030882029753 0.0031233434874 
0.003159065871 0.0019011223756 0.0019185123122 0.0019361474269 0.0019540315931 0.0019721704925 0.0019905266461 0.0020091804984 0.0020281019197 
0.0020472902236 0.0020667535189 0.0020864969828 0.0021065265828 0.002126789853 0.0021474086327 0.0021681849331 0.0021894013574 0.0022108807125 
0.0022327172653 0.0022548709664 0.0022773451628 0.0023002972489 0.0023234279584 0.0023469776846 0.0023707878503 0.0023949431107 0.0024194524025 
0.0024443195279 0.0024695534123 0.0024951583497 0.0025211393986 0.0025475022658 0.0025742541634 0.0026014004392 0.0026289466019 0.0026568980941 
0.0026852640207 0.0027140469815 0.0027432606369 0.0027729129097 0.0028030113881 0.0028335678867 0.0028645960793 0.0028961096557 0.002928120696 
0.0029606407324 0.0029936827672 0.0030272600077 0.0030613840303 0.0030960690593 0.0031313268819 0.0018869420686 0.0019041488888 0.0019215974867 
0.0019392924575 0.0019572368191 0.0019754317649 0.0019938491313 0.0020125645922 0.0020315450106 0.0020507974482 0.0020703265171 0.0020901375077 
0.0021102356691 0.0021305719652 0.0021511215287 0.0021721034683 0.0021933442701 0.0022149378575 0.0022368430782 0.0022590652675 0.0022817603856 
0.0023046316832 0.0023279111714 0.00235145055 0.0023753309294 0.0023995568556 0.0024241374017 0.0024490773365 0.0024743831474 0.0025000607492 
0.0025261145242 0.002552547797 0.0025793687232 0.0026065823727 0.0026341958586 0.0026622139225 0.0026906431621 0.0027194938151 0.00274877391 
0.0027784894805 0.0028086573333 0.0028392898106 0.0028703960043 0.0029019885124 0.0029340862362 0.0029666930979 0.0029998266445 0.0030334935967 
0.0030677133203 0.0031024945369 0.001872251193 0.001889268867 0.0019065277488 0.0019240278831 0.0019417742535 0.0019597714603 0.0019779778832 
0.0019964846537 0.0020152527117 0.0020342886786 0.0020535986835 0.0020731870173 0.0020930560624 0.0021131647455 0.0021334775638 0.0021542220582 
0.002175263613 0.0021965625961 0.002218215652 0.0022401790602 0.0022624586364 0.0022852125589 0.0023082261439 0.0023314805769 0.002355075972 
0.0023790165687 0.0024033028048 0.0024279438205 0.002452944875 0.0024783111909 0.0025040459716 0.0025301552313 0.0025566435683 0.002583517923 
0.0026107850279 0.0026384485826 0.0026665170741 0.0026949933321 0.0027238943742 0.0027532225733 0.0027829916783 0.0028132165772 0.0028439093237 
0.0028750780231 0.0029067403486 0.0029389057464 0.0029715849391 0.0030047884675 0.0030385318275 0.003072827617 0.001857215687 0.0018740423751 
0.0018911078043 0.0019084102257 0.0019259556961 0.0019437487277 0.0019617500391 0.0019800390658 0.0019985934872 0.002017410861 0.0020364963756 
0.0020558578685 0.0020754977258 0.0020954203786 0.0021155840954 0.0021359456469 0.002156742722 0.0021777893532 0.0021991847291 0.0022208860419 
0.0022429001344 0.002265382514 0.0022880311072 0.0023110938777 0.0023343974424 0.0023580420383 0.002382029519 0.0024063701894 0.0024310587259 
0.0024561089062 0.0024815218673 0.0025073019736 0.0025334537133 0.0025599841277 0.0025868983429 0.0026142016095 0.0026419025981 0.0026700033496 
0.0026985164667 0.0027274546973 0.0027568228545 0.0027866351184 0.0028169050659 0.0028476455027 0.0028788642135 0.0029105836609 0.0029428016225 
0.0029755375154 0.0030087998658 0.0030426030123 0.0018420053561 0.0018586418051 0.0018755102386 0.0018926160683 0.0019099604316 0.0019275486152 
0.0019453797827 0.0019634194089 0.0019817517459 0.0020003492143 0.0020192103137 0.002038343281 0.0020577498806 0.0020774361926 0.0020973622402 
0.0021174791026 0.0021380240162 0.0021588172784 0.0021799557978 0.0022013929799 0.0022231378542 0.0022453464841 0.0022677169789 0.0022904945917 
0.0023135143831 0.0023368595761 0.0023605446482 0.002384575122 0.0024089555831 0.0024336842237 0.0024587727195 0.0024842201434 0.002510034995 
0.0025362190101 0.0025627765754 0.0025897178921 0.0026170484813 0.0026447704886 0.0026728962466 0.002701436577 0.0027304015143 0.0027598001595 
0.0027896482359 0.0028199535746 0.0028507317313 0.0028819964705 0.0029137520764 0.0029460147352 0.0029787987192 0.0030121059145 0.0018267926167 
0.0018432380216 0.0018599123823 0.0018768220837 0.0018939634241 0.0019113460335 0.0019289696046 0.0019467954651 0.001964911474 0.0019832876876 
0.0020019261906 0.0020208309679 0.0020400053042 0.0020594551999 0.0020791866172 0.002099155427 0.0021193121812 0.0021398497829 0.002160727705 
0.0021819037393 0.0022033801994 0.0022251610237 0.002247407094 0.0022698121137 0.0022926301905 0.0023156843815 0.002339064539 0.0023627877228 
0.002386850383 0.0024112614554 0.0024360263917 0.0024611410735 0.0024866157192 0.0025124531816 0.0025386586149 0.0025652368205 0.0025921972121 
0.0026195390446 0.0026472786527 0.0026754228482 0.002703982233 0.0027329699311 0.0027623940945 0.0027922676951 0.0028226022154 0.0028534143688 
0.0028847100359 0.0029165006995 0.0029488011713 0.0029816177988 0.0018117400033 0.0018279954536 0.001844478671 0.0018611886373 0.0018781358145 
0.001895314448 0.0019127315908 0.0019303913874 0.0019482543031 0.0019664064661 0.0019848226978 0.0020035019357 0.002022446486 0.0020416625446 
0.0020611536759 0.002080884225 0.0021007928438 0.0021211269082 0.0021416994571 0.0021626123062 0.0021838252328 0.0022053348408 0.0022273022772 
0.0022494264331 0.002271957119 0.0022947164215 0.0023178030156 0.0023412145688 0.0023649659287 0.0023890591211 0.0024134970201 0.0024382822715 
0.0024634209061 0.0024889146058 0.0025147676874 0.0025409863097 0.0025675801776 0.0025945465812 0.0026219012374 0.0026496534192 0.002677811896 
0.0027063853196 0.0027353914507 0.0027648354929 0.0027947332123 0.0028250947533 0.0028559345346 0.0028872549855 0.0029190756631 0.0029514038326 
0.0017969987235 0.0018130679184 0.0018293610887 0.0018458797984 0.0018626281123 0.0018796130296 0.0018968256301 0.0019142798405 0.0019319313276 
0.001949876245 0.001968067419 0.0019865240666 0.0020052422751 0.0020242283982 0.0020434836494 0.0020629755791 0.0020827848052 0.0021027283961 
0.0021230480452 0.0021437035795 0.0021646524974 0.0021858916821 0.0022075896591 0.0022294350429 0.0022516832704 0.0022741520019 0.0022969427315 
0.0023200583059 0.0023434979286 0.0023672773249 0.0023913936647 0.0024158532411 0.0024406555631 0.0024658084973 0.0024913159094 0.002517180417 
0.0025434123345 0.0025700093769 0.00259698387 0.0026243488836 0.0026521113817 0.0026802780898 0.002708869057 0.0027378912594 0.002767356591 
0.002797274198 0.0028276592423 0.0028585232095 0.0028898685402 0.0029217159547 0.0017827001474 0.0017985910571 0.0018147006849 0.0018310309358 
0.0018475906224 0.0018643806171 0.0018813964267 0.0018986483587 0.0019161406776 0.0019338295383 0.0019518136839 0.0019700470092 0.0019885436874 
0.0020073047837 0.0020263308044 0.0020456258085 0.0020651590515 0.0020848627903 0.0021049338231 0.0021253363344 0.0021460281641 0.0021670069018 
0.0021884330238 0.0022100092275 0.0022318850716 0.0022541657359 0.0022766641846 0.0022994854632 0.0023226258421 0.0023460929331 0.0023698929089 
0.0023940307008 0.0024185083482 0.0024433257043 0.0024684884726 0.0024940072713 0.0025198844369 0.0025461176388 0.0025727197167 0.0025997049808 
0.0026270780365 0.0026548494921 0.0026830334012 0.0027116407757 0.0027406801398 0.0027701638032 0.0028001041329 0.0028305131938 0.0028614008741 
0.0028927736403 0.0017689651199 0.0017846808126 0.0018006125434 0.0018167626637 0.0018331370116 0.0018497345355 0.0018665640167 0.0018836217364 
0.0019009144837 0.0019183995237 0.0019361773173 0.0019542005352 0.0019724825033 0.0019910222342 0.0020098250104 0.0020288918415 0.0020481953373 
0.0020678049182 0.0020874944825 0.0021076517716 0.0021280930566 0.0021488159956 0.0021698256078 0.0021912879756 0.0022128947501 0.0022348984211 
0.0022571152291 0.0022796457788 0.0023024930603 0.0023256635215 0.0023491511028 0.0023729742509 0.0023971294137 0.0024216228011 0.002446454753 
0.0024716332765 0.0024971584066 0.0025230375005 0.0025492801712 0.0025758923513 0.0026028859126 0.0026302712909 0.0026580579775 0.0026862589188 
0.0027148829543 0.0027439437718 0.0027734528217 0.0028034185209 0.0028338544217 0.0028647688924 0.0017558857907 0.0017714337495 0.0017871953882 
0.0018031727008 0.001819369005 0.0018357844887 0.0018524302384 0.001869300396 0.0018864021047 0.0019037404422 0.0019212691343 0.0019390931934 
0.0019571625619 0.0019754904052 0.0019940757468 0.0020129232768 0.0020320356212 0.0020513843632 0.0020708924592 0.0020907619267 0.0021109616267 
0.002131435705 0.0021521931579 0.0021733978037 0.0021947374572 0.002216376171 0.0022384177884 0.0022606681637 0.0022832305337 0.0023061055216 
0.0023292974701 0.0023528119449 0.0023766572206 0.0024008314745 0.0024253382831 0.0024501879215 0.0024753752456 0.0025009094661 0.0025267971194 
0.0025530517833 0.0025796760602 0.0026066865385 0.0026340862614 0.0026618942032 0.0026901162835 0.0027187642255 0.0027478520691 0.0027773908718 
0.0028073868183 0.0028378538432 0.0017435397962 0.0017589280166 0.0017745250686 0.0017903356188 0.0018063638203 0.0018226071635 0.0018390700333 
0.0018557650945 0.0018726837769 0.0018898348882 0.0019071713922 0.0019247984813 0.0019426748857 0.0019607951974 0.0019791727451 0.0019978069911 
0.0020167015897 0.0020358343077 0.00205526125 0.0020747594574 0.0020947220448 0.0021149589734 0.0021354726824 0.002156428722 0.0021775151951 
0.0021988927522 0.0022206652278 0.0022426458043 0.0022649311703 0.002287521909 0.0023104266638 0.002333649432 0.0023571877493 0.0023810557661 
0.0024052507514 0.00242977813 0.0024546403692 0.0024798416012 0.0025053899774 0.0025312912716 0.0025575604145 0.0025842041182 0.0026112308615 
0.0026386591546 0.0026664920376 0.0026947419901 0.0027234217838 0.002752542539 0.0027821165747 0.0028121500796 0.0017319852461 0.0017472185935 
0.0017626611441 0.0017783130108 0.0017941788386 0.0018102574809 0.0018265536674 0.0018430712026 0.0018598206891 0.0018767921264 0.0018939975901 
0.0019113865639 0.0019290707003 0.0019470031682 0.00196517727 0.001983608599 0.0020022950356 0.0020212431228 0.0020404282883 0.0020597088735 
0.0020794468817 0.0020994530481 0.0021197336195 0.0021402933266 0.0021612911128 0.0021824180533 0.0022038358074 0.0022256526289 0.0022476694382 
0.0022699902572 0.0022926157253 0.002315552972 0.0023388054718 0.0023623735382 0.0023862656871 0.0024104859979 0.0024350309365 0.0024599095324 
0.0024851314806 0.0025106952444 0.0025366188958 0.0025629102267 0.0025895791593 0.0026166345957 0.0026440943095 0.0026719652857 0.0027002513631 
0.002728971378 0.0027581345221 0.0027877489054 0.0017212590307 0.0017363481369 0.0017516430406 0.001767143749 0.0017828569486 0.0017987799522 
0.0018149148771 0.0018312698493 0.0018478535589 0.0018646562607 0.0018816858272 0.001898897466 0.0019164005753 0.001934147815 0.0019521383659 
0.0019703702473 0.0019888590773 0.0020076043229 0.0020265864733 0.0020458500578 0.0020651810038 0.0020849673461 0.0021050226311 0.0021253513826 
0.0021461171408 0.0021670019019 0.002188173902 0.0022097404211 0.0022314995846 0.002253557249 0.0022759193709 0.0022985818456 0.002321555891 
0.0023448413379 0.0023684382606 0.0023923600657 0.0024166055881 0.0024411728171 0.0024660755923 0.0024913175393 0.002516912333 0.0025428631504 
0.0025691869153 0.0025958914935 0.0026229889593 0.0026504887121 0.0026784022401 0.0027067345209 0.0027355045115 0.0027647186185 0.0017113862381 
0.0017263393911 0.0017414945131 0.001756855585 0.0017724222534 0.0017881975226 0.0018041831634 0.0018203832242 0.0018368008397 0.0018534496379 
0.0018703174993 0.00188741579 0.0019046909302 0.0019222605574 0.001940071468 0.0019581191447 0.0019764222041 0.0019949741021 0.0020137810586 
0.0020328255383 0.0020519502398 0.0020715281766 0.0020913699851 0.0021114783212 0.0021320184777 0.0021526755579 0.0021736148648 0.002194836187 
0.0022164547005 0.0022382602817 0.0022603629544 0.0022827657104 0.0023054717904 0.0023284834637 0.0023518082373 0.0023754398105 0.0023993932593 
0.0024236639864 0.0024482640738 0.0024731926595 0.0024984700063 0.0025241014882 0.002550094108 0.0025764594779 0.0026032130937 0.0026303603718 
0.0026579095683 0.0026858748977 0.0027142651635 0.0027430939001 0.001702380765 0.0017172070699 0.0017322308536 0.0017474593486 0.0017628888738 
0.0017785242997 0.0017943676731 0.0018104221648 0.0018266924089 0.0018431892671 0.0018599003789 0.0018768406023 0.0018939539372 0.0019113568349 
0.0019289957665 0.0019468759609 0.0019649967904 0.0019833664524 0.0020019867404 0.0020208434896 0.0020399167577 0.0020591514382 0.0020787886313 
0.0020986869676 0.0021188535614 0.0021394530342 0.0021601673752 0.0021811602386 0.0022025456863 0.0022241121409 0.0022459692264 0.0022681227118 
0.0022905723835 0.0023133263883 0.0023363815128 0.0023597447935 0.00238341867 0.0024074010657 0.0024317091839 0.0024563460921 0.0024813179374 
0.0025066369298 0.0025323148964 0.0025583593781 0.0025847825984 0.0026115879242 0.002638794734 0.0026664106137 0.0026944411034 0.0027229012683 
0.0016942441487 0.0017089511657 0.001723852314 0.0017389545346 0.0017542576353 0.0017697619656 0.0017854717462 0.001801391162 0.0018175210656 
0.0018338663964 0.0018504402481 0.0018672281439 0.0018842445475 0.0019014347919 0.0019189144226 0.0019366304755 0.001954587402 0.0019727802911 
0.001991225446 0.0020099168601 0.0020287901469 0.0020478356874 0.0020672810725 0.0020869806533 0.0021069436878 0.002127334148 0.002147835542 
0.0021686098727 0.0021897738648 0.0022111126989 0.0022327376572 0.0022546528135 0.002276861499 0.0022993630053 0.0023221653434 0.0023452674051 
0.002368674872 0.0023923895643 0.0024164192041 0.0024407718628 0.0024654540035 0.0024904772737 0.0025158527926 0.0025415892968 0.0025676966387 
0.0025941826202 0.0026210620732 0.0026483394886 0.0026760296419 0.0027041386313 0.0016869657429 0.00170156123 0.0017163496278 0.0017313361556 
0.0017465181192 0.0017619018416 0.0017774853807 0.0017932756545 0.0018092757678 0.0018254864684 0.0018419130885 0.0018585697625 0.0018754419013 
0.0018924835863 0.0019098133125 0.00192737446 0.0019451750511 0.0019632110189 0.0019814809469 0.0020000034588 0.0020187600123 0.0020377172544 
0.0020568311536 0.0020763455945 0.0020961157489 0.0021163080267 0.0021366065689 0.0021571737375 0.0021780203843 0.0021992521566 0.0022206558638 
0.0022423428471 0.0022643203586 0.0022865852211 0.0023091461208 0.0023320005343 0.002355154958 0.0023786110671 0.0024023797251 0.0024264604667 
0.0024508677039 0.0024756100576 0.0025006963086 0.0025261382595 0.0025519468261 0.002578128932 0.0026046909367 0.0026316541573 0.002659017275 
0.0026867941403 0.0016805294215 0.0016950210642 0.0017097049078 0.0017245824268 0.0017396537691 0.0017549232165 0.0017703904312 0.001786059896 
0.0018019368553 0.0018180221579 0.0018343200673 0.0018508454113 0.0018675816775 0.0018845436825 0.0019016702993 0.0019190855232 0.0019367354095 
0.0019546212186 0.0019727426895 0.0019910962535 0.0020096985873 0.0020284781955 0.0020474216337 0.0020667569299 0.0020863441901 0.0021061879227 
0.002126457831 0.0021468309447 0.002167473899 0.00218850022 0.0022096954462 0.0022311684024 0.0022529254788 0.0022749668844 0.0022972981938 
0.0023199191553 0.0023428337687 0.0023660452247 0.0023895619264 0.002413390268 0.0024375350605 0.0024620078533 0.0024868222942 0.0025119845257 
0.0025375067894 0.0025633976997 0.0025896656318 0.0026163233879 0.0026433787305 0.0026708411304 0.0016749080819 0.0016893036491 0.0017038881504 
0.0017186651148 0.0017336330373 0.0017487959159 0.0017641552112 0.0017797146004 0.0017954736221 0.0018114412178 0.0018276188726 0.0018440105278 
0.0018606297041 0.0018774618213 0.001894454585 0.0019117329823 0.0019292419147 0.0019469838198 0.0019649581386 0.0019831680923 0.0020016062571 
0.0020202308527 0.0020391562003 0.0020581798531 0.0020775942843 0.0020972645507 0.002117350313 0.0021375388994 0.0021579926126 0.0021787148751 
0.002199822475 0.0022210935191 0.0022426405897 0.0022644699853 0.0022865827044 0.0023089801289 0.0023316688206 0.0023546495598 0.0023779304007 
0.0024015150145 0.0024254139432 0.0024496309108 0.0024741853524 0.0024990845917 0.0025243383276 0.0025499543193 0.0025759406817 0.0026023103078 
0.0026290732052 0.0026562348616 0.001670065031 0.0016843713337 0.0016988643162 0.0017135455798 0.0017284164386 0.0017434803815 0.001758736998 
0.0017741910301 0.0017898448775 0.0018057024263 0.0018217664105 0.0018380415619 0.0018545325086 0.0018712527862 0.0018881828011 0.0019052706634 
0.0019226478129 0.0019402529463 0.0019580880309 0.0019761556333 0.00199445378 0.0020129790665 0.0020316940138 0.0020507082839 0.0020698171317 
0.0020893184023 0.0021092368246 0.0021292507826 0.0021495259461 0.0021700656491 0.0021908715325 0.0022120625296 0.0022334140344 0.0022550414336 
0.0022769493814 0.0022991365388 0.0023216082547 0.0023443681637 0.0023674241187 0.0023907799031 0.0024144436652 0.0024384254795 0.00246273826 
0.0024873848054 0.0025123846079 0.0025377401763 0.0025634612496 0.0025895591354 0.0026160430997 0.0026429194066 0.0016659474873 0.0016801701771 
0.001694576542 0.0017091692395 0.0017239504851 0.0017389206778 0.0017540802694 0.0017694380419 0.0017849920438 0.0018007468892 0.0018167059827 
0.0018328737511 0.0018492530378 0.0018658605796 0.0018826738304 0.0018996419743 0.0019168952866 0.001934371518 0.0019520740356 0.0019700068062 
0.0019881668193 0.0020065601165 0.0020251224515 0.0020439856306 0.0020629444927 0.0020822881254 0.0021018823573 0.0021218961628 0.0021420043737 
0.002162372623 0.0021830012551 0.0022040099393 0.0022251770605 0.0022466128096 0.0022683231892 0.0022903128563 0.0023125811338 0.0023351301162 
0.0023579736485 0.0023811145294 0.0024045589735 0.0024283131776 0.0024523946426 0.0024768122997 0.0025015677499 0.002526678226 0.0025521476397 
0.0025779894652 0.0026042085638 0.0026308126255 0.0016624886608 0.0016766332901 0.0016909588154 0.0017054695806 0.0017201661105 0.001735050153 
0.0017501209141 0.001765385961 0.0017808474762 0.0017965053434 0.0018123651674 0.0018284323558 0.001844708985 0.0018611970337 0.0018779105236 
0.0018948289849 0.0019119010397 0.0019292592114 0.0019468374726 0.0019646420674 0.0019826735251 0.0020009331421 0.0020193614549 0.0020380811179 
0.0020570419012 0.0020760937388 0.0020955377836 0.002115393188 0.0021353429291 0.0021555474447 0.0021760110055 0.0021967338778 0.002217838879 
0.0022390946212 0.0022606208874 0.0022824205525 0.0023044953947 0.0023268508454 0.0023494922308 0.0023724275575 0.0023956633592 0.0024192078117 
0.0024430675236 0.0024672609979 0.0024917926657 0.002516669382 0.0025419019913 0.0025674964468 0.002593466911 0.0026198152048 0.0016596105241 
0.0016736814643 0.0016879323826 0.0017023647677 0.0017169815106 0.001731782913 0.0017467716597 0.0017619500544 0.001777321964 0.0017928898145 
0.0018086577892 0.0018246294699 0.0018408066638 0.0018571939598 0.0018738032774 0.0018906146384 0.0019075763497 0.0019248195205 0.001942281245 
0.0019599656816 0.0019778735114 0.0019960061962 0.0020143639974 0.0020328945034 0.0020517179901 0.0020706311776 0.0020899317928 0.0021094790558 
0.0021294395374 0.0021494898278 0.002169793906 0.0021903553191 0.0022112930221 0.0022323794735 0.0022537306742 0.0022753515378 0.0022972452505 
0.0023194117352 0.0023418629406 0.0023646031456 0.0023876419266 0.0024109832915 0.0024346391978 0.0024586205195 0.0024829382769 0.0025075939093 
0.0025325998973 0.0025579643829 0.0025836963071 0.0026098013057 0.0016572141992 0.0016712156975 0.0016853958553 0.0016997563122 0.001714296406 
0.0017290213936 0.0017439301018 0.0017590274358 0.0017743142782 0.0017897965143 0.0018054747632 0.0018213550277 0.0018374386745 0.0018537290297 
0.0018702291654 0.0018869516307 0.001903872604 0.0019209423017 0.0019382939064 0.0019558642507 0.0019736551005 0.0019916667264 0.0020099019168 
0.0020283053296 0.0020469996658 0.002065926068 0.0020849463436 0.0021043513675 0.0021241676797 0.002144071275 0.0021642260768 0.0021846324043 
0.0022052934944 0.0022263359083 0.002247521902 0.0022689709654 0.0022906913057 0.0023126841173 0.0023349544437 0.0023575091027 0.0023803577934 
0.0024035066801 0.0024269667718 0.002450746221 0.0024748584846 0.0024993066835 0.0025240979789 0.002549241382 0.0025747440986 0.0026006190108 
0.0016551891545 0.0016691243025 0.0016832360078 0.0016975252633 0.001711995161 0.0017266456414 0.001741479263 0.0017564976266 0.0017717044566 
0.0017871015883 0.0018026957664 0.0018184892427 0.0018344825623 0.0018506814083 0.0018670857688 0.001883697129 0.0019005322776 0.0019175655268 
0.0019347415268 0.0019522028119 0.0019698814044 0.0019877787961 0.0020058958723 0.0020241778648 0.0020427444642 0.0020615481444 0.002080437732 
0.0020997092538 0.0021193875955 0.0021391491263 0.0021591585106 0.0021794174494 0.0021999272171 0.0022208133713 0.0022418391231 0.002263128538 
0.0022846827829 0.0023065067268 0.0023286030228 0.0023509820375 0.0023736509276 0.0023966148934 0.0024198891853 0.0024434738597 0.0024673868861 
0.0024916343185 0.0025162240368 0.0025411564524 0.0025664430075 0.0025920911185 0.0016534089798 0.0016672790698 0.0016813241055 0.0016955461009 