# vtk DataFile Version 5.1
vtk output
ASCII
DATASET STRUCTURED_POINTS
DIMENSIONS 50 50 50
SPACING 0.002 0.002 0.002
ORIGIN 0.1742 -0.052672 0.02732
POINT_DATA 125000
FIELD FieldData 1
potential 1 125000 double
0.0014766857195 0.0014636036063 0.0014507085737 0.001437983201 0.0014254166653 0.0014130172981 0.0014007268792 0.0013886334909 0.0013766900238 
0.0013648922945 0.0013532381315 0.0013417241653 0.0013303742654 0.0013191337604 0.0013080259448 0.001297075582 0.001286211421 0.0012754870987 
0.00126488657 0.0012544059191 0.0012440431131 0.0012337928357 0.001223653407 0.0012136094323 0.0012036832145 0.0011938604518 0.0011841387271 
0.0011745170119 0.0011649922476 0.0011555639943 0.0011462302055 0.0011369911142 0.0011278469164 0.0011187925881 0.0011098302212 0.0011009612525 
0.0010921852899 0.0010835048659 0.0010749220428 0.0010664171275 0.0010580376081 0.001049765461 0.0010416053361 0.0010335613125 0.0010256379726 
0.0010178390015 0.0010101670085 0.0010026253424 0.00099521203308 0.00098792841361 0.0014737873366 0.0014607784076 0.0014479369068 0.0014352581484 
0.0014227507929 0.001410398859 0.0013981569553 0.0013861119003 0.0013742158367 0.0013624649707 0.001350856593 0.0013393889082 0.0013280833161 
0.0013168874404 0.0013058234817 0.0012949117971 0.0012840966786 0.0012734163659 0.0012628579399 0.0012524194787 0.001242097888 0.0012318900124 
0.0012217928923 0.0012117914298 0.0012019079022 0.00119212843 0.0011824505148 0.0011728720439 0.0011633925399 0.0011540096476 0.0011447224367 
0.001135532906 0.0011264346819 0.0011174297098 0.001108518572 0.0010997003017 0.0010909779347 0.0010823511844 0.0010738219815 0.0010653725414 
0.0010570475914 0.0010488300774 0.0010407237014 0.0010327319161 0.0010248596885 0.001017109194 0.0010094843494 0.0010019852324 0.00099461206255 
0.00098736526039 0.0014702336845 0.0014572833435 0.001444498387 0.0014318830126 0.0014194335495 0.001407093416 0.0013949516947 0.0013829608479 
0.0013711184053 0.0013594199091 0.0013478647157 0.0013364478234 0.0013251923847 0.001314045998 0.0013030264622 0.0012921569645 0.0012814006723 
0.0012707684347 0.0012602579202 0.0012498673442 0.0012395925356 0.001229431547 0.0012193805176 0.0012094266513 0.0011995911177 0.0011898592227 
0.0011802289667 0.0011706987927 0.0011612683837 0.0011519346252 0.0011427000355 0.001133559269 0.001124513138 0.0011155612977 0.0011067024515 
0.0010979403761 0.0010892739364 0.0010807036389 0.0010722311446 0.0010638401304 0.0010555726609 0.0010474122961 0.0010393622847 0.0010314264648 
0.0010236075212 0.0010159095655 0.0010083323393 0.001000878799 0.00099354899804 0.00098634201522 0.001465928238 0.0014530440242 0.0014403296609 
0.0014277842012 0.0014153943897 0.0014031192066 0.0013910386991 0.0013791085556 0.0013673260991 0.001355686739 0.0013441884911 0.0013328280516 
0.0013216295356 0.0013105393904 0.0012995993598 0.0012887604189 0.0012780576895 0.0012674789826 0.001257021971 0.0012466832916 0.0012364612087 
0.0012263529496 0.0012163543206 0.001206452869 0.0011966697838 0.0011869902114 0.0011774125181 0.0011679350921 0.0011585575686 0.0011492771348 
0.0011400979234 0.0011310121795 0.0011220223388 0.0011131278057 0.0011043266386 0.0010956230602 0.0010870156437 0.0010785046977 0.0010700716597 
0.0010617627766 0.0010535565582 0.0010454565332 0.0010374651434 0.0010295875205 0.0010218260891 0.001014181363 0.0010066564143 0.0009992523809 
0.00099196914223 0.00098480569225 0.0014608159157 0.0014480112261 0.0014353724696 0.0014228988115 0.0014105374786 0.0013983751324 0.0013863640811 
0.0013745021223 0.0013627872395 0.0013512131695 0.0013397798005 0.001328483628 0.0013173476187 0.0013063136947 0.0012954388327 0.0012846608898 
0.0012740182547 0.0012634989649 0.0012531008415 0.0012428215417 0.0012326577628 0.001222607019 0.0012126658179 0.0012028220393 0.0011930973534 
0.0011834752743 0.0011739551355 0.0011645366172 0.0011552168777 0.0011459986 0.0011368752166 0.0011278489773 0.0011189194494 0.0011100845151 
0.0011013464806 0.0010927052944 0.001084160788 0.0010757136352 0.0010673441938 0.0010590991089 0.0010509565354 0.001042919424 0.0010349920081 
0.0010271754025 0.0010194725767 0.0010118855804 0.0010044159615 0.00099706484593 0.00098983213733 0.00098271606454 0.0014548663362 0.0014421461392 
0.0014295940993 0.001417196186 0.0014049144233 0.0013928293143 0.0013808956587 0.0013691086005 0.0013574677978 0.0013459664595 0.0013346039418 
0.0013233785616 0.0013123071862 0.0013013691992 0.0012905298128 0.0012798282654 0.001269252575 0.0012588001731 0.0012484668116 0.0012382520414 
0.0012281529489 0.0012181651477 0.0012082873644 0.0011985070877 0.0011888447791 0.0011792856186 0.0011698283567 0.0011604728902 0.0011512188356 
0.0011420618947 0.0011330024592 0.0011240404722 0.0011151754516 0.0011064071239 0.0010977348071 0.0010891600751 0.0010806827109 0.0010723021323 
0.0010640002294 0.0010558220307 0.0010477468204 0.001039777139 0.0010319139518 0.0010241618992 0.0010165220213 0.0010089959416 0.0010015854961 
0.00099429106977 0.00098711242839 0.00098004804789 0.0014480667417 0.0014354415453 0.0014229741164 0.0014106659983 0.0013984716014 0.0013864718341 
0.0013746206631 0.0013629165107 0.0013513563922 0.0013399349898 0.0013286506271 0.0013175032928 0.0013065066058 0.0012956440808 0.0012848797373 
0.0012742515983 0.0012637488429 0.0012533685944 0.0012431065422 0.0012329625819 0.001222932978 0.001213015176 0.0012032069951 0.0011934957795 
0.0011839028098 0.0011744122541 0.0011650231338 0.0011557384616 0.001146550122 0.0011374610778 0.0011284709941 0.0011195783327 0.0011107820432 
0.0011020835594 0.0010934812524 0.001084976621 0.0010765692386 0.0010682384861 0.0010600290733 0.0010519222082 0.0010439181246 0.001036017166 
0.0010282233402 0.0010205392645 0.0010129656881 0.0010055041826 0.00099815619842 0.00099092208697 0.0009838012642 0.00097679702637 0.0014404256585 
0.0014278993082 0.0014155290923 0.0014032743741 0.0013912159077 0.0013793091287 0.0013675496664 0.0013559346546 0.0013444624907 0.0013331288298 
0.0013219304914 0.001310861191 0.001299951943 0.0012891618041 0.0012784876482 0.0012679395477 0.0012575160112 0.0012472132529 0.0012370284325 
0.0012269611463 0.0012170074075 0.0012071657976 0.0011974328642 0.0011877967119 0.0011782770754 0.001168860119 0.0011595441106 0.0011503329559 
0.0011412180185 0.0011322027313 0.0011232858591 0.0011144654857 0.0011057434377 0.001097118801 0.0010885905567 0.0010801605189 0.0010718272003 
0.0010635706592 0.0010554365073 0.0010474047233 0.0010394733191 0.0010316456691 0.0010239238956 0.001016310628 0.0010088062538 0.0010014128013 
0.00099413098763 0.00098696063824 0.00097990624207 0.00097295649771 0.0014319794466 0.001419555442 0.0014072896887 0.0013951383632 0.0013831810199 
0.0013713738641 0.0013597126086 0.0013481950014 0.0013368171425 0.0013255764907 0.0013144647038 0.0013034916532 0.0012926916709 0.0012819691932 
0.0012713819917 0.0012609206707 0.0012505812456 0.0012403621905 0.0012302604823 0.0012202753806 0.0012104035673 0.0012006427579 0.0011909906654 
0.0011814341604 0.001171993364 0.0011626540575 0.0011534211907 0.001144284989 0.0011352480619 0.0011263105457 0.001117470767 0.0011087287565 
0.001100084673 0.0010915374106 0.0010830876923 0.001074735141 0.001066458038 0.0010583021525 0.0010502466571 0.0010422905981 0.0010344352754 
0.0010266837542 0.0010190377942 0.0010114981616 0.0010040664387 0.00099674430478 0.000989531764 0.0009824335502 0.00097543904113 0.00096855129823 
0.0014227733703 0.0014104625298 0.0013983084169 0.001386266982 0.0013744182557 0.0013627172267 0.0013511611919 0.0013397461725 0.0013284690631 
0.0013173274447 0.0013063145377 0.0012954600902 0.0012847317847 0.0012741029408 0.0012636095452 0.0012532390074 0.0012429896207 0.0012328602412 
0.0012228470283 0.0012129492304 0.0012031639147 0.0011934897138 0.001183923578 0.0011744518888 0.001165093411 0.0011558421884 0.0011466892063 
0.0011376355305 0.0011286813181 0.0011198257756 0.0011110677217 0.0011024077039 0.0010938448663 0.0010853790947 0.0010770107582 0.0010687395748 
0.0010605441056 0.001052470355 0.0010444945632 0.0010366180779 0.0010288428141 0.0010211700942 0.0010136016549 0.0010061388103 0.00099878250145 
0.00099153452337 0.00098439912801 0.00097736564136 0.00097043938301 0.00096361705184 0.0014128856224 0.0014006937116 0.0013886159036 0.0013767313194 
0.0013649966908 0.0013534072708 0.0013419610504 0.0013306545051 0.0013194845995 0.0013084423355 0.0012975378632 0.0012867857842 0.0012761495505 
0.001265629007 0.0012552328729 0.0012449589617 0.0012348048162 0.0012247687355 0.0012148497728 0.0012050439622 0.001195350448 0.0011857666701 
0.0011762791254 0.0011669077261 0.0011576415447 0.0011484747209 0.0011394081197 0.0011304417851 0.0011215737637 0.0011128035893 0.0011041312398 
0.0010955568138 0.001087078653 0.0010786977572 0.0010704130105 0.0010622050093 0.0010541165842 0.001046125273 0.0010382331391 0.0010304387065 
0.0010227457515 0.0010151547375 0.0010076665667 0.001000282706 0.00099300417609 0.00098583719736 0.00097877078085 0.00097180973518 0.00096495360003 
0.0009582000055 0.0014024044544 0.0013903367049 0.0013783825767 0.0013666180073 0.0013550021828 0.001343530307 0.0013321987549 0.0013210060761 
0.0013099419154 0.0012990153263 0.0012882194544 0.0012775916615 0.0012670421762 0.0012566259169 0.0012463323627 0.0012361594781 0.001226104311 
0.0012161669036 0.0012063450772 0.0011966354934 0.0011870379655 0.0011775484112 0.0011681550176 0.0011588776338 0.0011497011744 0.0011406258131 
0.0011316503851 0.0011227738956 0.0011139954035 0.0011053146168 0.0010967306706 0.0010882440258 0.0010798538333 0.001071560044 0.0010633639051 
0.0010552413306 0.0010472391351 0.0010393339315 0.0010315266878 0.0010238175627 0.001016208439 0.0010087002681 0.001001294133 0.00099399116037 
0.0009867974883 0.00097970307568 0.0009727124909 0.00096582601187 0.00095904158661 0.00095235879326 0.0013914334598 0.0013794546221 0.001367667963 
0.0013560296448 0.0013445361305 0.0013331852295 0.0013219737885 0.0013108917354 0.0012999485417 0.0012891363347 0.0012784530473 0.0012679263956 
0.0012574948468 0.0012471862181 0.0012369988013 0.0012269294725 0.0012169788252 0.0012071429336 0.0011974212776 0.0011878120244 0.0011783129021 
0.0011689212096 0.0011596226978 0.0011504429588 0.0011413618248 0.0011323802469 0.001123498313 0.0011147142589 0.001106028009 0.0010974388818 
0.0010889462704 0.0010805499255 0.0010722491039 0.0010640455117 0.0010559374352 0.0010479033436 0.001039989164 0.0010321715094 0.0010244508549 
0.0010168276611 0.0010093037822 0.0010018802221 0.00099455735048 0.00098734163828 0.00098022345067 0.00097320820134 0.00096629544575 0.00095948423972 
0.00095277377177 0.00094616242739 0.0013800890114 0.001368243338 0.0013565865674 0.0013450763734 0.0013337089715 0.0013224827299 0.0013113934143 
0.0013004319775 0.0012896073554 0.0012789118161 0.0012683604111 0.0012579309361 0.001247610669 0.0012374125325 0.0012273338608 0.0012173720733 
0.0012075272087 0.0011977951023 0.0011881777754 0.0011786701425 0.0011692716175 0.001159978601 0.0011507840992 0.0011416983589 0.0011327143365 
0.001123829579 0.0011150433108 0.0011063543578 0.0010977621196 0.0010892661982 0.0010808659039 0.0010725626742 0.001064352905 0.0010562388472 
0.0010481984421 0.0010402765331 0.0010324512475 0.001024721748 0.0010170887399 0.0010095525358 0.0010021146818 0.00099477605307 0.00098754303686 
0.00098040445586 0.00097336716354 0.00096643164085 0.00095959707212 0.00095286210828 0.00094622509249 0.00093968634321 0.0013684532925 0.001356782101 
0.0013452580445 0.0013338775896 0.0013226388774 0.0013115392803 0.0013005682615 0.0012897340799 0.0012790319275 0.0012684553311 0.0012580114623 
0.0012477056096 0.0012374997762 0.0012274121178 0.00121744452 0.0012075933171 0.0011978549195 0.001188230659 0.0011787177828 0.001169313902 
0.0011600169905 0.0011508304472 0.0011417314266 0.0011327459799 0.0011238603331 0.0011150727834 0.0011063827603 0.001097790479 0.0010892928885 
0.0010808909691 0.0010725854305 0.0010643736862 0.0010562556846 0.0010482333372 0.0010402831293 0.001032451254 0.001024714907 0.0010170746164 
0.0010095291671 0.0010020805175 0.00099472887818 0.00098747518981 0.00098032574501 0.00097326986387 0.00096631309708 0.00095945695757 0.00095269961929 
0.00094604077615 0.0009394778112 0.00093301032971 0.0013567291287 0.001345195774 0.0013338053325 0.0013225558231 0.0013114474162 0.0013004691306 
0.0012896286748 0.0012789192708 0.0012683384002 0.0012578971352 0.0012475560518 0.0012373661875 0.0012272737106 0.0012173002547 0.0012074444581 
0.0011977028869 0.001188073367 0.0011785568563 0.0011691492683 0.0011598484457 0.0011506595031 0.0011415712515 0.0011325745235 0.0011236882305 
0.0011149020492 0.0011062120573 0.0010976187567 0.0010891220693 0.001080720354 0.001072413582 0.0010642001201 0.0010560807927 0.0010480558799 
0.0010401008919 0.0010322636112 0.0010245215683 0.0010168743328 0.0010093219452 0.0010018639445 0.00099450167221 0.00098723541477 0.00098007151534 
0.00097299928379 0.00096602463353 0.00095914780024 0.00095236939519 0.00094568854204 0.0009391029 0.00093261366696 0.00092621674648 0.00134500475 
0.0013336068007 0.0013223502308 0.0013112331483 0.0013002478408 0.0012894021787 0.0012786886884 0.0012681023036 0.0012576431649 0.0012473205698 
0.001237118528 0.0012270236053 0.0012170472325 0.0012071870002 0.0011974424334 0.0011878109979 0.0011782907619 0.0011688803106 0.0011595773368 
0.0011503855421 0.0011412960207 0.0011323101911 0.0011234144477 0.0011146276638 0.0011059395765 0.0010973470409 0.0010888506598 0.0010804501883 
0.0010721420611 0.0010639282162 0.0010558076257 0.0010477797024 0.0010398460723 0.0010319816235 0.0010242335347 0.0010165801082 0.0010090205701 
0.0010015548522 0.00099418294368 0.00098690533119 0.00097972869143 0.00097264166117 0.00096565041296 0.00095875516641 0.00095195584941 0.00094525418933 
0.00093864695951 0.00093213366526 0.00092571444134 0.00091938618737 0.0013333970364 0.0013221336702 0.0013110105868 0.0013000182892 0.0012891666873 
0.001278448054 0.0012678591443 0.0012573961326 0.0012470577382 0.0012368454276 0.0012267670267 0.0012167887296 0.0012069262317 0.001197178102 
0.0011875446543 0.001178021835 0.001168609332 0.0011593041197 0.0011501100551 0.0011410184127 0.0011320313995 0.0011231459655 0.0011143495754 
0.0011056617803 0.0010970710639 0.001088574546 0.0010801741172 0.0010718661549 0.0010636510084 0.001055529547 0.0010475000242 0.0010395624685 
0.0010316942335 0.0010239418441 0.001016282081 0.0010087150094 0.0010012416735 0.00099386082388 0.00098657260168 0.00097938347788 0.00097228271928 
0.0009652746629 0.00095836211719 0.00095154364127 0.00094481982537 0.0009381902786 0.00093165425586 0.00092521011999 0.00091885856167 0.0009125955516 
0.00132201647 0.0013108860009 0.0012998930647 0.0012890294208 0.0012783052526 0.0012677121235 0.0012572452632 0.0012469032397 0.0012366954969 
0.0012265875655 0.0012166247831 0.0012067601014 0.0011970098046 0.0011873731841 0.001177847222 0.0011684322679 0.0011591245991 0.0011499282864 
0.0011408337999 0.0011318440512 0.0011229576759 0.0011141601653 0.0011054724031 0.0010968803507 0.0010883862353 0.0010799839701 0.0010716757369 
0.0010634597492 0.00105533565 0.0010473042504 0.0010393635377 0.0010315140703 0.0010237321041 0.0010160663165 0.0010084913983 0.0010010087911 
0.00099361901436 0.00098631978813 0.00097911845779 0.00097200317876 0.0009649803262 0.00095804857495 0.00095121076522 0.00094446612232 0.0009378133199 
0.00093125210695 0.00092478385823 0.00091840560745 0.00091211622847 0.00090591510728 0.001310960079 0.001299960438 0.0012890904536 0.0012783581627 
0.0012677591329 0.0012572872493 0.0012469406022 0.0012367165035 0.0012266153659 0.0012166312073 0.001206781461 0.0011970274274 0.0011873875415 
0.001177858245 0.0011684395273 0.0011591277454 0.0011499244348 0.0011408303169 0.0011318369241 0.0011229454859 0.0011141571243 0.0011054568823 
0.0010968634415 0.0010883673718 0.0010799639215 0.0010716541186 0.0010634352278 0.0010553097361 0.0010472737556 0.0010393287021 0.0010314737713 
0.0010236855026 0.0010160123544 0.0010084292766 0.0010009359241 0.00099353504247 0.00098622444029 0.00097900947324 0.00097187954512 0.0009648402078 
0.00095789093021 0.00095103207544 0.00094426499801 0.00093758950399 0.00093100295606 0.00092450649633 0.00091810003571 0.00091178205395 0.00090555125176 
0.00089940669228 0.0013003135417 0.0012894354765 0.0012786957547 0.0012680861442 0.0012576077818 0.001247254297 0.0012370239474 0.0012269239622 
0.0012169267073 0.0012070537371 0.0011973133835 0.0011876682717 0.0011781346587 0.0011687099187 0.0011593925992 0.0011501847997 0.0011410848701 
0.0011320868949 0.0011231914225 0.0011143966483 0.0011057019266 0.0010970961672 0.0010885951134 0.0010801878826 0.0010718743371 0.0010636524782 
0.0010555214311 0.0010474809946 0.0010395304029 0.0010316697912 0.0010238972752 0.0010161896982 0.0010085974647 0.0010010943386 0.00099367960272 
0.00098635544273 0.00097912595373 0.00097197947283 0.00096492254526 0.00095795411077 0.00095107426551 0.00094428433164 0.00093758253708 0.00093096940707 
0.00092444415592 0.0009180070821 0.00091165804247 0.00090539446863 0.00089921711876 0.00089312410123 0.0012901403179 0.0012793907468 0.0012687720453 
0.0012582822052 0.0012479191821 0.0012376796746 0.00122756094 0.0012175656124 0.0012076853342 0.0011979200609 0.0011882856151 0.0011787445568 
0.001169313193 0.0011599888019 0.0011507723394 0.0011416665949 0.0011326609444 0.0011237576601 0.0011149560284 0.0011062539025 0.0010976515296 
0.0010891343782 0.0010807217934 0.0010724018178 0.0010641738671 0.0010560374132 0.0010479895328 0.0010400315831 0.0010321624647 0.0010243807012 
0.0010166625721 0.0010090580718 0.0010015425333 0.00099411390664 0.0009867727703 0.00097952765472 0.00097236288467 0.00096528592253 0.00095829748751 
0.00095139568593 0.00094458020519 0.00093785196284 0.00093120935869 0.00092465397156 0.00091818463628 0.00091180050203 0.0009055020738 0.00089928820099 
0.00089315806312 0.00088711040932 0.0012805066344 0.001269875312 0.0012593722658 0.0012489963897 0.0012387459638 0.0012286158952 0.0012186150063 
0.0012087169221 0.0011989422927 0.0011892979332 0.0011797474428 0.001170306098 0.0011609722373 0.0011517469011 0.0011426305957 0.0011336150487 
0.0011247027901 0.0011158910331 0.0011071804962 0.0010985670561 0.0010900502734 0.0010816188683 0.0010732910156 0.0010650550855 0.0010569091966 
0.0010488527044 0.0010408840234 0.0010330041723 0.0010252114725 0.0010175054694 0.0010098631078 0.0010023323412 0.00099488795339 0.00098753048817 
0.00098026508976 0.00097308037946 0.00096598266893 0.00095897000599 0.00095204356386 0.0009452017198 0.00093844500716 0.00093177212218 0.00092518370346 
0.00091867951355 0.0009122587703 0.00090592182078 0.00089966787812 0.00089349651022 0.00088740716862 0.00088139919709 0.0012714485162 0.0012609294676 
0.0012505384947 0.0012402708426 0.0012301261418 0.001220103055 0.0012101990765 0.0012004111513 0.0011907368244 0.0011811901755 0.0011717371731 
0.0011623896768 0.0011531522973 0.0011440237132 0.001134995923 0.00112607128 0.0011172465514 0.0011085230672 0.0010998971237 0.001091368213 
0.0010829344045 0.0010745843703 0.0010663374305 0.0010581811385 0.0010501121615 0.0010421319876 0.0010342387459 0.0010264322915 0.0010187117683 
0.0010110532022 0.0010035059761 0.00099604352521 0.00098866662249 0.000981381465 0.00097417415211 0.00096705207213 0.00096001366907 0.00095305957706 
0.00094618982006 0.00093940260235 0.00093269681632 0.00092607368364 0.00091953263936 0.00091307286071 0.00090669480565 0.00090039834206 0.00089418217492 
0.00088804722834 0.0008819919199 0.00087601674057 0.0012629938259 0.0012525826565 0.0012422956566 0.001232131883 0.0012220917522 0.0012121759433 
0.0012023629262 0.0011926723241 0.0011830943045 0.001173642449 0.0011642786034 0.0011550253919 0.0011458809372 0.0011368383481 0.0011278975319 
0.0011190591126 0.0011103187399 0.0011016771648 0.001093132269 0.001084682557 0.0010763195084 0.0010680565168 0.0010598846158 0.0010518023997 
0.0010438079464 0.0010358986696 0.0010280761496 0.001020339166 0.0010126871689 0.0010050956869 0.00099761483072 0.00099021586807 0.00098290759106 
0.00097567601312 0.00096852688936 0.00096146127274 0.00095447873302 0.0009475764208 0.00094075686508 0.00093401723174 0.00092735768285 0.00092077639361 
0.00091427627564 0.00090785524351 0.00090151312038 0.00089524954382 0.00088906611331 0.00088295953945 0.00087693222214 0.00087098384068 0.0012551612785 
0.0012448510785 0.0012346650522 0.001224601959 0.0012146580728 0.0012048303841 0.0011951187462 0.0011855212211 0.0011760324367 0.00116666728 
0.0011573951993 0.001148232644 0.0011391694997 0.0011302108653 0.0011213523923 0.0011125938398 0.0011039336419 0.0010953700032 0.0010869021401 
0.001078527927 0.0010702386548 0.0010620487395 0.0010539488956 0.0010459362015 0.0010380100337 0.0010301691458 0.0010224129611 0.0010147413029 
0.0010071286252 0.00099962401515 0.00099220845362 0.00098486869431 0.00097761050701 0.00097043369588 0.00096333902177 0.00095632415404 0.00094938997369 
0.00094253463564 0.00093575899364 0.00092906002624 0.00092243947709 0.0009158960781 0.00090942978319 0.00090303961054 0.00089672769534 0.000890491539 
0.00088433132248 0.00087824811586 0.0008722430651 0.00086631625286 0.0012479588329 0.0012377483318 0.001227657678 0.0012176880017 0.001207833354 
0.0011980973712 0.0011884743564 0.0011789643549 0.0011695761346 0.0011602815629 0.0011510954042 0.0011420118746 0.0011330297721 0.0011241492087 
0.0011153677446 0.001106685132 0.0010981016628 0.0010896115668 0.0010812154805 0.0010729125157 0.0010646925701 0.0010565710015 0.0010485371356 
0.0010405911175 0.0010327295613 0.0010249509758 0.0010172572618 0.001009645417 0.0010020918944 0.00099465120681 0.00098728379792 0.00097999799521 
0.00097279229281 0.00096566542757 0.00095861752232 0.00095164834529 0.00094475698164 0.00093794155244 0.00093120374788 0.00092454081181 0.00091795288138 
0.0009114390677 0.00090500063604 0.00089863648865 0.00089234617513 0.00088612991419 0.00087998941593 0.0008739251115 0.0008679369737 0.00086202693648 
0.0012413936473 0.0012312748258 0.0012212737989 0.0012113915736 0.0012016231993 0.0011919724877 0.0011824341611 0.0011730049292 0.0011636992958 
0.0011544882766 0.001145377156 0.0011363682516 0.0011274612927 0.0011186557826 0.0011099480843 0.0011013377577 0.0010928230892 0.0010844025046 
0.0010760746915 0.0010678381077 0.0010596831896 0.0010516251435 0.0010436553014 0.0010357695989 0.00102796708 0.0010202474567 0.0010126105017 
0.0010050293768 0.00099756189423 0.00099016646309 0.00098285039112 0.00097561345161 0.00096845456413 0.00096137166143 0.00095436643728 0.00094743616723 
0.00094058163523 0.00093380142738 0.00092709578829 0.00092046206019 0.00091390110706 0.00090741074822 0.00090099395624 0.00089464863586 0.00088837556788 
0.00088217514149 0.00087604916877 0.00086999720854 0.00086402170641 0.00085812368274 0.001235458126 0.0012254246866 0.0012155083898 0.0012057061436 
0.0011960224776 0.0011864523881 0.0011769903755 0.0011676397012 0.0011584147595 0.0011492739761 0.001140235701 0.0011312993481 0.0011224636547 
0.0011137273045 0.0011050882485 0.0010965448847 0.0010880972036 0.0010797402955 0.0010714749214 0.0010633006001 0.0010552071673 0.0010472088571 
0.0010392960104 0.0010314669313 0.0010237201702 0.0010160545234 0.0010084701264 0.0010009467397 0.00099352199287 0.00098617520746 0.00097890467055 
0.00097171076019 0.00096459335796 0.00095755024007 0.00095058204721 0.00094368636534 0.00093686383506 0.00093011267607 0.00092343362738 0.00091682365669 
0.00091028398978 0.00090381286442 0.00089741178195 0.0008910802022 0.00088481967685 0.00087862996354 0.00087251247838 0.00086647062639 0.00086050374887 
0.00085461485475 0.001230140861 0.0012201876613 0.001210351989 0.0012006270761 0.0011910202762 0.0011815231932 0.0011721377946 0.0011628624814 
0.0011537044338 0.0011446335826 0.0011356639719 0.0011267956971 0.0011180260676 0.0011093546766 0.0011007783719 0.0010922970374 0.001083909087 
0.0010756134257 0.0010674077751 0.0010592830793 0.0010512544096 0.0010433109318 0.0010354514773 0.0010276754835 0.0010199798359 0.001012363558 
0.0010048092552 0.00099735176894 0.00098997069923 0.00098266652926 0.00097543726231 0.00096828276593 0.00096120218485 0.00095419412087 0.00094725827889 
0.00094039274014 0.00093359684131 0.00092687019997 0.00092021255012 0.00091362233123 0.0009070984453 0.00090064164216 0.00089425245948 0.00088793022927 
0.00088167719606 0.00087549469626 0.0008693840208 0.00086334720242 0.00085738672042 0.00085150461986 0.0012254242436 0.0012155468796 0.0012057797205 
0.0011961330654 0.001186597006 0.001177172127 0.0011678592994 0.0011586496606 0.0011495559876 0.0011405498919 0.0011316451665 0.0011228390933 
0.0011141310444 0.001105519193 0.0010970020232 0.0010885783999 0.001080247545 0.0010720072465 0.0010638566416 0.0010557855758 0.0010478087246 
0.0010399158888 0.0010321074564 0.001024379575 0.0010167310684 0.0010091685558 0.0010016501627 0.00099423439092 0.00098689424626 0.00097962847612 
0.00097243667946 0.00096531759518 0.00095826824402 0.0009512902389 0.00094438166582 0.00093754189709 0.00093076945995 0.00092406384545 0.00091742430917 
0.00091084865226 0.00090433675013 0.00089788999967 0.00089150834039 0.00088519326794 0.00087894564979 0.00087276772331 0.00086666085163 0.0008606275168 
0.00085467114034 0.00084879326705 0.0012212825622 0.0012114775273 0.001201780353 0.0011921989401 0.0011827304251 0.0011733751934 0.0011641228274 
0.0011549891733 0.0011459436294 0.0011369989672 0.0011281533595 0.0011194059594 0.0011107548186 0.0011021989487 0.0010937369044 0.0010853666868 
0.0010770881397 0.0010688996042 0.0010607988837 0.0010527774633 0.0010448479728 0.0010370023797 0.0010292401015 0.0010215572645 0.0010139595732 
0.0010064053387 0.00099895311807 0.00099157617096 0.00098427284101 0.00097704146155 0.00096988162582 0.00096279346122 0.00095577344256 0.00094882154723 
0.00094193774209 0.00093511925524 0.00092836601644 0.0009216762359 0.00091505059307 0.00090848652545 0.00090198405037 0.00089554557819 0.00088917022054 
0.00088285966534 0.00087661616126 0.00087044036283 0.00086433592603 0.00085830521016 0.00085235157918 0.00084647714549 0.0012176820315 0.0012079327721 
0.0011983059303 0.0011887895648 0.0011793879097 0.0011700899847 0.0011608967766 0.001151821981 0.0011428346276 0.0011339468717 0.0011251572317 
0.0011164639049 0.0011078662432 0.0010993630969 0.0010909521607 0.0010826322909 0.0010744025659 0.0010662607368 0.0010582058357 0.0010502288682 
0.0010423445536 0.0010345431152 0.0010268219531 0.0010191859118 0.0010115956513 0.0010041052082 0.00099668920301 0.00098934695223 0.00098207695813 
0.00097487786159 0.00096774749449 0.00096068618138 0.00095369176604 0.00094676298531 0.00093989822134 0.00093309904275 0.00092636187726 0.00091968552635 
0.00091307107558 0.00090651698807 0.00090002283715 0.00089358939615 0.00088721862043 0.00088091211426 0.00087467096139 0.00086849783329 0.00086239484596 
0.00085636659635 0.00085041507558 0.00084454308634 0.0012145640186 0.0012048842147 0.0011953176293 0.0011858648329 0.0011765174566 0.0011672770528 
0.0011581404164 0.0011491195137 0.001140186995 0.0011313519659 0.0011226135393 0.0011139713847 0.0011054238364 0.0010969687415 0.0010886048338 
0.0010803307036 0.0010721461018 0.0010640492123 0.0010560359157 0.0010481018468 0.0010402588495 0.0010324968944 0.001024819954 0.0010172148213 
0.0010096602149 0.0010022051065 0.00099482344667 0.00098751127359 0.00098027180599 0.000973100656 0.00096599733736 0.0009589601579 0.0009519880877 
0.00094507938446 0.0009382332708 0.00093144948924 0.00092472611631 0.00091806257544 0.00091145766208 0.0009049116149 0.00089842376769 0.00089199514531 
0.00088562801671 0.00087932431109 0.00087308568506 0.00086691536479 0.00086081516982 0.00085478823023 0.00084883989733 0.00084297114003 0.0012118874688 
0.0012022673862 0.0011927615065 0.0011833608129 0.0011740683113 0.0011648812815 0.0011557979961 0.001146828293 0.0011379463293 0.0011291602075 
0.0011204705603 0.0011118763017 0.0011033745644 0.001094964059 0.0010866443427 0.0010784127976 0.0010702707545 0.001062212686 0.0010542329293 
0.0010463454622 0.0010385401336 0.0010308216996 0.001023174568 0.0010155778861 0.0010080818992 0.0010006583783 0.00099330689887 0.0009860258847 
0.00097881195061 0.00097166615462 0.00096458602268 0.00095757111621 0.00095061917951 0.00094372934597 0.00093689938146 0.00093013054016 0.00092341984651 
0.00091676588434 0.00091017019541 0.00090363076636 0.000897149735 0.00089072583315 0.00088436332127 0.00087806282062 0.00087182763663 0.00086565984423 
0.00085956247387 0.00085354049975 0.00084759511053 0.00084173054691 0.0012095779373 0.0012000163892 0.0011905614041 0.0011812144281 0.0011719732578 
0.0011628370156 0.0011538157531 0.0011448826839 0.0011360464479 0.0011273073325 0.0011186627807 0.0011101123232 0.0011016538392 0.0010932852133 
0.0010850072911 0.001076816783 0.0010687116302 0.0010606937115 0.0010527524767 0.0010449082137 0.0010371383117 0.0010294469687 0.0010218330812 
0.0010142683024 0.001006803079 0.00099940809419 0.00099208491428 0.00098482954193 0.00097764047398 0.00097051860691 0.00096346129125 0.00095646600221 
0.00094953217698 0.00094265977078 0.00093584568393 0.00092908927068 0.00092239066972 0.00091574822613 0.00090916106811 0.00090262889779 0.00089615393189 
0.00088973552095 0.00088337824096 0.00087708204922 0.00087085137386 0.00086468854018 0.00085859586826 0.00085257841061 0.00084663842065 0.00084077964775 
0.0012075581286 0.0011980457904 0.0011886416641 0.0011793441941 0.0011701531674 0.0011610652013 0.0011520916065 0.0011432036968 0.0011344124323 
0.0011257159286 0.0011171148403 0.0011086064746 0.0011001888979 0.001091861868 0.0010836228244 0.0010754684225 0.001067402717 0.0010594209009 
0.0010515219956 0.0010437048662 0.0010359681468 0.0010283100511 0.0010207016258 0.0010131925839 0.0010057556352 0.00099838803378 0.00099109050091 