# vtk DataFile Version 5.1
vtk output
ASCII
DATASET STRUCTURED_POINTS
DIMENSIONS 50 50 50
SPACING 0.002 0.002 0.002
ORIGIN 0.1742 -0.052672 0.02732
POINT_DATA 125000
FIELD FieldData 1
potential 1 125000 double
0.0079748056732 0.0081125371224 0.0082534201668 0.0083975438213 0.0085448805576 0.0086957285279 0.0088500672057 0.0090080727444 0.0091697356636 
0.0093351903503 0.0095045193595 0.0096778704074 0.0098553060078 0.01003697612 0.010223001002 0.010413486218 0.010608508171 0.010808218642 
0.011012688532 0.011222175512 0.011436603778 0.0116561933 0.011881148207 0.012111652341 0.012347667391 0.012589439099 0.012837102499 
0.01309090451 0.013351086766 0.01361729152 0.0138900217 0.01416939278 0.01445556778 0.014748545351 0.015048583541 0.015355843939 
0.015670414188 0.015992452069 0.016322154823 0.016659544061 0.017004863982 0.017358193837 0.017719681016 0.018089450235 0.018467554947 
0.018854125338 0.019249195463 0.019652823334 0.020065074333 0.020485925954 0.0079098836307 0.0080452129239 0.0081837616767 0.0083254546245 
0.0084703933666 0.0086186108113 0.0087701445989 0.0089253383409 0.0090840272808 0.0092464676006 0.0094126347213 0.009582705299 0.0097567392108 
0.0099348373508 0.01011714475 0.01030378318 0.010494809317 0.010690343504 0.010890480619 0.011095389681 0.011305154398 0.011519944638 
0.011739745437 0.01196494058 0.012195427462 0.01243143303 0.012673089831 0.012920540125 0.013174125329 0.013433714779 0.013699348979 
0.01397126053 0.014249647986 0.014534709436 0.014826337558 0.015124861435 0.015430335687 0.01574289452 0.016062674383 0.01638984071 
0.016724422427 0.017066588893 0.017416456173 0.017774086946 0.01813963215 0.018513099035 0.018894552252 0.019284081346 0.019681676229 
0.02008740691 0.0078418162914 0.0079749912893 0.0081110410749 0.0082503029976 0.0083926995579 0.0085382940828 0.0086871946993 0.0088393860961 
0.0089952328608 0.0091545751991 0.0093175992914 0.0094843624849 0.0096549785322 0.009829448335 0.010008152068 0.010190904662 0.010377948818 
0.010569331668 0.010765156988 0.01096558385 0.011170697905 0.011380581038 0.011595415026 0.01181535268 0.01204031507 0.012270615922 
0.012506337304 0.012747609257 0.012994547961 0.013247482634 0.013506210749 0.013770989036 0.014041765509 0.014318856427 0.014602415875 
0.014892342783 0.015188931457 0.015492244232 0.01580239619 0.016119606184 0.016443721162 0.016775052701 0.017113638291 0.017459582688 
0.017812918995 0.018173756468 0.018542116494 0.01891803439 0.019301497839 0.01969260368 0.0077703181926 0.0079012146586 0.0080350179173 
0.0081718068507 0.008311496725 0.0084544395013 0.0086005886818 0.0087500147895 0.0089029066531 0.0090590915868 0.0092189130794 0.0093823655449 
0.0095495481225 0.0097205503825 0.0098953678678 0.010074389363 0.010257423025 0.010444650963 0.010636194506 0.010832111833 0.011032566918 
0.011237622297 0.011447405333 0.01166203951 0.011881746816 0.012106336899 0.012336181183 0.012571332021 0.012811909456 0.013058014169 
0.013310006195 0.013567591848 0.013831075462 0.014100430961 0.014375804441 0.014657489533 0.014945330822 0.015239594387 0.015540344654 
0.015847787298 0.016161796377 0.016482542216 0.016810169265 0.017144746344 0.017486284541 0.01783485759 0.018190540155 0.01855332831 
0.018923178328 0.019300166426 0.0076950960199 0.0078236963525 0.0079550805127 0.0080893621512 0.0082266212693 0.0083667487165 0.0085100968009 
0.0086566546682 0.0088065577509 0.0089597253772 0.0091162520211 0.0092763752933 0.0094401135415 0.009607523454 0.0097787232215 0.0099537848379 
0.010132832055 0.010315901836 0.010503140686 0.010694586717 0.01089039322 0.011090625595 0.011295391991 0.011504825369 0.011719107779 
0.011938168839 0.01216217917 0.012391228838 0.012625500736 0.01286506541 0.013110112884 0.013360715244 0.013616836937 0.013878554122 
0.014146166872 0.014419566792 0.014698921178 0.014984282693 0.015275815407 0.015573611018 0.015877811124 0.016188300953 0.016505212155 
0.016828724264 0.017158794856 0.017495491531 0.017838838173 0.018188901663 0.018545621424 0.018908986711 0.007616048849 0.0077422344393 
0.0078712140137 0.0080029526824 0.008137580628 0.0082751504353 0.0084155316227 0.008559182494 0.0087059917666 0.0088561190114 0.0090095007072 
0.0091662736978 0.0093264340235 0.0094902444119 0.0096577099789 0.0098289159424 0.010003931745 0.010182868881 0.01036577414 0.010552739949 
0.010743927835 0.010939352008 0.01113909914 0.011343339982 0.011552140634 0.011765692153 0.011983873393 0.012207012442 0.012435050255 
0.012668077069 0.012906307014 0.013149871105 0.013398826171 0.013653107321 0.013912816445 0.014178120982 0.014449199346 0.014725935091 
0.015008414966 0.015296780897 0.015591279885 0.015891713439 0.016198252027 0.016510932605 0.016829838698 0.017154978627 0.017486380228 
0.017824091986 0.018168045241 0.018518231252 0.0075330555793 0.0076568456968 0.0077833215502 0.0079125365411 0.0080445030562 0.0081793082857 
0.0083169941801 0.0084575494379 0.0086013123804 0.0087482828902 0.008898377011 0.0090518073403 0.0092085546928 0.0093686407115 0.0095323540761 
0.0096996710193 0.0098706691276 0.010045423159 0.010224018342 0.01040654076 0.010593026538 0.010783660829 0.010978412479 0.011177488455 
0.011380932862 0.011588926254 0.011801369233 0.012018451449 0.012240327432 0.012466983294 0.012698498427 0.012935074026 0.013176848034 
0.013423765839 0.013675785175 0.013933164412 0.014195883297 0.014464005698 0.014737809087 0.015017064588 0.015301934878 0.015592564341 
0.015888925929 0.016191121551 0.01649909603 0.016812982677 0.017132755068 0.017458420698 0.017790015622 0.018127431108 0.007446230503 
0.0075676014232 0.0076915300531 0.0078181333816 0.0079474213054 0.0080794566372 0.0082142895183 0.0083519770774 0.0084925192469 0.0086362276093 
0.0087831159419 0.0089331213168 0.0090863773751 0.009242906545 0.0094028493794 0.0095661546245 0.0097331136141 0.0099036982175 0.010077942457 
0.010255981219 0.01043783066 0.010623647922 0.010813439328 0.01100733909 0.011205438905 0.011407890884 0.011614610657 0.011825770542 
0.012041458236 0.012261724746 0.012486738532 0.012716465506 0.012950961137 0.013190674512 0.01343510903 0.013684586858 0.013939202535 
0.014198940239 0.014463839679 0.014734163217 0.015009850613 0.015290887871 0.015577291543 0.015869195256 0.016166514638 0.016469427298 
0.016777836607 0.017091818957 0.017411321766 0.017736397524 0.0073557309131 0.0074746429648 0.00759604907 0.0077199691188 0.0078465411736 
0.0079757719173 0.0081077144265 0.0082424230792 0.0083799803342 0.0085203305888 0.0086639026374 0.0088104796164 0.0089601933092 0.0091130786196 
0.0092692145466 0.0094287125742 0.0095915082695 0.0097578836848 0.0099277374809 0.01010135766 0.010278565585 0.010459588203 0.010644434926 
0.010833160331 0.011025934814 0.011222785769 0.01142389675 0.011629159164 0.011838742642 0.012052711438 0.012271124937 0.012494130598 
0.01272169007 0.012953909018 0.013191061788 0.013432784359 0.013679347996 0.013930850884 0.014187218167 0.014448569125 0.014715079632 
0.01498660658 0.015263450615 0.015545296849 0.015832300196 0.016124510261 0.016421926159 0.016724428716 0.017032211138 0.017345213945 
0.0072618761296 0.007378285805 0.0074971174671 0.0076183719134 0.0077422044781 0.0078685892785 0.0079976236671 0.0081292943673 0.0082637512973 
0.0084010017661 0.008541010784 0.008684204912 0.0088303580583 0.0089795861246 0.0091319455425 0.0092874972217 0.0094463435309 0.0096085342072 
0.0097740145958 0.009943001403 0.01011560432 0.010291867875 0.01047177529 0.010655427649 0.010842848373 0.011034225189 0.011229673679 
0.011429083405 0.011632619033 0.011840324745 0.012052288541 0.012268567263 0.012489191556 0.012714302997 0.012943904777 0.013178093631 
0.0134168355 0.013660158148 0.013908175339 0.014160868378 0.014418286098 0.014680645274 0.014947868064 0.015219854067 0.015496708515 
0.015778594071 0.016065254564 0.016356786176 0.016653142841 0.016954353034 0.0071650628618 0.0072789519769 0.0073951777768 0.007513795733 
0.0076348079426 0.0077583462522 0.0078844177238 0.0080131004415 0.0081443855273 0.0082784151651 0.0084152069113 0.0085548120834 0.0086973867259 
0.0088429495499 0.0089915030479 0.0091431495889 0.00929791758 0.0094559220706 0.0096171891464 0.0097817891926 0.0099495775908 0.010120986594 
0.01029604243 0.010474598413 0.010656789208 0.010842704129 0.011032439454 0.011226141811 0.011423684004 0.011625206889 0.011830767531 
0.012040444126 0.012254262941 0.012472276884 0.012694549932 0.012921213798 0.0131522266 0.013387647699 0.0136273499 0.013871511447 
0.014120182157 0.014373410834 0.014631308127 0.014893766983 0.015160757293 0.015432302073 0.015708477108 0.015989219697 0.016274644776 
0.016564426123 0.0070657712093 0.0071771326094 0.0072907400788 0.0074066522735 0.0075249186679 0.0076455774516 0.0077686808656 0.007894312033 
0.008022469058 0.0081532508619 0.0082867141221 0.0084229239903 0.0085620010556 0.0087037240137 0.0088485170152 0.0089962450714 0.0091469937443 
0.0093008026135 0.0094577623661 0.0096179116541 0.0097813226623 0.0099478204113 0.010117847458 0.01029142747 0.010468397444 0.010648960875 
0.010833152306 0.011021074629 0.011212695683 0.011408106145 0.011607354692 0.011810510869 0.012017614091 0.012228706038 0.012443829536 
0.012663005903 0.012886388549 0.013113837536 0.013345701203 0.013581498939 0.013821573355 0.014065922887 0.014314606195 0.014567699051 
0.01482511797 0.015086770317 0.01535271544 0.015622955478 0.015897480006 0.016176232818 0.006964549745 0.0070733747037 0.0071843760831 
0.0072975943596 0.0074130751085 0.0075308327504 0.0076510227162 0.0077735969383 0.007898624142 0.0080261641317 0.0081562899999 0.0082890559627 
0.0084245906663 0.0085628154957 0.0087036739882 0.0088475025683 0.0089942343755 0.0091439189495 0.0092965779398 0.0094523141197 0.0096111558085 
0.0097731784595 0.0099382680476 0.010106647281 0.010278538409 0.010453768937 0.010632465712 0.010814683533 0.011000503523 0.011189900859 
0.011382951754 0.011579686207 0.011780177815 0.011984454802 0.012192544648 0.012404491386 0.012620314833 0.012840118245 0.013063859155 
0.013291755824 0.013523433873 0.013759128964 0.013998883408 0.014242731564 0.014490767205 0.014742837702 0.014998883871 0.01525892219 
0.015522973401 0.015790993733 0.0068620175391 0.0069683102646 0.0070766996012 0.0071872289118 0.0072999428711 0.0074148852205 0.0075320776309 
0.0076516247348 0.0077735320961 0.0078978461478 0.0080246696177 0.0081540179848 0.0082859350506 0.0084206078653 0.0085578892569 0.0086977064749 
0.008840454169 0.0089860279412 0.0091344797311 0.0092858467731 0.009440164166 0.0095975150155 0.0097579342673 0.0099214118652 0.010088150709 
0.01025806584 0.010431345717 0.010607958516 0.010788070668 0.010971591504 0.011158494778 0.011348950689 0.011542943864 0.011740538182 
0.011941745221 0.012146599575 0.012355127963 0.012567349168 0.012783364353 0.013003084118 0.013226799158 0.013454113971 0.013685271104 
0.013920116155 0.014159000243 0.014401621511 0.014648105457 0.01489827582 0.015152167838 0.015409785454 0.0067588089623 0.0068625833308 
0.0069683784928 0.0070762360293 0.0071861984299 0.0072983113806 0.0074126276787 0.0075291062814 0.0076479358571 0.0077690826873 0.0078925861321 
0.0080185604176 0.0081470018515 0.0082780424836 0.0084116166878 0.0085478049561 0.0086864994316 0.0088279958716 0.0089722667581 0.009119324497 
0.0092692332207 0.0094219930955 0.0095777059792 0.0097363875754 0.0098980423791 0.010062847059 0.010230815271 0.010401936846 0.010576288024 
0.010754043513 0.010935005676 0.011119358725 0.01130697408 0.011498020782 0.011692497599 0.011890424173 0.012091830138 0.012296724457 
0.012505128902 0.012717172044 0.012932685858 0.013151853634 0.013374726888 0.013601064725 0.013830902003 0.014064477126 0.014301536869 
0.014542135939 0.014786282548 0.015033835672 0.0066555732287 0.0067568606073 0.0068600942331 0.0069653034434 0.0070725488753 0.007181864275 
0.0072932703369 0.0074068541304 0.0075225586875 0.0076405726709 0.0077608403175 0.007883465107 0.0080084694418 0.0081359039044 0.008265898853 
0.0083983306157 0.0085332848666 0.0086708310379 0.0088108632678 0.0089536644175 0.0090992108684 0.0092475021396 0.0093985746868 0.0095524619603 
0.0097093297528 0.0098690187818 0.010031755756 0.010197560634 0.010366389261 0.010538333435 0.010713552197 0.010891833039 0.011073365467 
0.011258052763 0.011445907745 0.011637086448 0.011831554144 0.012029314872 0.012230392695 0.012434811885 0.012642672302 0.012853811859 
0.013068437115 0.013286527691 0.013507869137 0.013732593896 0.013960620371 0.014191953162 0.014426535129 0.014664420443 0.0065529623332 
0.0066517921883 0.0067524975611 0.006855113469 0.006959669564 0.0070662255665 0.0071747975947 0.0072854597207 0.0073981596086 0.007513063665 
0.0076301760354 0.0077495066375 0.0078711299982 0.0079950835567 0.0081214195981 0.0082502230066 0.0083814098061 0.0085150422733 0.0086511872036 
0.0087897426794 0.00893102676 0.0090749037664 0.0092214730392 0.0093707247963 0.0095227227423 0.0096775969419 0.0098351698547 0.0099957475861 
0.010159236009 0.010325693848 0.010495130485 0.010667548671 0.010843001497 0.011021489477 0.011203099119 0.011387709498 0.011575394005 
0.011766229491 0.011960200879 0.012157317409 0.012357610348 0.012561154965 0.012767789431 0.012977627827 0.013190704771 0.013407068578 
0.013626404343 0.013848812081 0.014074301288 0.014302770629 0.0064515845217 0.0065479943853 0.0066462233574 0.0067462832606 0.0068482201733 
0.0069520637829 0.0070578534928 0.0071656289732 0.0072754625134 0.0073872725999 0.0075012666665 0.0076173901777 0.0077357140422 0.0078562680261 
0.0079790873999 0.0081043182819 0.0082317720904 0.0083615934904 0.0084938070598 0.0086284543196 0.0087654478605 0.0089050752778 0.0090472294519 
0.0091919534264 0.009339279157 0.0094893001446 0.0096420714483 0.0097974470561 0.009955708105 0.010116776816 0.010280688008 0.010447556356 
0.010617022573 0.010789508771 0.010964879423 0.011143156887 0.011324423628 0.011508566673 0.011695611344 0.011885681738 0.012078726145 
0.012274766217 0.01247385752 0.012675884681 0.012880898875 0.013088938748 0.013300118367 0.013513864372 0.013730556247 0.013950059127 
0.0063520046851 0.006446045594 0.0065418389584 0.0066394061883 0.0067387784577 0.0068399876241 0.0069430492883 0.0070480333487 0.0071549911493 
0.0072639090524 0.007374794452 0.0074878019411 0.0076028898698 0.0077201296682 0.0078395342952 0.0079611552136 0.0080850838842 0.0082111917459 
0.0083395867853 0.0084703011697 0.0086033808444 0.0087388285753 0.0088765880954 0.0090169364454 0.0091597406212 0.0093050761069 0.009453023953 
0.0096035904691 0.0097566953991 0.0099125479595 0.010071077008 0.01023242457 0.010396364507 0.010563068026 0.010732342318 0.010904494058 
0.011079419188 0.011257077825 0.011437616891 0.01162088779 0.01180697078 0.011995790467 0.012187501754 0.012382065089 0.012579384646 
0.012779474817 0.012982384816 0.013188069422 0.013396365111 0.013607269456 0.0062546518834 0.006346446546 0.0064398752022 0.0065349987588 
0.0066318790969 0.0067305102492 0.0068309355587 0.0069331932605 0.0070373261635 0.0071433947469 0.0072513724078 0.0073612853526 0.0074732330742 
0.0075872638039 0.0077033559944 0.0078215520116 0.0079419686198 0.0080644947836 0.0081891672072 0.0083160644566 0.0084452225008 0.0085766515681 
0.0087103659003 0.0088463405252 0.0089848059255 0.009125636785 0.0092689540191 0.0094147621647 0.0095629745257 0.0097137363775 0.0098670897731 
0.010023015386 0.01018160597 0.010342659773 0.010506269417 0.01067259927 0.010841324152 0.011012781712 0.01118685518 0.01136358499 
0.01154303106 0.011725043335 0.011909712226 0.012097024988 0.012286945158 0.012479479369 0.012674587455 0.012872251783 0.013072585306 
0.013275122296 0.0061600502714 0.0062496034748 0.0063407382154 0.0064335078616 0.0065279504519 0.0066240907366 0.0067219500299 0.0068215771187 
0.0069229923189 0.0070262713609 0.0071313860222 0.0072383528885 0.0073472859873 0.0074581573925 0.0075710494624 0.0076859396872 0.0078028861668 
0.0079219656594 0.0080430904699 0.0081662976483 0.0082916647622 0.0084191921579 0.0085489163321 0.0086808680218 0.0088149921651 0.0089514697473 
0.0090903188199 0.0092315323584 0.0093750844717 0.0095210329767 0.0096693122259 0.0098201162531 0.0099733414065 0.010129104862 0.01028723816 
0.010447798776 0.010610830564 0.010776385626 0.010944220742 0.011114645159 0.011287587053 0.01146302176 0.011640949987 0.011821419132 
0.012004255895 0.012189551742 0.012377346051 0.012567393824 0.012759925698 0.012954698118 0.0060684792199 0.0061558337045 0.0062447808249 
0.0063352716065 0.0064273682527 0.0065210827061 0.0066164652566 0.0067135441731 0.0068123431516 0.0069128927632 0.0070152657225 0.0071194211279 
0.0072253851893 0.0073332399151 0.0074430152665 0.0075547198478 0.0076683917251 0.0077840294688 0.0079017672718 0.0080214202216 0.0081431469536 
0.0082669011262 0.0083927716129 0.0085207691535 0.0086509150593 0.008783260739 0.0089176541969 0.0090544540985 0.0091934885054 0.0093347662854 
0.0094783403276 0.0096241432923 0.0097723348154 0.0099228824502 0.010075688216 0.010230848003 0.010388278182 0.010548051914 0.010710166327 
0.010874683263 0.011041460536 0.011210453953 0.011381916581 0.011555735291 0.011731829963 0.011910186969 0.012090924107 0.012273898655 
0.012458973372 0.012646292911 0.0059802110484 0.0060654790374 0.0061522345479 0.0062405523595 0.0063303909263 0.0064217855852 0.0065147665075 
0.0066093799422 0.0067056529805 0.0068036086633 0.0069033090906 0.0070047065059 0.0071079078962 0.0072128294298 0.0073195952354 0.0074282229712 
0.0075387183345 0.007651132374 0.0077655117909 0.0078817712144 0.0079999591558 0.0081201354382 0.0082422796359 0.0083664670446 0.008492715264 
0.0086210365919 0.0087513887926 0.0088838317757 0.0090185296423 0.0091553516876 0.0092943176148 0.0094354809558 0.0095787501523 0.0097242929873 
0.0098721079026 0.010022037804 0.010174139785 0.010328461594 0.010484937635 0.010643654421 0.010804577435 0.010967757679 0.011133048381 
0.011300421465 0.011470090112 0.011641855544 0.011815766942 0.011991778974 0.012169927604 0.01235008956 0.0058954436325 0.0059786803221 
0.0060633713505 0.0061495270393 0.0062372128005 0.0063263625388 0.0064170487281 0.0065092965623 0.0066031321197 0.0066985844463 0.0067956823425 
0.0068944801013 0.0069949359766 0.0070971412685 0.0072010047332 0.007306659446 0.0074141168962 0.0075233959708 0.0076345014951 0.0077475638405 
0.0078623766028 0.0079790698963 0.0080976786412 0.0082182301276 0.0083406971796 0.0084651591251 0.0085916252345 0.0087200367298 0.0088505595103 
0.0089830121078 0.0091175733246 0.0092542296653 0.0093929477535 0.0095336730343 0.0096765688699 0.0098215896839 0.0099686060098 0.010117693347 
0.01026889696 0.01042206936 0.010577384187 0.010734772176 0.010894223831 0.011055742822 0.011219304837 0.011384706709 0.011552179912 
0.011721644039 0.011893043565 0.012066308353 0.0058142817205 0.0058955820393 0.0059782796398 0.006062382899 0.0061479694432 0.0062349684447 
0.0063234301826 0.0064134054045 0.0065049044018 0.0065979616337 0.0066925782478 0.0067888409845 0.0068866970147 0.0069862191274 0.0070873869601 
0.0071901535419 0.0072946969403 0.0074009802311 0.0075090229566 0.0076188154485 0.0077305135176 0.0078438839015 0.0079590726167 0.0080761184067 
0.0081950223823 0.0083157790327 0.00843845135 0.0085629820892 0.0086895021744 0.0088179654153 0.0089482737165 0.0090805863104 0.0092148972924 
0.0093511665071 0.0094893186424 0.0096295194349 0.0097717986089 0.0099158850908 0.01006195193 0.010209998302 0.010359996049 0.010511882152 
0.01066575273 0.010821518068 0.010979218886 0.011138809951 0.011300304178 0.011463519713 0.011628414819 0.011795236813 0.0057367925559 
0.0058162342577 0.0058970168729 0.0059791669318 0.0060626913263 0.0061476546839 0.0062340022311 0.0063217845574 0.0064110366712 0.0065017880881 
0.006594053064 0.0066878517339 0.006783234003 0.0068801665493 0.0069787075595 0.0070787785429 0.0071805334338 0.0072839473357 0.0073890398122 
0.0074958235467 0.0076043351817 0.0077146029997 0.0078265435069 0.0079402305513 0.0080556938135 0.0081729424148 0.008292009977 0.0084128710763 
0.0085355302383 0.0086600641221 0.0087864640202 0.0089147067229 0.0090446752365 0.0091766224462 0.009310449179 0.0094460421148 0.0095836563309 
0.0097230234753 0.0098642686268 0.01000730556 0.010152211933 0.010298989034 0.010447553345 0.010597891609 0.010750062205 0.010904010829 
0.011059662306 0.011217013212 0.011376009047 0.011536736792 0.0056630223135 0.0057406727123 0.0058196180909 0.0058998914266 0.0059814801001 
0.0060644179383 0.0061487585806 0.0062344475585 0.0063215567615 0.0064100960481 0.006500085301 0.0065915640928 0.0066845624619 0.0067790329488 
0.0068750285704 0.0069725830674 0.0070716402982 0.0071722969768 0.0072745770864 0.0073784759046 0.0074840006801 0.0075912528308 0.0077000683947 
0.0078105485106 0.0079227380439 0.008036615033 0.0081522254973 0.0082695555965 0.0083885905665 0.0085093909727 0.0086319696004 0.0087563040379 
0.0088823552623 0.009010120322 0.0091397128338 0.009271077757 0.0094041959739 0.0095390538625 0.0096756532225 0.0098139986965 0.0099541089132 
0.01009591256 0.010239440624 0.010384688373 0.010531606125 0.01068011896 0.010830325445 0.010982135443 0.011135449974 0.011290347856 
0.0055929284202 0.005668883099 0.0057460631637 0.0058245257734 0.0059042738167 0.0059853077878 0.0060676602157 0.0061513904272 0.00623643505 
0.006322859235 0.0064106843286 0.0064999180245 0.0065905904031 0.00668276238 0.006776347831 0.0068714234745 0.0069679855196 0.0070659792971 
0.0071655848472 0.0072667208996 0.0073694109264 0.0074736892442 0.0075796064118 0.0076870329185 0.0077960812655 0.0079067436428 0.0080190593706 
0.0081330193539 0.0082485808584 0.0083658474431 0.008484779508 0.0086053828009 0.0087276625859 0.008851571822 0.0089771696612 0.0091043341902 
0.0092332570072 0.0093638204325 0.0094960536804 0.0096299064675 0.0097654067888 0.0099025266532 0.01004129661 0.010181656288 0.010323582676 
0.010467048438 0.010612071084 0.010758536549 0.010906522102 0.011055905444 0.0055264591311 0.0056007835684 0.0056762906707 0.005753039897 
0.0058310070301 0.0059102342515 0.0059907142796 0.0060724886117 0.0061556053493 0.0062400082564 0.0063257515956 0.0064128559729 0.006501340225 
0.0065912627787 0.006682553438 0.0067752513028 0.0068694055195 0.0069649847343 0.0070619295505 0.007160455829 0.0072604596187 0.0073619487073 
0.0074649557477 0.0075695528418 0.0076756084548 0.0077832089269 0.0078923730091 0.0080031035637 0.0081154462199 0.0082292813276 0.0083447451197 
0.0084617906991 0.0085804534433 0.0087006622159 0.0088224443351 0.0089458148773 0.0090707442026 0.0091971338475 0.0093251942518 0.0094547997854 
0.0095859503904 0.009718626338 0.0098528259659 0.0099885330411 0.010125760199 0.010264431734 0.010404499392 0.010546035856 0.010688891061 
0.010833063735 0.0054635428417 0.0055363104534 0.0056102332308 0.005685325032 0.0057616075411 0.0058390990344 0.005917800864 0.0059977363287 
0.0060789698186 0.0061614442345 0.0062452059807 0.0063302776953 0.0064166710495 0.006504408565 0.0065935262795 0.006683963208 0.0067757878689 
0.0068690114085 0.0069636143443 0.0070595381093 0.0071569764838 0.0072558232701 0.0073561420422 0.0074578901284 0.0075611535215 0.0076658427731 
0.00777201488 0.0078796880451 0.007988860333 0.0080994771265 0.0082116638596 0.0083253411005 0.0084405409339 0.0085572239244 0.0086753915585 
0.0087950781571 0.0089162296143 0.0090388530148 0.0091628553863 0.0092884078092 0.0094154329117 0.0095438974663 0.0096737961901 0.0098051069833 
0.0099378215707 0.010071910528 0.01020735568 0.010344131941 0.010482194408 0.010621501647 0.00540407866 0.0054753501816 0.0055477469051 
0.0056212789761 0.005695940416 0.0057717729565 0.0058487794975 0.0059269774505 0.0060063664047 0.0060870278747 0.0061688985481 0.0062520271855 
0.0063364263706 0.0064221179188 0.0065091351776 0.0065974180476 0.0066870223847 0.0067779785457 0.0068702592925 0.0069638878614 0.007058778467 
0.0071551326884 0.0072528516546 0.00735197336 0.0074524660052 0.0075544511472 0.0076577646509 0.0077625171682 0.0078686990938 0.0079763159939 
0.0080853058765 0.0081957866726 0.008307680462 0.0084210208218 0.0085357763295 0.0086519112219 0.0087694876141 0.0088884505313 0.0090088065342 
0.0091305128251 0.0092535294577 0.0093780031975 0.0095038082808 0.0096309604306 0.0097594387766 0.0098892049909 0.010020228854 0.010152493728 
0.010285995817 0.010420668436 0.0053479281741 0.0054177750762 0.0054887106109 0.005560734241 0.0056338623214 0.0057081048289 0.005783484389 
0.0058600098343 0.0059376992711 0.0060165677167 0.0060966570804 0.0061779290441 0.0062604271126 0.00634416371 0.0064291438664 0.0065154093926 
0.0066029090596 0.0066916799016 0.0067817483676 0.006873107006 0.0069657306521 0.0070596026963 0.0071548787555 0.0072514752763 0.0073494212939 
0.0074486832907 0.007549368559 0.0076513449566 0.0077546834092 0.007859391627 0.007965458128 0.0080728201043 0.0081815984967 0.008291739139 
0.0084032441011 0.0085160655789 0.0086301964627 0.0087456772789 0.0088624719932 0.0089805595836 0.0090999312553 0.0092206832266 0.0093425653018 
0.0094657103317 0.0095901715244 0.0097158445599 0.009842697288 0.0099707202975 0.010099879942 0.010230155851 0.0052948942887 0.0053633839559 
0.0054329129909 0.0055035067206 0.0055751637445 0.0056478883912 0.0057217054848 0.0057966475526 0.0058727001424 0.0059498921884 0.0060282309672 
0.0061077666317 0.0061884475607 0.0062703269223 0.0063533992311 0.0064377107871 0.0065231983584 0.0066099008498 0.0066978364826 0.0067870291005 
0.006877445252 0.0069691058881 0.0070619504113 0.0071561432005 0.0072516466432 0.0073483861208 0.0074464283505 0.0075458319019 0.0076464801884 
0.007748425994 0.0078516572761 0.0079561175821 0.0080619413362 0.0081690342413 0.0082774261755 0.0083870921341 0.0084980063859 0.0086101342316 
0.008723548657 0.0088382039641 0.0089540744091 0.0090711563329 0.0091895087691 0.0093089451161 0.0094295268972 0.0095513270361 0.0096742379184 
0.0097982482335 0.009923314236 0.010049402845 0.0052447577982 0.0053119448326 0.0053801348678 0.0054493512027 0.0055196083617 0.0055909009213 
0.0056632255108 0.0057366351944 0.0058111344341 0.0058867204388 0.0059634119197 0.006041233318 0.0061202200431 0.0062003151825 0.0062815594483 
0.0063639609213 0.0064475681378 0.0065323133591 0.0066182254273 0.0067053432744 0.006793643627 0.006883139671 0.0069738092402 0.0070656435893 
0.0071587770842 0.0072531568238 0.0073487515394 0.0074455625092 0.0075436980044 0.007643010619 0.007743561248 0.0078453316582 0.007948270073 
0.0080524819984 0.0081579124333 0.0082645653407 0.0083723986149 0.0084814288221 0.0085916066899 0.0087029818624 0.0088155245932 0.0089292050869 
0.0090440183473 0.0091600214408 0.0092770706103 0.0093950913534 0.0095142695166 0.0096344536867 0.009755655976 0.0098778117661 0.0051972542733 
0.0052631951493 0.0053301098299 0.0053980082783 0.0054669088438 0.0055368192145 0.005607743126 0.0056796851879 0.0057526820429 0.0058267364595 
0.0059018652341 0.005978070852 0.0060553670934 0.0061337986245 0.0062132985839 0.0062939137749 0.0063756892817 0.0064585474482 0.0065425356919 
0.0066276636696 0.006713948611 0.0068013675732 0.0068899324079 0.0069795670362 0.0070704638008 0.0071625584679 0.0072558139865 0.0073502520023 
0.0074458636826 0.0075427287215 0.0076407105761 0.0077398618619 0.0078401143422 0.0079415927306 0.0080442186523 0.0081479958516 0.0082529236461 
0.0083589469483 0.0084660781815 0.0085743369591 0.0086837128311 0.0087941575375 0.0089056938979 0.0090182768407 0.0091319800614 0.0092466072662 
0.0093622359528 0.0094787333666 0.0095962647813 0.0097146940268 0.0051520596982 0.005216804985 0.0052824957324 0.0053491431158 0.005416745467 
0.0054853344712 0.0055548935089 0.0056254501753 0.0056970009488 0.0057695892433 0.0058432029925 0.0059178601062 0.0059935739299 0.0060703460463 
0.0061482169202 0.0062271251751 0.006307098187 0.0063882037562 0.0064703513582 0.0065535921527 0.006637927856 0.0067233717728 0.0068099064665 
0.0068975569371 0.0069862261425 0.0070761109083 0.0071671579488 0.0072593020713 0.0073525754459 0.0074469948605 0.0075425912563 0.0076392420576 
0.0077369990813 0.0078358061922 0.0079357694979 0.0080368121551 0.0081389437597 0.0082421542813 0.0083464042193 0.0084516858141 0.0085580331568 
0.0086654040538 0.008773809143 0.0088831966276 0.0089935917639 0.0091049955115 0.0092172497094 0.0093304185166 0.0094444125323 0.0095592764846 
0.0051088167767 0.0051724125934 0.0052369250596 0.0053023585388 0.0053687274227 0.0054360338631 0.005504296333 0.0055735095627 0.0056436960844 
0.005714852386 0.0057870207523 0.005860200383 0.0059343837597 0.0060095974944 0.0060858378411 0.0061631308967 0.006241433213 0.0063207704818 
0.0064011858307 0.0064826203504 0.0065651014508 0.0066486390482 0.0067332429318 0.0068189013699 0.0069056293046 0.0069933254533 0.0070822331801 
0.0071721940981 0.0072632335134 0.0073553595373 0.0074485597343 0.0075428807045 0.0076381991437 0.007734510882 0.0078319260771 0.0079303801929 
0.0080298539703 0.0081303571405 0.0082318429177 0.0083343289455 0.0084377873321 0.0085422288885 0.0086476442983 0.0087539965459 0.0088612842771 
0.0089694816094 0.0090786401057 0.009188557576 0.0092992837993 0.0094107680038 0.0050671181376 0.0051296104592 0.0051929835209 0.0052572540052 
0.0053224229444 0.0053885027548 0.0054554962625 0.0055234230246 0.0055922845218 0.0056620944276 0.0057328583502 0.0058046079475 0.0058773240528 
0.0059510287297 0.0060257285743 0.0061014182744 0.0061781288755 0.0062558108106 0.0063345355958 0.0064142312792 0.0064949268893 0.0065766375575 
0.0066593624466 0.0067431196492 0.006827892949 0.0069136710976 0.007000423105 0.0070883225481 0.0071772193138 0.0072671546386 0.0073581174309 
0.0074500902617 0.0075431262988 0.0076371165809 0.0077320215185 0.0078279961617 0.0079249367677 0.0080228347196 0.008121699431 0.0082214978359 
0.008322228872 0.0084238661568 0.0085264406073 0.0086299015727 0.0087342360465 0.0088394349868 0.008945457281 0.0090522772987 0.0091599350321 