# vtk DataFile Version 5.1
vtk output
ASCII
DATASET STRUCTURED_POINTS
DIMENSIONS 50 50 50
SPACING 0.002 0.002 0.002
ORIGIN 0.1742 -0.052672 0.02732
POINT_DATA 125000
FIELD FieldData 1
potential 1 125000 double
0.00054806836769 0.00054533716968 0.00054262753812 0.00053993948091 0.0005372716979 0.00053462485163 0.00053199809474 0.00052939150569 0.00052680475262 
0.00052423753679 0.00052168978673 0.00051916156087 0.00051665344515 0.00051416406626 0.00051169407691 0.00050924393218 0.00050681176824 0.00050439937366 
0.00050200616096 0.00049963189439 0.00049727632897 0.00049493890556 0.00049261956323 0.00049031766315 0.00048803405035 0.00048576844864 0.00048352070215 
0.00048129124483 0.00047907962993 0.0004768861911 0.00047471078534 0.00047255375148 0.00047041463607 0.00046829325541 0.00046618937399 0.00046410314152 
0.00046203408105 0.00045998168642 0.00045794589624 0.00045592507461 0.00045392092504 0.00045193214541 0.00044995868238 0.00044800013794 0.00044605629339 
0.00044412690441 0.00044221167269 0.00044031049268 0.0004384226577 0.00043654825891 0.0005478097947 0.0005450841072 0.00054237974728 0.0005396958128 
0.00053703362097 0.00053439175549 0.000531769583 0.00052916785553 0.00052658592729 0.00052402372583 0.00052148089004 0.00051895790892 0.00051645479513 
0.00051397059245 0.00051150578131 0.00050906091256 0.00050663454235 0.00050422765741 0.00050183976852 0.00049947074587 0.00049712051992 0.00049478863567 
0.00049247487768 0.00049017855296 0.00048790057201 0.00048564060379 0.00048339857912 0.00048117442519 0.0004789684798 0.00047678050348 0.00047461057119 
0.00047245888789 0.00047032488818 0.0004682085207 0.00046610978764 0.00046402821986 0.00046196377087 0.00045991575576 0.00045788389876 0.00045586733649 
0.0004538668442 0.00045188173536 0.00044991177108 0.00044795639154 0.00044601584569 0.00044408952913 0.00044217745789 0.00044027932146 0.00043839448517 
0.0004365230289 0.00054733514266 0.00054461481315 0.00054191605772 0.00053923879984 0.00053658255659 0.0005339464161 0.00053133047157 0.00052873452603 
0.00052615865488 0.0005236021734 0.00052106587623 0.00051854876031 0.00051605164123 0.00051357340952 0.00051111454698 0.00050867501905 0.00050625544671 
0.00050385505103 0.00050147356182 0.0004991109954 0.00049676701295 0.0004944413992 0.00049213374723 0.0004898439166 0.00048757254776 0.00048531896382 
0.00048308323345 0.00048086538409 0.00047866579353 0.00047648386398 0.0004743201333 0.0004721744007 0.00047004630909 0.0004679357245 0.00046584224708 
0.00046376628193 0.00046170710395 0.00045966409497 0.00045763685922 0.00045562527768 0.00045362928135 0.00045164846261 0.00044968260313 0.00044773151577 
0.00044579475794 0.00044387239434 0.00044196382517 0.00044006916715 0.00043818800514 0.00043632005025 0.00054661816479 0.00054390507961 0.00054121385433 
0.00053854375255 0.00053589434779 0.00053326561524 0.00053065661039 0.00052806747864 0.00052549854684 0.00052294916971 0.00052041953739 0.00051790921574 
0.0005154193709 0.00051294839585 0.00051049681524 0.00050806448687 0.00050565203137 0.00050325871273 0.00050088436823 0.00049852898817 0.00049619228104 
0.00049387408614 0.00049157371308 0.00048929124511 0.00048702718979 0.00048478080881 0.00048255226772 0.00048034145257 0.00047814877288 0.00047597388209 
0.00047381708594 0.00047167802324 0.00046955668983 0.0004674527572 0.00046536562863 0.00046329579926 0.00046124254167 0.00045920518824 0.00045718306394 
0.00045517762878 0.0004531870627 0.0004512114777 0.00044925026212 0.0004473039925 0.00044537203165 0.00044345399671 0.00044154995048 0.00043965969588 
0.00043778283536 0.00043591914503 0.00054564122087 0.00054293698099 0.00054025424706 0.00053759228153 0.00053495100669 0.00053233028889 0.00052972959479 
0.00052714892894 0.00052458837532 0.00052204690252 0.000519525423 0.00051702335851 0.00051454168714 0.0005120782243 0.00050963496722 0.00050721083717 
0.00050480655181 0.00050242145438 0.00050005531267 0.00049770828033 0.00049537982874 0.00049306979183 0.00049077757754 0.00048850325132 0.00048624757393 
0.0004840093369 0.00048178880461 0.00047958641468 0.00047740153812 0.0004752347594 0.00047308550639 0.00047095402459 0.00046884017317 0.00046674327806 
0.00046466361484 0.00046260081963 0.00046055432249 0.00045852370994 0.0004565080232 0.00045450880023 0.00045252437824 0.00045055452617 0.00044859937097 
0.0004466586551 0.00044473199488 0.00044281934993 0.00044092050486 0.00043903539445 0.00043716377191 0.00043530508876 0.00054439287239 0.00054169830124 
0.00053902571771 0.00053637290758 0.00053374106697 0.00053112975042 0.00052853863051 0.0005259672647 0.00052341606532 0.00052088397365 0.00051837150638 
0.00051587878475 0.00051340625583 0.00051095248594 0.00050851782148 0.00050610343279 0.00050370857584 0.00050133294472 0.00049897611288 0.00049663825524 
0.00049431919638 0.00049201826998 0.00048973511424 0.00048746996114 0.00048522322644 0.00048299411601 0.00048078256737 0.0004785890786 0.00047641320988 
0.00047425513552 0.00047211454927 0.00046999154638 0.00046788616072 0.00046579777789 0.00046372612557 0.00046167126262 0.00045963262706 0.00045760932016 
0.00045560111167 0.00045360890969 0.00045163150724 0.00044966853733 0.00044771970942 0.00044578543978 0.00044386515479 0.00044195865822 0.00044006599495 
0.00043818690463 0.00043632121322 0.00043446851625 0.00054286917702 0.00054018572744 0.00053752351297 0.00053488192097 0.0005322608264 0.00052966016942 
0.00052707928282 0.00052451867138 0.00052197790186 0.00051945641162 0.00051695408723 0.00051447191374 0.00051200949163 0.00050956642952 0.00050714226672 
0.00050473814583 0.00050235354659 0.00049998844795 0.00049764193591 0.00049531441673 0.00049300553308 0.00049071481576 0.00048844214706 0.00048618718539 
0.00048395077418 0.00048173177416 0.00047953014843 0.00047734672681 0.00047518043682 0.00047303187089 0.00047090108421 0.00046878763946 0.00046669136231 
0.0004646121694 0.00046254948095 0.00046050331123 0.00045847304491 0.00045645788502 0.0004544584363 0.00045247442803 0.00045050494683 0.00044854951777 
0.00044660837671 0.000444681559 0.00044276849751 0.00044086910612 0.00043898337378 0.00043711116143 0.0004352522329 0.0004334064824 0.00054107316794 
0.00053840177208 0.00053575122777 0.00053312172888 0.00053051252717 0.00052792373435 0.00052535494804 0.00052280587376 0.0005202768022 0.00051776710954 
0.0005152767673 0.00051280561036 0.00051035485256 0.00050792281211 0.00050551059558 0.00050311797735 0.00050074487445 0.00049839089419 0.00049605569433 
0.00049373966133 0.00049144195931 0.00048916266538 0.00048690125305 0.0004846575855 0.00048243208932 0.00048022399384 0.00047803344294 0.00047586065077 
0.00047370515645 0.00047156732386 0.00046944697154 0.00046734364768 0.00046525755464 0.00046318839075 0.00046113555715 0.00045909916971 0.00045707829434 
0.00045507235617 0.00045308237242 0.00045110740826 0.00044914654917 0.00044719980253 0.00044526702652 0.00044334841536 0.00044144332616 0.00043955192645 
0.00043767411388 0.00043580959824 0.00043395850693 0.00043212020743 0.00053901509816 0.0005363568058 0.00053371941224 0.0005311030263 0.00052850688167 
0.0005259311411 0.00052337535773 0.00052083942113 0.00051832300662 0.00051582601601 0.00051334814496 0.00051089005461 0.00050845191085 0.00050603235794 
0.00050363260325 0.0005012525433 0.00049889175197 0.00049655004039 0.00049422729121 0.00049192334759 0.00048963800369 0.00048737090846 0.0004851218113 
0.00048289010319 0.00048067646779 0.00047848022524 0.00047630185279 0.00047414062275 0.00047199673891 0.00046987034981 0.00046776126358 0.00046566917896 
0.00046359419413 0.00046153577337 0.00045949385593 0.00045746786631 0.00045545694365 0.00045346201578 0.00045148207898 0.00044951662864 0.00044756510909 
0.00044562780924 0.00044370454336 0.00044179491974 0.0004398987801 0.00043801628988 0.0004361471831 0.00043429144788 0.00043244850327 0.00043061831151 
0.00053671179548 0.00053406785338 0.000531444848 0.00052884261507 0.00052626087672 0.00052369925185 0.00052115765077 0.00051863559731 0.00051613297903 
0.00051364965741 0.00051118563093 0.00050874158596 0.00050631653482 0.00050391035538 0.00050152430226 0.00049915749714 0.00049680986085 0.00049448153697 
0.0004921720485 0.00048988131592 0.00048760892148 0.00048535511503 0.00048311919439 0.00048090048752 0.00047869942489 0.00047651621687 0.00047435042048 
0.00047220171467 0.00047007037149 0.00046795624341 0.00046585926587 0.00046377929078 0.00046171603606 0.00045966931116 0.0004576388792 0.0004556242615 
0.00045362471477 0.0004516409011 0.00044967163897 0.00044771662229 0.00044577569544 0.00044384858918 0.0004419352746 0.00044003551754 0.00043814914552 
0.00043627638196 0.0004344169337 0.0004325701508 0.00043073649576 0.00042891522077 0.00053418739725 0.00053155876137 0.00052895081628 0.00052636400859 
0.00052379737411 0.00052125062645 0.0005187239063 0.00051621683588 0.00051372906712 0.00051126015326 0.00050881083229 0.00050638153125 0.00050397082527 
0.00050157951229 0.00049920759884 0.00049685507374 0.00049452153767 0.00049220723249 0.00048991187925 0.00048763505413 0.00048537674343 0.00048313670441 
0.00048091414154 0.00047870961203 0.00047652258198 0.00047435271294 0.00047220005971 0.00047006492689 0.00046794675699 0.00046584565403 0.00046376151411 
0.00046169443271 0.00045964366021 0.00045760939052 0.00045559090934 0.00045358810633 0.00045160112528 0.00044962880173 0.0004476712382 0.00044572737432 
0.00044379763273 0.00044188167472 0.00043997917798 0.00043808999379 0.00043621411299 0.00043435173738 0.00043250210266 0.00043066527312 0.00042884133623 
0.0004270299191 0.00053147076271 0.0005288582768 0.00052626654739 0.00052369551344 0.00052114485058 0.00051861424294 0.00051610308561 0.0005136118433 
0.00051113938342 0.00050868626035 0.00050625244837 0.00050383867749 0.00050144301854 0.00049906712628 0.00049671037195 0.00049437281019 0.00049205413356 
0.00048975452291 0.00048747391576 0.00048521167834 0.00048296812347 0.00048074260165 0.00047853457796 0.00047634429979 0.00047417138494 0.00047201579738 
0.00046987737468 0.00046775605463 0.00046565188501 0.00046356452624 0.00046149387475 0.00045944003068 0.0004574025821 0.00045538126294 0.00045337595442 
0.00045138565768 0.0004494111223 0.00044745119466 0.00044550569395 0.00044357394683 0.00044165596328 0.00043975150802 0.0004378603982 0.00043598248632 
0.00043411795613 0.00043226619771 0.00043042717577 0.00042860095223 0.00042678722965 0.00042498627081 0.00052859575552 0.00052599999623 0.00052342527948 
0.00052087131438 0.00051833712619 0.00051582304965 0.0005133286145 0.00051085315015 0.0005083971385 0.00050596033193 0.00050354271978 0.00050114452395 
0.00049876524145 0.00049640523026 0.00049406423626 0.00049174218011 0.00048943920856 0.0004871548568 0.00048488939495 0.0004826425808 0.00048041414895 
0.0004782037218 0.00047601045918 0.00047383532238 0.00047167740888 0.00046953638644 0.00046741258677 0.00046530577603 0.00046321583517 0.00046114280052 
0.00045908638794 0.00045704636162 0.00045502246206 0.00045301472817 0.00045102272958 0.00044904555505 0.00044708407341 0.00044513702681 0.00044320410559 
0.00044128470015 0.00043937900066 0.00043748675563 0.00043560756743 0.00043374160624 0.00043188849755 0.00043004819094 0.00042822055412 0.00042640528984 
0.0004246025998 0.00042281237889 0.0005256002904 0.000523022207 0.00052046477475 0.00051792810396 0.00051541111017 0.00051291415127 0.00051043672533 
0.00050797818712 0.00050553892722 0.00050311873055 0.00050071803036 0.00049833635029 0.00049597331548 0.0004936296399 0.0004913051102 0.000488998867 
0.00048671178834 0.00048444311605 0.00048219363126 0.0004799623149 0.000477749355 0.00047555425992 0.00047337679373 0.00047121654029 0.00046907377361 
0.00046694809495 0.00046483936465 0.00046274753683 0.00046067238681 0.00045861389203 0.00045657184474 0.0004545462579 0.00045253633813 0.00045054232409 
0.00044856364474 0.00044660049689 0.00044465233656 0.00044271846424 0.00044079852841 0.00043889202775 0.00043699898766 0.0004351192199 0.00043325282548 
0.00043139878308 0.00042955759071 0.00042772918082 0.00042591329753 0.00042410959417 0.00042231802411 0.00042053912655 0.00052252430543 0.00051996432239 
0.00051742477942 0.00051490538422 0.000512406342 0.00050992693214 0.00050746653177 0.0005050252195 0.00050260354425 0.00050020042173 0.00049781605139 
0.00049545157497 0.00049310544795 0.00049077796878 0.00048846981068 0.00048618045916 0.00048390926528 0.00048165714376 0.00047942351343 0.00047720812356 
0.00047501104315 0.00047283203016 0.00047066945316 0.00046852502681 0.00046639768674 0.00046428722056 0.00046219365656 0.00046011716402 0.0004580568394 
0.00045601307615 0.00045398587637 0.00045197458217 0.00044997897738 0.00044799917596 0.00044603427526 0.00044408488786 0.00044215032114 0.00044023004287 
0.0004383232532 0.00043643012133 0.00043455012146 0.00043268314212 0.00043082930208 0.00042898787563 0.00042715880044 0.00042534258995 0.00042353851461 
0.00042174680261 0.00041996697368 0.00041819936696 0.00051940899028 0.00051686766843 0.00051434627178 0.00051184463999 0.00050936366117 0.00050690170751 
0.0005044588992 0.00050203528565 0.0004996308465 0.00049724533623 0.00049487779142 0.00049253026693 0.00049020071905 0.00048789007019 0.00048559857866 
0.00048332560644 0.00048107087384 0.00047883516925 0.00047661756592 0.00047441810406 0.00047223717268 0.00047007373392 0.00046792723066 0.00046579817031 
0.00046368654875 0.00046159142717 0.00045951296491 0.00045745142922 0.00045540640249 0.00045337754369 0.00045136477317 0.00044936795933 0.00044738707553 
0.00044542083976 0.0004434702091 0.00044153481748 0.00043961396867 0.00043770722198 0.00043581387909 0.00043393400611 0.000432067174 0.00043021346334 
0.00042837217549 0.00042654328715 0.00042472674315 0.0004229226733 0.00042113078291 0.00041935070368 0.00041758314811 0.00041582720352 0.00051629612086 
0.00051377302101 0.00051126988196 0.00050878656741 0.00050632297964 0.00050387890902 0.00050145409413 0.0004990477927 0.0004966606776 0.00049429225489 
0.00049194247942 0.00048961133462 0.00048729873904 0.00048500481067 0.00048272978865 0.0004804732825 0.00047823521656 0.00047601530756 0.00047381383942 
0.0004716305549 0.00046946529959 0.00046731783055 0.00046518698538 0.00046307346636 0.00046097714494 0.00045889726199 0.00045683410666 0.00045478765345 
0.00045275714336 0.00045074302527 0.00044874491776 0.00044676241973 0.00044479584132 0.00044284377734 0.00044090722605 0.00043898558776 0.00043707840267 
0.000435185085 0.00043330523512 0.00043143855051 0.00042958518945 0.00042774426155 0.00042591575993 0.00042409951129 0.0004222953604 0.00042050389594 
0.00041872408242 0.00041695611393 0.00041520033861 0.0004134562831 0.00051322481893 0.00051071985699 0.00050823504477 0.00050576929321 0.0005033238241 
0.00050089743916 0.00049849014539 0.00049610144922 0.00049373157161 0.00049137968563 0.0004890470724 0.00048673283856 0.00048443690975 0.00048215947221 
0.00047990086054 0.00047766055495 0.00047543859209 0.00047323489411 0.00047104928481 0.0004688816982 0.00046673222711 0.00046460019036 0.00046248458017 
0.00046038659764 0.00045830544448 0.00045624052203 0.00045419232667 0.000452160266 0.00045014432909 0.00044814476231 0.00044616092901 0.00044419261762 
0.00044223940855 0.00044030189717 0.00043837916499 0.00043647108907 0.00043457753624 0.00043269763025 0.00043083100039 0.00042897779697 0.00042713727378 
0.00042530882557 0.00042349319558 0.00042168955075 0.00041989808084 0.00041811859604 0.00041635106933 0.0004145950764 0.0004128512845 0.00041111896623 
0.0005102318256 0.00050774491624 0.00050527767914 0.0005028297219 0.00050040203971 0.00049799331661 0.00049560303475 0.00049323154784 0.00049087866829 
0.00048854362158 0.00048622745558 0.00048392963082 0.00048165003646 0.0004793890503 0.00047714610884 0.00047492175764 0.00047271566281 0.00047052776553 
0.00046835750979 0.00046620545669 0.00046407141314 0.00046195372058 0.00045985380377 0.00045777046166 0.00045570428742 0.00045365398446 0.00045162021313 
0.00044960251199 0.00044760078445 0.00044561528837 0.00044364532076 0.00044169082547 0.00043975111042 0.00043782712861 0.00043591776095 0.00043402306015 
0.00043214290124 0.00043027593742 0.00042842267713 0.00042658211175 0.00042475427315 0.00042293837397 0.00042113519489 0.00041934424153 0.00041756503182 
0.00041579744241 0.00041404206228 0.00041229826977 0.00041056592456 0.00040884545201 0.0005073495402 0.00050488057851 0.00050243075561 0.00050000034763 
0.0004975902095 0.0004951983461 0.00049282501786 0.00049047011862 0.00048813323027 0.00048581504105 0.00048351524476 0.00048123322709 0.00047896964378 
0.00047672425308 0.00047449707356 0.00047228795906 0.00047009703451 0.000467924467 0.00046576947245 0.00046363198612 0.00046151276943 0.000459410015 
0.00045732430277 0.00045525580298 0.00045320339078 0.00045116744494 0.00044914726177 0.00044714377576 0.00044515565963 0.00044318345869 0.00044122670562 
0.00043928495134 0.00043735920136 0.00043544812737 0.000433551544 0.00043166999411 0.00042980244294 0.00042794843618 0.00042610752891 0.00042427954098 
0.00042246391832 0.00042066055807 0.00041886964966 0.00041709095003 0.00041532366533 0.0004135680849 0.00041182435826 0.00041009223919 0.00040837160923 
0.00040666253329 0.00050460695516 0.0005021550402 0.00049972253388 0.00049730915601 0.00049491570897 0.00049254036309 0.00049018335794 0.00048784479548 
0.00048552386306 0.00048322138444 0.00048093726474 0.00047867091357 0.00047642263198 0.00047419216209 0.0004719797776 0.00046978568956 0.00046760959099 
0.00046545149241 0.0004633111558 0.00046118821139 0.00045908279771 0.0004569941667 0.00045492249407 0.0004528671864 0.00045082847017 0.00044880581709 
0.00044679914225 0.0004448084445 0.00044283359176 0.00044087447574 0.0004389303357 0.0004370010009 0.0004350877568 0.00043318936344 0.0004313053278 
0.00042943601675 0.00042758072699 0.00042573864467 0.0004239100165 0.00042209398232 0.00042029038253 0.00041849937209 0.00041672021718 0.00041495302443 
0.00041319744267 0.00041145360544 0.00040972158528 0.00040800074835 0.00040629157436 0.00040459382567 0.00050202703283 0.00049959208652 0.00049717629069 
0.00049477960207 0.00049240200144 0.00049004244122 0.00048770106546 0.00048537794948 0.00048307285167 0.00048078551059 0.00047851645564 0.00047626479151 
0.0004740309907 0.00047181504048 0.00046961685512 0.0004674372939 0.00046527520271 0.00046313075575 0.00046100414889 0.00045889483872 0.00045680304154 
0.00045472745175 0.00045266893711 0.0004506266482 0.00044860058965 0.00044659086684 0.00044459662747 0.00044261840927 0.00044065595659 0.00043870857946 
0.00043677596946 0.00043485935461 0.00043295805044 0.0004310711839 0.00042919876301 0.00042734160174 0.00042549756226 0.00042366710139 0.00042185013552 
0.00042004591967 0.00041825389618 0.00041647430325 0.00041470636743 0.00041295062225 0.00041120655928 0.00040947393485 0.00040775302293 0.00040604357562 
0.00040434545258 0.00040265849706 0.00049962897994 0.00049721028073 0.00049481025846 0.00049242919093 0.00049006709292 0.00048772314026 0.00048539703069 
0.00048308840883 0.00048079812743 0.00047852565668 0.00047627047668 0.00047403269725 0.0004718128235 0.00046961075504 0.00046742658591 0.00046525995718 
0.00046311119865 0.00046097992391 0.00045886638082 0.00045676993717 0.00045469049771 0.00045262721454 0.00045058112132 0.0004485512294 0.0004465372774 
0.00044453916366 0.00044255653341 0.00044058986222 0.00043863869531 0.00043670274727 0.00043478165867 0.00043287634746 0.00043098583642 0.0004291102653 
0.00042724930049 0.00042540243866 0.00042356970358 0.00042175022462 0.00041994414474 0.00041815067598 0.00041636984536 0.00041460101018 0.00041284420026 
0.00041109939952 0.0004093661471 0.00040764456605 0.00040593444038 0.00040423565426 0.00040254818078 0.00040087183826 0.00049742715859 0.00049502353453 
0.00049263889851 0.0004902726617 0.00048792507191 0.00048559584075 0.0004832840267 0.00048099015511 0.0004787136349 0.00047645464457 0.00047421295164 
0.00047198837063 0.0004697817653 0.00046759293872 0.00046542145716 0.00046326763377 0.00046113099807 0.00045901214894 0.0004569104255 0.00045482602993 
0.00045275836962 0.00045070654256 0.00044867204774 0.00044665378491 0.00044465064732 0.0004426635001 0.00044069185381 0.00043873576733 0.0004367951439 
0.00043486920324 0.00043295925969 0.00043106418311 0.00042918413742 0.00042731923925 0.00042546828868 0.00042363181214 0.00042180893285 0.00041999972411 
0.00041820404338 0.00041642099499 0.0004146501852 0.00041289185183 0.00041114562361 0.00040941110399 0.00040768847249 0.00040597753698 0.0004042777289 
0.00040258936504 0.0004009119052 0.0003992454231 0.00049543115284 0.00049304213436 0.00049067177905 0.00048831959853 0.00048598631023 0.00048367105388 
0.00048137237852 0.00047909188714 0.00047682871004 0.00047458292755 0.00047235331286 0.00047014160786 0.00046794743128 0.00046577076197 0.0004636112222 
0.000461469174 0.00045934419222 0.00045723658708 0.00045514602457 0.00045307233193 0.00045101565419 0.00044897516586 0.00044695090591 0.00044494281554 
0.00044295036799 0.00044097296282 0.00043901129456 0.00043706521268 0.00043513432808 0.00043321816772 0.00043131815156 0.00042943253323 0.00042756236733 
0.00042570642339 0.00042386477769 0.00042203768182 0.00042022471625 0.00041842474712 0.00041663860518 0.0004148652042 0.00041310443985 0.00041135554352 
0.00040961939246 0.00040789510384 0.00040618255593 0.00040448138368 0.00040279194422 0.00040111297683 0.00039944514523 0.00039778813091 0.00049364766093 
0.00049127233416 0.00048891546717 0.00048657709044 0.00048425676986 0.00048195415085 0.00047966879906 0.00047740093028 0.00047514964554 0.00047291576375 
0.00047069873547 0.00046849910782 0.00046631606311 0.00046415051576 0.00046200203617 0.00045987074359 0.00045775666876 0.00045565941464 0.00045357928249 
0.00045151577107 0.00044946892942 0.00044743836673 0.00044542404013 0.0004434251365 0.00044144187418 0.00043947401396 0.00043752169512 0.00043558455547 
0.00043366217351 0.00043175539468 0.00042986400811 0.00042798729723 0.00042612527733 0.00042427787911 0.00042244535861 0.00042062679786 0.00041882240264 
0.00041703145491 0.00041525423488 0.00041348951343 0.00041173792877 0.00040999881624 0.00040827196869 0.00040655696965 0.0004048542537 0.00040316267587 
0.0004014820199 0.00039981237573 0.00039815365597 0.00039650564403 0.0004920800916 0.00048971826912 0.00048737407169 0.00048504829702 0.00048273988321 
0.00048044963121 0.00047817614439 0.00047592002538 0.000473680719 0.00047145796633 0.00046925198661 0.00046706308435 0.00046489094934 0.0004627357098 
0.00046059723064 0.00045847589385 0.00045637209634 0.00045428455039 0.0004522137361 0.00045015965384 0.00044812168853 0.00044610012082 0.00044409428783 
0.00044210422181 0.00044012960036 0.00043817004699 0.00043622601082 0.00043429696207 0.00043238271818 0.0004304843616 0.00042860032497 0.00042673158663 
0.00042487764879 0.00042303821981 0.00042121324203 0.00041940271256 0.00041760629971 0.0004158232734 0.00041405423406 0.00041229820219 0.00041055510042 
0.00040882445376 0.00040710652379 0.00040540065682 0.00040370647012 0.00040202340703 0.00040035179236 0.00039869123229 0.00039704113034 0.00039540165905 
0.00049073010014 0.00048838043176 0.00048604809735 0.00048373382831 0.00048143707076 0.00047915809935 0.00047689595488 0.00047465075184 0.0004724222419 
0.00047021018235 0.00046801435449 0.00046583496611 0.00046367244224 0.00046152706924 0.00045939830792 0.00045728626939 0.00045519106819 0.00045311254297 
0.00045105053789 0.00044900482651 0.00044697501483 0.00044496141351 0.00044296392443 0.00044098156194 0.00043901437295 0.00043706227863 0.00043512558587 
0.00043320324711 0.00043129732336 0.00042940565407 0.00042752901254 0.00042566741831 0.00042382067687 0.00042198811886 0.00042017043936 0.00041836678562 
0.00041657751848 0.00041480211509 0.00041304070584 0.00041129237218 0.00040955722919 0.00040783441121 0.000406124614 0.00040442682805 0.00040274083141 
0.00040106622433 0.00039940304002 0.00039775037955 0.00039610844121 0.0003944767944 0.00048959555003 0.00048725695954 0.00048493593269 0.00048263253272 
0.0004803466205 0.00047807836024 0.0004758261658 0.00047359102645 0.00047137288343 0.00046917013673 0.0004669835788 0.0004648135735 0.00046266014579 
0.00046052351689 0.00045840338184 0.00045629981437 0.00045421327774 0.00045214248577 0.00045008800588 0.00044805002085 0.00044602787866 0.00044402159857 
0.00044203087654 0.00044005565673 0.00043809524409 0.00043614982149 0.00043421971039 0.00043230421678 0.00043040446726 0.00042851958054 0.0004266492237 
0.00042479369394 0.00042295319519 0.0004211271271 0.00041931589031 0.00041751880029 0.0004157361867 0.00041396743046 0.00041221297036 0.0004104716697 
0.00040874379375 0.00040702850613 0.00040532590849 0.00040363553897 0.00040195722035 0.0004002902422 0.0003986341916 0.00039698948542 0.00039535496231 
0.00039373081735 0.00048867247563 0.00048634432691 0.00048403400457 0.00048174074219 0.00047946486229 0.0004772061253 0.0004749637076 0.00047273784521 
0.00047052856329 0.00046833472643 0.00046615684802 0.00046399547369 0.00046185024512 0.00045972154524 0.00045760905982 0.00045551302125 0.00045343341504 
0.00045137031768 0.00044932319307 0.00044729178322 0.00044527664482 0.00044327684247 0.00044129260826 0.0004393235407 0.00043736927463 0.00043542969357 
0.00043350525591 0.00043159609093 0.0004297016358 0.00042782227388 0.00042595763206 0.00042410785425 0.00042227296279 0.00042045278754 0.00041864739716 
0.00041685634795 0.00041507960072 0.00041331706608 0.00041156869756 0.00040983404887 0.0004081125031 0.0004064039757 0.0004047082532 0.0004030245078 
0.0004013528102 0.00039969274479 0.00039804375435 0.00039640565776 0.00039477814599 0.00039316097696 0.00048795475488 0.00048563647353 0.00048333522486 
0.00048105172843 0.00047878508018 0.00047653533129 0.00047430210673 0.00047208495873 0.00046988343356 0.00046769759412 0.00046552783774 0.00046337400648 
0.00046123622354 0.00045911473123 0.00045700931679 0.00045492007188 0.00045284726638 0.00045079055982 0.00044874991155 0.00044672478243 0.00044471549206 
0.0004427216846 0.00044074327287 0.00043877974316 0.00043683088921 0.0004348975271 0.0004329773826 0.0004310731884 0.00042918387288 0.00042730941807 
0.00042544999649 0.00042360545437 0.00042177523082 0.0004199600754 0.00041815968816 0.00041637403345 0.00041460292588 0.00041284621295 0.00041110376046 
0.00040937471313 0.00040765885431 0.00040595626458 0.00040426634497 0.00040258897646 0.00040092348902 0.00039926968155 0.00039762688525 0.00039599484978 
0.00039437359113 0.00039276241117 0.00048743339766 0.00048512437292 0.00048283223005 0.00048055692377 0.00047829847412 0.0004760572574 0.00047383159101 
0.0004716222688 0.00046942829585 0.00046725003069 0.00046508729921 0.00046294043599 0.00046080956486 0.00045869464341 0.00045659571522 0.00045451263779 
0.00045244576523 0.00045039493614 0.00044835982815 0.00044634021423 0.00044433629352 0.00044234744436 0.00044037429104 0.0004384159458 0.00043647261153 
0.00043454263379 0.00043262804668 0.00043072847149 0.00042884373039 0.0004269736432 0.00042511836482 0.00042327829641 0.0004214527534 0.0004196420524 
0.00041784652917 0.0004160655171 0.00041429923886 0.00041254719316 0.00041080972975 0.0004090858258 0.00040737521169 0.00040567822594 0.00040399396397 
0.00040232206095 0.00040066236435 0.00039901383638 0.00039737655712 0.00039575006686 0.00039413420736 0.00039252844901 0.00048709598746 0.00048479458902 
0.00048251049522 0.00048024296831 0.00047799262064 0.00047575828726 0.00047353988406 0.0004713378173 0.00046915093233 0.0004669795038 0.00046482349768 
0.00046268310737 0.00046055847412 0.00045844987662 0.00045635685758 0.00045427960128 0.00045221822275 0.00045017234464 0.00044814205788 0.00044612730025 
0.00044412812577 0.00044214434128 0.00044017537106 0.00043822145884 0.00043628165842 0.00043435651294 0.00043244612153 0.00043055047227 0.00042866986375 
0.00042680408442 0.00042495278539 0.00042311653881 0.00042129517967 0.00041948850214 0.0004176965158 0.00041592000858 0.00041415801474 0.00041241022392 
0.00041067710944 0.0004089580042 0.00040725233383 0.00040555982852 0.00040388040088 0.00040221364049 0.0004005587279 0.00039891526538 0.00039728264102 
0.00039566109399 0.00039404983583 0.00039244859856 0.00048692479145 0.00048463142829 0.00048235459837 0.00048009469441 0.00047785091412 0.00047562357134 
0.00047341197656 0.00047121625517 0.00046903601685 0.000466870625 0.00046472067118 0.00046258636234 0.00046046764902 0.00045836440351 0.00045627659746 
0.00045420433915 0.00045214788994 0.00045010708534 0.00044808125085 0.00044607085563 0.00044407619929 0.00044209656033 0.00044013156712 0.0004381813927 
0.00043624527151 0.0004343241471 0.00043241782411 0.00043052533896 0.00042864848817 0.00042678619861 0.00042493877161 0.00042310607148 0.00042128824252 
0.00041948518033 0.00041769702957 0.00041592403855 0.00041416583559 0.00041242228625 0.00041069305482 0.00040897796214 0.00040727638691 0.00040558800097 
0.00040391265426 0.00040224999438 0.00040059931617 0.00039896030829 0.00039733208618 0.0003957142386 0.00039410727533 0.00039251015973 0.0004869011439 
0.00048461457122 0.00048234486584 0.00048009120373 0.00047785400114 0.00047563284578 0.00047342766737 0.00047123793829 0.00046906339488 0.00046690382946 
0.00046475961458 0.0004626308698 0.00046051725441 0.00045841895445 0.0004563360447 0.00045426835494 0.00045221661259 0.00045017979191 0.00044815793952 
0.00044615197766 0.00044416119714 0.00044218560859 0.00044022439161 0.00043827713985 0.00043634507245 0.0004344273343 0.00043252428992 0.00043063605775 
0.00042876178625 0.00042690268875 0.00042505827402 0.00042322893191 0.00042141440822 0.00041961487736 0.00041783002009 0.00041606059592 0.00041430587344 
0.00041256539717 0.00041083975412 0.00040912797338 0.0004074302218 0.00040574532739 0.00040407378738 0.00040241460876 0.00040076765013 0.00039913199604 