# vtk DataFile Version 5.1
vtk output
ASCII
DATASET STRUCTURED_POINTS
DIMENSIONS 50 50 50
SPACING 0.002 0.002 0.002
ORIGIN 0.1742 -0.052672 0.02732
POINT_DATA 125000
FIELD FieldData 1
potential 1 125000 double
0.0010342451493 0.0010267484928 0.0010193228045 0.001011967521 0.0010046824375 0.00099746628766 0.00099031867972 0.00098323829544 0.00097622377482 
0.00096927347084 0.00096238622121 0.00095556245749 0.00094879893731 0.00094209866704 0.00093546049184 0.00092888561771 0.00092237312851 0.00091592220316 
0.00090953283866 0.00090320402684 0.00089693211932 0.00089071447096 0.00088454721583 0.00087843018203 0.00087235886516 0.00086633140498 0.00086035006938 
0.00085441529551 0.0008485296641 0.00084269468038 0.00083691322963 0.00083119177298 0.00082553105964 0.00081993262135 0.00081440006189 0.00080893137082 
0.00080354182694 0.00079819898854 0.00079291569606 0.00078768980788 0.00078251711123 0.00077739597482 0.00077232441206 0.00076730253235 0.00076232927858 
0.00075740543066 0.00075253227177 0.00074771187543 0.00074294544782 0.00073823525896 0.0010422120104 0.001034630512 0.0010271200953 0.0010196810651 
0.0010123136171 0.0010050175614 0.00099778642801 0.00099062589039 0.00098353169573 0.00097650223218 0.00096953518805 0.00096263111707 0.00095579019447 
0.00094901099091 0.00094229446269 0.00093564058034 0.0009290507048 0.00092252068895 0.00091605339794 0.00090964584333 0.00090329554538 0.00089700006175 
0.00089075667963 0.00088456319 0.00087841893661 0.00087232093867 0.00086626878928 0.00086026627668 0.00085431436081 0.00084841564412 0.00084257138319 
0.0008367887588 0.00083106786726 0.00082541121172 0.0008198186446 0.00081429256777 0.00080883046349 0.00080344536716 0.00079810457743 0.00079282093779 
0.00078759127407 0.00078241346174 0.00077728640125 0.00077220823692 0.00076718012375 0.00076220210588 0.00075727618398 0.00075240404244 0.00074758708973 
0.00074282800819 0.0010497290095 0.0010420678056 0.001034477679 0.001026960241 0.0010195147852 0.001012141701 0.0010048372796 0.00099759789377 
0.00099042862594 0.00098332479022 0.00097628288296 0.00096930425317 0.00096238813134 0.0009555348515 0.00094874309317 0.00094201476189 0.0009353489293 
0.00092874361953 0.00092220006944 0.00091571638952 0.00090929070613 0.00090291998855 0.00089660254061 0.00089033542027 0.00088411873881 0.00087795094595 
0.00087183155547 0.0008657634857 0.00085974785298 0.00085378795708 0.00084788412926 0.00084204222195 0.00083626355216 0.00083054951092 0.00082490070679 
0.0008193180054 0.00081379965982 0.00080834321028 0.00080296225908 0.0007976226506 0.00079233805909 0.00078710530333 0.00078192354565 0.00077679241588 
0.00077171163106 0.0007666825768 0.00076170619184 0.00075678546451 0.00075192120767 0.00074711602177 0.0010566988808 0.0010489621498 0.0010412987901 
0.0010337079939 0.0010261910067 0.0010187466002 0.0010113705724 0.0010040632338 0.00099682126917 0.00098964727642 0.0009825362443 0.00097548756408 
0.00096850229657 0.00096157825988 0.00095471697826 0.00094791824742 0.00094118045416 0.00093450364053 0.00092788716237 0.00092133020251 0.00091483238369 
0.00090838969719 0.00090200004422 0.00089566273479 0.00088937700143 0.00088314285958 0.00087695994114 0.00087082876351 0.00086475233074 0.00085873178865 
0.0008527719164 0.00084687404688 0.00084104051848 0.000835271779 0.0008295695435 0.00082393185445 0.00081835957699 0.000812849469 0.00080739945359 
0.00080202206928 0.00079668423135 0.00079139902868 0.00078616572795 0.0007809833942 0.00077585335051 0.0007707757059 0.00076575247952 0.000760785843 
0.00075587825016 0.00075103112319 0.0010630457383 0.0010552394646 0.0010475080906 0.0010398506511 0.0010322664451 0.0010247553454 0.0010173147964 
0.0010099425691 0.0010026386015 0.00099539728645 0.00098822155998 0.00098110847569 0.00097405786754 0.00096706908634 0.00096014238496 0.00095327804693 
0.00094647306486 0.00093972916939 0.00093304445464 0.00092641869229 0.00091985170121 0.00091333945378 0.0009068830321 0.00090047935765 0.00089412932125 
0.00088783173535 0.00088158811381 0.00087539799577 0.00086926422549 0.00086318862064 0.00085717446772 0.00085122310406 0.00084533682831 0.00083951693878 
0.00083376346778 0.00082807490848 0.00082245069589 0.00081689030597 0.00081138897098 0.00080594541196 0.00080057312873 0.00079523863026 0.00078995637385 
0.0007847266609 0.00077954960069 0.00077442700464 0.00076936022435 0.00076435157414 0.00075940385051 0.00075451793178 0.0010687219657 0.0010608508547 
0.0010530571143 0.0010453376604 0.001037692556 0.001030120595 0.0010226198798 0.0010151887245 0.0010078248742 0.0010005286379 0.00099329035062 
0.00098611884774 0.00097900847431 0.00097195976089 0.00096497181486 0.00095804684368 0.00095118000054 0.00094437229113 0.00093762457007 0.00093093473162 
0.00092430288697 0.00091772708547 0.00091120757719 0.00090474342577 0.00089833300288 0.00089197651376 0.00088567545627 0.00087943060894 0.00087324213548 
0.00086711556934 0.00086105035408 0.00085504961083 0.00084911414326 0.00084324594576 0.00083744385134 0.00083170681413 0.00082603503824 0.00082042608668 
0.00081487708447 0.00080938614747 0.00080395081296 0.0007985869599 0.0007932585318 0.00078798451599 0.00078276428588 0.00077759994423 0.00077249322492 
0.00076744584466 0.00076246109876 0.00075754054544 0.0010737091538 0.0010657794146 0.0010579274963 0.0010501508834 0.0010424505492 0.0010348231514 
0.0010272683395 0.0010197827232 0.0010123651479 0.0010050137284 0.00099772551836 0.00099049624912 0.00098333103936 0.00097622839092 0.00096918567742 
0.00096220379531 0.00095527930701 0.00094841387451 0.00094160745645 0.00093485898737 0.00092816881486 0.00092153447244 0.0009149574763 0.00090843607533 
0.0009019701135 0.00089555991233 0.0008892058976 0.00088290995365 0.00087667202634 0.00087049720342 0.00086438474125 0.00085833778647 0.00085235716478 
0.00084644343059 0.00084059593025 0.00083481520119 0.0008290977228 0.00082344366655 0.00081784999703 0.00081231483213 0.00080683591682 0.00080142877498 
0.00079605896951 0.00079074345506 0.00078548367865 0.00078028129554 0.00077513813865 0.00077005585904 0.00076503822303 0.00076008586998 0.0010780236652 
0.00107003966 0.0010621337442 0.0010543054901 0.0010465541984 0.0010388758125 0.0010312708078 0.001023736672 0.0010162693976 0.0010088685944 
0.0010015311061 0.0009942514878 0.00098703661928 0.00097988328019 0.0009727899436 0.00096575536165 0.00095877959782 0.00095186239792 0.00094500333945 
0.00093820210248 0.00093145729581 0.00092477107618 0.00091814188535 0.00091156801026 0.0009050518063 0.00089859232169 0.00089219035985 0.00088584579778 
0.00087956383631 0.00087334490842 0.00086718975311 0.00086109951679 0.00085507647324 0.00084912019682 0.0008432321076 0.00083740919002 0.00083164957943 
0.0008259538334 0.00082031883627 0.00081474231942 0.0008092228536 0.00080375943501 0.00079836751562 0.00079301412975 0.00078771819911 0.0007824817848 
0.00077730536258 0.00077219193 0.00076714487936 0.00076216466995 0.0010818303727 0.0010736749609 0.0010657197524 0.0010578422258 0.0010500436272 
0.0010423195319 0.0010346682443 0.0010270881467 0.0010195764824 0.0010121300455 0.0010047483075 0.0009974273053 0.00099016401319 0.00098296350697 
0.00097582410187 0.00096874367894 0.00096171986821 0.00095475572195 0.00094784923795 0.000940999807 0.00093420806212 0.00092747312103 0.00092079661194 
0.00091417712339 0.000907614618 0.00090111101134 0.00089466599009 0.00088827926064 0.00088195520775 0.0008756954501 0.00086950026915 0.00086337120347 
0.00085730815273 0.00085131307565 0.00084538543874 0.00083952366148 0.00083372565792 0.00082799064187 0.00082231749178 0.00081670254043 0.00081114566427 
0.00080564575707 0.00080020289033 0.00079483166696 0.00078950304832 0.00078423471543 0.00077902941544 0.00077388755701 0.00076881359162 0.00076380810319 
0.0010849654138 0.0010767606045 0.0010687580004 0.0010608350572 0.0010529919765 0.0010452246081 0.0010375304554 0.0010299066389 0.0010223527264 
0.0010148641491 0.0010074404537 0.0010000779631 0.00099277656854 0.00098553026002 0.00097834904963 0.00097122482578 0.00096415965814 0.0009571533268 
0.00095020343989 0.00094331198208 0.00093647838255 0.00092970311201 0.00092298522182 0.00091632480348 0.00090972242531 0.00090317857897 0.00089669409154 
0.00089026874116 0.00088390749602 0.0008776084733 0.00087137581436 0.00086520996385 0.00085911079849 0.00085307931035 0.00084711472783 0.00084121639788 
0.00083538227114 0.00082961035954 0.00082390082036 0.00081825077285 0.00081266019289 0.00080712650772 0.00080165149994 0.00079623405657 0.00079089191235 
0.00078559523084 0.00078036281378 0.00077519631081 0.0007700988796 0.0007650712562 0.0010876430306 0.0010795120229 0.0010713433971 0.0010633772956 
0.0010554911267 0.0010476812252 0.0010399446551 0.0010322807171 0.0010246866226 0.0010171578517 0.0010096935597 0.0010022920597 0.00099495196311 
0.00098767231943 0.00098044825007 0.00097328611773 0.00096618292931 0.00095913694375 0.00095215034076 0.00094522143947 0.00093835043005 0.00093153716739 
0.00092478210181 0.00091808584732 0.00091144757214 0.00090486811174 0.00089834754217 0.00089188944156 0.00088549357149 0.00087916259854 0.00087289545915 
0.00086669518662 0.00086056216793 0.00085449583677 0.00084849578979 0.00084256268712 0.00083669349876 0.00083088724015 0.00082514366255 0.00081946107202 
0.00081383797001 0.00080827342108 0.00080276813764 0.00079732257437 0.00079193696805 0.00078663159405 0.0007813753047 0.00077618630146 0.00077106785131 
0.00076602020464 0.001089975298 0.0010817995597 0.0010737073497 0.0010655748297 0.0010576467877 0.0010497951433 0.0010420185689 0.0010343144926 
0.0010266799331 0.0010191122727 0.0010116096899 0.0010041709419 0.00099679460846 0.00098947858342 0.00098222331961 0.00097502160007 0.00096788298207 
0.00096080372177 0.00095378429509 0.00094682155777 0.0009399170805 0.00093307084425 0.00092628288658 0.00091955395798 0.00091288393691 0.00090627407762 
0.00089972155837 0.00089323200657 0.00088680449718 0.00088044162793 0.00087414302383 0.00086791146385 0.00086174477708 0.00085564543411 0.00084961332857 
0.00084364595426 0.00083774420198 0.00083190531838 0.00082612993939 0.00082041590391 0.00081476188329 0.00080916869608 0.00080363481059 0.00079816354172 
0.00079275315644 0.00078740825445 0.0007821470664 0.00077693763388 0.00077179972114 0.00076673434434 0.0010920778128 0.001083857431 0.0010757213283 
0.0010676689477 0.0010595722885 0.0010516786201 0.0010438625473 0.0010361179366 0.0010284437503 0.0010208374625 0.0010132971132 0.0010058212242 
0.00099840962926 0.00099105979698 0.00098377046183 0.00097654046498 0.00096936593258 0.00096225543141 0.00095520370921 0.0009482118764 0.00094127776523 
0.00093440267945 0.00092758626727 0.00092082858784 0.00091412989354 0.00090748865465 0.00090091018506 0.00089439161705 0.00088793513048 0.00088154288448 
0.00087521345057 0.00086895044851 0.00086275268761 0.00085662152294 0.00085055717243 0.00084455797887 0.00083862251101 0.00083275208941 0.0008269454059 
0.00082120141661 0.00081551883556 0.00080989819684 0.00080434023603 0.00079884437498 0.00079341227162 0.00078804600734 0.0007827650726 0.00077753629383 
0.000772380226 0.00076729798293 0.0010940702065 0.0010858036843 0.0010776218674 0.0010695246041 0.0010613835615 0.0010534462059 0.0010455869648 
0.0010378021144 0.0010300869893 0.0010224410785 0.0010148631994 0.0010073514841 0.00099990459438 0.00099252183502 0.00098519870168 0.00097793829722 
0.00097073894075 0.00096359401878 0.00095651368627 0.00094949417997 0.00094253287443 0.00093563201341 0.00092878880907 0.00092200495439 0.00091528025236 
0.00090861272333 0.00090200711729 0.0008954614334 0.00088897647252 0.00088255622478 0.00087619891827 0.00086990593223 0.0008636773197 0.00085751471451 
0.00085141771909 0.00084538654177 0.00083942016433 0.00083351748783 0.00082768018218 0.00082190693616 0.00081619652719 0.00081054985817 0.0008049671857 
0.00079944893152 0.00079399582908 0.00078860943511 0.00078329394028 0.00077806604304 0.00077289338691 0.00076779490835 0.0010960592319 0.0010877444165 
0.0010795157142 0.0010713726813 0.0010633094802 0.0010552021897 0.001047297494 0.0010394700188 0.0010317139096 0.001024028044 0.0010164115041 
0.0010088622387 0.0010013808542 0.0009939631707 0.00098660862424 0.00097931789217 0.00097208894573 0.00096492205048 0.00095780909631 0.0009507625837 
0.00094377647263 0.00093684978676 0.00092998183919 0.00092317288933 0.00091642176915 0.00090973147021 0.0009031006393 0.00089652936659 0.000890018219 
0.00088357094122 0.00087718461127 0.00087086152416 0.00086460289827 0.00085840970336 0.00085228037937 0.00084621646096 0.00084021859496 0.00083428579496 
0.00082841683638 0.00082261447809 0.00081687707579 0.00081120459333 0.00080559852524 0.00080005794569 0.00079458491254 0.00078918038262 0.00078384723222 
0.00077858583716 0.00077341439529 0.00076829956494 0.0010981444644 0.00108977854 0.001081499495 0.0010733073595 0.0010651959644 0.0010571662781 
0.0010490903139 0.0010412168378 0.0010334165342 0.0010256893587 0.0010180330736 0.0010104453149 0.0010029265815 0.00099547597161 0.00098808956004 
0.00098076758268 0.00097350932693 0.00096631392264 0.00095918040947 0.0009521010415 0.00094509019952 0.00093813884629 0.0009312467964 0.00092441381243 
0.00091763882856 0.0009109246814 0.0009042692172 0.0008976729332 0.00089113608726 0.00088465974683 0.00087824514855 0.00087189253165 0.00086560407155 
0.00085937961772 0.00085321861992 0.00084712255013 0.00084109276351 0.00083512815007 0.0008292291665 0.000823397835 0.00081763317621 0.00081193556203 
0.00080630578972 0.00080074357128 0.00079525063527 0.00078982843461 0.00078447782502 0.00077919985802 0.00077399541052 0.00076888201405 0.0011004053953 
0.0010919859282 0.001083654097 0.0010754098877 0.0010672479977 0.0010591681846 0.0010511670244 0.0010431210417 0.0010352759782 0.0010275052712 
0.0010198068917 0.0010121786634 0.0010046222697 0.00099713506509 0.00098971464503 0.00098235991043 0.00097507171461 0.0009678477694 0.00096068646571 
0.00095358733396 0.00094654349126 0.00093956820228 0.0009326522737 0.0009257939476 0.00091899630727 0.00091225704664 0.00090557701079 0.00089895511494 
0.00089239264225 0.00088588945026 0.00087944581759 0.00087306339188 0.00086674337876 0.00086048741044 0.00085429471889 0.0008481667134 0.00084210457353 
0.00083610864106 0.00083017965258 0.00082431821689 0.0008185263147 0.00081280263559 0.00080714975204 0.00080156627277 0.00079605352408 0.00079061283243 
0.00078524428725 0.00077994962711 0.00077472871569 0.00076959781673 0.0011029083771 0.0010944317598 0.0010860450098 0.0010777450465 0.0010695297595 
0.0010613969989 0.0010533456899 0.0010452477695 0.0010373543969 0.0010295364713 0.001021793275 0.0010141232767 0.0010065272897 0.00099900255012 
0.00099154518065 0.00098415709417 0.0009768368816 0.00096958263534 0.00096239209485 0.00095526533981 0.00094819494073 0.00094119370973 0.00093425206561 
0.00092736858756 0.00092054575176 0.00091378235255 0.00090707612972 0.00090042915626 0.00089383876151 0.00088730804567 0.00088083583545 0.00087442397485 
0.0008680731435 0.0008617843881 0.00085555930667 0.0008493990483 0.00084330371993 0.00083727597527 0.00083131667496 0.00082542634555 0.00081960535109 
0.00081385644378 0.00080817877364 0.00080257359806 0.0007970417983 0.00079158114253 0.00078619454861 0.00078088223379 0.0007756430168 0.00077047868634 
0.0011057008093 0.0010971646528 0.0010887187622 0.0010803608292 0.001072089453 0.0010639012087 0.0010557954131 0.0010477703432 0.00103969984 
0.0010318325541 0.0010240428093 0.0010163283168 0.0010086907962 0.0010011252793 0.0009936314436 0.00098620698657 0.00097885181146 0.00097156449069 
0.00096434299127 0.00095718620871 0.00095009335553 0.00094305652114 0.0009360876104 0.00092917884793 0.0009223296462 0.00091553912933 0.00090880694414 
0.00090213203659 0.0008955139513 0.00088895457384 0.00088245372777 0.00087601017601 0.00086962879245 0.00086330797858 0.0008570494896 0.00085085648612 
0.00084472931009 0.00083866882097 0.00083267775558 0.00082675780133 0.0008209101138 0.0008151332069 0.00080943154232 0.00080380351558 0.00079825053457 
0.00079277071899 0.00078736445755 0.00078203339725 0.00077677643099 0.00077159364488 0.0011088185641 0.0011002190175 0.0010917109756 0.001083292961 
0.0010749617247 0.0010667164591 0.001058553515 0.0010504732674 0.001042473093 0.0010344295268 0.0010265908215 0.001018829414 0.0010111462417 
0.0010035388703 0.00099600292637 0.00098854012498 0.00098114808848 0.00097382494428 0.00096656987598 0.00095938089681 0.00095225665594 0.00094519627763 
0.00093819009273 0.00093125292204 0.00092437523533 0.00091755691264 0.00091079622603 0.00090409287687 0.00089744622406 0.00089085695083 0.00088432506612 
0.00087785197804 0.00087143760395 0.00086508449879 0.00085879349383 0.00085256633484 0.00084640652907 0.00084031375927 0.00083429185018 0.00082834158637 
0.00082246505832 0.00081666262528 0.00081093445998 0.00080528267323 0.00079970722091 0.00079420659063 0.00078878116586 0.00078342920027 0.00077815406956 
0.0007729514693 0.0011122849644 0.0011036189332 0.0010950463476 0.0010865631607 0.0010781706927 0.0010698643988 0.0010616424575 0.0010535035301 
0.0010454492759 0.0010373510492 0.0010294606808 0.0010216498406 0.0010139188093 0.0010062645012 0.00099868614183 0.00099118005528 0.00098374770378 
0.00097638648807 0.00096909383137 0.00096186919708 0.00095471133442 0.00094761644297 0.00094058644438 0.00093361113319 0.00092670249488 0.00091985386298 
0.00091306283671 0.00090632944436 0.00089965268142 0.00089303340958 0.00088647081911 0.00087996652534 0.00087351894634 0.00086713300166 0.00086080855824 
0.00085454886255 0.00084835507864 0.00084222969222 0.00083617661003 0.00083019601867 0.00082428988959 0.00081846025322 0.00081270788631 0.00080702951528 
0.00080143062213 0.00079590873009 0.00079046212645 0.00078509026877 0.00077979403385 0.00077457091941 0.0011161150991 0.0011073792459 0.0010987389156 
0.0010901890406 0.0010817315209 0.0010733612184 0.0010650763513 0.0010568785825 0.0010487658363 0.00104073721 0.0010326651005 0.0010248025275 
0.001017019145 0.0010093157632 0.0010016907573 0.00099413976735 0.00098666408373 0.00097926061735 0.00097192816715 0.00096466488342 0.00095746941214 
0.00095033845931 0.00094327334854 0.00093627185957 0.00092932300631 0.00092244150323 0.00091561801476 0.00090885341029 0.00090214501633 0.00089549472598 
0.00088890093884 0.00088236340741 0.00087588350821 0.00086946405946 0.00086310654315 0.00085681295503 0.00085058640915 0.00084442829912 0.00083834364564 
0.00083233269294 0.0008263971302 0.00082053894308 0.00081475972185 0.00080905803259 0.00080343312173 0.00079788748816 0.00079241944435 0.00078702617583 
0.00078170775211 0.00077646300441 0.0011203169521 0.0011115087179 0.001102796268 0.0010941769808 0.0010856509254 0.0010772136205 0.0010688654601 
0.0010606050192 0.0010524309004 0.0010443427662 0.0010363390128 0.0010282935702 0.0010204571254 0.0010127012257 0.0010050257301 0.00099742605848 
0.00098990376533 0.00098245528766 0.00097507999451 0.00096777410429 0.00096053627511 0.00095336797015 0.00094626533194 0.00093922713694 0.00093225099347 
0.00092532690657 0.0009184702063 0.00091167216958 0.000904931046 0.00089824763531 0.00089162078775 0.00088505082399 0.00087853869056 0.00087208481837 
0.00086569415898 0.0008593672591 0.00085310757442 0.00084691709843 0.00084079965767 0.00083475734347 0.0008287924463 0.00082290582474 0.00081709868572 
0.00081137115399 0.00080572270978 0.00080015270102 0.00079466049639 0.00078924454771 0.00078390443023 0.00077863700929 0.0011248938512 0.0011160097121 
0.0011072229955 0.0010985299921 0.0010899331834 0.0010814274802 0.0010730119236 0.0010646859829 0.0010564484352 0.0010482984626 0.0010402334888 
0.0010321281979 0.0010242349503 0.0010164233458 0.0010086935297 0.0010010424334 0.00099346984145 0.00098597311382 0.00097855105228 0.00097120081817 
0.00096391990258 0.00095670924482 0.00094956468496 0.00094248722695 0.00093547412484 0.00092851275739 0.00092162041975 0.00091478761555 0.0009080132158 
0.0009012956404 0.00089463388264 0.00088803096973 0.00088148533999 0.00087499805576 0.00086857314595 0.00086221286443 0.00085591977992 0.00084969705655 
0.0008435482867 0.00083747435476 0.00083147912969 0.00082556436262 0.00081972965339 0.00081397503716 0.00080830150585 0.00080270650437 0.00079718922944 
0.00079175070382 0.00078638723974 0.00078109605459 0.0011298494019 0.0011208860362 0.0011120209402 0.0011032534094 0.0010945826599 0.0010860045879 
0.0010775187275 0.001069124212 0.0010608198737 0.0010526039889 0.0010444756024 0.0010364347853 0.0010283525284 0.0010204831676 0.0010126953765 
0.0010049892607 0.00099736302125 0.00098981451977 0.00098234228966 0.00097494251608 0.00096761701537 0.00096035988953 0.00095317378768 0.00094605356402 
0.00093899937704 0.00093200841583 0.0009250709547 0.0009182007631 0.00091139013898 0.00090463664074 0.00089794089209 0.00089130284448 0.00088472320735 
0.00087820275626 0.00087174404754 0.00086535048269 0.00085902430178 0.00085276919892 0.00084658810717 0.00084048311974 0.0008344581211 0.00082851369967 
0.00082265262861 0.00081687165339 0.00081117057451 0.00080555112958 0.00080000890345 0.00079454534567 0.00078915788278 0.00078384186711 0.0011351827669 
0.0011261367129 0.0011171916703 0.0011083444197 0.001099596532 0.0010909434716 0.001082384212 0.0010739187961 0.0010655437973 0.0010572602533 
0.0010490655608 0.0010409588578 0.0010328097861 0.0010248783488 0.001017031124 0.0010092658573 0.001001583036 0.00099397939816 0.00098645169267 
0.00097900262071 0.00097162741987 0.00096432437397 0.00095709195508 0.00094992851105 0.00094283136681 0.00093579905297 0.00092882911846 0.00092191244579 
0.00091506394634 0.0009082734731 0.00090154286712 0.00089487050682 0.00088825670239 0.00088170257796 0.0008752100983 0.00086878339848 0.00086242430522 
0.000856137286 0.00084992428502 0.0008437886198 0.00083773320227 0.00083175952667 0.00082586849877 0.00082006039465 0.00081433310722 0.00080868712851 
0.00080312149972 0.00079763040571 0.0007922165156 0.00078687530482 0.0011408956199 0.0011317640281 0.0011227340362 0.0011138052269 0.001104977245 
0.0010962445616 0.0010876085597 0.0010790677302 0.0010706195982 0.0010622640205 0.0010539993804 0.001045824367 0.00103773726 0.0010296110441 
0.0010217000209 0.0010138724771 0.0010061296034 0.00099846740647 0.00099088365271 0.00098337977566 0.00097595313946 0.00096860030474 0.00096131904241 
0.00095410904858 0.00094696724336 0.00093989213832 0.00093288100364 0.00092593203394 0.00091903484148 0.0009122072837 0.0009054393705 0.00089873041015 
0.00089208093578 0.00088549249833 0.0008789670753 0.00087250765525 0.00086611580551 0.0008597959687 0.0008535523558 0.00084738602965 0.00084130032146 
0.00083529755499 0.00082937713154 0.00082354098079 0.00081778725094 0.00081211487778 0.00080652213717 0.0008010065443 0.00079556348162 0.00079019533455 
0.0011469906363 0.0011377687415 0.0011286511883 0.0011196371335 0.0011107254637 0.0011019114572 0.0010931954528 0.001084576235 0.0010760510023 
0.0010676196511 0.0010592811162 0.0010510341057 0.0010428768031 0.0010348084427 0.0010267009834 0.00101880866 0.0010110014887 0.0010032771521 
0.00099563596912 0.00098807474483 0.00098059230645 0.00097318703313 0.00096585490968 0.00095859537402 0.00095140488106 0.00094428387099 0.00093722928578 
0.00093023822927 0.00092330947289 0.00091643379538 0.00090962722964 0.00090288203875 0.00089619791228 0.00088957533975 0.00088301575659 0.00087652342395 
0.00087009903333 0.00086374821829 0.00085747183821 0.0008512755353 0.00084516023406 0.00083912754506 0.00083317897385 0.00082731340779 0.00082153235001 
0.0008158320114 0.00081021160742 0.00080466833102 0.0007991980065 0.00079379837796 0.001153472694 0.0011441578385 0.0011349492627 0.0011258450788 
0.0011168452169 0.0011079465509 0.0010991467139 0.0010904448021 0.0010818388133 0.0010733286455 0.0010649125648 0.0010565895437 0.0010483577882 
0.0010402166946 0.0010320373581 0.001024075421 0.0010162017356 0.0010084119904 0.0010007086935 0.00099308731021 0.00098554705163 0.00097808494932 
0.00097069935373 0.00096338803366 0.00095614754607 0.00094897925647 0.0009418772667 0.00093484184934 0.00092787121797 0.0009209542153 0.00091410872999 
0.00090732544263 0.0009006050953 0.00089394781912 0.00088735481893 0.00088082876162 0.00087437274867 0.00086799088811 0.00086168368863 0.00085545699084 
0.00084931159424 0.00084324951464 0.00083727111134 0.00083137651678 0.00082556677689 0.00081983788416 0.00081418790076 0.00080861478314 0.00080311451611 
0.00079768522272 0.0011603482934 0.0011509339702 0.0011416300104 0.0011324321294 0.0011233404351 0.0011143516504 0.0011054654874 0.0010966774681 
0.001087987075 0.0010793940392 0.0010708956333 0.0010624915773 0.0010541816914 0.0010459639037 0.0010378382457 0.001029675407 0.0010217295685 
0.0010138731209 0.0010061034238 0.00099841933433 0.00099081750184 0.00098329714737 0.00097585496952 0.00096848929869 0.00096119770944 0.00095397666644 
0.00094682651022 0.00093974499074 0.00093272863369 0.00092577888246 0.00091888309982 0.00091206084535 0.00090530344544 0.00089860988052 0.00089198289795 
0.00088542358063 0.00087893649746 0.00087252301418 0.00086618634931 0.00085992805761 0.00085375213712 0.00084766131938 0.00084165283712 0.00083572883185 
0.00082988729296 0.00082412765845 0.00081844635647 0.00081284109593 0.00080730861393 0.00080184562306 0.0011676200483 0.0011581044864 0.0011487008361 
0.0011394051486 0.001130217388 0.0011211343583 0.0011121541202 0.0011032761461 0.0010944966739 0.0010858162955 0.001077233039 0.0010687450393 
0.0010603518555 0.0010520543217 0.0010438490864 0.0010357374999 0.0010275896618 0.001019662058 0.0010118230406 0.0010040732036 0.00099640772716 
0.00098882586033 0.00098132395148 0.00097390081473 0.00096655387823 0.00095927971898 0.0009520789752 0.00094494707506 0.00093788390042 0.00093088861808 
0.00092396016274 0.00091708812931 0.00091028746727 0.00090355794162 0.00089689611268 0.0008903032328 0.00088378432095 0.00087733931983 0.00087097177895 
0.00086468390791 0.00085847698289 0.00085235361625 0.0008463146331 0.00084035908507 0.00083448536742 0.0008286919286 0.00082297747654 0.00081733781864 
0.00081177010736 0.00080626991995 0.0011752949334 0.0011656730734 0.0011561656068 0.0011467670672 0.0011374787831 0.00112829665 0.0011192198059 
0.0011102460963 0.0011013741298 0.0010926013685 0.0010839269558 0.0010753514336 0.0010668710755 0.0010584881857 0.001050201749 0.0010420076167 
0.0010337825746 0.0010257810833 0.0010178701487 0.0010100507969 0.0010023184547 0.00099466689229 0.00098710266493 0.00097961996016 0.00097221465007 
0.00096488501408 0.00095762935209 0.00095044561529 0.00094333264987 0.00093628960267 0.00092931623621 0.0009224112759 0.00091556592068 0.00090879811175 
0.00090210019384 0.00089547356763 0.00088892077769 0.00088244418039 0.00087604500772 0.00086972568061 0.00086348875626 0.00085733248342 0.00085126057716 
0.00084527124961 0.00083936421167 0.00083353478366 0.00082778371991 0.0008221062743 0.0008164984621 0.00081095784924 0.0011833728641 0.0011736401228 
0.0011640245454 0.0011545203035 0.0011451265702 0.0011358411928 0.001126663096 0.001117588491 0.0011086179068 0.0010997488728 0.0010909808978 
0.0010823115593 0.0010737407613 0.001065265147 0.0010568901817 0.001048613531 0.0010404336741 0.0010322247586 0.0010242402512 0.0010163470696 
0.0010085448195 0.0010008302243 0.00099320073362 0.00098565390989 0.00097818701704 0.0009707980351 0.00096348576902 0.00095624662969 0.00094908037115 
0.00094198791506 0.0009349666709 0.00092801685919 0.00092112843486 0.00091432161288 0.00090758655764 0.00090092435837 0.0008943376419 0.00088782800098 
0.00088139680793 0.00087504497181 0.00086877544862 0.00086258608556 0.00085647935135 0.00085045418495 0.00084450904597 0.00083864187653 0.00083284978813 
0.00082713083969 0.00082148005003 0.00081589553994 0.0011918533777 0.0011820071174 0.0011722770611 0.0011626621196 0.0011531582102 0.0011437640856 
0.001134479517 0.0011252972513 0.0011162243522 0.001107253924 0.0010983858756 0.0010896197198 0.0010809531324 0.0010723883486 0.0010639220209 
0.0010555581529 0.0010472944148 0.0010390026469 0.0010309380292 0.0010229689283 0.0010150933968 0.0010073085367 0.00099960952135 0.00099199571205 
0.00098446362059 0.00097701347871 0.00096963965956 0.00096234273558 0.00095512065903 0.00094797361812 0.0009409012982 0.00093390320605 0.00092698042539 
0.00092012137381 0.00091334665151 0.00090664819877 0.00090002593988 0.00089348234989 0.00088701747679 0.00088063169136 0.00087432689731 0.00086810291557 
0.00086195867893 0.00085589487286 0.00084990975491 0.00084400048325 0.00083816464783 0.00083239943615 0.00082670232506 0.00082106923655 0.0012007297178 
0.0011907648368 0.001180913538 0.0011711817911 0.0011615640842 0.0011520565356 0.001142660201 0.0011333730102 0.0011241912379 0.0011151151124 
0.0011061437794 0.0010972755422 0.0010885094093 0.0010798450935 0.0010712856339 0.001062830849 0.0010544787923 0.0010462285428 0.0010379528483 
0.0010299043564 0.0010219511926 0.0010140923761 0.0010063217888 0.00099863809797 0.00099103882593 0.00098352053411 0.00097608283359 0.00096872463308 
0.00096144237866 0.00095423833955 0.00094711139142 0.00094006207727 0.00093309147316 0.00092619792527 0.00091937099177 0.00091263304526 0.00090597374 
0.0008993933292 0.00089289269771 0.00088647166552 0.00088012932499 0.00087386694916 0.00086768406568 0.00086157892695 0.00085554988279 0.00084959379776 
0.00084370992475 0.00083789498121 0.00083214690528 0.00082646169512 0.001209976474 0.0011998889411 0.0011899194227 0.0011800681725 0.0011703316306 
0.0011607069754 0.0011511946379 0.0011417924618 0.0011324989741 0.0011233141696 0.0011142341317 0.0011052595971 0.0010963897581 0.0010876247073 
0.0010789676757 0.0010704164219 0.0010619720666 0.0010536324229 0.0010452692184 0.0010371383933 0.0010291056346 0.0010211677812 0.0010133225654 
0.0010055653902 0.00099789439263 0.00099030645898 0.00098280024125 0.00097537667429 0.00096803131369 0.00096076539043 0.00095358100431 0.0009464769968 