# vtk DataFile Version 5.1
vtk output
ASCII
DATASET STRUCTURED_POINTS
DIMENSIONS 50 50 50
SPACING 0.002 0.002 0.002
ORIGIN 0.1742 -0.052672 0.02732
POINT_DATA 125000
FIELD FieldData 1
potential 1 125000 double
0.036944046042 0.036957775541 0.036971542718 0.036985249352 0.036999419618 0.037013341704 0.037027309879 0.037041272884 0.037055255592 
0.037069255955 0.037083207599 0.037097149345 0.037111258807 0.037125095248 0.037139087457 0.037153083631 0.037167027634 0.037181017152 
0.037195041285 0.037209360875 0.037223513319 0.037237690094 0.03725183116 0.037265978069 0.037280138977 0.037294370638 0.0373086796 
0.037323128212 0.03733769341 0.037352411608 0.037367308085 0.037382434346 0.037397794544 0.037413342655 0.03742913069 0.037445151495 
0.037461395353 0.037477898256 0.037494723717 0.037511612751 0.037528895801 0.03754644325 0.037564313018 0.037582546494 0.037601054793 
0.03761988832 0.037639068588 0.037658498409 0.037678291115 0.037698463885 0.036856497749 0.036869993114 0.036883591877 0.036897409475 
0.036911208245 0.03692509999 0.036938932023 0.036952767886 0.036966615967 0.036980544073 0.036994388806 0.037008307888 0.037022213591 
0.037036263261 0.037050227628 0.037064463352 0.03707845569 0.037092332799 0.037106409626 0.037120563509 0.037134735396 0.037148906865 
0.037163171306 0.037177420095 0.037191699753 0.03720606458 0.037220528241 0.037235089537 0.037249807577 0.037264691719 0.037279758293 
0.037295072713 0.037310551442 0.037326245319 0.037342210884 0.037358358467 0.037374778406 0.03739146438 0.03740834333 0.037425388084 
0.037442740035 0.037460402492 0.037478420932 0.037496662232 0.037515241373 0.037534133962 0.037553266256 0.037572718411 0.037592542337 
0.037612740924 0.036759670917 0.036772732675 0.036786447266 0.036799939727 0.036813628735 0.036827297324 0.036841058353 0.036854810193 
0.036868568136 0.036882328417 0.036896456499 0.036910272497 0.03692412368 0.036938123765 0.036951989994 0.036965958654 0.036979978425 
0.036994041033 0.037008161235 0.037022370196 0.037036601964 0.037050720755 0.037064963705 0.037079288155 0.037093745487 0.037108227036 
0.037122801349 0.037137495477 0.037152354532 0.037167350905 0.037182593242 0.037198017484 0.037213629711 0.03722946426 0.037245492806 
0.037261805879 0.037278395156 0.037295151653 0.037312073008 0.037329265846 0.037346744845 0.037364488433 0.037382570666 0.037400785756 
0.037419413084 0.037438258964 0.037457506983 0.037477089356 0.037496935713 0.03751713065 0.036651000597 0.036664358587 0.0366776758 
0.036691168157 0.036704794983 0.036718629608 0.036732201411 0.03674558828 0.036759215248 0.036772973226 0.036786739934 0.036800471815 
0.036814275884 0.036828135493 0.036842042661 0.03685595408 0.036870016936 0.036884117404 0.036898248419 0.036912411105 0.036926694819 
0.036941009389 0.036955368727 0.036969823385 0.036984305294 0.036998916488 0.037013595 0.037028204062 0.037043161546 0.0370582667 
0.03707363207 0.037089151598 0.037104933662 0.037120889543 0.037137013194 0.037153487362 0.037170128638 0.037186966143 0.037203915663 
0.037221264243 0.037238707952 0.037256589932 0.037274647937 0.037293029481 0.037311592653 0.037330556557 0.037349834256 0.037369388831 
0.037389280795 0.037409471527 0.036529600772 0.036542708779 0.036555938418 0.036569256398 0.036582639856 0.036596208911 0.036609686764 
0.03662321352 0.036636849027 0.036650390727 0.036664137773 0.036677867494 0.036691623881 0.036705008009 0.036718879749 0.036732963101 
0.036747002425 0.036761091608 0.036775241478 0.036789494586 0.036803731424 0.036818108435 0.036832535399 0.036847019444 0.036861613758 
0.03687622767 0.036890976966 0.036905925348 0.036920959881 0.036936224454 0.036951621394 0.036967228867 0.036983071327 0.036998885815 
0.037015201397 0.03703172564 0.037048309842 0.037065190409 0.037082253073 0.037099655335 0.0371173376 0.037135191079 0.037153204021 
0.03717161707 0.037190301823 0.037209282466 0.037228562487 0.037248111895 0.037268015764 0.037288190061 0.036393575989 0.036406629241 
0.036419781806 0.036432942052 0.036446214051 0.036459552831 0.036473073636 0.036486495792 0.036499993537 0.036513525335 0.036527089029 
0.036540759512 0.036554425622 0.036568155608 0.036581961099 0.036595904506 0.036610069857 0.036624195377 0.036638376186 0.036652569946 
0.03666691966 0.036681309667 0.03669547494 0.036709997984 0.036724624288 0.036739337854 0.036754150657 0.036769086183 0.036784245686 
0.036799579408 0.036815054167 0.036830732779 0.036846516929 0.036862677336 0.036879007493 0.036895604908 0.036912403302 0.036929299177 
0.036946450472 0.036963936826 0.036981608776 0.036999392365 0.037017311474 0.037035741354 0.037054437914 0.03707341625 0.037092656265 
0.037112240323 0.037132126264 0.037152287015 0.036243043729 0.036255993923 0.036268981829 0.036282081506 0.03629525362 0.036308488231 
0.036321744281 0.03633521679 0.036348625046 0.036362053142 0.03637553486 0.036389122108 0.036402673126 0.03641647172 0.036430240725 
0.036444156459 0.036458168921 0.036472395008 0.036486573282 0.036500804953 0.03651518933 0.036529600749 0.036544026783 0.036558591017 
0.036573271971 0.036588040553 0.036602890091 0.036617853665 0.036632968085 0.03664830312 0.036663887581 0.036679641489 0.036695617715 
0.036711792904 0.036728171491 0.036744800162 0.036761550222 0.036778527717 0.036795750065 0.036813280544 0.036830877019 0.036848768968 
0.036866919488 0.03688535784 0.036904054258 0.036923021898 0.036942245443 0.036961809056 0.036981664161 0.037001835519 0.03607802521 
0.036090813922 0.036103735862 0.036116715985 0.036129773064 0.036142918235 0.036156110726 0.03616935278 0.036182794921 0.036196124447 
0.03620954221 0.036222979023 0.036236593185 0.036250234025 0.036263992092 0.036277964378 0.03629192988 0.036306012227 0.036320302426 
0.036334584192 0.036348921842 0.036363352818 0.036377744436 0.036392292266 0.03640698499 0.036421764024 0.036436647642 0.036451747679 
0.036466942765 0.036482335347 0.036497883804 0.036513675186 0.036529694869 0.036545905374 0.036562315082 0.036578969046 0.036595744555 
0.036612733418 0.036630062105 0.036647445352 0.036665143503 0.036683055246 0.03670119355 0.036719615164 0.036738272481 0.03675724169 
0.036776449731 0.036795978768 0.036815761285 0.036835941689 0.035899216523 0.035911870108 0.035924640963 0.035937560192 0.035950523861 
0.035963575243 0.035976695764 0.035989879007 0.036003070312 0.036016470041 0.036029725322 0.036043168694 0.036056755902 0.03607034875 
0.036084056366 0.036097788323 0.036111819063 0.036125863216 0.03614018351 0.036154393381 0.036168734614 0.03618316542 0.036197677043 
0.036212263589 0.036226954375 0.036241683597 0.036256673516 0.036271733564 0.036286949421 0.03630235163 0.036317979411 0.036333741157 
0.036349755091 0.036365972693 0.036382451968 0.036399032134 0.036415859089 0.036432978152 0.036450138984 0.036467610958 0.03648526074 
0.036503153489 0.036521309632 0.036539703161 0.036558343566 0.036577229531 0.036596441415 0.036615887688 0.036635647237 0.036655794662 
0.035707779252 0.035720325786 0.035733002471 0.03574582141 0.035758712505 0.035771597312 0.035784614604 0.035797707699 0.035810846987 
0.035824039884 0.035837346244 0.035850702536 0.035864126996 0.035877765319 0.035891424238 0.035905206848 0.035919102758 0.035933119784 
0.035947378748 0.035961727063 0.035975997287 0.035990433063 0.036004948908 0.036019540753 0.036034187589 0.036049042249 0.036063941661 
0.036079003912 0.03609423607 0.036109678871 0.036125265308 0.036141070893 0.036157083335 0.03617327708 0.036189705957 0.036206298951 
0.036223227239 0.036240180052 0.036257428824 0.036274874684 0.036292518383 0.036310378267 0.036328488824 0.036346842753 0.036365450396 
0.0363843169 0.036403451019 0.036422872912 0.036442703313 0.036462701584 0.035505393845 0.03551783518 0.035530398972 0.035543091027 
0.035555928787 0.035568755689 0.035581713447 0.035594735876 0.035607800857 0.03562083535 0.035634027416 0.035647443671 0.03566083849 
0.035674325787 0.03568799967 0.035701733746 0.035715575167 0.035729604081 0.035743689671 0.035757876716 0.035772341872 0.035786740755 
0.035801236937 0.035815821377 0.035830539477 0.03584531657 0.03586022205 0.035875260109 0.035890522624 0.035905907646 0.035921499196 
0.035937312233 0.035953304354 0.0359695114 0.035985864404 0.03600233285 0.03601926545 0.036036288672 0.036053561788 0.036070954693 
0.036088569887 0.036106415912 0.036124498343 0.036142797403 0.0361613615 0.036180118988 0.036199215248 0.036218663362 0.036238376099 
0.036258257159 0.035294332303 0.035306672889 0.035319133419 0.035331653483 0.035344355762 0.035357210932 0.03537006194 0.035383009104 
0.035395908529 0.035408954489 0.0354220856 0.035435326391 0.035448612826 0.035462175521 0.035475770383 0.035489510678 0.035503359797 
0.035517273601 0.035531317775 0.035545457442 0.035559685602 0.03557426555 0.035588724448 0.035603306715 0.035617952045 0.035632723094 
0.035647622639 0.035662703831 0.035677875023 0.03569326672 0.035708838132 0.035724616051 0.03574060347 0.035756778346 0.035773030197 
0.035789653863 0.035806469911 0.035823467147 0.035840653885 0.035858056202 0.035875629076 0.035893415893 0.035911434003 0.03592968997 
0.035948121758 0.035966934796 0.035985992206 0.036005343734 0.036024882031 0.036044695893 0.035076951318 0.035089188672 0.035101540628 
0.035114042916 0.035126637091 0.035139384748 0.035152175059 0.035164919888 0.035177818246 0.035190799242 0.035203839598 0.035216993065 
0.035230268077 0.035243675933 0.035257309561 0.035270989629 0.035284802027 0.035298655324 0.03531263597 0.035326745024 0.03534092833 
0.035355256891 0.03536976333 0.035384436023 0.035399072618 0.035413801003 0.035428712198 0.035443724059 0.035458912018 0.035474251524 
0.035489818254 0.035505566725 0.035521499238 0.035537501046 0.035553921844 0.035570441754 0.035587244993 0.03560420257 0.035621316076 
0.035638617738 0.035656136243 0.035673907789 0.035691854831 0.035710054972 0.035728471487 0.035747213575 0.03576617116 0.035785428793 
0.035804889425 0.035824606403 0.034856070481 0.034868232824 0.034880501957 0.03489290979 0.034905414371 0.034918027892 0.034930784423 
0.034943446399 0.03495625847 0.034969125018 0.034982138635 0.03499523521 0.03500842606 0.035021778861 0.035035381922 0.035048984769 
0.035062675083 0.035076526354 0.035090476287 0.035104522562 0.035118690725 0.035132896905 0.035147340483 0.03516191242 0.035176499706 
0.035191351206 0.035206202018 0.035221198975 0.035236366247 0.035251715974 0.035267201062 0.035282807498 0.035298705111 0.035314766338 
0.035331110069 0.035347623901 0.035364332763 0.035381249539 0.035398336605 0.035415584348 0.035433014652 0.035450738185 0.035468612803 
0.035486758531 0.035505142532 0.035523777721 0.03554265852 0.035561836695 0.03558118577 0.035600816222 0.034634686942 0.034646748417 
0.03465893878 0.034671250296 0.034683668436 0.034696203032 0.034708718333 0.034721430245 0.034734171338 0.03474699716 0.034759895977 
0.034772939831 0.034786084906 0.034799408463 0.034812821225 0.034826397597 0.034840076605 0.03485383871 0.034867779628 0.034881773439 
0.0348958852 0.034910135018 0.034924423051 0.034938856353 0.034953551796 0.034968221672 0.034983022058 0.034998116959 0.035013234744 
0.035028540826 0.035043937198 0.035059608547 0.035075422906 0.035091498076 0.03510772083 0.035124174542 0.035140827525 0.035157704229 
0.035174706107 0.035191967695 0.035209364699 0.035226966973 0.035244741989 0.035262814972 0.035281094861 0.035299688161 0.035318540223 
0.035337583389 0.035356841416 0.035376354507 0.03441581268 0.034427821874 0.034439937063 0.034452140389 0.034464498776 0.034476864879 
0.034489361285 0.034501924533 0.034514670468 0.034527447861 0.034540272081 0.034553246566 0.034566381721 0.034579576095 0.034592928021 
0.034606441492 0.034619967281 0.034633695257 0.034647617524 0.034661586065 0.034675722717 0.034689858871 0.034704125805 0.034718524988 
0.034733047182 0.03474777932 0.034762530486 0.03477746687 0.034792675672 0.03480782725 0.03482326828 0.034838899398 0.034854755729 
0.034870680724 0.034886858238 0.034903252958 0.034919853531 0.034936715643 0.034953653639 0.034970793281 0.034988128763 0.035005631067 
0.035023440646 0.035041362334 0.035059573257 0.035078040033 0.035096809767 0.035115736629 0.035135027425 0.035154428983 0.034202551344 
0.034214478696 0.03422652046 0.034238668275 0.034250831961 0.034263196406 0.034275616261 0.034288121718 0.034300795253 0.034313490546 
0.034326273675 0.034339250541 0.034352252348 0.03436538696 0.034378669613 0.034392078726 0.034405663476 0.034419263131 0.034433021671 
0.034447122496 0.034461148076 0.034475287907 0.03448950369 0.034503826253 0.034518281762 0.034532859285 0.034547693085 0.034562477698 
0.034577505665 0.034592720632 0.034608232493 0.034623809398 0.034639610677 0.034655521503 0.034671615766 0.03468800533 0.034704535199 
0.034721270279 0.034738152167 0.034755217235 0.034772449814 0.034789977999 0.034807661451 0.034825521473 0.034843636796 0.034862031825 
0.03488070772 0.034899608055 0.034918706853 0.034938026673 0.03399782826 0.034009666252 0.034021649322 0.034033624474 0.034045807922 
0.034058067554 0.034070446583 0.034082895919 0.034095449633 0.034108109715 0.034120915316 0.034133760816 0.03414670521 0.034159780517 
0.034173002791 0.03418636223 0.034199881918 0.034213464639 0.034227202988 0.034241046366 0.034255189384 0.034269317137 0.034283430743 
0.034297722901 0.034312140794 0.034326663499 0.03434123352 0.034356165169 0.034371146894 0.034386321337 0.034401678855 0.03441722056 
0.034433000997 0.03444895112 0.034465038729 0.034481274303 0.034497761916 0.034514436251 0.034531245444 0.034548214831 0.034565469431 
0.034582839363 0.034600428221 0.034618247581 0.034636309072 0.034654733579 0.034673265788 0.03469199327 0.034711063586 0.03473027494 
0.033804370449 0.03381612933 0.033828019959 0.033839935033 0.033852039285 0.033864275755 0.033876567 0.033888961422 0.033901454102 
0.03391409279 0.033926799205 0.033939581644 0.033952472613 0.033965513159 0.033978653819 0.033991953047 0.034005367183 0.03401902349 
0.034032652903 0.034046459919 0.03406041811 0.034074511565 0.034088708778 0.034102948668 0.034117229873 0.034131700676 0.034146336999 
0.034161114871 0.034176155531 0.034191288207 0.034206643414 0.034222082005 0.034237732811 0.0342535878 0.034269717738 0.034285941016 
0.034302346543 0.034318914074 0.034335671467 0.034352659273 0.034369794435 0.034387078815 0.034404582801 0.034422355748 0.034440404529 
0.034458656923 0.03447717022 0.034495853403 0.034514733062 0.034533876072 0.033624576115 0.033636297979 0.033648044128 0.033659942902 
0.033672043009 0.033684203228 0.033696446944 0.033708772085 0.033721268313 0.033733791231 0.033746392281 0.033759175722 0.03377202278 
0.033785008566 0.033798113663 0.033811318595 0.033824693696 0.033838323407 0.033851951605 0.033865653692 0.03387960207 0.033893598733 
0.033907691179 0.033921910547 0.033936234072 0.033950690846 0.033965257989 0.033980034543 0.033994901807 0.034010085038 0.034025382269 
0.034040769042 0.034056387916 0.034072170762 0.034088125634 0.034104320887 0.034120799618 0.034137239051 0.034153967656 0.034170894895 
0.034187947635 0.03420518979 0.034222697188 0.034240463286 0.034258351312 0.034276529383 0.034294878669 0.034313476976 0.034332301795 
0.034351354802 0.033460624613 0.033472199754 0.033483945041 0.033495830377 0.033507871459 0.033519982884 0.033532163435 0.033544549517 
0.033556893736 0.033569363125 0.03358192087 0.03359467674 0.033607485057 0.033620395099 0.033633425345 0.033646614069 0.033660000697 
0.033673474584 0.033687136206 0.033700878806 0.033714704031 0.033728556823 0.03374261489 0.033756787403 0.033771170696 0.033785579843 
0.033800130548 0.033814827794 0.033829747068 0.033844850946 0.033860083146 0.033875384368 0.033890958235 0.033906719956 0.033922645869 
0.033938783794 0.033955040488 0.033971503234 0.033988308008 0.034005114103 0.034022107345 0.034039454925 0.034056810221 0.03407442476 
0.034092290454 0.03411034492 0.034128645468 0.034147148525 0.034165907931 0.034184900766 0.033314151722 0.033325728826 0.033337473688 
0.033349338933 0.03336130761 0.033373352586 0.03338558345 0.033397824074 0.033410153256 0.033422572779 0.033435105027 0.033447733255 
0.033460566184 0.033473419351 0.03348641526 0.033499643786 0.033512937117 0.033526353844 0.033540008469 0.033553697524 0.033567393345 
0.03358129962 0.033595328546 0.033609417395 0.033623719926 0.033638123522 0.033652708212 0.033667433677 0.033682333749 0.03369730404 
0.03371233327 0.033727778025 0.033743319158 0.033758999364 0.033774871512 0.033790946789 0.033807184964 0.033823645669 0.033840351436 
0.033857185937 0.033874124642 0.033891347253 0.03390863663 0.033926190273 0.033944021969 0.033961998039 0.033980230884 0.033998697772 
0.034017391023 0.034036304613 0.0331866953 0.033198289387 0.03320996806 0.033221783706 0.033233738774 0.03324586217 0.033257962208 
0.033270127175 0.033282432521 0.03329482428 0.033307318999 0.033319898005 0.033332605455 0.033345542015 0.033358582458 0.03337169222 
0.033384942757 0.033398367132 0.033411804568 0.033425531095 0.033439307518 0.033453146005 0.033467151218 0.033481229938 0.03349546329 
0.03350991914 0.033524375353 0.033539094966 0.033553951637 0.033568831438 0.033583911165 0.033599220476 0.033614798781 0.033630478245 
0.033646287906 0.033662328473 0.033678657965 0.033695035949 0.033711683373 0.033728427579 0.033745303102 0.033762331515 0.033779597096 
0.033797203623 0.033814969527 0.033832900167 0.033851062174 0.033869456312 0.033888094644 0.033907095602 0.033079350294 0.033090880412 
0.033102544909 0.033114302851 0.03312631808 0.033138308114 0.033150386552 0.033162570298 0.033174823279 0.033187169594 0.03319962664 
0.033212163681 0.033224877021 0.033237778892 0.033250820462 0.033263914559 0.033277141359 0.033290408337 0.033303909195 0.033317618293 
0.033331368405 0.033345162105 0.033359156995 0.03337333612 0.033387470026 0.033401791489 0.033416299522 0.033430953819 0.033445701072 
0.033460607199 0.033475710443 0.03349097963 0.033506443123 0.033522226562 0.033538049381 0.033554122128 0.033570371455 0.03358670864 
0.033603249531 0.033619925579 0.033636760749 0.033653730761 0.033670966329 0.033688457418 0.033706121434 0.033724137515 0.03374224137 
0.033760598072 0.03377929667 0.03379809372 0.032992790676 0.033004290275 0.033016042322 0.033027766568 0.033039649137 0.033051627786 
0.033063640514 0.03307580204 0.033088052433 0.033100407079 0.033112772778 0.033125340049 0.033138092055 0.033150929263 0.033163870651 
0.033176942693 0.033190130411 0.033203466152 0.033216941505 0.033230529044 0.033244358724 0.033258189344 0.033272153857 0.033286241241 
0.033300398502 0.033314666033 0.033329155653 0.033343781154 0.033358484861 0.0333733492 0.033388598693 0.033403844927 0.033419253302 
0.033434868311 0.033450741033 0.033466867848 0.033483053142 0.033499307969 0.033515806844 0.033532489496 0.033549277737 0.033566241229 
0.033583420818 0.033600889668 0.033618529298 0.033636378922 0.03365448487 0.033672883077 0.033691518908 0.033710158932 0.032927538397 
0.032939136955 0.032950727547 0.032962468124 0.032974316646 0.032986255788 0.032998295478 0.033010443195 0.033022651389 0.033034938203 
0.033047376571 0.033060001087 0.033072669422 0.033085370918 0.033098298057 0.033111452788 0.033124643684 0.033137949244 0.033151402401 
0.033164979605 0.033178824759 0.033192651652 0.033206610867 0.033220622738 0.033234745477 0.033249037067 0.033263527988 0.033278222312 
0.033292874109 0.033307766761 0.033322797502 0.033338043636 0.033353507855 0.033369104071 0.03338504932 0.033401107587 0.03341722035 
0.033433502602 0.033449981876 0.033466600546 0.033483371133 0.033500363657 0.033517545968 0.033534959789 0.033552605456 0.033570438334 
0.033588585559 0.033606723928 0.033625260061 0.033643955684 0.032884036004 0.032895518777 0.032907087561 0.032918817926 0.032930624175 
0.032942558966 0.032954573366 0.032966711779 0.032978909534 0.032991219109 0.033003695144 0.033016162955 0.03302884694 0.033041640396 
0.033054556218 0.033067591016 0.033080902267 0.033094192152 0.033107622471 0.033121250127 0.03313496414 0.033148840601 0.033162765619 
0.033176837048 0.033191015076 0.033205292967 0.033219733462 0.033234306766 0.033249014529 0.033263859897 0.033278904604 0.033294156086 
0.033309673415 0.033325385301 0.033341121735 0.033357079721 0.033373206216 0.033389552774 0.033406004903 0.033422613072 0.033439398639 
0.033456357396 0.033473552657 0.033491009787 0.033508589313 0.033526370284 0.033544399811 0.033562734705 0.033581160187 0.033599870797 
0.032862159906 0.032873643274 0.032885195437 0.032896898716 0.032908710866 0.032920635081 0.032932667179 0.032944779575 0.032957005754 
0.032969285307 0.032981700188 0.032994225794 0.033006883691 0.033019728196 0.033032649795 0.033045702455 0.033058878748 0.033072327734 
0.033085773579 0.033099339988 0.033113093712 0.033126954154 0.033140908101 0.033154947729 0.03316904995 0.033183343269 0.033197760723 
0.033212243553 0.033226968313 0.033241913062 0.033256986749 0.033272339074 0.033287824792 0.033303369124 0.033319151782 0.033335134315 
0.03335124176 0.033367506928 0.03338405667 0.033400659138 0.033417447025 0.033434268816 0.033451513805 0.033469014309 0.03348660383 
0.033504444314 0.033522439907 0.033540678486 0.033559163254 0.033577833023 0.03286192556 0.032873385552 0.032884956781 0.032896664821 
0.032908475003 0.032920420653 0.032932404512 0.032944537719 0.032956754335 0.032969068915 0.032981484636 0.032994018205 0.033006706777 
0.03301952987 0.033032478779 0.033045528438 0.033058866302 0.033072160332 0.033085672763 0.033099251508 0.033112961245 0.033126774931 
0.033140752407 0.033154793051 0.033168949943 0.033183188518 0.03319762567 0.033212075273 0.033226862824 0.033241798342 0.033257021068 
0.033272267016 0.03328770858 0.033303299443 0.03331908902 0.033335023195 0.033351139998 0.033367454731 0.033383920115 0.033400469062 
0.033417302034 0.033434257571 0.03345159444 0.033468970772 0.033486650123 0.0335044063 0.033522387418 0.033540687767 0.033559150249 
0.033577841958 0.032883073796 0.032894543114 0.032906159108 0.03291787146 0.032929703279 0.032941619498 0.032953561457 0.032965755439 
0.03297801087 0.032990342778 0.033002771089 0.033015345153 0.033028076807 0.033040902625 0.033053840009 0.033066944387 0.033080142382 
0.033093495737 0.033106956712 0.033120631945 0.033134355396 0.033148153171 0.033162132746 0.033176198361 0.033190425406 0.033204675397 
0.033218999608 0.033233572257 0.033248328134 0.033263358347 0.033278413878 0.033293776062 0.033309227151 0.0333248545 0.033340667833 
0.033356633019 0.033372638818 0.03338892238 0.03340543453 0.033422042694 0.033438925986 0.033456052398 0.033473299544 0.033490739689 
0.033508267049 0.033526084218 0.033544150772 0.03356239128 0.033580891544 0.033599631059 0.032925188327 0.032936690812 0.032948291673 
0.032960059656 0.032971798811 0.032983763649 0.032995907362 0.03300815043 0.033020360624 0.0330326943 0.033045169161 0.03305773521 
0.033070415617 0.03308328794 0.033096240344 0.033109305675 0.033122528798 0.033135858771 0.033149349354 0.03316297 0.033176792553 
0.033190627902 0.03320460323 0.033218800266 0.033232980244 0.033247290772 0.033261545149 0.033276262743 0.033290999027 0.033305945155 
0.033321117972 0.033336475274 0.033351801566 0.033367444992 0.033383270882 0.033399265044 0.03341543308 0.033431769455 0.033448284042 
0.033464895308 0.033481857179 0.033499032664 0.033516290414 0.033533628786 0.033551237923 0.033569122857 0.033587172748 0.033605454753 
0.033623967516 0.033642723889 0.032987644743 0.032999098331 0.033010811143 0.033022540033 0.033034414504 0.033046474495 0.033058554507 
0.03307074255 0.033083011321 0.033095378077 0.033107847436 0.033120446687 0.033133202226 0.033146013546 0.033158943459 0.033172042098 
0.033185280828 0.03319866351 0.033212172426 0.033225813421 0.033239538302 0.033253485027 0.033267511764 0.033281703909 0.033295955376 
0.033310244701 0.033324709655 0.033339309412 0.033354116295 0.033369009085 0.033384140733 0.033399467228 0.03341500464 0.033430669289 
0.033446542012 0.033462560626 0.033478756364 0.03349509468 0.033511636781 0.033528398583 0.033545318594 0.033562461275 0.033579673663 
0.033597185255 0.033614903137 0.033632752083 0.033650836813 0.033669161875 0.033687734418 0.03370650044 0.033069439078 0.033080992739 
0.03309266885 0.033104442338 0.03311642726 0.033128444195 0.033140525939 0.033152751009 0.033165058607 0.03317747034 0.033189985986 
0.033202595458 0.033215336537 0.033228220968 0.033241227536 0.033254369841 0.033267643815 0.033281026306 0.033294534172 0.033308148613 
0.03332192708 0.033335847449 0.033350024385 0.033364115737 0.033378406108 0.033392788822 0.033407180291 0.033421771158 0.033436624274 
0.033451695272 0.033466802439 0.033482145982 0.033497683176 0.033513383746 0.033529235139 0.033545317946 0.033561549771 0.033577914956 
0.033594565882 0.033611398783 0.033628293781 0.033645385757 0.03366266592 0.033680254357 0.03369805439 0.03371588981 0.033734005487 
0.033752385519 0.033770980478 0.033789798375 0.033169360497 0.033180957989 0.033192655442 0.033204550054 0.033216480738 0.033228590346 
0.033240719244 0.033252919003 0.033265298554 0.033277779398 0.033290306932 0.033302968205 0.033315760481 0.033328673409 0.033341686204 
0.033354842856 0.033368155189 0.033381600026 0.033395062905 0.033408744418 0.033422581346 0.033436587089 0.033450399543 0.033464672674 
0.033478991495 0.03349342042 0.033507996805 0.033522551349 0.033537492883 0.033552541696 0.033567776453 0.033583166321 0.033598723159 
0.033614361577 0.033630322307 0.033646422196 0.033662697317 0.033679255142 0.03369592859 0.033712713249 0.03372964622 0.033746766579 
0.033764123498 0.033781727435 0.033799490548 0.033817598482 0.033835788508 0.033854171226 0.033872836335 0.033891709383 0.033285938339 
0.033297570175 0.033309378832 0.033321185543 0.03333316832 0.033345260338 0.033357451008 0.03336974889 0.033382199256 0.03339471786 
0.033407295897 0.033419973722 0.033432790154 0.033445728676 0.03345877557 0.033471911151 0.033485276634 0.033498695836 0.033512151301 
0.033525889322 0.033539753385 0.033553741289 0.033567829773 0.03358215548 0.033596491824 0.03361095321 0.033625461118 0.033640279702 
0.03365508521 0.033670169345 0.033685421388 0.033700864954 0.033716474813 0.03373227271 0.033748277333 0.033764443949 0.033780886195 
0.033797442034 0.033814049146 0.03383079621 0.03384788537 0.033865053396 0.033882545091 0.033900137319 0.033917972572 0.033935996009 
0.033954235987 0.0339728523 0.03399155238 0.034010487255 0.033417003256 0.033428853639 0.033440642293 0.033452575178 0.033464595007 
0.033476707781 0.033488946519 0.033501392274 0.033513786129 0.033526295638 0.033538843859 0.033551583661 0.033564429346 0.033577286759 
0.033590472825 0.033603706322 0.033617021952 0.033630551295 0.033644196593 0.033657930526 0.033671799125 0.033685767422 0.033700025013 
0.033714221826 0.033728642211 0.033743114889 0.033757874723 0.033772651904 0.033787497016 0.033802637919 0.033817960388 0.033833436792 
0.033849084803 0.033864944598 0.03388097981 0.033897324793 0.033913820775 0.033930386942 0.033947006783 0.033963876163 0.033981001818 
0.0339982911 0.034015795707 0.034033436503 0.034051340569 0.034069456475 0.034087770272 0.03410631871 0.034125163417 0.034144221241 
0.033560634905 0.033572356762 0.033584309298 0.033596246426 0.033608474937 0.033620649118 0.033632990562 0.03364535809 0.033657683315 
0.033670197709 0.033682852719 0.03369563614 0.033708546107 0.033721591163 0.033734752085 0.033747877038 0.033761296781 0.03377485008 
0.033788494402 0.033802383909 0.033816466602 0.033830567643 0.033844703567 0.033858994833 0.033873356638 0.033887952986 0.033902731847 
0.033917564741 0.033932501835 0.033947631221 0.033962992453 0.033978528878 0.033994233224 0.034010133808 0.034026317709 0.034042713936 
0.034059221953 0.034075739211 0.034092510936 0.034109456433 0.034126710259 0.034143993482 0.034161516589 0.034179269967 0.034197216591 
0.034215417442 0.034233847627 0.034252477574 0.034271325911 0.034290473578 0.033714112928 0.033725914672 0.033737680108 0.033749796945 
0.033761995937 0.033774287271 0.03378662126 0.033799032643 0.033811525116 0.033824108063 0.033836933896 0.033849644575 0.033862577016 
0.033875644524 0.033888818975 0.033902160968 0.033915615365 0.033929186361 0.033942933887 0.033956953825 0.033970954744 0.033985079895 
0.033999249748 0.034013574968 0.034027985544 0.034042652518 0.034057464637 0.034072404095 0.034087431505 0.034102570068 0.034117989309 
0.034133554829 0.034149317208 0.034165480534 0.034181616396 0.034197967334 0.034214393012 0.034231113776 0.034247957886 0.034265087094 
0.034282293169 0.034299676401 0.034317251701 0.034335078502 0.034353103121 0.034371362858 0.03438984706 0.034408549473 0.034427504342 
0.034446698434 0.033874533129 0.033886384719 0.033898342787 0.033910438926 0.033922771584 0.033935173477 0.033947559577 0.033959913328 
0.033972467051 0.03398509953 0.03399785142 0.034010712997 0.03402369193 0.034036747155 0.034049997546 0.034063376461 0.034076859686 
0.034090652022 0.034104505952 0.034118525097 0.034132575526 0.034146691506 0.034160950781 0.034175261198 0.034189791136 0.034204405405 
0.03421916064 0.034234197679 0.03424933624 0.034264561593 0.034279958313 0.034295588657 0.034311693186 0.034327714891 0.034343922698 
0.034360238311 0.034376806063 0.034393563069 0.034410519531 0.034427700886 0.034444977293 0.034462432083 0.034480088278 0.034497989095 
0.034516065986 0.034534392885 0.034552948953 0.034571741413 0.034590766045 0.034610125217 0.034039251098 0.034051126638 0.03406318769 
0.034075236008 0.034087495069 0.034099812003 0.034112350884 0.034124854965 0.034137438758 0.034150250129 0.034163052035 0.034175968467 
0.034188939688 0.034202096465 0.03421538705 0.034228793159 0.034242315895 0.034256132785 0.034270023045 0.034284013949 0.034298060638 
0.034312244902 0.034326571208 0.034340929276 0.034355523533 0.034370203768 0.034384991856 0.034399955894 0.034415255034 0.034430683385 