# vtk DataFile Version 5.1
vtk output
ASCII
DATASET STRUCTURED_POINTS
DIMENSIONS 50 50 50
SPACING 0.002 0.002 0.002
ORIGIN 0.1742 -0.052672 0.02732
POINT_DATA 125000
FIELD FieldData 1
potential 1 125000 double
0.29758107142 0.29741177852 0.29724317813 0.29707630804 0.29691369241 0.29675719257 0.29660878786 0.29647016929 0.29634315424 
0.29622973431 0.29613003412 0.29604629787 0.29598005527 0.29593239518 0.29590457096 0.29589707722 0.295909707 0.29594102489 
0.29598896004 0.29604995735 0.2961204567 0.29619559761 0.29627077434 0.29634107486 0.29640361072 0.29645597959 0.29649700928 
0.29652670973 0.29654662499 0.2965595555 0.29656784557 0.2965747038 0.29658281214 0.29659452005 0.29660978472 0.29662996068 
0.29665347831 0.29667846032 0.29670264417 0.29672316809 0.2967378212 0.29674354608 0.29673894256 0.29672200809 0.29669309305 
0.29665200087 0.29659981128 0.29653797026 0.29646870617 0.29639432711 0.31526140418 0.31508606466 0.31491100925 0.31473757412 
0.31456820287 0.31440502049 0.31425022585 0.31410575504 0.3139735741 0.31385579714 0.31375314785 0.31366764053 0.3136006996 
0.31355368427 0.31352751373 0.31352285733 0.31353920983 0.31357491856 0.31362758728 0.31369405608 0.31377022931 0.31385117453 
0.31393253179 0.31400972912 0.3140788742 0.31413821991 0.31418614205 0.31422264934 0.31424859994 0.31426639986 0.31427860855 
0.31428833312 0.31429792754 0.31430933119 0.31432408694 0.31434274306 0.31436394084 0.31438643586 0.31440822192 0.31442696073 
0.31444006943 0.31444528378 0.31444076318 0.31442504398 0.31439769239 0.31435856205 0.31430868493 0.31424875671 0.31418130665 
0.31410836965 0.33345812349 0.33327834005 0.33309849157 0.33292011488 0.33274565576 0.33257733491 0.33241775129 0.33226886477 
0.33213278381 0.33201176205 0.33190740327 0.33182132557 0.33175479169 0.33170956683 0.33168609738 0.33168493735 0.33170534199 
0.33174588425 0.331803623 0.33187559734 0.33195735089 0.33204438196 0.33213237992 0.33221627855 0.33229280596 0.33235941718 
0.3324145502 0.33245803401 0.33249070537 0.33251385004 0.33253041049 0.33254290143 0.33255370337 0.33256477168 0.33257787609 
0.33259386752 0.33261183828 0.33263081148 0.33264938972 0.33266557968 0.33267686006 0.3326817552 0.33267807613 0.33266413799 
0.33263954618 0.33260404846 0.33255793864 0.3325018232 0.33243793638 0.33236803002 0.35205488975 0.35187221372 0.35168901131 
0.35150753255 0.3513295133 0.35115773409 0.35099476532 0.35084284017 0.35070429739 0.35058150996 0.35047639957 0.35039093389 
0.35032578548 0.35028312297 0.35026315254 0.35026614325 0.35029109148 0.35033641842 0.35039976613 0.35047730226 0.35056480339 
0.35065807796 0.35075239431 0.35084302073 0.35092705962 0.35100101599 0.35106376885 0.35111487249 0.35115410553 0.35118277158 
0.35120365 0.35121878122 0.35123029293 0.35124069606 0.35125138586 0.35126372767 0.35127782055 0.35129273985 0.35130740981 
0.35132061932 0.35133030043 0.35133470965 0.35133220713 0.35132136115 0.35130052491 0.35126975448 0.35122899568 0.35117858939 
0.35111947205 0.35105397084 0.37092345037 0.37073974373 0.37055488813 0.37037160162 0.3701914581 0.3700177198 0.36985286153 
0.36969927201 0.36955957562 0.36943641055 0.36933190468 0.36924766296 0.36918502777 0.36914538568 0.36912933287 0.36913697923 
0.3691667828 0.36921729613 0.36928582688 0.36936906014 0.36946215191 0.36956149881 0.36966218611 0.36975979333 0.36985089509 
0.36993246345 0.37000278938 0.37006090909 0.37010659948 0.37014072891 0.37016557183 0.37018296984 0.37019486407 0.37020401806 
0.37021188393 0.37022023168 0.37022968235 0.37023988466 0.37025035924 0.37026024375 0.37026827693 0.37027254238 0.370272087 
0.37026448602 0.37024885394 0.37022409572 0.3701896114 0.37014616159 0.37009349863 0.370033394 0.38992674115 0.38974290987 
0.38955807285 0.38937432551 0.38919390753 0.38901949332 0.38885407911 0.38870027432 0.38856066494 0.38843835052 0.38833532446 
0.3882530642 0.38819372792 0.38815778427 0.38814602086 0.38815848964 0.38819324947 0.38824885485 0.38832260267 0.38841069866 
0.38850928978 0.38861476486 0.38872164792 0.38882554591 0.38892327957 0.38901206433 0.38908947361 0.38915420112 0.3892059536 
0.38924501384 0.38927328516 0.38929223035 0.38930425083 0.38931169837 0.38931613331 0.38932016357 0.38932465813 0.38932990193 
0.38933609341 0.38934292201 0.38934936945 0.38935402936 0.3893559328 0.38935248405 0.38934249223 0.38932473982 0.3892978468 
0.38926186717 0.38921642566 0.38916246204 0.40892009573 0.40873772463 0.40855418022 0.40837167976 0.40819214791 0.40801872717 
0.40785422672 0.40770126993 0.40756323478 0.40744267499 0.40734198822 0.40726276223 0.4072070738 0.40717518717 0.40716791048 
0.40718500465 0.40722452999 0.40728479226 0.40736330613 0.40745642941 0.40755987485 0.40767016578 0.40778253426 0.40789220302 
0.40799602405 0.40809102886 0.40817465676 0.40824512298 0.40830198092 0.40834509941 0.40837612718 0.40839626819 0.40840782474 
0.40841305569 0.40841397381 0.40841331633 0.40841308341 0.40841345769 0.40841536356 0.40841933937 0.40842476418 0.40843027239 
0.40843462345 0.40843607588 0.4084324175 0.40842209875 0.40840325572 0.40837528865 0.40833752091 0.40829031544 0.42775508035 
0.42757565402 0.42739468314 0.42721494376 0.42703788091 0.42686676837 0.42670447855 0.4265538803 0.42641842896 0.42630075454 
0.42620327084 0.42612788268 0.42607618902 0.42604846119 0.42604558983 0.42606662288 0.42611051726 0.42617521277 0.4262576611 
0.42635473629 0.42646229775 0.42657656956 0.42669271789 0.42680715851 0.42691575373 0.4270156218 0.42710423263 0.4271792714 
0.42724020612 0.42728657445 0.42731953859 0.42734022973 0.42735074778 0.4273534853 0.42735103131 0.42734617985 0.42734117015 
0.42733703702 0.4273352838 0.42733691067 0.42734144305 0.42734817213 0.42735533919 0.42736180648 0.42736495447 0.42736193446 
0.42735139257 0.42733168282 0.42730168629 0.42726142258 0.44628205697 0.44610688079 0.44593014532 0.44575440354 0.44558120789 
0.44541393283 0.44525518118 0.44510848499 0.44497698458 0.44486335941 0.4447699088 0.44469869238 0.44465101216 0.44462749466 
0.44462861111 0.44465361277 0.44470082153 0.4447687125 0.44485410815 0.44495383109 0.44506430314 0.44518075631 0.44529956403 
0.44541642104 0.44552870744 0.44563169954 0.44572367043 0.44580198514 0.44586563139 0.44591388998 0.44594769696 0.44596827624 
0.44597739833 0.44597761671 0.44597197654 0.44596334512 0.44595407755 0.44594641531 0.4459419182 0.44594150288 0.44594572939 
0.44595386249 0.44596422866 0.4459758157 0.44598504919 0.44598954656 0.4459868505 0.44597535424 0.44595283964 0.44591892513 
0.46435389014 0.46418429542 0.4640130277 0.46384270571 0.46367504087 0.46351303312 0.46335947559 0.46321798933 0.46309163103 
0.46298312347 0.46289460026 0.46282814667 0.46278465114 0.46276527552 0.46276958308 0.46279744946 0.46284704682 0.46291678128 
0.4630035454 0.46310423491 0.46321540475 0.46333256619 0.46345227174 0.46356999098 0.46368300906 0.46378768441 0.46388093815 
0.4639607356 0.46402549759 0.4640743115 0.46410820968 0.4641280638 0.46413567626 0.46413365478 0.46412524614 0.46411350202 
0.46410087585 0.46409067623 0.46408406342 0.46408245325 0.46408701324 0.4640969543 0.46411041344 0.46412645628 0.46414177589 
0.46415304986 0.46415749051 0.46415298368 0.46413746536 0.46410948037 0.48182834282 0.48166548383 0.48150115628 0.48133768909 
0.48117715886 0.4810218733 0.48087517542 0.48074042078 0.4806205777 0.48051826165 0.48043536948 0.48037391389 0.48033502678 
0.48031934543 0.48032661614 0.48035628871 0.48040685647 0.48047667635 0.48056326956 0.48066269713 0.48077269062 0.48088825078 
0.48100623052 0.48112247483 0.48123436808 0.48133821825 0.48143075779 0.48151000952 0.48157442775 0.48162268319 0.48165583493 
0.48167447073 0.48168070107 0.48167677758 0.4816662519 0.48165245115 0.48163808047 0.48162607047 0.48161830951 0.48161643089 
0.48162165828 0.48163340307 0.48164995821 0.48166997426 0.48169028947 0.48170719248 0.48171789359 0.48171957338 0.48170936738 
0.48168752207 0.49857410733 0.49841950029 0.49826338729 0.49810820446 0.49795616258 0.49780945134 0.49767100262 0.49754439487 
0.49743224147 0.49733694215 0.49726057702 0.49720483737 0.4971702212 0.49715768539 0.49716683147 0.49719717882 0.49724729479 
0.49731550768 0.49739992692 0.49749638199 0.4976024578 0.49771417571 0.49782790617 0.49794080939 0.49804870602 0.49814914862 
0.49823937115 0.49831632843 0.49837868294 0.4984252753 0.49845698635 0.49847427454 0.49847918762 0.49847402979 0.49846268073 
0.49844775584 0.49843243754 0.49842007354 0.49841230033 0.49841087301 0.49841717287 0.49843070209 0.49844975898 0.49847276647 
0.49849709578 0.49851843994 0.49853390382 0.49854066206 0.49853523891 0.49851831408 0.51447352802 0.5143281803 0.51418191604 
0.51403629219 0.51389395061 0.51375713377 0.51362888769 0.513511641 0.51340828616 0.51332120558 0.51325191686 0.51320199016 
0.51317153672 0.5131614154 0.51317162619 0.51320132002 0.51324963868 0.51331459227 0.51339411216 0.51348551139 0.51358576684 
0.51369132617 0.51379888869 0.51390561522 0.51400768025 0.51410256729 0.51418772669 0.51426114681 0.51432018287 0.51436422402 
0.5143938088 0.51440966267 0.51441363478 0.51440805563 0.51439679963 0.51438197952 0.51436707601 0.51435533568 0.51434876402 
0.51434867764 0.51435616076 0.51437118292 0.51439208386 0.51441720185 0.5144438726 0.51446856952 0.51448731705 0.51449705624 
0.51449611121 0.5144828561 0.5294265677 0.52929133877 0.52915566883 0.52902092644 0.52888973056 0.52876423783 0.52864688536 
0.52854046886 0.52844731902 0.52836885622 0.52830716272 0.52826308968 0.52823654145 0.52822846229 0.52823901957 0.52826679115 
0.5283113922 0.52837128918 0.52844456882 0.5285288673 0.52862107704 0.52871844624 0.52881773667 0.52891612844 0.52901041326 
0.52909821553 0.52917702602 0.52924445846 0.52929962138 0.52934031247 0.5293676127 0.52938213561 0.52938562015 0.52938036891 
0.52937001828 0.52935656722 0.52934342856 0.52933348554 0.52932873769 0.52933049042 0.52933929653 0.52935547841 0.5293775574 
0.52940387007 0.52943177728 0.5294580474 0.52947802848 0.52949038727 0.52949210374 0.52948208821 0.54335205789 0.54322771354 
0.54310364026 0.54298095578 0.54286200822 0.54274856689 0.54264339183 0.54254863476 0.54246602278 0.54239710725 0.54234308611 
0.54230454688 0.54228202259 0.54227518295 0.54228474017 0.54230982503 0.54234963491 0.54240313577 0.54246874119 0.54254388894 
0.54262684102 0.54271415616 0.54280351858 0.5428921949 0.54297711108 0.54305647187 0.5431277527 0.5431888299 0.54323884996 
0.54327561013 0.54330056243 0.54331403596 0.54331764018 0.54331367465 0.54330482345 0.54329378613 0.54328325804 0.54327607747 
0.54327352411 0.54327723736 0.54328762553 0.54330470185 0.54332715172 0.54335372037 0.5433814816 0.54340735327 0.54342814657 
0.54344153345 0.54344499569 0.54343736293 0.55618961526 0.55607742415 0.55596549384 0.555855432 0.55574919773 0.55564891555 
0.55555653611 0.55547365583 0.55540202343 0.55534253178 0.55529620256 0.55526364047 0.55524413119 0.55523803618 0.55524626804 
0.55526762437 0.55530181321 0.55534795285 0.55540476317 0.55547012485 0.55554234168 0.55561864972 0.55569695152 0.55577488554 
0.55584977371 0.55591962216 0.55598265359 0.55603679984 0.55608090636 0.55611423154 0.55613677461 0.55614936105 0.55615358064 
0.55615120836 0.55614492321 0.55613680402 0.55612966052 0.5561254933 0.55612573534 0.55613155806 0.55614332451 0.55616080019 
0.55618293439 0.55620868041 0.55623533443 0.5562598875 0.55628030505 0.55629369014 0.55629780513 0.55629215842 0.56790014625 
0.5678003388 0.56770105302 0.56760363431 0.56751078989 0.56742362487 0.56734419481 0.56727326023 0.56721249898 0.56716248902 
0.56712346656 0.567096132 0.56707944287 0.56707375179 0.56707972254 0.56709733136 0.56712543005 0.56716374168 0.56721118651 
0.5672662319 0.56732724208 0.56739222941 0.56745912553 0.56752597068 0.56759044605 0.56765051264 0.56770504833 0.56775219455 
0.56779084865 0.56782005852 0.5678408806 0.56785293979 0.56785790151 0.56785783605 0.56785416616 0.56784965043 0.5678460061 
0.5678451265 0.56784813192 0.56785584811 0.56786864344 0.5678860755 0.56790760143 0.56793180904 0.56795609932 0.56797919305 
0.56799822278 0.56801070103 0.56801501678 0.56801048037 0.57846300377 0.57837530385 0.5782885105 0.57820402186 0.57812420087 
0.57804995665 0.57798293653 0.57792368676 0.57787349947 0.57783212864 0.57779993658 0.57777724959 0.57776306553 0.57775777447 
0.57776188319 0.57777504084 0.577796938 0.57782745139 0.57786563653 0.5779104063 0.57796052116 0.57801429059 0.57806992083 
0.57812576151 0.57818003622 0.57823080047 0.57827728531 0.57831768353 0.57835103012 0.57837673361 0.57839567169 0.57840756939 
0.57841381381 0.57841581455 0.57841526263 0.57841411193 0.57841383002 0.57841621206 0.5784216049 0.5784310908 0.57844464915 
0.57846207416 0.5784819639 0.57850446174 0.57852640612 0.5785470732 0.57856423873 0.57857538163 0.57857942617 0.57857605632 
0.58787271671 0.58779680325 0.58772233083 0.58765072018 0.58758315373 0.58752115021 0.58746577068 0.58741750039 0.58737667706 
0.58734338118 0.58731726543 0.5872989346 0.58728697646 0.58728174993 0.58728385085 0.58729313387 0.58730932414 0.58733239787 
0.58736182073 0.5873971103 0.58743683183 0.58747999973 0.58752527364 0.5875709757 0.58761570209 0.58765774487 0.5876966658 
0.58773074105 0.58775955654 0.58778217232 0.58779923478 0.58781139869 0.58781894986 0.58782319656 0.58782543231 0.58782754719 
0.58783050173 0.58783560101 0.58784316077 0.58785403195 0.5878679748 0.58788479754 0.58790333524 0.58792305448 0.58794311354 
0.58796146028 0.58797650556 0.58798620777 0.5879898181 0.58798723072 0.59613683717 0.59607239527 0.59600964677 0.59594992325 
0.59589396422 0.59584332127 0.59579861597 0.5957599076 0.59572754717 0.59570142164 0.59568097235 0.59566611972 0.5956559914 
0.59565098082 0.5956512863 0.59565722138 0.59566834292 0.59568490621 0.59570665304 0.59573340929 0.59576391757 0.5957976453 
0.59583340478 0.59587007192 0.5959062749 0.59594072075 0.59597284783 0.59600144199 0.5960262297 0.59604636422 0.59606214671 
0.59607456126 0.59608327702 0.59608949901 0.59609425374 0.59609902373 0.5961047769 0.59611236949 0.59612159627 0.59613339787 
0.59614740181 0.59616341993 0.59618032225 0.59619813929 0.59621566282 0.5962317237 0.59624441723 0.59625305267 0.59625642979 
0.59625439614 0.60327181719 0.60321837667 0.6031664382 0.60311767947 0.60307233756 0.6030318794 0.60299643595 0.60296623689 
0.60294123322 0.6029212688 0.60290557008 0.60289373613 0.60288543821 0.602880587 0.60287960841 0.60288272837 0.60288968904 
0.60290092585 0.60291606293 0.60293551091 0.60295833484 0.60298388012 0.60301145493 0.60304036241 0.60306914763 0.60309700863 
0.60312351819 0.60314748869 0.60316900434 0.60318697019 0.6032018945 0.60321413695 0.60322431517 0.60323225508 0.60323922361 
0.60324633453 0.60325402742 0.60326356421 0.60327403501 0.6032864659 0.60330028637 0.60331550069 0.60333079712 0.60334666556 
0.60336199077 0.60337608463 0.6033871216 0.60339459732 0.60339772416 0.6033964137 0.60929963833 0.60925622988 0.60921443039 
0.60917557402 0.60913964041 0.60910795912 0.60908068225 0.60905776321 0.60903899714 0.60902407093 0.60901241816 0.60900340581 
0.60899656431 0.60899208227 0.60899001758 0.60899131947 0.60899507486 0.60900205426 0.60901208 0.60902552645 0.60904190372 
0.6090607193 0.6090815224 0.60910401345 0.60912671713 0.60914914839 0.60917086505 0.6091913051 0.60921013474 0.60922650158 
0.60924116433 0.60925333722 0.60926440384 0.60927380164 0.60928260972 0.60929137747 0.6093007759 0.60931143012 0.60932288458 
0.60933559918 0.60934914995 0.60936341456 0.60937726034 0.60939180522 0.6094049509 0.6094169865 0.60942708407 0.60943385307 
0.60943683608 0.60943624343 0.61424398573 0.61421002964 0.61417733533 0.61414733522 0.61411971501 0.6140956666 0.6140754158 
0.61405861404 0.6140451167 0.61403428581 0.61402620771 0.61401951236 0.61401411618 0.61401025539 0.61400762523 0.61400769503 
0.61400897848 0.61401290559 0.61401911107 0.61402793292 0.6140390528 0.61405261437 0.61406804964 0.614085144 0.61410318328 
0.6141212979 0.61413954028 0.61415701517 0.61417375228 0.61418892688 0.6142031039 0.61421559821 0.61422709821 0.61423804367 
0.6142482792 0.61425842761 0.61426902547 0.61428055402 0.61429228937 0.61430515681 0.61431829469 0.61433121251 0.61434427611 
0.6143573621 0.61436891179 0.61437986664 0.61438857806 0.61439521454 0.61439849249 0.61439871082 0.61812835238 0.61810312745 
0.61807878246 0.61805671553 0.61803635734 0.61801897557 0.61800453331 0.61799288737 0.61798370822 0.61797643107 0.61797099599 
0.61796668578 0.6179626815 0.61795957444 0.61795715241 0.61795631013 0.61795619319 0.61795782635 0.61796132072 0.61796667587 
0.61797405765 0.61798339393 0.61799460128 0.61800749328 0.61802200072 0.61803704732 0.61805231896 0.61806761542 0.61808285054 
0.61809771229 0.61811127178 0.61812420876 0.61813617931 0.61814843478 0.61815958722 0.6181707213 0.61818236028 0.61819420587 
0.61820615677 0.61821864094 0.61823132789 0.61824356186 0.61825559913 0.61826739078 0.61827834789 0.61828782227 0.61829595425 
0.61830245413 0.61830631128 0.61830770168 0.62097358696 0.6209564593 0.62093968503 0.62092477001 0.62091089841 0.62089927045 
0.62088988098 0.62088253035 0.62087704557 0.62087282256 0.62086986215 0.62086738106 0.6208651131 0.62086288709 0.62086067308 
0.62085976008 0.62085891009 0.6208591127 0.62086060864 0.62086339944 0.62086787605 0.62087413513 0.62088232061 0.62089209598 
0.62090365883 0.62091640409 0.62092989088 0.62094372828 0.6209581881 0.6209722864 0.62098608028 0.62099936753 0.62101204728 
0.62102473484 0.6210371648 0.62104901742 0.62106129557 0.62107322874 0.62108509323 0.62109722043 0.62110885547 0.62112088523 
0.6211321372 0.62114291757 0.62115313435 0.62116211053 0.62117006931 0.62117666206 0.62118135031 0.62118398224 0.62279596789 
0.62278610504 0.6227769364 0.62276838328 0.62276041108 0.62275394278 0.62274901173 0.62274538736 0.62274314832 0.62274161827 
0.62274089498 0.62274024613 0.62273946844 0.62273836326 0.62273704383 0.62273610314 0.6227352189 0.62273455226 0.6227347147 
0.62273586024 0.62273812509 0.62274216533 0.62274788072 0.62275546472 0.62276499886 0.62277604491 0.62278810364 0.62280125541 
0.62281523517 0.62282919204 0.62284336652 0.6228573268 0.62287078859 0.62288424318 0.62289729742 0.62290972409 0.62292215712 
0.62293420734 0.62294585387 0.62295757023 0.62296863418 0.62297961913 0.62299034436 0.62300076801 0.62301050716 0.62301951239 
0.62302723026 0.62303431025 0.62303990763 0.6230440567 0.62360643379 0.62360394353 0.6236018024 0.62359919169 0.62359663814 
0.62359494864 0.62359407153 0.62359391263 0.62359463646 0.62359567292 0.62359715044 0.62359843934 0.62359927758 0.62359951667 
0.62359929642 0.62359869767 0.62359796739 0.62359687347 0.6235962245 0.62359606019 0.62359679358 0.62359908627 0.6236030954 
0.62360886251 0.62361671702 0.62362670377 0.62363812763 0.62365121843 0.62366496024 0.62367944121 0.6236942623 0.62370904508 
0.62372321453 0.62373742719 0.62375125921 0.62376387917 0.62377644199 0.62378822235 0.62379968817 0.62381095599 0.62382141946 
0.62383184397 0.62384171284 0.623851963 0.62386150506 0.62387049527 0.62387907835 0.62388671883 0.62389347184 0.62389936438 
0.62340986812 0.62341474631 0.62341910732 0.62342253511 0.62342532182 0.62342808221 0.62343127852 0.62343452812 0.62343816313 
0.62344195085 0.62344551661 0.62344875162 0.62345145913 0.62345310645 0.62345408433 0.6234543681 0.62345374792 0.62345261291 
0.62345138792 0.6234501078 0.62344963454 0.62345056199 0.62345323247 0.6234578386 0.6234645336 0.6234737923 0.62348543081 
0.62349831905 0.62351270009 0.62352788262 0.62354367154 0.62355942926 0.62357453222 0.62358933025 0.62360388814 0.62361683842 
0.62362924923 0.62364086487 0.62365197731 0.62366226638 0.62367256041 0.62368222332 0.62369198386 0.62370158065 0.62371150984 
0.62372082311 0.62373032709 0.62373938227 0.62374775545 0.62375501119 0.62220464446 0.62221700272 0.62222791164 0.62223727876 
0.62224541838 0.62225303499 0.62226012731 0.62226693006 0.62227372757 0.62228019267 0.62228629406 0.62229169284 0.62229638808 
0.62229995228 0.62230227071 0.62230320589 0.62230313589 0.62230188715 0.62230034797 0.62229831684 0.62229659456 0.62229622443 
0.62229768871 0.62230136251 0.62230727787 0.62231673794 0.62232802828 0.62234166913 0.62235701955 0.62237338202 0.62239045154 
0.62240744353 0.6224237757 0.62243939626 0.62245413306 0.62246755242 0.62247996282 0.62249121664 0.62250166511 0.622511298 
0.6225209829 0.62253012994 0.62253956739 0.62254915857 0.62255929087 0.62256937944 0.62258002305 0.62259074659 0.62260118722 
0.62261099675 0.61998290223 0.62000263789 0.62002017937 0.62003603384 0.62004970198 0.62006218885 0.62007366517 0.62008437936 
0.62009462264 0.62010424989 0.62011304825 0.62012104579 0.62012802444 0.62013354723 0.62013736027 0.62013942506 0.62013992483 
0.62013867332 0.62013656797 0.62013358731 0.6201310309 0.62012931273 0.62012974697 0.62013260495 0.62013856592 0.62014732362 
0.62015936496 0.62017385838 0.62019073686 0.62020887106 0.62022748596 0.62024610537 0.62026367897 0.62028018686 0.62029550361 
0.62030919668 0.62032123603 0.62033195868 0.62034179465 0.62035055418 0.62035932364 0.62036822171 0.62037738793 0.62038720082 
0.62039745341 0.62040910987 0.62042124524 0.62043403788 0.62044716813 0.62045959763 0.61673035859 0.61675826129 0.61678276315 
0.61680515669 0.61682485913 0.61684277347 0.61685916129 0.61687420175 0.61688850561 0.61690146772 0.61691356556 0.61692452859 
0.61693396549 0.61694174074 0.61694736168 0.61695064301 0.61695158693 0.61695051832 0.61694791957 0.61694400191 0.61694029678 
0.61693735753 0.61693659911 0.61693862663 0.61694434147 0.61695351803 0.61696649956 0.61698241423 0.61700102705 0.61702116306 
0.61704184036 0.61706239836 0.61708140644 0.61709904609 0.61711473735 0.61712858445 0.61714022629 0.61715021317 0.61715914369 
0.61716713188 0.61717486501 0.61718333024 0.6171923636 0.61720250807 0.61721360688 0.61722653731 0.61724101034 0.61725643673 
0.61727260655 0.61728894233 0.6124281702 0.61246431253 0.61249652259 0.61252612284 0.6125523802 0.61257635899 0.61259810577 
0.61261834007 0.61263702532 0.61265415651 0.61266998123 0.61268428468 0.61269687133 0.61270722258 0.61271480461 0.61271932188 
0.6127209715 0.61272001635 0.61271664438 0.61271179758 0.61270674982 0.61270232748 0.61270038688 0.61270189062 0.61270726246 
0.61271703988 0.61273118544 0.61274894105 0.6127696776 0.61279247552 0.61281580949 0.61283839354 0.61285937293 0.61287801804 
0.61289425817 0.61290801388 0.6129190693 0.61292814965 0.61293556171 0.61294259115 0.61294951225 0.6129573415 0.61296625625 
0.61297681854 0.61298934825 0.6130042147 0.61302122321 0.61303986204 0.61305957813 0.61307987601 0.60705345583 0.60709831933 
0.60713894411 0.60717631937 0.60720982482 0.60724056917 0.60726863433 0.60729439037 0.60731820724 0.60734015515 0.60736057928 
0.60737863657 0.60739481412 0.60740807127 0.60741784891 0.60742388513 0.60742625447 0.60742522647 0.60742107112 0.60741506091 
0.60740846672 0.60740256688 0.6073995056 0.60740002878 0.60740528463 0.60741586311 0.60743172883 0.60745157867 0.60747504517 
0.60750098069 0.60752726874 0.60755243961 0.60757544641 0.60759533692 0.60761220521 0.60762568868 0.60763597007 0.60764368853 
0.607649754 0.60765518553 0.60766112913 0.6076682469 0.60767708298 0.60768843556 0.60770255798 0.60771982404 0.6077398217 
0.60776237297 0.60778653711 0.60781161272 0.6005823155 0.60063599206 0.60068569654 0.60073119958 0.60077285342 0.60081094936 
0.60084602974 0.60087830183 0.6009079361 0.60093537823 0.60096069703 0.60098333793 0.60100335742 0.60101992482 0.60103235375 
0.60104011959 0.60104312556 0.60104179006 0.60103699322 0.60102963111 0.60102142069 0.60101391177 0.60100919973 0.60100896469 
0.6010142488 0.60102594702 0.60104350183 0.60106634214 0.60109332 0.60112266432 0.60115226782 0.60118051423 0.6012057246 
0.60122710158 0.60124455207 0.60125742697 0.60126663615 0.60127285497 0.60127684916 0.6012807711 0.60128530473 0.60129167063 
0.60130061938 0.60131310048 0.60132909739 0.60134940508 0.60137308514 0.60140017354 0.60142949901 0.60146002192 0.59299044409 
0.59305372684 0.59311267118 0.59316714975 0.59321747513 0.59326380547 0.59330633817 0.59334581177 0.59338201964 0.59341537215 
0.59344612015 0.59347374485 0.59349800187 0.59351810442 0.59353341488 0.59354290965 0.59354681979 0.59354540178 0.5935397082 
0.59353085577 0.59352055887 0.59351129764 0.59350527473 0.59350424686 0.59350992476 0.59352267263 0.59354253459 0.59356893444 
0.59359968824 0.59363298929 0.59366660789 0.59369819357 0.59372612383 0.59374898662 0.59376693318 0.59377921434 0.59378704338 
0.59379119239 0.59379318196 0.59379493753 0.59379801794 0.59380360266 0.59381274265 0.59382659263 0.59384508267 0.59386858786 
0.59389667014 0.59392877392 0.59396414034 0.59400085895 0.58425808348 0.5843311419 0.58439983386 0.58446348817 0.58452267748 
0.58457804017 0.58462874187 0.58467556498 0.58471885624 0.58475859771 0.58479518603 0.58482803521 0.58485693999 0.58488073865 
0.58489883385 0.58491023231 0.58491501218 0.58491336524 0.58490681942 0.58489609635 0.58488422588 0.58487303324 0.58486577693 
0.58486411939 0.58487032341 0.5848847742 0.58490738527 0.58493756848 0.5849728134 0.5850107375 0.58504839194 0.58508381868 
0.58511454744 0.58513919969 0.58515737584 0.58516923732 0.58517537612 0.58517723803 0.58517696798 0.58517648224 0.58517796469 
0.5851827657 0.5851923527 0.58520770569 0.58522886204 0.585256264 0.58528934481 0.58532727194 0.58536887786 0.58541228631 
0.57437245409 0.57445513634 0.57453363769 0.57460686685 0.57467549673 0.57473952824 0.57479857135 0.57485315183 0.57490347569 
0.57494984624 0.57499216292 0.57503027452 0.57506372281 0.57509132178 0.57511220782 0.57512546478 0.57513120281 0.57512938156 
0.57512153972 0.57510963593 0.57509589784 0.57508300189 0.57507466222 0.57507284272 0.57507979218 0.57509634643 0.57512213251 
0.57515641439 0.5751963867 0.57523920134 0.5752816043 0.57532108054 0.5753549808 0.5753817366 0.57540031842 0.57541161208 
0.57541618882 0.57541562816 0.57541278886 0.5754101597 0.57540991732 0.57541399674 0.57542416624 0.57544117949 0.57546543576 
0.57549714333 0.57553547097 0.57557953089 0.57562759909 0.57567804823 0.56333188188 0.56342392307 0.5635113868 0.56359406606 
0.56367185935 0.56374434239 0.56381137474 0.56387352289 0.56393072702 0.56398334045 0.56403122498 0.5640742329 0.5641119401 
0.56414291937 0.56416650273 0.56418151191 0.56418792495 0.5641859833 0.56417737056 0.56416400645 0.5641487388 0.56413475475 
0.56412556533 0.56412407208 0.56413221737 0.56415110411 0.56418044563 0.56421902574 0.56426415932 0.56431218632 0.56435983044 
0.56440332794 0.56444064251 0.56446938112 0.56448885621 0.5644996205 0.5645027443 0.5645000182 0.56449475548 0.56449014584 
0.56448836032 0.5644920651 0.56450264984 0.56452158366 0.56454914211 0.5645851949 0.5646290013 0.56467916975 0.56473378503 
0.56479092725 0.55114858597 0.55124879996 0.55134482731 0.55143579426 0.55152194238 0.55160226283 0.5516766865 0.55174559271 
0.55180913062 0.55186720459 0.55192005916 0.55196727172 0.5520085515 0.55204235612 0.55206802501 0.55208434615 0.55209150702 
0.55208945107 0.55208007869 0.55206554633 0.55204945 0.55203479526 0.55202548015 0.55202460277 0.55203434807 0.55205605369 
0.55208934035 0.5521325432 0.55218280508 0.55223605316 0.55228872818 0.55233668042 0.5523772942 0.55240849331 0.55242918456 
0.55243984733 0.55244173491 0.55243743264 0.55243051098 0.55242412977 0.5524211843 0.55242453498 0.55243574591 0.55245677966 
0.55248746057 0.55252768561 0.55257657254 0.55263241561 0.55269310877 0.55275624432 0.53785165875 0.53795904408 0.53806235462 
0.53816043648 0.53825320611 0.53834031007 0.53842122114 0.53849568383 0.53856405978 0.53862673086 0.53868323629 0.53873373581 
0.53877734615 0.53881320855 0.53884014576 0.53885735803 0.53886477455 0.53886282976 0.538852723 0.53883767425 0.53882108485 
0.53880646559 0.53879779649 0.53879828913 0.53881038573 0.53883502927 0.53887226213 0.53892007723 0.53897533231 0.53903372298 
0.53909140673 0.53914385464 0.53918801641 0.53922163054 0.5392439521 0.5392553101 0.5392568664 0.53925197764 0.53924401259 
0.53923643316 0.53923277762 0.53923604636 0.53924819936 0.53927092428 0.53930437045 0.53934824169 0.53940140915 0.53946197255 
0.53952777973 0.53959556889 0.5234900782 0.52360275686 0.5237116382 0.52381508411 0.52391319777 0.5240050949 0.52409042549 
0.52416905051 0.52424084308 0.52430616765 0.52436497798 0.52441725777 0.52446206821 0.52449867376 0.52452593118 0.52454334509 
0.5245506029 0.52454842819 0.52453811332 0.52452318543 0.52450662573 0.52449308247 0.5244857784 0.52448826899 0.52450308041 
0.52453120416 0.52457236345 0.52462441185 0.52468435273 0.5247476227 0.52480987737 0.52486682784 0.52491456676 0.52495113487 
0.52497560376 0.52498848321 0.52499090105 0.52498638355 0.52497811801 0.52497043715 0.52496683471 0.52497028328 0.5249833264 
0.52500748841 0.52504302621 0.52508956186 0.52514582446 0.52520987209 0.52527912581 0.5253502117 0.50813271247 0.50824882686 
0.50836098885 0.50846807324 0.50856921832 0.50866393579 0.5087516092 0.50883200096 0.50890549488 0.50897141861 0.50903095832 
0.50908322112 0.50912766498 0.50916352957 0.50919014835 0.50920658361 0.50921323913 0.50921075187 0.50920077991 0.50918623801 
0.50917087768 0.50915863741 0.50915370313 0.50915895702 0.5091767751 0.50920852913 0.50925351573 0.50930963434 0.50937373102 
0.5094412803 0.50950781894 0.50956877998 0.50962048341 0.50966043179 0.50968781724 0.50970312975 0.50970767103 0.50970457701 
0.50969737094 0.50969053504 0.50968771101 0.50969192772 0.5097056402 0.50973073914 0.50976738626 0.50981519897 0.50987284541 
0.5099383356 0.51000920689 0.51008163154 0.49186879436 0.49198632995 0.49209967913 0.49220780172 0.49230974421 0.49240481177 
0.49249237396 0.49257248016 0.49264523309 0.49271009319 0.49276811143 0.49281837239 0.4928608235 0.49289444144 0.4929188351 
0.49293354817 0.4929390176 0.49293604493 0.49292639281 0.49291274568 0.49289922699 0.49288934257 0.4928874229 0.49289580111 