# vtk DataFile Version 5.1
vtk output
ASCII
DATASET STRUCTURED_POINTS
DIMENSIONS 50 50 50
SPACING 0.002 0.002 0.002
ORIGIN 0.1742 -0.052672 0.02732
POINT_DATA 125000
FIELD FieldData 1
potential 1 125000 double
0.0034072374122 0.003373876785 0.0033408900567 0.0033082728764 0.0032759807007 0.0032442334298 0.0032127073011 0.0031815331635 0.0031507091412 
0.0031202305827 0.0030900953282 0.0030603024348 0.0030308497094 0.0030017312509 0.002972946976 0.0029445139558 0.0029163887978 0.0028885901688 
0.0028611165343 0.0028339601862 0.0028071237371 0.0027805981031 0.0027543810343 0.0027284644819 0.002702849844 0.002677533501 0.002652511813 
0.0026277861746 0.0026033498206 0.0025792034447 0.0025553433007 0.0025317696977 0.0025084776816 0.002485463329 0.0024627232969 0.0024402580462 
0.0024180617924 0.0023961280107 0.0023744553615 0.0023530325864 0.0023318632637 0.0023109400403 0.0022902613364 0.002269821821 0.0022496184113 
0.0022296483387 0.002209907556 0.0021903928943 0.0021711000935 0.0021520267149 0.0034486131503 0.0034145820764 0.0033809354707 0.0033476701614 
0.0033147867273 0.0032822317224 0.0032502271243 0.0032184512872 0.003187034278 0.0031559738611 0.0031252691383 0.0030949153787 0.0030649136834 
0.0030352560189 0.0030059420809 0.0029769709642 0.0029483565272 0.0029200599206 0.002892094111 0.0028644565682 0.0028371460833 0.0028101573013 
0.0027834846707 0.0027571223783 0.0027310702423 0.0027053244471 0.0026798825361 0.0026547415502 0.002629901239 0.0026053567431 0.0025811072068 
0.0025571504317 0.0025334825831 0.0025100994994 0.00248700035 0.0024641782902 0.0024416322095 0.0024193560465 0.0023973451554 0.0023755928201 
0.0023540978798 0.0023328557713 0.0023118624435 0.0022911143135 0.0022706084639 0.0022503402554 0.0022303071117 0.0022105052368 0.0021909302575 
0.0021715787507 0.0034886927779 0.0034539966803 0.0034196960581 0.0033857910612 0.0033522765829 0.0033191478033 0.0032863531612 0.0032541209835 
0.0032221201233 0.003190485547 0.003159216157 0.0031283117433 0.0030977661036 0.0030675758212 0.003037739941 0.0030082543185 0.0029791209162 
0.0029503512175 0.0029219032497 0.0028937936783 0.0028660174257 0.0028385721184 0.0028114503496 0.0027846505621 0.0027581684335 0.0027320009206 
0.0027061443199 0.002680596649 0.0026553590059 0.0026304235032 0.0026057907658 0.0025814585983 0.0025574223335 0.0025336781424 0.0025102225962 
0.0024870533788 0.0024641663122 0.0024415535231 0.0024192115648 0.0023971381743 0.0023753251305 0.002353770405 0.002332470708 0.002311420963 
0.0022906193628 0.0022700609005 0.0022497415978 0.0022296590793 0.0022098090922 0.0021901866612 0.0035272881841 0.0034919354263 0.0034569908309 
0.003422452755 0.0033883150561 0.0033545758059 0.0033212264554 0.0032882235328 0.0032557875836 0.0032235879821 0.0031917656917 0.0031603132768 
0.0031292360624 0.0030985250075 0.0030681761976 0.0030381887983 0.0030085616177 0.0029792896267 0.0029503669613 0.0029218103931 0.0028935775064 
0.002865685052 0.0028381239725 0.0028108952841 0.0027839926936 0.0027574111685 0.0027311494692 0.002705205429 0.0026795761544 0.0026542602619 
0.002629253216 0.0026045535474 0.0025801576014 0.0025560613785 0.0025322585216 0.0025087503412 0.0024855278652 0.0024625870316 0.0024399232846 
0.0024175375836 0.0023954155288 0.0023735580585 0.0023519584017 0.002330617449 0.0023095281863 0.00228868678 0.002268090616 0.0022477360727 
0.0022276185143 0.0022077332311 0.0035642566379 0.0035282565869 0.0034926770191 0.0034575154444 0.0034227693234 0.0033884276529 0.0033544915265 
0.0033209534407 0.003287770979 0.0032551549146 0.0032227875498 0.0031908024389 0.0031592019557 0.0031279758195 0.003097123827 0.0030666454211 
0.0030365347645 0.0030067891848 0.0029774015983 0.0029483727143 0.002919711607 0.0028913814652 0.0028633918353 0.002835741662 0.0028084299307 
0.0027814454652 0.0027547883743 0.0027284580577 0.002702448748 0.00267676098 0.0026513883804 0.0026263306443 0.0026015835955 0.0025771434827 
0.0025530046583 0.0025291659677 0.00250561889 0.0024823609064 0.0024593849305 0.0024366931682 0.0024142723498 0.0023921201677 0.0023702332034 
0.0023486087054 0.0023272407112 0.0023061267731 0.0022852622143 0.0022646441613 0.0022442684459 0.0022241291383 0.0035995075519 0.0035628703937 
0.0035266698743 0.0034908933252 0.0034555457824 0.0034206156294 0.0033861027824 0.0033519972191 0.0033183034709 0.003285100951 0.0032521988933 
0.0032196915159 0.0031875779966 0.0031558471449 0.0031245022245 0.0030935422995 0.0030629614648 0.0030327529263 0.0030029123887 0.0029734390827 
0.002944327285 0.0029155860616 0.0028871795601 0.0028591201274 0.0028314063655 0.0028040292083 0.0027769871124 0.002750279884 0.0027239006173 
0.0026978509705 0.0026721242219 0.0026467187603 0.0026216319184 0.002596858212 0.0025723928165 0.002548234467 0.0025243752769 0.002500808078 
0.0024775313083 0.0024545425828 0.0024318329854 0.0024093962588 0.0023872313427 0.002365332551 0.002343697178 0.0023223192379 0.0023011971693 
0.0022803254735 0.0022597007191 0.002239317618 0.0036330051337 0.0035957424456 0.0035589250536 0.0035225505237 0.0034866132034 0.0034511069429 
0.0034160226735 0.0033813645727 0.0033471236919 0.0033132936613 0.0032799645277 0.0032469462174 0.0032143301348 0.0031821100495 0.0031502845089 
0.0031188516196 0.0030878072175 0.003057151015 0.0030268679623 0.0029969613301 0.0029674249815 0.0029382506776 0.0029094545477 0.0028809960458 
0.0028528933864 0.0028251354298 0.0027977186701 0.0027706449305 0.0027439064958 0.0027175042828 0.0026914347728 0.0026656930176 0.0026402758337 
0.0026151797429 0.0025903979613 0.0025659288106 0.0025417656301 0.0025179018049 0.0024943346343 0.0024710613865 0.0024480720526 0.0024253618506 
0.0024029280694 0.0023807677217 0.0023588739719 0.0023372432744 0.0023158721458 0.0022947567889 0.0022738928695 0.0022532749837 0.0036647693016 
0.0036268898407 0.0035894682658 0.0035525016588 0.003515983563 0.003479909449 0.0034442718513 0.0034090685201 0.0033742953713 0.0033399442277 
0.0033060088785 0.0032725859042 0.0032394794477 0.0032067786186 0.0031744831017 0.0031425891612 0.0031110956013 0.0030799938957 0.0030492785501 
0.0030189539103 0.0029890032437 0.0029594267061 0.0029302154557 0.0029013870619 0.0028729034585 0.0028447736487 0.0028169949608 0.0027895642312 
0.0027624781417 0.0027357351074 0.0027093327106 0.0026832632995 0.0026575262081 0.0026321170929 0.0026070292205 0.002582261474 0.0025578043358 
0.0025336532195 0.0025098072595 0.0024862592198 0.0024630008715 0.00244002749 0.0024173353421 0.0023949219557 0.0023727801298 0.0023509063403 
0.0023292969825 0.0023079477371 0.0022868539446 0.0022660115668 0.0036948725742 0.0036563865628 0.0036183698389 0.0035808202985 0.0035437329446 
0.0035071018828 0.0034709210087 0.00343518347 0.0033998856921 0.0033650222395 0.0033305869293 0.0032965774175 0.0032630865102 0.0032299178942 
0.0031971618957 0.003164817975 0.0031328823895 0.0031013493204 0.0030702141016 0.0030394721455 0.0030091198706 0.0029791497931 0.0029495546618 
0.0029203320618 0.0028914779465 0.0028630032206 0.0028348718837 0.0028070952697 0.0027796706518 0.0027525968028 0.0027258689751 0.0026994820976 
0.0026734360498 0.0026477231124 0.002622339761 0.0025972820224 0.0025725418464 0.0025481171103 0.0025239992452 0.0025001853453 0.0024766662081 
0.0024534400568 0.0024305008077 0.0024078432101 0.0023854626003 0.0023633561652 0.0023415186332 0.0023199445517 0.0022986303101 0.0022775704707 
0.0037234466308 0.0036843598734 0.0036457570123 0.0036076332008 0.0035699866978 0.0035328055848 0.0034960880705 0.0034598247666 0.0034240121997 
0.0033886443902 0.0033537187813 0.0033192289019 0.0032853110291 0.0032516343093 0.003218429997 0.0031856448942 0.0031532750717 0.0031213210234 
0.0030897726279 0.003058627836 0.0030278789176 0.0029975250635 0.0029675565097 0.0029379643778 0.0029087489626 0.0028799059926 0.0028514465231 
0.0028233331155 0.0027955794361 0.0027681829942 0.0027411398663 0.0027144457895 0.0026880973699 0.0026620901344 0.0026364193612 0.0026110812595 
0.0025860685214 0.0025613757334 0.0025369965359 0.0025129248978 0.0024891572448 0.0024656863134 0.002442507194 0.0024196155554 0.002397005137 
0.0023746750231 0.0023526159675 0.0023308248779 0.0023092995547 0.0022880306675 0.0037506741907 0.0037109908824 0.0036718076246 0.003633115571 
0.0035949131049 0.0035571892574 0.0035199415889 0.0034831596132 0.0034468411462 0.0034109759273 0.0033755644018 0.0033405999997 0.0033060785332 
0.0032721344809 0.0032384415552 0.0032052225375 0.0031724287865 0.0031400594439 0.0031081061654 0.0030765640434 0.003045430177 0.0030146958378 
0.0029843565788 0.0029544054333 0.002924839967 0.0028956519142 0.0028668387728 0.0028384135409 0.0028103382354 0.0027826268453 0.0027552755657 
0.0027282822597 0.0027016391017 0.0026753457839 0.002649394161 0.0026237824177 0.002598504996 0.0025735517647 0.0025489201512 0.0025245992045 
0.0025005893129 0.0024768825257 0.0024534715281 0.0024303533244 0.0024075215846 0.0023849733903 0.0023627015199 0.0023407013091 0.0023189696862 
0.00229750166 0.0037767823809 0.0037365065999 0.0036967462921 0.0036574879887 0.0036187333421 0.0035804723403 0.003542695599 0.0035054023771 
0.0034685788162 0.0034322225174 0.0033963310978 0.0033608981287 0.0033259172273 0.0032913857065 0.0032574390885 0.0032237493693 0.0031905349953 
0.0031577535663 0.0031254018742 0.0030934678611 0.0030619537978 0.0030308471173 0.0030001445848 0.0029698370573 0.0029399240295 0.0029103977056 
0.0028812555217 0.0028524903479 0.0028241162332 0.0027960967278 0.0027684435279 0.0027411556262 0.0027142253842 0.0026876509794 0.0026614260604 
0.0026355471033 0.0026100086494 0.0025848018464 0.0025599227249 0.0025353610069 0.0025111145208 0.002487177104 0.0024635410056 0.0024402020392 
0.0024171548915 0.0023943952498 0.0023719161914 0.0023497136437 0.0023277817552 0.0023061196137 0.0038020395109 0.0037611707695 0.003720831279 
0.0036810116338 0.003641704648 0.0036029066153 0.0035646059404 0.0035267961155 0.0034894722884 0.0034526282254 0.0034162581417 0.0033803580128 
0.003344921225 0.0033099449654 0.0032755650658 0.0032414918372 0.0032078218465 0.0031746299996 0.0031418804701 0.0031095608832 0.0030776686714 
0.0030461934937 0.0030151292606 0.0029844723943 0.0029542159517 0.0029243541716 0.002894883538 0.0028658007346 0.0028370982787 0.0028087901507 
0.0027808406699 0.0027532619574 0.0027260474882 0.0026991954665 0.0026727018309 0.0026465593476 0.0026207652798 0.0025953093872 0.0025701859476 
0.0025453865286 0.0025209085513 0.0024967446915 0.0024728887683 0.0024493335319 0.0024260759172 0.0024031098775 0.002380428582 0.0023580273483 
0.0023359012614 0.0023140477635 0.0038267514007 0.0037852906904 0.0037443668097 0.0037039800519 0.0036641193546 0.0036247808538 0.0035859540962 
0.0035476300803 0.0035098025955 0.0034724666978 0.0034356186641 0.0033992541731 0.0033633594409 0.0033279368839 0.0032929823274 0.0032586237261 
0.0032245789256 0.0031909396454 0.0031577927328 0.0031250853026 0.0030928142634 0.0030609725464 0.0030295494477 0.0029985408633 0.002967942376 
0.0029377474281 0.0029079535578 0.0028785523435 0.0028495407463 0.002820914212 0.0027926841441 0.0027648169238 0.0027373205176 0.0027101933915 
0.0026834333019 0.0026570300585 0.0026309817091 0.0026052787048 0.0025799133057 0.002554879813 0.0025301717888 0.0025057843181 0.0024817107831 
0.0024579423807 0.0024344755475 0.0024113057949 0.0023884259961 0.0023658289823 0.0023435096367 0.0023214687992 0.0038512445164 0.0038091840743 
0.0037676725715 0.0037267112504 0.0036862910113 0.0036464069938 0.0036070466153 0.0035682017729 0.0035298713032 0.003492038438 0.0034547055087 
0.0034178685216 0.0033815152074 0.0033456406504 0.0033102452845 0.0032753206821 0.0032409980455 0.0032069967218 0.0031734085285 0.0031403117229 
0.003107662076 0.0030754502757 0.0030436622486 0.0030123032675 0.0029813617112 0.0029508316634 0.0029207096258 0.0028909918624 0.0028616684389 
0.0028327378035 0.0028041976789 0.0027760409863 0.0027482780094 0.0027208756662 0.0026938462701 0.0026671823499 0.0026408793191 0.0026149298506 
0.0025893236337 0.0025640558851 0.0025391192374 0.0025145089651 0.0024902174715 0.0024662370233 0.0024425614093 0.0024191881541 0.0023961083225 
0.0023733171851 0.0023508084178 0.0023285777856 0.0038758576731 0.0038331870488 0.0037910816461 0.0037495330076 0.0037085474436 0.0036681071952 
0.0036282032813 0.0035888302755 0.0035499846853 0.0035116511712 0.0034738252943 0.0034365095497 0.0033996860655 0.0033633549115 0.0033275156663 
0.0032921554097 0.0032574113103 0.0032229979255 0.0031890457666 0.003155514351 0.0031224792436 0.0030898930114 0.0030577429123 0.0030260250691 
0.0029947381322 0.0029638677989 0.0029334131864 0.0029033721048 0.0028737359945 0.0028444984008 0.0028156568883 0.0027872089612 0.0027591488434 
0.002731483364 0.0027041805721 0.0026772547564 0.0026506947379 0.0026244953483 0.0025986458163 0.0025731417905 0.0025479743882 0.0025231389189 
0.0024986273057 0.0024744328073 0.002450547561 0.0024269682211 0.0024036877454 0.0023806976307 0.0023579985351 0.0023355803836 0.0039009427789 
0.00385764421 0.0038149277296 0.0037727854872 0.0037312137691 0.0036902046398 0.0036497502001 0.0036098331702 0.0035704591221 0.0035316112618 
0.003493285869 0.0034554778227 0.0034181773083 0.0033813809856 0.0033450847969 0.0033092821708 0.0032739637026 0.003239268579 0.003204907351 
0.0031709716519 0.0031375459244 0.0031045778012 0.003072055958 0.0030399750572 0.0030083321255 0.0029771150184 0.0029463248552 0.0029159537106 
0.0028859947157 0.0028564449853 0.0028272983154 0.002798550953 0.0027702024125 0.0027422408402 0.0027146771469 0.0026874813982 0.0026606604053 
0.00263420563 0.0026081086009 0.0025823623285 0.0025569617477 0.0025318961643 0.0025071604666 0.0024827467107 0.0024586471978 0.0024348605856 
0.0024113746647 0.0023881848053 0.0023652886918 0.0023426787758 0.0039268351283 0.0038828887205 0.003839543409 0.0037967858445 0.0037546150561 
0.0037130217824 0.0036719954623 0.0036315263141 0.0035916083118 0.0035522286989 0.0035133865078 0.0034750743067 0.0034372829803 0.0034000055525 
0.0033632429734 0.0033269815281 0.0032912184205 0.0032559500362 0.003221306908 0.003187001321 0.0031531317517 0.0031197706883 0.0030868626823 
0.0030544107949 0.0030224048755 0.0029908328691 0.0029596927625 0.002928982094 0.0028986918235 0.0028688232073 0.0028393631913 0.0028103097169 
0.0027816607126 0.0027534107246 0.0027255509132 0.0026980931689 0.0026710037494 0.0026442873177 0.0026179354298 0.0025919411298 0.0025662991681 
0.0025409949935 0.002516029813 0.0024913911748 0.0024670728716 0.0024430692632 0.0024193738609 0.0023959778398 0.0023728796894 0.0023500718352 
0.003953850214 0.0039092367522 0.0038652367538 0.0038218442233 0.0037790536818 0.0037368562439 0.0036952407187 0.0036541952787 0.0036137147779 
0.0035737906016 0.0035344103695 0.003495577257 0.0034572778926 0.0034195066697 0.0033822558136 0.0033455250784 0.0033093032076 0.0032735838245 
0.003238504182 0.0032037745926 0.003169530635 0.0031357172633 0.0031024185905 0.0030695750877 0.0030371926537 0.00300525363 0.0029737585026 
0.002942695937 0.0029120648519 0.002881862301 0.0028520791331 0.0028227100822 0.0027937529422 0.0027652015946 0.0027370489001 0.0027092928806 
0.0026819404374 0.0026549521081 0.0026283365631 0.0026020849809 0.0025761907586 0.0025506411917 0.0025254365426 0.0025005662229 0.0024760193973 
0.0024517908797 0.0024278770819 0.0024042687987 0.00238096083 0.0023579498656 0.0039822780498 0.0039369720585 0.0038922974258 0.0038482428044 
0.0038048124552 0.0037619851666 0.0037197556046 0.0036781130174 0.0036370480485 0.0035965538545 0.0035566208806 0.0035172453448 0.0034784173135 
0.0034401301849 0.003402379081 0.0033651568047 0.0033284560795 0.0032922714025 0.0032565951608 0.0032215641185 0.0031868880695 0.0031526958729 
0.0031189433545 0.0030857038634 0.0030529236263 0.0030206049733 0.0029887326418 0.0029573124135 0.0029263268149 0.0028957752956 0.0028656527244 
0.0028359555642 0.0028066801506 0.0027778158275 0.0027493576283 0.002721306941 0.002693650359 0.0026663929052 0.0026395033939 0.0026129835887 
0.0025868243956 0.0025610200857 0.0025355655997 0.0025104509848 0.0024856651663 0.0024612041678 0.002437062276 0.0024132309071 0.0023897049197 
0.0023664799487 0.0040123835856 0.003966357067 0.0039209749579 0.0038762329846 0.0038321300641 0.00378864729 0.0037457796872 0.0037035144618 
0.0036618413549 0.0036207551844 0.0035802417242 0.0035403020277 0.0035009260118 0.0034620998076 0.003423824057 0.0033860918024 0.0033488921573 
0.0033122240214 0.003276075546 0.00324043945 0.0032054553409 0.0031708223688 0.0031366816412 0.003102980274 0.0030697945381 0.0030370741166 
0.0030048128727 0.0029730095179 0.0029416574773 0.0029107466847 0.0028802712712 0.0028502281025 0.0028206178543 0.0027914288972 0.0027626530362 
0.0027342911229 0.002706330425 0.0026787648847 0.0026516005267 0.0026248003282 0.0025983669667 0.0025722958032 0.002546577228 0.0025212054537 
0.0024961696446 0.0024714639142 0.0024470833602 0.0024230169253 0.0023992628649 0.002375813823 0.0040443647304 0.0039976036738 0.0039514902174 
0.0039060322818 0.0038612239839 0.0038170560665 0.0037735179159 0.0037306035377 0.0036882978772 0.0036465904222 0.0036054766607 0.0035649432612 
0.0035249896822 0.0034856063194 0.0034467810723 0.0034085181425 0.0033707977789 0.0033336194427 0.0032969761938 0.0032608576362 0.0032254011406 
0.0031903093775 0.0031557196121 0.003121619346 0.0030879650042 0.0030548305238 0.0030221605131 0.0029899591763 0.00295821937 0.0029269283874 
0.0028960867967 0.0028656856098 0.0028357243436 0.0028061908379 0.0027770814353 0.002748394825 0.0027201161627 0.0026922407059 0.0026647609629 
0.0026376785207 0.0026109572938 0.0025846045328 0.002558607714 0.0025329659734 0.0025076681757 0.0024827040422 0.0024580704925 0.002433758863 
0.0024097636258 0.0023860774369 0.0040784498 0.00403087998 0.0039840151342 0.0039378073882 0.0038922697092 0.0038473885033 0.0038031509302 
0.0037595518229 0.0037165805349 0.0036742252355 0.0036324797849 0.0035913305582 0.0035507734133 0.0035108033476 0.0034714104717 0.0034325843928 
0.0033943228083 0.0033566116306 0.0033194496228 0.0032828255412 0.0032467319132 0.0032112977227 0.0031762399471 0.0031416829555 0.0031076192913 
0.0030740058406 0.0030409106088 0.0030082914824 0.0029761425113 0.0029444572009 0.0029132293703 0.0028824537155 0.0028521213076 0.0028222316413 
0.0027927720984 0.0027637403856 0.0027351284417 0.0027069262877 0.002679128833 0.0026517213407 0.0026247098366 0.0025980577181 0.0025717726523 
0.0025458452626 0.0025202674744 0.0024950333787 0.0024701338139 0.0024455616031 0.0024213107949 0.0023973762852 0.0041147717926 0.0040663750625 
0.0040186845825 0.0039717070779 0.0039254033132 0.0038797739267 0.0038348101639 0.0037904998152 0.0037468331156 0.0037037947307 0.003661385947 
0.0036195907629 0.0035784086049 0.0035378220289 0.0034978303387 0.0034584225255 0.0034195868185 0.0033813201387 0.0033436125675 0.0033064573554 
0.0032698470822 0.0032339079997 0.00319835478 0.0031633204787 0.0031287855472 0.0030947513105 0.0030611708299 0.0030281151798 0.0029955383651 
0.0029634346013 0.0029318034483 0.0029006300652 0.002869913029 0.0028396447408 0.0028098178317 0.0027804276245 0.0027514621782 0.0027229165123 
0.0026947825607 0.0026670483807 0.0026397010465 0.0026127488546 0.0025861577204 0.0025599308165 0.0025340602949 0.0025085388572 0.002483358057 
0.0024585120419 0.0024339907364 0.002409791067 0.0041534465163 0.0041041827869 0.0040556504693 0.0040078332641 0.0039607436297 0.0039143317435 
0.0038685994541 0.0038235447649 0.0037791524219 0.0037354086705 0.0036923024653 0.003649831277 0.0036079866556 0.0035667609558 0.0035261420361 
0.0034861197106 0.0034466884611 0.0034078382388 0.0033695597272 0.0033318458451 0.003294692139 0.0032580847495 0.0032221569674 0.0031866143712 
0.0031515911151 0.0031170730583 0.0030830226753 0.0030495096104 0.0030164847316 0.0029839468432 0.0029518885398 0.0029202989514 0.0028891770929 
0.0028585113005 0.0028282963049 0.0027985269968 0.0027691941704 0.0027402842106 0.002711796917 0.0026837162508 0.0026560331693 0.0026287351293 
0.0026018337862 0.0025752922369 0.0025491136906 0.0025232881797 0.0024978126825 0.0024726737665 0.002447867387 0.0024233893115 0.0041945666716 
0.0041443995124 0.0040949803541 0.004046302539 0.0039983569772 0.0039511393375 0.0039046114279 0.0038587790848 0.0038136207038 0.0037691323044 
0.0037253056282 0.0036821303346 0.0036395946412 0.0035976919463 0.0035564132615 0.0035157540484 0.003475695203 0.0034362325467 0.0033973595331 
0.0033590616579 0.0033213386564 0.003284175677 0.0032475673222 0.0032116349401 0.0031760943095 0.0031410755916 0.0031065718427 0.0030725377515 
0.003039046947 0.0030060495208 0.0029735421536 0.002941517419 0.0029099677394 0.0028788841197 0.0028482648715 0.0028180968535 0.0027883740533 
0.0027590862636 0.002730227224 0.0027017789154 0.0026737407444 0.0026460975638 0.0026188435011 0.0025919789785 0.0025654768822 0.0025393335279 
0.0025135423505 0.0024880970328 0.0024629915232 0.0024382179786 0.0042381995103 0.0041870864631 0.0041367423829 0.0040871642305 0.0040383356357 
0.003990247902 0.0039428978736 0.0038962534715 0.0038503022291 0.0038050362346 0.0037604493434 0.0037165332565 0.0036732773524 0.0036306721789 
0.0035887030472 0.0035473681234 0.0035066596568 0.0034665583418 0.0034270591036 0.0033881553962 0.0033498335654 0.0033120894133 0.0032749104641 
0.003238427761 0.0032023460275 0.003166798604 0.0031317816295 0.0030972829904 0.0030632626222 0.0030297880547 0.0029968081042 0.0029643262027 
0.0029323298701 0.0029008090009 0.0028697602569 0.0028391742989 0.002809043517 0.0027793544773 0.0027501053617 0.0027212772059 0.002692863417 
0.0026648540045 0.0026372423035 0.0026100171503 0.0025831820363 0.0025567013513 0.0025305821943 0.0025048171754 0.0024793939317 0.0024543117547 
0.0042843761151 0.0042322891694 0.004180975419 0.0041304542644 0.004080709147 0.0040317247938 0.003983489403 0.0039360066496 0.0038892262305 
0.0038431515534 0.0037977728365 0.0037530805865 0.0037090673419 0.0036657269209 0.0036230435587 0.0035810074033 0.003539610033 0.0034988423689 
0.0034586908372 0.0034191497469 0.0033802073342 0.0033418524552 0.0033040828572 0.0032668821184 0.0032303752083 0.0031942749424 0.0031587183319 
0.0031236930224 0.003089197402 0.0030551810578 0.0030217136852 0.0029887508721 0.0029562869955 0.0029243052001 0.0028928090203 0.0028617826293 
0.0028312218502 0.002801115819 0.0027714559773 0.0027422284066 0.0027134237326 0.0026850289762 0.0026570427137 0.0026294479056 0.0026022394869 
0.0025754178683 0.0025489546257 0.0025228494308 0.0024970974211 0.0024716882883 0.0043330692385 0.0042800144771 0.0042277021338 0.0041761947101 
0.0041254916284 0.0040755747296 0.0040264265354 0.0039780533932 0.0039304061119 0.0038834883487 0.0038372845307 0.0037917881043 0.0037469871915 
0.0037028782851 0.0036594428688 0.0036166751839 0.0035745669213 0.0035330983902 0.0034922654312 0.0034520557634 0.0034124683964 0.0033734804214 
0.0033350903798 0.0032972851639 0.0032601892519 0.003223512013 0.0031873930112 0.0031518178372 0.0031167844213 0.0030822828221 0.0030482642167 
0.0030147974627 0.0029818404825 0.0029493830623 0.0029174155704 0.0028859308074 0.0028549221077 0.0028243764603 0.0027942883619 0.0027646413728 
0.0027354268292 0.0027066315195 0.0026782486359 0.0026502676114 0.0026226819115 0.002595479384 0.0025686624083 0.0025422050619 0.0025161054792 
0.002490359523 0.0043843919849 0.004330262408 0.0042769079726 0.0042243839704 0.0041726789157 0.0041217888544 0.0040716920737 0.0040223769268 
0.0039738432864 0.0039260433929 0.0038789797669 0.0038326469478 0.0037870231933 0.0037421126219 0.003697894535 0.0036543632694 0.0036115054883 
0.0035693142229 0.0035277734455 0.0034868740652 0.0034466066516 0.00340696272 0.0033679259016 0.0033294891935 0.0032916383523 0.0032545009737 
0.0032177944516 0.0031816490436 0.0031460504565 0.0031110005289 0.0030764829424 0.0030424579683 0.0030089875227 0.0029760310397 0.0029435760853 
0.0029116119552 0.0028801346054 0.0028491312565 0.0028185934249 0.0027885097152 0.0027588635759 0.0027296495217 0.0027008567439 0.0026724707772 
0.002644487802 0.0026168985035 0.0025896926217 0.0025628729616 0.0025364126145 0.0025103142778 0.0044382478589 0.0043829279693 0.0043285562428 
0.0042749721842 0.0042222366203 0.0041703293593 0.0041192509529 0.0040689740598 0.0040194841227 0.0039707779263 0.0039228239421 0.0038756147633 
0.0038291416336 0.0037833956934 0.0037383659492 0.0036940393528 0.0036504092972 0.0036074597234 0.0035651814445 0.0035235638319 0.0034825944042 
0.0034422613893 0.0034025588448 0.0033634638305 0.0033249732911 0.0032870744984 0.0032498947497 0.0032131502633 0.0031769701266 0.003141347119 
0.0031062728682 0.0030717048428 0.0030377009578 0.0030042194041 0.0029712538834 0.0029387949422 0.0029068293412 0.0028753512103 0.0028443484673 
0.0028138055473 0.0027837114463 0.0027540586996 0.0027248354251 0.0026960320256 0.0026676359222 0.0026396439087 0.0026120433983 0.0025848263185 
0.0025579987365 0.0025315304595 0.0044945673059 0.0044380902894 0.0043825149905 0.0043279020283 0.0042740897735 0.0042211399722 0.0041690277998 
0.0041177536404 0.0040672905177 0.0040176235024 0.0039687481232 0.0039206358042 0.0038732800484 0.0038266689318 0.0037807959741 0.0037356451207 
0.0036912093886 0.0036474749551 0.0036044295175 0.0035620634049 0.0035203672709 0.0034793183646 0.0034389199711 0.003399150647 0.0033599972422 
0.0033214475451 0.0032836353237 0.0032462732443 0.0032094888417 0.0031732721545 0.0031376171877 0.0031025188431 0.0030679249487 0.0030339012044 
0.0030004076238 0.0029674301911 0.002934960065 0.0029029825306 0.0028714948071 0.0028404773705 0.0028099179733 0.0027798123955 0.0027501452187 
0.0027209050949 0.0026920859123 0.0026636706349 0.0026356601672 0.0026080424536 0.0025808118171 0.0025539691264 0.0045532381681 0.0044955591539 
0.0044388127057 0.0043830565899 0.0043281353069 0.0042740966954 0.0042209299225 0.0041686157157 0.0041171454831 0.0040664954387 0.0040166480859 
0.003967606238 0.0039193388641 0.0038718384609 0.0038250908485 0.0037790889037 0.0037338219849 0.0036892728283 0.0036454321897 0.0036022939859 
0.0035598399102 0.0035180594787 0.0034769368914 0.0034364617949 0.003396622013 0.0033574018081 0.0033187960777 0.0032809306012 0.0032435193491 
0.0032066909455 0.003170435545 0.0031347509057 0.0030996197682 0.0030650012113 0.0030309529289 0.0029974421329 0.00296444733 0.0029319580848 
0.0028999650174 0.002868457088 0.0028374181078 0.0028068374951 0.0027767095729 0.0027470213913 0.0027177584368 0.0026889130516 0.0026604749398 
0.0026324422298 0.0026048038186 0.0025775526323 0.0046140924359 0.0045551759107 0.0044972215435 0.0044402137468 0.004384212251 0.0043290569794 
0.0042747955616 0.0042214153472 0.0041689056769 0.0041172344039 0.0040663988945 0.004016381197 0.0039671770193 0.0039187538206 0.0038711053849 
0.0038242236435 0.0037780984716 0.0037327147316 0.0036880570226 0.0036441170661 0.0036008860353 0.0035583453664 0.0035164792505 0.003475277466 
0.0034347277313 0.0033948166841 0.0033555350773 0.0033170034 0.0032789462245 0.0032414860949 0.0032046140478 0.0031683225255 0.0031326011807 
0.0030974390428 0.0030627910895 0.0030287250966 0.0029951889805 0.0029621718564 0.0029296615161 0.0028976444058 0.0028661083149 0.0028350411506 
0.0028044346992 0.0027742790724 0.0027445604972 0.0027152717945 0.0026863975819 0.0026579322149 0.0026298759855 0.0026022145568 0.0046768808239 
0.0046167254154 0.0045575295212 0.0044993081231 0.0044421261368 0.0043858166025 0.0043304315563 0.0042759559105 0.0042223678292 0.0041696547508 
0.0041177993835 0.0040667881113 0.0040166044027 0.003967235636 0.0039186647586 0.0038708740814 0.0038238691189 0.0037776229667 0.0037321248212 
0.0036873666048 0.003643334854 0.003600009948 0.0035573830073 0.0035154356082 0.0034741563514 0.0034335314289 0.0033935510224 0.0033542092049 
0.0033156187404 0.0032775089395 0.0032399980081 0.0032030853141 0.0031667580402 0.0031310028608 0.0030957747871 0.0030611403221 0.0030270479888 
0.0029934828537 0.0029604408232 0.0029279011894 0.0028958558954 0.0028642882386 0.0028331934905 0.0028025569111 0.0027723689607 0.0027426187449 
0.0027132941442 0.0026843959703 0.00265590557 0.0026278230217 0.0047414988197 0.0046798984417 0.0046194655658 0.0045600052042 0.0045015371436 
0.004444115768 0.0043875814043 0.0043319807116 0.0042772939878 0.0042235041646 0.0041706032594 0.0041185710196 0.0040673890806 0.0040170491161 
0.0039675318437 0.0039188205728 0.0038709065934 0.0038237795037 0.003777423926 0.0037318249885 0.0036869737128 0.0036428493459 0.0035994407276 
0.0035567274825 0.0035147031785 0.003473344458 0.0034326550886 0.0033926111486 0.0033533419267 0.0033145659477 0.0032764089312 0.0032388567702 
0.0032019038263 0.0031655430654 0.0031297573466 0.0030945025272 0.0030598427634 0.003025725068 0.0029921360284 0.0029590604206 0.0029264914604 
0.0028944113929 0.0028628161571 0.0028316871694 0.0028010197715 0.0027708014115 0.0027410182851 0.0027116676736 0.0026827377088 0.0026542263767 
0.0048073967215 0.0047445472671 0.0046826750776 0.004621978831 0.0045622781082 0.0045036477668 0.0044459347994 0.004389183383 0.0043333808019 
0.0042784952082 0.0042245222928 0.0041714482497 0.0041192510495 0.0040679181014 0.0040174344447 0.0039677775927 0.0039189463106 0.0038709198384 
0.0038236844556 0.0037772293214 0.0037315423519 0.0036866059883 0.0036423993377 0.0035989083733 0.0035561233313 0.0035140185274 0.0034726004565 
0.0034318485593 0.0033917482407 0.0033524295841 0.0033136102703 0.0032754107211 0.0032378241428 0.0032008413936 0.0031644491254 0.0031286415509 
0.0030933664069 0.0030586810944 0.0030245350127 0.0029909172333 0.0029578184057 0.0029252129156 0.0028931065179 0.0028614796123 0.0028303206999 
0.0027996257978 0.0027693787685 0.0027395708416 0.0027101954153 0.0026812429146 0.0048742728348 0.0048100604418 0.004746949225 0.0046848706825 