# vtk DataFile Version 5.1
vtk output
ASCII
DATASET STRUCTURED_POINTS
DIMENSIONS 50 50 50
SPACING 0.002 0.002 0.002
ORIGIN 0.1742 -0.052672 0.02732
POINT_DATA 125000
FIELD FieldData 1
potential 1 125000 double
0.0062645308323 0.0061676485971 0.0060728699087 0.0059801216043 0.0058892469834 0.0058003117064 0.005713330296 0.0056280952695 0.0055446356549 
0.0054628842045 0.0053828076149 0.0053043465528 0.0052274977802 0.0051521570459 0.0050783406679 0.0050059109457 0.0049352197495 0.0048657132431 
0.0047975903448 0.0047307960426 0.0046652904896 0.0046010712227 0.0045380919196 0.0044762890456 0.0044156953748 0.0043562481555 0.0042979364793 
0.0042407264165 0.0041845900399 0.0041295104547 0.0040754596439 0.0040224226885 0.0039703135576 0.0039192278999 0.0038690856141 0.0038198690146 
0.0037715941556 0.0037241574732 0.0036775785767 0.0036319389844 0.0035870039224 0.0035428623507 0.0034994933838 0.0034568776095 0.0034149995508 
0.0033738418645 0.0033333848044 0.0032936149701 0.003254512246 0.0032160644972 0.0062247239523 0.006129095053 0.0060354752179 0.0059437527826 
0.0058539882055 0.0057661140795 0.005680162966 0.0055958972655 0.0055133748008 0.0054325277252 0.0053533233394 0.00527570481 0.005199678837 
0.0051251304815 0.0050520785484 0.0049804961821 0.004910423207 0.0048416252296 0.0047741662786 0.0047080033934 0.0046431456808 0.0045795398039 
0.0045171533403 0.0044559256051 0.0043958812918 0.0043369875945 0.0042792016017 0.0042224989239 0.0041668616424 0.0041122623107 0.0040586796365 
0.004006038317 0.0039544273298 0.0039037679009 0.0038540411504 0.0038052621258 0.0037573359471 0.0037102751392 0.0036640557623 0.0036187735425 
0.003574179244 0.0035303691318 0.0034873211393 0.0034450163567 0.0034034427864 0.0033625783624 0.0033224096834 0.0032829178215 0.0032440855697 
0.0032059005982 0.0061822853243 0.0060878789985 0.0059953764789 0.0059048889255 0.0058162000302 0.0057295046211 0.0056445169409 0.0055612537136 
0.0054796984774 0.0053997924829 0.0053214906589 0.0052447474106 0.0051695508946 0.0050958403186 0.0050236874291 0.0049528845791 0.0048834520844 
0.0048153689163 0.004748610482 0.004683129674 0.0046189276723 0.0045559601795 0.00449418513 0.0044335515975 0.0043741052805 0.0043157787648 
0.0042585419263 0.0042023734823 0.0041472557605 0.0040931588897 0.0040400086401 0.0039878995795 0.003936749907 0.0038865383744 0.0038372776806 
0.0037888838228 0.0037413657905 0.00369469992 0.0036488629215 0.0036039569766 0.0035597227231 0.003516262736 0.0034735548899 0.0034315832718 
0.0033903300649 0.003349781818 0.0033099125444 0.0032707136016 0.0032321692423 0.0031942627937 0.0061368478633 0.0060436427879 0.005952450163 
0.0058630611638 0.0057756079945 0.0056900255018 0.0056060921344 0.005523879854 0.0054433291918 0.0053643942925 0.0052870197398 0.0052111904158 
0.0051368798684 0.0050640226678 0.0049926234165 0.0049227061722 0.0048540422776 0.0047867129215 0.0047206693031 0.0046559109623 0.004592398531 
0.004530099528 0.0044689736097 0.0044089675829 0.0043501334516 0.0042924004616 0.0042357393122 0.0041801306053 0.0041255548142 0.0040720072347 
0.0040193518865 0.0039677411632 0.0039170767555 0.0038673377634 0.0038185319905 0.0037705817187 0.0037234932969 0.0036772414322 0.0036319275284 
0.0035873023544 0.0035434547364 0.0035003659269 0.0034580163685 0.0034163967929 0.0033754960066 0.0033352691656 0.0032957234986 0.0032568390342 
0.0032186005643 0.0031809915211 0.0060881326714 0.0059963206097 0.0059063581158 0.0058182366575 0.0057320453529 0.0056475321105 0.0055647118886 
0.0054835733134 0.0054040671766 0.0053261406048 0.0052497427508 0.0051748420955 0.0051014663786 0.0050296071641 0.0049589570816 0.004889875062 
0.0048220218038 0.0047554772835 0.0046901967253 0.0046261850938 0.0045633924029 0.0045017853673 0.0044413232983 0.0043819928128 0.0043238048063 
0.0042666913993 0.0042106347732 0.0041556171538 0.0041016103265 0.0040485448554 0.0039965053585 0.0039454182978 0.0038952641463 0.0038460514127 
0.0037976959133 0.0037502139099 0.003703580536 0.0036577721807 0.0036128875556 0.0035686800355 0.0035252375553 0.0034825426116 0.0034405902267 
0.0033993428288 0.0033587904637 0.0033189220215 0.00327971992 0.0032411704194 0.0032032590117 0.0031659682241 0.0060361517689 0.005945649607 
0.0058570004837 0.0057701949756 0.0056852306843 0.0056018903711 0.0055202415832 0.005440217416 0.0053617978619 0.0052849012014 0.0052095250498 
0.0051356089582 0.0050633027759 0.0049921742823 0.0049226126099 0.0048542881849 0.0047872830821 0.0047215504789 0.0046570817613 0.0045938444503 
0.0045318064532 0.0044709053797 0.0044111741671 0.0043525361319 0.0042950163926 0.0042385541292 0.004183131553 0.0041287312758 0.0040752701301 
0.0040228440569 0.00397137222 0.0039208370756 0.0038712515602 0.0038225303479 0.0037746825707 0.0037276950106 0.0036815439461 0.0036362007059 
0.0035917716377 0.0035480049265 0.0035049945826 0.0034627290441 0.0034211721979 0.0033803207254 0.0033401569359 0.0033006637399 0.0032618284941 
0.003223636407 0.0031860727869 0.0031491223006 0.0059807473878 0.005891643515 0.0058043931029 0.0057189074057 0.0056352120929 0.0055531028948 
0.0054726404203 0.0053937734067 0.0053164728705 0.005240659626 0.0051663172417 0.0050934518115 0.0050221225403 0.0049519621466 0.0048833349481 
0.0048159178503 0.0047497809219 0.0046849190829 0.0046212813583 0.004558852985 0.0044975730976 0.0044374605377 0.004378471089 0.0043205558784 
0.0042637422723 0.0042079630516 0.004153204346 0.0040993971987 0.0040466191797 0.0039948021468 0.0039439288176 0.0038939740945 0.0038449489409 
0.0037967776948 0.0037494644401 0.0037029964552 0.0036573474863 0.0036126193998 0.0035685526318 0.0035252571945 0.0034827107229 0.0034408766539 
0.003399752657 0.0033593233714 0.0033195691769 0.0032804749786 0.0032420286764 0.0032042156552 0.0031670213907 0.003130443973 0.0059220778054 
0.0058344118692 0.0057485554122 0.0056644911932 0.0055820141979 0.0055011920573 0.0054219630048 0.0053442904126 0.0052681350296 0.0051934455112 
0.005120214334 0.0050485097901 0.0049780929018 0.0049090465909 0.004841278938 0.0047748038906 0.0047095841716 0.0046456096839 0.0045828362014 
0.0045212201951 0.0044607792642 0.0044014702431 0.00434325652 0.0042860989921 0.004230011216 0.0041749453118 0.0041209070434 0.0040677488504 
0.0040156278922 0.003964453494 0.0039142019441 0.0038648788127 0.003816415631 0.0037688197835 0.0037220670289 0.0036761468279 0.0036310282807 
0.0035868181593 0.0035432593879 0.0035004668182 0.0034583885364 0.003417022629 0.003376355029 0.0033363685331 0.003297045507 0.0032583742 
0.0032203396478 0.0031829271146 0.0031461369457 0.0031099282378 0.0058601872878 0.0057740502238 0.0056896252221 0.0056069481098 0.0055258181317 
0.0054463032542 0.0053683435883 0.0052919132601 0.0052169460856 0.0051434113857 0.0050714162069 0.005000690854 0.0049312738579 0.0048633280337 
0.0047965628859 0.0047310550797 0.0046667909727 0.0046037364333 0.0045418286967 0.0044811142909 0.0044215233588 0.004363038508 0.0043056320309 
0.0042492557355 0.0041939275907 0.0041396274957 0.004086211046 0.0040338323297 0.0039823956017 0.0039318872885 0.0038823094145 0.0038335922176 
0.0037857461581 0.0037387483832 0.0036925842903 0.0036472305596 0.0036027922095 0.0035590063384 0.0035159898323 0.0034736980137 0.0034321199994 
0.003391247993 0.0033510588576 0.0033115367184 0.003272668487 0.0032344417828 0.0031968397914 0.0031598623227 0.0031234698092 0.0030876592853 
0.0057954173886 0.0057107911479 0.0056278337366 0.0055465764657 0.0054668318571 0.005388657518 0.0053120085626 0.0052368291918 0.0051630729686 
0.0050907485119 0.0050199170625 0.0049503370703 0.0048819909285 0.004815104041 0.0047493668138 0.0046848713021 0.0046215833453 0.0045594802868 
0.0044984964009 0.0044386761348 0.0043799655712 0.0043223368612 0.0042657660819 0.0042101972317 0.0041556805018 0.0041020459516 0.004049454268 
0.0039978022281 0.0039470766234 0.003897258882 0.0038483518953 0.0038002922095 0.003753084527 0.0037067104396 0.0036611548201 0.0036163944429 
0.0035725365463 0.0035293277972 0.0034868514844 0.0034450939286 0.0034040471176 0.0033636827678 0.0033239911871 0.0032849568249 0.0032465637093 
0.0032088014149 0.0031716656007 0.0031351142132 0.0030991524553 0.0030637605985 0.0057280398286 0.0056449513602 0.0055635567915 0.0054836655017 
0.0054053478071 0.0053285465543 0.0052532266957 0.0051793333362 0.0051068360847 0.0050358427532 0.0049660788774 0.0048976556229 0.0048305433052 
0.0047646315757 0.004699961199 0.0046364965219 0.0045742104163 0.0045130427843 0.0044530495904 0.0043941533015 0.0043363450397 0.0042795950457 
0.0042238534638 0.0041691415234 0.0041153624923 0.0040625964397 0.0040107709034 0.0039598722486 0.0039098777085 0.003860794068 0.0038125577478 
0.0037651770412 0.0037186291393 0.0036729007103 0.0036279677382 0.0035839592676 0.0035405796683 0.0034979436631 0.0034560390804 0.0034148424923 
0.0033743351672 0.0033345036973 0.0032953298836 0.0032568009123 0.003218901218 0.0031816332437 0.0031449516309 0.0031088581417 0.0030733416741 
0.0030383872253 0.005658433262 0.0055769033893 0.0054970298357 0.0054186139721 0.0053417308745 0.0052663202647 0.0051923404278 0.0051197537213 
0.0050486706952 0.0049788068571 0.0049102525261 0.0048429478617 0.0047770368739 0.0047122385335 0.0046486517273 0.0045862401602 0.0045249364726 
0.0044648051216 0.0044057770163 0.0043478308645 0.0042909483613 0.004235094459 0.0041802314844 0.0041263177238 0.0040734197238 0.0040214631973 
0.0039704296056 0.0039203003343 0.0038710767339 0.0038227022607 0.0037751785153 0.0037284920056 0.0036826236738 0.003637555663 0.0035932828433 
0.0035498927864 0.0035071293269 0.0034650969091 0.0034237857616 0.0033831574438 0.0033432096751 0.0033039239904 0.0032652845597 0.003227276787 
0.0031899005596 0.0031531144321 0.0031169155819 0.0030812957049 0.0030462374627 0.0030117346114 0.0055870394943 0.0055071573237 0.005428736012 
0.0053518315528 0.005276394125 0.0052023928769 0.005129788114 0.0050586439242 0.0049887373055 0.0049201358428 0.0048528092001 0.0047868051904 
0.0047219441887 0.0046582819946 0.0045957937892 0.0045344039965 0.0044741884053 0.004415069274 0.0043570256968 0.0043000458977 0.0042440995738 
0.0041891630139 0.0041352142083 0.0040821440912 0.0040300934596 0.003978960758 0.0039287318665 0.0038794036025 0.0038309256502 0.0037832973098 
0.0037365023298 0.0036905259672 0.0036453471652 0.0036009643368 0.0035573425312 0.0035145977555 0.0034724636602 0.0034310462932 0.0033903359116 
0.0033502947265 0.0033109196354 0.0032721949543 0.0032341022406 0.0031966426079 0.0031597735481 0.0031234962969 0.0030877957113 0.0030526593512 
0.0030180754525 0.0029840335027 0.0055143546985 0.0054360450823 0.0053591787078 0.0052837752384 0.0052097968961 0.0051372102704 0.0050659688662 
0.0049961903972 0.0049275906885 0.0048602578613 0.0047941199058 0.0047293715622 0.0046656828867 0.0046031610558 0.0045417352552 0.0044814725077 
0.0044223088885 0.0043642054935 0.0043071715833 0.0042511620029 0.0041961621838 0.0041421816231 0.0040890280003 0.0040369114465 0.0039857189995 
0.003935423628 0.0038860104059 0.0038374777776 0.0037897743218 0.003742902169 0.0036968440132 0.0036515993331 0.0036071224022 0.0035634135801 
0.0035205893721 0.0034783711229 0.0034368771544 0.0033960951428 0.0033559838439 0.0033165391895 0.0032777478071 0.0032395924191 0.0032020728772 
0.0031651416483 0.0031288021814 0.0030930431574 0.003057849681 0.0030232076977 0.0029891022705 0.0029555333976 0.0054409494073 0.0053641613316 
0.0052888435785 0.0052149391888 0.0051424108863 0.0050712396617 0.0050015183154 0.0049329618416 0.0048656826755 0.0047996250569 0.004734829469 
0.0046711879921 0.0046086771406 0.0045472446512 0.0044869826712 0.0044278107495 0.0043696982898 0.0043126343294 0.0042566015698 0.0042015707179 
0.0041475599868 0.0040944015998 0.0040422254205 0.0039909977848 0.0039406677514 0.0038912129415 0.0038426335235 0.0037948883074 0.0037479648867 
0.0037018542004 0.0036565523734 0.003612020858 0.003568249028 0.0035252363419 0.0034830856821 0.003441528426 0.0034006913828 0.0033605293122 
0.0033210336282 0.0032821936604 0.0032439917057 0.0032064117157 0.0031694539961 0.0031330728993 0.0030972688926 0.0030620338963 0.003027351147 
0.0029932102899 0.002959593344 0.0029264986709 0.005367191509 0.005292014633 0.0052182346286 0.0051458261512 0.0050747640844 0.0050051208653 
0.004936655814 0.0048694525258 0.0048034759831 0.0047386506838 0.0046751370958 0.0046127032951 0.0045513093622 0.0044910750029 0.0044319288229 
0.0043738394754 0.0043167825848 0.0042607551117 0.0042057238999 0.0041517042681 0.0040985390355 0.0040463849521 0.0039951230878 0.0039447775834 
0.0038953128789 0.0038467112332 0.003798939186 0.0037519944027 0.0037058552299 0.003660519002 0.0036159489922 0.0035721432391 0.0035290868793 
0.0034868924025 0.0034452885825 0.0034044108836 0.0033642059833 0.0033246750391 0.0032857990238 0.0032475639725 0.0032099529811 0.0031729661122 
0.0031365572799 0.0031007275345 0.0030654626632 0.0030307530295 0.002996585578 0.0029629400316 0.0029298188184 0.0028972029662 0.0052937175796 
0.0052201060642 0.0051478533738 0.0050769198655 0.0050074131804 0.0049390714106 0.0048719869709 0.0048061125311 0.0047414334944 0.0046778716212 
0.0046156140179 0.0045542942627 0.0044941271379 0.0044350294247 0.0043769879951 0.0043199748849 0.004263974505 0.0042089694186 0.0041549714366 
0.0041018163299 0.0040496738173 0.0039984482553 0.0039480899453 0.0038986250278 0.0038500278263 0.0038022531071 0.0037553016954 0.0037091643608 
0.0036638009941 0.0036192143905 0.0035753866336 0.0035323015387 0.003489955765 0.0034484536022 0.0034075412017 0.0033673065048 0.0033277462039 
0.0032888455904 0.0032505863617 0.0032129532103 0.0031759477603 0.0031395212987 0.0031036753164 0.0030683954548 0.0030336672782 0.0029994861016 
0.0029658288818 0.0029326849432 0.0029000524769 0.0028679156509 0.0052209883467 0.0051489245788 0.0050781815019 0.0050088189915 0.0049406269082 
0.0048736792645 0.0048079466752 0.0047433903065 0.0046799945558 0.0046177801782 0.0045565761229 0.004496500865 0.0044374856466 0.0043795113164 
0.0043225684323 0.0042666174484 0.0042116590224 0.0041577025352 0.0041045789163 0.0040524650317 0.0040012638041 0.0039509521894 0.0039014867473 
0.0038529021206 0.0038051465327 0.0037582007635 0.0037120693179 0.0036667090033 0.003622116041 0.0035782828702 0.0035351879036 0.0034928223034 
0.0034513053266 0.0034103765983 0.0033701184093 0.0033305342329 0.0032916148089 0.0032533388323 0.0032156902224 0.0031786701109 0.0031422338535 
0.0031063748878 0.0030710876878 0.003036353361 0.0030021602661 0.0029684964121 0.0029353470828 0.0029027020626 0.0028705577947 0.002838895439 
0.0051494595744 0.0050789162658 0.005009634565 0.0049417239849 0.0048749378352 0.0048093624143 0.0047449528401 0.0046816950956 0.0046195173331 
0.0045585047995 0.004498559372 0.0044396466866 0.0043817660319 0.0043249030687 0.0042690253594 0.004214131661 0.0041602340663 0.0041071601314 
0.0040550887241 0.0040039219581 0.0039536462188 0.0039042105363 0.0038556498463 0.003807918233 0.0037610117448 0.0037148833167 0.0036695371699 
0.0036249540496 0.0035811208645 0.0035380300922 0.0034956581297 0.003453999245 0.0034131910579 0.0033729186169 0.0033333171169 0.0032943785401 
0.0032560901489 0.0032184282035 0.0031813976353 0.0031449502967 0.0031090882066 0.0030737905017 0.0030390525875 0.0030048584036 0.0029711900299 
0.0029380350109 0.0029053914771 0.0028732397829 0.0028415713724 0.0028103797958 0.0050795264457 0.0050104559931 0.0049427463425 0.0048761382723 
0.0048107290907 0.0047464845184 0.0046833757358 0.0046213831386 0.0045604651632 0.0045006269291 0.0044418524901 0.0043840765878 0.0043273128669 
0.0042715225629 0.0042167079087 0.0041628799428 0.004109945165 0.0040578483693 0.0040067316382 0.0039564907961 0.0039071229172 0.0038585724908 
0.0038108723556 0.003763991853 0.0037178898508 0.003672565646 0.0036279957012 0.0035841793045 0.0035410898205 0.0034987201216 0.003457058207 
0.00341622418 0.0033759647938 0.0033363532398 0.0032973960164 0.0032590923325 0.0032214179555 0.003184374316 0.0031479179577 0.003112048074 
0.003076747225 0.0030420016406 0.0030078032825 0.002974138218 0.0029409830789 0.0029083328614 0.0028761793983 0.0028445089688 0.0028133108891 
0.0027825792896 0.0050115314694 0.0049440212947 0.0048776160372 0.0048123793247 0.0047483117376 0.0046853651161 0.0046235276055 0.0045626601861 
0.0045030506096 0.0044443826858 0.0043867477029 0.0043300883629 0.0042744048411 0.0042196702516 0.0041659205015 0.0041130606952 0.0040610245381 
0.0040099649583 0.0039597761865 0.0039104435455 0.0038619543055 0.0038142764375 0.0037674156572 0.0037213406413 0.0036760394789 0.0036314940556 
0.0035876887691 0.0035446120624 0.0035022476149 0.0034605912938 0.0034196208182 0.0033794835926 0.0033398635058 0.0033008990556 0.0032625735217 
0.0032248844969 0.0031878271311 0.003151356016 0.0031154746177 0.0030801657038 0.0030454141281 0.0030112113407 0.0029775378059 0.0029443813709 
0.0029117281556 0.0028795713221 0.0028479006118 0.0028166982538 0.0027859623261 0.0027556799605 0.0049458417537 0.0048796537548 0.0048146202652 
0.0047507253134 0.0046879480107 0.0046262713407 0.0045655813082 0.0045060845216 0.0044475483843 0.0043900188022 0.0043334926065 0.0042779125982 
0.0042232738613 0.0041696125637 0.0041168210126 0.0040648600774 0.0040138589255 0.0039637206372 0.0039144333999 0.003865982309 0.0038183602297 
0.003771508448 0.0037254634274 0.0036801847984 0.0036356603699 0.003591875647 0.0035488087805 0.0035064551896 0.0034647980477 0.0034238252235 
0.0033836866516 0.003344052496 0.0033050763312 0.0032667356973 0.0032290216703 0.0031919492704 0.0031554587702 0.0031195590056 0.0030842392199 
0.0030494778311 0.003015261206 0.0029815788376 0.0029484120919 0.0029157544188 0.0028835924478 0.0028519126734 0.002820707739 0.0027899655673 
0.0027596771496 0.0027298313679 0.0048825030119 0.0048176731081 0.0047539630253 0.0046913614087 0.0046298533441 0.0045693132028 0.0045098672713 
0.0044515548583 0.0043941527896 0.0043377443371 0.0042822711929 0.0042277299014 0.0041741576436 0.0041214481106 0.0040695542214 0.0040186126618 
0.0039685351496 0.0039192938101 0.0038708931251 0.0038232875055 0.0037764866771 0.0037304452983 0.0036851918498 0.0036406886193 0.0035969160969 
0.0035538620526 0.0035115107941 0.0034698547589 0.0034288792443 0.0033886029674 0.003349092297 0.0033100967141 0.0032717392532 0.0032340074259 
0.0031969053816 0.0031603913253 0.0031244711022 0.0030891245033 0.003054343797 0.0030201095157 0.0029864112464 0.0029532306181 0.0029205596749 
0.0028883838301 0.0028566926708 0.0028254773725 0.0027947250878 0.0027644262584 0.0027345698907 0.002705147665 0.004821749921 0.0047582311625 
0.0046958114917 0.0046344622815 0.0045740735307 0.0045147972993 0.0044565983979 0.0043993206573 0.0043430096359 0.0042876599252 0.0042332245825 
0.0041797322266 0.0041271044028 0.0040752810895 0.0040244016862 0.0039743784267 0.0039251823593 0.0038768180181 0.0038292428794 0.0037824677324 
0.0037364688689 0.0036912089922 0.0036467222822 0.0036029639068 0.0035599147106 0.0035175689525 0.0034759083382 0.0034349269647 0.0033946410493 
0.0033551158396 0.0033161022508 0.003277720916 0.0032399631633 0.0032028363322 0.0031662909792 0.0031303368341 0.0030949583115 0.0030601455706 
0.0030258864682 0.0029921637788 0.0029589585381 0.0029262654973 0.002894070299 0.0028623605705 0.0028311266366 0.0028003586752 0.0027700426769 
0.0027401727224 0.0027107325245 0.0026817171585 0.0047636901467 0.004701441367 0.0046401627784 0.0045800175862 0.0045208896416 0.0044627336258 
0.004405660363 0.0043494616164 0.0042942062156 0.0042398847948 0.0041864777364 0.0041339274743 0.0040821709506 0.0040313550034 0.0039813763907 
0.0039322398889 0.0038839000647 0.0038363620012 0.0037895963806 0.003743611979 0.0036983709369 0.0036538860946 0.003610130936 0.003567087771 
0.00352474184 0.003483073874 0.0034420796525 0.0034017824795 0.003362101395 0.0033231971919 0.0032847946007 0.0032470030234 0.0032098403596 
0.0031732588991 0.0031372621812 0.003101844706 0.0030669957049 0.0030326932023 0.0029989359292 0.0029657001687 0.0029329766703 0.0029007467607 
0.0028690123161 0.0028377536917 0.0028069597645 0.0027766197361 0.0027467298569 0.0027172655143 0.0026882261898 0.0026596014825 0.0047083851542 
0.0046472660725 0.0045872748433 0.0045282813131 0.0044702720845 0.00441330226 0.0043572085692 0.0043020551197 0.0042478015624 0.0041945042451 
0.0041420268077 0.0040903406047 0.0040395710049 0.0039896519897 0.0039405423329 0.0038922365964 0.0038447216932 0.00379797186 0.0037520012964 
0.0037067792755 0.0036622787902 0.0036185194485 0.0035754711206 0.0035331164261 0.0034914395888 0.0034504292313 0.0034101122779 0.0033704072959 
0.0033314753704 0.0032930321513 0.0032552224013 0.0032180003134 0.0031813732927 0.0031453315092 0.0031098687176 0.0030749666505 0.0030406202549 
0.0030068114905 0.0029735334833 0.0029407651121 0.0029085004275 0.0028767262403 0.0028454316513 0.002814600918 0.0027842329362 0.0027543074453 
0.0027248129136 0.0026957421615 0.0026670886949 0.0026388405379 0.0046557670932 0.0045959370809 0.0045370715121 0.0044791855264 0.0044223251921 
0.0043663345241 0.0043112642018 0.0042571089151 0.0042038890393 0.0041514825221 0.0040998507182 0.0040491471101 0.0039992564718 0.0039501815077 
0.0039018994745 0.003854402461 0.0038076710977 0.0037617041953 0.003716481396 0.0036719912309 0.0036282030312 0.0035851382583 0.0035427626245 
0.0035010737203 0.0034600411239 0.0034196954898 0.0033799601196 0.0033408526146 0.003302507032 0.0032646540682 0.0032273801199 0.0031907036411 
0.0031546111959 0.0031190881004 0.0030841284447 0.0030497224648 0.0030158574093 0.0029825177806 0.0029497004294 0.0029173845069 0.0028855602428 
0.0028542151465 0.0028233427898 0.0027929280744 0.0027629579414 0.0027334232999 0.00270431643 0.0026756266388 0.002647341817 0.0026194553507 
0.0046060504981 0.0045473240188 0.004489550702 0.0044327239743 0.0043768994911 0.0043219187401 0.004267836067 0.0042146842897 0.0041623513306 
0.0041107851346 0.0040601141091 0.0040102561116 0.0039612041498 0.0039129498898 0.0038654670742 0.0038187323984 0.0037727683706 0.0037275406477 
0.0036830387695 0.0036392487501 0.0035961417247 0.0035537418345 0.0035120233596 0.0034709591635 0.003430583576 0.0033908042898 0.0033516550196 
0.0033132586956 0.0032753559862 0.003238028486 0.0032012908615 0.0031651364739 0.0031295514408 0.0030945226252 0.0030600490828 0.003026112014 
0.0029927063646 0.0029598190834 0.0029274425844 0.0028955554398 0.0028641539665 0.0028332181247 0.0028027484431 0.0027727256288 0.0027431414746 
0.0027139841956 0.0026852474452 0.0026569158362 0.0026289833767 0.002601440859 0.0045590613791 0.0045014082259 0.0044446788314 0.0043889480767 
0.0043340455193 0.0042800326282 0.0042269367955 0.0041746453631 0.0041231475041 0.0040725149448 0.0040226876643 0.0039736564443 0.0039254126565 
0.0038779385366 0.003831197787 0.0037852268033 0.00373999092 0.0036954655494 0.0036516477938 0.0036085298145 0.0035660794153 0.0035243185481 
0.0034832145932 0.0034427973885 0.0034029732117 0.0033637700581 0.0033251832155 0.0032873528642 0.0032499661225 0.0032131646816 0.0031769356325 
0.0031412749191 0.003106174781 0.0030716208853 0.003037608792 0.0030041222704 0.0029711571176 0.0029386994806 0.0029067419474 0.0028752662311 
0.0028442660266 0.0028137244213 0.0027836370236 0.0027539880382 0.0027247713491 0.0026959720035 0.0026675819797 0.0026395975293 0.0026120008123 
0.0025847875891 0.0045147645701 0.0044581350438 0.0044024139144 0.0043476585489 0.0042937068911 0.004240665609 0.0041884275076 0.0041369400428 
0.0040863634134 0.0040365621938 0.0039875449098 0.0039393078506 0.0038918304254 0.0038450802044 0.0037990896104 0.0037538270537 0.003709276806 
0.003665430615 0.0036222746095 0.0035797805767 0.0035379732849 0.0034968192228 0.0034563496609 0.0034164722887 0.0033772107796 0.003338557573 
0.0033006656271 0.0032632055038 0.00322632453 0.003190019092 0.0031542756073 0.0031190897348 0.0030844522311 0.0030503503235 0.0030167786224 
0.0029837235043 0.002951176487 0.0029191279448 0.0028875711849 0.002856489158 0.0028258685839 0.0027957017411 0.0027659790739 0.0027366850743 
0.0027078143335 0.0026793570766 0.0026513029071 0.0026236414886 0.0025963660301 0.0025694673577 0.0044730797141 0.0044174321959 0.0043627442788 
0.0043088486296 0.0042558637377 0.0042036548496 0.0041522005978 0.0041016334282 0.0040518647514 0.0040028554538 0.0039546191138 0.0039071320295 
0.003860360381 0.0038143489039 0.0037690549284 0.0037244697222 0.0036805826503 0.0036373791872 0.003594853758 0.0035529713674 0.0035117597212 
0.0034712292579 0.0034312894077 0.0033919636246 0.0033532417791 0.0033151375267 0.003277734494 0.003240770285 0.0032043773574 0.0031685449349 
0.0031332676467 0.003098535683 0.0030643320566 0.0030306593878 0.0029975041062 0.002964860365 0.002932714613 0.0029010604912 0.0028698862906 
0.0028391753899 0.0028089161865 0.0027791036017 0.0027497249882 0.0027207716097 0.0026922327617 0.0026641002315 0.0026363624 0.0026090102013 
0.0025820384562 0.0025554362644 0.0044338957731 0.0043792034052 0.0043254352797 0.0042724771762 0.0042202948482 0.0041688642224 0.0041183065674 
0.0040685506263 0.0040195469293 0.0039713018768 0.0039238036811 0.0038770079374 0.0038309655388 0.0037856378172 0.0037410105766 0.0036970715408 
0.0036538145328 0.0036112290442 0.0035693005719 0.0035280035819 0.0034874032737 0.0034473856828 0.0034079886819 0.003369192187 0.0033310076134 
0.0032935191702 0.003256466981 0.0032199814481 0.0031840533857 0.0031486718847 0.0031138313189 0.0030795301795 0.0030457486809 0.003012483642 
0.00297973094 0.0029474746753 0.0029157105831 0.0028844247749 0.002853612094 0.0028232536282 0.0027933395137 0.0027638673195 0.0027348191715 
0.0027061883556 0.0026779660381 0.0026501388595 0.0026227012738 0.0025956432823 0.0025689590677 0.0025426388535 0.0043970900908 0.0043434140236 
0.0042904382466 0.0042382748191 0.0041868595292 0.0041363088416 0.0040865324234 0.0040375440581 0.0039892889559 0.0039417736317 0.0038949496978 
0.0038488734692 0.0038035048133 0.0037588321181 0.0037148416766 0.0036715246151 0.003628871146 0.0035868695607 0.0035455111058 0.0035048154001 
0.0034647169542 0.0034252319386 0.0033863488665 0.0033480716369 0.0033105013012 0.0032733517001 0.0032367636001 0.0032007341647 0.0031652489366 
0.003130302465 0.0030958833217 0.003061989655 0.0030286085934 0.0029957340839 0.00296335407 0.0029314722645 0.0029000696971 0.0028691355092 
0.0028386663039 0.0028086460002 0.002779063774 0.0027499091155 0.0027211748486 0.002692851844 0.0026649278046 0.002637394037 0.0026102395221 
0.0025834613406 0.0025570486059 0.0025309929562 0.0043625725131 0.0043096343824 0.0042574910109 0.0042060774274 0.0041555277706 0.0041057500306 
0.0040567300689 0.0040084714718 0.0039609366103 0.0039140792921 0.0038679646665 0.0038225515418 0.0037778276453 0.0037337786583 0.0036903959852 
0.0036476690869 0.0036055927475 0.0035641568631 0.0035233885499 0.003483182134 0.00344360501 0.0034046262192 0.0033662508372 0.0033284396579 
0.0032913346046 0.0032546449875 0.0032185076199 0.0031829054053 0.0031478463343 0.0031133108274 0.0030792952047 0.0030457909015 0.0030127913088 
0.0029802864764 0.0029482712445 0.0029167403591 0.0028856816344 0.002855087531 0.0028249446367 0.0027952453759 0.0027659747491 0.0027371238785 
0.0027086870671 0.0026806541648 0.0026530134101 0.0026257581815 0.0025988759519 0.0025723583457 0.0025462049799 0.002520401443 0.0043299082034 
0.0042777811195 0.0042263735635 0.004175815909 0.0041260260713 0.0040769890803 0.0040286944121 0.0039811413796 0.0039342518723 0.003888095555 
0.0038426330044 0.0037978557607 0.0037537456999 0.003710293617 0.0036674944558 0.003625333887 0.0035838136844 0.0035429578008 0.0035026518412 
0.003462974544 0.0034238945374 0.0033854205229 0.003347504455 0.0033102931773 0.0032734958406 0.0032372435105 0.003201531435 0.0031663523859 
0.0031316927141 0.003097550168 0.0030639161325 0.0030307868158 0.0029981503682 0.0029660034294 0.0029343333141 0.0029031422321 0.0028724131967 
0.0028421360031 0.002812307605 0.0027829097422 0.0027539396011 0.0027253783414 0.0026972266225 0.0026694692735 0.0026420991086 0.002615105643 
0.0025884791824 0.002562217611 0.0025363066037 0.0025107439515 0.0042989359828 0.0042475355581 0.0041969756382 0.0041471721946 0.0040981121907 
0.0040497899654 0.0040022055795 0.0039552734811 0.0039090756308 0.0038635638912 0.0038187248179 0.0037745518322 0.0037310333819 0.0036881549972 
0.0036459183825 0.0036043069462 0.0035633608082 0.0035229783257 0.0034831811252 0.0034440133481 0.0034054135818 0.0033673873147 0.0033299266543 
0.00329315704 0.003256792345 0.0032209561867 0.0031856553815 0.003150872523 0.0031165996267 0.0030828370499 0.0030495748359 0.0030168012626 
0.0029845136107 0.0029527095796 0.0029213739142 0.0028905024314 0.0028600894518 0.0028301237459 0.0028005930027 0.0027714861235 0.002742799183 
0.0027145147591 0.0026866343445 0.0026591399092 0.0026320269939 0.0026052861493 0.0025789048896 0.0025528821289 0.0025272069951 0.0025018746228 
0.0042693180699 0.0042187550118 0.0041689385115 0.0041198557983 0.0040715039589 0.0040238714427 0.003976913811 0.0039306737902 0.0038851087906 
0.0038402094346 0.0037959747879 0.0037523881389 0.0037094391317 0.0036671237679 0.0036254271746 0.0035843883709 0.0035439104828 0.0035040277069 
0.0034647366992 0.0034260233444 0.0033878855558 0.0033503143732 0.0033134326158 0.0032769483346 0.0032409967648 0.0032055671155 0.0031706591904 
0.0031362608678 0.0031023641789 0.0030689641939 0.0030360551244 0.0030036313383 0.0029716823658 0.0029402047611 0.0029091887896 0.0028786315711 
0.0028485217725 0.0028188518348 0.002789607327 0.0027607815806 0.0027323692017 0.0027043501039 0.0026767270378 0.0026494864227 0.0026226193038 
0.0025961207921 0.0025699782304 0.0025441859812 0.0025187364518 0.0024936230124 0.0042408595589 0.0041910304679 0.0041419312686 0.0040935509879 