# vtk DataFile Version 5.1
vtk output
ASCII
DATASET STRUCTURED_POINTS
DIMENSIONS 50 50 50
SPACING 0.002 0.002 0.002
ORIGIN 0.1742 -0.052672 0.02732
POINT_DATA 125000
FIELD FieldData 1
potential 1 125000 double
0.0010823826218 0.001074636561 0.0010669696829 0.0010593807953 0.0010518651739 0.0010444034942 0.0010370401642 0.0010297485177 0.0010225274685 
0.0010153754251 0.0010082915038 0.0010012750038 0.00099432611568 0.00098744135383 0.00098062106196 0.00097387241967 0.00096717719216 0.00096054374677 
0.00095397089077 0.00094745628644 0.00094099987208 0.00093459876281 0.00092825190881 0.00092195626586 0.00091571312231 0.00090952045151 0.00090337702625 
0.00089728288288 0.00089123600117 0.00088523643236 0.00087928305738 0.00087337612758 0.00086751428402 0.00086169702693 0.00085592399951 0.0008501960936 
0.00084451301584 0.0008388745006 0.00083328205398 0.00082773451194 0.00082223634384 0.0008167878633 0.00081139184199 0.00080605012844 0.0008007649942 
0.00079553882262 0.00079037343796 0.00078527067115 0.00078023142715 0.00077525705928 0.0010904557066 0.00108261672 0.001074858241 0.0010671784435 
0.0010595775526 0.0010520490879 0.0010445734186 0.001037196498 0.0010298910869 0.0010226561463 0.0010154906365 0.0010083938321 0.0010013658053 
0.0009944030651 0.00098750583611 0.00098067374962 0.00097391218793 0.00096720585461 0.00096056021417 0.00095397426115 0.00094744702956 0.00094097658853 
0.00093456109897 0.00092819792774 0.00092188814244 0.00091562972277 0.00090942159008 0.00090326264989 0.00089715277791 0.00089109047397 0.0008850754244 
0.00087910724392 0.00087318492805 0.00086730788501 0.00086147646986 0.00085568992462 0.00084994897459 0.00084425341533 0.0008386040042 0.00083300108335 
0.0008274473717 0.00082194431572 0.0008164940177 0.00081109826688 0.00080576001757 0.00080048083774 0.00079526306478 0.00079010830549 0.00078501751945 
0.00077999184768 0.0010980370565 0.0010901082176 0.0010822610574 0.0010744948911 0.001066808045 0.001059198449 0.0010516608001 0.0010441768882 
0.0010367909982 0.0010294762923 0.0010222326458 0.0010150589026 0.0010079545402 0.0010009168116 0.0009939459007 0.00098704028471 0.00098020060167 
0.00097343176341 0.00096671709756 0.00096006322219 0.00095346846997 0.00094693152951 0.00094045000712 0.00093402251383 0.00092764921351 0.00092132791325 
0.00091505748624 0.00090883708078 0.00090266680824 0.00089654442357 0.00089047019935 0.00088444360979 0.00087846352213 0.00087252939335 0.00086664087074 
0.00086079868593 0.00085500252036 0.00084925194758 0.00084354773268 0.00083789187955 0.00083228491647 0.00082672908245 0.00082122654849 0.00081577917121 
0.00081038948623 0.00080505954742 0.00079979103178 0.00079458611314 0.00078944586737 0.00078437096845 0.0011050672808 0.0010970529409 0.0010891217664 
0.0010812724484 0.001073503294 0.0010658130735 0.0010581991671 0.0010506580957 0.0010431705703 0.0010357801014 0.0010284618648 0.0010212137681 
0.0010140376503 0.0010069291964 0.00099988829677 0.00099291403513 0.00098600629488 0.00097916297957 0.00097238233923 0.00096567088901 0.00095901209011 
0.00095241214857 0.00094586827559 0.00093937980715 0.00093294631992 0.00092656518849 0.00092023591695 0.0009139575101 0.00090772932559 0.00090155050824 
0.0008954202152 0.00088933799726 0.00088330318833 0.00087731509522 0.00087137262494 0.00086547728301 0.00085962802714 0.00085382492377 0.00084806856069 
0.00084236242344 0.00083670481058 0.00083109895825 0.00082554587862 0.00082004940293 0.00081461067017 0.00080923181063 0.00080391518317 0.00079866253363 
0.00079347490415 0.00078835312993 0.0011115023823 0.0011034068877 0.0010953957586 0.0010874674173 0.0010796210445 0.0010718539233 0.0010641652016 
0.0010565532196 0.0010490144229 0.00104152695 0.001034137885 0.0010268205256 0.0010195760304 0.0010123996825 0.0010052924492 0.00099825335315 
0.00099128139127 0.00098437497608 0.00097753202996 0.00097075232819 0.00096404049004 0.00095738102153 0.00095077861004 0.00094423217914 0.00093774239934 
0.0009313053144 0.0009249205472 0.00091858802554 0.00091230565151 0.0009060736913 0.00089989044318 0.00089375590843 0.00088766933649 0.00088162990789 
0.00087563715316 0.00086969159128 0.00086379231547 0.00085794002021 0.00085213461796 0.0008463798098 0.00084067440264 0.00083502045796 0.0008294204449 
0.00082387688749 0.00081839133979 0.00081296637595 0.0008076038576 0.00080230580515 0.00079707353423 0.00079190736174 0.001117314104 0.0011091417444 
0.001101056153 0.0010930527168 0.0010851330144 0.0010772938559 0.0010695344444 0.0010618523991 0.0010542483567 0.0010466896898 0.0010392337353 
0.0010318511671 0.0010245422925 0.0010173022614 0.001010132205 0.0010030324681 0.00099600079816 0.00098903531871 0.00098213428653 0.00097529717173 
0.00096852225585 0.00096181397936 0.00095515704502 0.00094855676996 0.00094201352098 0.00093552414083 0.00092908766416 0.00092270416217 0.00091637143779 
0.00091008974012 0.00090385735938 0.00089767403924 0.00089153940752 0.00088545231772 0.00087941221482 0.00087341981277 0.00086747435784 0.00086157529462 
0.00085572419834 0.0008499234026 0.00084417281219 0.00083847377094 0.00083282906722 0.00082724091976 0.00082171156478 0.00081624283147 0.0008108373715 
0.00080549663277 0.00080022217731 0.0007950146464 0.0011224913421 0.0011142470494 0.0011060895343 0.00109801736 0.0010900288831 0.0010821223671 
0.0010742953567 0.0010665484809 0.0010588795506 0.0010512862008 0.0010437388376 0.0010362953548 0.001028925819 0.001021627322 0.0010143994094 
0.0010072421262 0.0010001539139 0.0009931340636 0.00098617876658 0.00097928836485 0.00097246088383 0.00096569385244 0.0009589932925 0.00095234290187 
0.00094575085714 0.00093921315616 0.00093272871495 0.00092629799766 0.00091991847662 0.00091359035556 0.00090731287481 0.00090108465449 0.00089490519516 
0.00088877399811 0.0008826899388 0.00087665361679 0.00087066442231 0.00086472230373 0.00085882873094 0.00085298548167 0.00084719238136 0.00084145113752 
0.00083576448843 0.0008301351014 0.00082456445362 0.00081905494931 0.00081360891091 0.00080822827709 0.00080291444262 0.00079766815674 0.0011270399227 
0.0011187278419 0.0011105033556 0.0011023656918 0.0010943124642 0.0010863426886 0.0010784542905 0.0010706460161 0.0010629171448 0.0010552650954 
0.0010476886227 0.0010401590626 0.001032733447 0.0010253795148 0.0010180980341 0.0010108876352 0.0010037475679 0.0009966755814 0.00098966984302 
0.00098273089597 0.00097585459238 0.00096904039118 0.00096228567783 0.00095559638702 0.00094895852198 0.00094237590846 0.0009358478794 0.00092937332815 
0.00092295106761 0.00091658074077 0.00091026147982 0.00090399141913 0.00089777074921 0.00089159872904 0.00088547413732 0.00087939777377 0.00087336823437 
0.00086738601703 0.00086145337225 0.00085557054738 0.00084973790805 0.00084395753678 0.00083823175546 0.00083256355514 0.00082695433333 0.00082140682461 
0.00081592332774 0.00081050557953 0.00080515516527 0.00079987322759 0.0011309822948 0.0011226066348 0.0011143196185 0.0011061205935 0.0010980073831 
0.001089978781 0.0010820328707 0.0010741680869 0.0010663828567 0.0010586758045 0.0010510455262 0.0010434915437 0.0010359851558 0.0010285804847 
0.0010212487807 0.0010139892519 0.0010068005717 0.0009996810046 0.00099262922152 0.00098564364976 0.00097872291009 0.00097186488642 0.00096506760687 
0.00095832897468 0.00095164911736 0.00094503219936 0.00093846409967 0.00093194969568 0.00092548813164 0.00091907899221 0.00091272105142 0.00090641296488 
0.0009001548436 0.00089394511993 0.00088778369551 0.00088167014868 0.00087560366089 0.00086958588776 0.00086361639606 0.00085769660493 0.00085182695569 
0.00084601040225 0.00084024889372 0.00083454448812 0.00082889953119 0.00082331706005 0.00081779899205 0.00081234698731 0.0008069628075 0.00080164737011 
0.0011343575644 0.0011259223056 0.0011175772092 0.0011093208488 0.0011011521194 0.0010930683152 0.0010850686907 0.0010771508358 0.0010693134218 
0.0010615550394 0.0010538750782 0.0010462727295 0.0010387202469 0.0010312642003 0.0010238866501 0.001016581538 0.0010093475838 0.0010021844405 
0.00099508958416 0.00098806200492 0.0009810994961 0.0009742015145 0.00096736521093 0.00096058757395 0.0009538690699 0.0009472081315 0.00094060978147 
0.00093405897582 0.00092756172876 0.00092111706659 0.00091472403898 0.00090838151264 0.00090208864297 0.00089584482821 0.00088964944496 0.00088350219174 
0.00087740250865 0.00087135106954 0.00086534796806 0.00085939404535 0.00085349127761 0.00084764115781 0.00084184611468 0.00083610859193 0.00083043076899 
0.00082481614646 0.00081926584854 0.0008137820696 0.00080836724628 0.00080302125796 0.0011372215081 0.0011287300561 0.0011203301529 0.0011120202142 
0.0011037988697 0.0010956634632 0.0010876133421 0.0010796460441 0.0010717603274 0.0010639539978 0.0010562271548 0.0010485791695 0.0010410070622 
0.0010334853432 0.0010260609391 0.0010187135714 0.0010114380322 0.0010042341015 0.00099709963519 0.00099003282798 0.0009830326397 0.00097609692864 
0.00096922304929 0.00096241077041 0.00095565789669 0.00094896243752 0.00094232330423 0.0009357463215 0.00092921635504 0.00092273932967 0.00091631417077 
0.00090994046832 0.00090361600784 0.00089734117401 0.00089111436519 0.00088493611771 0.00087880642019 0.00087272401025 0.00086669048696 0.0008607053832 
0.00085477182487 0.00084889131773 0.00084306558642 0.00083729756568 0.00083158972567 0.00082594505679 0.00082036537347 0.00081485274286 0.00080940931737 
0.00080403614238 0.0011396426683 0.0011310981434 0.001122646811 0.0011142857587 0.0011060147706 0.0010978314178 0.0010897331188 0.0010817198493 
0.0010737880757 0.001065937266 0.0010581667926 0.0010504762127 0.001042861848 0.0010353245936 0.001027837813 0.0010204476845 0.0010131332731 
0.0010058908834 0.00099871954733 0.00099161625893 0.0009845810758 0.00097761076131 0.00097070331896 0.00096385759984 0.00095707214396 0.00095034520413 
0.00094367548752 0.00093706126774 0.00093050821271 0.00092400180337 0.00091754737046 0.00091114463738 0.00090479184643 0.00089848844839 0.00089223367159 
0.00088602713486 0.00087986908319 0.00087375864618 0.00086769696198 0.00086168392726 0.00085572203836 0.00084981319366 0.00084395939961 0.00083816342939 
0.00083242809054 0.00082675613405 0.00082114954967 0.00081561078743 0.00081014128105 0.00080474341086 0.0011417016252 0.0011331064714 0.0011246056845 
0.0011161971997 0.001107878631 0.0010996492775 0.0010915063661 0.0010834479487 0.001075473062 0.0010675803285 0.0010597684618 0.001052037001 
0.0010443834773 0.0010368076639 0.0010292827853 0.0010218585985 0.0010145051055 0.0010072263877 0.0010000198965 0.00099288309334 0.00098581473496 
0.00097881221461 0.00097187283251 0.00096499671252 0.00095818148798 0.00095142485833 0.00094472621486 0.00093808418754 0.00093149683207 0.00092496977326 
0.00091848895912 0.00091205955247 0.00090568016189 0.00089935050432 0.0008930700491 0.00088683744648 0.00088065374326 0.00087451765221 0.00086842988224 
0.00086239077616 0.0008564030013 0.00085046833611 0.00084458898866 0.00083876743554 0.00083300709113 0.00082731045731 0.00082167974483 0.00081611704105 
0.00081062454877 0.00080520398199 0.0011434897637 0.0011348465623 0.0011262977328 0.0011178427557 0.0011094787181 0.0011012049622 0.0010930188004 
0.0010849180203 0.0010769015196 0.0010689679026 0.0010611168208 0.0010533472088 0.0010456553926 0.0010380424926 0.0010305074075 0.0010230213138 
0.0010156359746 0.0010083199848 0.0010010805567 0.00099391104024 0.00098681084037 0.00097977785304 0.00097280887405 0.00096590319548 0.0009590595445 
0.00095227560626 0.00094555040633 0.00093888205359 0.00093226907209 0.00092571028558 0.00091921064471 0.00091275669988 0.0009063527502 0.00089999875958 
0.00089369433657 0.00088743808737 0.00088123046557 0.00087507059934 0.00086895877301 0.00086289601909 0.00085688431402 0.00085092594948 0.00084502338167 
0.00083917855174 0.00083339512256 0.00082767613674 0.00082202381332 0.0008164397817 0.00081092603732 0.00080548551556 0.0011451042079 0.0011364138438 
0.0011278187125 0.0011193177865 0.0011109096649 0.0011025926757 0.0010943637892 0.001086221225 0.0010781653237 0.0010701919903 0.0010623014252 
0.001054494232 0.0010467659603 0.0010391162019 0.0010315453868 0.0010240511242 0.0010166059343 0.0010092613502 0.0010019863363 0.00099478554928 
0.00098765518326 0.00098059271978 0.00097359359761 0.00096666049568 0.00095978965267 0.0009529791632 0.00094622791183 0.00093953483898 0.0009328970189 
0.00092631395656 0.00091978479845 0.00091330743906 0.00090688667933 0.00090051003787 0.00089418268763 0.00088790404844 0.00088167406373 0.00087549232675 
0.00086935827168 0.00086327385391 0.00085724033851 0.00085126024342 0.00084533606985 0.00083947034265 0.00083366581619 0.00082792659338 0.00082225418939 
0.00081665137808 0.00081111944233 0.00080566027519 0.0011466451014 0.0011379086275 0.0011292678631 0.0011207211991 0.0011122698675 0.0011039095154 
0.0010956381549 0.00108745475 0.0010793586601 0.001071346801 0.0010634173423 0.001055572675 0.0010478071372 0.0010401215713 0.0010325160629 
0.0010249873849 0.0010175089186 0.0010101322722 0.0010028283251 0.00099559365251 0.00098843312864 0.00098134137465 0.00097431485782 0.00096735357632 
0.00096045650171 0.00095361980494 0.00094684277745 0.00094012485325 0.00093346354996 0.00092685708363 0.00092030443677 0.0009138046502 0.00090735659112 
0.00090096368538 0.00089461434332 0.00088831487588 0.00088206373694 0.00087586110399 0.00086970631856 0.00086360144874 0.00085754765501 0.00085154754084 
0.00084560355899 0.00083971845997 0.00083389513349 0.00082813730407 0.00082244725867 0.00081682658104 0.00081127897253 0.00080580394447 0.0011482159492 
0.0011394317268 0.001130744698 0.001122153274 0.0011136565797 0.0011052526142 0.0010969396673 0.001088714053 0.0010805771724 0.0010725255067 
0.0010645586234 0.0010566749213 0.0010488725898 0.0010411510031 0.001033509779 0.0010259468509 0.0010184605557 0.0010110247403 0.0010036893715 
0.00099642322529 0.00098923259961 0.00098211181058 0.00097505692931 0.00096806806514 0.00096114375881 0.00095428068829 0.00094747876239 0.00094073599736 
0.00093405001991 0.00092742039269 0.00092084502641 0.0009143226017 0.00090785306288 0.00090143318887 0.00089506891543 0.0008887485915 0.00088247722748 
0.00087625429117 0.00087007998561 0.00086395550891 0.00085788308998 0.00085186428053 0.00084590199346 0.00083999905208 0.00083415838361 0.00082838464851 
0.00082267852697 0.00081704285876 0.00081148032512 0.00080599130241 0.0011499142302 0.0011410810001 0.0011323467615 0.0011237082231 0.0011151661068 
0.0011067175312 0.001098360846 0.001090093423 0.0010819146538 0.0010738213936 0.0010658148541 0.0010578921386 0.001050051822 0.0010422929067 
0.0010346154563 0.0010270166323 0.0010194958001 0.0010120520899 0.0010046579454 0.00099736334694 0.00099013870613 0.00098298742784 0.00097590260267 
0.00096888589894 0.00096193413954 0.00095504422291 0.00094821569339 0.00094144709581 0.00093473634135 0.00092808333867 0.00092148483756 0.00091493983187 
0.00090844748327 0.00090200703276 0.00089561633108 0.00088928120434 0.00088299007528 0.00087674772441 0.00087055436645 0.00086441147804 0.00085832122076 
0.00085228403675 0.00084630513841 0.00084038599577 0.00083453029116 0.00082874113003 0.00082302126678 0.00081737212254 0.00081179667596 0.00080629513733 
0.0011518319787 0.0011429482061 0.0011341637143 0.0011254768838 0.0011168875403 0.0011083929528 0.0010999904437 0.0010916787551 0.0010834562873 
0.0010753210835 0.0010672721286 0.0010593086255 0.0010514285708 0.0010436313471 0.0010359148752 0.0010282793356 0.0010207227311 0.0010132433148 
0.0010058145192 0.00099848694253 0.00099123313925 0.00098404511472 0.00097693121081 0.00096988361918 0.00096290302315 0.00095598503269 0.00094912973853 
0.00094233435777 0.00093559802818 0.00092892004136 0.00092229758324 0.00091572931391 0.00090921434498 0.00090275177367 0.00089633969659 0.00088997853983 
0.00088367355153 0.00087741155642 0.00087119970229 0.00086503885081 0.00085893095239 0.00085287703066 0.00084688218538 0.00084094871349 0.00083507890721 
0.00082927597962 0.00082354370543 0.00081788341533 0.00081229651355 0.00080678466434 0.0011540520154 0.0011451155325 0.0011362792619 0.0011275412672 
0.0011189029311 0.0011103590083 0.0011019085523 0.0010935498443 0.0010852808588 0.0010771010355 0.0010690085596 0.0010610016233 0.0010530796135 
0.0010452409563 0.0010374847798 0.001029809681 0.0010222143008 0.0010146977624 0.001007258068 0.00099986878876 0.00099258047105 0.00098536260022 
0.00097821231685 0.00097113403786 0.00096412127293 0.00095717394601 0.00095028851953 0.00094346634529 0.00093670272742 0.00092999766991 0.00092334926147 
0.00091675630535 0.00091021850341 0.00090373285939 0.00089729856174 0.00089091691814 0.00088458566361 0.00087830961857 0.00087207940021 0.00086590090403 
0.00085977544146 0.00085370604086 0.00084769640763 0.00084174907652 0.00083586630741 0.00083005184024 0.00082430870817 0.00081863832357 0.00081304205367 
0.00080752077521 0.0011566492844 0.0011476567129 0.0011387649463 0.0011299730115 0.0011212816173 0.0011126856197 0.0011041842286 0.0010957759443 
0.0010874580152 0.0010792302852 0.0010710907679 0.001063038221 0.001055071575 0.0010471885079 0.0010393890672 0.0010316722174 0.001024035818 
0.0010164796026 0.0010090012935 0.001001599169 0.00099424794959 0.00098699386282 0.00097981170302 0.00097269529835 0.00096564975125 0.0009586696003 
0.00095175322182 0.00094489980836 0.00093810778007 0.0009313749971 0.00092469903057 0.00091807923997 0.00091151619531 0.0009050068934 0.00089854975287 
0.00089214587764 0.00088579316009 0.00087949181873 0.00087324832545 0.00086705216448 0.00086091029653 0.00085482613465 0.00084880196812 0.00084284151234 
0.00083694720709 0.00083112248793 0.0008253702497 0.00081969098553 0.00081408689527 0.00080855778152 0.0011596856417 0.0011506321562 0.0011416824458 
0.0011328336925 0.0011240846386 0.0011154328937 0.0011068766634 0.0010984151493 0.0010900457146 0.0010817664703 0.0010735772985 0.0010654749901 
0.0010574596382 0.00104953007 0.0010416840233 0.0010339228033 0.0010262424279 0.001018642547 0.0010111221541 0.0010036791648 0.00099628750233 
0.0009889942982 0.00098177411533 0.00097462363829 0.00096753873547 0.00096052433413 0.00095357368379 0.00094668756224 0.00093986401575 0.00093309982468 
0.00092639462948 0.00091974743538 0.00091315746834 0.00090662170646 0.00090013990369 0.00089371310963 0.00088733822878 0.00088101629559 0.00087474821973 
0.00086853987322 0.00086238177233 0.00085628271918 0.00085024453375 0.00084427213917 0.00083836780249 0.00083253371082 0.00082677311958 0.00082108702365 
0.00081547614385 0.00080993987143 0.0011632097925 0.0011540936908 0.0011450800796 0.0011361696818 0.0011273607942 0.001118650186 0.0011100357056 
0.0011015161532 0.00109309069 0.0010847571267 0.0010765134663 0.0010683581204 0.0010602910147 0.0010523109304 0.001044416262 0.0010366053962 
0.00102887807 0.0010212316197 0.0010136659437 0.0010061785166 0.00099876821602 0.00099140656548 0.00098414564114 0.00097695556325 0.00096983461546 
0.00096277868149 0.00095579132723 0.00094886928839 0.00094201080889 0.00093521389878 0.00092847725001 0.00092180012132 0.00091518023029 0.00090861755274 
0.00090210978598 0.00089565727685 0.00088925953566 0.00088291591819 0.00087662809248 0.00087039580032 0.00086422684899 0.00085811250338 0.00085206188117 
0.00084607796491 0.00084016355514 0.00083432170432 0.00082855398634 0.00082286143831 0.00081724447931 0.00081170249347 0.0011672637276 0.00115807872 
0.0011489991343 0.0011400215975 0.0011311477419 0.0011223738027 0.0011136973495 0.0011051174719 0.0010966317246 0.0010882382318 0.0010799365427 
0.0010717243496 0.0010636022585 0.0010555676519 0.001047619702 0.0010397571339 0.0010319777215 0.0010242813473 0.0010166659962 0.0010091305803 
0.0010016733774 0.00099426538958 0.00098695957903 0.00097972686818 0.00097256291095 0.00096546849629 0.00095843852511 0.00095147775994 0.00094458161257 
0.00093774816661 0.00093097788859 0.00092426739869 0.00091761654361 0.0009110238602 0.0009044880977 0.00089800954053 0.00089158649571 0.0008852200629 
0.00087891127104 0.00087266038345 0.00086646862847 0.00086034489253 0.00085428169824 0.00084828680666 0.00084236351035 0.00083651415193 0.00083073982226 
0.00082504186804 0.00081941904492 0.00081387088493 0.0011718766028 0.0011626182782 0.0011534670733 0.0011444198221 0.001135476289 0.001126634467 
0.0011178902291 0.0011092448876 0.0011006953956 0.0010922396675 0.0010838746712 0.0010756019431 0.0010674196394 0.0010593271355 0.0010513217721 
0.0010434026348 0.0010355683612 0.0010278177513 0.0010201490879 0.0010125610355 0.001005052801 0.00099762172051 0.00099024170183 0.0009829609834 
0.00097575215533 0.0009686122557 0.00096153890728 0.00095453649405 0.0009475997131 0.00094072777106 0.00093392025188 0.00092717394831 0.00092048939679 
0.00091386424017 0.00090729792645 0.00090079080984 0.00089434223646 0.00088795074156 0.00088161989161 0.00087534904674 0.00086914050119 0.00086299566811 
0.00085692486401 0.00085091967218 0.00084498768949 0.00083913047153 0.00083335054884 0.00082764605811 0.00082201748323 0.0008164635088 0.0011770706841 
0.0011677345549 0.0011585059029 0.0011493839583 0.0011403670742 0.0011314514047 0.0011226367777 0.0011139218712 0.0011053021525 0.0010967785731 
0.0010883485076 0.0010800113187 0.0010717646366 0.0010636085294 0.0010555411112 0.0010475618998 0.00103966836 0.0010318591226 0.0010241337198 
0.0010164895715 0.0010089263493 0.0010014418562 0.00099403494121 0.00098667741462 0.00097941857083 0.00097223115768 0.00096511426622 0.00095806301811 
0.00095108276524 0.00094416881205 0.00093732021818 0.00093053580485 0.00092381403434 0.00091715379156 0.00091055574542 0.0009040177581 0.00089754058676 
0.00089112383437 0.00088476961333 0.00087847690795 0.00087225014877 0.00086609040222 0.00086000105168 0.00085398899192 0.00084804834272 0.0008421835251 
0.00083639561679 0.00083068499915 0.00082505038143 0.00081948941144 0.0011828601289 0.0011734418993 0.0011641312609 0.0011549291918 0.0011458324886 
0.0011368405562 0.0011279492103 0.001119159873 0.0011104680152 0.0011018717321 0.0010933702289 0.0010849631447 0.0010766485777 0.001068425512 
0.0010602913804 0.0010522466283 0.0010442905577 0.0010364191973 0.001028632108 0.0010209285811 0.0010133058597 0.0010057638089 0.00099829998879 
0.0009908877027 0.00098357550181 0.00097633601882 0.0009691688917 0.00096207179674 0.00095504148834 0.00094808261077 0.00094118949524 0.00093436350069 
0.00092760251061 0.00092090480543 0.00091427076112 0.00090769994837 0.00090119245392 0.0008947474837 0.00088836814525 0.00088205375967 0.0008758069867 
0.00086962990192 0.00086352610244 0.00085749729219 0.00085155032092 0.00084567578154 0.00083988015257 0.00083416256688 0.00082852013546 0.00082295128447 
0.0011892563597 0.0011797478362 0.0011703500806 0.001161062276 0.0011518821878 0.0011428078464 0.0011338367335 0.0011249677145 0.0011161979223 
0.0011075250816 0.0010989482579 0.0010904659575 0.0010820778569 0.0010737835286 0.001065579954 0.0010574661402 0.0010494411243 0.0010415034574 
0.0010336513235 0.0010258834914 0.0010181977342 0.0010105935691 0.0010030703004 0.00099562433598 0.00098822935934 0.00098093377316 0.00097371229944 
0.00096656218981 0.00095948472228 0.000952473455 0.00094553406888 0.0009386630787 0.0009318594293 0.00092512063327 0.00091844873745 0.00091184167892 
0.00090530094314 0.0008988264338 0.00089241988275 0.00088608133108 0.00087981328789 0.00087361698788 0.00086749690047 0.00086145336917 0.00085548870371 
0.00084960793952 0.00084380258696 0.00083807476911 0.00083242305613 0.00082684353349 0.0011962600318 0.0011866525235 0.0011771639813 0.0011677857644 
0.0011585170302 0.0011493559983 0.0011402988418 0.0011313452875 0.0011224932578 0.0011137390751 0.0011050819744 0.001096521543 0.0010880560384 
0.0010796854423 0.0010714068059 0.0010632196248 0.0010551232784 0.0010471138334 0.0010391915771 0.0010313551091 0.0010236032712 0.0010159336578 
0.0010083455237 0.0010008370746 0.00099338052325 0.00098602507976 0.00097874551871 0.00097153916073 0.00096440700379 0.00095734685217 0.00095035386281 
0.00094343365316 0.00093658329409 0.00092980140017 0.00092308807747 0.00091644264934 0.0009098664284 0.00090335892715 0.00089692274553 0.00089055749476 
0.00088426557187 0.00087804813505 0.00087190823059 0.00086584741647 0.00085986749195 0.00085396817659 0.00084815323614 0.00084241342456 0.00083674880905 
0.00083115669307 0.0012038572272 0.0011941525409 0.0011845676211 0.0011750947975 0.0011657324966 0.0011564793864 0.0011473319548 0.0011382894058 
0.0011293500359 0.0011205098123 0.0011117682125 0.001103125051 0.0010945771182 0.0010861256178 0.0010777673274 0.0010695020698 0.0010613280296 
0.001053244534 0.0010452489749 0.0010373397175 0.0010295171123 0.0010217782824 0.0010141218945 0.0010065463192 0.00099904949419 0.00099160509875 
0.00098426336213 0.00097699785531 0.00096980626677 0.00096268943556 0.00095564495886 0.00094867029417 0.00094177003879 0.00093494145528 0.00092818396727 
0.00092149703884 0.00091488194101 0.00090833880411 0.00090186929142 0.00089547451711 0.00088915477929 0.00088291289782 0.00087675087305 0.00087066889315 
0.00086466927133 0.00085875198798 0.00085291564351 0.00084716283834 0.00084148199504 0.00083587348351 0.001212041782 0.0012022394754 0.0011925473522 
0.0011829753057 0.0011735152881 0.001164165233 0.001154923883 0.0011457881063 0.0011367557352 0.0011278244558 0.0011189943415 0.0011102628402 
0.0011016290377 0.0010930921615 0.0010846504169 0.001076302544 0.00106804811 0.0010598848225 0.0010518114784 0.0010438261348 0.001035928236 
0.0010281158367 0.0010203878969 0.0010127412275 0.001005175196 0.00099768904061 0.00099025563578 0.0009829256064 0.00097567217206 0.00096849457089 
0.00096139246288 0.00095436262746 0.00094740862689 0.00094052869085 0.0009337228129 0.00092699134086 0.00092033410016 0.00091375228673 0.000907246909 
0.00090081785002 0.00089446664099 0.00088819594804 0.00088200661921 0.00087590044308 0.00086987702419 0.0008639372811 0.00085807904005 0.00085230009486 
0.00084660224731 0.00084097188489 0.0012207926446 0.0012108826902 0.0012010895948 0.0011914081021 0.0011818448006 0.0011723941901 0.001163052007 
0.0011538186862 0.0011446898009 0.0011356642068 0.0011267398754 0.0011179164381 0.0011091924113 0.0011005662545 0.0010920369122 0.0010836024541 
0.0010752626684 0.0010670158747 0.0010588602133 0.0010507941864 0.0010428177089 0.0010349269522 0.0010271232232 0.0010194030728 0.0010117646686 
0.0010042059951 0.00099670376332 0.00098930613357 0.0009819869965 0.00097474527439 0.00096758066759 0.00096049403068 0.00095348021098 0.00094654549637 
0.00093968821802 0.00093290744822 0.00092620421157 0.00091957816656 0.000913032126 0.00090656510688 0.00090017830367 0.00089387486539 0.00088765466671 
0.00088151849792 0.00087546738134 0.00086949879559 0.00086361326294 0.00085780751422 0.00085207848542 0.00084642537216 0.0012300777119 0.0012200543289 
0.0012101502981 0.0012003598792 0.0011906902348 0.001181133273 0.00117168712 0.0011623513882 0.0011531222697 0.0011439978353 0.0011349760294 
0.0011260567612 0.0011172384691 0.0011085199792 0.0010998989225 0.0010913746022 0.0010829462182 0.0010746113358 0.0010663691925 0.0010582190572 
0.0010501592525 0.0010421884336 0.0010343041379 0.0010265049946 0.0010187899246 0.0010111567232 0.0010036058074 0.00099611180125 0.00098872315359 
0.00098141422764 0.00097418385916 0.00096703359714 0.00095996176811 0.00095296587326 0.00094605111725 0.00093921790772 0.00093246414649 0.0009257903484 
0.00091919858801 0.00091268923661 0.00090626254004 0.00089991980977 0.00089366299618 0.00088749227603 0.00088140656599 0.00087540502468 0.00086948560844 
0.00086364719771 0.00085788509956 0.00085219500514 0.0012398508256 0.0012297110896 0.0012196918352 0.0012097919591 0.0012000074725 0.0011903415048 
0.0011807877694 0.0011713458152 0.0011620127533 0.0011527845722 0.0011436619257 0.0011346432818 0.0011257270517 0.0011169115287 0.0011081949981 
0.0010995766617 0.0010910559385 0.0010826310457 0.0010742994919 0.0010660608709 0.0010579154217 0.0010498598467 0.0010418915656 0.0010340109266 
0.0010262154884 0.0010185042492 0.0010108770102 0.0010033066397 0.00099584496925 0.00098846467336 0.00098116575812 0.00097394807596 0.00096681144201 
0.00095975569686 0.00095277865955 0.00094588743535 0.00093907872565 0.00093235316082 0.00092571131303 0.00091915398998 0.00091268146862 0.00090629464356 
0.00089999491415 0.00089378264504 0.00088765661132 0.00088161628357 0.00087565808945 0.00086977956389 0.00086397929442 0.00085825096887 0.0012500594816 
0.0012397958404 0.0012296584125 0.0012196414245 0.0012097430812 0.0011999637923 0.0011902992832 0.0011807475646 0.0011713059056 0.0011619720308 
0.00115274505 0.0011436237628 0.0011346059189 0.0011256896738 0.0011168750441 0.0011081589826 0.0010995433659 0.0010910240041 0.0010825997058 
0.0010742712296 0.0010660363144 0.0010578925082 0.0010498387594 0.0010418728033 0.0010339944 0.0010262012308 0.0010184933697 0.0010108710004 
0.0010033067711 0.00099585162003 0.00098847921306 0.00098119104144 0.00097398621229 0.00096686471646 0.00095982373722 0.00095287111775 0.00094600307906 
0.00093921932078 0.00093252283233 0.00092591202807 0.00091938893425 0.00091295223851 0.00090660452921 0.00090034451724 0.00089417206057 0.00088808518856 
0.00088208134498 0.00087615979586 0.00087031421461 0.0008645420669 0.0012606267371 0.0012502399692 0.001239978292 0.0012298423368 0.0012198272161 
0.0012099310358 0.0012001532646 0.0011904888575 0.0011809355772 0.0011714925897 0.0011621577903 0.0011529304978 0.0011438080346 0.0011347895415 
0.0011258740885 0.0011170594124 0.0011083446102 0.0010997291334 0.0010912105688 0.0010827884926 0.0010744616887 0.0010662274782 0.0010580850716 
0.0010500311524 0.001042066649 0.0010341884083 0.0010263984423 0.0010186935698 0.0010110498198 0.0010035170057 0.0009960696454 0.00098870674741 
0.00098142916351 0.00097423827257 0.00096713278942 0.00096011069769 0.00095317927689 0.00094633511111 0.00093957838579 0.00093290889613 0.00092632877857 