# vtk DataFile Version 5.1
vtk output
ASCII
DATASET STRUCTURED_POINTS
DIMENSIONS 50 50 50
SPACING 0.002 0.002 0.002
ORIGIN 0.1742 -0.052672 0.02732
POINT_DATA 125000
FIELD FieldData 1
potential 1 125000 double
0.0009427732748 0.00093622896154 0.00092975278878 0.00092334207297 0.00091699236361 0.00091070587292 0.00090447731896 0.00089830865398 0.00089219743581 
0.00088614205518 0.00088014179896 0.00087419567527 0.00086830712804 0.00086246722396 0.00085667924462 0.00085094503288 0.00084525559709 0.00083961916914 
0.00083403235324 0.00082849395726 0.00082300329934 0.00081755864198 0.00081215967986 0.0008068030732 0.00080149352708 0.00079622850061 0.00079100753472 
0.00078583121796 0.0007806986829 0.00077561062646 0.0007705667759 0.00076556803095 0.00076061418577 0.00075570451706 0.00075083951092 0.00074602001198 
0.00074124569133 0.00073651672064 0.00073183365536 0.00072719258088 0.00072260145772 0.00071805703601 0.00071356013216 0.00070911100986 0.0007047102872 
0.0007003582691 0.00069605494044 0.00069180079836 0.00068759432142 0.00068343583561 0.00094180966741 0.0009352847281 0.00092882436081 0.00092242656194 
0.00091609419839 0.00090982215192 0.00090360733669 0.00089745283291 0.00089135547594 0.00088531399254 0.00087932725195 0.00087339512467 0.00086751980379 
0.00086169340665 0.00085591867073 0.00085019709442 0.00084452244014 0.00083889966992 0.0008333257619 0.00082780013771 0.00082232220783 0.00081689078121 
0.0008115050471 0.00080616171131 0.00080086557775 0.00079561410367 0.00079040693328 0.00078524381116 0.00078012541566 0.0007750512678 0.00077002165588 
0.00076503758587 0.00076009759434 0.00075520232904 0.00075035232929 0.00074554717781 0.00074078779028 0.00073607355844 0.0007314047307 0.00072677874087 
0.00072220187277 0.00071767179952 0.00071318892497 0.00070875329345 0.00070436609134 0.00070002689192 0.00069573642599 0.00069149409323 0.00068729907766 
0.0006831514577 0.00094043059062 0.00093392344402 0.0009274806537 0.00092110328692 0.00091478910375 0.00090853309622 0.00090233764568 0.00089620017788 
0.00089011998483 0.00088409502123 0.00087812580211 0.00087220988065 0.00086635074109 0.00086054028561 0.00085478056669 0.00084907283532 0.00084341655613 
0.00083780977343 0.00083225173016 0.0008267420344 0.00082127946826 0.00081586346594 0.00081049275245 0.00080516526246 0.00079988515247 0.00079464937726 
0.00078945780854 0.00078431045728 0.0007792080837 0.0007741496261 0.00076913656583 0.00076416812717 0.00075924437458 0.00075436546658 0.00074953103498 
0.00074474275007 0.00073999982066 0.0007353018783 0.00073064903217 0.00072603987722 0.0007214791032 0.00071696492256 0.00071249767446 0.0007080779126 
0.00070370555766 0.00069938143208 0.00069510450876 0.00069087545885 0.0006866936846 0.00068255851273 0.0009385835124 0.00093209869155 0.00092567959193 
0.0009193249409 0.00091303125803 0.00090679720929 0.0009006222908 0.00089450515713 0.00088844517891 0.0008824403467 0.00087649018309 0.00087059331055 
0.00086475391623 0.00085896287938 0.00085322407544 0.00084753376935 0.00084189598205 0.00083630765343 0.00083076804048 0.00082527641097 0.00081983219393 
0.00081443465885 0.00080908215916 0.00080377292179 0.00079851103921 0.00079329329671 0.000788119786 0.00078299036771 0.00077790578274 0.00077286540258 
0.00076787072813 0.00076292031977 0.00075801498323 0.00075315462529 0.00074833847682 0.00074356846448 0.00073884368082 0.00073416368694 0.00072952615085 
0.00072493839993 0.00072039599258 0.00071589978058 0.00071144959878 0.00070704713321 0.00070269210145 0.00069838386455 0.00069412307533 0.00068990959254 
0.00068574281702 0.00068162211581 0.00093623423506 0.00092977733462 0.00092338478757 0.0009170553249 0.00091078548777 0.00090457696184 0.00089842672624 
0.00089233401451 0.00088629828868 0.0008803164981 0.00087438953274 0.0008685157516 0.00086269894191 0.00085692851185 0.0008512126526 0.00084554441157 
0.00083992835675 0.00083436158254 0.00082884332521 0.0008233733467 0.00081795030498 0.00081257358504 0.00080724187634 0.00080195337742 0.000796712698 
0.00079151561394 0.00078636259885 0.00078125442199 0.00077619009246 0.00077117117689 0.00076619614725 0.00076126610445 0.00075638121666 0.00075154066247 
0.00074674559719 0.00074199603257 0.00073729155924 0.00073263210186 0.00072801473504 0.00072344704343 0.00071892461825 0.00071444793017 0.00071001805068 
0.00070563470608 0.00070129807276 0.00069700837112 0.00069276553898 0.00068856960141 0.00068442012529 0.00068031597186 0.0009333616773 0.00092693543128 
0.00092057429869 0.00091427301296 0.00090803210826 0.00090185196364 0.00089573035133 0.00088966525638 0.0008836569701 0.00087770220688 0.00087180138238 
0.00086595404392 0.0008601623348 0.00085442031551 0.00084872607529 0.00084308510009 0.00083749436416 0.00083195282033 0.00082645905799 0.00082101331244 
0.0008156147251 0.00081026161047 0.00080495352479 0.00079968874851 0.00079447119214 0.0007892975048 0.00078416769028 0.00077908264005 0.0007740419808 
0.00076904561233 0.00076409354471 0.00075918630572 0.00075432427936 0.00074950707503 0.00074473462296 0.0007400077771 0.00073532612827 0.00073068879681 
0.00072609402238 0.00072154832517 0.00071704816176 0.00071259373043 0.00070818478191 0.00070382278303 0.0006995071948 0.00069523798785 0.00069101548504 
0.00068683932653 0.00068270912369 0.00067862396653 0.00092995790876 0.00092356681634 0.00091723802946 0.00091097098634 0.0009047629727 0.0008986152335 
0.00089252473397 0.00088649140231 0.00088051388557 0.00087458989973 0.00086871878396 0.00086290157183 0.00085713857888 0.00085142620863 0.00084576106198 
0.00084014844283 0.00083458580482 0.00082907252263 0.00082360643317 0.00081818818345 0.00081281651565 0.00080749041169 0.00080220942391 0.00079697123828 
0.00079178044776 0.00078663302762 0.00078152909896 0.00077647052513 0.00077145481815 0.00076648363997 0.00076155740985 0.00075667569922 0.0007518385276 
0.00074704654024 0.00074229909507 0.00073759699703 0.00073293975489 0.00072832450419 0.00072375735032 0.0007192364104 0.00071476077069 0.00071032991204 
0.00070594504087 0.00070160669796 0.00069731428484 0.00069306789996 0.00068886772538 0.00068471352556 0.00068060477726 0.00067654163073 0.00092602837118 
0.00091967534265 0.00091338387151 0.00090715255402 0.00090098210434 0.00089487057951 0.00088881613098 0.00088281755999 0.00087687456263 0.00087098514939 
0.0008651483135 0.00085936264127 0.00085363335844 0.00084795147539 0.00084232057107 0.00083673980381 0.00083120875396 0.0008257260701 0.00082029071478 
0.00081490315879 0.00080956150995 0.0008042657424 0.00079901458193 0.00079380609482 0.00078864405185 0.00078352539315 0.00077845025431 0.00077341989856 
0.00076843254075 0.00076348969427 0.00075859126991 0.0007537367658 0.00074892727649 0.00074416271516 0.00073944256075 0.00073476783007 0.00073013741783 
0.00072554891986 0.00072100909481 0.00071651514126 0.00071206546485 0.00070766096441 0.00070330195919 0.00069898916066 0.00069472182905 0.00069050047284 
0.00068632497918 0.00068219484692 0.00067811072991 0.00067406999149 0.00092159327795 0.00091528125971 0.00090903097386 0.00090284029285 0.00089670997509 
0.00089063813509 0.00088462292792 0.00087866348664 0.00087275819684 0.00086690615973 0.00086110521206 0.00085535756369 0.00084966581674 0.00084401826428 
0.0008384225916 0.00083287704601 0.00082738016448 0.00082193141962 0.000816529992 0.00081117558268 0.00080586724616 0.00080060421336 0.00079538584351 
0.00079020935647 0.00078507889422 0.00077999145292 0.00077494887787 0.00076994874393 0.00076499213531 0.00076007972498 0.00075521132966 0.00075038704462 
0.00074560753217 0.00074087235759 0.00073618208258 0.00073153642207 0.00072693231322 0.00072237641554 0.000717865815 0.0007133997573 0.00070897805797 
0.00070460182249 0.00070027121465 0.00069598587353 0.00069174591141 0.00068755175213 0.00068340292463 0.00067929997857 0.00067524049217 0.00067122458254 
0.00091668376839 0.00091041698701 0.00090421154392 0.00089806480708 0.00089197851088 0.00088594966778 0.00087997727066 0.00087405955354 0.00086819536088 
0.00086238380298 0.0008566234573 0.00085091863335 0.00084526265998 0.00083965356396 0.00083409669999 0.00082858862938 0.00082312883014 0.00081771723222 
0.00081235237225 0.00080703410514 0.00080176134029 0.00079653415063 0.00079135124272 0.00078620957467 0.00078111280315 0.00077606060484 0.00077105105144 
0.00076608424179 0.00076116094488 0.00075628126734 0.00075144529374 0.00074665344959 0.00074190572131 0.00073720233581 0.00073254360257 0.00072792934889 
0.00072335674756 0.00071883233772 0.00071435213305 0.00070991629445 0.00070552527752 0.00070117910993 0.00069687814169 0.00069262237427 0.00068841169916 
0.00068424666368 0.00068012734865 0.00067605122994 0.00067201952974 0.00066803050617 0.00091134643228 0.00090512781788 0.00089896856244 0.00089287041359 
0.00088683075351 0.00088084760499 0.00087492040501 0.0008690475553 0.00086322776572 0.00085745850031 0.00085174209219 0.00084608016357 0.00084046483262 
0.00083489925618 0.0008293830635 0.00082391553294 0.00081849562639 0.00081312323303 0.00080779785628 0.0008025180921 0.00079728392907 0.00079209451188 
0.00078694674433 0.00078184458079 0.0007767857614 0.00077176908393 0.00076679500092 0.00076186425358 0.00075697620037 0.00075213131754 0.0007473298923 
0.00074257259503 0.00073785867721 0.00073318909734 0.00072856327283 0.00072397979643 0.00071944363053 0.0007149514144 0.00071050404566 0.00070610016527 
0.00070174134213 0.00069742732513 0.00069315794645 0.0006889333712 0.00068475367216 0.00068062000102 0.00067652961251 0.0006724831314 0.00066848043935 
0.0006645204347 0.00090563606219 0.00089946827433 0.00089335965388 0.00088731081953 0.00088132033731 0.00087538617527 0.00086950655779 0.000863681347 
0.00085790696971 0.00085218517745 0.0008465145528 0.00084089912983 0.00083532681638 0.00082980561701 0.00082433294315 0.00081890828597 0.00081353052289 
0.00080819986463 0.00080291580121 0.00079767684428 0.00079248348647 0.0007873340641 0.00078222615596 0.00077716319337 0.00077214256839 0.00076716440098 
0.00076222860106 0.00075733523915 0.00075248456472 0.00074767660334 0.00074291151365 0.00073819004804 0.00073351203031 0.00072887768295 0.00072428773788 
0.00071973851469 0.00071523684166 0.00071077907007 0.0007063655501 0.00070199578009 0.00069767043318 0.00069338951705 0.00068915308369 0.00068496119253 
0.00068081494108 0.00067671205452 0.00067265292957 0.00066863761793 0.00066466510717 0.00066073554032 0.00089961700731 0.00089350107622 0.000887446418 
0.00088145029037 0.00087551076908 0.00086962727094 0.0008637982773 0.00085802066287 0.00085229624884 0.00084662306257 0.00084100039238 0.0008354302293 
0.00082990655582 0.00082443153869 0.00081900441128 0.0008136242987 0.0008082914283 0.00080300430535 0.00079776320069 0.00079256746732 0.0007874163648 
0.00078230890537 0.00077724177807 0.00077222047876 0.000767240686 0.0007623023618 0.00075740626286 0.00075255210351 0.00074774014122 0.00074297071775 
0.00073824390958 0.00073355992022 0.00072891876626 0.00072432152532 0.00071976770322 0.00071525457377 0.00071078878059 0.00070636662897 0.0007019882212 
0.00069765325247 0.00069336256045 0.00068911619739 0.00068491382695 0.00068075667604 0.000676642855 0.00067257301463 0.00066854673507 0.00066456334788 
0.00066062270512 0.00065672424267 0.00089336150941 0.00088730082819 0.0008813002835 0.00087535782201 0.00086947131135 0.00086364040131 0.00085786310884 
0.00085213677138 0.00084646289772 0.00084083957042 0.00083526795515 0.00082974570289 0.00082426997383 0.00081884273949 0.00081346308647 0.00080812921431 
0.00080284220732 0.00079760007533 0.00079240437418 0.00078725267418 0.00078214518587 0.00077708070268 0.00077205784138 0.00076707774391 0.00076213985711 
0.00075724341656 0.00075238849896 0.00074757515261 0.0007428033879 0.00073807358382 0.000733385843 0.00072874115188 0.00072413814518 0.00071957827281 
0.00071505904228 0.00071058607117 0.00070615698536 0.00070177122572 0.00069742887975 0.00069312980657 0.0006888746047 0.00068466337393 0.00068049732341 
0.00067637356816 0.00067229371413 0.0006682577238 0.00066426494568 0.00066031455263 0.00065640590307 0.00065253965556 0.00088694394755 0.00088094092843 
0.00087499609481 0.00086910801746 0.00086327609024 0.00085749893764 0.00085177321567 0.00084609991599 0.00084047883669 0.00083490675514 0.0008293835273 
0.00082391319034 0.00081848731644 0.0008131081297 0.00080777674562 0.00080249158691 0.0007972509427 0.00079205627525 0.00078690626255 0.00078180005042 
0.00077673741528 0.00077171875739 0.0007667380043 0.00076180190731 0.00075690702003 0.00075205289776 0.0007472398793 0.00074246856304 0.00073773765583 
0.00073304831939 0.00072840128976 0.00072379567426 0.00071923174352 0.00071471075403 0.0007102294716 0.0007057943315 0.0007014025673 0.00069705415966 
0.00069274829962 0.00068848596316 0.00068426688189 0.00068009128299 0.00067596038931 0.00067187176577 0.00066782615049 0.00066382435085 0.00065986501745 
0.00065594815516 0.0006520724599 0.00064823818154 0.00088044431154 0.00087449934134 0.00086861085626 0.00086277800456 0.00085700152476 0.00085127727733 
0.00084560608284 0.00083998652776 0.00083441772101 0.00082889932382 0.00082342605442 0.00081800644392 0.00081263017377 0.00080730098573 0.00080201879885 
0.0007967818855 0.00079158934786 0.00078644235813 0.00078133883224 0.00077627844033 0.00077126264954 0.00076628813224 0.00076135277165 0.00075646035902 
0.00075160948519 0.0007467984274 0.00074202782005 0.00073729836477 0.00073260961674 0.00072796175352 0.00072335468072 0.00071878906442 0.00071426548352 
0.00070978015231 0.00070534022392 0.00070094348375 0.000696589508 0.00069227831864 0.00068800946527 0.00068378365487 0.00067960076246 0.00067546209694 
0.00067136536333 0.00066731151532 0.00066330047847 0.00065933246998 0.0006554068536 0.00065152244549 0.00064768027893 0.00064387828771 0.00087394080671 
0.00086805273989 0.00086222082903 0.00085644427602 0.0008507212148 0.00084505241191 0.00083943594047 0.0008338693548 0.00082835327439 0.00082288677005 
0.00081746865545 0.00081209665405 0.0008067713822 0.00080149220071 0.0007962591957 0.00079107116887 0.00078592744786 0.00078082740585 0.00077577084775 
0.00077075811946 0.00076578742489 0.00076085877089 0.00075596847288 0.00075112053144 0.00074631340393 0.00074154569448 0.00073681834156 0.00073213158393 
0.00072748410369 0.00072287741447 0.0007183112981 0.00071378574237 0.00070930206771 0.00070485615856 0.00070045503485 0.00069609643903 0.00069178016978 
0.00068750608119 0.00068327413333 0.00067908448679 0.00067493875285 0.00067083438509 0.00066677253263 0.00066275310563 0.00065877589583 0.0006548419346 
0.0006509491656 0.00064709755892 0.00064328748443 0.00063951757735 0.00086750675023 0.00086167527703 0.00085589991478 0.00085017740056 0.00084451025148 
0.000838895838 0.00083333300798 0.00082781995258 0.00082235644067 0.00081693997953 0.00081157464148 0.00080625394831 0.00080097910173 0.00079574972229 
0.00079056619689 0.00078542669088 0.0007803311793 0.00077527884415 0.00077027006068 0.00076530318425 0.00076037873436 0.00075549531169 0.00075064969383 
0.00074584659855 0.00074108338738 0.00073635894462 0.0007316747287 0.00072702951016 0.00072242375461 0.00071785849403 0.00071333302636 0.00070884768457 
0.00070440013437 0.00069999667612 0.00069563432334 0.00069131349673 0.00068703486598 0.00068279765507 0.00067860192987 0.00067444930974 0.00067033777177 
0.00066626741592 0.00066223993777 0.00065825419594 0.00065431055391 0.00065040870881 0.00064654836406 0.00064272859359 0.00063895023806 0.00063521138104 
0.00086121119635 0.00085543564707 0.00084971509439 0.00084404726542 0.00083843460747 0.00083287417138 0.00082736381546 0.00082190334783 0.00081649259192 
0.00081112671388 0.0008058121373 0.00080054174398 0.00079531682592 0.00079013739411 0.00078500189385 0.00077991088435 0.00077486302796 0.00076985888514 
0.00076489592369 0.00075997538505 0.00075509677968 0.00075025560642 0.00074545716913 0.00074069761907 0.00073597852525 0.00073129710422 0.00072665503991 
0.00072205173758 0.00071748746248 0.00071296311781 0.00070847786583 0.00070403235043 0.00069962362825 0.00069525888689 0.00069093438299 0.00068665110639 
0.00068240953535 0.00067820816457 0.00067404927119 0.00066993035073 0.00066585285861 0.00066181590861 0.0006578213177 0.00065386853207 0.00064995675963 
0.00064608588197 0.0006422568931 0.00063846826274 0.00063471954973 0.00063101096923 0.00085511484762 0.00084939444268 0.00084372706024 0.00083811373528 
0.00083255464063 0.0008270461461 0.00082158775468 0.00081617844921 0.00081081634704 0.00080550308235 0.00080023878833 0.00079501748351 0.00078984198622 
0.00078471074439 0.00077962369325 0.00077457961861 0.00076957876761 0.00076462128791 0.00075970467398 0.00075482893647 0.00074999534729 0.00074519905267 
0.00074044394941 0.00073572883638 0.00073105151565 0.00072641298566 0.000721812077 0.00071725084544 0.00071272723901 0.00070824266967 0.00070379682034 
0.00069938711043 0.0006950206826 0.00069069357802 0.00068640600747 0.0006821597979 0.00067795371652 0.00067378858511 0.00066966290108 0.00066557771844 
0.0006615327332 0.00065752830217 0.00065356532045 0.00064964373955 0.00064576214933 0.00064192132792 0.00063812145478 0.00063436185134 0.00063064204471 
0.00062696183801 0.00084927164661 0.0008436033909 0.00083798970906 0.00083242845602 0.00082692075011 0.00082146302266 0.00081605486991 0.0008106962488 
0.00080538325316 0.00080011896918 0.0007949034017 0.00078973084582 0.00078460313152 0.00077951898281 0.00077447820931 0.00076948124649 0.00076452698714 
0.00075961439008 0.0007547430518 0.00074991217756 0.00074512181292 0.00074036936637 0.00073565744649 0.00073098369479 0.00072634854303 0.00072175119735 
0.00071719164554 0.00071267019926 0.00070818687134 0.00070374200751 0.00069933476162 0.00069496277601 0.00069063396855 0.00068634414819 0.00068209305134 
0.00067788212258 0.00067371151256 0.00066957905464 0.00066548652526 0.0006614332855 0.0006574196155 0.00065344652005 0.00064951313117 0.00064562005426 
0.00064176700661 0.00063795440626 0.00063418244831 0.00063044979944 0.00062675721842 0.00062310390693 0.00084372375606 0.00083810804456 0.00083254533809 
0.00082703490993 0.00082157611263 0.00081616716914 0.00081080727054 0.00080549596056 0.00080023270981 0.00079501597733 0.00078984775584 0.00078472181764 
0.00077964017404 0.00077460196478 0.00076960682118 0.00076465610045 0.00075974608678 0.00075487724632 0.00075004956893 0.00074526199112 0.0007405148911 
0.00073580409825 0.00073113398065 0.0007265015958 0.00072190702337 0.00071735049059 0.0007128305815 0.00070834860916 0.00070390433574 0.00069949701991 
0.00069512414721 0.00069079316552 0.000686500957 0.00068224641453 0.00067803008693 0.00067385485967 0.00066971607519 0.00066561596645 0.00066155514409 
0.00065753276474 0.00065354874766 0.00064960409981 0.00064569810036 0.00064183219669 0.00063800595751 0.0006342191978 0.0006304725737 0.00062676564908 
0.00062309810559 0.00061946942569 0.00083850837619 0.00083294200336 0.00082742763872 0.000821965175 0.00081655424115 0.00081119247487 0.00080588038907 
0.00080061430416 0.0007953974857 0.0007902291841 0.00078510377416 0.0007800226095 0.00077498556892 0.00076999227254 0.00076504256538 0.0007601341006 
0.00075526751236 0.00075044147886 0.00074565651856 0.00074091081908 0.00073620437242 0.00073153422318 0.00072690474297 0.00072231285268 0.00071775794748 
0.00071324003426 0.00070875856422 0.00070431462673 0.00069990758425 0.00069553745736 0.00069120160229 0.00068690670644 0.00068264913307 0.00067842938891 
0.00067424818018 0.00067010365275 0.00066599722017 0.00066192783087 0.00065789644049 0.00065390232098 0.00064994621414 0.00064602772513 0.00064214771353 
0.00063830665126 0.00063450442412 0.00063074169099 0.00062701833122 0.00062333433517 0.00061968958157 0.00061608373532 0.00083365123832 0.00082813113187 
0.000822663566 0.00081724650953 0.00081188028994 0.00080656402778 0.00080129561331 0.00079607603855 0.00079090312938 0.00078577814809 0.00078069633242 
0.000775657905 0.00077066446405 0.00076571493632 0.00076080688606 0.00075594081058 0.00075111509724 0.00074633064631 0.00074158572455 0.0007368804397 
0.00073221382416 0.00072758283216 0.00072299267381 0.00071843984581 0.00071392253643 0.00070944224978 0.00070499821664 0.00070059071346 0.00069621977012 
0.00069188210801 0.00068758506372 0.00068332439604 0.00067910073004 0.00067491543456 0.00067076510089 0.00066665182935 0.00066257462846 0.0006585341121 
0.00065453059606 0.00065056323487 0.00064663191201 0.00064273793872 0.00063888155802 0.00063506286521 0.00063128282478 0.00062754180479 0.00062383933007 
0.00062017627563 0.0006165517574 0.0006129660377 0.00082917049749 0.00082369473762 0.00081827039327 0.00081289661161 0.00080757436438 0.00080230162696 
0.00079707449421 0.00079189719376 0.00078676669363 0.00078168403689 0.00077664223786 0.0007716462422 0.00076669454625 0.00076178547692 0.00075691787315 
0.00075209207407 0.00074730622712 0.00074256073132 0.00073785460795 0.00073318734528 0.00072855779798 0.000723967006 0.00071941364497 0.00071489745958 
0.00071041755207 0.00070597275001 0.0007015644553 0.00069719244269 0.00069285632632 0.00068855306794 0.0006842902613 0.00068006233173 0.000675872223 
0.00067171648122 0.0006675961745 0.00066351197705 0.00065946364033 0.00065544951877 0.00065147160681 0.00064752856227 0.00064362102614 0.00063974849825 
0.0006359135968 0.00063211572284 0.00062835550721 0.00062463322343 0.0006209502873 0.00061730485391 0.00061369846039 0.0006101307546 0.00082507902168 
0.00081964460503 0.0008142615659 0.00080892969555 0.00080364767557 0.00079841388281 0.00079322885761 0.00078809189218 0.00078300026448 0.00077795649147 
0.00077295578618 0.00076800030121 0.00076308647353 0.0007582160569 0.00075338689821 0.00074859879521 0.00074385113532 0.000739142871 0.00073447408272 
0.00072984364795 0.00072525027746 0.0007206957774 0.00071617863624 0.00071169730774 0.00070725205683 0.00070284241688 0.00069846859817 0.00069413032718 
0.0006898243176 0.0006855571114 0.00068132667668 0.00067713031877 0.00067296892413 0.00066884244361 0.00066475141111 0.00066069436796 0.00065667189416 
0.00065268302725 0.00064872870726 0.00064480743066 0.00064092106812 0.00063706949401 0.0006332535145 0.00062947342393 0.00062573129664 0.00062202612739 
0.00061835846033 0.00061472918314 0.00061113880982 0.00060758717928 0.00082138369206 0.00081598974009 0.00081064543173 0.00080535209104 0.00080010692873 
0.00079491214083 0.00078976485101 0.00078466568232 0.00077961389611 0.0007746058461 0.0007696428622 0.00076472383567 0.0007598473211 0.00075501312604 
0.00075021993821 0.00074546780505 0.00074075691149 0.00073608425691 0.00073145042463 0.00072685517866 0.00072229613139 0.00071777602095 0.0007132922853 
0.00070884514587 0.00070443339227 0.00070005643496 0.00069571533459 0.00069140886905 0.00068713450985 0.0006828997056 0.00067869760913 0.00067453083331 
0.00067039842165 0.00066629968015 0.00066223461073 0.00065820313117 0.0006542047477 0.00065023843021 0.00064630562186 0.00064240514541 0.00063853777786 
0.00063470376699 0.00063090487633 0.00062714130525 0.00062341365135 0.0006197225096 0.000616069493 0.00061245495033 0.00060887858444 0.0006053412363 
0.00081808949855 0.00081273211929 0.00080742396325 0.00080216620314 0.00079695703681 0.00079179788821 0.00078668662887 0.00078162254574 0.0007766065032 
0.00077163461029 0.00076670587894 0.00076182045552 0.00075697824487 0.00075217898649 0.00074742059118 0.00074270273693 0.00073802482254 0.00073338603801 
0.00072878585112 0.00072422355396 0.00071969711574 0.000715209261 0.00071075856517 0.00070634292626 0.00070196224544 0.00069761640005 0.00069330578846 
0.0006890260433 0.00068478641492 0.00068057893484 0.00067640562458 0.00067226644786 0.00066816079442 0.00066408730567 0.00066004706425 0.0006560383717 
0.00065206183154 0.00064811669164 0.00064420354766 0.00064032126264 0.0006364710824 0.00063265255004 0.000628868499 0.00062511857827 0.00062140409748 
0.00061772594524 0.00061408563255 0.00061048285712 0.00060691889987 0.00060339376545 0.00081519371227 0.00080986984862 0.00080459570786 0.00079937081593 
0.00079419608478 0.00078907056928 0.00078399156541 0.00077896062063 0.00077397908564 0.00076903862567 0.00076414218302 0.00075928953642 0.00075447988899 
0.00074971264747 0.00074498635045 0.00074030044493 0.00073565501946 0.00073104722303 0.00072647773681 0.00072194666191 0.00071745144393 0.00071299426653 
0.0007085731205 0.00070418757568 0.00069983642117 0.00069551970355 0.00069123780025 0.00068698765176 0.00068277435568 0.00067859456233 0.00067444739592 
0.00067033319944 0.00066625196433 0.00066220228075 0.00065818453575 0.00065419723509 0.00065024084766 0.00064631437761 0.00064241882225 0.00063855280056 
0.00063471777563 0.00063091354759 0.00062714202317 0.00062340394191 0.00061970104314 0.0006160338174 0.00061240338072 0.00060881192464 0.00060525856089 
0.00060174452107 0.00081269091341 0.00080739825383 0.00080215619898 0.00079696247904 0.00079181899937 0.00078672374556 0.00078167644862 0.00077667663357 
0.00077172456005 0.00076681452856 0.00076194837879 0.00075712627114 0.00075234657862 0.00074760908688 0.00074291214624 0.00073825561762 0.00073363870015 
0.00072906102632 0.00072452129986 0.00072001753798 0.00071555280999 0.00071112401592 0.0007067311657 0.00070237359499 0.00069805008717 0.00069376028118 
0.00068950315759 0.00068528184185 0.00068109337825 0.0006769382433 0.00067281538379 0.00066872476567 0.00066466592043 0.00066063803213 0.00065664082965 
0.00065267313698 0.00064873462978 0.00064482520799 0.00064094509134 0.00063709397907 0.00063327188007 0.00062948008427 0.00062571996687 0.00062199201735 
0.00061829848065 0.00061464076262 0.00061101987567 0.00060743707049 0.00060389335692 0.00060038925469 0.00081057176035 0.00080530829066 0.00080009355451 
0.00079493016537 0.0007898153834 0.00078474913391 0.00077973143092 0.00077475985226 0.00076983481739 0.00076495254684 0.00076011480041 0.0007553201347 
0.00075056800072 0.0007458577431 0.00074118821278 0.00073655882954 0.00073196932416 0.00072741852245 0.00072290607848 0.0007184293397 0.00071399099668 
0.00070958877351 0.00070522259236 0.00070089079008 0.00069659287707 0.00069233061668 0.00068809574843 0.0006838981744 0.00067973338416 0.0006756008549 
0.00067150047518 0.00066743155082 0.00066339231004 0.00065938370591 0.00065540456985 0.00065145447051 0.00064753264246 0.00064363887837 0.00063977314572 
0.00063593458124 0.00063212385991 0.0006283427346 0.00062459202293 0.00062087363683 0.00061718879009 0.00061353944046 0.00060992658833 0.00060635164705 
0.00060281624939 0.00059932041007 0.00080882158141 0.00080358549232 0.00079839796514 0.00079325993833 0.00078817136156 0.00078313257452 0.00077813974367 
0.00077319563318 0.00076829471632 0.00076343854018 0.00075862605635 0.00075385684057 0.00074913009964 0.00074444502927 0.00073980079069 0.00073519629407 
0.00073063156275 0.00072610576973 0.00072161780655 0.00071716581379 0.00071275187155 0.00070837371673 0.00070403192165 0.00069972433378 0.00069545190196 
0.00069120697942 0.00068699872013 0.00068282336565 0.00067868010826 0.00067456807294 0.00067048712139 0.00066643743344 0.00066241691421 0.00065842554821 
0.00065446333322 0.00065052852446 0.00064662117885 0.00064274032848 0.000638886839 0.00063505958677 0.00063125925405 0.00062748816184 0.00062374662894 
0.00062003649257 0.00061635985035 0.00061271746042 0.00060911180567 0.0006055441215 0.00060201591392 0.00059852755427 0.0008074197703 0.00080220553966 
0.00079704306637 0.00079192942531 0.00078686642719 0.00078185033622 0.00077688102654 0.00077196089784 0.00076708390794 0.00076225141426 0.00075746252342 
0.00075271662332 0.00074801317233 0.00074335163054 0.0007387304736 0.00073414919655 0.00072960732956 0.00072510366158 0.0007206378375 0.00071620804303 
0.00071181660335 0.00070746135865 0.00070314087604 0.00069885586436 0.00069460010721 0.00069037978924 0.00068619201672 0.00068203642916 0.00067791269763 
0.00067381996939 0.00066975703289 0.00066572422936 0.00066172034757 0.00065774449317 0.00065379579141 0.00064987523765 0.00064598066034 0.00064211145679 
0.00063826872967 0.00063445201379 0.00063066158155 0.00062689866212 0.00062316528215 0.00061946315702 0.00061579351099 0.00061215829824 0.00060855891329 
0.00060499799387 0.00060147607718 0.00059799402647 0.00080633359206 0.00080114358303 0.00079600309122 0.00079091291386 0.00078587065741 0.00078087677705 
0.0007759296038 0.0007710307746 0.00076617595083 0.00076136465558 0.00075659703038 0.00075187271274 0.00074719075502 0.00074254993546 0.00073794948082 
0.00073338872223 0.00072886755987 0.00072438508453 0.00071993930716 0.00071553005413 0.00071115924261 0.00070682400723 0.0007025241067 0.00069825754313 
0.00069402074942 0.00068981979496 0.00068565119601 0.00068151261351 0.00067740657158 0.00067333044048 0.00066928404227 0.00066526643332 0.00066127702987 
0.00065731483962 0.00065337937115 0.00064947054661 0.00064558726532 0.0006417292971 0.00063789626588 0.00063408872671 0.00063030682616 0.00062655181685 
0.00062282576535 0.00061913053222 0.00061546759638 0.00061183922531 0.00060824643446 0.00060469084204 0.0006011752597 0.00059769931599 0.0008055322375 
0.00080036237113 0.0007952433446 0.00079017233804 0.0007851504531 0.00078017650495 0.00077524984714 0.00077037085244 0.0007655355441 0.0007607438537 
0.00075599596731 0.00075129131481 0.00074662828978 0.00074200625504 0.00073742482082 0.00073288267317 0.00072838066386 0.00072391597424 0.00071948753779 
0.0007150985088 0.00071074597921 0.00070643022958 0.00070214764347 0.00069789503682 0.00069367908711 0.00068949503202 0.00068534286324 0.00068122197604 
0.00067713025527 0.00067306892664 0.00066903640222 0.00066503259737 0.00066105615266 0.00065710660075 0.00065318258126 0.00064928496689 0.0006454119995 
0.00064156290185 0.00063773902641 0.00063393946867 0.00063016601823 0.00062641837711 0.00062269981537 0.00061901116133 0.00061535490265 0.00061173236346 