# vtk DataFile Version 5.1
vtk output
ASCII
DATASET STRUCTURED_POINTS
DIMENSIONS 50 50 50
SPACING 0.002 0.002 0.002
ORIGIN 0.1742 -0.052672 0.02732
POINT_DATA 125000
FIELD FieldData 1
potential 1 125000 double
0.0051441088645 0.005177241428 0.0052100591243 0.0052425385959 0.0052746647929 0.0053064101264 0.0053377647042 0.0053686928206 0.0053991601619 
0.0054291960111 0.0054587627135 0.0054878428282 0.0055164191537 0.0055444640239 0.0055719739081 0.0055989355226 0.0056253073206 0.0056510751387 
0.0056762332018 0.0057007531391 0.0057246241273 0.005747819249 0.0057703430704 0.0057920810919 0.0058131440584 0.0058334692541 0.005853044391 
0.0058718629133 0.0058899069416 0.0059071599064 0.0059236129391 0.0059392571308 0.005954078254 0.0059680574522 0.0059811864938 0.0059934580316 
0.0060048585636 0.0060153730383 0.0060250467477 0.006033702872 0.0060415152892 0.0060484162187 0.0060544052967 0.0060594797839 0.0060636365056 
0.0060668698085 0.0060691818562 0.0060705694841 0.0060710270465 0.006070570539 0.0052489609256 0.0052832420627 0.0053172008014 0.0053508192391 
0.005384071707 0.0054169368739 0.0054493924884 0.0054814204112 0.0055129981852 0.0055441146041 0.0055747410353 0.0056048739677 0.005634498677 
0.0056635715834 0.0056920877756 0.005719990915 0.0057473354938 0.0057740634139 0.0058001464549 0.005825585603 0.0058503408612 0.0058744045935 
0.0058977506183 0.0059203615336 0.005942222718 0.0059633257319 0.0059836543489 0.0060031883238 0.0060219212136 0.0060398370283 0.0060569441628 
0.0060731388998 0.0060885285379 0.0061030487909 0.006116692149 0.0061294387768 0.0061412802818 0.0061522036425 0.0061621992246 0.0061712570412 
0.0061793743594 0.0061865471966 0.0061927741922 0.0061980452283 0.0062023625343 0.0062057212905 0.0062081657646 0.0062095561688 0.006210031504 
0.0062095424416 0.0053536695897 0.0053891279948 0.0054242536257 0.0054590329836 0.0054934505274 0.0055274636652 0.0055610480506 0.0055942038619 
0.0056269073834 0.0056591276535 0.0056908292312 0.0057220409047 0.0057527157177 0.0057828293018 0.0058123784311 0.0058413334205 0.0058696784719 
0.0058973977503 0.0059244509196 0.0059508252896 0.0059765077689 0.0060014656076 0.0060256806241 0.0060491375116 0.006071825482 0.0060937219678 
0.0061147691184 0.0061350399737 0.0061544782069 0.0061730735136 0.006190810983 0.006207678373 0.0062236583161 0.0062387363462 0.006252901467 
0.0062661577239 0.0062784595245 0.0062898027181 0.0063001774396 0.0063095919891 0.0063180245792 0.0063254741409 0.0063318957728 0.0063373673606 
0.0063418469122 0.0063453348729 0.0063478241445 0.0063493176504 0.0063498111929 0.0063493025577 0.0054579996347 0.0054946589889 0.0055309859245 
0.0055669551428 0.005602537938 0.0056377255017 0.005672452701 0.0057067619331 0.0057406253555 0.0057739785886 0.0058068294896 0.0058391372415 
0.0058709136128 0.005902115683 0.0059327331075 0.0059627406913 0.0059921113306 0.0060208275657 0.0060488652635 0.0060762075071 0.0061028272311 
0.0061287041606 0.0061537763778 0.0061781079595 0.0062016427488 0.0062243486501 0.0062462302398 0.0062672639487 0.0062874356132 0.0063067339934 
0.0063251425079 0.0063426478172 0.0063592345981 0.0063748849423 0.0063895872499 0.006403331768 0.0064160996915 0.0064278778485 0.0064386176451 
0.006448409171 0.0064571621407 0.0064648986665 0.0064716043661 0.0064772872085 0.0064819368875 0.0064855544995 0.0064881383201 0.0064896881205 
0.0064901966045 0.0064896646194 0.0055617843954 0.0055996698112 0.0056372188172 0.0056743809415 0.0057111856595 0.0057475744401 0.0057835418363 
0.0058190466389 0.0058540689082 0.0058885857775 0.0059225828448 0.0059560380752 0.0059889335222 0.0060212434473 0.0060529512455 0.0060840286807 
0.0061144529028 0.0061442056348 0.0061732578922 0.0062015586206 0.0062291454394 0.0062559683242 0.0062819962485 0.0063072246183 0.006331626946 
0.0063551824135 0.0063778749051 0.0063997000536 0.0064206263376 0.0064406475061 0.0064597440121 0.0064779069595 0.0064951142503 0.006511357171 
0.0065265867373 0.0065408484771 0.0065540953415 0.0065663158905 0.0065774982378 0.0065876455412 0.0065967384553 0.0066047672815 0.0066117307268 
0.0066176431952 0.0066224686615 0.0066262228122 0.0066289012621 0.0066305049454 0.0066310318605 0.006630469522 0.0056649325253 0.0057040827309 
0.0057428927859 0.005781325117 0.005819383152 0.0058570119088 0.0058941969308 0.0059309051329 0.005967134431 0.0060028500232 0.0060380267615 
0.006072650285 0.0061067078858 0.006140140109 0.0061729638059 0.0062051465978 0.0062366326243 0.0062674465179 0.006297542167 0.0063268941844 
0.0063554812197 0.0063832763895 0.006410256616 0.0064364071731 0.0064617067584 0.006486131394 0.0065096619297 0.0065322915142 0.0065539949796 
0.0065747618392 0.006594568697 0.0066133845102 0.0066312390292 0.0066480872125 0.0066639178932 0.0066787203661 0.0066924649998 0.0067051456624 
0.006716753664 0.0067272813925 0.0067367139875 0.006745045386 0.0067522764982 0.0067583886079 0.0067633994281 0.006767294748 0.0067700849363 
0.0067717330431 0.0067722750971 0.0067716933894 0.0057675209036 0.0058079668923 0.0058480636861 0.0058878020119 0.0059271254323 0.0059660210317 
0.0060044451938 0.0060424129702 0.0060798791502 0.0061168117329 0.0061532027362 0.0061890354056 0.0062242699884 0.0062588658151 0.0062928409913 
0.0063261524332 0.0063587750676 0.0063906937474 0.0064218639068 0.0064522686089 0.0064818850107 0.0065106826602 0.0065386425835 0.0065657423067 
0.0065919644804 0.0066172890888 0.0066416773193 0.0066651399312 0.0066876443728 0.0067091602944 0.0067297055856 0.0067492437549 0.0067677624737 
0.0067852431905 0.0068016639787 0.0068170114787 0.0068312717206 0.0068444304858 0.0068564740837 0.0068673886324 0.0068771772893 0.006885822582 
0.0068933228192 0.0068996892357 0.0069048777876 0.0069089190865 0.0069118008275 0.0069135234744 0.0069140916376 0.0069134858006 0.0058696486224 
0.0059114335203 0.0059528533169 0.0059938904764 0.006034514301 0.006074702784 0.0061144405454 0.0061536909047 0.0061924344975 0.0062306489356 
0.0062682791478 0.0063053394667 0.0063417923505 0.0063776112701 0.0064127715971 0.0064472553007 0.0064810324534 0.0065140726942 0.0065463501158 
0.0065778495799 0.0066085256039 0.0066383605355 0.0066673220291 0.0066954038639 0.0067225785633 0.006748817434 0.0067740941835 0.0067984133337 
0.0068217450121 0.0068440719217 0.0068653823197 0.0068856444654 0.0069048490493 0.0069229772309 0.0069400079132 0.0069559313275 0.0069707110286 
0.0069843579911 0.0069968645274 0.0070081978723 0.0070183542636 0.0070273252251 0.0070350974159 0.0070416911683 0.0070470829983 0.0070512737105 
0.0070542634777 0.007056048636 0.0070566264242 0.0070560049904 0.0059715306277 0.0060146666606 0.0060574351274 0.0060998219737 0.0061418026354 
0.0061833421603 0.0062244153774 0.0062649920848 0.0063050520853 0.0063445558859 0.0063834892519 0.0064218253561 0.006459539293 0.0064966026762 
0.0065329930043 0.0065686829713 0.0066036504399 0.0066378570163 0.0066712831113 0.0067038900554 0.0067356649406 0.0067665745125 0.006796589042 
0.0068256865529 0.0068538358184 0.0068810276232 0.0069072409136 0.0069324512431 0.0069566371709 0.0069797664357 0.0070018579285 0.0070228695419 
0.0070427858235 0.0070615804826 0.0070792467037 0.0070957614509 0.0071111035219 0.0071252678996 0.0071382306985 0.0071499824393 0.0071605136555 
0.0071698207004 0.0071778950681 0.0071847343922 0.0071903251857 0.007194674365 0.0071977870134 0.0071996367968 0.0072002317847 0.0071995741184 
0.0060734345556 0.0061179735664 0.0061621486719 0.0062059402724 0.0062493159719 0.0062922412672 0.0063347015151 0.0063766453382 0.0064180552793 
0.0064589049698 0.0064991721743 0.0065388248174 0.0065778445835 0.0066161959695 0.0066538602978 0.006690806434 0.0067270003392 0.0067624134973 
0.0067970239215 0.0068308007695 0.0068637083044 0.006895731963 0.0069268101818 0.0069569592079 0.0069861333369 0.007014317082 0.007041487791 
0.007067619948 0.007092697803 0.0071166971535 0.0071396051871 0.0071613856327 0.0071820439308 0.0072015440943 0.0072198667209 0.0072369983203 
0.0072529221851 0.0072676121605 0.0072810596927 0.0072932512123 0.0073041845579 0.0073138400693 0.0073222166686 0.007329318515 0.0073351106571 
0.0073396271844 0.0073428406523 0.0073447545239 0.0073453702122 0.0073446654755 0.0061757742191 0.0062217691253 0.0062674019741 0.0063126408831 
0.0063574573952 0.0064018270121 0.0064457028848 0.0064890654396 0.0065318814395 0.0065741215552 0.0066157715839 0.0066567962829 0.0066971708856 
0.0067368624356 0.0067758402024 0.0068140865407 0.0068515572215 0.0068882213419 0.0069240626163 0.0069590437258 0.0069931358359 0.0070263028023 
0.0070585222232 0.0070897662962 0.0071200108488 0.0071492218338 0.007177386869 0.0072044869702 0.0072304928606 0.0072553722812 0.0072791294654 
0.0073017335256 0.0073231538097 0.0073433794318 0.0073623851355 0.0073801575476 0.007396681232 0.0074119219181 0.0074258689899 0.007438522347 
0.0074498614432 0.0074598923429 0.0074685852231 0.0074759448749 0.0074819662275 0.0074866455527 0.0074899794757 0.0074919525029 0.0074925858591 
0.0074918655691 0.0062790439181 0.0063265466811 0.0063736916987 0.0064204254422 0.0064667461602 0.0065125931296 0.0065579443751 0.0066027810872 
0.0066470512678 0.0066907482853 0.0067338358367 0.0067762879921 0.0068180645128 0.0068591375674 0.0068994958646 0.0069390937096 0.0069778962874 
0.0070158773713 0.007053011661 0.0070892460062 0.0071245661084 0.0071589372691 0.0071923307272 0.007224707642 0.0072560505707 0.0072863432123 
0.0073155544913 0.0073436460288 0.0073706222143 0.0073964431149 0.007421086252 0.007444533889 0.0074667677213 0.0074877555777 0.0075074679998 
0.0075259059543 0.0075430423785 0.0075588581514 0.0075733466647 0.0075864845102 0.0075982541418 0.0076086581287 0.007617681293 0.007625319301 
0.0076315663415 0.0076364138593 0.0076398717709 0.0076419267415 0.0076425760254 0.0076418252339 0.0063837908173 0.0064328592661 0.0064815592556 
0.0065298699946 0.0065777319572 0.0066251310949 0.0066720284748 0.00671838528 0.0067641897175 0.0068093876463 0.0068539736233 0.0068979102757 
0.006941162167 0.006983703148 0.0070254967078 0.0070665082255 0.0071067295876 0.0071460695953 0.007184535563 0.0072220859227 0.0072586827152 
0.0072943104588 0.007328925359 0.007362501378 0.0073950141581 0.007426417954 0.0074567127887 0.0074858706362 0.0075138550327 0.0075406477244 
0.0075662271436 0.0075905592573 0.0076136297717 0.007635404726 0.0076558713046 0.0076750043355 0.0076927950378 0.0077092232659 0.0077242557113 
0.0077378853671 0.0077501056614 0.0077609060375 0.0077702776476 0.0077782012498 0.0077846913798 0.0077897337653 0.0077933205898 0.0077954505807 
0.0077961213443 0.0077953337128 0.0064906350759 0.0065413549393 0.0065916854281 0.0066416106929 0.0066910968144 0.0067401049899 0.0067886109335 
0.0068365759265 0.0068839680152 0.0069307576593 0.0069769156882 0.0070224255541 0.0070672165416 0.007111281256 0.0071545981518 0.0071970840799 
0.0072387275721 0.007279504763 0.0073193610796 0.0073582860236 0.0073962409447 0.0074331823972 0.0074690889065 0.0075039045994 0.0075376313677 
0.0075702303624 0.0076016740705 0.0076319392666 0.0076609871202 0.0076888008943 0.0077153594478 0.0077406176163 0.0077645617783 0.0077871772063 
0.0078084342996 0.007828314756 0.0078467886343 0.0078638382119 0.0078794500673 0.0078936053979 0.0079062947331 0.0079175054308 0.007927239943 
0.0079354801007 0.0079422233623 0.0079474647812 0.0079511967899 0.0079533989195 0.0079540885435 0.0079532666342 0.0066002754991 0.0066526929118 
0.0067047326846 0.0067563634913 0.0068075409945 0.0068582541289 0.0069084521564 0.0069581094354 0.0070071749196 0.0070556256504 0.007103429336 
0.0071505548371 0.0071969570126 0.0072426322874 0.0072875059555 0.0073315498937 0.0073747152278 0.0074170027751 0.0074583514659 0.0074987277301 
0.0075380975988 0.0075764280461 0.0076136635004 0.0076498081911 0.0076848183611 0.007718644355 0.0077512910352 0.0077827160466 0.0078128977377 
0.0078417819476 0.0078693637892 0.0078956046435 0.0079204822695 0.0079439709424 0.0079660760321 0.0079867185644 0.0080059161042 0.0080236364767 
0.008039857632 0.0080545642183 0.0080677565745 0.0080794160504 0.0080895353795 0.008098103144 0.0081051114854 0.0081105574202 0.0081144279276 
0.0081167236608 0.0081174399023 0.0081165725992 0.0067133899 0.0067675990076 0.006821435185 0.0068748466295 0.0069278377338 0.0069803416801 
0.0070323050776 0.0070837144613 0.0071345403525 0.0071847376659 0.0072342719056 0.0072831423433 0.0073312362523 0.0073785695764 0.0074250880718 
0.0074707413004 0.0075155406857 0.0075594169572 0.0076023174604 0.0076442276167 0.0076850884112 0.0077248845564 0.0077635516661 0.0078010911101 
0.0078374562813 0.0078726172627 0.0079065273527 0.0079391950073 0.0079705469721 0.0080005714109 0.008029233852 0.0080565178849 0.0080823891032 
0.0081068074605 0.0081297549677 0.0081512222595 0.0081711799594 0.008189608918 0.0082064680543 0.0082217729569 0.0082354926303 0.008247621404 
0.0082581525324 0.0082670652392 0.00827435144 0.0082800115384 0.0082840341474 0.0082864116709 0.0082871690334 0.008286265076 0.0068307202022 
0.0068868260661 0.0069425531968 0.0069978687274 0.0070527279485 0.0071071027542 0.0071609447308 0.0072142029868 0.0072668798866 0.0073188841247 
0.007370275727 0.0074209095037 0.0074708091809 0.0075199232254 0.0075682131523 0.0076156296831 0.007662133547 0.0077076762707 0.0077522350823 
0.007795746842 0.0078382024813 0.0078795540004 0.0079197584477 0.0079587644423 0.0079965556106 0.0080331132983 0.0080683753467 0.0081023276864 
0.008134909329 0.0081661292433 0.0081959405527 0.0082243202048 0.0082512288876 0.0082766308033 0.0083005073858 0.0083228445008 0.0083436054082 
0.0083627740176 0.0083803267878 0.0083962523324 0.0084105391116 0.008423169822 0.0084341264971 0.008443398552 0.0084509709872 0.0084568743094 
0.0084610673226 0.0084635459732 0.0084643149249 0.0084633675291 0.0069530269867 0.0070111130153 0.007068842729 0.007126134371 0.0071829878626 
0.0072393062359 0.0072951264604 0.0073503707016 0.0074050397288 0.0074590153394 0.0075122903864 0.0075648622613 0.0076166618357 0.0076676549357 
0.0077177980032 0.0077670453836 0.0078153461628 0.0078626749771 0.0079089724908 0.0079542095711 0.0079983529628 0.0080413410598 0.0080831312775 
0.0081237076653 0.0081630401356 0.0082010609419 0.0082377344463 0.0082730476691 0.0083069691131 0.0083394683227 0.0083705072785 0.008400039671 
0.0084280289491 0.0084544853981 0.0084793510574 0.0085025985517 0.0085242208296 0.0085441859696 0.0085624703071 0.0085790591906 0.0085939464067 
0.0086070827329 0.0086185115497 0.0086281695869 0.0086360764096 0.0086422124271 0.0086465724185 0.0086491470592 0.0086499398187 0.0086489392558 
0.0070809963974 0.0071411525858 0.007200983934 0.0072603977412 0.0073193542181 0.0073778144762 0.0074357254631 0.0074930947155 0.0075497752885 
0.0076058241574 0.0076611639303 0.0077157648961 0.0077695779185 0.0078225642267 0.0078746716601 0.0079258540578 0.007976084076 0.0080252853559 
0.0080734418978 0.0081205072925 0.0081664290394 0.0082111434987 0.0082546396541 0.0082968855949 0.0083378158598 0.008377399613 0.0084156008758 
0.0084523783168 0.0084877132456 0.008521563734 0.0085538905697 0.0085846577152 0.0086138422985 0.00864140486 0.0086673087697 0.008691546726 
0.0087140702368 0.0087348755521 0.0087539522708 0.0087712408923 0.0087867512236 0.0088004546493 0.008812351916 0.0088224320529 0.008830670873 
0.0088370612617 0.0088415957872 0.0088442773799 0.0088451003063 0.0088440670916 0.0072152896954 0.007277729573 0.007339796091 0.0074014404456 
0.0074626381992 0.0075233223797 0.0075834630429 0.007643007508 0.0077019202409 0.0077601551179 0.0078176715482 0.0078744267032 0.0079303743547 
0.0079854751121 0.0080396705675 0.00809291525 0.0081451705281 0.008196387091 0.0082465120682 0.0082955005658 0.0083433171209 0.0083899220029 
0.0084352313207 0.0084792421536 0.0085218801417 0.0085631263697 0.0086029340778 0.008641293102 0.0086781242301 0.008713408979 0.0087471052882 
0.0087791938053 0.0088096295282 0.0088383667215 0.008865392491 0.0088906913014 0.008914208607 0.0089359164282 0.0089558070505 0.0089738234434 
0.0089899733844 0.0090042827879 0.0090166988963 0.0090272101255 0.0090357992362 0.0090424631393 0.0090471999987 0.0090499989157 0.0090508561782 
0.0090497731715 0.0073566681767 0.0074214746634 0.007485898854 0.0075499159245 0.00761349683 0.0076765394289 0.0077390326767 0.0078009303922 
0.0078621785918 0.0079227388338 0.00798256287 0.0080416108139 0.0080998351587 0.0081571712587 0.0082135879192 0.0082690235414 0.0083234524411 
0.0083768114463 0.0084290328252 0.0084800816188 0.0085299436618 0.0085785041472 0.0086257375814 0.0086716145667 0.0087160797759 0.0087590966962 
0.008800630244 0.0088406308439 0.0088790721664 0.0089158934959 0.0089510608075 0.0089845331541 0.0090163169367 0.0090463266659 0.0090745408402 
0.009100942065 0.0091254746575 0.0091481460492 0.0091689184109 0.0091877678125 0.0092046688769 0.0092196092361 0.0092325509257 0.0092435266762 
0.0092524946343 0.009259457057 0.0092643887568 0.009267309649 0.0092682082004 0.0092670758236 0.0075056717806 0.0075729863425 0.0076399377285 
0.0077064912534 0.007772556907 0.0078381149803 0.007903107424 0.0079675042932 0.0080312422159 0.0080942752662 0.0081565588857 0.0082180423988 
0.0082786640443 0.0083383964026 0.0083971846585 0.008454979595 0.0085117062113 0.0085673213495 0.0086217796882 0.008675049655 0.008727038465 
0.0087776990661 0.0088269916489 0.0088748657145 0.0089212788706 0.0089661972117 0.0090095553136 0.009051327101 0.0090914649554 0.0091299263362 
0.0091666619287 0.0092016419361 0.0092348332287 0.0092661604391 0.0092956521085 0.0093232528128 0.0093489139462 0.0093726139749 0.0093943308574 
0.0094140427606 0.0094317099297 0.0094473274982 0.0094608675636 0.0094723351703 0.009481717734 0.0094889751086 0.0094941463318 0.0094971987889 
0.0094981392684 0.0094969206947 0.0076628597528 0.0077328190971 0.007802483387 0.0078716914293 0.0079404443022 0.0080086725956 0.0080763340138 
0.0081433746535 0.0082097552937 0.0082754159475 0.0083403094961 0.0084043795859 0.0084675838388 0.0085298822539 0.0085911905153 0.0086514609868 
0.0087106406143 0.008768679182 0.0088255508277 0.0088811344362 0.0089354046661 0.0089883038169 0.009039793947 0.0090898069701 0.0091383057171 
0.0091852209824 0.0092305328322 0.0092742039178 0.0093161624595 0.0093563618182 0.0093947770062 0.0094313439256 0.0094660378957 0.0094988479392 
0.0095296957655 0.009558557037 0.0095854059433 0.0096102035702 0.0096329382469 0.0096535516739 0.0096720413334 0.0096883775015 0.0097025537577 
0.0097145519109 0.0097243673558 0.0097319832561 0.0097373938808 0.0097405661042 0.0097415460707 0.0097403364407 0.0078287339749 0.0079015983164 
0.007974055352 0.0080461043425 0.0081176952168 0.0081887712288 0.0082592651375 0.0083291361996 0.0083983169137 0.0084667719271 0.0085344465556 
0.0086012824249 0.008667245323 0.0087322488099 0.0087962438489 0.0088591700666 0.008920993009 0.0089816159528 0.0090409902163 0.0090990668821 
0.0091557819166 0.0092110759763 0.0092648844571 0.0093171923755 0.0093678994782 0.0094170009248 0.0094643962721 0.0095100689032 0.0095539578115 
0.0095960108952 0.0096362116381 0.0096744922032 0.0097108369924 0.0097451764587 0.0097774757932 0.0098077072562 0.009835818766 0.0098617949 
0.0098855908122 0.0099071838126 0.0099265406441 0.0099436559172 0.0099585083118 0.0099710825334 0.0099813592134 0.0099893381956 0.00999500894 
0.0099983742394 0.0099993920101 0.0099980804677 0.0080038657277 0.0080796935231 0.0081551730355 0.0082302409101 0.0083048525898 0.0083789423482 
0.0084524337737 0.008525306267 0.0085975033158 0.0086689375315 0.0087395720416 0.0088093582527 0.0088782276253 0.0089461266374 0.0090129875573 
0.0090787678803 0.009143361991 0.0092067299812 0.0092688093264 0.0093295290433 0.0093888572395 0.0094467005765 0.0095030487839 0.0095577747321 
0.0096108564663 0.0096622270237 0.009711854014 0.0097596543774 0.0098056267948 0.009849687789 0.0098917983006 0.0099319176233 0.0099699938668 
0.010005974379 0.010039824281 0.010071517566 0.01010099672 0.01012820203 0.010153162226 0.010175796241 0.010196096242 0.01021403861 
0.010229612011 0.010242799731 0.010253593202 0.010261972677 0.010267905281 0.010271399384 0.01027245588 0.010271076408 0.0081885789672 
0.0082676041839 0.0083462826006 0.0084245634399 0.0085023778975 0.0085796668652 0.0086563779779 0.0087324566725 0.0088078144309 0.0088824309824 
0.0089562366009 0.0090291577151 0.0091011362654 0.0091721084802 0.0092420426454 0.0093108188108 0.0093783885993 0.0094446768731 0.0095096424619 
0.0095732070776 0.0096353440467 0.0096959167099 0.0097548945528 0.0098122150648 0.009867817489 0.0099216314949 0.0099736332369 0.01002375201 
0.01007194364 0.010118134208 0.010162304154 0.010204371752 0.010244299098 0.010282046577 0.010317562741 0.01035080821 0.010381724692 
0.010410283143 0.010436479429 0.010460213631 0.010481522376 0.010500353279 0.010516701616 0.010530556642 0.010541882451 0.010550655058 
0.010556876819 0.010560538852 0.010561644597 0.010560186979 0.0083833240001 0.0084657469461 0.0085478143346 0.0086295095835 0.0087107338183 
0.0087914412417 0.0088715672316 0.0089510308062 0.0090297966307 0.0091077905152 0.0091849415792 0.0092611997774 0.0093364995823 0.0094107953411 
0.0094839440931 0.0095559150025 0.009626658085 0.0096960884639 0.0097641584958 0.009830757617 0.0098958299205 0.0099593021579 0.01002111971 
0.010081182187 0.010139487838 0.010195944083 0.010250483274 0.010303063742 0.010353622455 0.01040211228 0.010448445777 0.01049259896 
0.01053452552 0.01057414293 0.010611452148 0.010646352397 0.010678819757 0.010708803747 0.010736290446 0.010761234593 0.010783607827 
0.010803403321 0.010820572882 0.010835111264 0.010846998486 0.010856209597 0.0108627446 0.010866596503 0.010867746213 0.010866210232 
0.008588462322 0.0086744938293 0.0087601816821 0.0088454990557 0.0089303562884 0.0090146936686 0.0090984266542 0.0091815198305 0.0092638942155 
0.0093454782467 0.0094262088804 0.0095060148606 0.009584867064 0.0096626199999 0.0097392438593 0.0098146473539 0.0098887680254 0.009961562817 
0.010032891127 0.010102716988 0.010170949457 0.010237517839 0.010302337262 0.010365384274 0.010426569634 0.010485811745 0.010543072511 
0.010598271963 0.010651378741 0.010702286932 0.01075097469 0.010797382389 0.010841418106 0.010883046583 0.010922223253 0.010958886508 
0.010993000683 0.011024524372 0.011053423008 0.011079660834 0.011103181881 0.011123966939 0.011142019952 0.011157297269 0.011169786542 
0.01117946549 0.011186340373 0.011190383072 0.01119159517 0.011189957034 0.0088043707266 0.0088942155117 0.0089837597793 0.0090729100346 
0.0091616197036 0.0092498081245 0.0093373888364 0.0094243269767 0.0095105337467 0.0095959408692 0.0096804734147 0.0097641025983 0.0098466784347 
0.0099281820536 0.010008511667 0.010087593473 0.010165330426 0.010241630391 0.010316456394 0.010389683262 0.010461277473 0.010531148711 
0.010599271409 0.010665476207 0.010729720608 0.010791955909 0.010852104111 0.010910140836 0.010965936485 0.011019527267 0.011070691773 
0.011119442373 0.011165694015 0.011209459018 0.011250619405 0.011289177188 0.011325069245 0.011358234865 0.011388630397 0.011416213697 
0.01144096731 0.011462840955 0.011481811863 0.011497919771 0.011511059947 0.011521275203 0.011528494369 0.011532743366 0.011533976919 
0.011532266212 0.0090312852699 0.0091252030933 0.0092188309283 0.0093120834499 0.0094048791119 0.0094971462702 0.0095888269167 0.0096798821511 
0.0097701637716 0.0098596503395 0.0099482591147 0.01003587401 0.010122390022 0.010207867938 0.010292101877 0.010375043703 0.01045660877 
0.010536785306 0.010615342597 0.010692244981 0.010767448792 0.010840852945 0.010912374284 0.010981973602 0.011049500224 0.011114909827 
0.01117816127 0.011239180249 0.011297801915 0.011354089159 0.011407911648 0.011459217411 0.011507928263 0.01155403384 0.011597399156 
0.011637988335 0.011675759188 0.011710661719 0.011742605952 0.011771720621 0.011797767986 0.011820794267 0.011840782286 0.011857683263 
0.011871444973 0.011882166888 0.011889756566 0.011894229841 0.011895574947 0.011893852157 0.0092694825059 0.0093677126775 0.0094656573661 
0.0095632873077 0.0096604112534 0.0097570328045 0.0098530852242 0.0099484421756 0.010042989047 0.010136810545 0.010229686 0.010321566981 
0.010412412707 0.010502142693 0.010590555541 0.010677616395 0.010763277232 0.010847422179 0.010929927442 0.01101085631 0.011089888262 
0.011167054585 0.01124221726 0.0113153608 0.011386274372 0.011455132173 0.011521669616 0.011585848504 0.011647598638 0.011706842727 
0.011763518589 0.011817571521 0.011868876522 0.011917389051 0.011963074359 0.012005910871 0.012045699487 0.0120825166 0.012116175374 
0.012146755537 0.012174125349 0.012198395649 0.012219391007 0.012237212877 0.012251761797 0.012263055208 0.012271060704 0.012275773945 
0.012277187976 0.012275302315 0.0095191976899 0.0096219953794 0.0097245108633 0.0098266834819 0.0099284206962 0.010029590001 0.01013021912 
0.01023017955 0.010329382165 0.010427862162 0.010525306709 0.010621727532 0.010717061444 0.010811200729 0.01090404861 0.010995519511 
0.011085555946 0.0111739847 0.011260737161 0.011345688161 0.011428806755 0.011509872843 0.011588986618 0.011665992128 0.011740742496 
0.011813198073 0.011883271127 0.011950856414 0.012015887741 0.012078293521 0.012137970522 0.012194974137 0.012249025219 0.012300202212 
0.012348331272 0.012393392111 0.012435334411 0.012474002485 0.012509565084 0.012541817079 0.012570802887 0.012596392084 0.012618588733 
0.012637371747 0.012652691603 0.01266451612 0.012672954076 0.012677997553 0.012679488455 0.012677479584 0.0097803994485 0.009888016361 
0.0099953777674 0.010102329961 0.010208946917 0.01031505541 0.010420538937 0.010525453498 0.010629567572 0.010732848275 0.01083512317 
0.010936343197 0.011036444227 0.011135442224 0.011233015428 0.011329101461 0.011423724562 0.011516697106 0.011607837517 0.011697248187 
0.011784687442 0.011870130492 0.011953398533 0.012034443969 0.012113155251 0.012189465019 0.012263251332 0.012334518836 0.012403052437 
0.012468929549 0.012531910655 0.012591919904 0.012648907019 0.01270286785 0.012753514379 0.012801046193 0.012845280784 0.012886165298 
0.012923644633 0.012957675827 0.012988199916 0.013015184231 0.013038625259 0.013058508659 0.013074793191 0.013087455665 0.013096345054 
0.013101652745 0.013103063566 0.013101040647 0.010052975841 0.010165682528 0.010278131261 0.010390313389 0.010502158669 0.010613442109 
0.010724117811 0.010834195216 0.010943429939 0.011051774279 0.011159156118 0.011265611516 0.011370772903 0.01147471589 0.011577369113 
0.011678462924 0.01177787952 0.011875694427 0.011971750989 0.012065824094 0.01215792285 0.012247860438 0.012335619027 0.012421080074 
0.012504022375 0.012584404694 0.012662263936 0.012737311679 0.012809554277 0.012878884032 0.012945268014 0.013008544788 0.013068552603 
0.013125530355 0.013179070033 0.013229197173 0.013275860538 0.013319001802 0.01335859391 0.01339450554 0.013426773078 0.013455253461 
0.013480058814 0.013500990404 0.013518100587 0.013531531407 0.013540925074 0.013546356887 0.013548002409 0.013545761511 0.01033688927 
0.010454959429 0.010572929855 0.010690550197 0.010807761369 0.010924485042 0.011040691816 0.011156154517 0.011270827171 0.011384822762 
0.01149765407 0.011609457963 0.011720035974 0.011829296815 0.01193706456 0.012043489516 0.012148205326 0.012251151863 0.01235223251 
0.012451389591 0.012548354512 0.012643073673 0.012735476602 0.012825446069 0.012912955417 0.012997692248 0.013079807732 0.013158957104 
0.013235186078 0.013308217965 0.013378182534 0.013444951005 0.013508408844 0.01356842778 0.013624943378 0.013677883784 0.013727218855 
0.013772730516 0.01381450673 0.013852418669 0.013886531654 0.013916599696 0.013942795681 0.013964989182 0.01398305148 0.013996974546 
0.01400688718 0.014012803678 0.014014526733 0.014012147135 0.01063186732 0.010755612685 0.010879206141 0.01100253247 0.011125507504 
0.011248192814 0.011370100555 0.011491385983 0.01161183598 0.011731408002 0.011850058914 0.011967547073 0.01208368146 0.012198628427 
0.012312117501 0.012424034129 0.012534317861 0.012642714314 0.012749166228 0.012853527333 0.012955808163 0.013055641121 0.013153160737 
0.013247970139 0.013340114878 0.013429452408 0.013515938016 0.013599310246 0.013679690623 0.013756867273 0.01383074407 0.013901213247 
0.01396826796 0.014031640488 0.014091347222 0.014147236943 0.014199343001 0.014247462958 0.014291669454 0.014331687117 0.014367723205 
0.014399484309 0.014427056892 0.014450303605 0.014469383863 0.014484168537 0.014494644071 0.014500889801 0.014502700559 0.014500265433 
0.010937301567 0.011067013477 0.011196723568 0.011326104113 0.0114551078 0.011583835443 0.011711827325 0.011839147311 0.011965688408 
0.01209132028 0.012215849573 0.012339349254 0.012461633265 0.012582548144 0.012702048833 0.01281996496 0.012936007327 0.013050146979 
0.013162268739 0.01327222143 0.013379889565 0.013485258299 0.013587887532 0.013687867613 0.013785066288 0.013879315148 0.013970438361 
0.014058524919 0.014143350411 0.014224860695 0.014302853623 0.014377251705 0.014448018723 0.014514942268 0.014577961792 0.014637100688 
0.01469218811 0.014743128667 0.014789734156 0.014832049068 0.014870025156 0.014903470459 0.014932605783 0.014957259011 0.014977406403 
0.014993044767 0.015004114371 0.015010506193 0.015012423727 0.015009750744 0.011252784291 0.01138883131 0.011524690843 0.011660478156 
0.011795872643 0.011930809973 0.012065202804 0.012198927418 0.012331763594 0.012463801143 0.012594816622 0.012724918165 0.012853530632 
0.012980739854 0.013106440172 0.013230423687 0.013352596551 0.013472821176 0.013590930201 0.013706883342 0.013820366472 0.013931306732 
0.014039581629 0.014145031196 0.014247442723 0.014346881547 0.0144431703 0.014536130765 0.014625742557 0.014711754998 0.014794106285 
0.014872664573 0.01494733647 0.015018023538 0.015084711565 0.015147221477 0.01520532188 0.015259068845 0.01530837052 0.015353096497 