# vtk DataFile Version 5.1
vtk output
ASCII
DATASET STRUCTURED_POINTS
DIMENSIONS 50 50 50
SPACING 0.002 0.002 0.002
ORIGIN 0.1742 -0.052672 0.02732
POINT_DATA 125000
FIELD FieldData 1
potential 1 125000 double
0.045718213808 0.045227979663 0.044727612334 0.044217631363 0.043698389165 0.043170320078 0.042633920641 0.042089677247 0.041538145045 
0.04097977455 0.040415104644 0.039844868608 0.039269656604 0.038690043656 0.038106653964 0.037520152125 0.036931067621 0.036340363147 
0.035748587262 0.035155928669 0.034563665868 0.033972213662 0.033382077127 0.032793722166 0.032208002202 0.031625187992 0.031045996338 
0.030470740163 0.029900041886 0.029334364109 0.028774135511 0.028219729461 0.027671576396 0.027130043143 0.026595483166 0.026068156104 
0.025548376096 0.025036336872 0.024532194059 0.024036078332 0.02354836154 0.023069059864 0.022598149364 0.022135798976 0.021682146925 
0.021237005031 0.020800672165 0.020373115883 0.019954240742 0.019544040061 0.044152355354 0.043685756904 0.043209686158 0.042724403522 
0.042230432648 0.041728130651 0.041218065843 0.040700554782 0.04017617438 0.039645406788 0.039108782891 0.038566807609 0.038020069839 
0.03746922935 0.036914791827 0.03635700419 0.035797257019 0.035235851996 0.034673149797 0.034109946287 0.033546787124 0.032984166425 
0.032422655637 0.031862684514 0.031305032275 0.030750093536 0.030198175732 0.029649992611 0.029105826856 0.028566189265 0.028031515142 
0.027502224769 0.026978640151 0.026461161369 0.025950047849 0.025445619445 0.024948080045 0.024457716279 0.023974566124 0.023498990267 
0.023030940635 0.022570795895 0.022118518995 0.021674187225 0.021237920355 0.020809712592 0.020389690803 0.019977832663 0.019574029841 
0.019178389638 0.042657462891 0.042212977354 0.041759542543 0.041297342559 0.040827195982 0.040349236915 0.03986387514 0.039371497361 
0.038872689971 0.038367844433 0.037857081784 0.037341675436 0.036821745226 0.036297887793 0.035770605869 0.035240316488 0.034707941721 
0.034173846686 0.033638670659 0.033102940752 0.0325669618 0.032031381081 0.031496704675 0.030963460813 0.030432108777 0.029903150699 
0.029377142315 0.028854268894 0.028335143365 0.0278201162 0.027309622109 0.026804051424 0.026303712753 0.025808942148 0.025319866367 
0.024837078638 0.024360700549 0.023890882312 0.023427713286 0.022971618482 0.022522557195 0.022080749304 0.02164625915 0.02121920499 
0.02079959228 0.020387539283 0.01998301919 0.019586102572 0.019196845717 0.018815206417 0.04122451287 0.040800990711 0.040369041697 
0.039929019473 0.03948130888 0.039025881439 0.038563744801 0.038095120023 0.037620364058 0.037139917493 0.036654225119 0.036163735961 
0.03566901811 0.035170440692 0.034668634555 0.0341641387 0.03365748093 0.033149111395 0.032639589049 0.032129457595 0.031619041496 
0.031108926427 0.030599483812 0.030091324638 0.029584917039 0.029080641494 0.028578836334 0.028079958763 0.027584472435 0.027092760679 
0.026605134729 0.026121977167 0.025643653701 0.025170438354 0.024702542715 0.024240380031 0.023784074998 0.023333713063 0.022889729587 
0.022452183139 0.022021311707 0.0215970179 0.021179460549 0.020768846116 0.020365256989 0.01996862545 0.019579087508 0.019196654128 
0.018821394366 0.018453275687 0.039846107428 0.03944248073 0.039030887994 0.038611662485 0.038185171621 0.03775172362 0.037311627855 
0.036865400453 0.036413368879 0.035955977736 0.035493468934 0.035026536421 0.034555597135 0.034081042374 0.033603295085 0.033122988495 
0.032640619827 0.032156652271 0.031671381628 0.031185401155 0.03069913818 0.030212985772 0.029727507204 0.02924316713 0.028760266001 
0.028279226561 0.027800406118 0.027324330546 0.026851220897 0.026381542685 0.025915594582 0.025453776953 0.024996386478 0.024543639387 
0.024095866294 0.023653307999 0.023216243677 0.02278457085 0.022358811255 0.021939049822 0.021525344517 0.021117848725 0.020716678348 
0.02032188436 0.019933611965 0.019551887874 0.019176755749 0.018808345751 0.018446608844 0.018091570684 0.038516994079 0.038132223668 
0.03773996644 0.037340479361 0.036934103502 0.036521088058 0.036101849873 0.035676810089 0.035246319274 0.034810711911 0.034370349821 
0.033925707346 0.033477262393 0.033025334063 0.032570449989 0.032113083585 0.031653632716 0.031192551663 0.030730255687 0.030267214869 
0.029803850595 0.029340488676 0.028877715726 0.028415754939 0.027955172183 0.027496228829 0.027039242032 0.026584691289 0.026132886745 
0.02568418636 0.025238886726 0.024797354934 0.024359955695 0.023926777591 0.023498156872 0.023074344112 0.022655490384 0.022241776579 
0.021833478338 0.021430705879 0.021033634204 0.020642294691 0.020256775122 0.019877263311 0.019503790791 0.019136407096 0.018775280489 
0.018420374768 0.018071743628 0.01772940235 0.037231846299 0.0368649897 0.036491063073 0.036110335222 0.035723111635 0.035329583567 
0.034930224129 0.034525321208 0.034115307371 0.033700398024 0.033280957939 0.032857567686 0.032430383457 0.031999820028 0.031566556392 
0.03113086154 0.030693165525 0.030253884191 0.029813372879 0.02937209962 0.028930475334 0.028488756486 0.028047475709 0.027606912622 
0.027167545682 0.026729524838 0.02629331479 0.025859350734 0.0254278067 0.024999049333 0.024573474082 0.024151344662 0.023732893273 
0.02331841329 0.022908107795 0.022502241592 0.022100847507 0.021704378322 0.021312843673 0.020926527703 0.020545384832 0.02016952771 
0.01979914626 0.019434356833 0.01907521171 0.018721738904 0.018374093444 0.0180322926 0.017696366893 0.017366331966 0.035986751989 
0.035637049024 0.035280636815 0.034917780796 0.034548721629 0.034173827089 0.033793350463 0.03340765274 0.033017088636 0.032621803621 
0.032222251751 0.031818858561 0.031411904721 0.031001784341 0.030589037911 0.030173960007 0.029756945712 0.02933836341 0.028918596895 
0.028498072258 0.028077040683 0.027655924291 0.027235104367 0.026814961528 0.026395677643 0.025977662224 0.02556128512 0.025146833165 
0.024734572279 0.024324967205 0.02391821171 0.023514573725 0.023114317339 0.022717700846 0.022324971347 0.021936277955 0.021551773639 
0.021171792324 0.020796407693 0.020425890879 0.020060062079 0.019699199632 0.019343457033 0.018992884762 0.018647505937 0.018307535449 
0.017972981788 0.017643889859 0.017320302856 0.017002255167 0.034778862123 0.034445505169 0.034105799252 0.03375999564 0.033408384582 
0.033051173091 0.03268866899 0.032321252441 0.031949063643 0.031572497117 0.031191914342 0.030807593575 0.030419880693 0.030029276153 
0.029636063838 0.029240677287 0.028843447583 0.028444566665 0.028044555861 0.027643681348 0.027242233248 0.026840683133 0.026439405311 
0.026038581867 0.02563854278 0.025239616151 0.024842144423 0.02444640272 0.024052639903 0.023661287865 0.023272484097 0.022886592088 
0.022503826224 0.022124373188 0.021748448348 0.021376222633 0.021008019127 0.020643894696 0.020284170021 0.019928675579 0.019577690735 
0.01923129623 0.018889663949 0.018552764941 0.018220848081 0.017893930538 0.017572068487 0.017255315322 0.016943726288 0.01663728261 
0.033606119771 0.033288378766 0.0329646167 0.032635079189 0.032299965123 0.031959688558 0.031614432197 0.031264376669 0.03090985613 
0.030551154098 0.030188609004 0.029822424594 0.029453274309 0.029081180357 0.02870660363 0.028329849281 0.027951308158 0.027571222538 
0.027189964395 0.026807793228 0.026425160099 0.026042340725 0.025659707994 0.025277383103 0.024895710228 0.024515023835 0.024135586597 
0.023757671318 0.023381658446 0.023007788667 0.022636287239 0.022267394285 0.021901346235 0.02153835326 0.021178608848 0.020822279063 
0.02046965056 0.020120981404 0.019776092378 0.019435211295 0.019098493212 0.018766084987 0.018438011479 0.018114495878 0.017795561384 
0.017481297907 0.017171821938 0.016867049659 0.016567119464 0.016272004714 0.032467008948 0.032164194289 0.031855683599 0.031541681059 
0.031222484464 0.030898490294 0.030569560637 0.030236112982 0.029898417389 0.029556760113 0.029211339018 0.028862670606 0.02851097437 
0.028156562393 0.027799784463 0.027440838199 0.027080128075 0.026717969398 0.026354674765 0.025990432442 0.025625691537 0.025260805617 
0.024895819158 0.024531181552 0.02416710306 0.023803872095 0.023441686814 0.023080957688 0.022721914962 0.022364793417 0.022009802572 
0.02165721243 0.021307219936 0.020960001689 0.020615822215 0.020274901384 0.019937341286 0.019603195873 0.019272718969 0.01894593866 
0.018623051869 0.018304154953 0.017989335493 0.017678705377 0.017372341783 0.017070331267 0.01677272961 0.016479596124 0.016190983074 
0.015906800837 0.03136094243 0.031072410459 0.030778499745 0.030479466031 0.030175478037 0.029866680604 0.02955343465 0.029235863659 
0.028914255121 0.028588855526 0.028259945 0.027927884802 0.027592933749 0.027255414409 0.026915460197 0.02657357533 0.02622995162 
0.025884894014 0.025538644444 0.025191587122 0.024844071737 0.02449616122 0.024148257436 0.023800452325 0.023453172248 0.023106530874 
0.022760989768 0.022416683135 0.022073881918 0.021732780539 0.021393631781 0.021056760303 0.020722141057 0.020390146825 0.020060941896 
0.019734645087 0.019411518292 0.01909156809 0.018774959693 0.018461788799 0.018152231499 0.017846307808 0.017544251248 0.017246085044 
0.016951895282 0.016661763044 0.016375620556 0.016093792304 0.01581615822 0.015542698368 0.030287858779 0.0300130054 0.029732977537 
0.029448187404 0.029158568783 0.028864485514 0.028566156241 0.028263731006 0.02795743497 0.027647547551 0.027334467764 0.027018316213 
0.026699336706 0.026377872209 0.026054186735 0.025728528112 0.025401225794 0.025072516104 0.024742581745 0.024411997955 0.024080733476 
0.023749142333 0.023417428106 0.023085811707 0.022754542896 0.022423961952 0.022094251802 0.021765751096 0.021438476762 0.021112739759 
0.020788779361 0.020466770386 0.020146981794 0.019829519829 0.019514641352 0.019202547629 0.018893232803 0.018586908386 0.018283658332 
0.017983625372 0.017686849287 0.017393595478 0.017103738791 0.016817620688 0.016535208059 0.016256575896 0.015981785883 0.015710895481 
0.015443974364 0.015180901807 0.029248229657 0.028986157259 0.028719512361 0.028448307206 0.028172551816 0.027892518564 0.027608428399 
0.027320476865 0.027028805489 0.026733800487 0.026435659044 0.026134587979 0.025830855684 0.025524735477 0.025216491709 0.024906342479 
0.024594674505 0.024281412076 0.023967309246 0.023652238362 0.023336550333 0.023020626981 0.022704414173 0.022388164947 0.022072334641 
0.021757014032 0.021442440894 0.021128861896 0.02081643904 0.020505419779 0.02019600297 0.019888448392 0.019582815161 0.019279283371 
0.018978275325 0.018679649129 0.018383572185 0.018090340616 0.017799958859 0.017512478433 0.017228183883 0.016947069931 0.016669228874 
0.016394742125 0.016123701162 0.01585618748 0.015592265721 0.015332002231 0.015075249797 0.01482246823 0.028242213837 0.027992830689 
0.027739006128 0.02748065877 0.02721807955 0.026951488117 0.026681028109 0.026406727632 0.026129167205 0.025848302714 0.025564415225 
0.025277777517 0.024988598995 0.024697088532 0.024403523731 0.024108172222 0.023811184117 0.023512948668 0.023213563706 0.022913367029 
0.022612579299 0.022311380058 0.022009831885 0.02170843629 0.02140726343 0.021106506074 0.020806415742 0.020507177676 0.020208968974 
0.019912023941 0.019616583413 0.019322739516 0.019030594899 0.018740657881 0.018452757317 0.018167152473 0.017883987911 0.017603349762 
0.017325261355 0.017050030883 0.016777662905 0.016508234677 0.016241844576 0.015978577739 0.01571850577 0.015461725568 0.015208293608 
0.014958232242 0.014711598158 0.014468518567 0.027270718799 0.027033421731 0.026791635986 0.026545661412 0.026295693396 0.026041858354 
0.025784204385 0.025523246224 0.025258953138 0.024991584636 0.024721303383 0.024448391701 0.024173028904 0.023895442708 0.02361590562 
0.023334529375 0.02305172849 0.022767643391 0.022482479543 0.022196465663 0.021909860172 0.021622685954 0.02133537578 0.021048017784 
0.020760834398 0.020474004423 0.020187697805 0.01990215396 0.019617540138 0.019334093579 0.019051909569 0.018771218035 0.01849219699 
0.018214971694 0.017939712006 0.01766659793 0.017395691021 0.017127034425 0.016860921099 0.01659736063 0.016336442052 0.016078252875 
0.015822879035 0.015570397981 0.015320901783 0.01507446555 0.014831115651 0.014590911337 0.014354002965 0.01412035762 0.026334831432 
0.026108761365 0.025878535963 0.025644328083 0.025406320158 0.025164501415 0.02491936897 0.024670884824 0.024419263873 0.024164682469 
0.023907367702 0.023647518436 0.023385271278 0.023120938988 0.022854695004 0.022586818603 0.022317441574 0.022046822471 0.021775157156 
0.021502662671 0.021229410128 0.02095581721 0.020681941181 0.020407959569 0.020134120489 0.019860514171 0.019587385929 0.019314951159 
0.019043274784 0.01877261977 0.018503141398 0.018235016018 0.01796840559 0.017703449565 0.017440282296 0.017179094394 0.016919835539 
0.016662844903 0.016408107215 0.016155724589 0.015905790093 0.015658372919 0.015413578878 0.015171473869 0.014932133596 0.014695632061 
0.014462097589 0.014231364061 0.014003781653 0.013779233687 0.025434932339 0.025219635378 0.025000413164 0.024777415326 0.024550623334 
0.024320510801 0.024087108385 0.023850457641 0.023610883813 0.023368476856 0.023123461659 0.022876019203 0.0226263137 0.022374548061 
0.022121120484 0.021865851391 0.021609251139 0.021351431476 0.021092581087 0.02083281571 0.020572489803 0.020311690851 0.020050580288 
0.019789365671 0.019528166106 0.019267158569 0.019006612244 0.018746552072 0.01848721618 0.018228788755 0.017971431755 0.017715276953 
0.017460504398 0.017207233422 0.016955661439 0.016705729318 0.016457806131 0.016211865471 0.015967984309 0.01572630342 0.015486889876 
0.015249798576 0.015015142272 0.01478297954 0.014553418215 0.01432646984 0.014102158241 0.013880663711 0.013661907606 0.013446110083 
0.024571738988 0.024366652726 0.024157735012 0.023945330069 0.023729497457 0.023510395318 0.023288073724 0.023062768545 0.022834603069 
0.022603761856 0.022370399856 0.022134705831 0.021896842451 0.021657188893 0.021415555133 0.021172442837 0.020927975078 0.020682291292 
0.020435521981 0.020188008267 0.019939859813 0.019691190522 0.019442238643 0.019193069167 0.018943965384 0.018694935488 0.01844623099 
0.01819799502 0.017950392009 0.017703698238 0.017457761422 0.017213002503 0.016969487232 0.016727385839 0.01648669496 0.016247722329 
0.016010487552 0.015775085095 0.015541614372 0.015310147868 0.015080773907 0.014853541532 0.01462857309 0.014405959979 0.014185727771 
0.01396780531 0.01375241481 0.013539709927 0.013329622881 0.013122031844 0.023745630375 0.023550175948 0.023351269701 0.023148925896 
0.022943325763 0.0227345981 0.022522834594 0.022308197266 0.022090843099 0.021870948751 0.021648648886 0.021424046818 0.021197591519 
0.020969043743 0.02073888762 0.02050721334 0.020274197407 0.020039910356 0.019804777368 0.0195687814 0.019332200464 0.019095055996 
0.018857543059 0.018619894457 0.018382131609 0.01814448269 0.017907050508 0.017670157171 0.01743368058 0.01719784285 0.016962920052 
0.016728985878 0.016496219998 0.016264586296 0.016034435519 0.015805822494 0.015578777896 0.015353416866 0.015129833243 0.014908104186 
0.014688296973 0.014470539651 0.014254842036 0.014041162769 0.013829785452 0.013620622575 0.013413894038 0.01320941664 0.013007478479 
0.0128081082 0.022956584609 0.022770436052 0.022580909241 0.022388098073 0.022192206221 0.021993289513 0.02179149914 0.021586954157 
0.021379837051 0.021170237868 0.020958492186 0.020744512337 0.020528560211 0.020310706824 0.020091309393 0.019870464599 0.019648183327 
0.019424930298 0.019200675242 0.018975633504 0.018749895092 0.018523694002 0.018297060502 0.018070184286 0.017843264323 0.017616329081 
0.017389719225 0.017163326404 0.016937321436 0.01671206487 0.016487449073 0.016263708855 0.016041133438 0.015819714078 0.01559950972 
0.01538069261 0.01516333044 0.014947514467 0.014733315784 0.014520895142 0.014310189225 0.01410126796 0.013894341708 0.013689402019 
0.0134864349 0.013285555165 0.013087030298 0.012890593851 0.01269662767 0.012504975833 0.02220458288 0.022027188481 0.021846503694 
0.021662740564 0.021475968263 0.021286327273 0.021093961621 0.020898987275 0.020701502222 0.02050182029 0.020299844842 0.020095800825 
0.019889801115 0.019682152469 0.019472792742 0.019262165756 0.019050305596 0.018837294853 0.018623355567 0.018408588366 0.018193224454 
0.017977249769 0.017760926468 0.017544303894 0.017327538049 0.017110919473 0.01689424795 0.016677924395 0.016461937225 0.016246522026 
0.016031720579 0.015817841604 0.015604935033 0.015393009939 0.015182216454 0.014972719581 0.014764609512 0.014557842738 0.014352482021 
0.014148802321 0.013946851964 0.013746437989 0.013547869297 0.013350950741 0.013156183457 0.012963343026 0.012772569493 0.012583922983 
0.012397447603 0.01221313338 0.02148915703 0.021319918588 0.021147574738 0.020972295614 0.020794233444 0.020613365948 0.020429882356 
0.020243866572 0.020055655909 0.0198650972 0.019672435715 0.019477715636 0.019281285033 0.019083059242 0.018883431313 0.018682428168 
0.018480252211 0.018276942948 0.018072753331 0.017867701618 0.017661989239 0.017455707845 0.017249048903 0.017042222084 0.016835123748 
0.016627988308 0.016420933508 0.016214046862 0.016007423567 0.015801439151 0.015596054833 0.01539140295 0.015187597589 0.014984802818 
0.014782939816 0.014582222546 0.01438263614 0.014184456495 0.013987674624 0.013792398254 0.013598497327 0.01340614197 0.013215551898 
0.01302659621 0.012839372997 0.012654138298 0.012470806546 0.012289455638 0.012110009317 0.011932678255 0.02080941834 0.020647884007 
0.020483442956 0.020316170708 0.020146177336 0.019973531843 0.019798569893 0.019621165817 0.019441417913 0.019259542762 0.019075668078 
0.018889688973 0.018702177078 0.018513078377 0.018322502904 0.018130675478 0.017937558452 0.017743446296 0.017548369219 0.017352501175 
0.017155996167 0.016958908281 0.016761523632 0.016563727353 0.016365715184 0.016167645281 0.015969518881 0.0157715547 0.015574020995 
0.015377005038 0.015180418721 0.014984480732 0.014789271602 0.01459479644 0.014401389472 0.014208987136 0.014017732993 0.013827786315 
0.013638874207 0.013451353886 0.01326527366 0.013080691207 0.01289752798 0.012715985886 0.012536102206 0.012358040478 0.012181745331 
0.012007328252 0.011834723432 0.011664011295 0.020164682172 0.02001040332 0.01985337347 0.019693586069 0.019531405034 0.019366599534 
0.019199379002 0.019029903596 0.01885828018 0.018684590676 0.018508743171 0.018331337175 0.018152316636 0.017971736235 0.017789669201 
0.017606390217 0.017421858557 0.01723631948 0.017049895064 0.016862650817 0.016674870819 0.016486414547 0.016297538706 0.016108339965 
0.015918930607 0.015729382245 0.015539786765 0.015350434241 0.015161296081 0.014972518829 0.014784156402 0.01459637998 0.014409308052 
0.014223021008 0.014037583046 0.013853087764 0.013669594198 0.013487211031 0.013305940238 0.013125944212 0.012947146502 0.0127696272 
0.012593739671 0.012419331781 0.012246457366 0.012075184782 0.011905663591 0.011737716538 0.011571521566 0.011407260067 0.019553815245 
0.019406415767 0.019256367624 0.019103871699 0.018948710725 0.018791039602 0.018631268312 0.018469342361 0.018305192961 0.018139146438 
0.01797131118 0.017801818589 0.017630608007 0.017457990281 0.017283962187 0.01710864355 0.016932206321 0.016754956177 0.016576732094 
0.016397597411 0.016217907408 0.016037585647 0.015856829243 0.015675728707 0.015494250589 0.015312697445 0.015131201073 0.014949691693 
0.01476850376 0.014587628136 0.014407166897 0.014227175825 0.014047720996 0.013868898555 0.013691092688 0.013514035013 0.013337829359 
0.013162694122 0.012988658922 0.012815647402 0.012643853049 0.012473407124 0.012304281886 0.012136515401 0.011970257021 0.011805464925 
0.011642149611 0.011480581651 0.011320448766 0.011162017065 0.018975236804 0.018834483146 0.018690996733 0.018545070943 0.018396745762 
0.018246138242 0.018093240436 0.017938397929 0.017781438949 0.017622766048 0.017462257928 0.017300139972 0.017136395685 0.01697121113 
0.016804690361 0.016636988454 0.016468303265 0.016298445972 0.016127727863 0.015956257241 0.015784097497 0.015611425187 0.015438138995 
0.015264594343 0.015090790114 0.014916923137 0.014743006396 0.01456912428 0.014395432403 0.014221901317 0.014048763588 0.013876101999 
0.013704040923 0.013532549014 0.013361733932 0.013191592325 0.013022421341 0.01285406237 0.012686794776 0.012520568685 0.012355369542 
0.012191406017 0.012028730939 0.011867307927 0.011707324186 0.011548584397 0.011391275762 0.011235443535 0.011081150228 0.010928372469 
0.018428018367 0.018293211506 0.018155909864 0.018016247613 0.01787419546 0.017730092366 0.017583954343 0.017435786026 0.017285599157 
0.017133740755 0.016980112387 0.016824849312 0.016668085516 0.016509991266 0.016350668252 0.016190063078 0.016028383913 0.015865729292 
0.015702225398 0.015537948789 0.015372764267 0.015207296155 0.015041408843 0.014875033641 0.014708396337 0.014541647739 0.014374862113 
0.01420806297 0.014041432115 0.013874942929 0.013708839642 0.013543106122 0.013377788176 0.013213033027 0.013048824834 0.012885342347 
0.012722695944 0.012560902799 0.012400038976 0.012240019519 0.012081148032 0.011923474418 0.011766808535 0.011611318775 0.011457063299 
0.011304084525 0.011152493133 0.011002207621 0.010853331116 0.010705906624 0.017910594722 0.017781508393 0.017649884229 0.017516212408 
0.017380279518 0.017242285052 0.017102287954 0.016960287473 0.016816585777 0.016671058049 0.0165238668 0.016375124801 0.016225117897 
0.016073615788 0.015920845412 0.015766954466 0.015611827943 0.015455803362 0.015298987855 0.015141502245 0.014983363376 0.014824666127 
0.014665410777 0.014505896896 0.014346107707 0.014186076746 0.014025947303 0.013865794345 0.013705854464 0.013545999523 0.013386368021 
0.01322707816 0.013068222679 0.01290965846 0.01275188724 0.01259470313 0.012438242245 0.012282558393 0.012127663932 0.011973861318 
0.011820863209 0.011668819721 0.011517856257 0.011368025628 0.011219304075 0.011071753713 0.01092544394 0.010780450072 0.010636766395 
0.010494423307 0.017421544855 0.017297810825 0.017171813663 0.017043664975 0.016913418466 0.016781139054 0.016646918844 0.016510851407 
0.016373049031 0.016233626752 0.016092535196 0.015949962415 0.015805856053 0.015660545309 0.015514027359 0.015366310752 0.01521762708 
0.015068075061 0.014917685777 0.014766583014 0.014614812203 0.014462517776 0.014309667342 0.014156487289 0.014002953358 0.013849309239 
0.013695505165 0.013541678942 0.013387859711 0.013234175671 0.013080621206 0.012927450867 0.012774554761 0.012622191078 0.012470371941 
0.012319102706 0.012168639422 0.01201864172 0.011869516352 0.011721174542 0.011573693274 0.011427164159 0.011281604374 0.011137012712 
0.010993494572 0.010851129703 0.010709878642 0.01056986191 0.010431082962 0.010293575428 0.016959562558 0.016840861611 0.016720030139 
0.01659716346 0.016472287436 0.016345343827 0.016216712157 0.016086118976 0.015953873386 0.015819988245 0.015684620578 0.015547782484 
0.015409485953 0.015270021975 0.015129345031 0.014987629512 0.014844926618 0.01470137512 0.014556995112 0.014411837957 0.014266047801 
0.01411966176 0.013972934697 0.013825729503 0.013678193028 0.013530493986 0.013382586522 0.013234548628 0.013086594388 0.012938742909 
0.012790982296 0.012643578685 0.012496634578 0.012349935276 0.012203686993 0.012057980568 0.011912784299 0.011768334611 0.01162460505 
0.011481576931 0.011339315472 0.011197902837 0.01105740482 0.010917828245 0.010779276204 0.010641761881 0.010505334498 0.010370023648 
0.010235879538 0.010102922386 0.016523147137 0.01640928764 0.016293212247 0.01617528149 0.0160552695 0.015933526759 0.015809980419 
0.015684645926 0.015557591185 0.015429055729 0.015299036586 0.015167565773 0.0150347921 0.014900823336 0.014765773782 0.014629609084 
0.014492483916 0.014354505682 0.0142157645 0.014076259221 0.013936059804 0.013795360657 0.013654242296 0.013512620073 0.013370742846 
0.013228578955 0.013086262568 0.012943847898 0.012801424808 0.012659121168 0.012516880192 0.012374916642 0.012233194722 0.012091811099 
0.011950918714 0.011810368701 0.011670432566 0.011531066713 0.011392366208 0.011254303113 0.011116973954 0.010980487619 0.010844798745 
0.010709985381 0.010576109109 0.01044319972 0.010311295702 0.010180439517 0.010050680129 0.0099220475292 0.016110914548 0.016001471844 
0.015889960085 0.015776532789 0.015661307995 0.015544285157 0.015425485354 0.015305066968 0.015183010606 0.015059496474 0.014934520862 
0.014808233769 0.014680638174 0.014551890601 0.014421990613 0.014291082291 0.014159206943 0.014026451083 0.013892888111 0.013758626739 
0.013623783295 0.013488398786 0.013352528713 0.013216224996 0.013079656192 0.012942765008 0.012805857658 0.012668584961 0.01253136677 
0.012394220364 0.012257147639 0.012120252474 0.01198361066 0.011847264327 0.011711193059 0.011575664762 0.011440612045 0.011306066162 
0.011172139679 0.011038834592 0.010906225405 0.010774314167 0.010643169832 0.010512854389 0.010383400707 0.01025484159 0.010127214213 
0.010000586159 0.009874959013 0.0097503705818 0.015721072419 0.015615869309 0.015508628884 0.015399616817 0.015288760185 0.015176207198 
0.015061973647 0.014946206525 0.014828880132 0.014710042667 0.01458980938 0.014468275807 0.014345514474 0.014221598749 0.014096589243 
0.013970569236 0.013843632118 0.013715876673 0.013587241878 0.013458000504 0.013328147189 0.013197742946 0.013066995624 0.012935715321 
0.012804100302 0.012672182806 0.012539972997 0.012407672902 0.012275403752 0.012143105167 0.012010905487 0.011878812418 0.011746941432 
0.011615258922 0.01148398178 0.011353083316 0.011222637166 0.01109269224 0.010963268309 0.010834454321 0.010706232376 0.010578664854 
0.010451822246 0.010325742087 0.010200454646 0.010076011707 0.0099524514676 0.0098297811001 0.0097080783938 0.0095872786273 0.015352203442 
0.015250859802 0.015147718206 0.015042844662 0.014936175843 0.014827839232 0.014717905245 0.01460643186 0.014493455105 0.014379040772 
0.014263302898 0.014146315366 0.014028091768 0.013908739061 0.013788326065 0.013666933289 0.013544675883 0.0134214743 0.013297757644 
0.013173209322 0.013048048654 0.012922333936 0.012796160267 0.012669576496 0.012542501261 0.012415263234 0.012287846852 0.01216025591 
0.012032571376 0.011904854072 0.01177720028 0.011649652366 0.011522217169 0.011395090296 0.01126822762 0.011141764139 0.011015676607 
0.010890017474 0.010764887943 0.010640249845 0.010516206805 0.010392758293 0.010269989992 0.010147911451 0.010026590851 0.0099060332969 
0.0097862887583 0.0096674086808 0.0095493417452 0.0094322593236 0.01500250667 0.014904984415 0.014805655675 0.014704593189 0.01460184322 
0.014497484251 0.014391594609 0.014284179337 0.01417531026 0.01406510999 0.013953579329 0.013840811083 0.013726881992 0.013612000482 
0.013495943316 0.013378943547 0.013260961359 0.013142246786 0.013022786377 0.012902635434 0.012781920976 0.012660651773 0.012538916966 
0.01241664485 0.012294147919 0.012171296592 0.01204825462 0.011925027009 0.011801684979 0.011678335186 0.011555009013 0.011431689544 
0.01130856254 0.011185684391 0.011063037424 0.01094070192 0.010818729858 0.010697166074 0.010576061936 0.010455415645 0.010335308345 
0.010215753246 0.010096842823 0.0099785567483 0.0098609659021 0.0097441023733 0.0096279807306 0.0095126241938 0.0093981513675 0.0092845430483 
0.014670337267 0.014576326117 0.01448056906 0.014383136919 0.014284102634 0.014183518217 0.014081413601 0.013977867814 0.013873061651 
0.013766762971 0.013659215627 0.013550470378 0.013440571858 0.013329640836 0.013217682783 0.013104709679 0.012990952312 0.012876391824 
0.01276108219 0.012645114708 0.012528578015 0.012411424757 0.01229389076 0.01217590318 0.012057531837 0.011938873215 0.011819975156 
0.011700884381 0.011581688046 0.011462416868 0.011343103489 0.011223935017 0.011104860319 0.010985961343 0.01086728583 0.010748891405 
0.010630815327 0.010513133296 0.01039582561 0.010278961194 0.010162605114 0.01004674019 0.0099314517158 0.0098167652711 0.0097027292786 
0.009589368636 0.0094766570869 0.0093647527796 0.0092536244921 0.0091433068234 0.0143538382 0.014263125961 0.014170929097 0.014076952839 
0.01398144769 0.013884393824 0.013785881917 0.013685950021 0.013584677384 0.013482111 0.013378321656 0.013273384345 0.013167309408 
0.013060198923 0.01295204596 0.012843053942 0.01273317402 0.012622565144 0.012511221363 0.012399140443 0.012286599057 0.012173482513 
0.012059874476 0.011945821432 0.011831437619 0.01171670594 0.011601749639 0.011486585483 0.011371295952 0.01125589213 0.011140519091 
0.01102516871 0.010909914373 0.010794804712 0.01067988536 0.01056522436 0.010450870176 0.010336843663 0.010223159922 0.010109888393 
0.0099970638177 0.0098847270131 0.0097729026773 0.0096616376773 0.0095509703157 0.009440872014 0.0093315017495 0.0092228338007 0.0091148994822 
0.0090077343356 0.014051356455 0.013963829935 0.013874678789 0.013783939815 0.013691734418 0.01359803873 0.013502940532 0.013406468222 
0.013308692836 0.013209676239 0.013109439189 0.013008070776 0.01290561149 0.012802086956 0.012697643286 0.012592336754 0.012486226178 
0.012379248789 0.01227167991 0.012163465403 0.012054641465 0.011945278112 0.011835409194 0.011725131798 0.011614453405 0.011503493302 
0.011392274394 0.011280872294 0.011169235831 0.011057572539 0.010945867776 0.010834177318 0.010722558155 0.010611053572 0.010499727256 
0.010388634841 0.010277778826 0.010167220226 0.010056992325 0.0099471422834 0.0098376932217 0.0097286853679 0.0096201639329 0.009512157607 
0.0094046486278 0.0092977862458 0.0091915491129 0.0090859712728 0.0089810660242 0.0088768873432 0.013760763246 0.013676235396 0.013590124443 
0.013502527696 0.013413450306 0.013322933904 0.013231063548 0.013137894252 0.013043427568 0.01294773072 0.012850882508 0.012752882816 
0.012653850392 0.012553856215 0.012452951746 0.012351100227 0.012248517889 0.012145153003 0.012041125587 0.01193643841 0.011831173853 
0.011725360352 0.011619087063 0.011512387339 0.011405313765 0.011297941231 0.011190270721 0.011082337513 0.010974296524 0.010866157694 