# vtk DataFile Version 5.1
vtk output
ASCII
DATASET STRUCTURED_POINTS
DIMENSIONS 50 50 50
SPACING 0.002 0.002 0.002
ORIGIN 0.1742 -0.052672 0.02732
POINT_DATA 125000
FIELD FieldData 1
potential 1 125000 double
0.00041003724795 0.00040847223742 0.00040691881874 0.00040537684429 0.00040384529789 0.0004023244342 0.0004008136236 0.00039931270687 0.00039782138018 
0.00039633933947 0.00039486645255 0.00039340268711 0.000391948377 0.0003905025526 0.00038906563399 0.00038763785259 0.00038621789309 0.00038480686052 
0.0003834043707 0.00038201021905 0.00038062420231 0.0003792458564 0.00037787513892 0.00037651166559 0.00037515597935 0.00037380804673 0.00037246782913 
0.00037113580813 0.0003698117375 0.0003684960405 0.00036718876303 0.00036589036353 0.00036460061457 0.00036331962746 0.00036204737892 0.00036078422205 
0.00035953000424 0.00035828451103 0.00035704795754 0.00035581931535 0.00035460006032 0.00035338943337 0.00035218762799 0.00035099451465 0.00034981007404 
0.00034863426469 0.00034746695737 0.00034630813425 0.00034515731335 0.00034401459611 0.00041001332258 0.00040845088326 0.00040689982063 0.00040535941686 
0.00040383046699 0.00040231180874 0.00040080285594 0.0003993040393 0.00039781476607 0.00039633495586 0.00039486420758 0.0003934028631 0.00039195078141 
0.00039050733317 0.00038907276558 0.0003876474496 0.00038623032847 0.00038482193105 0.00038342194628 0.00038203025566 0.00038064679073 0.00037927117509 
0.00037790326058 0.00037654261005 0.00037518983026 0.00037384484326 0.00037250768167 0.00037117840401 0.00036985742484 0.0003685446901 0.00036724042696 
0.00036594495762 0.00036465804652 0.00036337983156 0.00036211052864 0.0003608499799 0.00035959835537 0.00035835532612 0.00035712091964 0.0003558947515 
0.00035467750239 0.00035346893954 0.00035226909064 0.0003510776532 0.0003498950307 0.00034872085401 0.00034755523936 0.0003463980563 0.00034524881832 
0.00034410763407 0.00040980851962 0.00040824853716 0.00040670013468 0.0004051631851 0.00040363711348 0.00040212122284 0.00040061534234 0.00039911929472 
0.00039763302849 0.00039615593549 0.00039468857022 0.00039323007349 0.00039178093798 0.00039034042718 0.00038890882768 0.00038748597596 0.00038607237065 
0.00038466737279 0.00038327070078 0.00038188237834 0.00038050212515 0.00037912976157 0.00037776498573 0.00037640782234 0.00037505867098 0.00037371714777 
0.00037238341438 0.00037105761221 0.00036974019183 0.00036843079667 0.00036713002331 0.00036583793427 0.00036455438957 0.00036327948678 0.00036201312216 
0.00036075583794 0.0003595072685 0.00035826713381 0.00035703533792 0.00035581215657 0.00035459753471 0.00035339146509 0.00035219398674 0.00035100511202 
0.00034982464644 0.00034865276574 0.00034748911946 0.0003463338773 0.00034518674249 0.0003440475172 0.00040940063069 0.0004078445782 0.00040630023733 
0.00040476703817 0.00040324455766 0.00040173265985 0.00040023040451 0.00039873785872 0.00039725525303 0.00039578193072 0.00039431799168 0.0003928630119 
0.00039141778914 0.00038998120343 0.00038855344614 0.0003871345344 0.00038572473686 0.00038432349814 0.00038293065318 0.00038154622889 0.00038016994348 
0.00037880169018 0.00037744092976 0.00037608788634 0.00037474283265 0.00037340535065 0.00037207568295 0.00037075385054 0.00036944033873 0.00036813501083 
0.0003668382378 0.00036554998332 0.00036427040428 0.0003629994283 0.00036173679266 0.00036048310988 0.00035923803342 0.00035800123096 0.00035677247737 
0.00035555304529 0.00035434172691 0.00035313886644 0.00035194411932 0.0003507581768 0.00034958062866 0.00034841133314 0.00034725043531 0.00034609785393 
0.0003449532978 0.00034381662807 0.00040877454118 0.00040722354513 0.00040568400031 0.00040415532752 0.0004026374047 0.0004011298914 0.00039963230199 
0.00039814456385 0.00039666666349 0.00039519768043 0.00039373828185 0.00039228793884 0.00039084729175 0.00038941476391 0.00038799166271 0.00038657734509 
0.00038517211966 0.0003837755057 0.00038238728136 0.00038100758994 0.00037963599895 0.00037827237748 0.000376916255 0.00037556786141 0.0003742276913 
0.00037289492036 0.00037156988328 0.00037025307551 0.00036894409321 0.00036764356393 0.00036635122591 0.00036506744984 0.00036379231438 0.00036252547456 
0.00036126737738 0.00036001794474 0.000358776938 0.00035754425846 0.00035631945141 0.00035510382725 0.0003538963413 0.00035269699109 0.00035150607369 
0.00035032359582 0.00034914935433 0.00034798345233 0.00034682581076 0.0003456764537 0.00034453522308 0.00034340168255 0.00040792037196 0.00040637503477 
0.0004048415464 0.00040331816895 0.00040180573189 0.00040030367546 0.00039881169406 0.00039732933543 0.00039585688243 0.00039439333646 0.00039293909151 
0.00039149418118 0.00039005884756 0.00038863193392 0.00038721380523 0.00038580517676 0.00038440547232 0.00038301441 0.00038163163838 0.00038025727091 
0.00037889120086 0.00037753290395 0.00037618206702 0.00037483907182 0.00037350413376 0.00037217678528 0.00037085707324 0.00036954555137 0.00036824196736 
0.0003669466697 0.00036565954855 0.00036438087826 0.00036311090087 0.00036184929926 0.00036059608644 0.00035935153683 0.00035811542553 0.00035688723101 
0.00035566713703 0.00035445590468 0.00035325285954 0.00035205788241 0.0003508709678 0.00034969261976 0.00034852249906 0.00034736056198 0.00034620694529 
0.00034506149556 0.00034392411721 0.00034279449024 0.00040683466422 0.00040529606543 0.00040376876643 0.00040225224961 0.00040074627686 0.0003992506228 
0.00039776467235 0.0003962888039 0.00039482255252 0.00039336537811 0.00039191710938 0.00039047852146 0.00038904915776 0.00038762872175 0.00038621689179 
0.00038481436872 0.00038342076569 0.00038203605708 0.0003806594623 0.00037929130069 0.00037793131413 0.00037657912389 0.00037523466711 0.00037389780972 
0.00037256914619 0.00037124791916 0.00036993419947 0.0003686288011 0.00036733100735 0.00036604146112 0.00036476038795 0.00036348761479 0.00036222320728 
0.00036096730062 0.00035971965382 0.00035848050628 0.00035724958946 0.00035602661485 0.00035481207176 0.00035360610567 0.00035240815362 0.00035121805642 
0.00035003618601 0.00034886274419 0.0003476973854 0.00034654015418 0.00034539113055 0.00034425026099 0.00034311738612 0.00034199239104 0.00040551988822 
0.00040398871699 0.0004024685968 0.00040095951572 0.00039946080234 0.00039797243419 0.00039649398323 0.00039502512512 0.00039356604035 0.00039211610006 
0.00039067523888 0.00038924332007 0.00038782106123 0.00038640733196 0.00038500281106 0.00038360732862 0.000382220765 0.00038084278495 0.00037947309131 
0.00037811200412 0.00037675883347 0.00037541366514 0.00037407610486 0.00037274620823 0.00037142420465 0.00037010964771 0.0003688027864 0.00036750387446 
0.0003662127623 0.00036492987879 0.00036365526166 0.00036238873559 0.00036113067617 0.00035988105331 0.0003586396069 0.00035740666622 0.0003561817018 
0.00035496460807 0.00035375625115 0.00035255614854 0.00035136382485 0.00035017946312 0.00034900312857 0.00034783515424 0.00034667512118 0.00034552328039 
0.00034437963341 0.00034324398477 0.00034211643013 0.00034099654407 0.00040398454599 0.00040246159316 0.00040094969325 0.00039944880774 0.00039795825616 
0.0003964780502 0.00039500773441 0.00039354712547 0.00039209586066 0.00039065382723 0.00038922072757 0.00038779695309 0.00038638248815 0.00038497655019 
0.000383579755 0.0003821920745 0.00038081314061 0.00037944275278 0.00037808082737 0.00037672719289 0.00037538172642 0.00037404414295 0.00037271428049 
0.00037139178677 0.00037007712714 0.00036876995308 0.00036747070396 0.00036617900298 0.00036489514111 0.00036361940744 0.00036235184423 0.00036109238699 
0.00035984134293 0.00035859849775 0.00035736404056 0.00035613772183 0.00035491920882 0.0003537092954 0.00035250746433 0.00035131358172 0.00035012738315 
0.00034894932217 0.00034777942056 0.0003466175079 0.00034546356453 0.00034431784045 0.00034318018442 0.00034205058265 0.00034092866037 0.00033981435575 
0.00040224286257 0.00040072899539 0.00039922622861 0.00039773429002 0.00039625290385 0.00039478163031 0.00039332030177 0.00039186844627 0.00039042587554 
0.00038899242189 0.00038756807746 0.00038615310555 0.00038474688657 0.00038334932652 0.00038196119385 0.00038058182405 0.00037921111593 0.00037784916727 
0.00037649558688 0.0003751502819 0.00037381290424 0.00037248372669 0.00037116218469 0.00036984788522 0.00036854108607 0.00036724211358 0.00036595080915 
0.00036466699592 0.00036339106681 0.00036212307137 0.00036086316786 0.00035961142214 0.00035836782545 0.00035713246519 0.00035590537713 0.00035468641472 
0.00035347534763 0.000352272699 0.00035107789782 0.0003498909144 0.00034871183164 0.00034754063142 0.00034637747336 0.00034522230156 0.00034407509229 
0.00034293613027 0.00034180517583 0.00034068182068 0.00033956641866 0.00033845834242 0.00040031513124 0.00039881101889 0.00039731786375 0.00039583576791 
0.00039436401154 0.00039290218535 0.00039145034517 0.00039000804248 0.00038857492599 0.00038715062846 0.00038573558674 0.00038433002075 0.00038293295975 
0.00038154484135 0.00038016566088 0.0003787953625 0.00037743358331 0.00037608053315 0.00037473592524 0.00037339943444 0.00037207103543 0.00037075057605 
0.00036943752792 0.00036813222858 0.00036683439181 0.00036554388834 0.00036426087409 0.00036298575442 0.00036171821133 0.00036045852671 0.00035920680749 
0.0003579633567 0.00035672776247 0.00035550044311 0.00035428104394 0.00035306984056 0.00035186700489 0.00035067191764 0.00034948492567 0.0003483053811 
0.0003471338513 0.00034597027065 0.00034481453759 0.0003436666613 0.00034252675921 0.00034139502997 0.00034027098191 0.00033915464502 0.00033804609688 
0.00033694502113 0.00039822572616 0.00039673195375 0.00039524919799 0.0003937771484 0.00039231562727 0.00039086420737 0.00038942228358 0.0003879901396 
0.00038656682263 0.0003851526227 0.00038374751555 0.00038235186172 0.00038096443161 0.00037958621207 0.00037821675846 0.0003768560179 0.00037550374253 
0.00037416004763 0.00037282487785 0.00037149769169 0.00037017875839 0.00036886759007 0.00036756385627 0.00036626763569 0.00036497881925 0.00036369748569 
0.00036242361851 0.00036115731593 0.00035989881181 0.00035864797474 0.00035740493531 0.00035617000459 0.00035494306811 0.00035372415156 0.00035251338922 
0.00035131038861 0.00035011574916 0.0003489289129 0.00034774998717 0.00034657864507 0.00034541511363 0.0003442594089 0.00034311154363 0.00034197153072 
0.00034083958644 0.00033971536104 0.00033859882952 0.00033749003434 0.00033638874922 0.0003352951587 0.00039600327125 0.00039452023507 0.00039304837342 
0.00039158734804 0.00039013636646 0.00038869555007 0.00038726441207 0.00038584233891 0.00038442955848 0.00038302586296 0.00038163116157 0.00038024552486 
0.00037886862111 0.00037750061883 0.00037614130535 0.00037479052188 0.00037344836982 0.0003721144501 0.00037078898229 0.00036947174774 0.00036816254106 
0.00036686108583 0.00036556682465 0.00036428038296 0.00036300128199 0.00036172930541 0.00036046487889 0.00035920796808 0.0003579586288 0.0003567171045 
0.00035548334883 0.00035425738787 0.00035303925916 0.00035182921864 0.0003506272272 0.0003494328731 0.00034824692292 0.0003470687154 0.00034589825499 
0.00034473527009 0.00034358015805 0.00034243290653 0.0003412933504 0.00034016170537 0.00033903786855 0.00033792179615 0.00033681341243 0.0003357124568 
0.0003346191105 0.00033353323499 0.0003936798944 0.00039220820826 0.00039074739234 0.00038929744567 0.00038785748647 0.00038642766372 0.00038500742413 
0.00038359623333 0.00038219420899 0.00038080116751 0.00037941736095 0.00037804242299 0.00037667593706 0.00037531846672 0.00037396982169 0.00037262917582 
0.00037129725032 0.00036997341864 0.00036865829196 0.0003673510309 0.00036605180597 0.00036476024328 0.000363476231 0.00036219938026 0.00036093007963 
0.00035966811358 0.00035841349568 0.00035716635293 0.00035592666298 0.00035469460946 0.00035347023594 0.00035225374433 0.0003510447756 0.00034984376114 
0.00034865063246 0.00034746556402 0.00034628851495 0.00034511916726 0.00034395750615 0.00034280335379 0.00034165696665 0.00034051838963 0.00033938782091 
0.00033826462089 0.00033714925877 0.00033604171705 0.00033494179965 0.00033384919429 0.00033276386154 0.00033168618791 0.0003912894956 0.00038982934384 
0.00038837994745 0.0003869410102 0.00038551251902 0.00038409392812 0.0003826845773 0.00038128436166 0.00037989370139 0.0003785116258 0.00037713827847 
0.00037577439805 0.00037441884214 0.00037307173776 0.00037173360642 0.00037040395779 0.0003690822385 0.00036776916958 0.00036646425716 0.00036516730061 
0.00036387839161 0.00036259726612 0.00036132281425 0.00036005631394 0.00035879706064 0.00035754499949 0.00035630028938 0.00035506323399 0.00035383324054 
0.00035261084806 0.00035139625508 0.00035018917534 0.00034898968312 0.00034779810221 0.00034661410754 0.00034543823179 0.00034427032546 0.00034311020509 
0.00034195748838 0.0003408125795 0.00033967525689 0.00033854563137 0.00033742391501 0.00033630972074 0.00033520300871 0.00033410427007 0.00033301286595 
0.00033192899232 0.00033085220111 0.00032978271036 0.0003888669684 0.00038741871029 0.00038598083488 0.0003845531118 0.00038313614885 0.00038172865049 
0.00038033044013 0.00037894155039 0.00037756188105 0.00037619111109 0.00037482853839 0.00037347553847 0.00037213059318 0.00037079432333 0.00036946693461 
0.00036814782068 0.00036683673744 0.00036553429991 0.00036423972624 0.00036295307948 0.00036167462637 0.00036040361746 0.00035913970112 0.00035788318565 
0.00035663426227 0.00035539226216 0.00035415744159 0.00035293020199 0.00035171036534 0.00035049781363 0.00034929274795 0.0003480952711 0.00034690562751 
0.00034572312757 0.00034454859197 0.0003433821568 0.00034222352953 0.00034107263122 0.00033992914812 0.00033879341582 0.00033766530199 0.00033654501787 
0.00033543224432 0.0003343270061 0.00033322933092 0.00033213935963 0.0003310568154 0.00032998138639 0.00032891360467 0.00032785261553 0.00038644784748 
0.00038501099277 0.00038358458267 0.00038216841496 0.00038076232919 0.00037936605913 0.00037797929034 0.00037660132199 0.00037523264092 0.00037387271788 
0.00037252151321 0.00037117897391 0.0003698448994 0.00036851935276 0.00036720251542 0.00036589398407 0.00036459368481 0.0003633013479 0.0003620172169 
0.00036074101482 0.00035947273662 0.00035821216472 0.00035695846171 0.00035571213042 0.00035447324051 0.00035324127444 0.00035201660295 0.00035079934995 
0.00034958908444 0.0003483863672 0.0003471910987 0.00034600317347 0.00034482310726 0.00034365012625 0.0003424851151 0.00034132798059 0.00034017865692 
0.00033903694163 0.00033790280071 0.00033677624698 0.00033565759531 0.000334546408 0.00033344275976 0.00033234661171 0.00033125788886 0.00033017711454 
0.00032910337342 0.00032803681078 0.00032697762888 0.00032592535183 0.0003840654439 0.00038263976845 0.00038122474365 0.00037981943834 0.00037842460411 
0.00037703933446 0.00037566350923 0.0003742966225 0.0003729387932 0.00037158927428 0.00037024892643 0.00036891712399 0.00036759366225 0.0003662786287 
0.00036497226506 0.00036367409723 0.00036238410051 0.00036110222108 0.00035982824011 0.00035856219927 0.00035730416744 0.00035605361627 0.00035480982999 
0.00035357375306 0.00035234487213 0.00035112280661 0.0003499080769 0.00034870037968 0.00034749985949 0.00034630691676 0.00034512123249 0.00034394285639 
0.00034277183363 0.0003416086872 0.00034045305626 0.00033930516741 0.00033816521386 0.00033703276685 0.0003359078181 0.00033479071866 0.00033368118186 
0.00033257883034 0.00033148444979 0.00033039741383 0.00032931794337 0.00032824586789 0.00032718115191 0.00032612335113 0.00032507295251 0.00032402927138 
0.00038175104688 0.00038033632714 0.00037893192475 0.00037753747967 0.00037615354244 0.00037477915959 0.00037341374913 0.00037205753591 0.00037071024538 
0.00036937131236 0.0003680412197 0.00036671972983 0.00036540658488 0.00036410201006 0.00036280551756 0.00036151748017 0.00036023762195 0.00035896579917 
0.00035770165484 0.00035644562512 0.00035519759037 0.00035395628321 0.0003527227981 0.00035149630849 0.0003502773666 0.00034906503724 0.00034785997896 
0.00034666194099 0.00034547100788 0.0003442875812 0.00034311129177 0.00034194230021 0.00034078044127 0.00033962651447 0.0003384800322 0.00033734134759 
0.00033621069593 0.00033508723349 0.00033397165842 0.0003328635113 0.00033176299042 0.00033066962574 0.0003295842225 0.00032850644312 0.00032743591815 
0.00032637252581 0.00032531671734 0.0003242679107 0.00032322587902 0.0003221909031 0.00037953230313 0.0003781283188 0.00037673431849 0.00037535030672 
0.00037397696853 0.00037261267695 0.00037125753942 0.00036991138851 0.00036857385891 0.00036724532474 0.00036592541243 0.0003646137087 0.00036331058672 
0.00036201576918 0.00036072921077 0.00035945073882 0.00035818040424 0.00035691833621 0.00035566392717 0.00035441714954 0.00035317866619 0.00035194710983 
0.00035072284917 0.00034950621236 0.00034829635935 0.00034709369352 0.00034589773379 0.00034470940653 0.0003435277311 0.00034235335517 0.00034118607206 
0.00034002587943 0.00033887361163 0.00033772855732 0.00033659088513 0.00033546137874 0.00033433950521 0.0003332251323 0.00033211831145 0.00033101912571 
0.00032992733388 0.00032884305153 0.00032776656098 0.00032669772096 0.00032563591444 0.00032458134284 0.00032353408429 0.00032249384703 0.00032146043663 
0.00032043379443 0.0003774339925 0.00037603989799 0.0003746559332 0.00037328185781 0.00037191827059 0.00037056367942 0.00036921818795 0.00036788180477 
0.00036655385847 0.00036523482168 0.0003639244581 0.00036262240428 0.00036132870998 0.00036004307213 0.00035876567613 0.00035749656988 0.00035623549132 
0.00035498250111 0.00035373739584 0.00035249988658 0.00035127018952 0.00035004776039 0.00034883271349 0.00034762469637 0.00034642400365 0.00034523026779 
0.00034404352256 0.00034286388299 0.00034169138477 0.00034052607986 0.00033936749614 0.00033821589421 0.00033707230934 0.00033593613583 0.00033480727165 
0.00033368635779 0.0003325730751 0.0003314671815 0.000330369163 0.00032927854664 0.00032819545022 0.00032712018155 0.00032605225129 0.00032499182132 
0.00032393860348 0.00032289268038 0.00032185404507 0.00032082207823 0.00031979707528 0.00031877873288 0.00037547582419 0.00037409129094 0.00037271679613 
0.00037135224505 0.00036999756673 0.000368651965 0.00036731545319 0.00036598807856 0.00036466947062 0.00036335938802 0.00036205805477 0.00036076480537 
0.00035947984963 0.00035820307407 0.0003569343114 0.00035567417424 0.00035442175964 0.00035317718046 0.00035194064694 0.00035071173608 0.0003494907187 
0.00034827665587 0.0003470701982 0.00034587079354 0.00034467853872 0.00034349360831 0.00034231536409 0.00034114436448 0.00033998051562 0.00033882335005 
0.00033767293097 0.00033653024025 0.0003353950926 0.00033426703127 0.0003331463919 0.00033203413919 0.00033092891078 0.00032983137456 0.00032874176743 
0.00032765977552 0.0003265851222 0.000325518211 0.0003244584953 0.00032340649504 0.00032236177393 0.00032132409439 0.00032029361401 0.00031927003165 
0.0003182531163 0.00031724262498 0.00037367422737 0.00037229855842 0.00037093260005 0.00036957656083 0.00036823046764 0.0003668935467 0.00036556556732 
0.00036424629542 0.00036293617987 0.00036163469683 0.00036034144611 0.00035905631894 0.00035777963855 0.00035651118329 0.00035525089547 0.00035399848359 
0.00035275417192 0.00035151766615 0.0003502891867 0.00034906832317 0.0003478550497 0.00034664884564 0.00034545049051 0.00034425932015 0.00034307522324 
0.00034189816737 0.00034072791996 0.00033956497574 0.00033840905049 0.00033725999139 0.0003361178127 0.00033498321814 0.00033385576173 0.00033273586204 
0.00033162347959 0.0003305186497 0.00032942166367 0.00032833213274 0.00032725049488 0.00032617635121 0.00032510997288 0.00032405097099 0.00032299948805 
0.00032195557563 0.00032091882221 0.00031988928964 0.00031886672274 0.00031785092734 0.00031684178124 0.0003158390095 0.00037204168549 0.00037067376368 
0.00036931590778 0.00036796760955 0.00036662911057 0.00036530006036 0.0003639798454 0.000362668716 0.00036136617388 0.00036007215532 0.00035878653438 
0.00035750896362 0.00035623996484 0.00035497926354 0.00035372644101 0.00035248164923 0.00035124448252 0.00035001546322 0.00034879411408 0.00034758069623 
0.00034637478994 0.00034517583772 0.00034398502394 0.00034280162343 0.0003416247428 0.00034045519832 0.00033929262579 0.00033813713444 0.00033698871426 
0.00033584692394 0.00033471275302 0.00033358558323 0.00033246579227 0.00033135368309 0.00033024868607 0.00032915152701 0.00032806178236 0.00032697985506 
0.00032590594259 0.00032483954864 0.00032378058349 0.00032272940828 0.0003216858074 0.00032064948121 0.00031962059919 0.00031859893235 0.00031758391435 
0.00031657573188 0.0003155738215 0.00031457813736 0.00037058665555 0.00036922598533 0.00036787521476 0.00036653391341 0.00036520270828 0.00036388082631 
0.0003625672754 0.00036126316056 0.0003599677716 0.00035868096814 0.00035740179906 0.00035613142969 0.00035486938858 0.00035361562235 0.00035236961774 
0.00035113160138 0.00034990124501 0.00034867882585 0.00034746413126 0.00034625711198 0.00034505810612 0.00034386634615 0.00034268209203 0.00034150535327 
0.00034033576363 0.00033917287768 0.00033801730706 0.00033686897196 0.000335727571 0.00033459294045 0.00033346610955 0.00033234593846 0.00033123348228 
0.00033012807561 0.0003290300383 0.00032793991867 0.00032685767107 0.00032578267005 0.0003247159334 0.00032365680978 0.00032260542889 0.00032156128886 
0.00032052523295 0.00031949654391 0.00031847512779 0.00031746061166 0.00031645322024 0.00031545180081 0.00031445682238 0.00031346791969 0.00036931520476 
0.00036796095418 0.00036661649197 0.00036528188603 0.00036395682021 0.00036264101188 0.00036133413703 0.0003600363667 0.00035874685403 0.0003574661573 
0.00035619377681 0.00035492991666 0.00035367381942 0.00035242606209 0.00035118616502 0.00034995415351 0.00034873004574 0.0003475135357 0.00034630496563 
0.00034510402725 0.00034391098758 0.00034272545376 0.00034154760902 0.00034037686103 0.00033921343861 0.00033805719899 0.00033690828063 0.00033576635658 
0.00033463126629 0.00033350350123 0.00033238307115 0.00033126964655 0.00033016339169 0.00032906449692 0.00032797348598 0.00032688988769 0.00032581420112 
0.00032474613939 0.0003236862399 0.00032263370565 0.00032158930502 0.00032055260502 0.00031952352139 0.00031850175145 0.00031748764286 0.00031648017723 
0.00031547909835 0.00031448441816 0.00031349594241 0.00031251342196 0.00036823072718 0.00036688262201 0.00036554373109 0.0003642147817 0.00036289496782 
0.00036158485642 0.00036028347523 0.00035899126942 0.00035770763725 0.0003564323853 0.00035516546076 0.00035390703037 0.00035265663772 0.00035141426457 
0.00035017960905 0.0003489529574 0.00034773461597 0.00034652356395 0.00034532028583 0.00034412490844 0.00034293712726 0.00034175716189 0.00034058465639 
0.00033941971126 0.00033826214082 0.00033711164406 0.00033596858281 0.00033483252809 0.00033370345765 0.00033258200227 0.00033146717479 0.00033035988595 
0.00032925990359 0.00032816723361 0.00032708208955 0.00032600478299 0.00032493534694 0.00032387345843 0.00032281991073 0.00032177412451 0.00032073622377 
0.00031970594248 0.00031868359539 0.00031766865638 0.0003166608172 0.00031565952055 0.00031466500623 0.00031367686328 0.00031269449762 0.00031171798069 
0.00036733508685 0.0003659919857 0.00036465797288 0.0003633337345 0.00036201891194 0.00036071361954 0.0003594172677 0.00035812993918 0.00035685120673 
0.00035558091096 0.00035431875807 0.00035306470215 0.0003518189353 0.0003505815663 0.00034935195571 0.00034813015139 0.00034691624877 0.00034571015687 
0.00034451183682 0.00034332122353 0.00034213820716 0.00034096304787 0.00033979585609 0.00033863589005 0.00033748326205 0.00033633787895 0.00033520001583 
0.00033406889951 0.00033294593142 0.00033182956306 0.00033072045712 0.00032961875166 0.00032852445965 0.00032743722917 0.00032635791426 0.00032528608075 
0.00032422233283 0.00032316650646 0.00032211897992 0.00032107921041 0.00032004746339 0.00031902315251 0.00031800692938 0.00031699799359 0.00031599614384 
0.00031500100657 0.00031401256152 0.0003130299752 0.00031205334921 0.00031108224385 0.0003666270771 0.0003652880793 0.00036395850231 0.00036263851078 
0.00036132794108 0.00036002701303 0.00035873457713 0.00035745134268 0.00035617712187 0.00035491073308 0.00035365257146 0.00035240277437 0.0003511611995 
0.00034992790339 0.00034870245219 0.0003474848577 0.00034627550829 0.00034507336737 0.00034387901021 0.00034269272022 0.00034151417199 0.00034034336824 
0.00033918026659 0.00033802489982 0.0003368767275 0.00033573587725 0.00033460263432 0.00033347645166 0.00033235811249 0.00033124694717 0.00033014272336 
0.00032904578499 0.00032795647863 0.00032687448908 0.0003258004056 0.00032473390355 0.00032367554319 0.00032262505439 0.00032158307147 0.00032054883767 
0.00031952273554 0.0003185041854 0.00031749333956 0.00031648987485 0.00031549362213 0.00031450396764 0.00031352050075 0.00031254353675 0.00031157202473 
0.00031060607586 0.00036610394461 0.00036476855137 0.0003634429289 0.00036212656575 0.00036081967967 0.00035952218296 0.00035823347919 0.00035695370709 
0.00035568286024 0.00035441999576 0.00035316533647 0.00035191917559 0.00035068104981 0.00034945116121 0.00034822908818 0.00034701496369 0.00034580877423 
0.00034461063557 0.00034342018039 0.00034223739536 0.00034106276613 0.00033989569847 0.00033873653266 0.00033758496105 0.00033644075485 0.00033530380755 
0.00033417453615 0.00033305287354 0.00033193839542 0.00033083141116 0.00032973163589 0.00032863927316 0.00032755448156 0.00032647730491 0.00032540801913 
0.00032434648305 0.00032329292388 0.00032224749015 0.00032121036721 0.00032018138817 0.00031916017663 0.000318146768 0.00031714106964 0.00031614241765 
0.00031515088845 0.00031416610474 0.00031318756232 0.00031221508806 0.00031124835795 0.00031028712014 0.00036576105824 0.00036442884581 0.00036310594914 
0.0003617929154 0.00036048912332 0.00035919464277 0.00035790923515 0.00035663258596 0.00035536415844 0.00035410408525 0.00035285248693 0.00035160907279 
0.00035037379947 0.00034914676119 0.00034792762126 0.00034671639107 0.00034551330642 0.00034431813699 0.00034313091197 0.00034195139672 0.00034077983985 
0.00033961617556 0.00033846038909 0.0003373121636 0.00033617133412 0.00033503853742 0.00033391206762 0.0003327938727 0.00033168312635 0.00033057980301 
0.0003294840675 0.00032839585529 0.00032731482371 0.00032624174382 0.00032517656897 0.00032411947451 0.00032307054238 0.0003220298404 0.00032099746595 
0.0003199728677 0.00031895600843 0.00031794705723 0.00031694559027 0.00031595155986 0.00031496439795 0.00031398393561 0.00031300958926 0.00031204112918 
0.00031107853864 0.00031012116581 0.00036559128956 0.00036426182797 0.00036294170676 0.00036163086456 0.00036032938779 0.00035903759551 0.00035775426585 
0.00035647996214 0.00035521393343 0.00035395633901 0.00035270691554 0.00035146579554 0.0003502329763 0.00034900827847 0.00034779162315 0.00034658281441 
0.0003453821583 0.00034418956625 0.00034300484991 0.00034182800156 0.00034065919045 0.00033949804609 0.00033834522346 0.0003372000494 0.00033606263249 
0.00033493185155 0.0003338090351 0.00033269395878 0.00033158643703 0.0003304862981 0.00032939366284 0.00032830892376 0.00032723161532 0.00032616213333 
0.00032510093151 0.00032404763278 0.00032300261883 0.00032196565377 0.00032093722129 0.00031991660759 0.00031890371124 0.00031789891744 0.00031690155359 
0.00031591133705 0.00031492817997 0.0003139511979 0.00031298046241 0.00031201557421 0.00031105637638 0.00031010237947 0.00036558443776 0.00036425660509 
0.00036293845499 0.00036162953102 0.00036033037602 0.00035904010903 0.00035775861899 0.00035648633701 0.00035522231046 0.00035396664792 0.00035271919662 
0.00035148004127 0.00035024915008 0.00034902662802 0.00034781201201 0.00034660538006 0.00034540683537 0.00034421609596 0.00034303331761 0.00034185863782 
0.00034069203365 0.00033953355164 0.00033838278439 0.00033723993334 0.000336104499 0.00033497655941 0.00033385633599 0.00033274374448 0.00033163901248 
0.0003305419276 0.00032945217829 0.00032837029873 0.00032729624196 0.00032622992234 0.0003251715139 0.00032412183007 0.00032308022278 0.00032204658953 
0.00032102149862 0.00032000452313 0.0003189952881 0.00031799365897 0.00031699964318 0.00031601294573 0.00031503290528 0.0003140591964 0.00031309131378 
0.00031212946657 0.00031117296202 0.00031022155583 0.00036572581347 0.00036439989805 0.00036308325067 0.00036177622273 0.00036047829317 0.00035918968487 
0.00035790983326 0.00035663890728 0.00035537660561 0.00035412227192 0.00035287632463 0.0003516388426 0.00035040966784 0.00034918856492 0.00034797544918 
0.00034677034454 0.00034557347331 0.00034438472876 0.00034320362012 0.00034203067268 0.00034086612101 0.00033970951599 0.00033856054271 0.00033741953161 
0.00033628594348 0.00033516025947 0.00033404243306 0.0003329316066 0.00033182925602 0.00033073443679 0.0003296474032 0.00032856805791 0.00032749658674 
0.0003264329946 0.00032537753003 0.00032433052584 0.00032329181433 0.0003222614144 0.00032123918886 0.00032022510159 0.00031921873658 0.00031821990176 
0.00031722853885 0.00031624441745 0.00031526698536 0.00031429599825 0.00031333072317 0.00031237081654 0.00031141672526 0.0003104675463 0.00036599938454 
0.00036467457467 0.00036335942064 0.00036205337027 0.00036075675297 0.00035946925562 0.00035819082792 0.00035692105521 0.00035565976927 0.00035440670443 
0.00035316207378 0.00035192590199 0.00035069781681 0.00034947784712 0.00034826601548 0.00034706211453 0.00034586675773 0.00034467913067 0.000343499353 
0.0003423281594 0.00034116509345 0.0003400101902 0.0003388629349 0.00033772311905 0.00033659147925 0.00033546743553 0.00033435125998 0.00033324302505 
0.00033214195075 0.00033104903865 0.00032996386124 0.00032888676346 0.00032781757446 0.00032675651361 0.00032570340832 0.00032465900272 0.00032362279912 
0.0003225945214 0.00032157479885 0.0003205629141 0.00031955908982 0.00031856242508 0.00031757341387 0.00031659127959 0.00031561595775 0.00031464669156 