# vtk DataFile Version 5.1
vtk output
ASCII
DATASET STRUCTURED_POINTS
DIMENSIONS 50 50 50
SPACING 0.002 0.002 0.002
ORIGIN 0.1742 -0.052672 0.02732
POINT_DATA 125000
FIELD FieldData 1
potential 1 125000 double
0.00074654961531 0.0007421236987 0.00073773755377 0.0007333913366 0.00072908323584 0.00072481071684 0.00072057864626 0.00071638271133 0.00071222222176 
0.00070809622609 0.00070400424189 0.00069994583598 0.00069592134774 0.00069192838914 0.00068796734848 0.00068403962961 0.00068014000975 0.0006762707783 
0.0006724311185 0.00066861961792 0.00066483617468 0.0006610789607 0.00065734733671 0.00065363942402 0.00064995611998 0.00064629620288 0.00064265890053 
0.00063904432519 0.00063545120553 0.00063187964096 0.00062832896453 0.00062479939973 0.00062129005217 0.00061780067697 0.00061433103795 0.00061088174401 
0.00060745262423 0.00060404352378 0.00060065545448 0.00059728757558 0.00059394304882 0.00059062197265 0.00058732619599 0.00058405695242 0.00058081569907 
0.00057760399906 0.00057442305431 0.00057127407688 0.00056815760055 0.00056507457232 0.00075108863914 0.00074661923656 0.00074219170015 0.00073780330639 
0.00073345515567 0.00072914448446 0.0007248683781 0.00072063283269 0.00071643309681 0.00071226859744 0.00070813858323 0.00070404288937 0.00069998149774 
0.00069595221529 0.00069195529573 0.00068799062573 0.00068405823889 0.00068015510311 0.00067628142351 0.00067243661373 0.00066862002941 0.00066483045682 
0.00066106677304 0.00065732731689 0.00065361289158 0.00064992228002 0.00064625480093 0.00064260982121 0.00063898733257 0.0006353864412 0.00063180698317 
0.00062824879404 0.00062471119848 0.00062119389782 0.00061769713586 0.00061422048367 0.00061076440358 0.00060732874208 0.00060391405339 0.00060052054165 
0.00059715010492 0.00059380367221 0.00059048265136 0.00058718809134 0.00058392204743 0.00058068547125 0.00057747991312 0.00057430641288 0.00057116553348 
0.00056805808443 0.00075529071654 0.00075078026075 0.00074631218242 0.00074188454623 0.00073749710411 0.00073314849572 0.00072883689786 0.0007245602802 
0.00072032365882 0.00071612237705 0.00071195658971 0.00070782542952 0.00070372885738 0.00069966497215 0.00069563406537 0.00069163521017 0.00068766892382 
0.00068373509875 0.00067982962637 0.00067595350265 0.00067210570371 0.00066828538433 0.00066449106566 0.00066072190693 0.00065697819773 0.00065325847095 
0.00064956212609 0.00064588866613 0.00064223823076 0.00063860942449 0.00063500253668 0.00063141726463 0.00062785288643 0.00062430911684 0.00062078573636 
0.00061728334537 0.00061380167517 0.0006103404882 0.00060690025556 0.00060348236863 0.00060008725285 0.00059671632854 0.00059337103375 0.00059005257855 
0.00058676253859 0.00058350233119 0.00058027297597 0.00057707591882 0.00057391181123 0.00057078111002 0.00075911584543 0.00075456707492 0.00075006134021 
0.00074559625955 0.0007411716336 0.00073678669978 0.00073243984703 0.00072813027249 0.00072385554063 0.00071961993711 0.00071542024805 0.00071125520069 
0.00070712613024 0.00070303016596 0.00069896746208 0.00069493743173 0.00069094013082 0.00068697418925 0.00068303857478 0.00067913435434 0.00067525733871 
0.00067140830377 0.00066758550096 0.00066378855244 0.00066001736456 0.00065627023792 0.00065254695307 0.00064884691239 0.00064516984225 0.00064151517861 
0.00063788253618 0.00063427163422 0.00063068212664 0.00062711358026 0.00062356532081 0.00062003839537 0.00061653219922 0.00061304670065 0.00060958224662 
0.00060614139779 0.00060272293427 0.00059932899796 0.00059596017623 0.00059261906289 0.00058930633969 0.00058602337278 0.00058277170692 0.00057955245909 
0.00057636625228 0.00057321364713 0.00076253480661 0.00075795033388 0.00075340929138 0.00074890917579 0.00074445031081 0.00074003118968 0.00073565113573 
0.00073130936668 0.00072700493014 0.00072273376444 0.00071850242218 0.00071430647858 0.00071014684061 0.0007060203224 0.00070192791139 0.00069786886621 
0.00069384275723 0.000689848525 0.0006858849376 0.00068195188131 0.00067804927346 0.00067417344608 0.00067032427781 0.00066650119975 0.00066270474383 
0.00065893240387 0.00065518401419 0.00065145965516 0.00064775797308 0.00064407927491 0.00064042251988 0.0006367877865 0.00063317466724 0.00062958259707 
0.00062601145936 0.00062246155661 0.00061893236627 0.00061542432987 0.00061193735973 0.00060847410684 0.00060503375867 0.00060161758141 0.00059822727586 
0.00059486446546 0.00059153012796 0.00058822593865 0.00058495309657 0.00058171290008 0.00057850616796 0.00057533304024 0.00076552888966 0.00076091113896 
0.00075633809648 0.00075180522897 0.0007473144431 0.00074286394996 0.00073845315381 0.00073408072673 0.00072974711076 0.00072544560344 0.00072118484237 
0.00071696032501 0.00071277241986 0.0007086179275 0.00070449768673 0.00070041213954 0.00069635984724 0.00069233966994 0.00068835052601 0.00068439211199 
0.00068046343054 0.00067656428655 0.00067269102094 0.00066884411205 0.0006650238627 0.00066122833886 0.0006574569423 0.0006537098644 0.00064998575188 
0.00064628480226 0.00064260601751 0.00063894933047 0.00063531458903 0.00063170105476 0.00062810845811 0.00062453731283 0.00062098720501 0.00061745772635 
0.00061394997211 0.00061046564601 0.00060700460516 0.00060356778231 0.00060015694044 0.00059677367135 0.00059341930835 0.00059009507056 0.00058680265294 
0.00058354297641 0.00058031701879 0.00057712512532 0.00076809099519 0.00076344290435 0.00075883917336 0.00075427737093 0.00074975736743 0.00074527818806 
0.00074083835489 0.00073643836368 0.00073207693934 0.00072775264188 0.00072346064514 0.00071921005314 0.0007149959455 0.0007108164934 0.00070667143215 
0.0007025610392 0.00069848431578 0.00069444084374 0.00069042828868 0.00068644688795 0.00068249545531 0.0006785724759 0.00067467876149 0.00067081011042 
0.00066696877105 0.00066315225241 0.00065935988086 0.00065559216995 0.00065184745279 0.00064812598846 0.00064442741102 0.00064075088735 0.00063709613696 
0.0006334629475 0.00062985064328 0.00062625967615 0.00062268968056 0.00061914070401 0.00061561379647 0.00061211020211 0.00060862978881 0.00060517368219 
0.00060174373689 0.00059834173279 0.00059496858173 0.00059162584837 0.0005883150332 0.00058503736577 0.0005817936875 0.0005785844499 0.00077022540646 
0.00076554932458 0.00076091705058 0.0007563289143 0.00075178200038 0.00074727655884 0.00074281140307 0.00073838574932 0.00073399934642 0.00072965064 
0.00072533897368 0.00072105996856 0.00071682235902 0.00071261949113 0.0007084521231 0.00070431944281 0.00070022096747 0.00069615538475 0.00069212156777 
0.00068811985035 0.00068414774938 0.00068020494182 0.00067628981497 0.00067240321556 0.00066854232995 0.0006647066133 0.00066089574655 0.00065710913889 
0.00065334607026 0.00064960642831 0.00064588972003 0.00064219483248 0.00063852199107 0.00063487079652 0.00063124051486 0.00062763174243 0.00062404361644 
0.00062047653696 0.0006169321822 0.00061341065645 0.00060991225333 0.00060643841163 0.00060299066284 0.00059957104006 0.00059618039034 0.0005928205517 
0.00058949298876 0.00058619875538 0.00058293887101 0.00057971399774 0.00077194760372 0.00076724598708 0.00076258855223 0.00075797572516 0.00075340465957 
0.00074887551888 0.00074438719646 0.00073993884732 0.00073552952021 0.00073115845507 0.00072682490083 0.00072252872864 0.00071826564964 0.00071404211385 
0.00070985421568 0.00070570147481 0.00070158304626 0.00069749791675 0.00069344532543 0.00068942428703 0.00068543399625 0.00068147317766 0.00067754066192 
0.00067363506709 0.00066975667171 0.00066590525077 0.00066207777529 0.00065827444102 0.00065449481447 0.00065073871369 0.00064700545928 0.00064329426976 
0.00063960527707 0.00063593758655 0.00063229124536 0.00062866596559 0.00062506134508 0.00062147869213 0.00061791772346 0.00061437939571 0.00061086409826 
0.00060737386121 0.00060391004644 0.00060047400411 0.00059706726152 0.00059369183448 0.00059034894745 0.00058703963803 0.00058376497027 0.00058052553031 
0.00077328419829 0.00076855940574 0.00076387945678 0.00075924424907 0.0007546516658 0.00075010096378 0.00074559172911 0.00074112255907 0.0007366926978 
0.00073230139226 0.0007279483371 0.00072363334075 0.00071935129087 0.00071510784098 0.00071090192193 0.00070673106587 0.00070259452401 0.00069849211288 
0.00069442234945 0.00069038460306 0.00068637751126 0.00068240084456 0.00067845281034 0.00067453157949 0.00067063747 0.00066676962993 0.0006629284958 
0.00065911025673 0.0006553159941 0.00065154512321 0.00064779717444 0.00064407149842 0.00064036764292 0.00063668531542 0.00063302421318 0.00062938420012 
0.00062576504559 0.00062216739673 0.00061859132794 0.00061503751503 0.00061150732052 0.00060800184769 0.00060452280236 0.00060107179824 0.000597650314 
0.00059426064405 0.00059090352228 0.00058758028147 0.00058429251527 0.00058103997456 0.00077427305028 0.00076952711423 0.00076482647381 0.00076017115169 
0.00075555871609 0.00075098847525 0.00074646010567 0.00074197225269 0.00073752408823 0.00073311442098 0.00072874345564 0.00072441110585 0.00072011528701 
0.00071585270334 0.00071162916637 0.00070744205816 0.00070328944453 0.00069917126728 0.00069508623663 0.00069103323154 0.00068701164194 0.00068302023387 
0.00067905727322 0.0006751228221 0.00067121543364 0.00066733394653 0.00066347776531 0.0006596479385 0.00065584050186 0.00065205647917 0.00064829529006 
0.00064455677888 0.00064083958965 0.00063714407827 0.00063346930706 0.000629815759 0.00062618362535 0.00062257212566 0.00061898248563 0.00061541450452 
0.00061187034642 0.00060835115384 0.00060485818278 0.00060139335964 0.00059795843067 0.00059455534866 0.00059118528179 0.00058784957522 0.0005845495226 
0.00058128572655 0.00077496049833 0.00077019523472 0.00076547595914 0.00076080183374 0.00075617132635 0.00075158374597 0.00074703757041 0.00074253296893 
0.00073806777398 0.00073364180491 0.0007292547787 0.00072490675798 0.00072059517555 0.00071632101916 0.00071207988123 0.00070787724951 0.00070371006996 
0.0006995773326 0.00069547846908 0.00069141166287 0.00068737698676 0.00068337249301 0.00067939688855 0.00067544960115 0.00067152968044 0.00066763615932 
0.00066376824585 0.00065992499595 0.00065610734292 0.00065231164712 0.00064853860547 0.00064478813099 0.00064105924484 0.00063735163961 0.00063366500121 
0.00062999912339 0.00062635443089 0.00062273045673 0.00061912811075 0.00061554750173 0.00061199037657 0.0006084581605 0.0006049523442 0.00060147481506 
0.00059802751449 0.0005946122275 0.0005912303337 0.00058788333689 0.00058457216338 0.00058129827722 0.00077540131723 0.00077061773874 0.0007658810637 
0.00076119045147 0.00075654300663 0.00075193915412 0.00074737735276 0.0007428563662 0.00073837583951 0.00073393498966 0.00072953317723 0.00072517028159 
0.00072084480295 0.00071655678225 0.00071230194231 0.00070808645932 0.00070390560782 0.00069975943808 0.00069564757195 0.00069156857593 0.00068752167212 
0.0006835053068 0.0006795177571 0.00067555925768 0.00067162831922 0.00066772350254 0.00066384458647 0.00065999074156 0.00065616086638 0.00065235589494 
0.00064857243071 0.0006448110731 0.00064107108227 0.00063735238886 0.00063365479021 0.0006299774732 0.00062632143134 0.00062268594379 0.00061907166521 
0.00061547899315 0.0006119098864 0.00060836571898 0.00060484806881 0.00060135873808 0.00059790005394 0.00059447372393 0.0005910811979 0.00058772379113 
0.00058440299753 0.00058111979575 0.00077565614693 0.00077085628967 0.00076610307109 0.00076139649432 0.00075673341415 0.00075211427274 0.00074753755622 
0.00074300192494 0.00073850687993 0.00073405168289 0.0007296363074 0.00072526014681 0.00072092106129 0.00071661994365 0.00071235611437 0.00070812402519 
0.00070393126159 0.00069977204089 0.00069564840398 0.00069155746587 0.00068749892211 0.00068347145047 0.0006794732177 0.00067550368257 0.00067156219047 
0.00066764733552 0.00066375851313 0.00065989470228 0.00065605498515 0.00065223873633 0.00064844647596 0.00064467518112 0.00064092493054 0.00063719585588 
0.00063348780267 0.00062980016413 0.00062613333319 0.00062248695129 0.00061886147616 0.00061525773272 0.00061167731632 0.00060812191794 0.00060459338315 
0.00060109309319 0.00059762367553 0.00059418712091 0.0005907849713 0.00058741827749 0.00058408835871 0.00058079706609 0.00077579071019 0.0007709751715 
0.00076620649666 0.00076148360547 0.00075680650039 0.00075217279213 0.00074758143791 0.00074303145161 0.00073852323407 0.00073405438907 0.0007296250515 
0.00072523596855 0.00072088431959 0.00071657002506 0.00071229349739 0.00070805333997 0.00070384471835 0.00069967518364 0.00069553908672 0.00069143689205 
0.0006873675157 0.00068332943951 0.00067931973194 0.00067534030527 0.00067138874613 0.00066746393442 0.00066356522666 0.00065969207257 0.00065584261935 
0.00065201670022 0.00064821384559 0.0006444327934 0.00064067412628 0.00063693531683 0.00063321702091 0.00062951924456 0.00062584209286 0.00062218552619 
0.00061854940686 0.00061493534446 0.00061134437436 0.00060777839133 0.00060423932144 0.00060072904238 0.00059724942726 0.0005938033827 0.00059039190959 
0.00058701693609 0.00058367923288 0.00058038005842 0.0007758722451 0.0007710418827 0.00076625819462 0.00076151994717 0.00075682867162 0.00075218037721 
0.00074757456872 0.0007430108744 0.00073848892075 0.00073400709696 0.00072956417624 0.00072516207322 0.00072079720496 0.00071647033233 0.00071218158898 
0.00070792911176 0.00070370872587 0.00069952777657 0.00069538068929 0.00069126660442 0.00068718619606 0.00068313727713 0.00067911768655 0.00067512755984 
0.00067116625545 0.00066723143124 0.00066332264178 0.00065943966927 0.00065558100879 0.00065174556734 0.00064793283433 0.00064414225379 0.00064037330977 
0.00063662559752 0.00063289725686 0.00062918983505 0.00062550260946 0.00062183591563 0.00061818958915 0.00061456533362 0.0006109641977 0.00060738815052 
0.00060383911025 0.00060031902819 0.00059683008593 0.00059337486422 0.00058995496237 0.00058657152145 0.00058322701543 0.00057992102982 0.00077597003752 
0.0007711239466 0.00076632506905 0.0007615722 0.00075686549608 0.00075220252174 0.00074758294358 0.00074300469123 0.00073846868541 0.00073397300618 
0.0007295175001 0.00072510127304 0.00072072340926 0.00071638369272 0.00071208200135 0.00070781714549 0.0007035882372 0.00069939124678 0.00069523266919 
0.00069110682441 0.00068701512023 0.0006829553743 0.00067892502101 0.00067492429135 0.00067095230961 0.00066700703004 0.00066308839958 0.00065919530661 
0.00065532622541 0.00065148102814 0.0006476585081 0.00064385785588 0.00064007919836 0.00063632053871 0.00063258355506 0.00062886598425 0.00062516872847 
0.00062149170972 0.00061783541713 0.00061420094213 0.00061059007051 0.00060700421001 0.00060344543692 0.00059991592021 0.00059641783995 0.00059295449017 
0.00058952639641 0.00058613558895 0.00058278391585 0.00057947161179 0.00077614933265 0.00077128692399 0.00076647251946 0.00076170367969 0.00075698176116 
0.0007523036275 0.00074766903984 0.00074307653812 0.00073852587246 0.00073401518944 0.00072954564856 0.00072511538438 0.00072072372429 0.00071637027489 
0.00071205519644 0.00070777688746 0.00070353498019 0.00069932899295 0.00069515415033 0.00069101692934 0.00068691259951 0.00068284081916 0.00067879847136 
0.00067478675759 0.00067080365911 0.00066684729761 0.00066291748261 0.00065901321913 0.00065513335331 0.0006512778442 0.00064744483424 0.00064363370265 
0.00063984398489 0.00063607551107 0.00063232708907 0.00062860016978 0.00062489269309 0.00062120541457 0.00061753885896 0.0006138943856 0.00061027372307 
0.00060667747523 0.00060310944872 0.00059957084846 0.00059606443359 0.00059259241144 0.00058915683756 0.00058575878909 0.00058240041577 0.00057908189526 
0.00077647163407 0.00077159261431 0.00076676060874 0.00076197538009 0.00075723733678 0.00075254340138 0.00074789259508 0.00074328446746 0.0007387180921 
0.00073419233454 0.00072970701765 0.00072526155646 0.00072085498002 0.00071648715999 0.0007121568763 0.00070786441069 0.00070360866341 0.00069938855349 
0.00069519998487 0.00069104962643 0.00068693304967 0.00068284626236 0.00067879226288 0.00067476741461 0.00067077211459 0.00066680361788 0.00066286206993 
0.00065894580215 0.00065505425681 0.00065118709075 0.00064734263614 0.00064352012762 0.00063971904911 0.00063593924188 0.00063217959209 0.00062844065618 
0.00062472372687 0.00062102547036 0.00061734849731 0.00061369371498 0.00061006272503 0.00060645657313 0.0006028790041 0.00059933183641 0.00059581687487 
0.00059233645501 0.00058889338457 0.00058548876054 0.00058212365739 0.00057879944086 0.0007769920732 0.00077209511897 0.00076724525413 0.00076244216971 
0.00075768714467 0.00075297548948 0.0007483074324 0.00074368208015 0.00073909828773 0.00073455598873 0.0007300542731 0.00072559197957 0.00072116914411 
0.0007167849454 0.00071243898926 0.0007081305425 0.00070385890038 0.00069962369598 0.00069542362048 0.00069125452695 0.00068712336256 0.00068302336599 
0.00067895407391 0.00067491594109 0.00067090606281 0.00066692437375 0.00066296872877 0.0006590400637 0.00065513538271 0.00065125484445 0.0006473972853 
0.00064356200244 0.00063974912052 0.00063595685271 0.0006321849462 0.0006284345743 0.00062470460531 0.00062099602934 0.00061730807842 0.00061364260083 
0.00061000074861 0.00060638490488 0.00060279786614 0.00059924167179 0.00059571809306 0.00059222988364 0.00058877939074 0.00058536788081 0.00058199651412 
0.00057866616664 0.0007777604033 0.00077284370276 0.00076797413698 0.00076315179249 0.00075837754432 0.00075364678081 0.00074895981443 0.00074431591115 
0.0007397134072 0.00073515251462 0.00073063232874 0.00072615199269 0.00072171119018 0.00071730873072 0.00071294483398 0.00070861901242 0.00070433008327 
0.00070007798286 0.00069586137033 0.0006916791816 0.00068752790769 0.00068341174139 0.00067932739585 0.00067527223203 0.00067124708439 0.00066724975026 
0.00066327924875 0.0006593350333 0.00065541619102 0.00065152151093 0.00064764941145 0.00064379965611 0.00063997288119 0.00063616738362 0.00063238239929 
0.00062861897247 0.00062487606178 0.00062115420803 0.000617455707 0.00061377885639 0.0006101262714 0.00060650055154 0.00060290352659 0.00059933798458 
0.00059580588894 0.00059230988554 0.00058885223277 0.00058543364071 0.00058205598412 0.00057871957133 0.00077881706037 0.00077387853473 0.00076898805772 
0.00076414505403 0.00075934907192 0.00075459719819 0.0007498892112 0.00074522464035 0.00074060209044 0.00073602058413 0.00073148033061 0.00072697945841 
0.00072251825196 0.00071809624375 0.00071371233797 0.00070936750305 0.00070505938737 0.00070078785189 0.00069655241729 0.00069235176976 0.00068818207323 
0.0006840476496 0.00067994541028 0.00067587320698 0.00067182965439 0.00066781550271 0.0006638277234 0.00065986680247 0.00065593154115 0.00065201994821 
0.00064813179885 0.00064426693828 0.00064042484874 0.00063660386161 0.00063280413275 0.00062902678258 0.00062527001775 0.00062153505295 0.0006178228644 
0.00061413537859 0.0006104715587 0.0006068351819 0.00060322778859 0.00059965296126 0.00059611253987 0.00059260840409 0.00058914312091 0.00058571784282 
0.00058233356276 0.00057899046611 0.00078019487016 0.00077523321603 0.00077031889036 0.00076545256527 0.00076063320943 0.00075585933114 0.000751128512 
0.00074644058131 0.00074179541757 0.00073719181095 0.00073262859937 0.00072810517321 0.00072362181403 0.00071917789925 0.00071477275964 0.00071040559375 
0.00070607633836 0.00070178359102 0.00069752728912 0.00069330590286 0.00068911867694 0.00068496012713 0.00068083807414 0.00067674637697 0.00067268395551 
0.00066864934568 0.00066464245215 0.00066066250598 0.00065670836833 0.00065277877786 0.00064887304802 0.00064499099799 0.00064113127571 0.00063729416792 
0.00063347853767 0.00062968495526 0.000625913552 0.00062216426236 0.00061843864363 0.00061473700554 0.00061106256606 0.00060741467027 0.0006037972473 
0.00060021269144 0.00059666314898 0.00059315108343 0.00058967806581 0.00058624536311 0.00058285397325 0.00057950411276 0.00078192055449 0.0007769325991 
0.00077199308063 0.00076710079219 0.0007622558744 0.00075745693457 0.00075270119459 0.00074798890314 0.00074331864582 0.00073868962745 0.00073410158094 
0.0007295534636 0.00072504596299 0.00072057781098 0.00071614861838 0.00071175790057 0.00070740437853 0.00070308827903 0.0006988082903 0.00069456388933 
0.0006903538216 0.00068617240971 0.00068202792409 0.00067791470841 0.00067382996453 0.00066977430204 0.00066574563395 0.0006617446567 0.00065776966371 
0.0006538194137 0.00064989446365 0.00064599278405 0.00064211453026 0.00063825906483 0.00063442583842 0.00063061555339 0.0006268274203 0.00062306269202 
0.0006193224991 0.00061560738657 0.00061191865144 0.00060826020696 0.00060463210074 0.00060103742027 0.00059747882246 0.00059395828903 0.00059047704728 
0.0005870367687 0.00058363741956 0.0005802796794 0.00078401247697 0.0007789961332 0.0007740288981 0.00076910858529 0.00076423599348 0.00075940956686 
0.00075462568958 0.00074988607564 0.0007451889252 0.0007405332992 0.00073591731546 0.00073134250304 0.00072680792048 0.00072231346634 0.00071785779359 
0.00071344062044 0.00070906118198 0.00070471904941 0.00070041317277 0.00069614275593 0.0006919073277 0.00068770514033 0.00068353219187 0.00067939396817 
0.00067528573477 0.00067120563354 0.00066715339687 0.00066312943924 0.00065913158613 0.00065515930803 0.00065121269699 0.00064728966836 0.00064339094258 
0.00063951524644 0.0006356625783 0.0006318336927 0.00062802854288 0.00062424660249 0.00062049073328 0.00061676092564 0.00061305913145 0.0006093866108 
0.00060574827574 0.00060214343359 0.00059857527241 0.00059504532571 0.00059155591407 0.00058810650388 0.00058469865032 0.00058133246087 0.00078648418748 
0.00078143713391 0.00077643886079 0.00077148867417 0.00076658589924 0.00076172886816 0.00075691573353 0.0007521465772 0.00074741884643 0.00074273344316 
0.00073808886059 0.00073348513614 0.00072892102752 0.00072439700212 0.00071991218796 0.00071546641119 0.00071105858087 0.00070668779778 0.00070235395351 
0.00069805552875 0.00069379221539 0.0006895626817 0.00068536617326 0.00068119727086 0.00067706223669 0.00067295644565 0.00066887939635 0.0006648290493 
0.0006608063851 0.00065680992696 0.000652839091 0.00064889323204 0.00064497167075 0.00064107405118 0.00063720120214 0.00063335209737 0.00062952774514 
0.0006257283335 0.0006219557592 0.00061820977199 0.00061449369901 0.00061080863408 0.00060715704881 0.00060354168513 0.00059996357831 0.00059642393745 
0.00059292412555 0.00058946552116 0.00058604837783 0.00058267245936 0.00078934359693 0.00078426385864 0.0007792322292 0.00077424919381 0.00076931302908 
0.00076442391201 0.00075957815736 0.00075477684445 0.00075001782601 0.00074529997897 0.00074062311881 0.00073598742877 0.00073139203452 0.00072683658675 
0.00072231995409 0.00071784260059 0.00071340446927 0.0007090030902 0.00070463838664 0.00070030999557 0.00069601612768 0.0006917567515 0.00068753026596 
0.00068333228301 0.00067916851985 0.00067503426951 0.00067092930702 0.00066685219398 0.00066280194992 0.00065877945745 0.00065478230322 0.0006508115043 
0.00064686601442 0.00064294511384 0.00063904929544 0.00063517885523 0.00063133425815 0.00062751548501 0.00062372504283 0.00061996298822 0.00061623141951 
0.00061253201801 0.00060886752688 0.00060523940856 0.00060165041387 0.00059809941511 0.00059458935661 0.00059112071524 0.00058769292652 0.00058430636493 
0.00079259520586 0.00078747950651 0.00078241193774 0.00077739307364 0.00077242184966 0.00076749755086 0.0007626173499 0.00075778133612 0.000752987775 
0.00074823555323 0.00074352441887 0.00073885381211 0.00073422395715 0.00072963488043 0.00072508512368 0.00072057430604 0.00071610216052 0.00071166789879 
0.00070727054409 0.00070290936542 0.00069858290144 0.0006942910661 0.00069003327704 0.00068580724712 0.00068160882749 0.00067744374751 0.00067330856175 
0.00066920144719 0.00066512349519 0.00066107161131 0.00065704731658 0.00065304970314 0.00064907839971 0.00064513209916 0.00064121252734 0.00063731876616 
0.0006334523233 0.00062961359329 0.00062580421835 0.00062202460314 0.00061827683855 0.00061456204848 0.00061088349463 0.00060724179788 0.00060363901225 
0.00060007702553 0.00059655544174 0.0005930746455 0.0005896352276 0.00058623628182 0.00079623837295 0.00079108250352 0.00078597721662 0.00078092024077 
0.0007759112235 0.00077094962108 0.00076603173029 0.00076115828709 0.00075632808512 0.00075153892996 0.00074679089043 0.00074208408591 0.00073741786955 
0.00073279247319 0.00072820658819 0.00072366003999 0.00071915287683 0.00071468266784 0.00071024978326 0.0007058535615 0.00070149301372 0.00069716693945 
0.0006928746779 0.00068861526289 0.00068438353021 0.00068018560461 0.00067601817457 0.00067187952972 0.00066777052312 0.00066368967443 0.0006596351661 
0.00065560850542 0.00065160924579 0.00064763675051 0.00064369165271 0.00063977378964 0.00063588456841 0.00063202412668 0.00062819467937 0.00062439634263 
0.00062063113519 0.0006169001185 0.00061320558638 0.00060954914019 0.00060593242091 0.00060235598816 0.00059882124842 0.00059532766703 0.00059187472324 
0.00058846248293 0.00080026516239 0.00079506832018 0.00078992284502 0.0007848256126 0.00077977637135 0.00077477462108 0.00076981704075 0.00076490381732 
0.00076003433557 0.00075520600405 0.00075041903183 0.00074567372387 0.00074096856208 0.00073630451141 0.00073168009488 0.00072709540101 0.00072254969301 
0.00071804268527 0.00071357286766 0.00070913932037 0.00070474234555 0.00070038006821 0.00069605182541 0.00069175653461 0.00068749297961 0.00068325681723 
0.00067905507882 0.00067488367602 0.00067074115972 0.00066662807384 0.00066254309302 0.00065848584431 0.00065445731715 0.0006504571306 0.00064648543265 
0.00064254224429 0.00063862880474 0.00063474573537 0.00063089455265 0.00062707641095 0.00062329193676 0.00061954321088 0.00061583206261 0.00061215904844 
0.00060852624506 0.00060493443706 0.00060138381921 0.00059787557144 0.00059440774022 0.00059098049419 0.00080466730311 0.00079942831176 0.00079423801978 
0.0007890983732 0.00078400679021 0.0007789625274 0.00077396354805 0.00076900868164 0.00076409676536 0.00075922682613 0.00075439902411 0.00074961237273 
0.00074486667755 0.00074016187097 0.00073549717325 0.00073087211934 0.00072628680067 0.00072173998725 0.00071723101424 0.00071275877553 0.00070832297007 
0.00070392252957 0.00069955670086 0.00069522374755 0.00069092309161 0.00068665458823 0.00068241285005 0.00067820595893 0.00067402918422 0.00066988213347 
0.00066576477968 0.00066167621101 0.00065761678875 0.00065358690065 0.00064958685321 0.00064561726513 0.00064167857414 0.00063777192535 0.00063389844657 
0.0006300584426 0.00062625327006 0.00062248517686 0.00061875505584 0.00061506460531 0.0006114142127 0.0006078052892 0.00060423761386 0.00060071126401 
0.00059722724039 0.00059378247025 0.00080942944777 0.00080414496493 0.00079891053693 0.00079372445618 0.00078858748882 0.00078349899718 0.00077845496266 
0.00077345634113 0.00076850061464 0.00076358748511 0.0007587160877 0.00075388645881 0.00074909827975 0.00074435091143 0.00073964408421 0.00073497691018 
0.00073034960874 0.0007257613332 0.00072121104579 0.00071669793989 0.00071222197587 0.00070778096337 0.00070337575655 0.00069900429624 0.00069466548512 
0.00069035799292 0.00068607957755 0.00068183609433 0.0006776235404 0.00067344138357 0.00066928943539 0.00066516845503 0.00066107658396 0.00065701587264 
0.00065298676155 0.00064898897904 0.00064502368128 0.00064109110892 0.00063719346408 0.00063333046246 0.0006295034389 0.00062571474035 0.00062196475847 
0.00061825452021 0.00061458542342 0.00061095676849 0.00060737003273 0.00060382469072 0.00060032053182 0.00059685715321 0.00081452930531 0.00080919626119 
0.00080391409099 0.00079868034515 0.00079349694782 0.00078836064273 0.00078327067149 0.00077822602094 0.00077322486242 0.00076826649464 0.00076335007318 
0.00075847591049 0.00075364337433 0.00074885231296 0.00074410157122 0.00073939098898 0.00073472043351 0.00073008856668 0.00072549508746 0.00072093971227 
0.00071642147886 0.00071193970541 0.00070749292147 0.00070308034939 0.00069870138808 0.00069435481921 0.00069004100935 0.00068575604178 0.00068150639952 
0.00067728827064 0.00067310088247 0.00066894543761 0.00066482129024 0.00066072804071 0.00065666728241 0.0006526406824 0.00064864733337 0.00064468795989 
0.00064076437024 0.00063687725162 0.00063302709318 0.00062921521277 0.00062544325503 0.00062171199053 0.00061802149253 0.00061437212622 0.00061076383567 
0.00060719746071 0.00060367169976 0.0006001857909 0.00081993576534 0.00081455306559 0.00080922103381 0.00080393928344 0.00079870544863 0.00079352087679 
0.00078838291645 0.00078329037286 0.00077824217321 0.00077323627442 0.00076827338228 0.00076335311128 0.00075847485966 0.00075363787691 0.00074884157892 
0.00074408574003 0.00073937035615 0.00073469456991 0.00073005692347 0.000725457436 0.0007208963496 0.00071637175017 0.00071188208425 0.00070742781549 
0.00070300742687 0.00069862054891 0.00069426717456 0.00068994228222 0.00068565451784 0.00068139885201 0.00067717557518 0.0006729846409 0.00066882626062 
0.00066470056982 0.00066060768344 0.00065655017556 0.00065252750615 0.00064854042625 0.00064458982475 0.00064067656877 0.00063680124577 0.00063296484176 
0.0006291687576 0.0006254138488 0.00062170013572 0.00061802824328 0.0006143971596 0.00061080676656 0.00060725797832 0.00060374865522 0.00082561326764 
0.00082017775253 0.00081479464797 0.00080946162693 0.00080417749657 0.00079894260518 0.00079375526882 0.00078861329614 0.0007835158204 0.00077846179251 
0.00077345107689 0.00076848337292 0.00076355765268 0.00075867332686 0.00075383055673 0.0007490280105 0.00074426705295 0.0007395453056 0.00073486226006 
0.0007302186966 0.00072561321737 0.00072104457971 0.00071651215293 0.00071201468533 0.00070755237218 0.00070312381387 0.00069872925741 0.00069436894787 
0.00069003763695 0.00068574356988 0.00068148251897 0.00067725549253 0.00067306218521 0.00066890292493 0.00066477725545 0.00066068835398 0.0006566351914 
0.00065261807173 0.00064863925337 0.00064469815822 0.00064079647832 0.00063693376929 0.00063311227485 0.00062933175016 0.00062559297504 0.00062189556667 