# vtk DataFile Version 5.1
vtk output
ASCII
DATASET STRUCTURED_POINTS
DIMENSIONS 50 50 50
SPACING 0.002 0.002 0.002
ORIGIN 0.1742 -0.052672 0.02732
POINT_DATA 125000
FIELD FieldData 1
potential 1 125000 double
0.021630001262 0.022052137668 0.02247879715 0.022909606521 0.023344214266 0.023782167002 0.024223024314 0.024666315867 0.025111556081 
0.025558261777 0.026005931794 0.026453844377 0.026901202213 0.027348015529 0.027793071881 0.028235809102 0.028675552508 0.029111532787 
0.029543012875 0.029969269971 0.030389665132 0.030803225146 0.03120930763 0.031607200699 0.031996107634 0.032375425699 0.032744369798 
0.033102275115 0.033448297399 0.033782202892 0.03410291017 0.034409996262 0.034702739146 0.034980621484 0.035243031408 0.035489478091 
0.035719467629 0.035932522319 0.03612825067 0.036306226515 0.036466161314 0.036607655105 0.036730620676 0.036834719938 0.036919825355 
0.036985818445 0.037032428928 0.037059639725 0.037067353104 0.037055643828 0.021058385149 0.021459966122 0.021865562252 0.022274825299 
0.022687443668 0.023102978846 0.023520998357 0.023941090133 0.024362808153 0.024785612759 0.025208992235 0.025632340755 0.026055334005 
0.026476958941 0.026897087223 0.027314751671 0.027729423264 0.02814049923 0.028547086339 0.02894853018 0.029344234762 0.02973350551 
0.030115606912 0.030489882963 0.030855639957 0.031212190179 0.031558993318 0.031895410351 0.032220622874 0.032534042504 0.032835299752 
0.033123785017 0.033398692226 0.033659574758 0.033905954631 0.034137262453 0.034353156544 0.034553132151 0.034736821665 0.034903886331 
0.035054167545 0.035187039123 0.035302440586 0.035400148589 0.035479997619 0.035541859029 0.035585586179 0.035611154263 0.03561844153 
0.035607350855 0.020501303332 0.020884014903 0.021269793718 0.021659043453 0.022050941286 0.022445420647 0.022842012092 0.023240322355 
0.023639927148 0.024040385013 0.024441147482 0.024841732233 0.025241617989 0.025640223981 0.026036866194 0.026431388503 0.02682276582 
0.027210459216 0.027593738425 0.027971979638 0.028344852479 0.02871175512 0.029071586792 0.02942396409 0.029768230831 0.030103784573 
0.030430028371 0.030746375395 0.031052242727 0.0313469801 0.031630148196 0.031901061683 0.032159532637 0.032404696176 0.03263637729 
0.032853757855 0.033056585615 0.033244453858 0.033417003049 0.033573933266 0.033714926708 0.033839733341 0.03394811319 0.034039898095 
0.034114889674 0.034172990013 0.034214060204 0.0342380737 0.034244939339 0.034234647938 0.019957882842 0.020321809667 0.02068901726 
0.021058956735 0.021431407494 0.021806050772 0.022182486066 0.022560684926 0.022939558593 0.02331896875 0.023698574673 0.024077760368 
0.024456093682 0.024833075838 0.025208139066 0.025580619677 0.025950269083 0.026316353801 0.02667816975 0.027035195131 0.02738682998 
0.027732511391 0.02807154452 0.028403525403 0.028727731567 0.029043698605 0.029350833363 0.029648819791 0.029936655863 0.030214020109 
0.030480376794 0.030735286711 0.030978119999 0.031208662364 0.03142645178 0.031630806966 0.031821518411 0.031998108021 0.032160312496 
0.032307826847 0.032440353376 0.032557666983 0.0326595211 0.032745786511 0.032816279878 0.032870883736 0.032909508993 0.032932074484 
0.032938535934 0.032928888126 0.019425803147 0.019772208594 0.020121662187 0.020473582643 0.020827662053 0.021183570599 0.021541000057 
0.021899563151 0.022258911237 0.02261857632 0.022978194497 0.023337342439 0.02369546258 0.024052457431 0.024407148121 0.024759221219 
0.025108463388 0.025454174215 0.025795773756 0.026132767524 0.026464654101 0.026790733116 0.027110487335 0.027423448691 0.027728966093 
0.028026686394 0.028316004586 0.028596425348 0.028867439048 0.029128574216 0.029379300944 0.029619220533 0.029847789516 0.030064966013 
0.03026962301 0.030461895605 0.030641364033 0.030807515338 0.030960063746 0.031098803918 0.031223436679 0.031333739541 0.031429587051 
0.031510702108 0.031576988579 0.031628341542 0.031664654838 0.031685884852 0.031691984629 0.031682910504 0.0189032728 0.019233296167 
0.019565720207 0.019900562124 0.020237209133 0.020575511435 0.020914943408 0.021255322265 0.021596223338 0.021937301113 0.022278107103 
0.022618342953 0.022957445409 0.023294974173 0.023630525153 0.023963619431 0.024293600566 0.024620278796 0.024942995744 0.025261209909 
0.025574433139 0.02588208254 0.026184101798 0.026479375969 0.026767513884 0.027048159781 0.027320835396 0.027585075359 0.027840276219 
0.028086234455 0.028322393629 0.02854828065 0.028763558087 0.028967754447 0.029160525477 0.029341497266 0.029510153498 0.029666455289 
0.029810027038 0.029940685357 0.030057936511 0.030161703625 0.030252099069 0.030328421664 0.030390784543 0.030439089053 0.030473262655 
0.030493242717 0.030498991545 0.030490475395 0.018389308926 0.018703698013 0.019020241246 0.019338628069 0.019658787525 0.019980274827 
0.020302736351 0.020625880131 0.020949375483 0.021272850022 0.021595915011 0.021918227475 0.022239465292 0.022559029613 0.022876574185 
0.023191659187 0.023503830093 0.023812471689 0.02411737989 0.024417963416 0.024713762791 0.0250042393 0.025288890992 0.025567373109 
0.025839174823 0.026103820167 0.026360867438 0.026610065389 0.026850678523 0.02708243427 0.02730493093 0.027517630658 0.027720368149 
0.027912677369 0.02809420009 0.028264572777 0.028423516773 0.028570684927 0.028705630859 0.028828499136 0.028938873029 0.029036662265 
0.029121471993 0.029193293504 0.029251980411 0.02929744298 0.029329608817 0.029348421492 0.029353843567 0.029345841931 0.017883207004 
0.018182658863 0.018484012438 0.018786984972 0.019091317206 0.019396871973 0.019703234704 0.020010028371 0.020317009684 0.020623838143 
0.020930171409 0.02123562692 0.021539827111 0.021842486736 0.022143040302 0.022441154538 0.022736398849 0.02302838048 0.023316375556 
0.023600370261 0.023879715702 0.024154024833 0.02442278674 0.024685559308 0.024941992475 0.02519162887 0.025434062413 0.025668884331 
0.025895693586 0.02611412855 0.026323797241 0.026524322609 0.026715461697 0.026896605415 0.027067589717 0.027228075533 0.027377728391 
0.027516315203 0.027643407866 0.027759081174 0.027862810739 0.027954775921 0.028034592591 0.028102186538 0.028157561047 0.028200349782 
0.028230645705 0.028248360141 0.028253470233 0.028245907636 0.01738481437 0.017669854426 0.017956715219 0.018244948376 0.018534340102 
0.018824609186 0.019115654285 0.01940695876 0.019698276985 0.019989366618 0.020279812197 0.020569298529 0.020857487801 0.021144016623 
0.021428590622 0.02171067887 0.02198993128 0.022265969831 0.022538437776 0.022806606953 0.023070510265 0.023329539223 0.023583309376 
0.023831324862 0.024073303353 0.024308810262 0.024537482102 0.024758926504 0.024972783737 0.025178698981 0.025376341473 0.025565318681 
0.02574531628 0.025916012861 0.026077048659 0.026228216629 0.02636919538 0.026499705949 0.026619554432 0.026728481965 0.026826275971 
0.026912859985 0.026987873203 0.027051520319 0.027103531432 0.027143825578 0.02717234563 0.027189182526 0.027194001628 0.027186942437 
0.016893796621 0.017165227051 0.017438077043 0.017712416197 0.017987506491 0.018263403556 0.018539708183 0.018816329576 0.019092703466 
0.019368801367 0.019644254201 0.019918618514 0.020191621653 0.020462943421 0.020732253177 0.020999262974 0.021263425249 0.02152445682 
0.021781970232 0.022035635367 0.022284956883 0.022529413194 0.022769004853 0.023003110583 0.023231502776 0.023453707479 0.023669442404 
0.023878288778 0.024079955623 0.024274084174 0.024460366105 0.024638479798 0.024808116361 0.024968956232 0.02512074962 0.02526314796 
0.025395906157 0.025518825824 0.025631684126 0.025734285284 0.025826406179 0.025907912599 0.025978698401 0.026038632741 0.02608763183 
0.026125396683 0.026152121106 0.026167835141 0.026172394444 0.026165744938 0.016410486331 0.01666897161 0.01692865058 0.017189247893 
0.017450873062 0.0177130907 0.017975489673 0.018237953051 0.018500330597 0.018762099316 0.019023177187 0.019283189274 0.01954184879 
0.019798795907 0.020053702349 0.020306343221 0.020556309777 0.020803148388 0.021046578523 0.021286245499 0.021521855602 0.021752932134 
0.021979002481 0.022200050112 0.022415579427 0.022625204808 0.022828683462 0.023025674789 0.023215845987 0.023398892481 0.023574492007 
0.023742384538 0.023902246522 0.024053823505 0.024196772503 0.024330977997 0.024456080318 0.024571847249 0.024678164988 0.024774781797 
0.024861527654 0.024938302333 0.025004834043 0.025061254463 0.025107384693 0.025143129591 0.025168431589 0.025183239367 0.025187330194 
0.025181290078 0.015935414051 0.016181342814 0.016428480976 0.016676335271 0.0169249256 0.017173966615 0.017423187413 0.017672359681 
0.017921101171 0.018169467421 0.018416878471 0.018663247126 0.018908274183 0.019151610287 0.019392958621 0.019631929007 0.0198682823 
0.020101775735 0.020331886081 0.02055836269 0.020780938311 0.020999179168 0.021212797758 0.021421355123 0.021624757401 0.021822608022 
0.022014451666 0.022200339405 0.022379683176 0.022552272459 0.022717811993 0.022876007283 0.023026682337 0.023169513802 0.023304140675 
0.023430549257 0.023548435011 0.023657530725 0.023757599261 0.023848593862 0.023930309044 0.024002598009 0.024065374074 0.024118523274 
0.024161945653 0.024195607632 0.024219624992 0.024233580395 0.024237622072 0.024231757351 0.015469166997 0.015703183202 0.015938140166 
0.016173830944 0.016410130652 0.01664668206 0.016883310053 0.017119851888 0.01735593055 0.017591316841 0.017825836571 0.018059156368 
0.018291193453 0.018521548637 0.018749995261 0.018976130038 0.019199685885 0.01942037382 0.019637979288 0.019852001555 0.020062223286 
0.020268391377 0.020470086227 0.020667067294 0.020858843984 0.021045508301 0.021226617082 0.02140165054 0.021570862995 0.021733601237 
0.021889685298 0.022038835299 0.022180839837 0.022315441499 0.022442399347 0.022561502244 0.022672536566 0.022775318662 0.022869630487 
0.022955263494 0.023032213309 0.023100302814 0.023159601737 0.023209641278 0.023250548426 0.023282225048 0.023304665912 0.02331779176 
0.023321613534 0.02331609545 0.015012455611 0.015235196179 0.015458663648 0.015682693216 0.015907119182 0.016131825487 0.016356419552 
0.016580845754 0.016804824734 0.017028055015 0.017250328744 0.017471578913 0.017691240096 0.017909345316 0.018125467902 0.01833945887 
0.018550746431 0.018759438265 0.018965040565 0.019167275133 0.019365964639 0.019560529413 0.019751042334 0.019936977058 0.020118146844 
0.020294105603 0.020464946222 0.02063019887 0.020789690475 0.020943041167 0.021090280855 0.021230891012 0.021364706828 0.021491549019 
0.021611184271 0.02172339007 0.021828182185 0.021924967017 0.022013829801 0.02209453007 0.022166933872 0.022231054488 0.022286728107 
0.022333823882 0.022372335414 0.022402189394 0.022423307546 0.022435687983 0.022439270209 0.022434107491 0.014566470207 0.014778250057 
0.014990664629 0.015203579108 0.015416814211 0.015630115063 0.015843371398 0.016056231093 0.016268688149 0.016480348802 0.016691052713 
0.016900532682 0.01710873621 0.017315113707 0.017519689054 0.017722101298 0.017922084721 0.018119386715 0.018313748439 0.018504880809 
0.018692495941 0.018876445622 0.019056242807 0.019231840876 0.019402825807 0.019569024571 0.01973020191 0.019885955444 0.020036297197 
0.020180985904 0.020319712269 0.020452158019 0.020578396355 0.020697917827 0.020810637998 0.020916353284 0.021014885034 0.021106056615 
0.021189702519 0.021265754491 0.021334008987 0.021394370068 0.021446733167 0.021491119697 0.021527366817 0.021555481444 0.021575387301 
0.021587061304 0.021590429688 0.021585555187 0.014131972424 0.014333420656 0.014535392612 0.014737695884 0.014940223999 0.015142761871 
0.015345097174 0.015547082717 0.015748540653 0.015949270949 0.016148887466 0.016347445587 0.016544533952 0.01674003805 0.016933594099 
0.017125083379 0.017314233293 0.017500786658 0.01768445139 0.017865095505 0.018042360868 0.018215990748 0.018385879335 0.018551560832 
0.018713014007 0.018869844797 0.019021895755 0.019168965283 0.019310663629 0.01944702539 0.019577826582 0.019702776151 0.019821579183 
0.019934226169 0.020040522487 0.020140133496 0.020232963923 0.020318845344 0.020397647621 0.020469238627 0.020533549802 0.020590411622 
0.020639761897 0.020681496294 0.020715657992 0.020742109283 0.020760861093 0.020771850777 0.02077506738 0.020770454955 0.013709946266 
0.01390151565 0.0140935307 0.014285812554 0.014478158859 0.014670466975 0.014862520358 0.015054139089 0.015245142007 0.015435410226 
0.015624750216 0.01581275454 0.01599947373 0.016184530029 0.01636782137 0.016548931141 0.016727854441 0.016904271707 0.017077902142 
0.017248535811 0.017415985828 0.017580049517 0.017740372946 0.017896944224 0.018049267715 0.018197333375 0.018340795939 0.01847953688 
0.018613330537 0.018742019381 0.018865111783 0.018982912694 0.01909500626 0.019201190292 0.01930117372 0.01939500786 0.01948257618 
0.019563492164 0.019637730192 0.019705164435 0.019765703139 0.019819301665 0.019865790173 0.019905141842 0.019937291506 0.019962132761 
0.019979764102 0.019990104953 0.019993128367 0.019988836339 0.013301177567 0.013483393487 0.013665942584 0.01384867641 0.01403143112 
0.014214011231 0.014396311545 0.014578136612 0.014759315562 0.014939646123 0.015119004863 0.015297335317 0.015474136723 0.015649378204 
0.015822833485 0.015994309511 0.016163513024 0.016330352749 0.016494535522 0.016655852129 0.016814060848 0.016969001046 0.01712039588 
0.017268169955 0.017411952998 0.017551743319 0.017687256372 0.017818143136 0.017944356184 0.018065712141 0.018182053845 0.018292887308 
0.01839856238 0.018498663409 0.018593020754 0.018681476633 0.018763751503 0.018839992636 0.018910055847 0.018973592465 0.019030620017 
0.019081057535 0.019124882674 0.019161948643 0.019192257115 0.019215733755 0.019232313239 0.01924203382 0.019244902107 0.019240854961 
0.012906502238 0.013079761962 0.013253342001 0.013427039297 0.013600665229 0.01377410751 0.013947136319 0.014119692902 0.014291571891 
0.014462615573 0.014632619447 0.014801475504 0.01496906468 0.015135078563 0.015299297137 0.015461606462 0.015621798046 0.015779513715 
0.015934785613 0.01608729975 0.016236875184 0.016383241053 0.016526296939 0.016665806624 0.016801598827 0.016933514423 0.017061366722 
0.017184990757 0.017304078556 0.017418630009 0.017528338458 0.017633139653 0.017732792365 0.017826930047 0.017915893795 0.017999290939 
0.018077015735 0.018148848472 0.018214632163 0.01827450556 0.018328250805 0.018375874582 0.018417134957 0.018452111023 0.018480644736 
0.018502762315 0.01851843084 0.018527693397 0.018530304179 0.018526535207 0.012526277114 0.01269126981 0.01285636018 0.013021367867 
0.013186446769 0.013351204094 0.013515538747 0.013679302736 0.013842403129 0.014004652784 0.01416588744 0.014325933154 0.01448465336 
0.014641980261 0.014797506561 0.014951203298 0.015102796207 0.015252171279 0.015398967783 0.015543203075 0.015684629202 0.015822989678 
0.015958134282 0.016089951517 0.016218214355 0.016342765117 0.016463403255 0.016580032844 0.016692615407 0.016800752331 0.016904268917 
0.017003103419 0.017097146852 0.017186247908 0.017270066082 0.017348566098 0.017421842153 0.017489595161 0.017551717111 0.017608166489 
0.017658684634 0.017703454583 0.017742344998 0.017775276975 0.017802333555 0.017823186846 0.017837960098 0.017846782137 0.017849311615 
0.017845714096 0.012161161886 0.012318159103 0.012475251358 0.01263227948 0.012789044953 0.012945626172 0.013101741225 0.013257337341 
0.013412115188 0.013566075074 0.013719031819 0.013870830509 0.014021283883 0.014170261288 0.01431771183 0.014463231931 0.014606756102 
0.014748159636 0.014887232316 0.015023582574 0.015157351589 0.015288219242 0.015416026002 0.01554057812 0.015661793229 0.015779469648 
0.015893462417 0.01600359199 0.016109739252 0.016211800929 0.016309688941 0.0164029738 0.016491692605 0.01657570466 0.016654896138 
0.01672901294 0.016798119214 0.016861870105 0.016920572517 0.016973826832 0.017021609283 0.017063884371 0.01710057129 0.017131447519 
0.017156820864 0.017176534146 0.017190508668 0.017198791042 0.017201204708 0.017197859122 0.011811398904 0.011960761493 0.012110281224 
0.012259710307 0.01240889973 0.012557629503 0.012706011889 0.012853782246 0.013000812118 0.013146938918 0.013292090656 0.013436155108 
0.013578879323 0.013720115197 0.013859752114 0.013997635887 0.014133711319 0.014267567916 0.014399183223 0.014528379837 0.014655055011 
0.014778763831 0.014899626171 0.015017449771 0.015132014685 0.01524326399 0.01535101861 0.015455101762 0.015555376244 0.015651719523 
0.015743989158 0.01583228299 0.015916057034 0.015995435635 0.01607015634 0.016140232279 0.016205348641 0.016265663156 0.016320989154 
0.016371087814 0.016416132647 0.016456020545 0.016490614898 0.016519965138 0.016543893875 0.016562449052 0.01657528051 0.016583044471 
0.016585326189 0.016582166029 0.011476825074 0.011619284213 0.011761612012 0.01190385489 0.012045749683 0.012187321196 0.012328387151 
0.01246874488 0.01260845823 0.012747293134 0.012885125236 0.013021764609 0.013157201817 0.013291202656 0.013423608217 0.013554313892 
0.013683246132 0.013810197613 0.013934869489 0.014057194418 0.014177034657 0.014294329013 0.014408691237 0.014520197205 0.014628591354 
0.014733803435 0.014835628028 0.014934040026 0.015028828764 0.015119879738 0.015207089044 0.015290315328 0.015369445819 0.015444511265 
0.015515094154 0.015581237365 0.015642942356 0.015699915208 0.015752091304 0.015799529233 0.015842102564 0.01587953484 0.015912169404 
0.01593983256 0.015962413482 0.015979921491 0.015992333647 0.015999587675 0.016001972285 0.015998831803 0.011157704956 0.011293341344 
0.011428963954 0.011564490797 0.011699675989 0.011834404791 0.011968659711 0.012102128327 0.012234863394 0.012366809928 0.012497763127 
0.012627586322 0.012756117938 0.012883328409 0.013009002135 0.013132980502 0.013255157749 0.013375408597 0.013493555135 0.013609599687 
0.013723132676 0.01383413727 0.013942516468 0.014048121246 0.014150659808 0.014250282228 0.014346637059 0.014439677845 0.014529359108 
0.014615432405 0.01469787991 0.014776571335 0.014851367946 0.014922178831 0.014988974495 0.01505160302 0.015109801974 0.015163631819 
0.015213091795 0.01525790032 0.015298101745 0.015333660816 0.015364528962 0.015390463435 0.015412001398 0.015428560375 0.015440271119 
0.015447172986 0.015449232468 0.015446408087 0.010853504327 0.010982991209 0.011112235323 0.011241265033 0.011370043314 0.011498454138 
0.011626243454 0.011753401405 0.011879767484 0.012005288377 0.012129670488 0.012253070171 0.012375103089 0.012495931806 0.012615225841 
0.012732927934 0.012848847837 0.012962940495 0.013075008763 0.013184921826 0.013292700988 0.013397916899 0.013500592736 0.013600626485 
0.013697891311 0.013792004539 0.013883307374 0.013971473058 0.014056347817 0.014137833323 0.014215882206 0.014290324565 0.014361089026 
0.014428056943 0.014491134625 0.014550239333 0.014605447429 0.014656425882 0.014703091295 0.014745484805 0.014783707681 0.014817202055 
0.014846378092 0.014871147779 0.014891329869 0.01490694851 0.014917982782 0.014924466269 0.014926388048 0.014923720591 0.010564140119 
0.010687567655 0.010810853187 0.01093389967 0.011056731148 0.011179123815 0.011300936397 0.011421988012 0.011542274323 0.011661740916 
0.01178025716 0.011897633299 0.012013680992 0.012128516766 0.012241912638 0.012353700338 0.01246383105 0.012572053132 0.012678415437 
0.012782726205 0.012884717686 0.012984535439 0.013082026907 0.013176856127 0.013269030205 0.013358418131 0.01344498961 0.013528393206 
0.013608813574 0.013686055588 0.013759911961 0.013830408116 0.013897564436 0.013961000076 0.01402073345 0.014076665833 0.014128754128 
0.014176899517 0.014221138179 0.014261283876 0.014297251317 0.014329111458 0.014356716396 0.014379996234 0.014399142208 0.014413952003 
0.014424402494 0.014430555439 0.014432525543 0.01442982263 0.010289290048 0.010407151472 0.010524828068 0.010642254916 0.010759288932 
0.010875871493 0.010991927622 0.011107288112 0.011222114148 0.011335864976 0.011448639133 0.011560415773 0.011670948851 0.011780081151 
0.011887905341 0.011994216017 0.01209892464 0.012201845911 0.012302889267 0.012401937263 0.012498933674 0.012593694122 0.012686097192 
0.012776117656 0.012863672013 0.012948464355 0.013030532691 0.013109721487 0.013186013963 0.01325914119 0.013329181737 0.013396020749 
0.013459465937 0.013519543652 0.013576072642 0.013629060998 0.013678381368 0.013723940756 0.013765759009 0.013803714767 0.013837865601 
0.013867976607 0.013894186079 0.013916363503 0.013934523095 0.013948447398 0.013958384774 0.013964234901 0.013965980027 0.013963598642 
0.010028454373 0.010141091163 0.010253467107 0.010365571451 0.010477317806 0.010588576011 0.010699269637 0.010809338699 0.010918602342 
0.011027014891 0.011134576946 0.011240982098 0.011346237138 0.011450407456 0.011553042036 0.011654198531 0.011753671292 0.011851565307 
0.011947649623 0.012041771747 0.012133879099 0.012223900918 0.012311717402 0.012397172184 0.01248024298 0.012560734406 0.012638712133 
0.012713929356 0.012786281729 0.012855717878 0.012922203495 0.012985484515 0.013045705837 0.013102669176 0.013156261962 0.013206433181 
0.013253182387 0.013296394316 0.01333602573 0.013372035503 0.013404344953 0.013432873769 0.013457750708 0.013478745805 0.013495879315 
0.013509281921 0.013518766116 0.013524205048 0.013525825687 0.013523572612 0.0097810186444 0.0098887568086 0.0099961531076 0.010103355191 
0.010210065463 0.010316340517 0.010422003695 0.010527022149 0.010631340491 0.010734754576 0.010837227456 0.010938669068 0.011038994641 
0.011138193967 0.011235990696 0.011332358194 0.011427204961 0.011520368456 0.011611690982 0.011701314747 0.011788970947 0.011874653336 
0.011958054219 0.012039307886 0.012118214856 0.012194699059 0.012268677171 0.012340045514 0.01240890504 0.012474861493 0.012537942731 
0.012598086809 0.012655279576 0.012709280089 0.012760189407 0.012807860866 0.01285219142 0.01289315627 0.012930773757 0.012964910793 
0.012995548604 0.013022615457 0.013046116 0.01306605314 0.013082398432 0.013095003745 0.01310389881 0.013109197264 0.013110838466 
0.013108493492 0.0095464636713 0.0096495743156 0.0097524198128 0.0098549466152 0.0099570331609 0.010058564859 0.010159555154 0.010259836755 
0.01035945109 0.010458193982 0.010556000238 0.010652801685 0.010748512578 0.010843022248 0.010936236273 0.011028138264 0.011118507882 
0.011207320205 0.011294416136 0.011379740851 0.011463136979 0.011544612486 0.011624058925 0.011701357502 0.011776351824 0.011849120732 
0.011919477216 0.011987364977 0.012052681874 0.012115359911 0.01217532222 0.012232576192 0.012286881013 0.012338235609 0.012386611281 
0.012431933051 0.012473982554 0.012512922778 0.012548607909 0.012580975807 0.01261004752 0.012635798477 0.012658099411 0.012676956583 
0.012692358054 0.012704266629 0.01271270353 0.012717771856 0.012719265877 0.012717255949 0.0093242174142 0.0094229856322 0.0095214813289 
0.009619671951 0.009717377544 0.0098145679437 0.0099111760175 0.010007109953 0.010102199646 0.010196582876 0.010290015293 0.010382463434 
0.010473825434 0.010564037844 0.010652982333 0.010740586431 0.010826758521 0.010911444107 0.01099458231 0.011075915364 0.011155461867 
0.01123313034 0.011308819159 0.011382415427 0.011453807953 0.011523094188 0.011590021999 0.011654592983 0.011716714394 0.011776345455 
0.011833406381 0.01188780753 0.011939434246 0.011988276016 0.012034332002 0.01207737517 0.012117453534 0.012154493438 0.012188508761 
0.012219158749 0.012246748833 0.012271153567 0.012292294523 0.012310170897 0.012324834922 0.012336207714 0.012344268108 0.012349005563 
0.012350451411 0.012348546945 0.0091137978264 0.009208491171 0.0093028997366 0.0093969324511 0.0094905126563 0.0095835862812 0.0096761007192 
0.0097678978256 0.0098589435638 0.0099491820561 0.010038515326 0.010126873697 0.010214144879 0.010300341349 0.010385309245 0.010468966538 
0.010551241333 0.010632042587 0.010711298313 0.010788922466 0.010864779587 0.010938821558 0.011011063784 0.01108124409 0.011149377024 
0.011215365274 0.011279177087 0.011340642957 0.011399810074 0.011456594266 0.011510892328 0.011562663691 0.01161181495 0.01165830301 
0.011702120738 0.011743085111 0.011781206747 0.011816426689 0.011848783448 0.011878027419 0.011904269035 0.011927508361 0.011947639522 
0.011964655562 0.01197860631 0.011989429258 0.011997075766 0.012001591189 0.012002972534 0.01200122255 0.0089145057313 0.0090053181887 
0.0090958729395 0.0091860481808 0.009275766911 0.0093649509388 0.0094535355097 0.0095414943894 0.0096286823711 0.0097150709066 0.0098005778052 
0.0098851488891 0.0099686753711 0.010051108575 0.010132344112 0.010212313903 0.010290931658 0.010368087895 0.010443756869 0.010517894817 
0.01059032302 0.010661034355 0.010729889145 0.010796851008 0.010861872913 0.010924807778 0.010985653008 0.011044347268 0.011100846793 
0.011154991673 0.01120674137 0.011256056038 0.01130290773 0.011347152592 0.011388797848 0.011427846904 0.011464155418 0.011497672007 
0.011528421799 0.011556342951 0.011581371355 0.011603494951 0.011622694806 0.011638994663 0.011652293753 0.011662598046 0.011669900459 
0.011674218626 0.011675473155 0.011673706234 0.0087255480016 0.0088128219962 0.0088997579273 0.0089863085555 0.0090724170671 0.009157915568 
0.0092428602139 0.009327159772 0.0094107593372 0.0094935331204 0.0095754426908 0.0096564241718 0.0097364365831 0.0098153202995 0.0098930435501 
0.0099695513193 0.010044754391 0.010118580843 0.010190932427 0.010261763652 0.010330983213 0.010398519972 0.010464278686 0.010528238871 
0.010590331108 0.010650438454 0.010708552959 0.010764569769 0.010818454806 0.010870115209 0.010919523412 0.010966581027 0.011011261827 
0.011053475506 0.011093222257 0.011130417888 0.011165034146 0.011197046751 0.011226355346 0.011252963893 0.011276841212 0.011297932961 
0.011316234647 0.011331718965 0.011344385752 0.011354211953 0.01136119247 0.011365265756 0.011366503505 0.011364860889 0.008546267341 
0.0086301576191 0.0087137016997 0.0087968267763 0.0088795052167 0.0089616581656 0.009043231598 0.0091241160292 0.0092042941111 0.0092836101329 
0.009362170841 0.009439804378 0.0095164475577 0.009592076396 0.0096665247708 0.0097397931481 0.0098118001179 0.009882438004 0.009951680491 
0.010019445943 0.010085664678 0.010150254526 0.010213152887 0.010274293539 0.010333618018 0.010391065727 0.010446619374 0.01050013515 
0.010551591645 0.010600941633 0.010648112296 0.010693042795 0.010735699768 0.010776027565 0.010813957101 0.010849482956 0.010882527153 
0.010913024836 0.010941055038 0.010966437381 0.010989238178 0.011009361867 0.011026849968 0.011041633231 0.011053742951 0.011063100262 
0.0110697464 0.01107366595 0.011074842404 0.011073262471 0.0083758352645 0.0084565402892 0.0085368940949 0.0086168459032 0.0086963092905 
0.008775254788 0.0088535973811 0.0089312887872 0.0090082457012 0.0090844807614 0.0091598525528 0.0092343310761 0.0093078685598 0.0093803578693 
0.0094517111634 0.0095219481849 0.0095909256202 0.0096586292954 0.0097249630335 0.009789860951 0.0098532615235 0.0099150835336 0.0099752889721 
0.010033806914 0.010090576668 0.010145531652 0.010198632104 0.01024979922 0.010298996233 0.010346197777 0.010391308105 0.010434264512 
0.01047502343 0.010513573454 0.010549832556 0.010583762601 0.010615331919 0.01064449809 0.010671216362 0.010695458337 0.010717209352 
0.010736427945 0.010753137359 0.010767255039 0.010778821156 0.010787780851 0.010794098889 0.010797858797 0.010798986399 0.010797499433 
0.0082136021379 0.0082913098661 0.0083686510982 0.0084455749013 0.0085218642503 0.0085977787528 0.0086731135591 0.0087477929564 0.008821761443 
0.008894959383 0.0089673582212 0.0090388953744 0.0091094716021 0.0091790582061 0.009247590534 0.0093150006001 0.0093811900188 0.0094461138375 
0.0095096899493 0.0095718117265 0.0096325717488 0.0096918283061 0.0097495176301 0.0098055652292 0.0098599264858 0.0099125408323 0.0099633647911 
0.010012350149 0.010059442855 0.01010458276 0.010147734568 0.010188856935 0.010227863388 0.010264731126 0.01029942456 0.010331883488 
0.010362070082 0.010389962379 0.010415507784 0.010438689697 0.010459497567 0.010477863914 0.010493811052 0.010507307449 0.0105183615 
0.010526926594 0.010533039981 0.01053661886 0.010537681958 0.010536259546 0.0080583108795 0.0081332112358 0.0082077088332 0.0082817994308 
0.0083554029762 0.0084284710583 0.0085009485507 0.0085727898347 0.0086439317866 0.0087143229661 0.0087837432861 0.0088524828921 0.0089202909316 
0.008987126091 0.0090529277164 0.0091176408686 0.0091812143233 0.0092435296652 0.0093045607398 0.0093642553693 0.0094225307731 0.0094793539931 
0.0095346592662 0.0095883949716 0.0096405081494 0.0096908335454 0.0097395413589 0.009786474097 0.0098315846123 0.0098748389953 0.0099161691683 
0.0099555258194 0.0099928822483 0.010028179124 0.010061359408 0.010092448696 0.010121346472 0.010148049539 0.010172501867 0.01019468989 
0.010214589441 0.010232192717 0.010247457241 0.010260374515 0.010270936516 0.010279130381 0.010284946508 0.010288376387 0.010289421437 
0.010288090782 0.0079093094093 0.0079814923576 0.0080533520717 0.0081247165843 0.0081956280439 0.0082660022259 0.0083358046961 0.0084049557799 
0.0084734330122 0.0085411657844 0.0086081058399 0.0086741963078 0.0087393967221 0.0088036410561 0.008866876376 0.0089290444969 0.0089900874561 
0.0090498210918 0.0091084412664 0.0091657743861 0.0092217366566 0.009276278228 0.0093293490912 0.0093808844146 0.0094308633734 0.0094792398501 
0.0095259504858 0.0095709720631 0.0096142257548 0.0096556852235 0.0096952975734 0.0097330216201 0.00976870964 0.0098025390685 0.0098343612966 
0.0098641309497 0.0098918074729 0.0099173762714 0.0099408130805 0.009962070437 0.0099811314241 0.0099979769138 0.010012592493 0.010024966904 
0.010035078937 0.010042927975 0.01004850016 0.010051789924 0.010052775463 0.010051489657 0.0077656424802 0.0078352809622 0.0079045353582 
0.0079734109314 0.0080417658988 0.0081095759747 0.0081768208892 0.0082434395522 0.0083093737815 0.0083745918067 0.0084390288828 0.0085026492638 