# vtk DataFile Version 5.1
vtk output
ASCII
DATASET STRUCTURED_POINTS
DIMENSIONS 50 50 50
SPACING 0.002 0.002 0.002
ORIGIN 0.1742 -0.052672 0.02732
POINT_DATA 125000
FIELD FieldData 1
potential 1 125000 double
0.3005908345 0.30059310276 0.30059550906 0.30059773792 0.30059989496 0.30060188376 0.30060377804 0.30060574861 0.30060780074 
0.30060968421 0.30061137042 0.30061293209 0.30061442786 0.30061558955 0.30061685799 0.30061798439 0.30061894339 0.30062007957 
0.30062089522 0.3006216041 0.30062209849 0.30062245712 0.30062258229 0.30062274312 0.30062291329 0.30062294693 0.30062292756 
0.30062272395 0.30062232229 0.300622034 0.30062169555 0.30062136456 0.30062097064 0.30062077735 0.3006204071 0.3006199115 
0.3006194345 0.30061888488 0.30061821389 0.30061798988 0.30061760842 0.30061737237 0.30061704399 0.30061647018 0.30061593599 
0.30061561825 0.30061527664 0.3006149908 0.30061471465 0.3006146606 0.31659455816 0.31659661376 0.3165990444 0.31660104775 
0.31660310344 0.31660506094 0.31660674017 0.31660854974 0.31661045591 0.31661212426 0.31661371927 0.31661525248 0.31661645392 
0.31661770184 0.31661885675 0.31661990724 0.31662081314 0.31662170546 0.31662262468 0.316623201 0.31662371417 0.31662405627 
0.31662413769 0.31662428666 0.31662451725 0.31662445935 0.31662422736 0.31662430417 0.31662379674 0.31662352398 0.31662321122 
0.31662293513 0.31662250454 0.316622472 0.31662196847 0.31662166653 0.31662132557 0.31662069291 0.31662018584 0.3166198665 
0.31661955498 0.31661919475 0.31661884543 0.31661851168 0.3166178695 0.31661754661 0.31661721797 0.31661692488 0.31661663089 
0.31661664366 0.33292594999 0.33292787437 0.33293003244 0.33293174255 0.33293379118 0.33293563176 0.33293725102 0.33293883228 
0.33294071577 0.33294227698 0.33294360842 0.33294512086 0.33294637787 0.33294747347 0.3329485573 0.33294948214 0.33295033841 
0.33295119117 0.33295192579 0.33295239282 0.33295297088 0.33295333869 0.33295332967 0.33295353194 0.33295363377 0.33295362388 
0.33295337132 0.33295349313 0.33295297815 0.332952724 0.33295244877 0.33295216995 0.33295183332 0.3329516698 0.33295110895 
0.3329508949 0.33295057257 0.33295005495 0.3329496611 0.33294930579 0.33294894163 0.33294859071 0.33294803402 0.33294775198 
0.33294740449 0.3329470711 0.3329467705 0.33294648738 0.33294620977 0.3329460291 0.34950502784 0.3495067641 0.34950861908 
0.34951027601 0.34951211613 0.34951374905 0.34951524994 0.34951689798 0.34951846237 0.349519974 0.3495213216 0.34952277306 
0.34952386029 0.34952512157 0.34952615638 0.34952704421 0.34952784376 0.34952832845 0.3495291357 0.34952944749 0.34952989085 
0.34953014849 0.34953049767 0.34953021636 0.34953043198 0.34953040509 0.34953021323 0.34953023362 0.34952998794 0.34952975257 
0.34952949067 0.34952918877 0.34952883018 0.34952831293 0.34952801788 0.34952763966 0.34952736641 0.34952682818 0.34952680199 
0.34952617468 0.34952588015 0.34952550339 0.34952521238 0.34952477812 0.34952464175 0.34952435358 0.34952405984 0.34952377505 
0.34952337155 0.34952320125 0.36624693032 0.36624843717 0.36625017019 0.36625160566 0.3662530799 0.36625466525 0.36625615585 
0.36625782127 0.36625912034 0.36626046225 0.36626190331 0.36626324007 0.36626440705 0.36626563296 0.36626662363 0.36626747452 
0.36626814449 0.36626851056 0.36626899802 0.36626934759 0.36626963728 0.36626982521 0.36627018699 0.36626990544 0.36626999621 
0.36626994015 0.36627001139 0.36626993773 0.36626981858 0.36626967611 0.36626950401 0.36626914958 0.36626863625 0.36626816994 
0.36626775692 0.36626732483 0.36626694944 0.36626649916 0.36626635683 0.36626578364 0.3662655932 0.36626526077 0.36626511372 
0.36626478973 0.36626468864 0.36626450949 0.36626422163 0.36626383409 0.36626345193 0.36626314774 0.38306260062 0.38306404246 
0.38306544259 0.38306677517 0.38306806631 0.38306950932 0.38307101742 0.38307238174 0.38307368247 0.38307496363 0.38307637916 
0.38307774481 0.38307890174 0.38307993451 0.38308099501 0.38308179361 0.38308230128 0.38308275966 0.38308300272 0.38308312016 
0.38308318398 0.38308336959 0.38308353444 0.38308344095 0.38308347495 0.38308346497 0.38308360204 0.38308363141 0.38308362437 
0.38308342769 0.38308333791 0.38308294016 0.38308244504 0.38308198373 0.38308139402 0.38308086675 0.38308027511 0.38308000455 
0.38307967459 0.38307936255 0.38307898671 0.38307890804 0.38307885421 0.38307870792 0.38307853093 0.38307842029 0.38307824024 
0.38307777567 0.38307733283 0.38307706896 0.39986006157 0.39986138831 0.39986240735 0.39986366878 0.39986476434 0.39986593269 
0.39986744439 0.39986849889 0.39986987987 0.39987102511 0.39987249565 0.39987392513 0.39987517643 0.39987614842 0.39987704602 
0.39987780384 0.39987826339 0.39987866935 0.39987871125 0.3998786708 0.39987857349 0.39987873428 0.39987863563 0.39987885061 
0.39987862367 0.39987883652 0.39987896434 0.39987910784 0.39987917479 0.39987908733 0.39987886413 0.39987854177 0.39987798223 
0.39987746471 0.39987677286 0.3998760549 0.39987547178 0.39987516223 0.39987479808 0.39987448265 0.39987421637 0.39987424796 
0.39987428772 0.39987433115 0.39987420297 0.39987410347 0.39987394794 0.39987352191 0.39987308862 0.39987233084 0.41654452709 
0.41654570582 0.41654652814 0.41654755436 0.41654850094 0.41654949191 0.41655084655 0.41655189458 0.41655311516 0.41655450107 
0.41655589596 0.41655714163 0.41655857375 0.41655958182 0.41656041978 0.41656111005 0.41656147201 0.41656167209 0.41656164599 
0.41656148619 0.41656130804 0.41656119472 0.41656113574 0.41656132871 0.41656107799 0.41656126396 0.41656153377 0.4165615778 
0.41656185553 0.41656184936 0.41656149041 0.41656126798 0.41656076065 0.41656003719 0.41655922536 0.41655845221 0.41655774866 
0.41655759964 0.41655700508 0.41655670885 0.41655658579 0.41655670807 0.4165568833 0.41655701275 0.41655699025 0.41655695344 
0.41655666447 0.41655636485 0.41655582989 0.41655509238 0.43301988186 0.43302100718 0.43302159804 0.43302259041 0.43302331776 
0.43302424706 0.43302532252 0.43302661148 0.4330276189 0.43302903551 0.43303048063 0.43303160157 0.43303306486 0.43303410861 
0.4330348776 0.43303541743 0.43303577159 0.43303583268 0.43303552684 0.43303533108 0.43303511446 0.43303490914 0.43303497107 
0.43303478659 0.43303476033 0.43303498142 0.43303523871 0.43303530486 0.43303567504 0.43303564135 0.43303529297 0.43303501704 
0.43303450271 0.4330334845 0.43303285746 0.43303191454 0.43303131865 0.43303083872 0.43303048294 0.43303019143 0.43303026949 
0.43303033231 0.43303056395 0.43303075289 0.4330309484 0.43303071937 0.43303056694 0.43303023387 0.43302970981 0.43302879414 
0.44918963103 0.44919066499 0.44919119612 0.4491921593 0.44919271929 0.44919360382 0.44919461699 0.44919570457 0.44919676863 
0.44919817773 0.44919956863 0.44920072671 0.44920211702 0.44920313706 0.44920381511 0.44920430584 0.4492046502 0.44920456087 
0.44920410878 0.4492038747 0.44920360523 0.44920320918 0.449203255 0.44920311887 0.44920316977 0.44920329236 0.44920358997 
0.44920356516 0.44920393274 0.44920388806 0.44920355893 0.44920300814 0.44920265788 0.44920166782 0.44920108599 0.44920007117 
0.44919944245 0.44919899391 0.44919877675 0.44919854988 0.4491984722 0.44919859215 0.44919864715 0.449198908 0.44919926775 
0.44919913627 0.4491989386 0.4491986047 0.44919805287 0.44919705576 0.46495779916 0.46495865897 0.46495930952 0.46496014401 
0.46496077006 0.46496156065 0.46496249718 0.46496348719 0.46496451878 0.46496590587 0.46496718323 0.46496833146 0.46496941369 
0.46497052235 0.46497114407 0.46497150995 0.46497186236 0.4649716508 0.46497138594 0.46497119322 0.46497069557 0.46497026514 
0.46497022928 0.46497008573 0.46497015135 0.46497029394 0.46497050822 0.4649704427 0.46497065173 0.4649705299 0.46497031283 
0.46496970066 0.46496932338 0.46496841988 0.46496776142 0.46496695065 0.46496622074 0.46496577737 0.46496543541 0.46496532369 
0.46496524035 0.4649654488 0.46496556705 0.46496572184 0.464965993 0.46496583197 0.46496561157 0.46496523069 0.46496472512 
0.46496392025 0.48023002882 0.48023076149 0.48023156498 0.48023239933 0.48023308532 0.48023358679 0.48023469034 0.48023564998 
0.48023660946 0.48023788815 0.48023904666 0.48024012761 0.48024104907 0.48024209265 0.48024262367 0.48024295212 0.48024320602 
0.48024306056 0.48024285614 0.48024260324 0.48024215382 0.48024174662 0.48024157829 0.48024140332 0.48024141916 0.48024150493 
0.48024160857 0.48024142595 0.48024157588 0.480241459 0.48024115026 0.48024063619 0.48024016726 0.48023937051 0.48023874373 
0.48023805889 0.48023730909 0.48023692639 0.48023654539 0.48023647937 0.48023640889 0.48023651587 0.48023657858 0.48023668638 
0.48023690036 0.48023670076 0.48023641215 0.48023615148 0.48023558172 0.48023501384 0.49491505185 0.4949157946 0.49491653783 
0.49491752896 0.49491819378 0.49491873716 0.49491981481 0.49492072549 0.49492162406 0.49492278751 0.49492387888 0.49492472525 
0.49492562628 0.49492654422 0.49492701494 0.49492726818 0.49492757524 0.49492736534 0.49492718382 0.49492708547 0.49492662331 
0.49492635687 0.49492606989 0.49492583214 0.49492563524 0.49492565427 0.494925641 0.49492533817 0.49492529552 0.49492523124 
0.49492486311 0.49492437617 0.49492372007 0.49492314319 0.49492276092 0.4949220787 0.49492128534 0.49492105782 0.49492074835 
0.49492064733 0.4949204742 0.49492054276 0.49492047192 0.49492050052 0.49492064572 0.49492045973 0.49492019227 0.49491997502 
0.4949194628 0.4949189506 0.50892593626 0.50892662922 0.50892748663 0.50892855405 0.50892933094 0.5089298639 0.50893097712 
0.50893197393 0.50893265525 0.50893369849 0.50893468228 0.50893533525 0.50893610856 0.50893692789 0.50893714342 0.50893758404 
0.5089377558 0.50893759487 0.50893751078 0.50893749289 0.50893716493 0.5089368078 0.50893651718 0.50893630549 0.50893588423 
0.50893583921 0.50893569652 0.50893535906 0.50893512949 0.50893495739 0.5089344796 0.50893403391 0.50893342391 0.50893294444 
0.50893247597 0.50893220999 0.50893145391 0.50893119881 0.50893095972 0.50893069016 0.50893061629 0.50893053936 0.50893030762 
0.50893030992 0.50893033676 0.50893026523 0.50892987693 0.50892980161 0.50892928299 0.5089288791 0.52218167833 0.52218239265 
0.52218328345 0.52218430435 0.52218516532 0.52218573803 0.52218667677 0.5221876912 0.52218825472 0.52218934382 0.52219012125 
0.52219058698 0.52219130484 0.52219186553 0.52219213544 0.52219244492 0.52219254294 0.52219266762 0.52219260359 0.5221926549 
0.52219233103 0.5221919964 0.52219160379 0.52219142705 0.52219096152 0.5221908252 0.52219048651 0.52219006088 0.52218970505 
0.52218943639 0.5221888914 0.52218855682 0.52218798195 0.52218754631 0.52218716225 0.52218698959 0.52218647267 0.52218611407 
0.52218590643 0.52218571595 0.52218551609 0.52218538485 0.52218502576 0.52218497923 0.52218492675 0.52218465236 0.52218447206 
0.52218437924 0.52218389032 0.52218369871 0.53460778009 0.53460865008 0.53460965827 0.53461066232 0.5346115406 0.53461205339 
0.53461301004 0.53461401815 0.53461460084 0.53461533626 0.53461608037 0.53461653135 0.5346170312 0.53461751195 0.53461778912 
0.53461803542 0.53461807213 0.53461814577 0.53461823018 0.53461835711 0.53461799517 0.53461771962 0.53461736555 0.53461721 
0.53461656862 0.53461648452 0.53461605243 0.53461548315 0.53461505851 0.53461449527 0.53461420741 0.53461395799 0.53461336174 
0.53461311017 0.53461287763 0.53461250286 0.53461203468 0.53461176355 0.53461149994 0.53461138442 0.53461109281 0.53461085764 
0.53461055554 0.53461040004 0.53461026331 0.53461003558 0.53460985858 0.53460953415 0.53460928569 0.53460924125 0.54613898643 
0.5461398632 0.54614093875 0.54614198548 0.54614271797 0.54614327975 0.54614411198 0.546145078 0.54614559729 0.54614623961 
0.54614699701 0.54614733377 0.54614772491 0.54614808598 0.54614827215 0.54614849577 0.54614858892 0.54614875327 0.54614891911 
0.5461489134 0.54614859931 0.54614833704 0.54614814803 0.54614789381 0.54614727333 0.54614696725 0.54614662001 0.54614597025 
0.54614551973 0.54614478059 0.54614445852 0.54614410894 0.54614366895 0.54614337964 0.54614335513 0.5461429051 0.54614236526 
0.54614211553 0.54614196308 0.54614180684 0.5461414649 0.54614133038 0.54614103898 0.5461408236 0.54614061588 0.54614026189 
0.54614019837 0.5461399303 0.54613975982 0.54613982878 0.55671872679 0.55671965245 0.5567204903 0.55672169081 0.55672222234 
0.55672279336 0.5567236254 0.55672446104 0.55672501721 0.55672538469 0.55672637563 0.55672658951 0.55672687465 0.55672703759 
0.5567271562 0.55672737425 0.55672754513 0.55672774175 0.55672796405 0.55672810301 0.55672762716 0.55672733121 0.55672713706 
0.55672695005 0.55672631331 0.55672613796 0.55672567571 0.55672485923 0.55672437591 0.5567236399 0.5567235179 0.55672296137 
0.55672248031 0.55672225853 0.55672232756 0.55672190726 0.55672122495 0.55672104184 0.55672091891 0.55672078689 0.5567203234 
0.55672045885 0.55672007836 0.5567197823 0.55671965118 0.55671930596 0.55671915097 0.55671892951 0.55671893399 0.55671892144 
0.56630043183 0.56630129901 0.56630209225 0.5663032058 0.56630361301 0.56630426603 0.56630508923 0.56630574404 0.56630624474 
0.5663068883 0.5663074551 0.56630770437 0.56630790153 0.56630809917 0.56630823881 0.56630829526 0.56630853179 0.56630864054 
0.56630888077 0.56630898002 0.56630853307 0.5663081278 0.56630802715 0.56630777317 0.56630722279 0.56630700759 0.56630664027 
0.56630588355 0.56630535371 0.56630460978 0.56630426429 0.56630394045 0.56630355619 0.56630318223 0.56630323095 0.56630286236 
0.56630226435 0.56630193097 0.5663018283 0.5663015985 0.56630139575 0.56630135954 0.56630105307 0.56630085084 0.56630056727 
0.56630032434 0.56630006119 0.56629999603 0.56629999023 0.56629990077 0.57484740117 0.57484828081 0.57484899745 0.57484996055 
0.57485043299 0.57485101761 0.57485177948 0.57485228626 0.57485282158 0.57485333706 0.57485395651 0.5748541023 0.57485432313 
0.57485447377 0.57485457228 0.574854565 0.57485487686 0.57485491917 0.57485510409 0.57485515742 0.57485476016 0.57485444186 
0.57485423626 0.57485396073 0.57485352401 0.57485323954 0.57485284941 0.57485233694 0.57485183764 0.57485118637 0.57485054149 
0.57485031132 0.5748499773 0.57484959701 0.57484948987 0.57484925095 0.57484855932 0.57484856012 0.57484813405 0.57484785146 
0.57484777343 0.57484778345 0.57484760619 0.57484730364 0.574847026 0.57484682181 0.57484640391 0.57484649439 0.57484650556 
0.5748463779 0.58233267353 0.58233346887 0.58233408538 0.58233502619 0.5823354128 0.58233589719 0.58233677242 0.58233719375 
0.58233756165 0.58233803352 0.58233867861 0.58233875093 0.58233904435 0.58233908525 0.58233901041 0.5823389494 0.58233939003 
0.5823394568 0.58233942534 0.58233976784 0.58233922992 0.58233890655 0.5823388527 0.58233845878 0.58233814256 0.58233773809 
0.58233749714 0.58233688333 0.58233649132 0.58233592002 0.58233527666 0.58233487125 0.58233460705 0.58233418495 0.58233417456 
0.58233357704 0.58233322594 0.58233318131 0.58233281488 0.58233243289 0.58233246826 0.5823324793 0.58233236341 0.5823320764 
0.58233181251 0.58233145859 0.58233123323 0.58233132646 0.58233133432 0.58233123679 0.58873740797 0.58873817978 0.58873883192 
0.58873986421 0.58873998709 0.58874047469 0.58874122273 0.58874164137 0.58874188554 0.58874240609 0.58874288605 0.58874301946 
0.58874320679 0.5887432675 0.58874314993 0.58874314804 0.58874356046 0.58874356329 0.58874369012 0.58874375065 0.58874337683 
0.58874303354 0.58874303285 0.58874262333 0.58874231599 0.58874198727 0.58874183443 0.58874119723 0.5887407123 0.58874003439 
0.58873959662 0.58873914595 0.58873895881 0.58873851244 0.58873844289 0.58873788539 0.588737536 0.58873735889 0.58873726108 
0.58873684319 0.58873685348 0.58873690448 0.58873675592 0.58873647614 0.58873628804 0.5887359583 0.5887358629 0.58873594058 
0.58873585355 0.58873576261 0.59405024157 0.59405101352 0.5940515981 0.59405256075 0.59405272973 0.59405320991 0.59405390148 
0.59405412954 0.59405438251 0.59405492308 0.59405529691 0.59405550918 0.59405557563 0.594055408 0.59405553193 0.59405556186 
0.59405560863 0.59405585464 0.59405607561 0.59405589969 0.59405560162 0.59405553603 0.59405530038 0.59405504079 0.59405475831 
0.59405440589 0.5940542329 0.59405362636 0.59405305584 0.59405245199 0.59405207339 0.59405165649 0.59405135277 0.59405104383 
0.5940511163 0.59405040187 0.59405009087 0.59404997329 0.59404981319 0.59404955807 0.59404939723 0.59404945521 0.59404942412 
0.59404913139 0.59404874268 0.59404857933 0.59404849299 0.59404839271 0.59404853129 0.59404846146 0.59826502462 0.59826572987 
0.59826647769 0.59826720342 0.59826744198 0.59826791859 0.59826841837 0.59826879651 0.59826906398 0.59826941651 0.59826978834 
0.59827002358 0.59826999317 0.59826979008 0.59826991819 0.59826998034 0.5982699211 0.59827021827 0.59827039026 0.59827028002 
0.59826997646 0.59826994586 0.59826965406 0.59826938027 0.59826924854 0.59826887501 0.59826863859 0.59826817748 0.59826741717 
0.59826688263 0.59826653984 0.59826623368 0.59826583775 0.59826557893 0.59826572377 0.59826508707 0.59826475445 0.59826469735 
0.59826445041 0.59826425613 0.59826398709 0.59826414533 0.59826409169 0.59826375515 0.59826329933 0.59826330042 0.59826316261 
0.59826306951 0.5982632577 0.59826337354 0.60137946552 0.60138020529 0.60138105167 0.6013815984 0.60138184269 0.60138234425 
0.60138279076 0.60138301735 0.60138333398 0.60138382676 0.60138401082 0.60138421148 0.60138404754 0.60138388338 0.6013839579 
0.60138398103 0.60138400948 0.60138430598 0.60138447918 0.60138434153 0.60138417959 0.60138409916 0.60138381488 0.60138357908 
0.60138333583 0.60138304973 0.6013828008 0.60138246013 0.60138152528 0.60138105444 0.60138077282 0.6013804546 0.60138005201 
0.60138008333 0.60137978153 0.60137943907 0.60137930203 0.60137913895 0.60137884082 0.60137861117 0.60137850083 0.60137851106 
0.60137843313 0.60137825294 0.60137770248 0.60137757795 0.60137760309 0.60137747464 0.60137754341 0.60137777137 0.6033933284 
0.60339403545 0.60339484118 0.6033953269 0.60339572575 0.60339611646 0.60339659344 0.6033967911 0.60339704196 0.6033974667 
0.60339775249 0.60339797157 0.60339785156 0.60339744844 0.60339742722 0.6033976988 0.60339761315 0.60339789803 0.60339806824 
0.6033979429 0.60339776471 0.6033977725 0.60339753853 0.6033971693 0.60339694467 0.60339675888 0.60339647552 0.60339608092 
0.60339529542 0.60339471328 0.60339443536 0.60339419363 0.60339381739 0.60339389947 0.60339367923 0.6033935523 0.60339319426 
0.60339306492 0.60339272342 0.60339244399 0.6033923082 0.60339249616 0.60339222015 0.60339198488 0.60339161605 0.60339151056 
0.6033912958 0.60339132205 0.60339139956 0.60339159643 0.60430733669 0.60430794998 0.60430869716 0.60430927396 0.60430950053 
0.60430991305 0.60431036417 0.60431050747 0.6043108575 0.60431124733 0.60431149515 0.60431142173 0.60431142874 0.60431120378 
0.604311045 0.6043112123 0.60431135716 0.60431147452 0.6043115584 0.6043117095 0.60431144453 0.60431141188 0.60431099242 
0.60431080397 0.60431057995 0.60431055634 0.60431011557 0.604309749 0.60430900458 0.60430847442 0.60430814336 0.60430789565 
0.60430772544 0.60430780908 0.60430754041 0.60430745651 0.60430711103 0.60430698609 0.60430657123 0.60430640832 0.60430621562 
0.60430631962 0.60430603135 0.60430605717 0.60430553572 0.60430519228 0.60430510918 0.60430520572 0.60430528044 0.60430552355 
0.60412168388 0.60412226046 0.6041229907 0.60412339329 0.60412376778 0.60412410752 0.60412458716 0.60412477915 0.6041250996 
0.604125439 0.60412569488 0.60412561043 0.60412545335 0.60412525008 0.60412523494 0.60412540613 0.60412536338 0.60412574114 
0.60412575747 0.60412589404 0.60412554754 0.60412549802 0.60412517682 0.6041249396 0.60412473799 0.60412467333 0.6041242392 
0.60412389288 0.60412320529 0.6041226507 0.60412242043 0.60412224305 0.60412208854 0.6041221726 0.60412182574 0.60412179652 
0.60412141925 0.60412132235 0.60412095327 0.60412076727 0.60412076543 0.60412068938 0.60412044058 0.60412025493 0.60411975287 
0.60411945139 0.60411942955 0.60411942711 0.60411958301 0.60411972411 0.60283627493 0.602836753 0.60283758196 0.60283805819 
0.60283849476 0.60283872655 0.60283913496 0.60283928747 0.60283959766 0.60283993822 0.60284008869 0.60284018109 0.60284008706 
0.60283972629 0.60283980771 0.60284000696 0.60283994499 0.60284022056 0.6028403575 0.60284030456 0.60284009744 0.60284010954 
0.60283967029 0.60283947554 0.60283921488 0.6028391887 0.60283877795 0.60283850648 0.60283767349 0.6028373407 0.60283695101 
0.60283688091 0.60283659962 0.60283671396 0.60283652237 0.60283653845 0.60283615511 0.60283597332 0.60283567233 0.60283546313 
0.60283550992 0.60283535772 0.60283510553 0.6028348117 0.60283427032 0.60283412932 0.6028340543 0.60283403273 0.60283430347 
0.60283446727 0.60045062937 0.60045117627 0.60045196154 0.60045239493 0.60045279091 0.60045308842 0.60045347612 0.60045359194 
0.60045382217 0.60045412759 0.60045433675 0.60045451452 0.6004542876 0.60045400891 0.6004540387 0.6004542065 0.6004541431 
0.60045447268 0.60045464677 0.60045455064 0.60045443518 0.60045434533 0.60045404663 0.60045379285 0.60045348266 0.60045341422 
0.60045308434 0.60045274936 0.60045215128 0.6004517003 0.60045149668 0.60045133198 0.60045101403 0.60045122115 0.60045092533 
0.60045093616 0.60045064438 0.60045054267 0.60045018077 0.60044993942 0.6004499155 0.60044977685 0.60044963184 0.60044927914 
0.60044859357 0.60044842693 0.60044855946 0.6004484592 0.60044852408 0.6004488242 0.59696427097 0.59696486546 0.59696536098 
0.59696599323 0.596966418 0.5969665796 0.59696721048 0.59696732975 0.59696737593 0.59696759862 0.59696785195 0.59696805968 
0.59696793327 0.59696761066 0.59696766513 0.59696782709 0.59696768006 0.59696800112 0.5969682435 0.59696808582 0.59696783866 
0.5969679773 0.59696773337 0.59696730846 0.59696705834 0.59696720253 0.59696679955 0.59696639112 0.59696592204 0.59696542195 
0.5969652505 0.59696508646 0.59696491974 0.59696483484 0.59696486899 0.59696460166 0.59696429421 0.59696432872 0.59696405223 
0.59696375166 0.59696355609 0.5969634405 0.5969632593 0.59696286129 0.5969622555 0.5969621732 0.59696219573 0.59696207209 
0.5969622051 0.59696243298 0.59237804553 0.59237860552 0.59237911304 0.59237980102 0.59238003144 0.59238028217 0.5923808477 
0.59238092467 0.59238098327 0.5923812631 0.59238144933 0.59238153046 0.59238149134 0.59238123525 0.59238113798 0.59238142328 
0.59238140252 0.59238156694 0.59238168734 0.59238164398 0.59238155866 0.59238141578 0.59238131543 0.59238122185 0.59238085611 
0.59238087419 0.59238074106 0.59238022138 0.59237977928 0.59237936388 0.59237909854 0.59237886503 0.59237880111 0.59237858635 
0.59237870131 0.59237837727 0.59237800219 0.59237791097 0.5923777811 0.59237729202 0.59237721023 0.5923771091 0.59237698083 
0.5923765645 0.59237621907 0.59237585881 0.59237577571 0.59237581158 0.59237581618 0.59237580123 0.58669522229 0.58669573783 
0.5866961846 0.58669684777 0.58669714839 0.58669727821 0.58669771457 0.58669790934 0.58669785119 0.58669828228 0.58669860576 
0.58669840597 0.58669844318 0.58669844713 0.58669817353 0.58669841444 0.58669862916 0.58669862582 0.58669872953 0.58669871284 
0.58669858104 0.58669831073 0.58669842835 0.58669822905 0.58669803107 0.58669804001 0.58669791419 0.5866973993 0.5866970341 
0.58669664019 0.58669633595 0.58669608596 0.58669606334 0.5866957981 0.58669568187 0.58669549893 0.58669508689 0.58669504256 
0.58669477441 0.5866943438 0.58669428814 0.58669416983 0.58669393689 0.5866935747 0.58669329635 0.58669280024 0.58669279593 
0.58669307979 0.58669285644 0.58669273046 0.57992329395 0.57992378272 0.57992420093 0.57992481992 0.57992518564 0.57992526934 
0.57992582515 0.57992587231 0.57992601058 0.57992644418 0.5799265491 0.57992647844 0.57992661924 0.57992654885 0.57992621454 
0.57992641274 0.57992666115 0.57992667852 0.57992685973 0.57992694394 0.57992679367 0.57992654219 0.57992652585 0.57992648632 
0.5799263054 0.5799263422 0.5799261488 0.57992556875 0.57992541519 0.57992498384 0.57992456889 0.57992445784 0.57992426684 
0.57992399938 0.57992384637 0.57992356913 0.57992327793 0.57992320177 0.5799227847 0.57992237211 0.57992235361 0.57992233023 
0.57992193837 0.57992156231 0.57992124595 0.57992085763 0.5799208131 0.57992092211 0.57992073088 0.57992058635 0.57207595849 
0.57207639478 0.57207695913 0.57207753899 0.57207789513 0.57207813632 0.57207841172 0.57207864856 0.57207872701 0.5720791411 
0.57207932945 0.57207932327 0.57207933105 0.57207928344 0.57207905977 0.57207931778 0.57207944015 0.57207945464 0.57207966062 
0.57207971049 0.57207967644 0.57207947689 0.572079496 0.57207939149 0.57207922603 0.572079213 0.5720790318 0.57207867227 
0.57207833935 0.57207781635 0.57207730381 0.5720770905 0.57207700199 0.57207678867 0.57207655984 0.57207646734 0.57207598222 
0.57207581923 0.57207538643 0.57207526051 0.57207484156 0.57207476698 0.57207438937 0.57207408554 0.57207382095 0.57207340757 
0.57207319197 0.57207327542 0.57207316093 0.57207306091 0.56317424175 0.56317485246 0.56317544177 0.56317620119 0.5631764827 
0.56317673946 0.56317711717 0.56317733195 0.56317738899 0.5631777818 0.56317802341 0.5631778973 0.56317792325 0.56317789234 
0.5631777991 0.56317806241 0.56317809189 0.56317817277 0.56317847411 0.56317858085 0.56317846792 0.56317826425 0.56317842691 
0.56317831915 0.56317809049 0.56317807428 0.5631779354 0.56317731822 0.56317698045 0.56317647569 0.56317599018 0.5631757391 
0.56317552809 0.563175304 0.56317525863 0.56317485308 0.56317439923 0.56317407113 0.56317390633 0.56317368156 0.56317323132 
0.56317307913 0.56317272158 0.56317229927 0.5631720398 0.56317167537 0.56317138576 0.56317143788 0.56317129631 0.56317138825 
0.55324874112 0.55324936075 0.55324989945 0.55325066365 0.5532509341 0.55325126113 0.55325158405 0.55325198004 0.55325205276 
0.55325229592 0.55325256492 0.55325253604 0.55325255611 0.5532524634 0.55325257683 0.55325280232 0.55325282226 0.5532530265 
0.55325323454 0.55325331163 0.55325309316 0.55325326355 0.55325334563 0.55325324428 0.55325293692 0.5532528369 0.55325269526 
0.55325204768 0.55325170606 0.5532511267 0.5532507813 0.55325033179 0.55325012083 0.55324975378 0.55324978168 0.55324924708 
0.55324880978 0.55324841177 0.55324819263 0.55324789833 0.55324745007 0.5532472918 0.55324682191 0.55324640461 0.55324618882 
0.55324570442 0.55324569251 0.55324547037 0.55324538505 0.55324533212 0.54233888274 0.54233955624 0.54234014372 0.54234073477 
0.54234122623 0.54234160526 0.54234190833 0.54234229632 0.5423423939 0.5423427597 0.54234294326 0.54234293041 0.54234310569 
0.54234317099 0.54234328188 0.54234344248 0.54234344679 0.54234368517 0.54234388577 0.54234398242 0.54234398157 0.54234400427 
0.54234399168 0.54234392174 0.54234356975 0.54234335842 0.54234309913 0.54234252519 0.54234220723 0.54234169873 0.542341168 
0.54234073328 0.54234041538 0.54234001832 0.54233977251 0.54233915544 0.54233863421 0.54233843949 0.54233813581 0.54233776286 
0.54233723573 0.5423369862 0.542336561 0.54233625433 0.54233588499 0.54233560416 0.54233542623 0.54233512904 0.54233501779 
0.5423350463 0.53049466425 0.53049540614 0.53049600351 0.53049652744 0.53049686156 0.53049717376 0.53049774944 0.53049805266 
0.53049828453 0.53049867945 0.53049895832 0.53049900482 0.53049927975 0.53049941696 0.53049961004 0.53049974903 0.53049978328 
0.53049993385 0.53050009447 0.53050025582 0.53050022418 0.53050027713 0.53050002125 0.5305000317 0.53049958079 0.53049943146 
0.53049916734 0.5304986973 0.53049836616 0.53049777475 0.53049719123 0.53049679188 0.53049612748 0.53049574169 0.53049520704 
0.53049467578 0.53049409574 0.53049366448 0.53049331274 0.53049297416 0.53049236342 0.53049216314 0.53049163846 0.5304914398 
0.53049111764 0.53049089085 0.53049066489 0.53049030562 0.53049009247 0.5304899641 0.51777569282 0.51777620728 0.51777674076 
0.51777736824 0.51777759717 0.51777782909 0.51777838897 0.51777891588 0.5177789511 0.51777961427 0.51778008133 0.51778025908 
0.5177805303 0.51778092667 0.51778112441 0.51778137241 0.51778144637 0.51778163766 0.51778162203 0.51778159519 0.51778148207 
0.51778123402 0.51778122476 0.51778108707 0.51778086613 0.51778071959 0.51778042471 0.51777986877 0.51777959797 0.51777909423 
0.51777826981 0.51777784682 0.51777711125 0.51777646322 0.51777573794 0.51777510881 0.51777436406 0.51777380215 0.51777340238 
0.51777286046 0.51777236332 0.51777218066 0.51777177501 0.51777154632 0.51777135083 0.51777103366 0.51777075624 0.51777058977 
0.51777014515 0.51777002826 0.50425027475 0.50425058108 0.50425117641 0.5042517111 0.50425184151 0.50425218472 0.5042528155 
0.50425332771 0.50425355793 0.5042541922 0.50425478674 0.50425517064 0.50425568816 0.50425634584 0.50425659161 0.50425671854 
0.50425697688 0.50425687089 0.50425682156 0.50425672036 0.50425637398 0.50425623527 0.50425611978 0.50425594451 0.504255647 
0.50425544227 0.50425525336 0.50425480618 0.50425444651 0.50425399629 0.50425316247 0.504252375 0.5042515668 0.50425077763 
0.50425001886 0.50424893828 0.50424795035 0.50424749765 0.50424684091 0.50424635337 0.50424590264 0.50424570257 0.50424529702 
0.50424505463 0.50424496914 0.50424496133 0.50424461527 0.50424435525 0.50424392709 0.50424355402 0.48999479585 0.48999526377 
0.48999565852 0.48999618637 0.48999631047 0.48999655809 0.48999716495 0.48999778155 0.4899982425 0.48999906244 0.4899998198 
0.49000050511 0.49000111671 0.49000191871 0.49000240005 0.49000245714 0.49000271318 0.49000253851 0.49000233482 0.49000214598 
0.49000162141 0.49000144307 0.49000121357 0.49000084776 0.49000065141 0.49000045208 0.49000030161 0.4899998197 0.48999935697 
0.48999898728 0.48999808081 0.48999718624 0.48999636823 0.48999512837 0.48999415811 0.48999286114 0.48999171612 0.48999106071 
0.48999032127 0.48998976105 0.48998935541 0.48998915451 0.48998894987 0.48998881522 0.48998894047 0.4899887991 0.48998838948 
0.48998809091 0.48998758267 0.48998720284 0.47509273567 0.47509331572 0.47509355373 0.47509397967 0.47509412324 0.4750943558 
0.47509510572 0.4750957438 0.47509642919 0.47509736653 0.47509828048 0.47509909918 0.47509996504 0.47510092264 0.47510148421 
0.47510165127 0.47510180429 0.47510159247 0.47510133738 0.47510107332 0.47510040877 0.47509996199 0.47509982264 0.47509944065 