# vtk DataFile Version 5.1
vtk output
ASCII
DATASET STRUCTURED_POINTS
DIMENSIONS 50 50 50
SPACING 0.002 0.002 0.002
ORIGIN 0.1742 -0.052672 0.02732
POINT_DATA 125000
FIELD FieldData 1
potential 1 125000 double
0.0039582960081 0.003998072006 0.0040382523066 0.0040788337013 0.0041198204263 0.0041612061708 0.0042029926282 0.0042451775379 0.004287758567 
0.0043307447235 0.0043741343263 0.0044180077887 0.0044622061209 0.0045068051025 0.004551806388 0.00459721134 0.0046430067928 0.0046891935524 
0.0047357714487 0.0047827318171 0.0048300799868 0.0048778015918 0.0049258966581 0.0049743541502 0.005023177183 0.0050724083303 0.0051219598813 
0.005171877558 0.0052221450031 0.0052727610331 0.0053237205548 0.0053750255952 0.0054266517309 0.0054785985751 0.0055308541793 0.0055834138323 
0.0056362676661 0.0056894020029 0.0057428115984 0.0057964675658 0.0058503923859 0.0059045368371 0.0059589526716 0.0060136252111 0.006068495389 
0.0061235711952 0.0061788441991 0.0062342986606 0.0062899171511 0.0063456903972 0.0040107806781 0.0040514205541 0.0040924788947 0.0041339550215 
0.004175850239 0.0042181611599 0.0042608854966 0.0043040253155 0.0043475776403 0.0043915536909 0.0044360211165 0.0044808402736 0.0045260789735 
0.0045717323214 0.0046178041058 0.0046642917924 0.0047111944521 0.004758506842 0.0048062214014 0.0048543452473 0.0049028655156 0.0049517818735 
0.0050010853158 0.0050507704547 0.0051008839536 0.0051513411181 0.0052021795357 0.0052533903746 0.0053049740044 0.0053569234263 0.0054092395442 
0.0054619034088 0.0055149146926 0.0055682632059 0.0056219397554 0.0056759374479 0.0057302450513 0.0057848446624 0.0058397347103 0.0058948960069 
0.0059503100162 0.0060060149107 0.0060620045103 0.0061182070586 0.0061746494775 0.0062313115854 0.0062881850859 0.0063452462428 0.0064024926812 
0.0064599007801 0.0040618986863 0.0041033994554 0.0041453309982 0.0041876999636 0.0042305041338 0.0042737376541 0.0043173986895 0.0043614893827 
0.0044060195472 0.0044510558435 0.0044964608685 0.0045422976649 0.0045885705306 0.0046352758107 0.004682420698 0.0047299980303 0.0047780101677 
0.0048264519457 0.0048753147318 0.0049245979614 0.0049743006452 0.0050244139589 0.0050749308009 0.0051258935279 0.005177222627 0.0052289483839 
0.0052810715719 0.0053335875431 0.00538649606 0.005439790321 0.0054934616395 0.0055475073813 0.0056019154908 0.0056566751799 0.0057117842217 
0.0057672306418 0.0058230030983 0.0058790871757 0.0059354630383 0.0059921270599 0.0060490992188 0.0061063503641 0.0061638915349 0.0062216751775 
0.0062797052248 0.0063379740167 0.0063964657269 0.0064551691749 0.0065140642115 0.0065731361753 0.0041114317425 0.0041537883022 0.0041965946723 
0.0042398492161 0.0042835528643 0.0043277052924 0.0043722995332 0.0044173422369 0.0044628469727 0.0045088692695 0.0045552754005 0.0046021268626 
0.0046494399033 0.0046972036912 0.004745421835 0.0047940937145 0.0048432137624 0.0048927778991 0.0049427844342 0.0049932338426 0.0050441162266 
0.0050954727468 0.0051472039431 0.005199367904 0.0052519530582 0.0053049517662 0.0053583717352 0.0054122008395 0.0054664398303 0.0055210838725 
0.0055761230265 0.0056315536073 0.0056873656137 0.0057435526443 0.0058001000737 0.0058570043399 0.0059142520916 0.0059718272746 0.0060296862199 
0.006087906576 0.0061464231005 0.0062052638543 0.0062643592068 0.0063237390243 0.0063833780239 0.0064432700299 0.0065034019416 0.006563759546 
0.0066243200717 0.006685074857 0.0041592156533 0.0042024227804 0.004246093319 0.0042902301147 0.0043348335503 0.0043798976635 0.0044254276402 
0.0044714243782 0.0045179624141 0.0045648946573 0.0046122956549 0.0046601665284 0.0047085141366 0.0047573298406 0.0048066188593 0.0048563784336 
0.004906603807 0.0049572964148 0.005008447996 0.0050600587955 0.0051121666348 0.0051646829152 0.0052176350152 0.0052710405862 0.0053248859563 
0.0053791688204 0.0054338815911 0.0054890326895 0.0055446076159 0.0056006049386 0.0056570176203 0.0057138413607 0.0057710655638 0.0058286814062 
0.0058866763037 0.0059450489516 0.0060037778561 0.0060628572975 0.0061222483109 0.0061820072753 0.0062421084218 0.0063024995128 0.0063631892358 
0.0064241789452 0.0064854434686 0.0065469773734 0.0066087656149 0.0066707927309 0.0067330468458 0.006795497497 0.0042051448828 0.00424919634 
0.0042937323903 0.0043387434496 0.004384238984 0.004430215538 0.0044766673463 0.0045236765452 0.0045711014781 0.0046190135539 0.0046674074477 
0.0047162924284 0.004765674535 0.00481553501 0.0048658901205 0.0049167371907 0.0049680693809 0.0050198860403 0.0050721845454 0.0051250039937 
0.0051782513331 0.0052319676287 0.0052861447224 0.0053407914627 0.0053958971851 0.0054514636928 0.0055074773023 0.0055639499045 0.0056208648655 
0.0056782232695 0.005736015274 0.005794232618 0.0058528796416 0.0059119350083 0.0059713927598 0.0060312406178 0.0060914715466 0.0061520387498 
0.0062129941476 0.0062743261018 0.0063359787445 0.0063979548541 0.0064602544585 0.0065228626756 0.0065857708529 0.0066489637106 0.0067124295927 
0.00677613662 0.0068400957481 0.006904266766 0.0042491858491 0.0042940763637 0.0043394632851 0.0043853486557 0.0044317298245 0.004478607779 
0.0045260463438 0.0045739239465 0.0046223029344 0.0046711852473 0.0047205691665 0.0047704671941 0.0048208734118 0.0048717842661 0.004923205969 
0.0049751355258 0.0050275725705 0.0050805645665 0.0051340055036 0.0051879415001 0.0052423743826 0.0052972919828 0.0053526959158 0.0054085846414 
0.0054649591407 0.0055218076157 0.0055791244823 0.0056369224137 0.0056951832337 0.0057539050262 0.0058130874887 0.0058727172942 0.0059327903634 
0.0059932962783 0.0060542216779 0.0061155549374 0.0061772656164 0.0062393900536 0.0063018919818 0.0063647860907 0.0064280247655 0.0064916059812 
0.0065555281518 0.0066197828353 0.0066843414616 0.0067492115047 0.0068143679027 0.006879799183 0.0069454820708 0.0070114043966 0.0042913630454 
0.0043370874863 0.0043833214786 0.0044300649762 0.0044773225927 0.0045250941811 0.0045734574151 0.0046222648242 0.0046715980112 0.0047214518527 
0.0047718254207 0.0048227280846 0.0048741582973 0.0049261149969 0.0049785987992 0.0050316149197 0.0050852068827 0.0051392710232 0.0051938541147 
0.0052489596805 0.0053045758497 0.0053607003491 0.0054173279812 0.0054744641608 0.005532106745 0.0055902411701 0.005648870163 0.0057079972401 
0.0057676129729 0.0058277125608 0.0058882902288 0.0059493366354 0.0060108481769 0.0060728126356 0.0061352134183 0.0061980312213 0.0062612768862 
0.006324938319 0.006389029674 0.0064534909615 0.006518328286 0.006583532113 0.0066490873413 0.0067150042811 0.0067812513484 0.0068478174588 
0.0069146942425 0.006981861723 0.0070492965884 0.0071169941747 0.0043317709179 0.0043783153368 0.0044253855611 0.0044729887298 0.0045211247812 
0.0045698634029 0.0046190677932 0.0046688067923 0.004719091205 0.0047699071309 0.0048212682594 0.0048731763627 0.0049256316225 0.004978633734 
0.0050321835247 0.0050863314501 0.0051409822765 0.0051961691228 0.0052519026474 0.0053081698035 0.0053649750403 0.0054223102761 0.0054801737518 
0.0055385641916 0.005597475235 0.0056569026938 0.0057168544874 0.0057773223128 0.0058382981982 0.0058997813663 0.0059617660277 0.0060242446672 
0.0060872055617 0.0061506317292 0.0062145311346 0.006278858945 0.0063436489047 0.0064088984668 0.006474543226 0.0065406010074 0.0066070535045 
0.0066739002055 0.0067411281936 0.0068087285132 0.0068766751319 0.0069449684662 0.0070135978173 0.007082525626 0.0071517422264 0.0072210437408 
0.0043705513657 0.0044179145719 0.0044658271397 0.0045142883478 0.0045633700604 0.0046129310955 0.0046630506906 0.0047137209184 0.0047649462808 
0.0048167288438 0.0048690763718 0.0049219902085 0.0049754726477 0.0050295199225 0.0050841896622 0.0051393809377 0.0051951363479 0.0052514546433 
0.0053083388245 0.0053657823393 0.0054237778366 0.0054823343357 0.0055414363624 0.0056010891279 0.0056612770819 0.0057220154039 0.0057832965657 
0.0058451140489 0.0059074680583 0.0059703474246 0.0060337536137 0.0060976721015 0.0061620943876 0.0062270196872 0.006292410359 0.0063582922579 
0.0064246646589 0.0064914677243 0.0065587124058 0.0066263949339 0.0066944961608 0.0067630096519 0.006831923725 0.0069012384729 0.006970918219 
0.0070409703059 0.0071113612078 0.0071820823099 0.0072529254249 0.00732415902 0.0044079274844 0.0044561142221 0.0045048675648 0.0045541866194 
0.0046041411625 0.0046546000893 0.0047056270325 0.004757230143 0.0048094034383 0.0048621558239 0.0049154935088 0.0049694195538 0.005023933335 
0.0050790864459 0.0051347802665 0.0051910672165 0.0052479350584 0.0053053989051 0.0053634417786 0.0054220665992 0.0054812684459 0.0055410492796 
0.0056014001065 0.0056623266685 0.0057238132901 0.0057858683247 0.0058484941683 0.00591168435 0.0059754280092 0.0060397210982 0.0061045683847 
0.0061699568189 0.0062358643076 0.0063022816699 0.0063692189296 0.0064366636056 0.0065046195025 0.0065730261212 0.0066419015441 0.0067112305606 
0.0067810036012 0.0068512203128 0.0069218607975 0.0069929112751 0.0070643623814 0.0071361986991 0.0072084018989 0.0072806786642 0.0073535583498 
0.0074267446704 0.0044441757759 0.0044931892807 0.00454278517 0.0045930307276 0.0046438003269 0.0046951554499 0.0047470952546 0.0047996364122 
0.0048527636049 0.0049064947986 0.0049608303729 0.0050157766044 0.0050713782805 0.0051275481333 0.0051843306496 0.005241721697 0.00529972111 
0.0053583314541 0.0054175498519 0.0054773688354 0.0055377898873 0.0055988134946 0.0056604349278 0.0057226435231 0.0057854432371 0.0058488429924 
0.0059128323635 0.0059774042609 0.006042566047 0.0061083075284 0.0061746173927 0.0062414888719 0.0063089203317 0.0063768793497 0.0064453776968 
0.0065144275618 0.0065839689197 0.0066540114817 0.0067245538806 0.006795565918 0.0068670511774 0.0069389991994 0.0070113977696 0.0070842312062 
0.007157491378 0.0072310724828 0.0073049426946 0.007379361938 0.0074541341732 0.0075292450348 0.0044796144703 0.0045294591602 0.0045799713632 
0.0046310235305 0.0046826738466 0.0047349354219 0.0047878066057 0.0048412861289 0.0048953825881 0.004950103141 0.0050054999552 0.0050614782957 
0.0051180867882 0.0051753350835 0.0052332171504 0.0052917308079 0.0053508806474 0.005410657088 0.0054710646877 0.0055320980912 0.0055937616281 
0.0056560466966 0.0057189463342 0.0057824693465 0.0058466164946 0.0059113722822 0.0059767514019 0.0060427469586 0.0061093516829 0.0061765643254 
0.0062443735493 0.0063127660646 0.0063817292573 0.006451267144 0.0065213917599 0.0065920422709 0.0066632357832 0.0067349593651 0.0068071914535 
0.0068799275605 0.0069531652563 0.0070268924026 0.0071010978724 0.0071756770215 0.0072507921329 0.007326151245 0.0074021104938 0.0074784679773 
0.0075551892529 0.0076322621357 0.0045146077037 0.0045653001834 0.0046166720351 0.004668598445 0.0047211480445 0.0047743263631 0.0048281401615 
0.0048825810499 0.004937659926 0.0049934351646 0.0050498104592 0.0051068430434 0.0051645252478 0.0052228721038 0.0052818783289 0.0053415326279 
0.0054018437716 0.005462812638 0.0055244374899 0.0055867095292 0.0056496351311 0.005713204609 0.0057774261156 0.0058422853727 0.00590779812 
0.0059739578271 0.0060407631755 0.0061082131776 0.0061762991621 0.0062450177933 0.0063143639681 0.0063843009348 0.0064548581152 0.0065260124774 
0.0065977791813 0.0066701033503 0.0067429906628 0.0068164233777 0.0068904070931 0.0069649183555 0.0070399601551 0.0071154350618 0.0071914950941 
0.0072680460139 0.0073448866704 0.0074223721907 0.007500313678 0.0075786455672 0.0076573773583 0.0077364933397 0.0045495499162 0.00460116106 
0.0046533432892 0.0047061667998 0.0047596319887 0.0048137508999 0.0048685213931 0.0049239435044 0.0049800803637 0.0050368323173 0.0050942561785 
0.0051523583919 0.005211143016 0.0052706067115 0.0053307578163 0.00539158557 0.0054530966312 0.0055152878012 0.0055781558181 0.0056417000158 
0.0057059208958 0.0057708139921 0.0058363772766 0.005902621078 0.0059695409773 0.0060371404875 0.0061054075198 0.0061743501565 0.0062439687129 
0.0063142297529 0.0063851505729 0.0064566967835 0.0065288901562 0.0066017280123 0.0066751680326 0.0067491938352 0.006823829785 0.0068990501457 
0.0069748334372 0.007051103576 0.007128009186 0.0072054568593 0.007283441997 0.0073617598122 0.007440785059 0.0075202767536 0.0076002274386 
0.0076806247368 0.0077614505856 0.0078426760995 0.0045848345939 0.004637326286 0.0046904079121 0.0047441452676 0.0047985576041 0.0048536445875 
0.0049093910305 0.0049658702138 0.0050229869512 0.0050807932539 0.0051392932031 0.0051985050023 0.0052584122068 0.0053190249441 0.0053803579085 
0.005442390659 0.0055051310256 0.0055685799846 0.0056327231565 0.0056975782209 0.0057631358518 0.0058293939983 0.0058963576272 0.005964024347 
0.0060323988421 0.0061014775156 0.0061712519472 0.0062417513838 0.0063129287688 0.0063847935316 0.0064573301424 0.0065305513316 0.006604466042 
0.0066790040955 0.0067541735258 0.0068299925726 0.0069064393646 0.0069834284562 0.0070610725224 0.0071393286558 0.0072181652161 0.0072975804868 
0.0073774030467 0.0074579304377 0.0075389849445 0.0076205607118 0.007702624398 0.0077851756266 0.0078680966564 0.0079515073668 0.0046209495675 
0.0046742793041 0.0047282860107 0.0047829758501 0.0048383516714 0.0048944269155 0.0049512447092 0.0050087068714 0.0050668853275 0.0051257791234 
0.0051853972004 0.0052457465411 0.0053068158779 0.0053686222634 0.0054311692275 0.0054944456513 0.0055584579373 0.005623195477 0.0056886742341 
0.0057548783273 0.0058218164759 0.0058894991239 0.0059579093042 0.0060270497004 0.0060969264535 0.0061675500417 0.0062388960042 0.0063109788374 
0.0063837771827 0.0064572943261 0.0065315359508 0.0066064867718 0.0066821511514 0.0067584662771 0.0068354673158 0.0069130638351 0.0069913903236 
0.0070703584774 0.0071499589172 0.0072301953486 0.0073110515483 0.0073923590624 0.0074744181326 0.0075570527108 0.0076402416929 0.0077240063539 
0.0078082875187 0.007892979735 0.0079782339804 0.0080639243799 0.0046581688815 0.0047124273492 0.0047673953725 0.0048230603196 0.0048794427824 
0.0049365953605 0.0049944115233 0.0050529532262 0.0051122382482 0.005172252307 0.005233023954 0.0052945491167 0.0053568257057 0.005419868142 
0.0054836728528 0.0055482413464 0.0056135642172 0.0056796580628 0.0057465092986 0.0058141175072 0.0058825093198 0.0059516582952 0.0060215612011 
0.0060922370825 0.0061636958667 0.0062359033964 0.006308875475 0.0063826120392 0.0064571055655 0.0065323534019 0.0066083624126 0.0066851242151 
0.0067625834807 0.0068407020835 0.0069196006421 0.0069991919503 0.0070794909528 0.007160456939 0.0072420974739 0.0073244042987 0.0074072122479 
0.0074908015234 0.007575034011 0.0076598725574 0.007745336319 0.0078312727001 0.0079178513782 0.0080049456627 0.0080925598786 0.0081806689572 
0.0046969348529 0.0047521644522 0.0048081216351 0.0048648084183 0.0049222876558 0.0049804541024 0.0050393583196 0.0050990272043 0.0051594525247 
0.0052206435726 0.0052826077657 0.0053453554485 0.0054088892596 0.0054732166429 0.0055383322433 0.0056042349155 0.0056709418449 0.005738432362 
0.005806722607 0.005875800119 0.0059456927545 0.0060163640565 0.0060878332435 0.0061601227364 0.0062331965833 0.0063070686852 0.0063817438213 
0.0064572119185 0.0065334749883 0.0066105378746 0.0066884032972 0.006767005527 0.006846312705 0.0069264519908 0.0070073252099 0.0070889444504 
0.0071712979999 0.0072543613707 0.007338165332 0.0074224525193 0.0075076142688 0.0075934465209 0.007679949816 0.0077671294377 0.0078548312077 
0.0079432318369 0.0080322061978 0.008121764572 0.0082118797538 0.0083025036681 0.0047376008101 0.0047938438392 0.0048508365445 0.0049086343988 
0.0049671528657 0.0050264279511 0.0050864803069 0.0051473080767 0.0052089248343 0.0052713371228 0.0053345535571 0.0053985789041 0.0054634211545 
0.0055290880479 0.0055955687671 0.0056628742332 0.0057310078084 0.0057999745346 0.0058697505672 0.0059403664048 0.0060118240944 0.0060841237199 
0.0061572287068 0.0062311737935 0.0063059514726 0.006381566413 0.0064580097971 0.0065353081727 0.0066134169015 0.0066923662431 0.006772064142 
0.0068526465846 0.0069340308939 0.007016199623 0.0070991582133 0.0071828903544 0.0072674064324 0.0073526999505 0.0074387108741 0.0075252731582 
0.0076127373183 0.0077009419501 0.0077897468365 0.0078793326666 0.0079695865751 0.0080604702573 0.0081520213715 0.0082441598532 0.0083368757936 
0.0084301478188 0.0047804892576 0.0048377865967 0.0048959101922 0.0049547643316 0.0050144267555 0.0050748624107 0.0051360965845 0.0051981459267 
0.0052610076682 0.0053246974527 0.0053892179204 0.0054545834536 0.0055207961358 0.0055878518181 0.0056557682977 0.0057245390275 0.0057941761207 
0.0058646756735 0.0059360190763 0.0060082400714 0.0060813619217 0.0061553181401 0.0062301346206 0.0063058285087 0.0063823899921 0.0064598298042 
0.0065381442081 0.0066173255554 0.0066973151511 0.0067782547688 0.0068600340349 0.0069426653025 0.0070261406679 0.0071104592657 0.0071955978962 
0.0072815713835 0.0073683826726 0.0074559488269 0.0075441246735 0.0076332627727 0.0077231818127 0.0078137513098 0.0079051552727 0.0079972932532 
0.008090144501 0.0081836829571 0.0082778873543 0.0083727388463 0.0084682117971 0.0085642804538 0.0048258624238 0.0048843174342 0.0049435222795 
0.0050035483449 0.0050643819194 0.0051260333819 0.0051885115789 0.0052518372563 0.0053160051567 0.0053810320744 0.005446921969 0.0055136862371 
0.0055813203861 0.0056498476103 0.005719265635 0.005789579884 0.0058607841985 0.0059328688337 0.0060058720777 0.0060798026767 0.0061546204783 
0.0062303311196 0.0063069479196 0.0063844723551 0.0064629100466 0.0065422671155 0.0066225273624 0.0067036399075 0.0067857500343 0.0068687434349 
0.0069526365284 0.0070374398982 0.0071231319786 0.007209683515 0.0072971685158 0.007385486899 0.0074746445205 0.0075644564268 0.0076552893557 
0.0077468555012 0.0078393191275 0.0079325909342 0.0080266660016 0.0081214717008 0.0082170539926 0.0083133664465 0.0084103923744 0.0085081042316 
0.0086064835429 0.0087054886879 0.004874010042 0.0049335723846 0.004993965911 0.0050551926282 0.0051172744994 0.0051802002036 0.0052439847334 
0.0053086397368 0.005374177924 0.005440601942 0.0055079257159 0.0055761462811 0.0056452909839 0.0057153653558 0.0057863558749 0.0058582725521 
0.0059311040692 0.0060048915066 0.0060796476497 0.0061553207322 0.0062319330177 0.0063094853357 0.0063879914736 0.0064674438018 0.0065478562295 
0.0066291414945 0.006711453842 0.0067947080794 0.0068789733719 0.0069641524809 0.007050287139 0.0071373524744 0.0072253531275 0.0073143442958 
0.0074042016676 0.0074949766099 0.0075864623394 0.0076790154029 0.007772358728 0.0078666598534 0.0079618278561 0.0080578598129 0.0081546804149 
0.0082523400812 0.0083508059829 0.0084500478923 0.0085500504993 0.0086507774331 0.0087522238211 0.0088542747441 0.0049250184047 0.0049857902877 
0.0050474193448 0.0051099183999 0.0051732987288 0.0052375623198 0.0053027140386 0.0053687698729 0.0054357377358 0.0055036271434 0.0055724464135 
0.0056422126071 0.0057129377852 0.005784621108 0.005857262632 0.0059308682569 0.0060054501961 0.0060810082225 0.0061575430449 0.0062350673475 
0.0063135723559 0.0063930620332 0.0064735396061 0.0065549546652 0.0066374197692 0.0067208784108 0.0068053393764 0.0068908463775 0.0069773284289 
0.0070648058319 0.0071532736755 0.0072427336936 0.0073332419182 0.0074246742024 0.0075170727355 0.0076102609461 0.0077044543135 0.0077997164587 
0.0078958896904 0.0079930245601 0.008091016307 0.0081898942874 0.0082896750112 0.0083903255499 0.0084918313093 0.0085941685985 0.0086973062951 
0.0088011862563 0.0089058232778 0.0090112202547 0.0049790893684 0.0050411222935 0.0051040511848 0.0051678802139 0.005232625146 0.0052982858233 
0.0053648637633 0.0054323874246 0.005500860023 0.0055702836277 0.0056406808875 0.0057120655843 0.0057844377735 0.0058578125905 0.0059321849928 
0.0060075687869 0.0060839582298 0.0061613671831 0.0062397999738 0.0063192594874 0.006399758143 0.0064812753587 0.0065637535022 0.0066473536201 
0.006731995451 0.0068176635788 0.0069044072211 0.0069922178599 0.007081069517 0.0071709661527 0.0072619007374 0.0073539348372 0.0074469605696 
0.0075410115796 0.007636086103 0.0077318860891 0.007828995651 0.0079270991394 0.0080261698306 0.0081261981708 0.0082271702177 0.0083291124195 
0.0084319940304 0.00853580057 0.0086405253241 0.0087460830858 0.0088525227908 0.0089597622199 0.0090678413352 0.0091767047197 0.005036333233 
0.0050996936478 0.0051639797832 0.0052292074042 0.0052953786838 0.0053624978734 0.0054305792986 0.0054996398528 0.0055696719884 0.0056407168945 
0.005712773009 0.0057858473954 0.0058599500701 0.0059350934114 0.0060113052299 0.0060885204384 0.0061668141844 0.0062461639526 0.0063265867624 
0.0064080850503 0.0064905830314 0.0065742353618 0.0066589720418 0.0067447991188 0.0068316968987 0.006919712366 0.0070088574827 0.0070990836232 
0.0071904212966 0.0072828468429 0.0073764379177 0.0074710710626 0.007566794593 0.007663609034 0.0077612014999 0.0078601798593 0.0079602312905 
0.0080612925844 0.0081633976546 0.0082664942268 0.008370645028 0.0084757999876 0.0085819532767 0.0086890488759 0.0087971542449 0.0089061798298 
0.0090160803774 0.0091269009035 0.0092385280474 0.0093510713106 0.0050968459107 0.0051615969748 0.005227303311 0.0052939931089 0.0053616540531 
0.0054303065489 0.0054999590075 0.0055706131537 0.0056423075812 0.0057150403597 0.0057888205935 0.0058636662613 0.005939587303 0.0060166193397 
0.0060946811449 0.0061738562219 0.0062541447291 0.0063355369855 0.006418034804 0.0065016017506 0.0065863634518 0.0066722460236 0.0067592712008 
0.0068474015225 0.0069367162226 0.0070272066835 0.0071188244461 0.0072116078806 0.007305546914 0.0074007141207 0.00749696875 0.0075943851198 
0.0076928373165 0.0077923668131 0.0078932751967 0.0079952531939 0.008098353252 0.0082025415491 0.0083078362975 0.0084142020224 0.008521672773 
0.0086301694241 0.0087397690753 0.0088504097669 0.0089620491831 0.0090746886476 0.0091883080657 0.009302817451 0.0094183306688 0.0095347039884 
0.0051606874458 0.0052268921001 0.0052940858329 0.0053622994629 0.0054315270364 0.0055017809193 0.0055730641025 0.0056454112891 0.0057188291897 
0.0057933261535 0.0058689169006 0.0059456120165 0.0060234610193 0.006102403717 0.0061824628764 0.0062636784395 0.0063460508098 0.0064294982889 
0.0065141965229 0.0066000731301 0.0066871190958 0.0067753426658 0.0068647400941 0.006955347053 0.0070471686362 0.007140214628 0.0072344612864 
0.0073299107252 0.0074266700474 0.0075245726471 0.0076237056093 0.0077239256303 0.0078253018863 0.0079281149251 0.0080320767475 0.0081372237548 
0.0082435465348 0.0083510409601 0.0084596840456 0.0085694623208 0.0086804246739 0.008792523076 0.0089057494467 0.0090200558681 0.0091354686347 
0.0092518693026 0.0093693880328 0.0094879220139 0.0096074097201 0.0097278473819 0.0052278937851 0.0052956124074 0.0053643714205 0.0054341742353 
0.0055050320994 0.0055769614429 0.0056499568818 0.0057240608234 0.0057992791314 0.0058756216567 0.0059531019921 0.0060317694025 0.0061115709535 
0.0061925289608 0.006274693726 0.0063580287459 0.0064425203594 0.0065282826232 0.0066152710504 0.0067034844436 0.0067929246919 0.006883582828 
0.0069755021145 0.0070686875408 0.0071631516817 0.0072588677732 0.0073558500265 0.0074541890273 0.0075537565526 0.0076546245874 0.0077566253551 
0.0078598992324 0.0079645961606 0.0080705462185 0.0081777729378 0.008286253368 0.0083959872212 0.008506887542 0.0086190818937 0.0087325035256 
0.0088471541784 0.0089629949443 0.0090799329072 0.0091982198447 0.0093175188962 0.0094380301704 0.0095596437695 0.0096823080734 0.0098060292897 
0.009930780525 0.0052984601132 0.0053677649292 0.0054381498459 0.0055096194096 0.0055821805058 0.0056558448204 0.0057306380488 0.0058065777698 
0.0058836752932 0.0059619465642 0.0060414351832 0.0061220939273 0.0062039608854 0.0062870299025 0.0063713667191 0.0064568756374 0.0065437150988 
0.0066318252811 0.0067212067756 0.0068118633001 0.0069037977574 0.0069970415534 0.0070915898064 0.0071874554202 0.0072846746116 0.0073831910273 
0.0074831320371 0.0075843613902 0.0076869398855 0.0077907376226 0.007896065391 0.0080025286811 0.0081104965869 0.0082198137213 0.0083304768573 
0.0084424514798 0.0085556900069 0.0086702896584 0.0087861943499 0.0089034176023 0.0090219211001 0.0091416086207 0.0092627302419 0.009384957891 
0.0095084830329 0.0096332124245 0.0097591232478 0.0098861823409 0.01001436325 0.010143661504 0.0053723608293 0.0054433200083 0.0055153925361 
0.005588596324 0.0056629221932 0.0057384172328 0.0058150806136 0.0058929323273 0.00597198084 0.0060522925541 0.0061338056531 0.0062165725259 
0.0063005687211 0.0063858190323 0.0064724261717 0.0065603283925 0.00664955239 0.006740106376 0.0068319793227 0.0069252078888 0.0070197567905 
0.007115682555 0.007212970218 0.0073116717946 0.0074117232179 0.0075132731316 0.0076161514053 0.0077203296848 0.0078261102972 0.0079332605438 
0.0080416820464 0.0081516752741 0.0082630890083 0.0083759315159 0.0084901401601 0.0086057654258 0.0087228090418 0.0088412331915 0.008961046312 
0.0090822324214 0.0092046855095 0.0093286767511 0.0094538620765 0.0095804601007 0.00970835085 0.0098375531162 0.0099679853529 0.010099656505 
0.010232533632 0.010366572771 0.0054495242363 0.0055222016211 0.0055960307453 0.0056710222218 0.0057472059572 0.0058245919441 0.0059031904172 
0.0059830300117 0.0060641227515 0.0061465242397 0.0062301603932 0.0063151179516 0.006401317673 0.0064889422041 0.0065779150286 0.0066682435968 
0.0067599459658 0.0068530411063 0.006947526112 0.0070433981157 0.007140694104 0.0072394087192 0.0073395696457 0.0074412140418 0.0075443423578 
0.0076488885445 0.0077547923361 0.0078623658149 0.0079713879222 0.00808175656 0.0081937764434 0.0083072994857 0.0084223273581 0.0085388027972 
0.0086568055824 0.0087762669683 0.0088972272751 0.0090196409505 0.0091435394543 0.0092688047106 0.0093956200457 0.0095238706381 0.0096535641813 
0.0097846466535 0.0099171666904 0.010051018722 0.010186214496 0.010322751762 0.010460563626 0.010599599468 0.0055298167853 0.0056042695072 
0.0056799227786 0.0057567785327 0.0058348828403 0.0059142339975 0.0059948413414 0.0060767454251 0.0061599940829 0.0062445162767 0.0063303966463 
0.0064175465474 0.0065061701905 0.0065962032157 0.0066876376689 0.0067804852591 0.0068747799491 0.0069705137335 0.0070676807018 0.0071663498715 
0.0072664892643 0.0073681328315 0.0074712937943 0.0075760173006 0.0076822202772 0.0077898953018 0.0078992026964 0.008010077019 0.0081225561356 
0.0082364393248 0.0083520496023 0.0084692103203 0.0085880074626 0.0087083591234 0.0088302508426 0.0089537541264 0.0090788096848 0.0092054216588 
0.0093335043592 0.0094632340455 0.0095944909892 0.0097272952926 0.0098615952747 0.0099974128076 0.010134775292 0.010273534136 0.010413720875 
0.010555327238 0.010698285854 0.010842542533 0.0056130331421 0.0056893279594 0.0057668547981 0.0058456642013 0.0059257512287 0.0060071375664 
0.0060898354221 0.0061739024476 0.0062593093264 0.0063460255196 0.0064342045478 0.006523800564 0.0066148565174 0.0067073708751 0.0068013481197 
0.0068968163532 0.0069937861747 0.0070922530303 0.0071922581598 0.0072938008074 0.0073969145068 0.0075016018299 0.0076078938245 0.007715735478 
0.0078251241238 0.0079361987854 0.008048924555 0.0081633016673 0.0082791873324 0.0083968841485 0.0085162217437 0.0086372677599 0.0087599573883 
0.0088842942923 0.0090103288558 0.009138010716 0.0092673538302 0.0093982510032 0.00953089464 0.0096651716312 0.0098010908951 0.0099386226748 
0.01007779719 0.01021858489 0.010360928748 0.010504814435 0.010650239923 0.010797122581 0.010945522393 0.011095300517 0.0056989297404 
0.0057771122587 0.0058566021395 0.0059374106309 0.0060195497349 0.0061030364079 0.0061879152894 0.0062741693471 0.0063617736897 0.0064508900339 
0.0065414348104 0.0066334959744 0.006727059162 0.0068221407507 0.0069187582815 0.0070169359101 0.0071166837657 0.0072179930908 0.0073209161741 
0.0074254608062 0.0075316224935 0.0076394363328 0.0077489664408 0.0078600373352 0.0079728783712 0.0080874114256 0.0082036691105 0.0083215303936 
0.0084412412318 0.0085627338314 0.0086859965453 0.0088110355667 0.0089377930616 0.0090663343208 0.0091966336184 0.0093286845092 0.0094623961898 
0.0095979351276 0.0097352270631 0.0098742709245 0.010015067729 0.010157548223 0.01030177415 0.01044768733 0.010595294208 0.010744521105 
0.010895403795 0.011047921717 0.011201942327 0.011357505585 0.0057871543907 0.0058673037032 0.0059488052327 0.006031673867 0.006115902665 
0.0062015955761 0.0062886744401 0.0063771480601 0.0064671539616 0.0065586629112 0.0066516610109 0.0067462467321 0.00684238485 0.0069401298383 
0.0070394792161 0.0071404564436 0.0072430406782 0.0073473094115 0.0074532534143 0.0075608893477 0.0076702359436 0.0077814141796 0.0078940800722 
0.0080086244573 0.0081249438643 0.0082430619 0.0083628524249 0.0084845647902 0.0086081619771 0.0087336140915 0.0088609302155 0.0089900931672 
0.0091210777262 0.0092539565048 0.0093886899143 0.009525180726 0.0096636246122 0.0098039084631 0.0099460857349 0.010090058067 0.010235853995 
0.010383524384 0.010533010372 0.010684261593 0.010837356177 0.010992211832 0.011148826769 0.011307090125 0.011467044419 0.011628643858 
0.0058773380449 0.0059594946251 0.0060430506513 0.006128010855 0.0062144684797 0.0063022843259 0.0063916452629 0.0064825159842 0.0065749254304 
0.0066688619352 0.0067644153929 0.0068615879134 0.0069604008079 0.0070608755935 0.0071630243088 0.0072668465514 0.0073724073306 0.0074797012482 
0.0075887531745 0.00769956768 0.0078121693355 0.0079265977336 0.0080428174337 0.0081608818847 0.0082808152616 0.008402637927 0.0085261495844 
0.0086517956623 0.0087793728844 0.0089089124864 0.0090404019786 0.0091738118856 0.0093091982302 0.0094465651784 0.0095857951932 0.0097270061299 
0.009870369255 0.010015566243 0.010162718329 0.010311823227 0.010462889248 0.0106158854 0.010770843373 0.010927721386 0.011086509716 
0.011247220812 0.011409748613 0.011574103277 0.011740216252 0.011908081109 0.0059689945192 0.0060531961787 0.0061388414272 0.0062259834369 
0.0063145900985 0.0064047422311 0.0064964374121 0.0065897028983 0.0066845629886 0.0067810236842 0.0068791667798 0.0069789916653 0.0070805291218 