# vtk DataFile Version 4.0
vtk output
ASCII
DATASET POLYDATA
POINTS 1774 double
9.375 -5.975 0 9.375 -3.475 0 7.42876 -5.975 0 
7.42876 -5.975 0 9.375 -3.475 0 7.19363 -3.475 0 
5.48251 -5.975 0 7.19363 -3.475 0 5.01226 -3.475 0 
3.53627 -5.975 0 5.01226 -3.475 0 2.57402 -4.30833 0 
3.53627 -5.975 0 5.48251 -5.975 0 5.01226 -3.475 0 
9.375 -0.975 0 7.19363 -0.975 0 9.375 -3.475 0 
9.375 -3.475 0 7.19363 -0.975 0 7.19363 -3.475 0 
7.19363 -3.475 0 7.19363 -0.975 0 5.01226 -0.975 0 
5.01226 -3.475 0 5.01226 -0.975 0 2.83089 -0.975 0 
2.83089 -3.475 0 2.83089 -0.975 0 1.61177 -2.64167 0 
2.57402 -4.30833 0 2.83089 -3.475 0 1.61177 -2.64167 0 
2.57402 -4.30833 0 5.01226 -3.475 0 2.83089 -3.475 0 
2.83089 -3.475 0 5.01226 -3.475 0 2.83089 -0.975 0 
7.19363 -3.475 0 5.01226 -0.975 0 5.01226 -3.475 0 
2.83089 -0.975 0 0.649519 -0.975 0 1.61177 -2.64167 0 
5.48251 -5.975 0 7.42876 -5.975 0 7.19363 -3.475 0 
3.52028 -3.98492 0 4.01226 -3.475 0 4.066 -3.79841 0 
2.22133 -1.80833 0 1.83089 -0.975 0 1.14952 -1.84103 0 
2.33089 -1.24887 0 1.69264 -2.06122 0 1.75742 -1.51756 0 
1.2402 -0.975 0 0.899519 -1.40801 0 1.33634 -1.40116 0 
4.53913 -3.6367 0 4.51226 -3.475 0 4.26226 -3.59963 0 
4.77569 -3.55585 0 4.76226 -3.475 0 4.1458 -2.48198 0 
-1.43856 -2.64167 0 -0.525 -1.725 0 -0.476314 -0.975 0 
-1.43856 -2.64167 0 -1.12102 -3.475 0 -0.525 -1.725 0 
-1.43856 -2.64167 0 -2.40081 -4.30833 0 -1.12102 -3.475 0 
-1.12102 -3.475 0 -2.40081 -4.30833 0 -0.525 -3.85 0 
-0.525 -1.725 0 -1.12102 -3.475 0 -0.525 -3.85 0 
-3.36307 -5.975 0 -1.94403 -5.975 0 -2.40081 -4.30833 0 
-2.40081 -4.30833 0 -1.94403 -5.975 0 -0.525 -3.85 0 
-0.525 -3.85 0 -1.94403 -5.975 0 -0.525 -5.975 0 
-0.525 -1.725 0 0.525 -1.725 0 -0.476314 -0.975 0 
-0.476314 -0.975 0 0.525 -1.725 0 0.476314 -0.975 0 
0.476314 -0.975 0 0.525 -1.725 0 1.43856 -2.64167 0 
1.43856 -2.64167 0 0.525 -1.725 0 1.12102 -3.475 0 
2.40081 -4.30833 0 1.12102 -3.475 0 0.525 -3.85 0 
1.94403 -5.975 0 0.525 -3.85 0 0.525 -5.975 0 
1.94403 -5.975 0 2.40081 -4.30833 0 0.525 -3.85 0 
1.94403 -5.975 0 3.36307 -5.975 0 2.40081 -4.30833 0 
0.525 -1.725 0 0.525 -3.85 0 1.12102 -3.475 0 
2.40081 -4.30833 0 1.43856 -2.64167 0 1.12102 -3.475 0 
-1.42939 -4.07098 0 -0.525 -2.85 0 1.49642 -4.08736 0 
0.525 -2.725 0 0.847398 -2.6716 0 -1.56281 -3.76267 0 
-0.525 -3.35 0 0.525 -3.35 0 0.98421 -3.0733 0 
-0.976314 -1.84103 0 -1.08561 -2.28751 0 -1.18856 -2.20865 0 
0.124811 -1.42525 0 -0.076125 -1.27475 0 0.328316 -1.36119 0 
0.938564 -1.77564 0 1.08561 -2.28751 0 1.18856 -2.20865 0 
1.56281 -3.76267 0 1.98181 -4.0355 0 1.9151 -4.18966 0 
-0.297869 -1.36316 0 -0.798624 -2.5284 0 -0.877954 -2.07915 0 
-0.959823 -3.0017 0 0.847398 -2.6716 0 1.29906 -3.00777 0 
0.877954 -2.07915 0 -0.847398 -2.6716 0 -0.525 -2.225 0 
-0.686199 -2.1983 0 -0.98421 -3.0733 0 0.500657 -1.35 0 
0.686199 -2.1983 0 0.224438 -1.49987 0 -1.26209 -2.46459 0 
-1.31356 -2.42516 0 -1.08244 -2.02484 0 -0.805305 -2.00626 0 
0.805305 -2.00626 0 1.06356 -1.99215 0 1.31356 -2.42516 0 
1.26209 -2.46459 0 0.512828 -1.5375 0 0.324906 -1.57513 0 
0.488485 -1.1625 0 2.19131 -4.17192 0 2.15796 -4.24899 0 
1.77231 -3.89909 0 -0.525 -2.5375 0 -0.525 -1.975 0 
-0.6056 -1.96165 0 0.0741563 -1.38731 0 0.023686 -0.975 0 
0.25 -1.08384 0 1.15826 -2.36041 0 -1.9151 -4.18966 0 
-1.98181 -4.0355 0 0.686199 -2.1983 0 0.525 -2.225 0 
0.025 -1.725 0 -1.17385 -2.37605 0 -1.25106 -2.31691 0 
-1.35033 -2.55313 0 -1.37606 -2.53341 0 1.17385 -2.37605 0 
1.25106 -2.31691 0 1.37606 -2.53341 0 1.35033 -2.55313 0 
2.0517 -4.15725 0 2.27939 -4.27866 0 2.29606 -4.24013 0 
-0.5653 -1.84333 0 -0.525 -1.85 0 -0.587108 -2.1 0 
0.649216 -2.475 0 -1.70258 -4.00618 0 -2.19131 -4.17192 0 
-2.15796 -4.24899 0 0.525 -1.975 0 0.6056 -1.96165 0 
9.375 0.825 0 7.03125 0.825 0 9.375 0.075 0 
9.375 0.075 0 7.03125 0.825 0 7.03125 0.075 0 
7.03125 0.075 0 7.03125 0.825 0 4.6875 0.825 0 
4.6875 0.075 0 4.6875 0.825 0 2.34375 0.825 0 
2.34375 0.075 0 2.34375 0.825 0 1.77636e-15 0.825 0 
1.77636e-15 0.075 0 1.77636e-15 0.825 0 -2.34375 0.825 0 
-2.34375 0.075 0 -2.34375 0.825 0 -4.6875 0.825 0 
-4.6875 0.075 0 -4.6875 0.825 0 -7.03125 0.825 0 
-7.03125 0.075 0 -7.03125 0.825 0 -9.375 0.825 0 
-9.375 0.075 0 -7.03125 0.075 0 -9.375 0.825 0 
7.03125 0.075 0 4.6875 0.825 0 4.6875 0.075 0 
4.6875 0.075 0 2.34375 0.825 0 2.34375 0.075 0 
2.34375 0.075 0 1.77636e-15 0.825 0 1.77636e-15 0.075 0 
1.77636e-15 0.075 0 -2.34375 0.825 0 -2.34375 0.075 0 
-2.34375 0.075 0 -4.6875 0.825 0 -4.6875 0.075 0 
-4.6875 0.075 0 -7.03125 0.825 0 -7.03125 0.075 0 
7.98367 0.520224 0 8.03125 0.825 0 8.42258 0.379776 0 
8.375 0.075 0 6.03125 0.825 0 5.63992 0.520224 0 
6.33559 0.297612 0 5.1875 0.825 0 5.16371 0.672612 0 
3.6875 0.825 0 3.29617 0.520224 0 3.99184 0.297612 0 
2.84375 0.825 0 2.81996 0.672612 0 4.1875 0.825 0 
4.4204 0.438602 0 0.952424 0.520224 0 1 0.825 0 
1.86754 0.227388 0 -1.39133 0.520224 0 -1.34375 0.825 0 
-0.476212 0.227388 0 -3.34375 0.825 0 -3.73508 0.520224 0 
-3.03941 0.297612 0 -4.1875 0.825 0 -4.21129 0.672612 0 
-2.84375 0.825 0 -2.61085 0.438602 0 -5.6875 0.825 0 
-6.07883 0.520224 0 -5.38316 0.297612 0 -6.53125 0.825 0 
-6.55504 0.672612 0 -8.42258 0.520224 0 -8.375 0.825 0 
-7.98367 0.379776 0 -8.03125 0.075 0 6.07883 0.379776 0 
6.03125 0.075 0 3.73508 0.379776 0 3.6875 0.075 0 
2.81996 0.672612 0 1 0.075 0 1.39133 0.379776 0 
0.695663 0.602388 0 1.84375 0.075 0 1.86754 0.227388 0 
0.5 0.075 0 0.267097 0.461398 0 -0.952424 0.379776 0 
-1 0.075 0 -1.86754 0.672612 0 -3.6875 0.075 0 
-3.29617 0.379776 0 -3.99184 0.602388 0 -2.84375 0.075 0 
-2.81996 0.227388 0 -4.1875 0.075 0 -4.4204 0.461398 0 
-5.63992 0.379776 0 -5.6875 0.075 0 1.67188 0.825 0 
1.40998 0.373806 0 2.00781 0.604152 0 -0.671875 0.825 0 
-0.933769 0.373806 0 -0.335937 0.604152 0 3.01562 0.075 0 
3.27752 0.526194 0 2.67969 0.295848 0 -1.67187 0.075 0 
-1.40998 0.526194 0 -2.00781 0.295848 0 5.60937 0.825 0 
4.9375 0.825 0 4.92561 0.748806 0 3.26562 0.825 0 
2.58186 0.748806 0 2.59375 0.825 0 -3.76562 0.825 0 
-4.4375 0.825 0 -4.44939 0.748806 0 -6.10937 0.825 0 
-6.79314 0.748806 0 -6.78125 0.825 0 1.42188 0.075 0 
2.09375 0.075 0 2.10564 0.151194 0 -3.26562 0.075 0 
-2.58186 0.151194 0 -2.59375 0.075 0 5.40182 0.596418 0 
3.05807 0.596418 0 -3.97318 0.596418 0 -6.31693 0.596418 0 
1.62943 0.303582 0 -3.05807 0.303582 0 1.47603 0.234347 0 
1.04349 0.491082 0 1.63281 0.075 0 1.21094 0.075 0 
1.21741 0.435429 0 1.29903 0.228632 0 1.07113 0.277879 0 
1.72454 0.190673 0 0.807286 0.352069 0 0.955025 0.371221 0 
0.869579 0.546735 0 0.75 0.075 0 0.900627 0.211437 0 
0.531616 0.379189 0 0.67717 0.444095 0 0.347831 0.713694 0 
0.25 0.075 0 0.497973 0.228948 0 0.625 0.153634 0 
0.753221 0.218791 0 0.649973 0.309427 0 0.387591 0.382436 0 
0.406986 0.543449 0 0.521747 0.658041 0 0.556225 0.519661 0 
1.77636e-15 0.45 0 0.22751 0.269572 0 0.285234 0.357657 0 
0.145003 0.386596 0 0.36201 0.244389 0 1.77636e-15 0.2625 0 
0.27979 0.177029 0 0.143949 0.161328 0 0.375 0.075 0 
0.113423 0.276733 0 0.421713 0.163775 0 0.0453706 0.35625 0 
1.77636e-15 0.16875 0 0.173916 0.769347 0 0.150064 0.515379 0 
0.266256 0.600732 0 1.77636e-15 0.6375 0 0.145061 0.643953 0 
0.0484295 0.54375 0 0.0658624 0.73125 0 7.53125 0.825 0 
7.50746 0.672612 0 8.89879 0.227388 0 8.70312 0.825 0 
8.89879 0.227388 0 8.875 0.075 0 7.70312 0.075 0 
7.72691 0.602388 0 0.476212 0.672612 0 0.5 0.825 0 
0.25 0.825 0 0.238106 0.748806 0 0.75 0.825 0 
0.375 0.766462 0 0.714318 0.596418 0 0.625 0.727437 0 
0.739528 0.709559 0 0.854564 0.624548 0 1.00547 0.668045 0 
1.1812 0.447015 0 1.33594 0.825 0 0.875 0.762706 0 
1.35513 0.596478 0 1.63195 0.546571 0 1.50391 0.724042 0 
1.19375 0.697989 0 1.63876 0.300597 0 1.80636 0.663638 0 
2.00781 0.825 0 2.34375 0.45 0 2.17578 0.714576 0 
-1.84375 0.825 0 -1.86754 0.672612 0 -1.62943 0.596418 0 
-2.10564 0.748806 0 -2.09375 0.825 0 -1.59375 0.825 0 
-1.71875 0.727437 0 -1.46875 0.688411 0 -1.16255 0.447015 0 
-7.70312 0.825 0 -7.72691 0.297612 0 -8.89879 0.672612 0 
-8.875 0.825 0 -7.50746 0.227388 0 -7.53125 0.075 0 
-8.70312 0.075 0 -8.67934 0.602388 0 6.55504 0.227388 0 
6.53125 0.075 0 5.16371 0.672612 0 5.35937 0.075 0 
4.21129 0.227388 0 4.1875 0.075 0 -0.5 0.075 0 
-0.476212 0.227388 0 -0.595265 0.265485 0 -0.238106 0.151194 0 
-0.25 0.075 0 -0.119053 0.113097 0 -0.125 0.075 0 
-0.375 0.133538 0 -0.457217 0.146372 0 -0.714318 0.303582 0 
-0.75 0.075 0 -0.561941 0.164553 0 -0.625 0.075 0 
-0.6875 0.18232 0 -0.856075 0.208634 0 -0.776929 0.162542 0 
-0.875 0.075 0 -0.833371 0.341679 0 -1.01279 0.233098 0 
-1.1812 0.452985 0 -1.33594 0.075 0 -1.16797 0.075 0 
-1.25195 0.261284 0 -1.50391 0.262801 0 -1.50391 0.075 0 
-1.3773 0.366098 0 -1.67899 0.473679 0 -1.88699 0.465359 0 
-2.34375 0.45 0 -5.16371 0.227388 0 -5.1875 0.075 0 
-6.35937 0.075 0 -6.33559 0.602388 0 8.44123 0.373806 0 
8.03906 0.283541 0 -1.00781 0.825 0 -1.22365 0.650151 0 
-0.988617 0.596478 0 -1.17578 0.825 0 -1.02964 0.468282 0 
-0.711802 0.546571 0 -0.839844 0.724042 0 -0.848113 0.58315 0 
-0.703533 0.687462 0 -0.528642 0.606509 0 -0.704991 0.300597 0 
-0.335937 0.825 0 -0.503906 0.825 0 -0.419922 0.714576 0 
-0.434479 0.426345 0 -0.58087 0.723067 0 -0.583172 0.463319 0 
-0.274689 0.453998 0 -0.570483 0.326861 0 -0.238106 0.151194 0 
1.77636e-15 0.45 0 -0.32208 0.298913 0 1.77636e-15 0.2625 0 
1.77636e-15 0.6375 0 -0.236831 0.557009 0 -0.139065 0.462617 0 
-0.167969 0.825 0 -0.12678 0.621865 0 -0.251953 0.714576 0 
-0.0839844 0.736286 0 -0.159587 0.293558 0 -0.119053 0.113097 0 
-0.0645708 0.35625 0 -1.08789 0.703206 0 -1.11804 0.571158 0 
-0.792483 0.421255 0 -8.03906 0.616459 0 -8.36719 0.283541 0 
5.62127 0.526194 0 -2.11988 0.591755 0 -6.02344 0.283541 0 
2.34375 0.45 0 2.98502 0.39437 0 2.67969 0.075 0 
-2.00781 0.075 0 -1.83984 0.185424 0 -2.17578 0.185424 0 
-1.68683 0.289047 0 2.09742 0.356296 0 2.54624 0.6375 0 
-2.59375 0.825 0 -3.38724 0.408918 0 -2.69158 0.186306 0 
-2.34375 0.45 0 -3.09375 0.617761 0 3.35156 0.075 0 
[...]
CELL_DATA 2129
FIELD FieldData 4
electrode_index 1 2129 int
0 0 0 0 0 0 0 0 0 
0 0 0 0 0 0 0 0 0 
0 0 0 0 0 0 0 0 0 
0 0 0 0 0 0 0 0 0 
0 0 0 1 1 1 1 1 1 
1 1 1 1 1 1 1 1 1 
1 1 1 1 1 1 1 1 1 
1 1 1 1 1 1 1 1 1 
1 1 1 1 1 1 1 1 1 
1 1 1 1 1 1 1 1 1 
1 1 1 1 1 1 1 1 1 
1 1 1 1 1 1 1 1 1 
1 1 1 1 1 1 1 1 1 
1 1 1 1 1 1 1 1 1 
1 1 1 1 1 1 1 1 1 
1 1 1 1 1 1 1 1 1 
1 2 2 2 2 2 2 2 2 
2 2 2 2 2 2 2 2 2 
2 2 2 2 2 2 2 2 2 
2 2 2 2 2 2 2 2 2 
2 2 2 2 2 2 2 2 2 
2 2 2 2 2 2 2 2 2 
2 2 2 2 2 2 2 2 2 
2 2 2 2 2 2 2 2 2 
2 2 2 2 2 2 2 2 2 
2 2 2 2 2 2 2 2 2 
2 2 2 2 2 2 2 2 2 
2 2 2 2 2 2 2 2 2 
2 2 2 2 2 2 2 2 2 
2 2 2 2 2 2 2 2 2 
2 2 2 2 2 2 2 2 2 
2 2 2 2 2 2 2 2 2 
2 2 2 2 2 2 2 2 2 
2 2 2 2 2 2 2 2 2 
2 2 2 2 2 2 2 2 2 
2 2 2 2 2 2 2 2 2 
2 2 2 2 2 2 2 2 2 
2 2 2 2 2 2 2 2 2 
2 2 2 2 2 2 2 2 2 
2 2 2 2 2 2 2 2 2 
2 2 2 2 2 2 2 2 2 
2 2 2 2 2 2 2 2 2 
2 2 2 2 2 2 2 2 2 
2 2 2 2 2 2 2 2 2 
2 2 2 2 2 2 2 2 2 
2 2 2 2 2 2 2 2 2 
2 2 2 2 2 2 2 2 2 
2 2 2 2 2 2 2 2 2 
2 2 2 2 2 2 2 2 2 
2 2 2 2 2 2 2 2 2 
2 2 2 2 2 2 2 2 2 
2 2 2 2 2 2 2 2 2 
2 2 2 2 2 2 2 2 2 
2 2 2 2 2 2 2 2 2 
2 2 2 2 2 2 2 2 2 
2 2 2 2 2 2 2 2 2 
2 2 2 2 2 2 2 2 2 
2 2 2 2 2 2 2 2 2 
2 2 2 2 2 2 2 2 2 
2 2 2 2 2 2 2 2 2 
2 2 2 2 2 2 2 2 2 
2 2 2 2 2 2 2 2 2 
2 2 2 2 2 2 2 2 2 
2 2 2 2 2 2 2 2 2 
2 2 2 2 2 2 2 2 2 
2 2 2 2 2 2 2 2 2 
2 2 2 2 2 2 2 2 2 
2 2 2 2 2 2 2 2 2 
2 2 2 2 2 2 2 2 2 
2 2 2 2 2 2 2 2 2 
2 2 2 2 2 2 2 2 2 
2 2 2 2 2 2 2 2 2 
2 2 2 2 2 2 2 2 2 
2 2 2 2 2 2 2 2 2 
2 2 2 2 2 2 2 2 2 
2 2 2 2 2 2 2 2 2 
2 2 2 2 2 2 2 2 2 
2 2 2 2 2 2 2 2 2 
2 2 2 2 2 2 2 2 2 
2 2 2 2 2 2 2 2 2 
2 2 2 2 2 2 2 2 2 
2 2 2 2 2 2 2 2 2 
2 2 2 2 2 2 2 2 2 
2 2 2 2 2 2 2 2 2 
2 2 2 2 2 2 2 2 2 
2 2 2 2 2 2 2 2 2 
2 2 2 2 2 2 2 2 2 
2 2 2 2 2 2 2 2 2 
2 2 2 2 2 2 2 2 2 
2 2 2 2 2 2 2 2 2 
2 2 2 2 2 2 2 2 2 
2 2 2 2 2 2 2 2 2 
2 2 2 2 2 2 2 2 2 
2 2 2 2 2 2 2 2 2 
2 2 2 2 2 2 2 2 2 
2 2 2 2 2 2 2 2 2 
2 2 2 2 2 2 2 2 2 
2 2 2 2 2 2 2 2 2 
2 2 2 2 2 2 2 2 2 
2 2 2 2 2 2 2 2 2 
2 2 2 2 2 2 2 2 2 
2 2 2 2 2 2 2 2 2 
2 2 2 2 2 2 2 2 2 
2 2 2 2 2 2 2 2 2 
2 2 2 2 2 2 2 2 2 
2 2 2 2 2 2 2 2 2 
2 2 2 2 2 2 2 2 2 
2 2 2 2 2 2 2 2 2 
2 2 2 2 2 2 2 2 2 
2 2 2 2 2 2 2 2 2 
2 2 2 2 2 2 2 2 2 
2 2 2 2 2 2 2 2 2 
2 2 2 2 2 2 2 2 2 
2 2 2 2 2 2 2 2 2 
2 2 2 2 2 2 2 2 2 
2 2 2 2 2 2 2 2 2 
2 2 2 2 2 2 2 2 2 
2 2 2 2 2 2 2 2 2 
2 2 2 2 2 2 2 2 2 
2 2 2 2 2 2 2 2 2 
2 2 2 2 2 2 2 2 2 
2 2 2 2 2 2 2 2 2 
2 2 2 2 2 2 2 2 2 
2 2 3 3 3 3 3 3 3 
3 3 3 3 3 3 3 3 3 
3 3 3 3 3 3 3 3 3 
3 3 3 3 3 3 3 3 3 
3 3 4 4 4 4 4 4 4 
4 4 4 4 4 4 4 4 4 
4 4 4 4 4 4 4 4 4 
4 4 4 4 4 4 4 4 4 
4 4 4 4 4 4 4 4 4 
4 4 4 4 4 4 4 4 4 
4 4 4 4 4 4 4 4 4 
4 4 4 4 4 4 4 4 4 
4 4 4 4 4 4 4 4 4 
4 4 4 4 4 4 4 4 4 
4 4 4 4 4 4 4 4 4 
4 4 4 4 4 4 4 4 4 
4 4 4 4 4 4 4 4 4 
4 4 4 4 4 4 4 4 4 
4 4 4 4 4 4 4 4 4 
4 4 4 4 4 4 4 4 4 
4 4 4 4 4 4 4 4 4 
4 4 4 4 4 4 4 4 4 
4 4 4 4 4 4 4 4 4 
4 4 4 4 4 4 4 4 4 
4 4 4 4 4 4 4 4 4 
4 4 4 4 4 4 4 4 4 
4 4 4 4 4 4 4 4 4 
4 4 4 4 4 4 4 4 4 
4 4 4 4 4 4 4 4 4 
4 4 4 4 4 4 4 4 4 
4 4 4 4 4 4 4 4 4 
4 4 4 4 4 4 4 4 4 
4 4 4 4 4 4 4 4 4 
4 4 4 4 4 4 4 4 4 
4 4 4 4 4 4 4 4 4 
4 4 4 4 4 4 4 4 4 
4 4 4 4 4 4 4 4 4 
4 4 4 4 4 4 4 4 4 
4 4 4 4 4 4 4 4 4 
4 4 4 4 4 4 4 4 4 
4 4 4 4 4 4 4 4 4 
4 4 4 4 4 4 4 4 4 
4 4 4 4 4 4 4 4 4 
4 4 4 4 4 4 4 4 4 
4 4 4 4 4 4 4 4 4 
4 4 4 4 4 4 4 4 4 
4 4 4 4 4 4 4 4 4 
4 4 4 4 4 4 4 4 4 
4 4 4 4 4 4 4 4 4 
4 4 4 4 4 4 4 4 4 
4 4 4 4 4 4 4 4 4 
4 4 4 4 4 4 4 4 4 
4 4 4 4 4 4 4 4 4 
4 4 4 4 4 4 4 4 4 
4 4 4 4 4 4 4 4 4 
4 4 4 4 4 4 4 4 4 
4 4 4 4 4 4 4 4 4 
4 4 4 4 4 4 4 4 4 
4 4 4 4 4 4 4 4 4 
4 4 4 4 4 4 4 4 4 
4 4 4 4 4 4 4 4 4 
4 4 4 4 4 4 4 4 4 
4 4 4 4 4 4 4 4 4 
4 4 4 4 4 4 4 4 4 
4 4 4 4 4 4 4 4 4 
4 4 4 4 4 4 4 4 4 
4 4 4 4 4 4 4 4 4 
4 4 4 4 4 4 4 4 4 
4 4 4 4 4 4 4 4 4 
4 4 4 4 4 4 4 4 4 
4 4 4 4 4 4 4 4 4 
4 4 4 4 4 4 4 4 4 
4 4 4 4 4 4 4 4 4 
4 4 4 4 4 4 4 4 4 
4 4 4 4 4 4 4 4 4 
4 4 4 4 4 4 4 4 4 
4 4 4 4 4 4 4 4 4 
4 4 4 4 4 4 4 4 4 
4 4 4 4 4 4 4 4 4 
4 4 4 4 4 4 4 4 4 
4 4 4 4 4 4 4 4 4 
4 4 4 4 4 4 4 4 4 
4 4 4 4 4 4 4 4 4 
4 4 4 4 4 4 4 4 4 
4 4 4 4 4 4 4 4 4 
4 4 4 4 4 4 4 4 4 
4 4 4 4 4 4 4 4 4 
4 4 4 4 4 4 4 4 4 
4 4 4 4 4 4 4 4 4 
4 4 4 4 4 4 4 4 4 
4 4 4 4 4 4 4 4 4 
4 4 4 4 4 4 4 4 4 
4 4 4 4 4 4 4 4 4 
4 4 4 4 4 4 4 4 4 
4 4 4 4 4 4 4 4 4 
4 4 4 4 4 4 4 4 4 
4 4 4 4 4 4 4 4 4 
4 4 4 4 4 4 4 4 4 
4 4 4 4 4 4 4 4 4 
4 4 4 4 4 4 4 4 4 
4 4 4 4 4 4 4 4 4 
4 4 4 4 4 4 4 4 4 
4 4 4 4 4 4 4 4 4 
4 4 4 4 4 4 4 4 4 
4 4 4 4 4 4 4 4 4 
4 4 4 4 4 4 4 4 4 
4 4 4 4 4 4 4 4 4 
4 4 4 4 4 4 4 4 4 
4 4 4 4 4 4 4 4 4 
4 5 5 5 5 5 5 5 5 
5 5 5 5 5 5 5 5 5 
5 5 5 5 5 5 5 5 5 
5 5 5 5 5 5 5 5 5 
5 5 5 5 5 
charge 1 2129 double
-0.00393343 -0.00266606 -0.00227348 -0.00241332 -0.00255961 -0.0130476 -0.00483684 -0.011834 -0.00697903 
-0.00695107 -0.00309206 -0.0022833 -0.00498425 -0.00504012 -0.00862482 -0.00251132 -0.00266933 -0.000261763 
-0.00262089 -0.0105409 -0.0201579 -0.024303 -0.0174465 -0.032172 -0.00733364 -0.0134743 -0.0122879 
-0.0101966 -0.0185758 -0.0273105 -0.0298842 -0.0151665 -0.000414707 -0.00173614 -0.00216612 -0.00273836 
0.00292139 -0.00110055 -0.0162436 -0.0125997 -0.00644204 -0.00381518 -0.00310584 -0.00367655 -0.00310079 
-0.00234877 -0.00272991 -0.0185873 -0.0128758 -0.0177979 -0.00542175 -0.00278688 -0.00275194 -0.00235462 
-0.00310998 -0.00383874 -0.00382767 -0.0023322 -0.00482365 -0.0030995 -0.00956119 -0.00498533 -0.00281334 
-0.0174077 -0.00376482 -0.00507997 -0.00371042 -0.0137395 -0.0128841 -0.0318031 -0.015049 -0.0454095 
-0.0374038 -0.0130126 -0.0128482 -0.00917295 -0.00242051 -0.00295591 -0.00261483 -0.0202094 -0.0144331 
-0.00525836 -0.00826433 -0.00602238 -0.00452204 -0.00635281 -0.00428593 -0.00658624 -0.0107046 -0.0178153 
-0.00486839 -0.0164674 -0.00893929 -0.0146082 -0.00839994 -0.0127934 -0.00965693 -0.00978353 -0.00955482 
-0.0103227 -0.0128951 -0.0133751 -0.0142803 -0.0142915 -0.00237069 -0.0221583 -0.00393561 -0.00264253 
-0.00274779 -0.0158658 -0.00677063 -0.0140433 -0.0257599 -0.0183333 -0.0175217 -0.0223219 -0.0140428 
-0.0075423 -0.0027228 -0.0095827 -0.0086538 -0.0130976 -0.00886793 -0.0117554 -0.0215009 -0.011779 
-0.00814795 -0.0119193 -0.0210738 -0.00271338 -0.00302268 -0.00661377 -0.00336638 -0.026806 -0.0269408 
-0.00944471 -0.00932416 -0.00607928 -0.00621444 -0.00286646 -0.00275927 -0.00393891 -0.00260052 -0.0160939 
-0.0192718 0.412072 0.377257 0.29882 0.433223 0.431278 0.357734 0.227908 0.235754 
0.325365 0.40451 0.28319 0.271189 0.258735 0.229562 0.453254 0.256488 0.680976 
0.25002 0.808688 0.327793 0.260469 0.360824 0.253632 0.363022 0.353477 0.30409 
0.278208 0.323575 0.36544 0.706185 0.336055 0.30267 0.221649 0.25165 0.323694 
0.230015 1.29554 0.292808 0.314847 0.41813 0.438076 0.224529 0.355199 0.397762 
0.402749 0.23753 0.45202 0.269198 0.567744 0.21696 0.344506 0.686272 0.298544 
0.395334 0.449029 0.322784 0.771527 0.253312 0.478645 0.235601 0.259752 0.682151 
0.248728 0.235103 0.31221 0.405895 0.280489 0.231494 0.234777 0.440937 0.299085 
0.30455 1.41333 0.223962 0.239553 0.364214 0.698947 0.271568 0.213713 0.234521 
0.446943 0.324185 1.37425 0.236102 0.615476 1.22005 0.288328 0.244424 0.313139 
0.332277 0.261697 0.454081 0.325979 0.906105 0.252664 0.228074 0.666181 0.91111 
0.986783 0.483524 0.652362 0.380385 0.620317 0.813418 1.08833 0.3298 0.721832 
0.393278 0.463044 0.787989 1.11336 0.624646 0.743641 0.405706 0.416989 0.858827 
0.229646 0.543275 0.769074 0.751071 0.537689 0.448877 0.773147 1.32055 0.24364 
0.271257 0.362003 0.584802 0.282397 0.325138 0.305971 0.228342 0.38883 1.23708 
0.238893 0.355175 0.23818 0.348618 0.323087 0.22885 0.365594 0.232167 0.323046 
0.39734 0.235179 0.410843 0.396195 0.234427 0.375768 1.04022 0.290049 0.752526 
0.239036 1.4719 0.232131 0.300948 0.256148 0.230374 0.268531 0.270127 0.288634 
0.2291 0.320588 0.236004 0.264273 0.356382 0.230126 0.267155 0.229676 1.63211 
0.33929 0.498573 0.40352 0.232143 0.494638 0.303946 0.618305 0.246347 0.483636 
0.329477 0.310632 0.848008 0.241367 0.264617 0.253171 0.452466 0.229414 0.243283 
0.904741 0.232924 0.411047 0.228971 0.270113 0.246757 0.24026 0.317175 0.319274 
0.50319 0.401309 0.358165 0.229194 0.479789 0.487185 0.610768 0.243047 0.377374 
0.35895 1.10257 0.480914 0.294625 0.486628 0.998906 0.572401 0.24815 0.824133 
0.647971 0.284769 0.260834 0.326651 0.612882 0.229401 1.3131 0.233747 0.267714 
0.826794 0.229252 0.58029 0.238266 0.232631 0.43174 0.306678 0.351199 0.230771 
0.972238 0.233118 0.346712 0.227444 0.259796 0.486638 0.725116 0.914673 0.48318 
0.265727 0.29815 0.390291 1.08696 0.992255 0.301571 0.250435 0.926649 0.24211 
0.666623 0.509404 0.245319 0.193093 0.520201 0.233174 0.688465 0.601796 0.360238 
0.455888 0.581104 0.298233 0.243873 0.269857 0.720456 0.50433 0.245495 0.320706 
1.33951 0.354163 1.08674 0.853366 1.21334 0.398254 0.493099 0.329371 0.636002 
0.76185 0.409606 0.588741 0.287767 0.344614 1.47188 0.324222 1.73627 0.295515 
0.666362 1.02594 0.499494 0.282774 0.573344 0.229068 0.232671 0.321383 0.486708 
1.06367 0.262665 0.232429 0.241116 0.525472 0.228797 0.251925 0.239417 0.459691 
0.27433 0.559556 0.25043 0.257433 0.549171 0.597289 0.532769 0.229651 0.362738 
0.212195 0.260731 0.376789 0.241151 0.232369 0.310014 0.225855 0.328295 0.242681 
0.236228 0.325281 0.4946 0.320097 0.235472 0.2776 0.287516 1.37892 0.246173 
1.37014 0.426849 0.241947 0.295555 0.314966 0.635645 0.260194 0.246447 0.382745 
0.588703 0.228807 0.233506 0.275872 0.231617 0.275005 0.251104 0.265397 0.235018 
0.229787 0.25667 0.417538 0.387691 0.261373 0.435788 0.232083 0.230115 0.275085 
0.235569 0.665833 0.387213 0.333469 1.37245 1.2445 1.3164 0.241421 0.233653 
0.531845 0.229813 1.07558 0.287727 0.229943 0.273609 0.23521 0.240587 0.207745 
0.240963 0.212979 0.261087 0.218473 0.511341 0.241443 0.20152 0.276337 0.259524 
0.690833 0.222845 0.887657 0.32712 1.00816 0.952246 0.231088 1.34203 0.227469 
0.470446 0.229564 0.471063 0.241964 0.486244 0.23337 0.262079 0.285518 0.23715 
0.319103 0.561478 0.663337 2.49216 1.6158 2.63935 0.929146 2.10351 0.917929 
0.571185 1.77401 0.551204 1.10161 0.479174 1.17037 0.397006 1.22583 0.849881 
1.8431 0.495427 1.20117 1.76707 1.05405 1.0167 2.04248 0.544413 1.0863 
1.83264 1.45586 0.85882 1.86602 0.498964 1.20541 1.84804 1.05999 0.615823 
1.18452 2.33529 2.47179 0.598755 1.77418 1.56878 1.08054 0.860511 0.467535 
1.30577 0.883815 0.447272 0.512292 1.82774 0.407376 0.373101 0.331289 0.7341 
0.548236 1.21818 0.840341 1.81726 0.429076 0.508005 0.936185 0.468509 1.46302 
1.20713 1.93407 1.61953 0.942174 0.933881 0.419163 0.772649 0.494241 1.60291 
0.340058 0.462705 0.568858 1.91322 0.755366 0.43512 0.86154 0.405828 0.42384 
0.520644 0.7246 0.46723 1.36832 0.743857 0.272694 0.33576 0.235634 0.248074 
2.11053 0.890681 0.336604 0.51994 1.64332 1.15462 1.08552 0.653343 0.73454 
0.814515 0.766782 1.63308 0.346596 0.29013 0.420245 1.69466 0.481206 0.402423 
0.447377 0.281468 0.300876 0.358275 0.479224 0.541369 0.789104 1.47547 0.44203 
0.766234 1.48967 0.458067 0.978203 0.414204 0.355351 0.30953 0.295877 0.740666 
0.369601 1.5419 0.408054 0.472568 0.556247 0.370205 0.275629 0.339118 0.456714 
1.9247 0.365462 0.519439 1.62052 1.07964 0.441444 0.608442 1.30427 0.5899 
0.441673 1.27838 0.522104 1.67501 0.301919 0.298619 0.362923 0.26149 0.849652 
0.785479 0.401558 0.429829 1.22548 0.334097 0.313776 0.416043 0.664558 0.241766 
0.283764 0.399768 0.310645 0.400923 0.486032 0.301357 0.275806 0.849143 0.661237 
0.247008 0.250122 0.407867 0.328699 0.382408 1.37929 0.330734 0.624575 0.253191 
0.449803 0.710401 0.328083 1.58205 0.293583 0.518942 0.379267 0.55028 0.580469 
0.684921 0.445564 0.362265 0.269643 0.772437 1.41696 1.7536 0.427989 0.456352 
0.352558 1.27148 0.288128 0.56091 0.298283 0.419744 0.27072 0.317104 0.249127 
0.240581 0.244489 0.294906 0.229716 0.29468 0.38148 0.531645 0.372552 0.392901 
0.360167 0.923563 0.60954 0.437679 0.293184 0.329751 0.310536 0.228416 0.22815 
0.240308 0.261461 0.24683 0.24905 0.259292 0.315212 0.243706 0.235966 0.2476 
0.229469 0.231206 0.260534 0.366168 0.975699 0.310709 0.39858 0.257241 0.360805 
0.75579 0.798065 0.380042 0.296264 1.42783 0.290182 0.364283 0.228987 0.228654 
0.228833 0.229988 0.22939 0.241471 0.26199 0.232454 0.256707 0.245011 0.278092 
0.253393 0.249285 0.231722 0.249478 0.284158 0.233406 0.228498 0.234797 0.272692 
0.231717 0.228991 0.660508 0.279373 0.710778 1.20848 0.661384 1.39802 0.672573 
0.651505 0.375005 0.429184 0.469216 0.681509 1.47618 1.25712 0.262637 0.375165 
0.229579 0.229982 0.275439 0.248278 0.730391 0.80174 0.461291 1.43812 0.327741 
0.283993 1.32273 0.397639 0.404332 0.425101 0.322452 0.292052 0.766616 0.722755 
0.739018 0.440278 0.408279 0.415007 0.756346 0.409167 0.735594 0.254058 0.285584 
0.245896 0.230429 0.231534 0.238422 0.262253 0.23408 0.261286 0.401925 0.939745 
0.724403 0.644939 0.4128 1.50724 0.385805 0.380887 0.747004 0.261916 0.262091 
0.434691 0.660972 0.300425 1.67465 0.73861 0.45484 0.310392 0.72277 0.381738 
0.783065 0.449066 0.236315 0.292788 0.234143 0.233726 0.229144 0.229537 1.09535 
0.35293 0.716764 1.08106 0.342289 0.259992 0.235305 0.238485 0.229434 0.360354 
0.95995 0.584781 1.41693 0.293432 0.286727 0.296069 0.230996 0.273091 0.694436 
0.243275 0.261473 0.261374 0.250785 0.957292 1.26825 0.394714 0.351756 0.243901 
0.255536 0.521678 0.315152 0.552398 0.262222 0.340441 1.09366 0.313457 0.335872 
0.303452 1.02656 0.331364 0.299999 1.0951 0.332224 0.533566 0.310044 0.276976 
1.01889 0.589482 0.392938 0.370671 0.620272 0.228158 0.230747 1.07021 0.602988 
0.208635 0.349391 0.261579 0.368486 1.05526 1.33216 0.351597 0.984518 0.330408 
0.686221 1.34407 0.627385 0.358411 0.770496 0.579153 1.24625 0.226579 0.323081 
1.24631 0.684538 0.365755 0.820459 0.546758 1.2203 0.272722 0.264982 0.358661 
0.769899 1.21327 0.673711 0.233131 0.251102 0.234936 0.289091 0.477 0.247775 
0.240929 0.244895 0.457714 0.506176 0.239667 0.235985 0.307726 0.280894 0.460163 
0.554648 0.507755 0.302092 0.308871 0.301488 0.36096 0.229891 0.249594 0.65336 
0.393037 0.562605 0.396905 1.52723 0.524813 0.308299 0.933975 0.556322 0.368494 
0.567532 0.278035 0.494067 0.268821 0.466886 0.234836 0.636807 0.655213 0.639699 
0.365232 1.34522 0.365619 0.266328 0.265894 0.23948 0.226883 0.234577 0.236621 
0.236091 0.567495 0.325796 0.406988 0.23393 0.942754 0.490644 0.287235 0.316967 
0.528834 0.226586 0.253573 0.663187 0.361495 0.692998 0.226404 0.288723 0.228237 
0.268385 0.250485 0.984669 0.332005 0.286847 0.24294 0.303002 0.233628 0.230665 
0.316748 0.233253 0.294413 0.231017 0.303494 0.359949 0.408765 0.910622 0.61447 
0.216503 0.224375 0.238629 0.217154 0.363786 0.364034 0.632414 0.639277 0.638773 
0.226078 0.232247 0.808695 0.237722 0.798316 0.244639 0.224007 0.22164 0.592037 
0.28016 0.421719 0.6094 0.220154 0.319927 0.239226 0.436845 0.341561 0.470125 
0.248809 0.247313 0.300146 0.415155 0.241832 0.266084 0.416032 0.331758 0.213474 
0.226692 0.603992 -0.00535553 -0.00291639 -0.00322788 -0.0102248 -0.00855248 -0.00401851 -0.00579943 
-0.00643851 -0.00545411 -0.0061903 -0.00379203 -0.00851405 -0.0079527 -0.00729021 -0.00436479 -0.00433074 
-0.00257534 -0.0039425 -0.00259086 -0.00305465 -0.0177728 -0.00969564 -0.00554877 -0.00531315 -0.00394812 
-0.00454721 -0.00647485 -0.0066156 -0.00408995 -0.00368973 -0.00391243 -0.00253113 -0.00505793 -0.00250105 
-0.00306976 -0.00300059 -0.237495 -0.110449 -0.178314 -0.308486 -0.207288 -0.172118 -0.191639 
-0.183025 -0.0609857 -0.119817 -0.0517062 -0.0764602 -0.0461572 -0.107746 -0.0452886 -0.127274 
-0.00485281 -0.00361807 -0.0141998 -0.0103131 -0.00327146 -0.00329448 -0.0546201 -0.011103 -0.00332981 
-0.00366933 -0.0130126 -0.018564 -0.00336297 -0.00377788 -0.0128457 -0.0196237 -0.00336294 -0.00378158 
-0.0136093 -0.0194625 -0.00335754 -0.00374222 -0.0134862 -0.0197827 -0.00333425 -0.00340769 -0.069511 
-0.0109126 -0.00361018 -0.00492269 -0.0185459 -0.00841694 -0.615137 -0.201886 -0.0632106 -0.0570497 
-0.158154 -0.259376 -0.13382 -0.256257 -0.610681 -0.177816 -0.483387 -0.190841 -0.239724 
-0.279482 -0.0441765 -0.185004 -0.0693999 -0.132456 -0.196559 -0.0777807 -0.256438 -0.146894 
-0.181754 -0.152986 -0.494605 -0.156376 -0.234931 -0.57101 -0.0514199 -0.0897641 -0.340923 
-0.159897 -0.260043 -0.135449 -0.265715 -0.329626 -0.13554 -0.315436 -0.0278463 -0.0430956 
-0.0683303 -0.0503713 -0.0507332 -0.0911268 -0.0486419 -0.053775 -0.0889884 -0.0619729 -0.0431992 
-0.0498184 -0.111747 -0.046571 -0.0485002 -0.0482692 -0.0789858 -0.048752 -0.0592156 -0.0538733 
-0.060158 -0.0468408 -0.0422921 -0.158607 -0.0648925 -0.0710537 -0.00372104 -0.0535765 -0.359441 
-0.0475242 -0.430184 -1.12097 -0.595335 -0.045627 -0.320124 -0.255019 -0.0545493 -0.0627703 
-0.054449 -0.0511537 -0.101393 -0.138864 -0.0670307 -0.0484076 -0.0134064 -0.0072469 -0.342014 
-0.0167506 -0.00950783 -0.0209646 -0.0100454 -0.0258182 -0.0423934 -0.0221932 -0.0259929 -0.028759 
-0.0719694 -0.0711416 -0.0749817 -0.0512284 -0.556256 -0.0732079 -0.0376011 -0.423946 -0.1025 
-0.0180954 -0.0185953 -0.0133522 -0.00746784 -0.136502 -0.0168463 -0.00953169 -0.0215581 -0.00948293 
-0.026056 -0.0417507 -0.0221253 -0.0243468 -0.0275893 -0.174965 -0.0730831 -0.269208 -0.112952 
-0.109239 -0.0566515 -0.0351513 -0.125082 -0.265157 -0.0147029 -0.0168752 -0.0300959 -0.0188239 
-0.00694726 -0.0144506 -0.0481394 -0.0120086 -0.0291532 -0.0111382 -0.00845414 -0.0118805 -0.0107875 
-0.0100373 -0.00666405 -0.00684435 -0.00664008 -0.00660812 -0.00679445 -0.0077014 -0.00906845 -0.00655895 
-0.00666172 -0.0163621 -0.0140285 -0.0133343 -0.00749421 -0.512838 -0.0137536 -0.00953696 -0.0210128 
-0.0094049 -0.0177797 -0.041651 -0.0207938 -0.0261265 -0.200581 -0.125168 -0.0971372 -0.0695333 
-0.0557997 -0.0283779 -0.0564136 -0.0349734 -0.132014 -0.178495 -0.0168311 -0.0264834 -0.0184932 
-0.0239218 -0.00703863 -0.014401 -0.0451346 -0.011977 -0.0293853 -0.0110707 -0.00845287 -0.0118371 
-0.0107741 -0.0100214 -0.00667575 -0.00684885 -0.00664715 -0.00670016 -0.00680784 -0.00770992 -0.00904809 
-0.00657149 -0.00666626 -0.0163287 -0.0140055 -0.0185987 -0.0059834 -0.119155 -0.0173618 -0.0101367 
-0.0227638 -0.00973903 -0.0438272 -0.0401701 -0.028905 -0.0261605 -0.0297828 -0.497044 -0.0716756 
-0.190022 -0.206291 -0.315762 -0.0471168 -0.0349085 -0.137448 -0.30035 -0.0150742 -0.0171778 
-0.0672308 -0.016999 -0.00705311 -0.0145142 -0.0308046 -0.0120296 -0.0314194 -0.0110845 -0.00856283 
-0.011853 -0.0109172 -0.0100977 -0.00673913 -0.006916 -0.00666854 -0.00675118 -0.00685583 -0.00781781 
-0.00925655 -0.00597773 -0.00671447 -0.0165589 -0.0142272 -0.0172101 -0.0251926 -0.0171813 -0.0188035 
-0.0144487 -0.0123559 -0.0169166 -0.0186773 -0.0144098 -0.0120771 -0.031383 -0.0190779 -0.0143131 
-0.0126083 -0.0192646 -0.0132311 -0.0192217 -0.0120812 -0.0167968 -0.0131687 -0.0395501 -0.0131475 
-0.0212513 -0.0119915 -0.34169 -0.0119711 -0.0267427 -0.0131674 -0.0194409 -0.367068 -0.957774 
-0.924529 -0.066789 -0.583783 -0.277616 -0.0972627 -0.888051 -0.740424 -0.380111 -0.611992 
-0.037829 -0.0487372 -0.051141 -0.0655686 -0.0500937 -0.0515974 -0.037065 -0.415929 -0.610334 
-0.42676 -0.42264 -0.0497069 -0.0537283 -0.0248675 -0.0183871 -0.0133282 -0.0181878 -0.0132318 
-0.0186445 -0.013569 -0.0323264 -0.0303018 -0.00987658 -0.0301544 -0.00985426 -0.0297143 -0.0100594 
-0.0458745 -0.0348137 -0.0618872 -0.00920008 -0.00820043 -0.035788 -0.0466734 -0.00917792 -0.00820016 
-0.0391837 -0.0439027 -0.00920819 -0.00825315 -0.015067 -0.0166712 -0.014999 -0.0166367 -0.0165449 
-0.0150317 -0.0149404 -0.0170675 -0.0163927 -0.0149128 -0.0185961 -0.0182769 -0.0163508 -0.0150056 
-0.0144481 -0.0254578 -0.0132751 -0.021734 -0.0185173 -0.011008 -0.0184316 -0.0109896 -0.013673 
-0.0259901 -0.018449 -0.0110996 -0.0176423 -0.0147346 -0.334646 -0.538351 -0.450822 -0.0892596 
-0.0361691 -0.0317333 -0.051479 -0.128306 -0.276064 -0.234467 -0.234982 -0.68321 -0.174319 
-0.123101 -0.639416 -1.30009 -0.149187 -0.555416 -0.708253 -0.410883 -1.19717 -0.145767 
-0.195943 -0.1746 -0.115161 -0.132609 -0.0956345 -0.150198 -1.00816 -0.582046 -0.25992 