# vtk DataFile Version 4.0
vtk output
ASCII
DATASET POLYDATA
POINTS 1889 double
9.375 -5.975 0 9.375 -3.475 0 7.42876 -5.975 0 
7.42876 -5.975 0 9.375 -3.475 0 7.19363 -3.475 0 
5.48251 -5.975 0 7.19363 -3.475 0 5.01226 -3.475 0 
3.53627 -5.975 0 5.01226 -3.475 0 2.57402 -4.30833 0 
3.53627 -5.975 0 5.48251 -5.975 0 5.01226 -3.475 0 
9.375 -0.975 0 7.19363 -0.975 0 9.375 -3.475 0 
9.375 -3.475 0 7.19363 -0.975 0 7.19363 -3.475 0 
7.19363 -3.475 0 7.19363 -0.975 0 5.01226 -0.975 0 
5.01226 -3.475 0 5.01226 -0.975 0 2.83089 -0.975 0 
2.83089 -3.475 0 2.83089 -0.975 0 1.61177 -2.64167 0 
2.57402 -4.30833 0 2.83089 -3.475 0 1.61177 -2.64167 0 
2.57402 -4.30833 0 5.01226 -3.475 0 2.83089 -3.475 0 
2.83089 -3.475 0 5.01226 -3.475 0 2.83089 -0.975 0 
7.19363 -3.475 0 5.01226 -0.975 0 5.01226 -3.475 0 
2.83089 -0.975 0 0.649519 -0.975 0 1.61177 -2.64167 0 
5.48251 -5.975 0 7.42876 -5.975 0 7.19363 -3.475 0 
3.52028 -3.98492 0 4.01226 -3.475 0 4.066 -3.79841 0 
2.22133 -1.80833 0 1.83089 -0.975 0 1.14952 -1.84103 0 
2.33089 -1.24887 0 1.69264 -2.06122 0 1.75742 -1.51756 0 
1.2402 -0.975 0 0.899519 -1.40801 0 1.33634 -1.40116 0 
4.53913 -3.6367 0 4.51226 -3.475 0 1.47494 -1.71963 0 
1.11515 -1.22714 0 0.944862 -0.975 0 0.774519 -1.19151 0 
0.950542 -1.15473 0 1.02452 -1.62452 0 1.12752 -1.43898 0 
1.38064 -2.24135 0 1.38394 -1.97256 0 1.91655 -2.225 0 
1.6522 -2.35144 0 2.11177 -3.50769 0 2.32402 -3.87532 0 
2.7213 -3.83052 0 2.02455 -2.92382 0 1.86177 -3.07468 0 
2.42772 -3.19941 0 2.48142 -3.55356 0 2.83089 -2.475 0 
2.41811 -3.19284 0 2.2405 -1.78212 0 2.2015 -2.41332 0 
2.83089 -1.475 0 4.04467 -5.11388 0 4.066 -3.79841 0 
3.69734 -1.96802 0 4.26226 -3.59963 0 4.77569 -3.55585 0 
4.76226 -3.475 0 0.987527 -1.29396 0 0.837019 -1.29976 0 
0.962019 -1.51627 0 1.01487 -1.41358 0 0.910083 -1.24001 0 
1.06795 -1.52727 0 1.22243 -1.65459 0 0.79719 -0.975 0 
0.859292 -1.15762 0 0.931873 -1.06537 0 1.08129 -1.08079 0 
0.712019 -1.08325 0 0.871026 -1.0105 0 0.799596 -1.06452 0 
0.743269 -1.13738 0 0.865588 -1.08789 0 0.712019 -0.975 0 
1.08702 -1.73277 0 1.31959 -1.80006 0 1.98677 -3.29119 0 
1.73677 -2.85817 0 1.81816 -2.78275 0 1.24898 -1.51421 0 
1.41839 -1.55485 0 1.57018 -1.37505 0 1.87319 -2.92375 0 
1.49621 -2.44151 0 1.76416 -2.43333 0 1.51642 -2.29639 0 
1.51289 -2.11014 0 1.63199 -2.49655 0 1.53555 -0.975 0 
1.26508 -2.04119 0 1.25672 -1.91257 0 1.37989 -2.10834 0 
2.22613 -3.06162 0 2.21894 -3.30148 0 1.33284 -1.17803 0 
2.44902 -4.09183 0 2.64766 -4.06943 0 2.52817 -3.90179 0 
2.21789 -3.69151 0 1.89726 -1.80991 0 1.92614 -2.21189 0 
2.01494 -2.91725 0 2.40727 -2.776 0 2.83089 -2.975 0 
1.93519 -2.60123 0 3.04715 -4.14663 0 3.03627 -5.10897 0 
3.52028 -3.98492 0 3.54266 -4.66079 0 3.53909 -5.39602 0 
2.83089 -1.975 0 4.50386 -4.33612 0 5.19712 -4.45776 0 
4.01226 -3.475 0 -1.43856 -2.64167 0 -0.525 -1.725 0 
-0.476314 -0.975 0 -1.43856 -2.64167 0 -1.12102 -3.475 0 
-0.525 -1.725 0 -1.43856 -2.64167 0 -2.40081 -4.30833 0 
-1.12102 -3.475 0 -1.12102 -3.475 0 -2.40081 -4.30833 0 
-0.525 -3.85 0 -0.525 -1.725 0 -1.12102 -3.475 0 
-0.525 -3.85 0 -3.36307 -5.975 0 -1.94403 -5.975 0 
-2.40081 -4.30833 0 -2.40081 -4.30833 0 -1.94403 -5.975 0 
-0.525 -3.85 0 -0.525 -3.85 0 -1.94403 -5.975 0 
-0.525 -5.975 0 -0.525 -1.725 0 0.525 -1.725 0 
-0.476314 -0.975 0 -0.476314 -0.975 0 0.525 -1.725 0 
0.476314 -0.975 0 0.476314 -0.975 0 0.525 -1.725 0 
1.43856 -2.64167 0 1.43856 -2.64167 0 0.525 -1.725 0 
1.12102 -3.475 0 2.40081 -4.30833 0 1.12102 -3.475 0 
0.525 -3.85 0 1.94403 -5.975 0 0.525 -3.85 0 
0.525 -5.975 0 1.94403 -5.975 0 2.40081 -4.30833 0 
0.525 -3.85 0 1.94403 -5.975 0 3.36307 -5.975 0 
2.40081 -4.30833 0 0.525 -1.725 0 0.525 -3.85 0 
1.12102 -3.475 0 2.40081 -4.30833 0 1.43856 -2.64167 0 
1.12102 -3.475 0 -1.42939 -4.07098 0 -0.525 -2.85 0 
1.49642 -4.08736 0 0.525 -2.725 0 0.847398 -2.6716 0 
-1.56281 -3.76267 0 -0.525 -3.35 0 0.525 -3.35 0 
0.98421 -3.0733 0 -0.976314 -1.84103 0 -1.08561 -2.28751 0 
-1.18856 -2.20865 0 0.124811 -1.42525 0 -0.076125 -1.27475 0 
0.328316 -1.36119 0 0.938564 -1.77564 0 1.08561 -2.28751 0 
1.18856 -2.20865 0 1.56281 -3.76267 0 1.98181 -4.0355 0 
1.9151 -4.18966 0 -0.297869 -1.36316 0 -0.798624 -2.5284 0 
-0.877954 -2.07915 0 -0.959823 -3.0017 0 0.847398 -2.6716 0 
1.29906 -3.00777 0 0.877954 -2.07915 0 -0.847398 -2.6716 0 
-0.525 -2.225 0 -0.686199 -2.1983 0 -0.98421 -3.0733 0 
0.500657 -1.35 0 0.686199 -2.1983 0 0.224438 -1.49987 0 
-1.26209 -2.46459 0 -1.31356 -2.42516 0 -1.08244 -2.02484 0 
-0.805305 -2.00626 0 0.805305 -2.00626 0 1.06356 -1.99215 0 
1.31356 -2.42516 0 1.26209 -2.46459 0 0.512828 -1.5375 0 
0.324906 -1.57513 0 0.488485 -1.1625 0 2.19131 -4.17192 0 
2.15796 -4.24899 0 1.77231 -3.89909 0 -0.525 -2.5375 0 
-0.525 -1.975 0 -0.6056 -1.96165 0 0.0741563 -1.38731 0 
0.408401 -1.26184 0 0.023686 -0.975 0 0.33095 -1.11746 0 
-0.587108 -2.1 0 0.25 -0.975 0 0.108614 -1.18471 0 
0.0393636 -1.27716 0 0.193959 -1.30345 0 0.230657 -1.18704 0 
0.429094 -1.07221 0 -0.226314 -0.975 0 -0.0365352 -1.12144 0 
-0.101314 -0.975 0 -0.276219 -1.12487 0 -0.176172 -1.19981 0 
-0.163814 -1.07906 0 -0.376267 -1.04994 0 -0.351314 -0.975 0 
-0.774593 -2.92055 0 0.6056 -1.96165 0 0.701477 -1.90208 0 
-0.726314 -1.40801 0 -0.945458 -2.14689 0 -1.07341 -2.1526 0 
0.136843 -1.05122 0 -0.665153 -1.86563 0 -0.851314 -1.62452 0 
-0.730073 -1.72333 0 -0.820543 -1.85092 0 -0.913814 -1.73277 0 
-0.595076 -1.79531 0 -0.702714 -1.56598 0 -0.627016 -1.66019 0 
-0.508703 -1.47395 0 -0.627512 -1.474 0 -0.492509 -1.22447 0 
-0.601314 -1.19151 0 -0.568158 -1.34483 0 -0.538814 -1.08325 0 
-0.484411 -1.09974 0 -0.946192 -1.98096 0 0.665153 -1.86563 0 
0.813979 -1.85746 0 0.931143 -1.93894 0 0.726314 -1.40801 0 
0.832439 -1.59183 0 0.731702 -1.71828 0 0.885502 -1.68373 0 
0.500657 -1.35 0 0.512828 -1.5375 0 0.672153 -1.56749 0 
0.626757 -1.67258 0 0.59837 -1.4378 0 0.601314 -1.19151 0 
0.492509 -1.22447 0 0.945458 -2.14689 0 1.12606 -2.1004 0 
-1.98181 -4.0355 0 -1.9151 -4.18966 0 0.525 -2.225 0 
0.686199 -2.1983 0 0.6056 -1.96165 0 0.525 -1.975 0 
0.525 -2.475 0 0.766799 -2.43495 0 0.628513 -2.35 0 
0.669918 -2.6 0 -0.766799 -2.43495 0 -0.691092 -2.59279 0 
-0.601379 -2.38125 0 1.15826 -2.36041 0 -0.740266 -3.18785 0 
1.14722 -2.74028 0 1.03374 -2.54689 0 0.901602 -2.33109 0 
0.959823 -3.0017 0 -1.15826 -2.36041 0 -1.10387 -2.69492 0 
-0.919448 -2.31811 0 -0.686199 -2.1983 0 -0.701477 -1.90208 0 
-0.6056 -1.96165 0 -0.175751 -1.20013 0 -0.500657 -1.35 0 
-0.16167 -1.33793 0 -0.25 -1.725 0 -0.326033 -1.08756 0 
-0.0254702 -1.31269 0 -0.512828 -1.5375 0 -0.488485 -1.1625 0 
0.025 -1.725 0 -0.0586759 -1.51362 0 0.275 -1.725 0 
0.0857 -1.57872 0 0.15 -1.725 0 -0.405349 -1.45033 0 
-0.36564 -1.60914 0 -0.209734 -1.56917 0 -0.1125 -1.725 0 
-0.311951 -1.22536 0 -0.42404 -1.26083 0 0.324906 -1.57513 0 
0.224858 -1.50019 0 0.4 -1.725 0 0.424953 -1.65006 0 
0.736602 -3.71687 0 0.820608 -3.42396 0 0.525 -3.0375 0 
0.745257 -3.17531 0 -0.736602 -3.71687 0 -0.838917 -3.45306 0 
-1.29906 -3.00777 0 -1.01071 -3.96868 0 1.01071 -3.96868 0 
-1.93856 -3.50769 0 -1.56281 -3.76267 0 -1.27979 -3.05833 0 
-1.98181 -4.0355 0 -2.15081 -3.87532 0 -1.84942 -3.78067 0 
-1.68856 -3.07468 0 -1.60067 -3.4141 0 1.90081 -3.44231 0 
1.68856 -3.07468 0 1.76092 -3.89167 0 1.44097 -3.68333 0 
1.27979 -3.05833 0 1.47317 -3.34175 0 2.15081 -3.87532 0 
-2.90081 -5.17436 0 -2.86307 -5.975 0 -2.13649 -5.27277 0 
-2.26865 -4.79055 0 -2.65081 -4.74135 0 -2.56192 -5.55959 0 
-1.08034 -4.68162 0 -0.525 -4.85 0 -0.802671 -4.26581 0 
-0.525 -4.35 0 -0.525 -5.4125 0 -1.025 -5.975 0 
-1.38869 -5.14338 0 -1.01887 -5.47698 0 1.38869 -5.14338 0 
1.44403 -5.975 0 0.525 -4.9125 0 0.984516 -5.58793 0 
1.08034 -4.68162 0 0.525 -4.35 0 0.802671 -4.26581 0 
2.86307 -5.10897 0 2.13649 -5.27277 0 2.26865 -4.79055 0 
2.86307 -5.975 0 2.57893 -5.54199 0 -1.38869 -5.14338 0 
-2.20835 -5.01057 0 -1.66636 -5.55919 0 -2.07619 -5.49278 0 
-1.49642 -4.08736 0 -1.72845 -4.64453 0 -1.08034 -4.68162 0 
1.08034 -4.68162 0 1.49642 -4.08736 0 2.20835 -5.01057 0 
1.51219 -5.32831 0 1.69578 -4.66973 0 -0.504231 -1.06714 0 
-0.480363 -1.03737 0 -0.507564 -1.02913 0 -0.570064 -1.13738 0 
-0.48846 -1.16211 0 -0.663814 -1.29976 0 -0.541455 -1.18998 0 
-1.25106 -2.31691 0 -1.17385 -2.37605 0 -1.35033 -2.55313 0 
-1.37606 -2.53341 0 1.25106 -2.31691 0 1.17385 -2.37605 0 
1.37606 -2.53341 0 1.35033 -2.55313 0 -0.522843 -1.12856 0 
2.0517 -4.15725 0 2.29606 -4.24013 0 2.27939 -4.27866 0 
-0.525 -1.85 0 -0.5653 -1.84333 0 -0.288814 -0.975 0 
-0.42629 -1.01247 0 -0.413814 -0.975 0 -0.445064 -0.975 0 
-0.451302 -0.993734 0 -0.382564 -1.00622 0 0.525 -2.1 0 
0.525 -1.85 0 0.5653 -1.84333 0 0.3375 -1.66257 0 
-0.558892 -1.2667 0 -0.556054 -1.9125 0 -0.326243 -1.08741 0 
-0.320064 -1.02703 0 0.556054 -1.9125 0 -0.632564 -1.24563 0 
-0.605834 -1.30075 0 -0.695064 -1.35389 0 -0.657366 -1.41174 0 
-0.62806 -1.35788 0 -0.584077 -1.41573 0 0.518914 -1.63125 0 
0.0197944 -1.19034 0 0.058935 -1.10447 0 0.0670498 -1.03273 0 
0.136843 -0.975 0 -0.0111136 -1.04629 0 0.0802645 -0.975 0 
0.193422 -0.975 0 0.165132 -1.01311 0 0.227464 -1.08893 0 
0.221711 -1.02555 0 0.340861 -1.04483 0 -0.038814 -0.975 0 
-0.070064 -1.02817 0 -0.130791 -1.02809 0 -0.0519952 -1.07434 0 
-0.106152 -1.1182 0 -0.163814 -0.975 0 -0.00756397 -1.00388 0 
-0.195064 -1.02703 0 -0.257564 -1.02917 0 -0.277825 -1.07489 0 
-0.221592 -1.0981 0 0.282919 -1.08973 0 0.279734 -1.1507 0 
0.311122 -1.24441 0 0.363157 -0.975 0 0.282694 -1.02649 0 
0.306578 -0.975 0 0.376248 -1.08665 0 0.400742 -1.17137 0 
0.419735 -0.975 0 0.4824 -1.06875 0 0.452704 -1.02361 0 
0.45879 -1.11736 0 0.159032 -1.12564 0 0.336341 -1.18386 0 
0.394932 -1.02644 0 1.0936 -2.19131 0 0.120797 -1.26599 0 
0.728162 -2.05196 0 0.613238 -1.81354 0 0.5653 -1.84333 0 
-0.896459 -1.81496 0 -0.912707 -1.90054 0 -0.516852 -1.59947 0 
-0.788814 -1.51627 0 -0.777014 -1.59525 0 -0.789507 -1.67247 0 
-0.855793 -1.6941 0 -0.714504 -1.64498 0 -0.828891 -1.77042 0 
[...]
CELL_DATA 2224
FIELD FieldData 4
electrode_index 1 2224 int
0 0 0 0 0 0 0 0 0 
0 0 0 0 0 0 0 0 0 
0 0 0 0 0 0 0 0 0 
0 0 0 0 0 0 0 0 0 
0 0 0 0 0 0 0 0 0 
0 0 0 0 0 0 0 0 0 
0 0 0 0 0 0 0 0 0 
0 0 0 0 0 0 0 0 0 
0 0 0 0 0 0 0 0 0 
0 0 0 0 0 0 0 0 0 
0 0 0 0 0 0 0 0 0 
0 0 0 0 0 0 0 0 0 
0 0 0 0 0 0 0 0 0 
0 0 0 0 0 0 0 0 0 
0 0 0 0 0 0 0 0 0 
0 0 0 0 0 0 0 0 0 
0 0 0 0 0 0 0 0 0 
0 0 0 0 0 1 1 1 1 
1 1 1 1 1 1 1 1 1 
1 1 1 1 1 1 1 1 1 
1 1 1 1 1 1 1 1 1 
1 1 1 1 1 1 1 1 1 
1 1 1 1 1 1 1 1 1 
1 1 1 1 1 1 1 1 1 
1 1 1 1 1 1 1 1 1 
1 1 1 1 1 1 1 1 1 
1 1 1 1 1 1 1 1 1 
1 1 1 1 1 1 1 1 1 
1 1 1 1 1 1 1 1 1 
1 1 1 1 1 1 1 1 1 
1 1 1 1 1 1 1 1 1 
1 1 1 1 1 1 1 1 1 
1 1 1 1 1 1 1 1 1 
1 1 1 1 1 1 1 1 1 
1 1 1 1 1 1 1 1 1 
1 1 1 1 1 1 1 1 1 
1 1 1 1 1 1 1 1 1 
1 1 1 1 1 1 1 1 1 
1 1 1 1 1 1 1 1 1 
1 1 1 1 1 1 1 1 1 
1 1 1 1 1 1 1 1 1 
1 1 1 1 1 1 1 1 1 
1 1 1 1 1 1 1 1 1 
1 1 1 1 1 1 1 1 1 
1 1 1 1 1 1 1 1 1 
1 1 1 1 1 1 1 1 1 
1 1 1 1 1 1 1 1 1 
1 1 1 1 1 1 1 1 1 
1 1 1 1 1 1 1 1 1 
1 1 1 1 1 1 1 1 1 
1 1 1 1 1 1 1 1 1 
1 1 1 1 1 1 1 1 1 
1 1 1 1 1 1 1 1 1 
1 1 1 1 1 1 1 1 1 
1 1 1 1 1 1 1 1 1 
1 1 1 1 1 1 1 1 1 
1 1 1 1 1 1 1 1 1 
1 1 1 1 1 1 1 1 1 
1 1 1 1 1 1 1 1 1 
1 1 1 1 1 1 1 1 1 
1 1 1 1 1 1 1 1 1 
1 1 1 1 1 1 1 1 1 
1 1 1 1 1 1 1 1 1 
1 1 1 1 1 1 1 1 1 
1 1 1 1 1 1 1 1 1 
1 1 1 1 1 1 1 1 1 
1 1 1 1 1 1 1 1 1 
1 1 1 1 1 1 1 1 1 
1 1 1 1 1 1 1 1 1 
1 1 1 1 1 1 1 1 1 
1 1 1 1 1 1 1 1 1 
1 1 1 1 1 1 1 1 1 
1 1 1 1 1 1 1 1 1 
1 1 1 1 1 1 1 1 1 
1 1 1 1 1 1 1 1 1 
1 1 1 1 1 1 1 1 1 
1 1 1 1 1 1 1 1 1 
1 1 1 1 1 1 1 1 1 
1 1 1 1 1 1 1 1 1 
1 1 1 1 1 1 1 1 1 
1 1 1 1 1 1 1 1 1 
1 1 1 1 1 1 1 1 1 
1 1 1 1 1 1 1 1 1 
1 1 1 1 1 1 1 1 1 
1 1 1 1 1 1 1 1 1 
1 1 1 1 1 1 1 1 1 
1 1 1 1 1 1 1 1 1 
1 1 1 1 1 1 1 1 1 
1 1 1 1 1 1 1 1 1 
1 1 1 1 1 1 1 1 1 
1 1 1 1 1 1 1 1 1 
1 1 1 1 1 1 1 1 1 
1 1 1 1 1 1 1 1 1 
1 1 1 1 1 1 1 1 1 
1 1 1 1 1 1 1 1 1 
1 1 1 1 1 1 1 1 1 
1 1 1 1 1 1 1 1 1 
1 1 1 1 1 1 1 1 1 
1 1 1 1 1 1 1 1 1 
1 1 1 1 1 1 1 1 1 
1 1 1 1 1 1 1 1 1 
1 1 1 1 1 1 1 1 1 
1 2 2 2 2 2 2 2 2 
2 2 2 2 2 2 2 2 2 
2 2 2 2 2 2 2 2 2 
2 2 2 2 2 2 2 2 2 
2 2 2 2 2 2 2 2 2 
2 2 2 2 2 2 2 2 2 
2 2 2 2 2 2 2 2 2 
2 2 2 2 2 2 2 2 2 
2 2 2 2 2 2 2 2 2 
2 2 2 2 2 2 2 2 2 
2 2 2 2 2 2 2 2 2 
2 2 2 2 2 2 2 2 2 
2 2 2 2 2 2 2 2 2 
2 2 2 2 2 2 2 2 2 
2 2 2 2 2 2 2 2 2 
2 2 2 2 2 2 2 2 2 
2 2 2 2 2 2 2 2 2 
2 2 2 2 2 2 2 2 2 
2 2 2 2 2 2 2 2 2 
2 2 2 2 2 2 2 2 2 
2 2 2 2 2 2 2 2 2 
2 2 2 2 2 2 2 2 2 
2 2 2 2 2 2 2 2 2 
2 2 2 2 2 2 2 2 2 
2 2 2 2 2 2 2 2 2 
2 2 2 2 2 2 2 2 2 
2 2 2 2 2 3 3 3 3 
3 3 3 3 3 3 3 3 3 
3 3 3 3 3 3 3 3 3 
3 3 3 3 3 3 3 3 3 
3 3 3 3 3 3 3 3 3 
3 3 3 3 3 3 3 3 3 
3 3 3 3 3 3 3 3 3 
3 3 3 3 3 3 3 3 3 
3 3 3 3 3 3 3 3 3 
3 3 3 3 3 3 3 3 3 
3 3 3 3 3 3 3 3 3 
3 3 3 3 3 3 3 3 3 
3 3 3 3 3 3 3 3 3 
3 3 3 3 3 3 3 3 3 
3 3 3 3 3 3 3 3 3 
3 3 3 3 3 3 3 3 3 
3 3 3 3 3 3 3 3 3 
3 3 3 3 3 3 3 3 3 
3 3 3 3 3 3 3 3 3 
3 3 3 3 3 3 3 3 3 
3 3 3 3 3 3 3 4 4 
4 4 4 4 4 4 4 4 4 
4 4 4 4 4 4 4 4 4 
4 4 4 4 4 4 4 4 4 
4 4 4 4 4 4 4 4 4 
4 4 4 4 4 4 4 4 4 
4 4 4 4 4 4 4 4 4 
4 4 4 4 4 4 4 4 4 
4 4 4 4 4 4 4 4 4 
4 4 4 4 4 4 4 4 4 
4 4 4 4 4 4 4 4 4 
4 4 4 4 4 4 4 4 4 
4 4 4 4 4 4 4 4 4 
4 4 4 4 4 4 4 4 4 
4 4 4 4 4 4 4 4 4 
4 4 4 4 4 4 4 4 4 
4 4 4 4 4 4 4 4 4 
4 4 4 4 4 4 4 4 4 
4 4 4 4 4 4 4 4 4 
4 4 4 4 4 4 4 4 4 
4 4 4 4 4 4 4 4 4 
4 4 4 4 4 4 4 4 4 
4 4 4 4 4 4 4 4 4 
4 4 4 4 4 4 4 4 4 
4 4 4 4 4 4 4 4 4 
4 4 4 4 4 4 4 4 4 
4 4 4 4 4 4 4 4 4 
4 4 4 4 4 4 4 4 4 
4 4 4 4 4 4 4 4 4 
4 4 4 4 4 4 4 4 4 
4 4 4 4 4 4 4 4 4 
4 4 4 4 4 4 4 4 4 
4 4 4 4 4 4 4 4 4 
4 4 4 4 4 4 4 4 4 
4 4 4 4 4 4 4 4 4 
4 4 4 4 4 4 4 4 4 
4 4 4 4 4 4 4 4 4 
4 4 4 4 4 4 4 4 4 
4 4 4 4 4 4 4 4 4 
4 4 4 4 4 4 4 4 4 
4 4 4 4 4 4 4 4 4 
4 4 4 4 4 4 4 4 4 
4 4 4 4 4 4 4 4 4 
4 4 4 4 4 4 4 4 4 
4 4 4 4 4 4 4 4 4 
4 4 4 4 4 4 4 4 4 
4 4 4 4 4 4 4 4 4 
4 4 4 4 4 4 4 4 4 
4 4 4 4 4 4 4 4 4 
4 4 4 4 4 4 4 4 4 
4 4 4 4 4 4 4 4 4 
4 4 4 4 4 4 4 4 4 
4 4 4 4 4 4 4 4 4 
4 4 4 4 4 4 4 4 4 
4 4 4 4 4 4 4 4 4 
4 4 4 4 4 4 4 4 4 
4 4 4 4 4 4 4 4 4 
4 4 4 4 4 4 4 4 4 
4 4 4 4 4 4 4 4 4 
4 4 4 4 4 4 4 4 4 
4 4 4 4 4 4 4 4 4 
4 4 4 4 4 4 4 4 4 
4 4 4 4 4 4 4 4 4 
4 4 4 4 4 4 4 4 4 
4 4 4 4 4 4 4 4 4 
4 4 4 4 4 4 4 4 4 
4 4 4 4 4 4 4 4 4 
4 4 4 4 4 4 4 4 4 
4 4 4 4 4 4 4 4 4 
4 4 4 4 4 4 4 4 4 
4 4 4 4 4 4 4 4 4 
4 4 4 4 4 4 4 4 4 
4 4 4 4 4 4 4 4 4 
4 4 4 4 4 4 4 4 4 
4 4 4 4 4 4 4 4 4 
4 4 4 4 4 4 4 4 4 
4 4 4 4 4 4 4 4 4 
4 4 4 4 4 4 4 4 4 
4 4 4 4 4 4 4 4 5 
5 5 5 5 5 5 5 5 5 
5 5 5 5 5 5 5 5 5 
5 5 5 5 5 5 5 5 5 
5 5 5 5 5 5 5 5 5 
5 5 5 5 5 5 5 5 5 
5 5 5 5 5 5 5 5 5 
5 5 5 5 5 5 5 5 5 
5 5 5 5 5 5 5 5 5 
5 5 5 5 5 5 5 5 5 
5 5 5 5 5 5 5 5 5 
5 5 5 5 5 5 5 5 5 
5 5 5 5 5 5 5 5 5 
5 5 5 5 5 5 5 5 5 
5 5 5 5 5 5 5 5 5 
5 5 5 5 5 5 5 5 5 
5 5 5 5 5 5 5 5 5 
5 5 5 5 5 5 5 5 5 
5 5 5 5 5 5 5 5 5 
5 5 5 5 5 5 5 5 5 
5 5 5 5 5 5 5 5 5 
5 
charge 1 2224 double
-0.00581536 -0.00307322 -0.00594653 -0.212889 -0.0287409 -0.00259709 -0.0023045 -0.00256123 -0.00601187 
-0.135067 -0.069392 -0.0270696 -0.0174783 -0.00405608 -0.88618 -0.00752442 -0.0472604 -0.0122766 
-0.0143566 -0.0358811 -0.0246453 -0.0156364 -0.0653645 -0.0180653 -0.0396761 -0.02604 -0.161319 
-0.0871687 -0.0444678 -0.0801825 -0.130685 -0.383708 -0.0078175 -0.00916334 -0.131049 -0.0657854 
-0.146111 -0.447426 -0.182045 -0.137686 -0.422263 -0.447976 -0.831566 -0.107595 -0.108642 
-0.117027 -0.365279 -0.364912 -0.104858 -0.861658 -0.0923312 -0.379017 -0.152037 -0.24184 
-0.103441 -0.366962 -0.392515 -0.071628 -0.0991824 -0.0140528 -0.0350542 -0.0629941 -0.0737906 
-0.0313877 -0.0196122 -0.0129049 -0.101337 -0.00957336 -0.0128343 -0.0112392 -0.00238397 -0.00426122 
-0.911717 -0.163923 -0.675577 -0.208605 -0.158509 -0.351235 -0.207538 -0.35356 -0.613684 
-0.229098 -0.278883 -0.114317 -0.261171 -0.215527 -0.823336 -0.175231 -0.112924 -0.843868 
-0.0732873 -0.119603 -0.421211 -0.349253 -1.2771 -0.194548 -0.2213 -0.91131 -0.178779 
-0.414598 -0.557235 -0.586417 -0.142872 -0.22295 -0.182393 -0.867068 -0.809917 -0.183022 
-0.102224 -0.066324 -0.0502161 -0.0359063 -0.069085 -0.206727 -0.441456 -0.357374 -0.160916 
-0.177339 -0.139077 -0.134303 -0.435179 -0.369865 -0.355071 -0.0352485 -0.23754 -1.08967 
-0.456434 -0.228531 -1.01164 -0.182716 -0.564486 -0.0576999 -0.0585022 -0.669848 -0.301604 
-0.117307 -0.630726 -0.0508621 -0.39691 -0.0614946 -0.0435589 -0.0508313 -0.0907041 -0.0374924 
-0.055178 -0.0658714 -0.194026 -0.0243295 -0.111292 -0.0212558 -0.120805 -0.0616669 -0.0425129 
-0.363027 -0.0115482 -0.00933502 -0.00884218 -0.017593 0.344378 0.251496 0.591427 0.141846 
0.168498 0.180418 0.108113 0.11454 0.261519 0.309113 0.326367 0.179688 0.129766 
0.296133 0.0972754 0.271552 0.155988 0.13482 0.147975 0.726506 0.118462 0.997984 
0.284415 0.11581 0.709423 0.232188 0.248353 0.167945 1.2064 0.333972 0.264229 
1.06129 0.313513 0.30689 0.384872 0.502013 0.649473 0.153266 0.218932 0.337935 
0.652656 0.257495 0.206765 0.299037 0.215353 0.155925 0.207204 0.15574 0.218903 
0.312743 0.338688 0.396865 0.264893 0.300789 0.236998 0.497433 1.1524 0.305912 
0.43843 1.12659 0.288158 0.740183 1.22361 0.252564 0.248598 0.128182 0.398601 
0.325527 0.130131 0.13579 0.67823 0.700437 0.613783 0.4323 0.438392 0.508427 
0.444361 0.234229 0.834646 1.14413 0.360432 0.252484 1.55156 0.253654 0.271796 
0.235772 0.301472 0.228611 0.326522 1.01375 0.818429 0.864984 0.411478 0.251322 
0.34537 0.315689 0.390374 0.661849 0.834027 0.359427 1.07744 2.16062 0.178229 
0.25324 0.293185 0.343048 0.290518 0.401818 1.18287 1.49767 1.32198 0.567223 
0.348872 1.34129 0.417085 0.664492 0.308174 0.671017 0.302076 0.504629 0.28212 
0.302623 0.313638 1.4371 0.322787 0.390193 0.894021 0.418214 0.500772 0.445695 
0.751728 1.07735 0.450349 0.326221 0.321926 0.366689 0.300197 0.290799 1.15975 
0.415511 1.12289 0.305579 0.414288 1.2464 0.386923 0.431405 0.407748 0.339308 
0.302183 0.283185 0.333423 0.340311 0.427568 1.63889 0.648684 0.175681 0.4041 
0.161064 0.606169 0.504041 0.666026 0.354428 0.395032 1.35658 0.279975 0.404934 
0.208312 0.225098 0.209868 0.257927 1.10282 0.93132 0.323291 0.436627 0.142563 
0.905011 0.298669 0.167017 0.25965 0.186431 0.197362 0.233916 0.17079 0.333714 
0.227695 0.192512 0.246671 0.276901 0.258605 0.302324 0.321929 0.228598 0.257353 
0.311527 0.235989 0.317957 0.27826 0.373873 0.284345 0.241293 0.267452 0.27454 
0.249887 0.339669 0.409671 0.226859 0.433295 0.2403 0.267986 0.418373 0.658538 
0.557595 0.366153 0.612277 0.239237 0.332119 0.538875 0.288841 0.927229 0.666037 
0.326892 0.488947 0.144817 0.461137 0.632634 0.179121 0.173039 0.731318 0.149552 
0.366876 0.188369 0.207488 0.831947 0.116984 0.221895 0.164575 0.281648 0.599059 
0.298574 0.567815 0.158582 0.348218 0.132269 0.169219 0.340531 0.273815 0.158477 
0.63905 0.255672 0.148252 0.256706 0.2659 0.412867 0.437484 0.811906 0.132592 
0.218369 0.167209 0.123657 0.100629 0.511752 0.262208 0.217354 0.219052 0.450317 
0.198548 0.40139 0.147941 0.10507 0.125783 0.192644 0.149987 0.42782 0.186428 
0.256199 0.850278 0.409582 0.627425 0.317797 0.227656 0.169759 0.280997 0.100335 
0.0992661 0.107883 0.128466 0.09848 0.104382 0.218608 0.11214 0.0960504 0.108126 
0.104362 0.0998202 0.111473 0.156448 0.59216 1.86195 2.65479 1.48533 0.382724 
2.50277 0.951479 1.37546 0.475705 1.54139 0.596376 1.01444 0.944812 1.98062 
1.2986 0.961976 0.947179 1.96835 0.973852 0.613982 0.184026 0.176029 0.486704 
1.17744 0.932361 0.733428 1.56181 0.51108 1.2354 1.53913 4.27342 2.19629 
0.727052 0.526258 1.10065 1.25459 1.36695 0.931134 0.317683 0.32276 1.54568 
1.36941 0.452016 0.851137 0.421979 0.467127 0.740056 0.474136 1.22743 0.686788 
0.740348 1.35058 0.481048 0.772422 0.405302 0.329173 0.313578 0.321028 0.297242 
0.29355 0.430778 0.318724 0.701443 0.988638 1.85237 1.45311 0.604066 0.487282 
1.42758 0.39862 0.935211 0.380102 0.456473 0.583989 0.435966 1.61238 0.516778 
0.809594 1.00167 0.424371 1.52994 0.432639 0.483607 0.495961 0.332462 0.289219 
0.602122 1.49653 2.0626 1.51455 0.455035 0.486161 0.497197 0.395028 0.527258 
0.336946 0.449008 0.332735 0.557629 0.300227 0.371205 0.268321 0.272953 0.800521 
0.457512 0.398053 1.38444 0.770674 0.697679 0.344683 0.341713 2.20941 0.538653 
1.04196 0.603924 0.51432 0.544712 0.38609 0.303207 0.299223 0.350257 0.681605 
1.76054 0.651269 0.344835 0.234628 0.2552 0.258455 0.265731 0.423083 0.332755 
1.08628 0.772504 0.33894 0.413795 0.826117 0.311744 1.4389 0.671921 0.830992 
0.373042 1.84003 0.656124 0.324865 0.340721 0.36114 0.39143 0.433808 0.461735 
1.43499 0.452722 0.7288 0.423788 0.772067 1.11662 0.654874 0.50719 2.31068 
2.61179 0.361808 1.1852 0.701316 0.290084 1.26404 0.316969 0.397054 0.627596 
1.19682 0.477018 0.68823 0.361143 0.709801 0.399884 0.333533 0.354368 0.657984 
1.26751 1.94508 0.89766 0.560612 1.03058 0.554618 0.714037 0.440915 0.264655 
0.350197 0.252807 0.389731 0.420555 0.344361 0.623896 0.416408 0.511325 0.609818 
0.493125 0.294931 0.251946 0.277808 0.274229 0.37979 0.39793 0.591742 0.261862 
0.261292 1.52403 1.12219 0.783826 0.244584 0.309171 0.342604 0.765289 0.352228 
1.07373 0.320258 0.32726 0.593408 0.312474 0.312124 1.00629 0.269792 0.477318 
0.256008 0.242625 0.245698 0.295412 0.233365 0.2349 0.236094 0.229689 0.243638 
0.230273 0.301908 0.2618 0.26867 0.242932 0.285818 0.29039 0.236415 0.247414 
0.6242 0.660459 0.771111 0.430022 1.71477 0.32268 0.323341 0.353556 1.09485 
0.284564 0.237633 1.0506 0.268859 0.520394 1.09451 0.311428 0.606226 0.235791 
0.229991 1.15995 0.567962 0.584556 0.706258 0.358673 0.265319 0.242727 0.28954 
0.266724 0.28076 0.253235 0.280824 0.265332 0.2657 0.230028 0.257071 0.35217 
0.258807 0.725484 0.611074 0.387032 0.538029 0.569624 0.326565 0.317652 0.339037 
0.41617 0.282338 0.271775 0.333672 1.15961 0.420522 0.247671 0.239112 0.128942 
0.122661 0.5154 0.792424 0.63604 0.270968 0.290248 0.298256 0.946243 0.36552 
0.534504 0.363214 0.515793 0.990198 0.218774 0.258623 0.263981 0.269719 0.463516 
0.24223 0.186844 0.243561 0.242407 0.291132 0.215523 0.244631 0.241681 0.218314 
0.226918 0.256032 0.449821 0.364341 0.888071 0.254209 0.672722 0.470122 1.11367 
0.251138 1.0709 0.190953 0.195087 0.35031 0.583201 0.196379 0.454035 0.391774 
0.236748 0.21598 1.0903 0.222233 0.220907 0.232312 0.37559 0.410828 0.432722 
0.933499 0.163913 0.576004 0.285739 0.138801 0.136678 0.770334 0.414325 0.309396 
0.818971 0.423068 0.77783 0.354736 0.222199 0.192584 0.211685 0.305613 0.512058 
0.41391 0.221006 0.167727 0.165725 0.146461 0.135841 0.145768 0.133078 0.239758 
0.203481 0.2872 0.538726 0.178716 0.178591 0.84215 0.17378 0.15447 0.141764 
0.218678 0.345991 0.370081 0.15075 0.159844 0.19099 0.55522 0.167711 0.635209 
0.594346 0.209844 0.621903 0.21277 0.396955 0.640813 0.659107 0.300713 0.164833 
0.517143 0.632617 0.230361 0.682819 0.123654 0.221357 0.134998 0.302025 0.129305 
0.106483 0.218713 0.181782 0.581015 0.279858 0.110439 0.227379 0.126425 0.130737 
0.295245 0.675211 0.188474 0.813904 0.46251 0.112841 0.120933 0.595638 0.124113 
0.178869 0.125446 0.188361 0.427926 0.679374 0.284299 0.277078 0.371539 0.316132 
0.517109 0.176077 0.12286 0.105511 0.111056 0.118347 0.253316 0.630273 0.129696 
0.424025 0.158242 0.207436 0.669606 0.407104 0.119201 0.184171 0.116668 0.104672 
0.0957194 0.183272 0.117378 0.110319 0.211401 0.122413 0.115693 0.125363 0.157527 
0.115912 -0.00450245 -0.00185297 -0.00177973 -0.00320639 -0.00579152 -0.0130088 -0.00537658 -0.00267723 
-0.00170456 -0.00252572 -0.00268008 -0.00589911 -0.0271456 -0.00641991 -0.00368698 -0.00204569 -0.00286941 
-0.00172561 -0.00310835 -0.00184545 -0.0021848 -0.00202675 -0.00203712 -0.0025422 -0.00250664 -0.00384117 
-0.00345222 -0.00357286 -0.00461832 -0.00644868 -0.00319658 -0.00302857 -0.00276722 -0.00749468 -0.00996109 
-0.0118873 -0.00848424 -0.00701668 -0.00313033 -0.00776865 -0.00449979 -0.00389909 -0.0031579 -0.00302542 
-0.00585466 -0.00464991 -0.00558265 -0.00193575 -0.0026864 -0.00218157 -0.00198251 -0.00264311 -0.00175713 
-0.00231441 -0.00200875 -0.00177748 -0.00332652 -0.00211003 -0.00426293 -0.00446249 -0.0100112 -0.00399932 
-0.0109953 -0.00996927 -0.00981282 -0.00948691 -0.00981357 -0.0129694 -0.0215373 -0.0135305 -0.00686188 
-0.00481107 -0.0114832 -0.00400743 -0.00387468 -0.00583361 -0.00972683 -0.00281498 -0.00310982 -0.0028992 
-0.00306222 -0.00236354 -0.00691968 -0.0073515 -0.00809336 -0.00707196 -0.00960954 -0.00910457 -0.0109669 
-0.00521748 -0.00485477 -0.00515402 -0.00809674 -0.00892675 -0.00589446 -0.0122669 -0.0110011 -0.00487768 
-0.00266743 -0.00387589 -0.0046898 -0.00441738 -0.00870917 -0.0045821 -0.00410581 -0.00393471 -0.00195517 
-0.00264529 -0.00279671 -0.0143469 -0.0151396 -0.0121754 -0.00656444 -0.00575104 -0.0135627 -0.00223679 
-0.00308283 -0.00515816 -0.0039177 -0.00255746 -0.0135034 -0.00695635 -0.00200954 -0.00314562 -0.0136607 
-0.00252999 -0.0023824 -0.00226767 -0.00168151 -0.00867641 -0.0105571 -0.00662524 -0.00823051 -0.00204223 
-0.0016591 -0.00145614 -0.00363464 -0.001596 -0.00257028 -0.00237866 -0.00366187 -0.0023529 -0.00250968 
-0.00286819 -0.00356743 -0.00516167 -0.0230311 -0.0205309 -0.00221756 -0.00408827 -0.00283791 -0.00172008 
-0.00189125 -0.00223172 -0.00162401 -0.00165575 -0.00155106 -0.00155971 -0.00165075 -0.00175235 -0.00226453 
-0.00259327 -0.00191349 -0.00195681 -0.0100173 -0.016116 -0.0032236 -0.00560683 -0.00368072 -0.00576541 
-0.0118342 -0.018631 -0.00924965 -0.00540138 -0.00551784 -0.00890353 -0.00777803 -0.0141374 -0.00921947 
-0.00524983 -0.00240561 -0.00388584 -0.0046933 -0.00549168 -0.0251796 -0.0159534 -0.00768727 -0.0131832 
-0.0134361 -0.0246086 -0.0154808 -0.0264931 -0.00389123 -0.00258986 -0.00156951 -0.00193853 -0.00186927 
-0.00196951 -0.00540604 -0.00934943 -0.00896944 -0.0123427 -0.0163729 -0.0121162 -0.00744735 -0.00981208 
-0.00679857 -0.00991034 -0.00190646 -0.00315461 -0.0112668 -0.00385106 -0.00182288 -0.00271241 -0.0022935 
-0.00390344 -0.00189779 -0.00232261 -0.00402274 -0.00288899 -0.00442354 -0.0062626 -0.00428797 -0.00680158 
-0.0421996 -0.027586 -0.00252825 -0.00395073 -0.00374879 -0.00670189 -0.0169762 -0.0163277 -0.0208215 
-0.0129236 -0.0117657 -0.0103225 -0.0110542 -0.0187895 -0.33737 -0.29018 -0.612842 -0.326902 
-0.63007 -0.624384 -1.59516 -0.2296 -0.319166 -0.220179 -0.782194 -0.189152 -0.527154 
-0.181655 -0.444272 -0.210191 -0.664015 -0.550203 -0.166535 -1.20654 -0.765147 -0.227565 
-0.432572 -0.378992 -0.199401 -0.193824 -0.191798 -0.427284 -0.804711 -0.190395 -0.184499 
-0.411352 -0.174312 -0.245457 -0.615462 -0.322799 -0.312614 -0.719719 -0.221995 -0.358797 
-0.203172 -0.351782 -0.254922 -0.473067 -0.16493 -0.237318 -0.198918 -0.372286 -0.256895 
-0.672725 -0.503241 -0.667729 -0.312081 -0.381897 -0.396095 -0.168558 -0.344008 -0.245399 
-0.611889 -0.17696 -0.187443 -0.287265 -0.373715 -1.87464 -0.722198 -1.68573 -1.02144 
-1.22901 -0.357583 -0.313065 -0.97663 -0.226982 -0.32772 -1.22549 -0.658582 -0.31313 
-0.318313 -0.524994 -0.599244 -0.969804 -0.223415 -0.427533 -0.196221 -0.26904 -0.957556 
-0.881681 -1.04185 -0.324623 -0.227976 -0.509087 -0.193617 -1.05123 -0.33708 -1.58643 
-1.2026 -1.10821 -0.645014 -0.260165 -1.08941 -0.520448 -1.11348 -0.546483 -0.648235 
-0.357372 -0.345626 -0.330245 -0.350051 -1.08383 -0.200085 -0.263053 -0.343223 -0.649551 
-0.255401 -1.41828 -0.623145 -0.631623 -0.230894 -0.186161 -0.304224 -0.445683 -0.402545 
-0.634393 -0.327226 -0.44927 -0.880564 -1.07326 -0.209605 -0.334187 -0.813982 -0.916873 
-0.715147 -0.200103 -0.449571 -0.227948 -0.982189 -0.164992 -0.420822 -0.245151 -0.163977 
-0.195272 -0.27888 -0.178661 -0.166294 -0.187148 -1.14068 -0.282291 -0.450461 -0.4528 
-0.185707 -0.192862 -0.218201 -0.306152 -0.237795 -0.17617 -0.166173 -0.17638 -0.168238 
-0.16829 -0.387747 -0.42221 -0.951945 -0.925055 -0.193397 -0.279812 -0.178007 -0.216043 
-0.705174 -0.292153 -0.175516 -0.30386 -0.165177 -0.171869 -0.160527 -0.169563 -0.284852 
-0.371333 -0.297606 -0.158522 -0.509982 -0.175028 -0.335915 -0.481546 -0.00261844 -0.00187793 
-0.00202583 -0.00407349 -0.0102219 -0.0349856 -0.00850038 -0.00335213 -0.00184432 -0.00476104 -0.00363403 
-0.0101051 -1.00169 -0.0114829 -0.00489478 -0.00213337 -0.00192026 -0.00106806 -0.00133819 -0.00165425 
-0.00140569 -0.0010502 -0.00160301 -0.00113505 -0.00153111 -0.001288 -0.00200204 -0.00156359 -0.00166459 
-0.00150397 -0.00261765 -0.00271749 -0.00169078 -0.00145575 -0.00242773 -0.00314055 -0.00157442 -0.0012094 
-0.00164355 -0.00227213 -0.00144819 -0.000994893 -0.00141418 -0.00129167 -0.00152563 -0.00161212 -0.00176053 
-0.00112089 -0.00274836 -0.001846 -0.00340839 -0.00185994 -0.0026162 -0.00227156 -0.00240756 -0.00282251 
-0.00446569 -0.00568646 -0.00470577 -0.00511545 -0.00713623 -0.00734837 -0.00421609 -0.00408696 -0.00359095 
-0.015672 -0.0310742 -0.137491 -0.0169622 -0.0134575 -0.00433886 -0.0343367 -0.00672939 -0.0056991 
-0.00427795 -0.0049993 -0.00959364 -0.00728414 -0.0094544 -0.00218289 -0.00301811 -0.00250495 -0.00223572 
-0.00218911 -0.00183207 -0.00247284 -0.00183748 -0.00188717 -0.00411217 -0.0028132 -0.00585665 -0.00699759 
-0.0266183 -0.00596028 -0.132235 -0.0385313 -0.0205655 -0.0240921 -0.0517617 -0.0686929 -0.112917 
-0.0951638 -0.0234272 -0.00729848 -0.030935 -0.0055635 -0.00551894 -0.00902167 -0.010592 -0.00368471 
-0.00420808 -0.00374544 -0.00379324 -0.00279529 -0.0142062 -0.0139424 -0.0211012 -0.0123823 -0.10292 
-0.0497152 -0.0190404 -0.0325761 -0.00845486 -0.00788851 -0.00837363 -0.0137408 -0.0169895 -0.0106223 
-0.0249794 -0.0217765 -0.0021472 -0.00172886 -0.00353692 -0.00215696 -0.00186467 -0.00242062 -0.00183669 
-0.00254155 -0.00237632 -0.00250051 -0.00223732 -0.00248232 -0.00354805 -0.0027299 -0.00263504 -0.00323827 
-0.00457836 -0.00242616 -0.00234098 -0.00324386 -0.00331253 -0.00207679 -0.00206409 -0.00268629 -0.00204216 
-0.00526999 -0.0029314 -0.00229463 -0.00325689 -0.00226973 -0.00327905 -0.00380128 -0.00328008 -0.00333355 
-0.00359017 -0.00645164 -0.00478234 -0.00465207 -0.00543082 -0.00782416 -0.00373994 -0.00348464 -0.00551968 
-0.00622301 -0.00270344 -0.00285289 -0.00344977 -0.00244798 -0.00172386 -0.00245999 -0.00301163 -0.00221319 