# vtk DataFile Version 4.0
vtk output
ASCII
DATASET POLYDATA
POINTS 1837 double
9.375 -5.975 0 9.375 -3.475 0 7.42876 -5.975 0 
7.42876 -5.975 0 9.375 -3.475 0 7.19363 -3.475 0 
5.48251 -5.975 0 7.19363 -3.475 0 5.01226 -3.475 0 
3.53627 -5.975 0 5.01226 -3.475 0 2.57402 -4.30833 0 
3.53627 -5.975 0 5.48251 -5.975 0 5.01226 -3.475 0 
9.375 -0.975 0 7.19363 -0.975 0 9.375 -3.475 0 
9.375 -3.475 0 7.19363 -0.975 0 7.19363 -3.475 0 
7.19363 -3.475 0 7.19363 -0.975 0 5.01226 -0.975 0 
5.01226 -3.475 0 5.01226 -0.975 0 2.83089 -0.975 0 
2.83089 -3.475 0 2.83089 -0.975 0 1.61177 -2.64167 0 
2.57402 -4.30833 0 2.83089 -3.475 0 1.61177 -2.64167 0 
2.57402 -4.30833 0 5.01226 -3.475 0 2.83089 -3.475 0 
2.83089 -3.475 0 5.01226 -3.475 0 2.83089 -0.975 0 
7.19363 -3.475 0 5.01226 -0.975 0 5.01226 -3.475 0 
2.83089 -0.975 0 0.649519 -0.975 0 1.61177 -2.64167 0 
5.48251 -5.975 0 7.42876 -5.975 0 7.19363 -3.475 0 
3.52028 -3.98492 0 4.01226 -3.475 0 4.066 -3.79841 0 
2.22133 -1.80833 0 1.83089 -0.975 0 1.14952 -1.84103 0 
2.33089 -1.24887 0 1.69264 -2.06122 0 1.75742 -1.51756 0 
1.2402 -0.975 0 0.899519 -1.40801 0 1.33634 -1.40116 0 
4.53913 -3.6367 0 4.51226 -3.475 0 4.26226 -3.59963 0 
4.77569 -3.55585 0 4.76226 -3.475 0 0.899519 -0.975 0 
2.83089 -2.475 0 -1.43856 -2.64167 0 -0.525 -1.725 0 
-0.476314 -0.975 0 -1.43856 -2.64167 0 -1.12102 -3.475 0 
-0.525 -1.725 0 -1.43856 -2.64167 0 -2.40081 -4.30833 0 
-1.12102 -3.475 0 -1.12102 -3.475 0 -2.40081 -4.30833 0 
-0.525 -3.85 0 -0.525 -1.725 0 -1.12102 -3.475 0 
-0.525 -3.85 0 -3.36307 -5.975 0 -1.94403 -5.975 0 
-2.40081 -4.30833 0 -2.40081 -4.30833 0 -1.94403 -5.975 0 
-0.525 -3.85 0 -0.525 -3.85 0 -1.94403 -5.975 0 
-0.525 -5.975 0 -0.525 -1.725 0 0.525 -1.725 0 
-0.476314 -0.975 0 -0.476314 -0.975 0 0.525 -1.725 0 
0.476314 -0.975 0 0.476314 -0.975 0 0.525 -1.725 0 
1.43856 -2.64167 0 1.43856 -2.64167 0 0.525 -1.725 0 
1.12102 -3.475 0 2.40081 -4.30833 0 1.12102 -3.475 0 
0.525 -3.85 0 1.94403 -5.975 0 0.525 -3.85 0 
0.525 -5.975 0 1.94403 -5.975 0 2.40081 -4.30833 0 
0.525 -3.85 0 1.94403 -5.975 0 3.36307 -5.975 0 
2.40081 -4.30833 0 0.525 -1.725 0 0.525 -3.85 0 
1.12102 -3.475 0 2.40081 -4.30833 0 1.43856 -2.64167 0 
1.12102 -3.475 0 -1.42939 -4.07098 0 -0.525 -2.85 0 
1.49642 -4.08736 0 0.525 -2.725 0 0.847398 -2.6716 0 
-1.56281 -3.76267 0 -0.525 -3.35 0 0.525 -3.35 0 
0.98421 -3.0733 0 -0.976314 -1.84103 0 -1.08561 -2.28751 0 
-1.18856 -2.20865 0 0.124811 -1.42525 0 -0.076125 -1.27475 0 
0.328316 -1.36119 0 0.938564 -1.77564 0 1.08561 -2.28751 0 
1.18856 -2.20865 0 1.56281 -3.76267 0 1.98181 -4.0355 0 
1.9151 -4.18966 0 -0.297869 -1.36316 0 -0.798624 -2.5284 0 
-0.877954 -2.07915 0 -0.959823 -3.0017 0 0.847398 -2.6716 0 
1.29906 -3.00777 0 0.877954 -2.07915 0 -0.847398 -2.6716 0 
-0.525 -2.225 0 -0.686199 -2.1983 0 -0.98421 -3.0733 0 
0.500657 -1.35 0 0.686199 -2.1983 0 0.224438 -1.49987 0 
-1.26209 -2.46459 0 -1.31356 -2.42516 0 -1.08244 -2.02484 0 
-0.805305 -2.00626 0 0.805305 -2.00626 0 1.06356 -1.99215 0 
1.31356 -2.42516 0 1.26209 -2.46459 0 -1.17385 -2.37605 0 
-1.25106 -2.31691 0 0.512828 -1.5375 0 0.324906 -1.57513 0 
0.488485 -1.1625 0 2.19131 -4.17192 0 2.15796 -4.24899 0 
1.77231 -3.89909 0 -0.525 -2.5375 0 -0.525 -1.975 0 
-0.6056 -1.96165 0 0.0741563 -1.38731 0 0.023686 -0.975 0 
0.25 -1.08384 0 1.15826 -2.36041 0 -0.726314 -1.40801 0 
-0.945458 -2.14689 0 -0.944392 -2.00779 0 -1.07341 -2.1526 0 
-0.665153 -1.86563 0 -0.851314 -1.62452 0 -0.730073 -1.72333 0 
-0.820543 -1.85092 0 -0.913814 -1.73277 0 -0.595076 -1.79531 0 
-0.702714 -1.56598 0 -0.627016 -1.66019 0 -0.508703 -1.47395 0 
-0.627512 -1.474 0 -0.601314 -1.19151 0 -0.492509 -1.22447 0 
-0.605189 -1.33361 0 -1.98181 -4.0355 0 -1.9151 -4.18966 0 
0.525 -2.225 0 0.686199 -2.1983 0 -1.15826 -2.36041 0 
-1.10387 -2.69492 0 -0.919448 -2.31811 0 -0.686199 -2.1983 0 
-0.175751 -1.20013 0 -0.500657 -1.35 0 -0.25 -1.725 0 
0.025 -1.725 0 -0.387092 -1.16908 0 -1.93856 -3.50769 0 
-1.56281 -3.76267 0 -1.27979 -3.05833 0 -2.15081 -3.87532 0 
-1.98181 -4.0355 0 -1.68164 -3.53343 0 -1.34192 -3.61883 0 
-1.68856 -3.07468 0 -1.44823 -3.32336 0 -1.56356 -2.85817 0 
-1.84942 -3.78067 0 -2.90081 -5.17436 0 -2.86307 -5.975 0 
-2.13649 -5.27277 0 -2.26865 -4.79055 0 -2.65081 -4.74135 0 
-2.56192 -5.55959 0 -1.08034 -4.68162 0 -0.525 -4.85 0 
-1.38869 -5.14338 0 -2.20835 -5.01057 0 -1.49642 -4.08736 0 
-1.08034 -4.68162 0 -1.37606 -2.53341 0 -1.35033 -2.55313 0 
1.17385 -2.37605 0 1.25106 -2.31691 0 1.37606 -2.53341 0 
1.35033 -2.55313 0 2.0517 -4.15725 0 2.27939 -4.27866 0 
2.29606 -4.24013 0 -0.5653 -1.84333 0 -0.525 -1.85 0 
-0.587108 -2.1 0 -1.17026 -2.29139 0 -0.648639 -1.39867 0 
-0.500606 -1.34921 0 -0.663814 -1.29976 0 -0.603252 -1.26256 0 
-0.553087 -1.22837 0 -0.484411 -1.09974 0 -0.538814 -1.08325 0 
-0.570064 -1.13738 0 -0.507564 -1.02913 0 -0.480363 -1.03737 0 
-0.695064 -1.35389 0 -0.56365 -1.40839 0 -0.48846 -1.16211 0 
-0.537967 -1.17847 0 -0.896459 -1.81496 0 -0.908176 -1.91442 0 
-0.788814 -1.51627 0 -0.777014 -1.59525 0 -0.789507 -1.67247 0 
-0.855793 -1.6941 0 -0.714504 -1.64498 0 -0.828891 -1.77042 0 
-0.714514 -1.48699 0 -1.01236 -2.08408 0 -1.1355 -2.11675 0 
-1.13099 -2.18063 0 -1.07792 -2.08872 0 -1.02938 -1.93293 0 
-0.971628 -1.905 0 -1.01513 -2.00243 0 -2.19131 -4.17192 0 
-2.15796 -4.24899 0 -1.70258 -4.00618 0 0.649216 -2.475 0 
0.525 -1.975 0 0.6056 -1.96165 0 -0.394957 -1.29025 0 
-0.411435 -1.54408 0 -0.0865292 -1.39421 0 -0.326033 -1.08756 0 
-0.488485 -1.1625 0 -0.281422 -1.1846 0 -0.431703 -1.07204 0 
-0.6056 -1.96165 0 -0.701477 -1.90208 0 -1.00899 -2.50782 0 
-1.01811 -2.21978 0 -2.19131 -4.17192 0 -2.27581 -4.09183 0 
-0.3875 -1.725 0 -0.221578 -1.53716 0 -0.728162 -2.05196 0 
-2.13556 -4.02847 0 -1.48492 -3.04791 0 -1.34955 -2.87528 0 
-1.62606 -2.96643 0 -1.56861 -3.19923 0 -1.81356 -3.29119 0 
-1.20041 -3.26667 0 -1.37922 -2.99141 0 -1.38856 -3.17524 0 
-1.44959 -2.77964 0 0.0747663 -1.1585 0 -1.82007 -3.62004 0 
-2.04469 -3.69151 0 -1.99559 -3.84239 0 -1.6486 -3.35839 0 
-1.80224 -3.44206 0 -1.29841 -2.50104 0 -1.27979 -3.05833 0 
-1.15481 -2.55149 0 -1.35918 -2.85 0 -0.226314 -0.975 0 
-0.276219 -1.12487 0 -0.101314 -1.09987 0 0.324906 -1.57513 0 
0.275 -1.725 0 -0.766799 -2.43495 0 -1.04042 -3.23835 0 
-1.14275 -2.90039 0 0.726314 -1.40801 0 -2.52581 -4.52484 0 
-2.33473 -4.54944 0 -2.45271 -4.71138 0 -2.4993 -5.07325 0 
-2.77581 -4.95785 0 -3.11307 -5.54199 0 -2.83452 -5.45772 0 
-3.11307 -5.83066 0 -2.40355 -5.975 0 -0.998744 -5.4125 0 
-1.01071 -3.96868 0 -1.94862 -4.19784 0 -2.30458 -4.65945 0 
-1.77986 -4.96177 0 -2.07619 -5.49278 0 -1.62842 -4.52771 0 
-1.01071 -3.96868 0 -0.802671 -4.26581 0 1.38869 -5.14338 0 
9.375 0.825 0 7.03125 0.825 0 9.375 0.075 0 
9.375 0.075 0 7.03125 0.825 0 7.03125 0.075 0 
7.03125 0.075 0 7.03125 0.825 0 4.6875 0.825 0 
4.6875 0.075 0 4.6875 0.825 0 2.34375 0.825 0 
2.34375 0.075 0 2.34375 0.825 0 1.77636e-15 0.825 0 
1.77636e-15 0.075 0 1.77636e-15 0.825 0 -2.34375 0.825 0 
-2.34375 0.075 0 -2.34375 0.825 0 -4.6875 0.825 0 
-4.6875 0.075 0 -4.6875 0.825 0 -7.03125 0.825 0 
-7.03125 0.075 0 -7.03125 0.825 0 -9.375 0.825 0 
-9.375 0.075 0 -7.03125 0.075 0 -9.375 0.825 0 
7.03125 0.075 0 4.6875 0.825 0 4.6875 0.075 0 
4.6875 0.075 0 2.34375 0.825 0 2.34375 0.075 0 
2.34375 0.075 0 1.77636e-15 0.825 0 1.77636e-15 0.075 0 
1.77636e-15 0.075 0 -2.34375 0.825 0 -2.34375 0.075 0 
-2.34375 0.075 0 -4.6875 0.825 0 -4.6875 0.075 0 
-4.6875 0.075 0 -7.03125 0.825 0 -7.03125 0.075 0 
7.98367 0.520224 0 8.03125 0.825 0 8.42258 0.379776 0 
8.375 0.075 0 6.03125 0.825 0 5.63992 0.520224 0 
6.33559 0.297612 0 5.1875 0.825 0 5.16371 0.672612 0 
3.6875 0.825 0 3.29617 0.520224 0 3.99184 0.297612 0 
2.84375 0.825 0 2.81996 0.672612 0 4.1875 0.825 0 
4.4204 0.438602 0 0.952424 0.520224 0 1 0.825 0 
1.86754 0.227388 0 -1.39133 0.520224 0 -1.34375 0.825 0 
-0.476212 0.227388 0 -3.34375 0.825 0 -3.73508 0.520224 0 
-3.03941 0.297612 0 -4.1875 0.825 0 -4.21129 0.672612 0 
-2.84375 0.825 0 -2.61085 0.438602 0 -5.6875 0.825 0 
-6.07883 0.520224 0 -5.38316 0.297612 0 -6.53125 0.825 0 
-6.55504 0.672612 0 -8.42258 0.520224 0 -8.375 0.825 0 
-7.98367 0.379776 0 -8.03125 0.075 0 6.07883 0.379776 0 
6.03125 0.075 0 3.73508 0.379776 0 3.6875 0.075 0 
2.81996 0.672612 0 1 0.075 0 1.39133 0.379776 0 
0.695663 0.602388 0 1.84375 0.075 0 1.86754 0.227388 0 
0.5 0.075 0 0.267097 0.461398 0 -0.952424 0.379776 0 
-1 0.075 0 -1.86754 0.672612 0 -3.6875 0.075 0 
-3.29617 0.379776 0 -3.99184 0.602388 0 -2.84375 0.075 0 
-2.81996 0.227388 0 -4.1875 0.075 0 -4.4204 0.461398 0 
-5.63992 0.379776 0 -5.6875 0.075 0 1.67188 0.825 0 
1.40998 0.373806 0 2.00781 0.604152 0 -0.671875 0.825 0 
-0.933769 0.373806 0 -0.335937 0.604152 0 3.01562 0.075 0 
3.27752 0.526194 0 2.67969 0.295848 0 -1.67187 0.075 0 
-1.40998 0.526194 0 -2.00781 0.295848 0 5.60937 0.825 0 
4.9375 0.825 0 4.92561 0.748806 0 3.26562 0.825 0 
2.58186 0.748806 0 2.59375 0.825 0 -3.76562 0.825 0 
-4.4375 0.825 0 -4.44939 0.748806 0 -6.10937 0.825 0 
-6.79314 0.748806 0 -6.78125 0.825 0 1.42188 0.075 0 
2.09375 0.075 0 2.10564 0.151194 0 -3.26562 0.075 0 
-2.58186 0.151194 0 -2.59375 0.075 0 5.40182 0.596418 0 
3.05807 0.596418 0 -3.97318 0.596418 0 -6.31693 0.596418 0 
1.62943 0.303582 0 -3.05807 0.303582 0 7.53125 0.825 0 
7.50746 0.672612 0 8.89879 0.227388 0 8.70312 0.825 0 
8.89879 0.227388 0 8.875 0.075 0 7.70312 0.075 0 
7.72691 0.602388 0 0.476212 0.672612 0 0.5 0.825 0 
-1.86754 0.672612 0 -1.84375 0.825 0 -7.70312 0.825 0 
-7.72691 0.297612 0 -8.89879 0.672612 0 -8.875 0.825 0 
-7.50746 0.227388 0 -7.53125 0.075 0 -8.70312 0.075 0 
-8.67934 0.602388 0 6.55504 0.227388 0 6.53125 0.075 0 
5.16371 0.672612 0 5.35937 0.075 0 4.21129 0.227388 0 
4.1875 0.075 0 -0.5 0.075 0 -0.476212 0.227388 0 
-5.16371 0.227388 0 -5.1875 0.075 0 -6.35937 0.075 0 
-6.33559 0.602388 0 8.44123 0.373806 0 8.03906 0.283541 0 
-8.03906 0.616459 0 -8.36719 0.283541 0 5.62127 0.526194 0 
[...]
CELL_DATA 2186
FIELD FieldData 4
electrode_index 1 2186 int
0 0 0 0 0 0 0 0 0 
0 0 0 0 0 0 0 0 0 
0 0 0 0 0 0 0 0 0 
0 0 0 0 0 0 0 0 0 
0 0 0 0 1 1 1 1 1 
1 1 1 1 1 1 1 1 1 
1 1 1 1 1 1 1 1 1 
1 1 1 1 1 1 1 1 1 
1 1 1 1 1 1 1 1 1 
1 1 1 1 1 1 1 1 1 
1 1 1 1 1 1 1 1 1 
1 1 1 1 1 1 1 1 1 
1 1 1 1 1 1 1 1 1 
1 1 1 1 1 1 1 1 1 
1 1 1 1 1 1 1 1 1 
1 1 1 1 1 1 1 1 1 
1 1 1 1 1 1 1 1 1 
1 1 1 1 1 1 1 1 1 
1 1 1 1 1 1 1 1 1 
1 1 1 1 1 1 1 1 1 
1 1 1 1 1 1 1 1 1 
1 1 1 1 1 1 1 1 1 
1 1 1 1 1 1 1 1 1 
1 1 1 1 1 1 1 1 1 
1 1 1 1 1 1 1 1 1 
1 1 1 1 1 1 1 1 1 
1 1 1 1 1 1 1 1 1 
1 1 1 1 1 1 1 1 1 
1 1 1 1 1 1 1 1 1 
1 1 1 1 1 1 1 1 1 
1 1 1 1 1 1 1 1 1 
1 1 1 1 1 1 1 1 1 
1 1 1 1 1 1 1 1 1 
1 1 1 1 1 1 1 1 1 
1 1 1 1 1 1 1 1 1 
1 1 1 1 1 1 1 1 1 
1 1 1 1 1 1 1 1 1 
1 1 1 1 1 1 1 1 1 
1 1 1 1 1 1 1 1 1 
1 2 2 2 2 2 2 2 2 
2 2 2 2 2 2 2 2 2 
2 2 2 2 2 2 2 2 2 
2 2 2 2 2 2 2 2 2 
2 2 2 2 2 2 2 2 2 
2 2 2 2 2 2 2 2 2 
2 2 2 2 2 2 2 2 2 
2 2 2 2 2 2 2 2 2 
2 2 2 2 2 2 2 2 2 
2 2 2 2 2 2 2 2 2 
2 2 2 2 2 2 2 2 2 
2 2 2 2 2 2 2 2 2 
2 2 2 2 2 2 2 2 2 
2 2 2 2 2 2 2 2 2 
2 2 2 2 2 2 2 2 2 
2 2 2 2 2 2 2 2 2 
2 2 2 2 2 2 2 2 2 
2 2 2 2 2 2 2 2 2 
2 2 2 2 2 2 2 2 2 
2 2 2 2 2 2 2 2 2 
2 2 2 2 2 2 2 2 2 
2 2 2 2 2 2 2 2 2 
2 2 2 2 2 2 2 2 2 
2 2 2 2 2 2 2 2 2 
2 2 2 2 2 2 2 2 2 
2 2 2 2 2 2 2 2 2 
2 2 2 2 2 2 2 2 2 
2 2 2 2 2 2 2 2 2 
2 2 2 2 2 2 2 2 2 
3 3 3 3 3 3 3 3 3 
3 3 3 3 3 3 3 3 3 
3 3 3 3 3 3 3 3 3 
3 3 3 3 3 3 3 3 3 
3 3 3 3 4 4 4 4 4 
4 4 4 4 4 4 4 4 4 
4 4 4 4 4 4 4 4 4 
4 4 4 4 4 4 4 4 4 
4 4 4 4 4 4 4 4 4 
4 4 4 4 4 4 4 4 4 
4 4 4 4 4 4 4 4 4 
4 4 4 4 4 4 4 4 4 
4 4 4 4 4 4 4 4 4 
4 4 4 4 4 4 4 4 4 
4 4 4 4 4 4 4 4 4 
4 4 4 4 4 4 4 4 4 
4 4 4 4 4 4 4 4 4 
4 4 4 4 4 4 4 4 4 
4 4 4 4 4 4 4 4 4 
4 4 4 4 4 4 4 4 4 
4 4 4 4 4 4 4 4 4 
4 4 4 4 4 4 4 4 4 
4 4 4 4 4 4 4 4 4 
4 4 4 4 4 4 4 4 4 
4 4 4 4 4 4 4 4 4 
4 4 4 4 4 4 4 4 4 
4 4 4 4 4 4 4 4 4 
4 4 4 4 4 4 4 4 4 
4 4 4 4 4 4 4 4 4 
4 4 4 4 4 4 4 4 4 
4 4 4 4 4 4 4 4 4 
4 4 4 4 4 4 4 4 4 
4 4 4 4 4 4 4 4 4 
4 4 4 4 4 4 4 4 4 
4 4 4 4 4 4 4 4 4 
4 4 4 4 4 4 4 4 4 
4 4 4 4 4 4 4 4 4 
4 4 4 4 4 4 4 4 4 
4 4 4 4 4 4 4 4 4 
4 4 4 4 4 4 4 4 4 
4 4 4 4 4 4 4 4 4 
4 4 4 4 4 4 4 4 4 
4 4 4 4 4 4 4 4 4 
4 4 4 4 4 4 4 4 4 
4 4 4 4 4 4 4 4 4 
4 4 4 4 4 4 4 4 4 
4 4 4 4 4 4 4 4 4 
4 4 4 4 4 4 4 4 4 
4 4 4 4 4 4 4 4 4 
4 4 4 4 4 4 4 4 4 
4 4 4 4 4 4 4 4 4 
4 4 4 4 4 4 4 4 4 
4 4 4 4 4 4 4 4 4 
4 4 4 4 4 4 4 4 4 
4 4 4 4 4 4 4 4 4 
4 4 4 4 4 4 4 4 4 
4 4 4 4 4 4 4 4 4 
4 4 4 4 4 4 4 4 4 
4 4 4 4 4 4 4 4 4 
4 4 4 4 4 4 4 4 4 
4 4 4 4 4 4 4 4 4 
4 4 4 4 4 4 4 4 4 
4 4 4 4 4 4 4 4 4 
4 4 4 4 4 4 4 4 4 
4 4 4 4 4 4 4 4 4 
4 4 4 4 4 4 4 4 4 
4 4 4 4 4 4 4 4 4 
4 4 4 4 4 4 4 4 4 
4 4 4 4 4 4 4 4 4 
4 4 4 4 4 4 4 4 4 
4 4 4 4 4 4 4 4 4 
4 4 4 4 4 4 4 4 4 
4 4 4 4 4 4 4 4 4 
4 4 4 4 4 4 4 4 4 
4 4 4 4 4 4 4 4 4 
4 4 4 4 4 4 4 4 4 
4 4 4 4 4 4 4 4 4 
4 4 4 4 4 4 4 4 4 
4 4 4 4 4 4 4 4 4 
4 4 4 4 4 4 4 4 4 
4 4 4 4 4 4 4 4 4 
4 4 4 4 4 4 4 4 4 
4 4 4 4 4 4 4 4 4 
4 4 4 4 4 4 4 4 4 
4 4 4 4 4 4 4 4 4 
4 4 4 4 4 4 4 4 4 
4 4 4 4 4 4 4 4 4 
4 4 4 4 4 4 4 4 4 
4 4 4 4 4 4 4 4 4 
4 4 4 4 4 4 4 4 4 
4 4 4 4 4 4 4 4 4 
4 4 4 4 4 4 4 5 5 
5 5 5 5 5 5 5 5 5 
5 5 5 5 5 5 5 5 5 
5 5 5 5 5 5 5 5 5 
5 5 5 5 5 5 5 5 5 
5 5 5 5 5 5 5 5 5 
5 5 5 5 5 5 5 5 5 
5 5 5 5 5 5 5 5 5 
5 5 5 5 5 5 5 5 5 
5 5 5 5 5 5 5 5 5 
5 5 5 5 5 5 5 5 5 
5 5 5 5 5 5 5 5 5 
5 5 5 5 5 5 5 5 5 
5 5 5 5 5 5 5 5 5 
5 5 5 5 5 5 5 5 5 
5 5 5 5 5 5 5 5 5 
5 5 5 5 5 5 5 5 5 
5 5 5 5 5 5 5 5 5 
5 5 5 5 5 5 5 5 5 
5 5 5 5 5 5 5 5 5 
5 5 5 5 5 5 5 5 5 
5 5 5 5 5 5 5 5 5 
5 5 5 5 5 5 5 5 5 
5 5 5 5 5 5 5 5 5 
5 5 5 5 5 5 5 5 5 
5 5 5 5 5 5 5 5 5 
5 5 5 5 5 5 5 5 5 
5 5 5 5 5 5 5 5 5 
5 5 5 5 5 5 5 5 5 
5 5 5 5 5 5 5 5 5 
5 5 5 5 5 5 5 5 5 
5 5 5 5 5 5 5 5 5 
5 5 5 5 5 5 5 5 5 
5 5 5 5 5 5 5 5 5 
5 5 5 5 5 5 5 5 5 
5 5 5 5 5 5 5 5 5 
5 5 5 5 5 5 5 5 5 
5 5 5 5 5 5 5 5 5 
5 5 5 5 5 5 5 5 5 
5 5 5 5 5 5 5 5 5 
5 5 5 5 5 5 5 5 5 
5 5 5 5 5 5 5 5 5 
5 5 5 5 5 5 5 5 5 
5 5 5 5 5 5 5 5 5 
5 5 5 5 5 5 5 5 5 
5 5 5 5 5 5 5 5 5 
5 5 5 5 5 5 5 5 5 
5 5 5 5 5 5 5 5 5 
5 5 5 5 5 5 5 5 5 
5 5 5 5 5 5 5 5 5 
5 5 5 5 5 5 5 5 5 
5 5 5 5 5 5 5 5 5 
5 5 5 5 5 5 5 5 5 
5 5 5 5 5 5 5 5 5 
5 5 5 5 5 5 5 5 5 
5 5 5 5 5 5 5 5 5 
5 5 5 5 5 5 5 5 5 
5 5 5 5 5 5 5 5 5 
5 5 5 5 5 5 5 5 5 
5 5 5 5 5 5 5 5 5 
5 5 5 5 5 5 5 5 5 
5 5 5 5 5 5 5 5 5 
5 5 5 5 5 5 5 5 5 
5 5 5 5 5 5 5 5 5 
5 5 5 5 5 5 5 5 5 
5 5 5 5 5 5 5 5 5 
5 5 5 5 5 5 5 5 5 
5 5 5 5 5 5 5 5 5 
5 5 5 5 5 5 5 5 5 
5 5 5 5 5 5 5 5 5 
5 5 5 5 5 5 5 5 5 
5 5 5 5 5 5 5 5 5 
5 5 5 5 5 5 5 5 5 
5 5 5 5 5 5 5 5 5 
5 5 5 5 5 5 5 5 5 
5 5 5 5 5 5 5 5 5 
5 5 5 5 5 5 5 5 5 
5 5 5 5 5 5 5 5 5 
5 5 5 5 5 5 5 5 5 
5 5 5 5 5 5 5 5 5 
5 5 5 5 5 5 5 5 5 
5 5 5 5 5 5 5 5 5 
5 5 5 5 5 5 5 5 5 
5 5 5 5 5 5 5 5 
charge 1 2186 double
-0.00495163 -0.00245715 -0.00254135 -0.00451257 -0.00536959 -0.0026241 -0.00196743 -0.00176912 -0.00254925 
-0.00461308 -0.00580638 -0.00359888 -0.00325402 -0.0020175 -0.0090793 -0.00423321 -0.00447817 -0.00165964 
-0.00216647 -0.00557251 -0.00545392 -0.00408736 -0.00630008 -0.00557223 -0.00665321 -0.00498173 -0.00748883 
-0.00718552 -0.00895333 -0.00794766 -0.0176212 -0.0112518 4.81433e-05 -0.000767445 -0.00222524 1.46798e-05 
0.00413364 0.0028068 -0.0113494 -0.00506422 -0.253518 -0.163811 -0.136792 -0.0331819 -0.0435764 
-0.0730826 -0.0783688 -0.0245562 -0.121903 -0.0175565 -0.0169169 -0.0092246 -0.00711242 -0.0118349 
-0.00725861 -0.0101576 -0.0129839 -0.00753054 -0.0976561 -0.0511786 -0.00956475 -0.0167433 -0.0139546 
-0.0518604 -0.567588 -0.0332504 -0.0116173 -0.00986132 -1.06562 -0.246305 -0.042644 -0.0304835 
-0.0316837 -0.021663 -0.0142222 -0.0149747 -0.0116874 -0.0055162 -0.00503033 -0.143852 -0.147556 
-0.0851401 -0.147529 -0.102066 -0.00937445 -0.0810047 -0.0107037 -0.00885106 -0.058425 -0.069068 
-0.119851 -0.0415648 -0.016146 -0.0132688 -0.0210561 -1.11121 -0.854097 -0.186425 -0.293494 
-0.0116547 -0.0133544 -0.0157938 -0.0179 -0.553975 -0.524378 -0.0175527 -0.0196287 -0.00519842 
-0.0170031 -0.0060007 -0.00666912 -0.00627965 -0.10635 -0.0542604 -0.0989589 -0.0290722 -0.0213928 
-0.0232025 -0.0182669 -0.24039 -0.0108849 -0.197373 -0.273169 -0.1132 -1.45592 -1.44262 
-1.22152 -0.363803 -1.11268 -0.269897 -0.519495 -0.159729 -0.492317 -0.12086 -0.363191 
-0.150802 -0.135835 -0.112262 -1.13561 -0.192347 -0.182402 -1.02657 -0.224844 -0.16023 
-1.24691 -0.133515 -0.117497 -0.0219291 -0.0174321 -0.182508 -0.0748749 -0.0822078 -0.180237 
-0.108021 -0.045847 -0.0591545 -0.0367607 -0.0572663 -0.0327883 -0.133466 -0.099481 -0.132078 
-0.417394 -0.0709103 -0.219911 -0.321487 -0.629253 -0.0895761 -0.0683666 -0.0962886 -0.13034 
-0.74665 -0.40083 -0.124705 -0.651592 -0.0851908 -0.706872 -0.0789742 -0.135564 -0.117503 
-0.0817198 -0.0222492 -0.0246262 -0.0638819 -0.0389925 -0.0383111 -0.0314436 -1.91278 -1.01802 
-0.0149848 -0.0101452 -0.0158321 -0.0293995 -0.00543423 -0.00393104 -0.00699444 -0.00429107 -0.175245 
-0.180111 -0.0769698 -0.077058 -0.31699 -0.350457 -0.593797 -0.941648 -0.192325 -0.230406 
-0.579611 -0.245819 -0.621323 -0.691342 -0.256034 -0.290098 -0.998389 -0.491339 -0.430625 
-0.953251 -0.147877 -0.483986 -0.250241 -0.318726 -0.261145 -0.555846 -0.606208 -0.207424 
-0.280605 -0.620493 -1.16414 -0.497223 -0.650664 -0.231002 -1.52765 -0.505102 -0.177591 
-0.185599 -0.228038 -0.252575 -0.280057 -0.296612 -0.234416 -0.31772 -0.663554 -0.806773 
-0.669715 -0.382182 -0.579049 -1.43247 -0.338067 -0.844887 -0.554556 -0.380401 -0.337287 
-0.191304 -0.0757739 -0.069868 -0.0141919 -0.0124119 -0.0285675 -0.0310977 -0.0892339 -0.0561134 
-0.0933009 -0.0822332 -0.0584942 -0.0289122 -0.0760069 -0.0829902 -0.100556 -0.0701747 -0.196429 
-0.232192 -0.0976106 -0.0988829 -0.0922247 -0.0903965 -0.150793 -0.22017 -0.793065 -0.0546457 
-0.0941162 -0.0456326 -0.0863564 -0.116863 -0.847879 -0.446283 -0.636017 -0.285115 -0.903618 
-0.23878 -0.658607 -0.143372 -0.129577 -0.612434 -0.147995 -0.0976147 -0.245594 -0.12164 
-1.142 -0.404583 -0.0334722 -0.0287096 -0.12736 -0.20418 -0.479575 -0.269421 -0.184368 
-0.150383 -0.293577 -0.393139 -0.202123 -0.0691744 -0.114252 -0.391346 -0.114136 -0.119913 
-0.23502 -0.0323987 -0.056838 -0.0545268 -0.0218967 -0.0279636 -0.0794852 -0.0678409 -0.06377 
-0.109675 -0.0152354 -0.302194 -0.603416 -0.263021 -0.163258 -0.411416 -0.256617 -0.530022 
-0.405276 -0.122434 -0.367547 -0.452858 -0.188313 -0.144841 -0.0288813 -0.0483189 -0.0842639 
-0.0501327 -0.206919 -0.0514963 -0.0613531 -0.0321728 -0.0409274 -0.0535126 -0.0341704 -0.0276219 
-0.018328 -0.00545201 -0.00182825 -0.00168074 -0.00253119 -0.00363502 -0.0211941 -0.0218863 -0.0309944 
-0.0284663 -0.0503363 -0.00197148 -0.00350754 -0.0136623 -0.0304415 -0.045836 -0.0416903 -0.00300205 
-0.00188016 -0.00346692 -0.00200731 -0.00184952 -0.00189242 -0.00178169 -0.00211493 -0.00216763 -0.00271416 
-0.0025874 -0.00253261 -0.0032254 -0.00458153 -0.00226032 -0.00222364 -0.00214108 -0.00431164 -0.0078579 
-0.012605 -0.00555189 -0.0188498 -0.0213956 -0.0161175 -0.0232969 -0.0239562 -0.0229897 -0.0232116 
-0.0309257 -0.023421 -0.02392 -0.0247906 -0.0275025 -0.0275339 -0.0244666 -0.0362061 -0.0287805 
-0.0327047 -0.0485939 -0.0399061 -0.00280351 -0.00177192 -0.00284932 -0.00289972 -0.00520448 -0.00262118 
-0.00722776 -0.00630809 -0.00503178 -0.00482225 -0.008797 -0.00821024 -0.016018 -0.0170874 -0.0201655 
-0.0334282 -0.0362912 -0.039718 -0.0313601 -0.0375173 -0.0552389 -0.0236608 -0.0295226 -0.0277599 
-0.0489162 -0.0395145 -0.00445633 -0.00407949 -0.00544373 -0.00494448 -0.0149884 -0.0279057 -0.0157341 
-0.0133983 -0.00314905 -0.0032246 -0.00316688 -0.0044489 -0.0272289 -0.0192862 -0.0221363 -0.0424077 
-0.00382981 -0.00232375 -0.00308829 -0.00330234 -0.00324458 -0.00622378 -0.0344914 -0.0254664 -0.0303825 
-0.0233642 -0.0299929 -0.0374819 -0.00704418 -0.00733391 -0.0061292 -0.038797 -0.0475014 -0.0752304 
-0.00223991 -0.00257638 -0.00369593 -0.0268491 -0.0313652 -0.00661562 -0.0493841 -0.00207116 -0.00380473 
-0.010781 -0.002876 -0.00268316 -0.00236647 -0.00164673 -0.0061904 -0.00896256 -0.0164674 -0.0231685 
-0.0339908 -0.0322177 -0.0205361 -0.0448968 -0.0370057 -0.0632174 -0.0568295 -0.0563851 -0.0020363 
-0.00221763 -0.00211293 -0.00233747 -0.00347786 -0.0194955 -0.0219308 -0.0369875 -0.0639181 -0.0562462 
-0.0289284 -0.00216747 -0.00254184 -0.00174232 -0.00172192 -0.0286324 -0.0279155 -0.030832 -0.0344804 
-0.00182359 -0.00206658 -0.0321642 -0.0209866 -0.0292766 -0.0334971 -0.00960161 -0.0103393 -0.00263997 
-0.00445991 -0.0274509 -0.0429092 -0.0059106 -0.00919493 -0.00692577 -0.0042146 -0.00389406 -0.00634 
-0.00575311 -0.0104715 -0.0622981 -0.0403509 -0.031569 -0.052845 -0.0676123 -0.0747229 -0.0124303 
-0.00801145 -0.0484447 -0.0814677 -0.0707744 -0.127875 -0.00374022 -0.00259578 -0.00167862 -0.00208356 
-0.00209781 -0.00217069 -0.00629862 -0.0110924 -0.00641507 -0.00955862 -0.0152164 -0.0101601 -0.0165745 
-0.0233015 -0.0200623 -0.032837 -0.0302429 -0.0474205 -0.141033 -0.0521936 -0.0422117 -0.0674983 
-0.0582702 -0.0981073 -0.0016026 -0.00194808 -0.00367452 -0.0025449 -0.00283945 -0.00402131 -0.00294848 
-0.00477156 -0.0294374 -0.0247523 -0.0419281 -0.0680639 -0.0593518 -0.101315 -0.00915698 -0.00903119 
-0.010065 -0.0068988 -0.0368498 -0.00731839 -0.00925093 -0.00593185 -0.0106524 -0.00804801 -0.00871651 
-0.00898312 -0.018317 -0.0397119 -0.018294 -0.0200991 -0.0133047 -0.0143005 -0.01167 -0.0143879 
-0.0121771 -0.0443977 -0.0270335 -0.020008 -0.0119917 -0.0113239 -0.0146113 -0.0139126 -0.017346 
-0.0372608 -0.015003 -0.0181991 -0.0440574 -0.0242467 -0.0177524 -0.0206093 -0.0408704 -0.0192847 
-0.0222196 -0.0169156 -0.0239785 -0.0201745 -0.0201857 -0.0277369 -0.028386 -0.0144907 -0.0246308 
-0.0180461 -0.0199717 -0.0338647 -0.0239987 -0.017296 -0.0181647 -0.022263 -0.0278504 -0.0435615 
-0.0467025 -0.0191237 -0.0188534 -0.0278368 -0.0157788 -0.0359845 -0.0242489 -0.0155148 -0.0178416 
-0.0299343 -0.0213939 -0.0543326 -0.0328206 -0.0029692 -0.00169357 -0.00170137 -0.00268168 -0.0042575 
-0.0172541 -0.0804327 -0.0733907 -0.10488 -0.19507 -0.00238718 -0.00406988 -0.0223671 -0.166274 
-0.595564 -0.153003 -0.00312346 -0.00159524 -0.00157883 -0.002231 -0.00237757 -0.00156342 -0.00158804 
-0.00136153 -0.00268453 -0.00192037 -0.00218448 -0.00177318 -0.00321027 -0.00255169 -0.00353685 -0.00285191 
-0.00390272 -0.00366877 -0.00564373 -0.0050845 -0.00464659 -0.00422934 -0.00734013 -0.00773471 -0.0054155 
-0.00477834 -0.00897781 -0.00882472 -0.00686559 -0.00897179 -0.0204954 -0.00811522 -0.00273598 -0.00188718 
-0.00367125 -0.00189944 -0.00192248 -0.00188081 -0.00184323 -0.00209071 -0.00305591 -0.00304156 -0.00280533 
-0.00281187 -0.00367223 -0.00378513 -0.00249948 -0.00242912 -0.00235579 -0.0052116 -0.0116201 -0.0407833 
-0.00732405 -0.050011 -0.0680305 -0.0636298 -0.105893 -0.10288 -0.0667399 -0.0752625 -0.509554 
-0.0922801 -0.0606629 -0.0632756 -0.0901122 -0.082692 -0.0625198 -0.0578429 -0.0667605 -0.0733625 
-0.182172 -0.151408 -0.00306776 -0.00203127 -0.0032541 -0.00331011 -0.00642908 -0.00299771 -0.0103117 
-0.00890474 -0.00601765 -0.00729145 -0.0147158 -0.0117367 -0.0305733 -0.0964975 -0.100632 -0.142098 
-0.212175 -0.804452 -0.137651 -0.863479 -0.297435 -0.0717438 -0.168847 -0.371435 -0.391022 
-0.228289 -0.00540972 -0.00480866 -0.00687875 -0.0057477 -0.0441087 -0.0224321 -0.0420622 -0.0344083 
-0.00370474 -0.00372956 -0.00382177 -0.00531889 -0.185175 -0.0925913 -0.601735 -0.294427 -0.00237829 
-0.00216791 -0.0028791 -0.00222579 -0.00220469 -0.00240225 -0.00223081 -0.00250829 -0.00214837 -0.00248502 
-0.00214346 -0.00234181 -0.00280692 -0.00228944 -0.00218482 -0.00264161 -0.00348396 -0.00204451 -0.00205738 
-0.00257923 -0.00265358 -0.00214476 -0.0020828 -0.00387493 -0.00320967 -0.00590634 -0.00373058 -0.00342354 
-0.00420109 -0.00322117 -0.00438706 -0.00378195 -0.00433832 -0.00366242 -0.00417034 -0.00553381 -0.00424486 
-0.00376926 -0.00524305 -0.00754339 -0.00337086 -0.00339094 -0.00414451 -0.00491173 -0.00328562 -0.00333832 
-0.00297794 -0.00254823 -0.00218515 -0.00275689 -0.00286262 -0.00252698 -0.0030955 -0.00239718 -0.00277042 
-0.00243509 -0.00283841 -0.00257181 -0.00231832 -0.00261358 -0.00289164 -0.00184633 -0.00230513 -0.00298845 
-0.00301001 -0.00296849 -0.00266289 -0.00309996 -0.00305076 -0.00614311 -0.0047174 -0.0156806 -0.00590719 
-0.00519114 -0.00712778 -0.00493979 -0.0074027 -0.00732686 -0.00731826 -0.00668908 -0.0111874 -0.0122528 
-0.00902214 -0.00835682 -0.0107355 -0.00747835 -0.00685192 -0.00655883 -0.00955406 -0.0113504 -0.00603934 
-0.00697968 -0.00446159 -0.00607297 -0.00333301 -0.00469505 -0.00543359 -0.00417977 -0.00590429 -0.00394408 
-0.00429279 -0.0040218 -0.00458844 -0.00413294 -0.00357525 -0.00392661 -0.00423442 -0.0029846 -0.00352233 
-0.00448046 -0.00465571 -0.00431815 -0.00399334 -0.00535084 -0.00513123 -0.00686327 -0.0046024 -0.0170499 
-0.0081945 -0.00631498 -0.00918883 -0.00638273 -0.0114197 -0.0105801 -0.00978306 -0.00925229 -0.00996502 
-0.0175039 -0.013287 -0.0139239 -0.0145669 -0.0207577 -0.0108558 -0.00986927 -0.0177518 -0.0179657 
-0.00753465 -0.00795499 -0.0106881 -0.00704803 -0.00472189 -0.00691741 -0.00883836 -0.00620258 -0.00924956 
-0.00588282 -0.00577541 -0.0060401 -0.0063594 -0.00590205 -0.00480712 -0.00519113 -0.00533135 -0.00426716 
-0.00484781 -0.00574428 -0.00612407 -0.00516327 -0.00510771 -0.00760986 -0.00719026 -0.00248646 -0.00212141 
-0.00438339 -0.00324034 -0.00246554 -0.00313312 -0.0068308 -0.00573618 -0.00421902 -0.00506615 -0.00839169 
-0.0081988 -0.00646844 -0.00697359 -0.00250364 -0.00244471 -0.00443984 -0.00227628 -0.00693685 -0.00415697 
-0.00986085 -0.00628777 -0.00269337 -0.00369287 -0.00218644 -0.00574472 -0.00481615 -0.00708043 -0.0075774 
-0.00231991 -0.00372166 -0.00718205 -0.00360242 -0.00527621 -0.0606824 -0.0690497 -0.0761924 -0.0673773 
-0.0697626 -0.0742919 -0.00573374 -0.00925584 -0.00826821 -0.718523 -0.00186771 -0.43379 -1.10721 
-0.00254463 -0.00416731 -0.07282 -0.0710953 -0.00801074 -0.386487 -0.61418 -0.00258434 -0.00214342 
-0.00325478 -0.00312643 -0.00569263 -0.00517656 -0.00807168 -0.00713135 -0.0020574 -0.00342674 -0.00298802 
-0.0064543 -0.00470805 -0.00947794 -0.00630046 -0.00247016 -0.00479509 -0.0046384 -0.00234743 -0.00243561 
-0.00843013 -0.00866552 -0.0037261 -0.00379191 -0.0115736 -0.0115633 -0.00543248 -0.00534089 -0.002383 
-0.0023365 -0.00395679 -0.00395187 -0.00255331 -0.00260823 -0.00636976 -0.00653738 -0.00441843 -0.00445852 
-0.00790996 -0.00831365 -0.00687554 -0.00677092 -0.0021279 -0.00222578 -0.0033486 -0.00386015 -0.00302894 
-0.00272012 -0.00534553 -0.00442915 -0.00731358 -0.00935056 -0.00782072 -0.00627173 -0.00582552 -0.00546999 
-0.00202462 -0.00252228 -0.00258943 -0.00461041 -0.00292044 -0.00350055 -0.00174419 -0.0348339 -0.00887369 
-0.0154097 -0.0563433 -0.046373 -0.0754288 -0.0245713 -0.0576022 -0.0943494 -0.429485 -0.383723 
-0.187653 -0.0247077 -0.00217091 -0.00268737 -0.00282324 -0.00209908 -0.0026442 -0.00333602 -0.173445 
-0.211878 -0.0653608 -0.0579094 -0.166976 -0.199977 -0.146224 -0.0719065 -0.0881772 -0.0853874 
-0.320252 -0.158368 -0.768909 -0.330646 -0.15643 -0.126391 -0.13229 -0.118312 -0.297524 
-0.176779 -0.1194 -0.0857052 -0.261596 -0.16749 -0.477606 -0.262323 -0.177333 -0.0754961 
-0.081184 -0.0629281 -0.27038 -0.612944 -0.207694 -0.124405 -0.269589 -1.03625 -0.0752056 
-0.285699 -0.2895 -0.173707 -1.02609 -0.204557 -1.19698 -1.22238 -0.7988 -0.265928 
-0.158678 -0.537298 -0.11653 -0.18639 -0.144503 -0.0588339 -0.0971393 -0.189613 -0.0590237 
-0.0731533 -0.0737368 -0.101478 -0.10552 -0.0704097 -0.0602084 -0.62453 -0.490668 -0.41565 
-0.0989987 -0.176657 -0.254646 -0.00201694 -0.00165226 -0.00186736 -0.0992458 -0.0697156 -0.0830054 
-0.406282 -0.00183105 -0.00200498 -0.0984176 -0.166661 -0.133118 -1.03722 -0.0195982 -0.0337101 
-0.0200765 -0.029086 -0.0225913 -0.0635958 -0.0335154 -0.0596491 -0.0479612 -0.0381639 -0.0526827 
-0.0635064 -0.029472 -0.210291 -0.0214746 -0.136703 -0.0626922 -0.287417 -0.16137 -0.0668315 
-0.0708661 -0.143315 -0.115099 -0.012142 -0.0750409 -0.0131681 -0.369227 -0.119062 -0.0741811 
-0.234254 -0.00442946 -0.00721139 -0.0728917 -0.109855 -0.00263252 -0.00432266 -0.00665136 -0.00412124 
-0.00668908 -0.0121342 -0.0720548 -0.108199 -0.138297 -0.0972785 -0.118906 -0.0914751 -0.00706286 
-0.011077 -0.0145939 -0.0095165 -0.510402 -1.49792 -0.0899471 -0.0818986 -1.59766 -0.906334 
-0.116372 -0.093046 -0.214935 -0.479342 -0.159175 -0.881908 -0.21294 -0.292103 -0.111526 
-0.380512 -0.108073 -0.212497 -0.534623 -0.162901 -0.253619 -0.116361 -0.150418 -0.461829 
-0.29052 -1.05479 -0.210685 -1.07762 -0.19193 -0.821453 -0.142149 -0.18294 -0.105865 
-0.0909686 -0.296232 -0.317353 -0.169702 -0.265595 -0.481528 -0.113678 -0.225807 -0.857407 
-1.25377 -0.19102 -0.566687 -1.12353 -0.254244 -0.452089 -0.125152 -0.104214 -0.997053 
-1.12007 -0.195531 -0.19948 -0.16475 -0.278943 -0.248357 -0.269346 -0.554626 -1.18669 
-0.505415 -0.28743 -0.325055 -0.6211 -0.190634 -0.220888 -0.221512 -1.03754 -0.176067 
-0.300538 -0.123735 -0.120672 -0.464285 -0.906151 -0.581454 -1.1698 -0.0788983 -0.0902954 
-0.105771 -0.289171 -1.03369 -0.562949 -0.233675 -0.669212 -0.356683 -0.311531 -0.527024 
-0.210649 -0.211809 -0.530854 -0.392917 -0.266235 -1.02441 -0.0553833 -0.0518117 -0.235872 
-0.663105 -0.19992 -0.332754 -0.00169449 -0.00190106 -0.00218878 -0.00362341 -0.00174775 -0.00224294 
-0.0145811 -0.00812945 -0.00871605 -0.0131584 -0.0139531 -0.0245321 -0.0818715 -0.0631438 -0.0601927 
-0.0863784 -0.0890205 -0.203834 -1.02843 -0.601405 -0.00173245 -0.00206304 -0.00230924 -0.00367222 
-0.00333643 -0.00483842 -0.00549598 -0.00399557 -0.0706314 -0.12084 -0.272003 -0.696892 -0.47551 
-1.07599 -0.026083 -0.0868746 -0.0290317 -0.0721334 -0.033753 -0.0240914 -0.0671881 -0.0534548 
-0.0413536 -0.0619011 -0.050148 -0.0507142 -0.040731 -0.0533572 -0.256397 -0.15723 -0.209839 
-0.133591 -0.117991 -0.163415 -0.341472 -0.280153 -0.218244 -0.626163 -0.130346 -0.192327 
-0.0498897 -0.0312715 -0.0260295 -0.0290322 -0.0329004 -0.0459157 -0.463929 -0.022258 -0.434024 