# vtk DataFile Version 4.0
vtk output
ASCII
DATASET POLYDATA
POINTS 1783 double
9.375 -5.975 0 9.375 -3.475 0 7.42876 -5.975 0 
7.42876 -5.975 0 9.375 -3.475 0 7.19363 -3.475 0 
5.48251 -5.975 0 7.19363 -3.475 0 5.01226 -3.475 0 
3.53627 -5.975 0 5.01226 -3.475 0 2.57402 -4.30833 0 
3.53627 -5.975 0 5.48251 -5.975 0 5.01226 -3.475 0 
9.375 -0.975 0 7.19363 -0.975 0 9.375 -3.475 0 
9.375 -3.475 0 7.19363 -0.975 0 7.19363 -3.475 0 
7.19363 -3.475 0 7.19363 -0.975 0 5.01226 -0.975 0 
5.01226 -3.475 0 5.01226 -0.975 0 2.83089 -0.975 0 
2.83089 -3.475 0 2.83089 -0.975 0 1.61177 -2.64167 0 
2.57402 -4.30833 0 2.83089 -3.475 0 1.61177 -2.64167 0 
2.57402 -4.30833 0 5.01226 -3.475 0 2.83089 -3.475 0 
2.83089 -3.475 0 5.01226 -3.475 0 2.83089 -0.975 0 
7.19363 -3.475 0 5.01226 -0.975 0 5.01226 -3.475 0 
2.83089 -0.975 0 0.649519 -0.975 0 1.61177 -2.64167 0 
5.48251 -5.975 0 7.42876 -5.975 0 7.19363 -3.475 0 
3.52028 -3.98492 0 4.01226 -3.475 0 4.066 -3.79841 0 
2.22133 -1.80833 0 1.83089 -0.975 0 1.14952 -1.84103 0 
2.33089 -1.24887 0 1.69264 -2.06122 0 1.75742 -1.51756 0 
1.2402 -0.975 0 0.899519 -1.40801 0 1.33634 -1.40116 0 
4.53913 -3.6367 0 4.51226 -3.475 0 1.53555 -1.1323 0 
2.33089 -0.975 0 0.899519 -0.975 0 4.1458 -2.48198 0 
3.83089 -0.975 0 4.26226 -3.59963 0 4.77569 -3.55585 0 
4.76226 -3.475 0 2.08089 -1.11193 0 0.774519 -1.19151 0 
1.02452 -1.19151 0 0.774519 -1.04717 0 0.899519 -1.11934 0 
0.899519 -1.26368 0 1.11769 -1.38964 0 1.06986 -0.975 0 
2.52611 -1.39167 0 1.78516 -1.24506 0 1.53555 -0.975 0 
1.38788 -1.05365 0 1.68322 -1.05365 0 1.22707 -1.17761 0 
1.39306 -1.23496 0 1.56686 -1.38706 0 1.47143 -1.71814 0 
2.58089 -1.11193 0 3.48835 -1.72849 0 5.01226 -2.225 0 
3.15962 -1.35175 0 3.33089 -0.975 0 3.88953 -1.45627 0 
3.81708 -2.10524 0 4.42157 -0.975 0 4.44207 -1.89169 0 
2.83089 -2.475 0 2.2405 -1.78212 0 8.50854 -2.48198 0 
6.32717 -2.48198 0 6.01226 -0.975 0 3.69734 -1.96802 0 
-1.43856 -2.64167 0 -0.525 -1.725 0 -0.476314 -0.975 0 
-1.43856 -2.64167 0 -1.12102 -3.475 0 -0.525 -1.725 0 
-1.43856 -2.64167 0 -2.40081 -4.30833 0 -1.12102 -3.475 0 
-1.12102 -3.475 0 -2.40081 -4.30833 0 -0.525 -3.85 0 
-0.525 -1.725 0 -1.12102 -3.475 0 -0.525 -3.85 0 
-3.36307 -5.975 0 -1.94403 -5.975 0 -2.40081 -4.30833 0 
-2.40081 -4.30833 0 -1.94403 -5.975 0 -0.525 -3.85 0 
-0.525 -3.85 0 -1.94403 -5.975 0 -0.525 -5.975 0 
-0.525 -1.725 0 0.525 -1.725 0 -0.476314 -0.975 0 
-0.476314 -0.975 0 0.525 -1.725 0 0.476314 -0.975 0 
0.476314 -0.975 0 0.525 -1.725 0 1.43856 -2.64167 0 
1.43856 -2.64167 0 0.525 -1.725 0 1.12102 -3.475 0 
2.40081 -4.30833 0 1.12102 -3.475 0 0.525 -3.85 0 
1.94403 -5.975 0 0.525 -3.85 0 0.525 -5.975 0 
1.94403 -5.975 0 2.40081 -4.30833 0 0.525 -3.85 0 
1.94403 -5.975 0 3.36307 -5.975 0 2.40081 -4.30833 0 
0.525 -1.725 0 0.525 -3.85 0 1.12102 -3.475 0 
2.40081 -4.30833 0 1.43856 -2.64167 0 1.12102 -3.475 0 
-1.42939 -4.07098 0 -0.525 -2.85 0 1.49642 -4.08736 0 
0.525 -2.725 0 0.847398 -2.6716 0 -1.56281 -3.76267 0 
-0.525 -3.35 0 0.525 -3.35 0 0.98421 -3.0733 0 
-0.976314 -1.84103 0 -1.08561 -2.28751 0 -1.18856 -2.20865 0 
0.124811 -1.42525 0 -0.076125 -1.27475 0 0.328316 -1.36119 0 
0.938564 -1.77564 0 1.08561 -2.28751 0 1.18856 -2.20865 0 
1.56281 -3.76267 0 1.98181 -4.0355 0 1.9151 -4.18966 0 
-0.297869 -1.36316 0 -0.798624 -2.5284 0 -0.877954 -2.07915 0 
-0.959823 -3.0017 0 0.847398 -2.6716 0 1.29906 -3.00777 0 
0.877954 -2.07915 0 -0.847398 -2.6716 0 -0.525 -2.225 0 
-0.686199 -2.1983 0 -0.98421 -3.0733 0 0.500657 -1.35 0 
0.686199 -2.1983 0 0.224438 -1.49987 0 -1.26209 -2.46459 0 
-1.31356 -2.42516 0 -1.08244 -2.02484 0 -0.805305 -2.00626 0 
0.805305 -2.00626 0 1.06356 -1.99215 0 1.31356 -2.42516 0 
1.26209 -2.46459 0 0.512828 -1.5375 0 0.324906 -1.57513 0 
0.488485 -1.1625 0 2.19131 -4.17192 0 2.15796 -4.24899 0 
1.77231 -3.89909 0 -0.525 -2.5375 0 -0.525 -1.975 0 
-0.6056 -1.96165 0 0.0741563 -1.38731 0 0.023686 -0.975 0 
0.25 -1.08384 0 1.15826 -2.36041 0 -1.9151 -4.18966 0 
-1.98181 -4.0355 0 0.686199 -2.1983 0 0.525 -2.225 0 
0.025 -1.725 0 -1.17385 -2.37605 0 -1.25106 -2.31691 0 
-1.35033 -2.55313 0 -1.37606 -2.53341 0 1.17385 -2.37605 0 
1.25106 -2.31691 0 1.37606 -2.53341 0 1.35033 -2.55313 0 
2.0517 -4.15725 0 2.27939 -4.27866 0 2.29606 -4.24013 0 
-0.5653 -1.84333 0 -0.525 -1.85 0 -0.587108 -2.1 0 
0.649216 -2.475 0 -1.70258 -4.00618 0 -2.19131 -4.17192 0 
-2.15796 -4.24899 0 0.525 -1.975 0 0.6056 -1.96165 0 
0.363157 -0.975 0 0.4824 -1.06875 0 0.25 -0.975 0 
0.0802645 -1.14707 0 0.369243 -1.12317 0 0.136843 -0.975 0 
0.193422 -1.02942 0 0.0802645 -1.05173 0 -0.226314 -0.975 0 
-0.0144107 -1.19072 0 -0.101314 -0.975 0 -0.276219 -1.12487 0 
-0.176172 -1.19981 0 -0.0332091 -1.07618 0 -0.152361 -1.08287 0 
-0.351314 -0.975 0 -0.376267 -1.04994 0 0.726314 -1.40801 0 
0.508703 -1.47395 0 0.745009 -1.6423 0 -0.175751 -1.20013 0 
-0.726314 -1.40801 0 -0.851314 -1.62452 0 -0.508703 -1.47395 0 
-0.500657 -1.35 0 -0.25 -1.725 0 -0.387092 -1.16908 0 
9.375 0.825 0 7.03125 0.825 0 9.375 0.075 0 
9.375 0.075 0 7.03125 0.825 0 7.03125 0.075 0 
7.03125 0.075 0 7.03125 0.825 0 4.6875 0.825 0 
4.6875 0.075 0 4.6875 0.825 0 2.34375 0.825 0 
2.34375 0.075 0 2.34375 0.825 0 1.77636e-15 0.825 0 
1.77636e-15 0.075 0 1.77636e-15 0.825 0 -2.34375 0.825 0 
-2.34375 0.075 0 -2.34375 0.825 0 -4.6875 0.825 0 
-4.6875 0.075 0 -4.6875 0.825 0 -7.03125 0.825 0 
-7.03125 0.075 0 -7.03125 0.825 0 -9.375 0.825 0 
-9.375 0.075 0 -7.03125 0.075 0 -9.375 0.825 0 
7.03125 0.075 0 4.6875 0.825 0 4.6875 0.075 0 
4.6875 0.075 0 2.34375 0.825 0 2.34375 0.075 0 
2.34375 0.075 0 1.77636e-15 0.825 0 1.77636e-15 0.075 0 
1.77636e-15 0.075 0 -2.34375 0.825 0 -2.34375 0.075 0 
-2.34375 0.075 0 -4.6875 0.825 0 -4.6875 0.075 0 
-4.6875 0.075 0 -7.03125 0.825 0 -7.03125 0.075 0 
7.98367 0.520224 0 8.03125 0.825 0 8.42258 0.379776 0 
8.375 0.075 0 6.03125 0.825 0 5.63992 0.520224 0 
6.33559 0.297612 0 5.1875 0.825 0 5.16371 0.672612 0 
3.6875 0.825 0 3.29617 0.520224 0 3.99184 0.297612 0 
2.84375 0.825 0 2.81996 0.672612 0 4.1875 0.825 0 
4.4204 0.438602 0 0.952424 0.520224 0 1 0.825 0 
1.86754 0.227388 0 -1.39133 0.520224 0 -1.34375 0.825 0 
-0.476212 0.227388 0 -3.34375 0.825 0 -3.73508 0.520224 0 
-3.03941 0.297612 0 -4.1875 0.825 0 -4.21129 0.672612 0 
-2.84375 0.825 0 -2.61085 0.438602 0 -5.6875 0.825 0 
-6.07883 0.520224 0 -5.38316 0.297612 0 -6.53125 0.825 0 
-6.55504 0.672612 0 -8.42258 0.520224 0 -8.375 0.825 0 
-7.98367 0.379776 0 -8.03125 0.075 0 6.07883 0.379776 0 
6.03125 0.075 0 3.73508 0.379776 0 3.6875 0.075 0 
2.81996 0.672612 0 1 0.075 0 1.39133 0.379776 0 
0.695663 0.602388 0 1.84375 0.075 0 1.86754 0.227388 0 
0.5 0.075 0 0.267097 0.461398 0 -0.952424 0.379776 0 
-1 0.075 0 -1.86754 0.672612 0 -3.6875 0.075 0 
-3.29617 0.379776 0 -3.99184 0.602388 0 -2.84375 0.075 0 
-2.81996 0.227388 0 -4.1875 0.075 0 -4.4204 0.461398 0 
-5.63992 0.379776 0 -5.6875 0.075 0 1.67188 0.825 0 
1.40998 0.373806 0 2.00781 0.604152 0 -0.671875 0.825 0 
-0.933769 0.373806 0 -0.335937 0.604152 0 3.01562 0.075 0 
3.27752 0.526194 0 2.67969 0.295848 0 -1.67187 0.075 0 
-1.40998 0.526194 0 -2.00781 0.295848 0 5.60937 0.825 0 
4.9375 0.825 0 4.92561 0.748806 0 3.26562 0.825 0 
2.58186 0.748806 0 2.59375 0.825 0 -3.76562 0.825 0 
-4.4375 0.825 0 -4.44939 0.748806 0 -6.10937 0.825 0 
-6.79314 0.748806 0 -6.78125 0.825 0 1.42188 0.075 0 
2.09375 0.075 0 2.10564 0.151194 0 -3.26562 0.075 0 
-2.58186 0.151194 0 -2.59375 0.075 0 5.40182 0.596418 0 
3.05807 0.596418 0 -3.97318 0.596418 0 -6.31693 0.596418 0 
1.62943 0.303582 0 -3.05807 0.303582 0 7.53125 0.825 0 
7.50746 0.672612 0 8.89879 0.227388 0 8.70312 0.825 0 
8.89879 0.227388 0 8.875 0.075 0 7.70312 0.075 0 
7.72691 0.602388 0 0.476212 0.672612 0 0.5 0.825 0 
0.25 0.825 0 0.238106 0.748806 0 0.75 0.825 0 
0.714318 0.596418 0 0.625 0.727437 0 0.875 0.688411 0 
-1.59375 0.707924 0 -1.84375 0.825 0 -1.86754 0.672612 0 
-1.16255 0.447015 0 -7.50746 0.227388 0 -7.70312 0.825 0 
-8.89879 0.672612 0 -8.875 0.825 0 -7.53125 0.075 0 
-7.50746 0.227388 0 -8.89879 0.672612 0 -8.70312 0.075 0 
6.55504 0.227388 0 6.53125 0.075 0 5.35937 0.075 0 
5.38316 0.602388 0 4.21129 0.227388 0 4.1875 0.075 0 
-0.476212 0.227388 0 -0.5 0.075 0 -0.238106 0.151194 0 
-0.25 0.075 0 -0.75 0.075 0 -0.375 0.133538 0 
-0.714318 0.303582 0 -0.625 0.172563 0 -0.875 0.211589 0 
-0.757856 0.193302 0 -0.833371 0.341679 0 -1.04033 0.237396 0 
-1.1812 0.452985 0 -1.33594 0.075 0 -0.875 0.075 0 
-1.35513 0.303522 0 -1.63195 0.353429 0 -5.16371 0.227388 0 
-5.1875 0.075 0 -6.35937 0.075 0 -6.33559 0.602388 0 
1.04349 0.491082 0 1.63281 0.075 0 8.44123 0.373806 0 
8.03906 0.283541 0 1.33594 0.825 0 -1.00781 0.825 0 
-0.988617 0.596478 0 -0.711802 0.546571 0 -0.839844 0.724042 0 
-1.17578 0.695823 0 -0.704991 0.300597 0 -0.503906 0.825 0 
-0.516558 0.444145 0 -0.335937 0.825 0 1.77636e-15 0.45 0 
-0.540618 0.635582 0 1.77636e-15 0.6375 0 -0.166743 0.529748 0 
-0.238106 0.151194 0 -0.167969 0.73125 0 -0.323582 0.408256 0 
1.77636e-15 0.2625 0 -0.154387 0.351816 0 -0.333861 0.262096 0 
-7.96502 0.373806 0 -8.44123 0.526194 0 5.69531 0.283541 0 
-6.02344 0.283541 0 1.21094 0.207776 0 1.16797 0.642679 0 
1.50391 0.620892 0 2.34375 0.45 0 2.00781 0.825 0 
2.67969 0.075 0 -2.34375 0.45 0 -2.00781 0.075 0 
0.75 0.075 0 1.00184 0.285121 0 0.869579 0.546735 0 
0.529974 0.384181 0 0.688026 0.436178 0 0.347831 0.713694 0 
0.25 0.075 0 0.501738 0.230875 0 0.386904 0.383191 0 
0.457226 0.559066 0 1.77636e-15 0.45 0 0.227313 0.269581 0 
0.375 0.154341 0 1.77636e-15 0.2625 0 0.125 0.159039 0 
0.346865 0.270539 0 0.136417 0.388467 0 0.173916 0.769347 0 
0.266256 0.600732 0 1.77636e-15 0.7 0 0.10503 0.575 0 
0.686856 0.250071 0 0.83605 0.342191 0 1.75162 0.485039 0 
-2.59375 0.825 0 5.0625 0.766462 0 -4.3125 0.766462 0 
1.96875 0.133538 0 4.8125 0.825 0 4.80655 0.786903 0 
2.71875 0.766462 0 2.4628 0.786903 0 2.46875 0.825 0 
-4.5625 0.825 0 -4.56845 0.786903 0 -6.65625 0.766462 0 
-6.9122 0.786903 0 -6.90625 0.825 0 2.21875 0.075 0 
[...]
CELL_DATA 2100
FIELD FieldData 4
electrode_index 1 2100 int
0 0 0 0 0 0 0 0 0 
0 0 0 0 0 0 0 0 0 
0 0 0 0 0 0 0 0 0 
0 0 0 0 0 0 0 0 0 
0 0 0 0 0 0 0 0 0 
0 0 0 0 0 0 0 0 0 
0 0 0 0 0 0 0 0 0 
0 0 0 0 0 0 0 0 0 
0 0 0 0 0 0 0 0 0 
0 0 0 0 0 0 0 0 0 
0 0 1 1 1 1 1 1 1 
1 1 1 1 1 1 1 1 1 
1 1 1 1 1 1 1 1 1 
1 1 1 1 1 1 1 1 1 
1 1 1 1 1 1 1 1 1 
1 1 1 1 1 1 1 1 1 
1 1 1 1 1 1 1 1 1 
1 1 1 1 1 1 1 1 1 
1 1 1 1 1 1 1 1 1 
1 1 1 1 1 1 1 1 1 
1 1 1 1 1 1 1 1 1 
1 1 1 1 1 1 1 1 1 
1 1 1 1 1 1 1 1 1 
1 1 1 1 1 1 1 1 1 
1 1 1 1 1 1 1 1 1 
1 1 1 1 1 1 1 1 1 
2 2 2 2 2 2 2 2 2 
2 2 2 2 2 2 2 2 2 
2 2 2 2 2 2 2 2 2 
2 2 2 2 2 2 2 2 2 
2 2 2 2 2 2 2 2 2 
2 2 2 2 2 2 2 2 2 
2 2 2 2 2 2 2 2 2 
2 2 2 2 2 2 2 2 2 
2 2 2 2 2 2 2 2 2 
2 2 2 2 2 2 2 2 2 
2 2 2 2 2 2 2 2 2 
2 2 2 2 2 2 2 2 2 
2 2 2 2 2 2 2 2 2 
2 2 2 2 2 2 2 2 2 
2 2 2 2 2 2 2 2 2 
2 2 2 2 2 2 2 2 2 
2 2 2 2 2 2 2 2 2 
2 2 2 2 2 2 2 2 2 
2 2 2 2 2 2 2 2 2 
2 2 2 2 2 2 2 2 2 
2 2 2 2 2 2 2 2 2 
2 2 2 2 2 2 2 2 2 
2 2 2 2 2 2 2 2 2 
2 2 2 2 2 2 2 2 2 
2 2 2 2 2 2 2 2 2 
2 2 2 2 2 2 2 2 2 
2 2 2 2 2 2 2 2 2 
2 2 2 2 2 2 2 2 2 
2 2 2 2 2 2 2 2 2 
2 2 2 2 2 2 2 2 2 
2 2 2 2 2 2 2 2 2 
2 2 2 2 2 2 2 2 2 
2 2 2 2 2 2 2 2 2 
2 2 2 2 2 2 2 2 2 
2 2 2 2 2 2 2 2 2 
2 2 2 2 2 2 2 2 2 
2 2 2 2 2 2 2 2 2 
2 2 2 2 2 2 2 2 2 
2 2 2 2 2 2 2 2 2 
2 2 2 2 2 2 2 2 2 
2 2 2 2 2 2 2 2 2 
2 2 2 2 2 2 2 2 2 
2 2 2 2 2 2 2 2 2 
2 2 2 2 2 2 2 2 2 
2 2 2 2 2 2 2 2 2 
2 2 2 2 2 2 2 2 2 
2 2 2 2 2 2 2 2 2 
2 2 2 2 2 2 2 2 2 
2 2 2 2 2 2 2 2 2 
2 2 2 2 2 2 2 2 2 
2 2 2 2 2 2 2 2 2 
2 2 2 2 2 2 2 2 2 
2 2 2 2 2 2 2 2 2 
2 2 2 2 2 2 2 2 2 
2 2 2 2 2 2 2 2 2 
2 2 2 2 2 2 2 2 2 
2 2 2 2 2 2 2 2 2 
2 2 2 2 2 2 2 2 2 
2 2 2 2 2 2 2 2 2 
2 2 2 2 2 2 2 2 2 
2 2 2 2 2 2 2 2 2 
2 2 2 2 2 2 2 2 2 
2 2 2 2 2 2 2 2 2 
2 2 2 2 2 2 2 2 2 
2 2 2 2 2 2 2 2 2 
2 2 2 2 2 2 2 2 2 
2 2 2 2 2 2 2 2 2 
2 2 2 2 2 2 2 2 2 
2 2 2 2 2 2 2 2 2 
2 2 2 2 2 2 2 3 3 
3 3 3 3 3 3 3 3 3 
3 3 3 3 3 3 3 3 3 
3 3 3 3 3 3 3 3 3 
3 3 3 3 3 3 3 4 4 
4 4 4 4 4 4 4 4 4 
4 4 4 4 4 4 4 4 4 
4 4 4 4 4 4 4 4 4 
4 4 4 4 4 4 4 4 4 
4 4 4 4 4 4 4 4 4 
4 4 4 4 4 4 4 4 4 
4 4 4 4 4 4 4 4 4 
4 4 4 4 4 4 4 4 4 
4 4 4 4 4 4 4 4 4 
4 4 4 4 4 4 4 4 4 
4 4 4 4 4 4 4 4 4 
4 4 4 4 4 4 4 4 4 
4 4 4 4 4 4 4 4 4 
4 4 4 4 4 4 4 4 4 
4 4 4 4 4 4 4 4 4 
4 4 4 4 4 4 4 4 4 
4 4 4 4 4 4 4 4 4 
4 4 4 4 4 4 4 4 4 
4 4 4 4 4 4 4 4 4 
4 4 4 4 4 4 4 4 4 
4 4 4 4 4 4 4 4 4 
4 4 4 4 4 4 4 4 4 
4 4 4 4 4 4 4 4 4 
4 4 4 4 4 4 4 4 4 
4 4 4 4 4 4 4 4 4 
4 4 4 4 4 4 4 4 4 
4 4 4 4 4 4 4 4 4 
4 4 4 4 4 4 4 4 4 
4 4 4 4 4 4 4 4 4 
4 4 4 4 4 4 4 4 4 
4 4 4 4 4 4 4 4 4 
4 4 4 4 4 4 4 4 4 
4 4 4 4 4 4 4 4 4 
4 4 4 4 4 4 4 4 4 
4 4 4 4 4 4 4 4 4 
4 4 4 4 4 4 4 4 4 
4 4 4 4 4 4 4 4 4 
4 4 4 4 4 4 4 4 4 
4 4 4 4 4 4 4 4 4 
4 4 4 4 4 4 4 4 4 
4 4 4 4 4 4 4 4 4 
4 4 4 4 4 4 4 4 4 
4 4 4 4 4 4 4 4 4 
4 4 4 4 4 4 4 4 4 
4 4 4 4 4 4 4 4 4 
4 4 4 4 4 4 4 4 4 
4 4 4 4 4 4 4 4 4 
4 4 4 4 4 4 4 4 4 
4 4 4 4 4 4 4 4 4 
4 4 4 4 4 4 4 4 4 
4 4 4 4 4 4 4 4 4 
4 4 4 4 4 4 4 4 4 
4 4 4 4 4 4 4 4 4 
4 4 4 4 4 4 4 4 4 
4 4 4 4 4 4 4 4 4 
4 4 4 4 4 4 4 4 4 
4 4 4 4 4 4 4 4 4 
4 4 4 4 4 4 4 4 4 
4 4 4 4 4 4 4 4 4 
4 4 4 4 4 4 4 4 4 
4 4 4 4 4 4 4 4 4 
4 4 4 4 4 4 4 4 4 
4 4 4 4 4 4 4 4 4 
4 4 4 4 4 4 4 4 4 
4 4 4 4 4 4 4 4 4 
4 4 4 4 4 4 4 4 4 
4 4 4 4 4 4 4 4 4 
4 4 4 4 4 4 4 4 4 
4 4 4 4 4 4 4 4 4 
4 4 4 4 4 4 4 4 4 
4 4 4 4 4 4 4 4 4 
4 4 4 4 4 4 4 4 4 
4 4 4 4 4 4 4 4 4 
4 4 4 4 4 4 4 4 4 
4 4 4 4 4 4 4 4 4 
4 4 4 4 4 4 4 4 4 
4 4 4 4 4 4 4 4 4 
4 4 4 4 4 4 4 4 4 
4 4 4 4 4 4 4 4 4 
4 4 4 4 4 4 4 4 4 
4 4 4 4 4 4 4 4 4 
4 4 4 4 4 4 4 4 4 
4 4 4 4 4 4 4 4 4 
4 4 4 4 4 4 4 4 4 
4 4 4 4 4 4 4 4 4 
4 4 4 4 4 4 4 4 4 
4 4 4 4 4 4 4 4 4 
4 4 4 4 4 4 4 4 4 
4 4 4 4 4 4 4 4 4 
4 4 4 4 4 4 4 4 4 
4 4 4 4 4 4 4 4 4 
4 4 4 4 4 4 4 4 4 
4 4 4 4 4 4 4 4 4 
4 4 4 4 4 4 4 4 4 
4 4 4 4 4 4 4 4 4 
4 4 4 4 4 4 4 4 4 
4 4 4 4 4 4 4 4 4 
4 4 4 4 4 4 4 4 4 
4 4 4 4 4 4 4 4 4 
4 4 4 4 4 4 4 4 4 
4 4 4 4 4 4 4 4 4 
4 4 4 4 4 4 4 4 4 
4 4 4 4 4 4 4 4 4 
4 4 4 4 4 4 4 4 4 
4 4 4 4 4 4 4 4 4 
4 4 4 4 4 4 4 4 4 
4 4 4 4 4 4 4 4 4 
4 4 4 4 4 4 4 4 4 
4 4 4 4 4 4 4 4 4 
4 4 4 4 4 4 4 4 4 
4 4 4 4 4 4 4 4 4 
4 4 4 4 4 4 4 4 4 
4 4 4 4 4 4 4 4 4 
4 4 4 4 4 4 4 4 4 
4 4 4 4 4 4 4 4 4 
4 4 4 4 4 4 4 4 4 
4 4 4 4 4 4 4 4 4 
4 4 4 4 4 4 4 4 4 
4 4 4 4 4 4 4 4 4 
4 4 4 4 4 4 4 4 4 
4 4 4 4 4 4 4 4 4 
4 4 4 4 4 4 4 4 4 
4 4 4 4 4 4 4 4 5 
5 5 5 5 5 5 5 5 5 
5 5 5 5 5 5 5 5 5 
5 5 5 5 5 5 5 5 5 
5 5 5 5 5 5 5 5 5 
5 5 5 5 5 5 5 5 5 
5 5 5 5 5 5 5 5 5 
5 5 5 5 5 5 5 5 5 
5 5 5 5 5 5 5 5 5 
5 5 5 5 5 5 5 5 5 
5 5 5 5 5 5 5 5 5 
5 5 5 
charge 1 2100 double
-0.0202452 -0.0128887 -0.0108024 -0.0111268 -0.0126676 -0.0448419 -0.0199723 -0.0261033 -0.198155 
-0.0256221 -0.0146906 -0.0112868 -0.0312434 -0.0177537 -0.0349651 -0.0127947 -0.0114479 -0.009973 
-0.0121917 -0.0434041 -0.280744 -0.677924 -0.934306 -0.656874 -0.0296807 -0.0653184 -0.0705339 
-0.0648033 -0.348417 -0.921305 -0.154697 -0.0680189 -0.010169 -0.011776 -0.173965 -0.123273 
-0.1298 -0.28517 -0.0210069 -0.275201 -0.0120281 -0.0127638 -0.00530711 -0.0115584 -0.279335 
-0.120556 -0.253453 -0.122346 -0.70875 -1.06881 -0.610228 -0.423709 -0.198488 -0.226409 
-0.118841 -0.0887837 -0.103512 -0.128741 -0.252737 -0.0833155 -0.0982249 -0.413792 -0.554987 
-0.412895 -0.192602 -0.308568 -0.121844 -0.118249 -0.0978081 -0.199138 -0.0550982 -0.082312 
-0.0430774 -0.0451664 -0.279419 -0.291279 -0.0651659 -0.0672104 -0.295672 -0.151196 -0.378619 
-0.0466061 -0.0303231 -0.0760925 -0.0266402 -0.0366644 -0.0552833 -0.0169248 -0.108852 -0.118058 
-0.0169531 -0.114297 -0.0519159 -0.0257502 -0.0159674 -0.0128406 -0.0149258 -0.0156005 -0.0107516 
-0.0133686 -0.112061 -0.0653688 -0.0623564 -0.0218738 -0.0117487 -0.0134617 -0.0107399 -0.0155962 
-0.0158484 -0.0160598 -0.0103109 -0.0192632 -0.0128077 -0.0381417 -0.0200255 -0.0118798 -0.0625648 
-0.0155611 -0.0202108 -0.0150637 -0.0548389 -0.0527852 -0.254713 -0.0700402 -0.98868 -0.168446 
-0.0534088 -0.0522322 -0.0369694 -0.0105261 -0.0124808 -0.0113661 -0.250896 -0.0712732 -0.0209515 
-0.0336129 -0.0241086 -0.018101 -0.0253769 -0.0172734 -0.0262644 -0.0432158 -0.0740307 -0.019595 
-0.0721607 -0.0364945 -0.0799007 -0.033807 -0.0508797 -0.0399151 -0.0537459 -0.0391251 -0.0532161 
-0.0519955 -0.0543037 -0.072186 -0.0742535 -0.0104045 -0.121916 -0.0163455 -0.0112691 -0.0115865 
-0.0697136 -0.0269627 -0.0597509 -0.10931 -0.165691 -1.22479 -0.457895 -0.0727266 -0.030485 
-0.0116914 -0.0392454 -0.034908 -0.0527893 -0.0354408 -0.046627 -0.0855698 -0.0474415 -0.032696 
-0.0489678 -0.0881363 -0.0115636 -0.0123695 -0.0261547 -0.0138131 -0.11945 -0.134001 -0.0392941 
-0.0381561 -0.0241574 -0.0247962 -0.011933 -0.0117335 -0.0163655 -0.0115288 -0.0670879 -0.0857599 
-0.848941 -0.171264 -0.387316 -1.18639 -0.459737 -0.846909 -0.36966 -0.636221 -0.143959 
-0.302364 -0.187067 -0.283008 -0.147061 -0.219224 -0.11374 -0.48074 -0.187598 -0.419474 
-0.417702 -0.202964 -0.846424 -0.381648 -1.22615 -1.07832 -0.0794976 -0.181589 -0.0512951 
-0.106514 -0.107396 -0.175437 -0.0989294 -0.0645468 -0.13582 -0.0707708 -0.0698086 -0.302181 
-0.249877 -0.313668 -0.199854 -0.381945 -0.184693 -0.214037 -0.191726 -0.262024 -0.205396 
-0.25343 -0.207771 -0.294156 -0.195527 -0.180507 -0.385991 -0.317036 -0.600522 -0.195503 
-0.686892 -0.25938 -0.228046 -0.29142 -0.213314 -0.303817 -0.358223 -0.260107 -0.575379 
-0.276013 -0.322671 -0.659065 -0.221968 -0.266595 -0.193848 -0.199016 -0.581981 -0.973137 
-0.341215 -0.21114 -0.263238 -1.32128 -0.178306 -0.168515 -0.319767 -0.360293 -0.267589 
-0.188663 -0.615696 -0.222305 -0.316284 -0.214016 -0.289191 -0.627957 -0.18415 -0.326281 
-0.199282 -0.198381 -0.67357 -0.263981 -0.404954 -0.218245 -0.232041 -0.163409 -0.284882 
-0.210481 -0.879716 -0.323394 -0.196465 -0.213375 -0.198018 -0.26544 -0.192394 -0.248546 
-0.332738 -0.551823 -0.266507 -0.303876 -0.644311 -0.234209 -0.261525 -0.184743 -0.397217 
-0.265007 -0.898327 -0.378669 -1.00762 -0.827876 -0.265794 -0.183884 -0.213561 -0.284746 
-0.184676 -0.228026 -0.270535 -0.815616 -0.189189 -0.343969 -0.678412 -0.714252 -0.930523 
-0.434262 -0.634971 -0.336186 -0.18292 -1.01007 -0.971557 -0.321047 -0.672618 -0.351949 
-0.433882 -0.727986 -0.892042 -0.165348 -0.652157 -0.342375 -0.188699 -1.0019 -0.531534 
-0.48814 -0.711034 -0.527232 -0.480257 -0.422449 -0.681231 -0.343821 -0.257412 -0.381042 
-0.391859 -0.524186 -0.196425 -1.35791 -0.515101 -0.55762 -0.666642 -0.22295 -0.270526 
-0.273209 -0.99227 -0.197064 -0.511542 -0.442076 -0.33061 -0.497419 -1.18413 -0.25344 
-0.218906 -0.263261 -0.186149 -0.180191 -0.364382 -0.603123 -0.385718 -0.291873 -0.377758 
-0.37735 -0.491087 -0.520439 -0.465943 -0.214152 -0.630507 -0.344691 -0.419575 -0.300748 
-1.02396 -0.242042 -0.203938 -0.908933 -0.51075 -0.224612 -0.744151 -1.32376 -0.479558 
-0.561359 -0.219698 -0.244662 -0.246881 -0.184388 -0.214186 -0.183734 -0.199866 -1.07355 
-0.321546 -0.20769 -0.402547 -0.174793 -0.520255 -0.520988 -0.200924 -0.193124 -0.481892 
-0.487433 -0.295599 -0.157838 -0.204299 -0.190454 -0.184969 -1.18769 -0.21413 -0.273602 
-0.326317 -0.234899 -0.485089 -0.212597 -0.24453 -0.187861 -0.209013 -0.184514 -0.189062 
-0.211867 -0.639166 -0.19368 -0.47871 -0.385304 -0.209949 -0.186679 -0.253054 -0.467737 
-0.28127 -0.189135 -0.196666 -0.183868 -0.228396 -0.290693 -0.311731 -0.174199 -0.301971 
-0.170644 -0.337233 -0.158031 -0.225827 -0.15773 -0.206994 -0.183637 -1.1018 -0.179189 
-0.203858 -0.197401 -0.697662 -0.301612 -0.222394 -0.174685 -0.298451 -0.238538 -0.234987 
-0.476047 -0.264033 -0.184052 -0.184738 -0.183765 -0.257965 -0.188924 -0.213871 -0.401907 
-0.184377 -0.328082 -0.183781 -0.19875 -0.182831 -1.14975 -0.24423 -0.258935 -0.274884 
-0.212252 -0.406483 -0.614276 -0.312521 -0.327026 -0.778868 -1.06123 -0.218525 -0.196654 
-0.474701 -0.184958 -0.195173 -0.185494 -0.682167 -0.2474 -0.547162 -0.227943 -0.191536 
-0.196209 -0.322666 -0.499411 -1.02535 -0.528541 -1.10405 -0.476821 -1.10765 -1.88698 
-0.962825 -0.448712 -1.12441 -0.891161 -1.86874 -1.99175 -1.02621 -0.490355 -1.00007 
-1.34937 -1.71136 -1.89138 -1.01119 -0.429971 -1.09242 -0.889116 -1.88287 -0.325133 
-0.385626 -1.58676 -0.750077 -0.524345 -1.08076 -2.1682 -2.39008 -0.526314 -1.63703 
-1.44455 -0.986246 -0.779333 -0.421204 -1.19864 -0.801348 -0.386321 -0.449862 -1.68728 
-0.348009 -0.316737 -0.279992 -0.657515 -1.6664 -0.978689 -1.0962 -0.314511 -0.424786 
-0.695202 -1.61262 -0.36246 -0.577849 -0.228331 -0.276004 -0.487431 -0.297798 -0.303686 
-0.637145 -0.199253 -0.268952 -0.263746 -0.184085 -0.211839 -1.58411 -0.246197 -0.545258 
-0.410298 -0.567201 -0.289299 -0.270923 -0.358008 -1.30734 -0.285605 -0.47243 -0.215098 
-0.281728 -0.347731 -0.331615 -0.266329 -0.392398 -0.241504 -1.32015 -0.557133 -0.330343 
-1.11022 -0.222131 -0.321949 -0.306615 -0.516642 -0.441235 -0.27781 -0.251391 -0.64397 
-1.36375 -1.33512 -0.616403 -0.359502 -0.64841 -0.286618 -0.235098 -0.938417 -0.35473 
-0.939529 -0.259197 -0.497839 -0.955719 -0.284801 -0.983974 -0.297412 -0.198184 -0.257014 
-0.527697 -0.561283 -0.646307 -0.834495 -0.253334 -0.282509 -0.218416 -0.230395 -0.351837 
-0.193797 -0.183946 -0.20605 -0.189572 -0.325351 -0.702325 -0.892721 -0.240072 -0.228062 
-0.790998 -0.910659 -0.203583 -0.442406 -0.422701 -0.972566 -0.252508 -0.253187 -0.162758 
-0.292633 -0.191314 -0.29436 -0.969122 -0.845203 -0.264925 -0.331094 -0.640311 -0.376618 
-0.568827 -0.262393 -0.501229 -0.267789 -0.590627 -0.251695 -0.262497 -0.34016 -1.12713 
-0.28618 -0.59161 -0.917283 -0.492037 -0.490943 -1.12977 -0.156472 -0.29203 -1.11555 
-0.590115 -0.314493 -0.727467 -0.503886 -1.14714 -0.296356 -0.29426 -0.681884 -1.1439 
-0.622062 -0.187005 -0.190491 -1.46293 -1.41269 -0.603904 -0.38278 -0.415407 -0.867936 
-0.609801 -0.449966 -0.808127 -0.291795 -1.42074 -0.218142 -0.198396 -1.11919 -0.183843 
-0.306555 -0.251093 -0.517222 -1.09084 -0.301894 -0.277227 -1.09806 -0.225523 -0.239751 
-0.22903 -0.280735 -0.201652 -0.191597 -1.14112 -0.66284 -0.422427 -0.529013 -0.221445 
-0.406916 -1.43273 -0.566266 -0.851356 -0.821848 -0.855184 -0.185342 -0.24281 -0.228397 
-0.196262 -0.5713 -0.223153 -0.295615 -0.192365 -0.185192 -0.314867 -0.232244 -0.360448 
-1.10172 -1.11326 -0.313138 -0.663703 -0.190235 -0.182112 -0.387512 -0.429104 -0.667596 
-0.204639 -0.485732 -0.307965 -0.197194 -0.190377 -0.346082 -0.262424 -0.220469 -0.215716 
-0.222538 -0.183778 -0.266209 -0.778607 -0.413998 -0.502338 -0.257658 -0.802995 -0.20716 
-0.210065 -0.925905 -0.18306 -0.190565 -0.22991 -0.422743 -0.184562 -0.195161 -0.231194 
-0.325811 -0.382964 -0.992888 -0.191917 -0.209066 -0.833093 -0.616024 -0.376453 -0.270592 
-0.655141 -0.284008 -0.68841 -0.217297 -0.319877 -0.36507 -0.245499 -0.176454 -0.202568 
-0.82808 -0.450543 -0.431733 -0.56154 -0.194016 -0.316054 -0.307258 -0.211323 -0.186906 
-0.213602 -0.194456 -0.185404 -0.192419 -0.187239 -0.213838 -0.193153 -0.215742 -0.367568 
-0.189219 -0.387185 -0.215327 -0.202798 -0.828259 -0.632607 -0.308916 -0.509245 -0.240464 
-0.185779 -0.189632 -0.172197 -0.332848 -0.203527 -0.472152 -0.278468 -0.253033 -0.174669 
-0.316974 -0.736708 -0.172986 -0.303374 -0.577709 -0.554712 -0.730065 -0.177947 -0.72094 
-0.271393 -0.175287 -0.28233 -0.174885 -0.186007 -0.280374 -0.198964 -0.170968 -0.509553 
-0.210413 -0.202457 -0.248394 -0.174224 -0.23925 -0.172447 -0.196276 -0.0274752 -0.0124347 
-0.0134963 -0.0428224 -0.0340091 -0.016252 -0.0230531 -0.0260086 -0.0218365 -0.0246842 -0.0156789 
-0.0347411 -0.0315665 -0.028968 -0.0178167 -0.0178778 -0.0116005 -0.0198974 -0.0122954 -0.013086 
-0.0745187 -0.0388406 -0.0219447 -0.0210825 -0.0159775 -0.0182411 -0.0267931 -0.0274221 -0.0171793 
-0.0159149 -0.0190207 -0.0122129 -0.0256034 -0.0111789 -0.0143776 -0.0135302 0.354627 0.211976 
0.276366 0.3968 0.254019 0.247413 0.198522 0.409029 0.332933 0.312168 0.212008 
0.300888 0.249256 0.916131 0.396559 0.221175 0.0941032 0.0377629 0.0450331 0.107812 
0.0353843 0.0302164 0.0794759 0.0379429 0.0324184 0.0336105 0.0377556 0.0371601 0.0300017 
0.0331376 0.0372514 0.0453535 0.0297853 0.0333927 0.0382301 0.0451567 0.0301371 0.0345142 
0.0380865 0.0456651 0.0314327 0.0317845 0.0972483 0.0449033 0.0377669 0.096892 0.0995817 
0.0485133 0.729394 0.284804 0.637758 0.218858 0.225941 0.345031 0.226885 0.328867 
0.672763 0.259596 0.576718 0.276185 0.322253 0.33741 0.233154 0.272376 0.198868 
0.216609 0.276996 1.29684 0.343952 0.294784 0.262962 0.85253 0.189136 0.179406 
0.318736 0.663374 0.291127 0.195513 0.617606 0.230984 0.337634 0.228398 0.308492 
0.353781 0.282465 0.390583 0.36387 0.264621 0.635722 0.210998 0.419954 0.193115 
0.254857 0.238241 0.271884 0.243143 0.941322 0.700961 0.222539 0.324533 0.206593 
0.571422 0.196403 0.260973 0.89873 0.564314 0.278128 0.318295 0.369838 0.236693 
0.275515 0.205694 0.182064 0.213747 0.200713 0.190258 0.689936 0.707685 1.00068 
0.195044 0.215637 0.335453 0.222409 0.232233 0.472367 0.817231 0.546729 0.19845 
0.203007 0.36985 0.0381119 0.0302632 0.381133 0.0422781 0.0333826 0.0471801 0.0341255 
0.0526137 0.06737 0.0484757 0.0526081 0.0556765 0.0973319 0.142458 0.0983558 0.0806414 
0.606086 0.0993134 0.0574717 0.453891 0.23951 0.0441917 0.0445821 0.0377497 0.0304216 
0.18687 0.0417531 0.0331313 0.0472112 0.0331051 0.0512637 0.0701359 0.0480209 0.0520508 
0.0521797 0.10228 0.103643 0.0785441 0.143739 0.290737 0.136444 0.0636174 0.137799 
0.362145 0.0396226 0.0421668 0.057311 0.0445319 0.0298793 0.039285 0.0772761 0.0363491 
0.0572889 0.0353718 0.0319162 0.0362209 0.0347925 0.0339071 0.0294417 0.0299297 0.0294561 
0.0285202 0.0298159 0.0309324 0.0326348 0.028251 0.0292936 0.0415285 0.0387406 0.0379738 
0.030692 0.564966 0.0384214 0.0333023 0.0472882 0.0331086 0.0444591 0.0788987 0.0470733 
0.054066 0.254874 0.462133 0.123611 0.098507 0.0854791 0.0548209 0.104937 0.068544 
0.16791 0.52654 0.0421568 0.0516507 0.0439613 0.0502995 0.029872 0.0391503 0.0736981 
0.0361631 0.0572727 0.0350337 0.0318984 0.0359637 0.0347439 0.0337791 0.0293886 0.0299148 
0.0295601 0.028529 0.0297152 0.0310225 0.0326539 0.0284398 0.0293183 0.0415212 0.0387121 
0.0343474 0.0252129 0.145718 0.0427209 0.0330084 0.0483767 0.0338252 0.0634575 0.0686031 
0.0525183 0.0529987 0.0568087 0.548771 0.102275 0.223707 0.240764 0.35307 0.0762649 
0.0627269 0.405514 0.374226 0.0402352 0.0427494 0.0954476 0.0426425 0.0300995 0.0394957 
0.0580968 0.0364454 0.0587391 0.0352725 0.0323921 0.0362059 0.0352107 0.0341354 0.029695 
0.0303853 0.0300917 0.0286274 0.0300286 0.0315773 0.0332421 0.0282105 0.0297991 0.0419674 
0.0392068 0.0426399 0.0469875 0.0422898 0.0444176 0.0393408 0.0366998 0.0422795 0.0465097 
0.0390626 0.036383 0.04313 0.0450432 0.0391858 0.0372811 0.0450587 0.0378896 0.0447362 
0.0365644 0.0424553 0.0375742 0.0524035 0.0377789 0.0473414 0.0361727 0.366376 0.0363073 
0.0534988 0.0362151 0.0455114 0.462825 0.972643 1.03641 0.189419 0.670201 0.356046 
0.318256 0.964769 0.78742 0.464345 0.668653 0.378152 0.181197 0.768691 1.07725 
0.367908 0.694986 0.0651715 0.510793 0.711355 0.520338 0.507895 0.458224 0.689036 
0.0517818 0.0438814 0.0378798 0.0439904 0.0377823 0.0444378 0.0384286 0.0576254 0.0573325 
0.0336418 0.0819104 0.0336362 0.0570174 0.0342116 0.0744677 0.065561 0.0988756 0.0329505 
0.0316564 0.0637456 0.115522 0.0327133 0.0315265 0.0650536 0.0723511 0.0329757 0.0318641 
0.0401128 0.042061 0.0397795 0.0417042 0.0418187 0.0399928 0.0399132 0.0423782 0.0414608 
0.0397209 0.0406261 0.0430404 0.0416294 0.0400331 0.0396708 0.0519091 0.0378163 0.0508371 
0.0439669 0.0350805 0.0441979 0.0349895 0.0385217 0.0527166 0.0442058 0.0353946 0.0432161 
0.0395921 0.408291 0.630764 0.557184 0.29909 0.371938 0.407033 0.27352 0.167577 
0.355883 0.432136 0.315653 0.563196 0.254264 0.215743 0.929589 0.521037 0.236121 
0.75911 0.591734 0.491845 1.34597 0.230752 0.25688 0.258167 0.194764 0.226401 
0.195927 0.211826 1.08667 0.33375 0.220862 0.415507 0.233445 0.490252 0.200258 
0.329237 0.540544 0.213407 0.184393 0.510251 0.179766 0.556638 0.472424 0.293512 
0.3787 0.466842 0.236746 0.328862 0.233475 0.634548 0.691304 0.57574 0.233418 
0.276104 0.52391 0.545344 0.280821 0.958582 0.207947 0.517686 0.3494 0.226739 
0.504826 0.390865 0.297209 0.0869042 0.199965 0.51224 0.52903 0.227061 0.190441 
0.31954 0.883061 0.435445 0.330022 0.195152 0.238883 0.194839 1.43155 0.28912 
0.269995 0.197495 0.203564 0.211132 0.223013 0.19573 0.302225 0.195198 0.193873 
1.27459 0.233116 0.357296 0.350752 0.210399 0.328412 1.27487 0.313069 1.29685 
0.25811 0.235454 0.610094 0.201772 0.349481 0.205917 0.239257 0.228138 0.194339 
0.243624 0.206928 0.304167 0.199182 0.247554 0.177977 0.222984 0.178418 0.211391 
0.179555 0.312142 0.196794 1.11356 0.214489 0.389862 0.217569 0.978712 0.190464 
0.329659 0.230125 0.394442 0.269547 0.191666 0.660155 0.235024 0.226871 0.649283 
0.820811 0.193468 0.200503 0.201056 0.899695 0.206203 0.218384 0.597325 0.195037 
0.579795 0.195501 0.21023 0.19247 1.03087 0.263347 0.222134 0.273694 0.305165 
0.368839 0.29068 0.7024 0.310913 0.229516 0.220384 0.480798 0.194126 0.205672 
0.195378 0.239933 0.257219 0.583549 0.297983 0.157511 0.0707285 0.177727 0.140238 
0.350588 1.00026 0.26966 0.304161 0.491347 0.184606 0.14382 0.0913187 0.24087 
0.132376 0.250712 0.196471 0.216957 0.502998 0.155095 0.425248 0.132463 0.396491 
0.104604 0.0324221 0.059044 0.0592856 0.0351514 0.449703 1.13594 0.504312 1.05223 
0.452279 1.1426 0.524701 1.10019 1.99868 1.02922 0.90453 1.8808 0.521909 
1.08628 1.99552 1.01724 1.49273 1.97212 0.515643 1.17533 1.71343 1.04955 
0.951419 1.97061 1.11929 1.03486 0.544688 1.6714 2.20232 2.33369 1.47331 
1.00857 0.797013 0.41979 1.22168 0.818206 0.401532 0.462848 1.71318 0.363925 
0.326929 0.290485 0.672142 0.328716 0.40926 1.60354 0.775603 1.72408 1.00911 
1.11124 0.32586 0.437134 0.709645 1.63716 0.374385 0.574538 0.393916 0.275833 
0.652146 0.740771 0.41712 1.08657 0.563546 0.357802 0.353606 0.247636 0.259691 
0.249546 1.0861 0.307249 0.930272 0.463561 0.295002 0.269645 0.226806 0.508877 
0.583553 0.558674 0.37166 0.212949 0.286307 0.198225 0.199795 0.266553 0.545384 