# vtk DataFile Version 4.0
vtk output
ASCII
DATASET POLYDATA
POINTS 1877 double
9.375 -5.975 0 9.375 -3.475 0 7.42876 -5.975 0 
7.42876 -5.975 0 9.375 -3.475 0 7.19363 -3.475 0 
5.48251 -5.975 0 7.19363 -3.475 0 5.01226 -3.475 0 
3.53627 -5.975 0 5.01226 -3.475 0 2.57402 -4.30833 0 
3.53627 -5.975 0 5.48251 -5.975 0 5.01226 -3.475 0 
9.375 -0.975 0 7.19363 -0.975 0 9.375 -3.475 0 
9.375 -3.475 0 7.19363 -0.975 0 7.19363 -3.475 0 
7.19363 -3.475 0 7.19363 -0.975 0 5.01226 -0.975 0 
5.01226 -3.475 0 5.01226 -0.975 0 2.83089 -0.975 0 
2.83089 -3.475 0 2.83089 -0.975 0 1.61177 -2.64167 0 
2.57402 -4.30833 0 2.83089 -3.475 0 1.61177 -2.64167 0 
2.57402 -4.30833 0 5.01226 -3.475 0 2.83089 -3.475 0 
2.83089 -3.475 0 5.01226 -3.475 0 2.83089 -0.975 0 
7.19363 -3.475 0 5.01226 -0.975 0 5.01226 -3.475 0 
2.83089 -0.975 0 0.649519 -0.975 0 1.61177 -2.64167 0 
5.48251 -5.975 0 7.42876 -5.975 0 7.19363 -3.475 0 
3.52028 -3.98492 0 4.01226 -3.475 0 4.066 -3.79841 0 
2.22133 -1.80833 0 1.83089 -0.975 0 1.14952 -1.84103 0 
2.33089 -1.24887 0 1.69264 -2.06122 0 1.75742 -1.51756 0 
1.2402 -0.975 0 0.899519 -1.40801 0 1.33634 -1.40116 0 
4.53913 -3.6367 0 4.51226 -3.475 0 0.899519 -0.975 0 
2.83089 -2.475 0 4.26226 -3.59963 0 4.77569 -3.55585 0 
4.76226 -3.475 0 0.774519 -1.19151 0 1.06986 -1.19151 0 
1.02452 -1.62452 0 1.38064 -2.24135 0 2.11177 -3.50769 0 
2.41811 -3.19284 0 2.2405 -1.78212 0 3.69734 -1.96802 0 
-1.43856 -2.64167 0 -0.525 -1.725 0 -0.476314 -0.975 0 
-1.43856 -2.64167 0 -1.12102 -3.475 0 -0.525 -1.725 0 
-1.43856 -2.64167 0 -2.40081 -4.30833 0 -1.12102 -3.475 0 
-1.12102 -3.475 0 -2.40081 -4.30833 0 -0.525 -3.85 0 
-0.525 -1.725 0 -1.12102 -3.475 0 -0.525 -3.85 0 
-3.36307 -5.975 0 -1.94403 -5.975 0 -2.40081 -4.30833 0 
-2.40081 -4.30833 0 -1.94403 -5.975 0 -0.525 -3.85 0 
-0.525 -3.85 0 -1.94403 -5.975 0 -0.525 -5.975 0 
-0.525 -1.725 0 0.525 -1.725 0 -0.476314 -0.975 0 
-0.476314 -0.975 0 0.525 -1.725 0 0.476314 -0.975 0 
0.476314 -0.975 0 0.525 -1.725 0 1.43856 -2.64167 0 
1.43856 -2.64167 0 0.525 -1.725 0 1.12102 -3.475 0 
2.40081 -4.30833 0 1.12102 -3.475 0 0.525 -3.85 0 
1.94403 -5.975 0 0.525 -3.85 0 0.525 -5.975 0 
1.94403 -5.975 0 2.40081 -4.30833 0 0.525 -3.85 0 
1.94403 -5.975 0 3.36307 -5.975 0 2.40081 -4.30833 0 
0.525 -1.725 0 0.525 -3.85 0 1.12102 -3.475 0 
2.40081 -4.30833 0 1.43856 -2.64167 0 1.12102 -3.475 0 
-1.42939 -4.07098 0 -0.525 -2.85 0 1.49642 -4.08736 0 
0.525 -2.725 0 0.847398 -2.6716 0 -1.56281 -3.76267 0 
-0.525 -3.35 0 0.525 -3.35 0 0.98421 -3.0733 0 
-0.976314 -1.84103 0 -1.08561 -2.28751 0 -1.18856 -2.20865 0 
0.124811 -1.42525 0 -0.076125 -1.27475 0 0.328316 -1.36119 0 
0.938564 -1.77564 0 1.08561 -2.28751 0 1.18856 -2.20865 0 
1.56281 -3.76267 0 1.98181 -4.0355 0 1.9151 -4.18966 0 
-0.297869 -1.36316 0 -0.798624 -2.5284 0 -0.877954 -2.07915 0 
-0.959823 -3.0017 0 0.847398 -2.6716 0 1.29906 -3.00777 0 
0.877954 -2.07915 0 -0.847398 -2.6716 0 -0.525 -2.225 0 
-0.686199 -2.1983 0 -0.98421 -3.0733 0 0.500657 -1.35 0 
0.686199 -2.1983 0 0.224438 -1.49987 0 -1.26209 -2.46459 0 
-1.31356 -2.42516 0 -1.08244 -2.02484 0 -0.805305 -2.00626 0 
0.805305 -2.00626 0 1.06356 -1.99215 0 1.31356 -2.42516 0 
1.26209 -2.46459 0 0.512828 -1.5375 0 0.324906 -1.57513 0 
0.488485 -1.1625 0 2.19131 -4.17192 0 2.15796 -4.24899 0 
1.77231 -3.89909 0 -0.525 -2.5375 0 -0.525 -1.975 0 
-0.6056 -1.96165 0 -0.525 -2.1 0 -0.5653 -1.84333 0 
-0.525 -1.85 0 -0.645899 -2.07998 0 -0.597459 -2.1625 0 
0.0741563 -1.38731 0 -0.525 -2.38125 0 0.023686 -0.975 0 
-0.766799 -2.43495 0 -0.634512 -2.45937 0 -0.646912 -2.32618 0 
-0.725383 -2.58111 0 -0.686403 -2.76117 0 0.25 -1.08384 0 
-0.525 -2.69375 0 -0.915804 -2.87245 0 -0.525 -3.1 0 
1.15826 -2.36041 0 0.701477 -1.90208 0 0.6056 -1.96165 0 
-0.751913 -3.04035 0 -0.823011 -3.6625 0 -1.9151 -4.18966 0 
-1.98181 -4.0355 0 0.686199 -2.1983 0 0.525 -2.225 0 
0.587108 -2.1 0 0.525 -1.975 0 0.6056 -1.96165 0 
0.525 -2.475 0 0.525 -2.35 0 0.766799 -2.43495 0 
0.638864 -2.4125 0 0.667698 -2.6 0 0.726499 -2.31663 0 
0.618162 -2.2875 0 0.619122 -2.5115 0 0.525 -2.6 0 
0.525 -3.0375 0 0.807098 -2.55328 0 -0.276219 -1.12487 0 
-0.226314 -0.975 0 -0.828659 -3.33455 0 0.743819 -3.19375 0 
0.525 -3.19375 0 0.736602 -3.71687 0 0.525 -3.6 0 
0.915804 -2.87245 0 0.693553 -2.77347 0 0.928812 -3.59593 0 
0.733941 -2.98178 0 0.913967 -3.35912 0 0.716658 -3.475 0 
-0.525 -3.6 0 0.726314 -1.40801 0 0.508703 -1.47395 0 
0.492509 -1.22447 0 0.601314 -1.19151 0 0.745009 -1.6423 0 
-1.15826 -2.36041 0 -1.10387 -2.69492 0 -0.175751 -1.20013 0 
-0.726314 -1.40801 0 -0.851314 -1.62452 0 -0.665153 -1.86563 0 
-0.508703 -1.47395 0 -0.601314 -1.19151 0 -0.492509 -1.22447 0 
-0.500657 -1.35 0 -0.387092 -1.16908 0 0.025 -1.725 0 
0.324906 -1.57513 0 0.275 -1.725 0 0.4 -1.725 0 
0.424953 -1.65006 0 0.224858 -1.50019 0 0.0875 -1.57932 0 
-0.155139 -1.37317 0 0.15 -1.725 0 0.2125 -1.62094 0 
-0.0254702 -1.31269 0 -0.25 -1.725 0 -0.0429163 -1.46193 0 
-0.238508 -1.5394 0 -0.3875 -1.62333 0 -0.1125 -1.64036 0 
-0.0240237 -1.57208 0 -0.128575 -1.5313 0 -0.686199 -2.1983 0 
-0.701477 -1.90208 0 -0.6056 -1.96165 0 -0.890343 -2.31297 0 
-0.728162 -2.05196 0 0.882306 -2.39561 0 -1.01071 -3.96868 0 
1.01071 -3.96868 0 0.736602 -3.71687 0 -1.93856 -3.50769 0 
1.90081 -3.44231 0 -1.08034 -4.68162 0 -0.525 -4.85 0 
-0.802671 -4.26581 0 -0.525 -4.35 0 -0.525 -5.4125 0 
-1.51219 -5.32831 0 -1.44403 -5.975 0 -0.984516 -5.69375 0 
-0.981385 -5.18285 0 1.38869 -5.14338 0 1.44403 -5.975 0 
1.66636 -5.55919 0 0.525 -4.9125 0 0.525 -5.44375 0 
0.956846 -4.49669 0 0.984516 -5.70937 0 0.916699 -5.17812 0 
0.525 -4.35 0 -1.38869 -5.14338 0 -2.20835 -5.01057 0 
-1.49642 -4.08736 0 1.08034 -4.68162 0 1.49642 -4.08736 0 
2.20835 -5.01057 0 -0.556054 -1.9125 0 -0.525 -1.7875 0 
-0.54515 -1.78416 0 -1.25106 -2.31691 0 -1.17385 -2.37605 0 
-1.35033 -2.55313 0 -1.37606 -2.53341 0 1.25106 -2.31691 0 
1.17385 -2.37605 0 1.37606 -2.53341 0 1.35033 -2.55313 0 
-0.525 -2.0375 0 2.0517 -4.15725 0 2.29606 -4.24013 0 
2.27939 -4.27866 0 0.5653 -1.84333 0 0.525 -1.85 0 
0.556054 -1.9125 0 0.525 -1.7875 0 0.54515 -1.78416 0 
0.563086 -1.95496 0 0.525 -2.0375 0 0.525 -2.1 0 
0.602635 -2.19375 0 0.576048 -2.011 0 0.525 -2.1625 0 
0.645899 -2.07998 0 0.556054 -2.13125 0 0.4625 -1.725 0 
0.474976 -1.68753 0 0.3375 -1.725 0 -0.581932 -2.06875 0 
-0.57639 -2.01136 0 0.578521 -2.2459 0 0.525 -2.2875 0 
0.571581 -2.31875 0 0.642275 -2.23535 0 0.666049 -2.13914 0 
0.30625 -1.65216 0 0.374929 -1.61259 0 0.36875 -1.67297 0 
0.270628 -1.60276 0 0.248122 -1.67035 0 0.2125 -1.725 0 
0.142446 -1.62282 0 0.159268 -1.54512 0 0.0698929 -1.65801 0 
0.178801 -1.6715 0 0.0875 -1.725 0 0.122962 -1.67594 0 
0.0976793 -1.62291 0 0.0296602 -1.60769 0 -0.0358673 -1.64819 0 
-0.0700534 -1.60389 0 -0.1125 -1.725 0 0.0154389 -1.67006 0 
-0.04375 -1.725 0 -0.078125 -1.68268 0 -0.146875 -1.68268 0 
-0.18125 -1.725 0 -0.184254 -1.6008 0 -0.146875 -1.725 0 
-0.158187 -1.63837 0 -0.226501 -1.65794 0 -0.186329 -1.66915 0 
-0.215625 -1.69997 0 -0.245166 -1.59995 0 -0.324724 -1.56056 0 
-0.3875 -1.725 0 -0.309591 -1.65268 0 -0.31875 -1.725 0 
-0.362169 -1.67416 0 -0.608446 -2.24849 0 -0.525 -2.30312 0 
-0.559033 -2.26406 0 -0.584783 -2.32085 0 -0.610157 -2.38993 0 
-0.525 -2.1625 0 -0.56123 -2.13125 0 -0.56123 -2.19375 0 
0.596349 -2.58158 0 0.525 -2.5375 0 0.579184 -2.6625 0 
0.610636 -2.7445 0 0.525 -2.88125 0 0.67715 -2.68725 0 
0.621523 -2.84651 0 0.587397 -2.45371 0 0.577736 -2.3889 0 
0.627834 -2.35011 0 -0.512828 -1.5375 0 -0.45625 -1.67416 0 
0.525 -2.80312 0 0.607632 -2.95937 0 0.724093 -2.87562 0 
0.728162 -2.05196 0 0.5653 -1.84333 0 0.613238 -1.81354 0 
0.587983 -1.34354 0 -0.587983 -1.34354 0 -0.613238 -1.81354 0 
-0.5653 -1.84333 0 0.525 -2.95937 0 0.650119 -3.08707 0 
0.626581 -1.88848 0 -0.626581 -1.88848 0 -0.525 -2.45937 0 
-0.579756 -2.43959 0 -0.586184 -2.50745 0 -0.525 -2.61562 0 
-0.634893 -2.65469 0 -0.597658 -2.58533 0 -0.602012 -2.73629 0 
-0.619863 -2.83132 0 -0.525 -2.77187 0 -0.754555 -2.89245 0 
-0.525 -2.975 0 0.566426 -3.11562 0 0.634409 -3.20172 0 
0.574305 -3.27187 0 0.647 -3.37237 0 0.525 -3.475 0 
0.695326 -3.28302 0 0.815323 -3.2904 0 0.620829 -3.46509 0 
0.656166 -3.59168 0 1.05262 -3.27415 0 -0.629867 -3.0375 0 
-0.686798 -3.21444 0 -0.620113 -2.93464 0 -0.619067 -3.13861 0 
-0.525 -3.225 0 0.201236 -1.37425 0 0.25096 -1.2333 0 
-1.70258 -4.00618 0 -2.19131 -4.17192 0 -2.15796 -4.24899 0 
0.0508533 -1.48889 0 -0.645899 -2.07998 0 0.0754631 -1.15969 0 
0.424953 -1.65006 0 0.418491 -1.55444 0 0.516903 -1.60026 0 
0.419719 -1.4362 0 -0.820543 -1.85092 0 -0.694705 -1.69602 0 
-0.595076 -1.79531 0 -0.590081 -1.59472 0 -0.62945 -1.48039 0 
-0.730634 -1.56746 0 -0.289841 -1.24192 0 -0.405267 -1.44908 0 
-0.843092 -3.17367 0 -1.05262 -3.27415 0 -0.678162 -3.36848 0 
-0.610315 -3.28741 0 -0.740609 -3.29472 0 -0.786395 -3.49785 0 
-0.587617 -3.475 0 -0.597655 -3.39179 0 -0.688963 -3.4694 0 
-0.674005 -3.75625 0 -0.644336 -3.5816 0 -0.525 -3.725 0 
-0.746804 -3.59305 0 -0.612892 -3.67678 0 0.0422454 -1.27331 0 
0.601304 -1.59399 0 0.813979 -1.85746 0 0.665153 -1.86563 0 
0.823273 -1.73585 0 0.832439 -1.59183 0 0.654656 -1.73594 0 
1.01811 -2.21978 0 0.525 -3.725 0 0.630801 -3.78343 0 
0.644396 -3.68768 0 -0.742411 -2.36335 0 -0.819818 -2.19947 0 
-0.997863 -2.48598 0 0.767856 -3.90934 0 0.926981 -3.78473 0 
0.646428 -3.87967 0 0.630801 -3.78343 0 1.22899 -3.75829 0 
0.843689 -2.23788 0 -0.101314 -1.09987 0 0.25 -0.975 0 
-0.945458 -2.14689 0 0.945458 -2.14689 0 0.766799 -2.43495 0 
1.04301 -2.55614 0 0.98421 -3.0733 0 -0.941506 -4.47372 0 
-0.663835 -4.05791 0 -0.525 -4.1 0 -0.525 -3.975 0 
-0.594418 -3.95395 0 -0.657648 -4.2875 0 -0.525 -4.225 0 
-0.733253 -4.16186 0 -0.525 -4.6 0 -0.619749 -4.1625 0 
-0.755707 -4.44748 0 -0.813455 -4.70954 0 -1.29626 -5.00497 0 
-0.970401 -4.9203 0 -0.525 -5.13125 0 -0.714129 -4.87198 0 
-0.761903 -5.31499 0 -0.775624 -5.08943 0 -0.605637 -5.27187 0 
-0.879223 -2.76505 0 1.21004 -3.24139 0 1.0966 -2.82416 0 
[...]
CELL_DATA 2267
FIELD FieldData 4
electrode_index 1 2267 int
0 0 0 0 0 0 0 0 0 
0 0 0 0 0 0 0 0 0 
0 0 0 0 0 0 0 0 0 
0 0 0 0 0 0 0 0 0 
0 0 0 0 0 0 0 0 0 
0 0 0 0 1 1 1 1 1 
1 1 1 1 1 1 1 1 1 
1 1 1 1 1 1 1 1 1 
1 1 1 1 1 1 1 1 1 
1 1 1 1 1 1 1 1 1 
1 1 1 1 1 1 1 1 1 
1 1 1 1 1 1 1 1 1 
1 1 1 1 1 1 1 1 1 
1 1 1 1 1 1 1 1 1 
1 1 1 1 1 1 1 1 1 
1 1 1 1 1 1 1 1 1 
1 1 1 1 1 1 1 1 1 
1 1 1 1 1 1 1 1 1 
1 1 1 1 1 1 1 1 1 
1 1 1 1 1 1 1 1 1 
1 1 1 1 1 1 1 1 1 
1 1 1 1 1 1 1 1 1 
1 1 1 1 1 1 1 1 1 
1 1 1 1 1 1 1 1 1 
1 1 1 1 1 1 1 1 1 
1 1 1 1 1 1 1 1 1 
1 1 1 1 1 1 1 1 1 
1 1 1 1 1 1 1 1 1 
1 1 1 1 1 1 1 1 1 
1 1 1 1 1 1 1 1 1 
1 1 1 1 1 1 1 1 1 
1 1 1 1 1 1 1 1 1 
1 1 1 1 1 1 1 1 1 
1 1 1 1 1 1 1 1 1 
1 1 1 1 1 1 1 1 1 
1 1 1 1 1 1 1 1 1 
1 1 1 1 1 1 1 1 1 
1 1 1 1 1 1 1 1 1 
1 1 1 1 1 1 1 1 1 
1 1 1 1 1 1 1 1 1 
1 1 1 1 1 1 1 1 1 
1 1 1 1 1 1 1 1 1 
1 1 1 1 1 1 1 1 1 
1 1 1 1 1 1 1 1 1 
1 1 1 1 1 1 1 1 1 
1 1 1 1 1 1 1 1 1 
1 1 1 1 1 1 1 1 1 
1 1 1 1 1 1 1 1 1 
1 1 1 1 1 1 1 1 1 
1 1 1 1 1 1 1 1 1 
1 1 1 1 1 1 1 1 1 
1 1 1 1 1 1 1 1 1 
1 1 1 1 1 1 1 1 1 
1 1 1 1 1 1 1 1 1 
1 1 1 1 1 1 1 1 1 
1 1 1 1 1 1 1 1 1 
1 1 1 1 1 1 1 1 1 
1 1 1 1 1 1 1 1 1 
1 1 1 1 1 1 1 1 1 
1 1 1 1 1 1 1 1 1 
1 1 1 1 1 1 1 1 1 
1 1 1 1 1 1 1 1 1 
1 1 1 1 1 1 1 1 1 
1 1 1 1 1 1 1 1 1 
1 1 1 1 1 1 1 1 1 
1 1 1 1 1 1 1 1 1 
1 1 1 1 1 1 1 1 1 
1 1 1 1 1 1 1 1 1 
1 1 1 1 1 1 1 1 1 
1 1 1 1 1 1 1 1 1 
1 1 1 1 1 1 1 1 1 
1 1 1 1 1 1 1 1 1 
1 1 1 1 1 1 1 1 1 
1 1 1 1 1 1 1 1 1 
1 1 1 1 1 1 1 1 1 
1 1 1 1 1 1 1 1 1 
1 1 1 1 1 1 1 1 1 
1 1 2 2 2 2 2 2 2 
2 2 2 2 2 2 2 2 2 
2 2 2 2 2 2 2 2 2 
2 2 2 2 2 2 2 2 2 
2 2 2 2 2 2 2 2 2 
2 2 2 2 2 2 2 2 2 
2 2 2 2 2 2 2 2 2 
2 2 2 2 2 2 2 2 2 
2 2 2 2 2 2 2 2 2 
2 2 2 2 2 2 2 2 2 
2 2 2 2 2 2 2 2 2 
2 2 2 2 2 2 2 2 2 
2 2 2 2 2 2 2 2 2 
2 2 2 2 2 2 2 2 2 
2 2 2 2 2 2 2 2 2 
2 2 2 2 2 2 2 2 2 
2 2 2 2 2 2 2 2 2 
2 2 2 2 2 2 2 2 2 
2 2 2 2 2 2 2 2 2 
2 2 2 2 2 2 2 2 2 
2 2 2 2 2 2 2 2 2 
2 2 2 2 2 2 2 2 2 
2 2 2 2 2 2 2 2 2 
2 2 2 2 2 2 2 2 2 
2 2 2 2 2 2 2 2 2 
2 2 2 2 2 2 2 2 2 
3 3 3 3 3 3 3 3 3 
3 3 3 3 3 3 3 3 3 
3 3 3 3 3 3 3 3 3 
3 3 3 3 3 3 3 3 3 
3 3 3 3 3 3 3 3 3 
3 3 3 3 3 3 3 3 3 
3 3 3 3 3 3 3 3 3 
3 3 3 3 3 3 3 3 3 
3 3 3 3 3 3 3 3 3 
3 3 3 3 3 3 3 3 3 
3 3 3 3 3 3 3 3 3 
3 3 3 3 3 3 3 3 3 
3 3 3 3 3 3 3 3 3 
3 3 3 3 3 3 3 3 3 
3 3 3 3 3 3 3 3 3 
3 3 3 3 3 3 3 3 3 
3 3 3 3 3 3 3 3 3 
3 3 3 3 3 3 3 3 3 
3 3 3 3 3 3 3 3 3 
3 3 3 3 3 3 3 3 3 
3 3 3 3 3 3 3 3 3 
3 3 3 3 3 3 3 3 3 
3 3 3 3 3 3 3 3 3 
3 3 3 3 3 3 3 3 3 
3 3 3 3 3 3 3 3 3 
3 3 3 3 3 3 3 3 3 
3 3 3 3 3 3 3 3 3 
3 3 3 3 3 3 3 3 3 
3 3 3 3 3 3 3 3 3 
3 3 3 3 3 3 3 3 3 
3 3 3 3 3 3 3 3 3 
3 3 3 3 3 3 3 3 3 
3 3 3 3 3 3 3 3 3 
3 3 3 3 3 3 3 3 3 
3 3 3 3 3 3 3 3 3 
3 3 3 3 3 3 3 3 3 
3 3 3 3 3 3 3 3 3 
3 3 3 3 3 3 3 3 3 
3 3 3 3 3 3 3 3 3 
3 3 3 3 3 3 3 3 3 
3 3 3 3 3 3 3 3 3 
3 3 3 3 3 3 3 3 3 
3 3 3 3 3 3 3 3 3 
3 3 3 3 3 3 3 3 3 
3 3 3 3 3 3 3 3 3 
3 3 3 3 3 3 3 3 3 
3 3 3 3 3 3 3 3 3 
3 3 3 3 3 3 3 3 3 
3 3 3 3 3 3 3 3 3 
3 3 3 3 3 3 3 3 3 
3 3 3 3 3 3 3 3 3 
3 3 3 3 3 3 3 3 3 
3 3 3 3 3 3 3 3 3 
3 3 3 3 3 3 3 3 3 
3 3 3 3 3 3 3 3 3 
3 3 3 3 3 3 3 3 3 
3 3 3 3 3 3 3 3 3 
3 3 3 3 3 3 3 3 3 
3 3 3 3 3 3 3 3 3 
3 3 3 3 3 3 3 3 3 
3 3 3 3 3 3 3 3 3 
3 3 3 3 3 3 3 3 3 
3 3 3 3 3 3 3 3 3 
3 3 3 3 3 3 3 3 3 
3 3 3 3 3 3 3 3 3 
3 3 3 3 3 3 3 3 3 
3 3 3 3 3 3 3 3 3 
3 3 3 3 3 3 3 3 3 
3 3 3 3 3 3 3 3 3 
3 3 3 3 3 3 3 3 3 
3 3 3 3 3 3 3 3 3 
3 3 3 3 3 3 3 3 3 
3 3 3 3 3 3 3 3 3 
3 3 3 3 3 3 3 3 3 
3 3 3 3 3 3 3 3 3 
3 3 3 3 3 3 3 3 3 
3 3 3 3 3 3 3 3 3 
3 3 3 3 3 3 3 3 3 
3 3 3 3 3 3 3 3 3 
3 3 3 3 3 3 3 3 3 
3 3 3 3 3 3 3 3 3 
3 3 3 3 3 3 3 3 3 
3 3 3 3 3 3 3 3 3 
3 3 3 3 3 3 3 3 3 
3 3 3 3 4 4 4 4 4 
4 4 4 4 4 4 4 4 4 
4 4 4 4 4 4 4 4 4 
4 4 4 4 4 4 4 4 4 
4 4 4 4 4 4 4 4 4 
4 4 4 4 4 4 4 4 4 
4 4 4 4 4 4 4 4 4 
4 4 4 4 4 4 4 4 4 
4 4 4 4 4 4 4 4 4 
4 4 4 4 4 4 4 4 4 
4 4 4 4 4 4 4 4 4 
4 4 4 4 4 4 4 4 4 
4 4 4 4 4 4 4 4 4 
4 4 4 4 4 4 4 4 4 
4 4 4 4 4 4 4 4 4 
4 4 4 4 4 4 4 4 4 
4 4 4 4 4 4 4 4 4 
4 4 4 4 4 4 4 4 4 
4 4 4 4 4 4 4 4 4 
4 4 4 4 4 4 4 4 4 
4 4 4 4 4 4 4 4 4 
4 4 4 4 4 4 4 4 4 
4 4 4 4 4 4 4 4 4 
4 4 4 4 4 4 4 4 4 
4 4 4 4 4 4 4 4 4 
4 4 4 4 4 4 4 4 4 
4 4 4 4 4 4 4 4 4 
4 4 4 4 4 4 4 4 4 
4 4 4 4 4 4 4 4 4 
4 4 4 4 4 4 4 4 4 
4 4 4 4 4 4 4 4 4 
4 4 4 4 4 4 4 4 4 
4 4 4 4 4 4 4 4 4 
4 4 4 4 4 4 4 4 4 
4 4 4 4 4 4 4 4 4 
4 4 4 4 4 4 4 4 4 
4 4 4 4 4 4 4 4 4 
4 4 4 4 4 4 4 4 4 
4 4 4 4 4 4 4 4 4 
4 4 4 4 4 4 4 4 4 
4 4 4 4 4 4 4 4 4 
4 4 4 4 4 4 4 4 4 
4 4 4 4 4 4 4 4 4 
4 4 4 4 4 4 4 4 4 
4 4 4 4 4 4 4 4 4 
4 4 4 4 4 4 4 4 4 
4 4 4 4 4 4 4 4 4 
4 4 4 4 4 4 4 4 4 
4 4 4 4 4 4 4 4 4 
4 4 4 4 4 4 4 4 4 
4 4 4 4 4 4 4 4 4 
4 4 4 4 4 4 4 4 4 
4 4 4 4 4 4 4 4 4 
4 4 4 4 4 4 4 4 4 
4 4 4 4 4 4 4 4 4 
4 4 4 4 4 4 4 4 4 
4 4 4 4 4 4 4 4 4 
4 4 4 4 4 4 4 4 4 
4 4 4 4 4 4 4 4 5 
5 5 5 5 5 5 5 5 5 
5 5 5 5 5 5 5 5 5 
5 5 5 5 5 5 5 5 5 
5 5 5 5 5 5 5 5 5 
5 5 5 5 5 5 5 5 5 
5 5 5 5 5 5 5 5 
charge 1 2267 double
-0.00105541 -0.000560914 -0.000901097 -0.00282006 -0.00223031 -0.000504837 -0.000434561 -0.000492497 -0.00109929 
-0.00588987 -0.00663139 -0.00276768 -0.00241219 -0.00071914 -0.0190437 -0.00123674 -0.00437156 -0.000578007 
-0.00110125 -0.00608922 -0.00445357 -0.00284049 -0.00614907 -0.00357106 -0.00950176 -0.00447459 -0.0109624 
-0.0112828 -0.00945687 -0.00734023 -0.022112 -0.0235161 0.000931917 0.000210608 -0.0140282 -0.00431046 
-0.00107206 0.000756715 0.00135773 0.00322547 -0.0221398 -0.0132402 -0.0120348 -0.0209212 -0.0205424 
-0.00921284 -0.00307203 -0.00673781 -0.00181534 -0.0483094 -0.0294333 -0.0213898 -0.063046 -0.177925 
-0.0102895 -0.00914304 -0.268643 -0.033898 -0.0721939 -0.0501394 -0.0531618 -0.0428757 -0.0725733 
-0.0218703 -0.00730442 -0.125379 -0.0226073 -0.0143066 -0.19388 -0.020967 -0.176328 -0.0733501 
-0.0405381 -0.0732692 -0.183362 -0.257102 -0.184892 -0.047495 -0.037066 -0.0252872 -0.071426 
-0.025908 -0.0209803 -0.0522077 -0.0444309 -0.0326024 -0.0108021 -0.00734107 -0.151969 -0.335955 
-0.0503422 -0.064024 -0.0731886 -0.0438185 -0.0361986 -0.0531125 -0.0378337 -0.391171 -0.140387 
-0.242349 -0.120014 -0.039882 -0.144175 -0.0553985 -0.0331382 -0.0440561 -0.0473175 -0.122888 
-0.0372662 -0.0608757 -0.0340305 -0.0452844 -0.114632 -0.078065 -0.00797247 -0.029229 -0.00593141 
-0.0167713 -0.0148801 -1.01502 -0.172581 -0.196828 -0.399411 -0.397432 -0.483007 -0.425417 
-0.204979 -1.2984 -0.488221 -0.0290797 -0.484754 -0.185669 -0.0363989 -0.104712 -0.355879 
-0.14943 -0.116515 -1.05752 -0.103102 -0.0750035 -0.036846 -0.0224688 -0.379815 -0.378802 
-0.084411 -0.861221 -0.072431 -0.102936 -0.150579 -0.131618 -0.0509205 -0.873494 -0.0110799 
-0.00900029 -0.530618 -0.249838 -0.847894 -0.605055 -0.846183 -0.997792 -0.18878 -0.984669 
-0.62519 -0.445849 -0.161631 -0.024659 -0.113574 -0.356681 -0.135393 -0.321994 -0.551559 
-0.171724 -0.182161 -1.02024 -0.19154 -0.0235414 -0.150816 -0.084434 -0.892617 -0.0594187 
-0.268838 -0.739373 -0.124551 -0.102514 -0.213884 -0.176492 -0.0534284 -0.0686404 -0.0945771 
-0.232028 -0.186834 -0.143274 -0.0432423 -0.460112 -0.0269488 -0.0311703 -0.0293949 -0.0563895 
-0.0524126 -0.108185 -0.0276082 -0.0678267 -0.0375975 -0.0275777 -0.0456819 -0.0454099 -0.0506966 
-0.0398993 -0.0296918 -0.0277704 -0.0207969 -0.0221193 -0.0818347 -0.0622908 -0.167429 -0.24255 
-0.34636 -0.0844704 -0.13297 -0.154758 -0.0324014 -0.130832 -0.164878 -0.515902 -0.25363 
-0.112046 -0.228608 -0.0553281 -0.148152 -0.0809558 -0.2226 -0.386285 -0.466554 -0.442456 
-0.246466 -0.103392 -0.18949 -0.0703616 -0.122979 -0.0791828 -0.129312 -0.14864 -0.0474558 
-0.0422798 -0.152552 -0.0826015 -0.0817597 -0.0608383 -0.0154509 -0.024871 -0.0657461 -0.107273 
-0.012298 -0.120745 -0.0902597 -0.0787576 -0.0630421 -0.138633 -0.0577612 -0.0385801 -0.123319 
-0.0399945 -0.198186 -0.0430434 -0.213466 -0.0311837 -0.194249 -0.059068 -0.0234597 -0.221772 
-0.12246 -0.0257817 -0.239678 -0.0970399 -0.160429 -0.0245964 -0.013931 -0.0123069 -0.0537784 
-0.0521393 -0.0129013 -0.274042 -0.460081 -0.707213 -0.654653 -0.032816 -0.0454399 -0.0363621 
-0.062514 -0.0449546 -0.0415122 -0.0347832 -0.0600851 -0.294332 -0.95892 -0.00989645 -0.00740701 
-0.00731521 -0.0105209 -0.654495 -0.48389 -0.659962 -0.278163 -0.425462 -0.706054 -0.517814 
-0.312472 -0.920398 -0.57379 -0.299075 -0.25488 -0.433511 -0.245654 -0.560096 -0.201598 
-0.233564 -1.48296 -0.496961 -0.454614 -0.762163 -0.202346 -0.483634 -1.00426 -0.241126 
-1.21287 -0.269104 -0.63125 -1.11965 -0.328007 -0.182919 -0.201736 -0.706909 -0.181935 
-0.280103 -0.147778 -0.187814 -0.115586 -0.205537 -0.495646 -0.373859 -0.908285 -0.944383 
-0.115392 -0.185469 -0.148818 -0.215272 -1.09392 -0.993501 -0.231524 -0.463603 -0.242398 
-0.276584 -0.180223 -0.254987 -0.129122 -0.188721 -1.15972 -0.437475 -0.140011 -0.16402 
-0.29542 -0.245691 -0.28956 -0.514292 -1.05591 -1.18232 -0.277357 -0.644097 -0.325095 
-0.507699 -0.15626 -1.49601 -1.1689 -0.243267 -0.137264 -0.185839 -0.220518 -0.592202 
-0.642578 -0.331328 -0.121778 -0.150181 -0.0783752 -0.0562105 -0.191317 -0.199003 -0.387855 
-0.785202 -0.726864 -0.195896 -0.222806 -0.63065 -0.813969 -1.37281 -0.266312 -0.262127 
-1.04182 -0.175417 -0.291664 -0.611713 -0.761504 -0.268447 -0.345289 -1.29771 -1.10007 
-0.243301 -0.506037 -0.40099 -0.273704 -0.422751 -0.198698 -0.131757 -0.840362 -0.23028 
-0.902474 -0.206561 -0.282497 -0.291524 -0.269033 -1.07887 -0.190173 -0.297729 -0.112806 
-0.0936839 -0.133081 -0.393045 -0.407061 -0.170197 -0.111178 -0.0882279 -0.0988298 -0.0831091 
-0.176068 -0.227277 -0.034819 -0.040551 -0.0361312 -0.03101 -0.179328 -0.229371 -0.464522 
-0.888156 -0.158811 -0.130017 -0.209861 -0.207488 -0.13546 -0.314243 -0.556455 -1.13953 
-0.2218 -0.520062 -0.367777 -0.757048 -0.222414 -0.991029 -0.233232 -0.230091 -0.992048 
-0.173461 -0.396835 -0.118634 -0.431149 -0.0994586 -0.185738 -0.772684 -1.29066 -0.521548 
-0.482098 -0.510807 -1.17524 -0.379003 -0.0961294 -0.166321 -0.243199 -0.798529 -0.148243 
-0.0501119 -0.125779 -0.346407 -0.81896 -0.798675 -0.122229 -0.0383348 -0.087686 -0.379594 
-0.188347 -0.829636 -0.822168 -0.19452 -0.182305 -0.46394 -0.0582296 -0.223324 -0.0288506 
-0.0240379 -0.0164887 -0.0168423 -0.00694088 -0.00748599 -0.0588869 -0.0944486 -0.137942 -0.0217142 
-0.0220268 -0.0454188 -0.100422 -0.0736283 -0.0523079 -0.14767 -0.0619002 -0.0712756 -0.0527637 
-0.0886951 -0.0491754 -0.070016 -0.100157 -0.0469434 -0.0378862 -0.0543985 -0.0509415 -0.0394564 
-0.0373948 -0.0260837 -0.040548 -0.0453119 -0.0828551 -0.0588268 -0.125111 -0.072958 -0.985339 
-0.185276 -0.255889 -0.125525 -0.129063 -0.0721424 -0.166245 -0.562157 -0.257276 -0.525266 
-0.219569 -0.152328 -0.133761 -0.403739 -0.223382 -0.187454 -0.119518 -0.674709 -0.131061 
-0.303627 -0.903696 -0.044895 -0.0316535 -0.0435769 -0.073046 -0.0470416 -0.0735495 -0.104268 
-0.0604516 -0.0543889 -0.045987 -0.123203 -0.0806262 -0.0424077 -0.183103 -0.327956 -0.179978 
-0.335201 -0.0864844 -0.104067 -0.0659378 -0.0379342 -0.0493126 -0.16311 -0.048966 -0.0651901 
-0.231333 -0.440994 -0.0313932 -0.0290075 -0.0575335 -0.071952 -0.0209562 -0.0265431 -0.0252994 
-0.0443076 -0.0470502 -0.0785985 -0.466399 -0.0301768 -0.0361096 -0.0318194 -0.231464 -0.0612774 
-0.36121 -0.418082 -1.11926 -1.02242 -0.0422421 -0.196515 -0.853023 -0.718746 -0.140709 
-0.194587 -0.372514 -0.188362 -0.181218 -0.0279615 -0.0686446 -0.0860687 -0.273365 -0.502 
-0.530395 -0.0799357 -0.0732674 -0.24324 -0.0837791 -0.872125 -0.317407 -0.0548767 -0.0277089 
-0.041855 -0.05193 -0.0952287 -0.217435 -0.0349824 -0.0642148 -0.0851146 -0.59684 -0.494624 
-0.0585607 -0.0880341 -0.0369829 -0.504041 -0.0822267 -0.107879 -0.201036 -0.0570671 -0.0571399 
-0.0940508 -0.0920466 -0.511728 -0.139621 -0.668037 -0.35273 -0.72173 -0.319422 -0.455748 
-1.15198 -0.0536171 -0.119087 -0.0385479 -0.0447403 -0.0413131 -0.142227 -0.681371 -0.0620609 
-0.0772152 -0.0404079 -0.0566678 -0.0278913 -0.0210604 -0.116043 -0.422751 -0.0755138 -0.257803 
-0.433002 -0.0798771 -0.0558071 -0.290287 -0.0382822 -0.0379101 -0.07801 -0.642661 -0.2539 
-0.0120538 -0.015726 -0.0216638 -0.0225245 -0.0539588 -0.0137063 -0.117276 -0.0285296 -0.0318572 
-0.0223933 -0.00918505 -0.0284401 -0.0123631 -0.0139934 -0.0310082 -0.118285 -0.0219972 -0.052243 
-0.00733145 -0.0100287 -0.000900071 -0.000371312 -0.000359664 -0.000696935 -0.00126003 -0.00195958 -0.00118999 
-0.000548833 -0.000347071 -0.000506731 -0.000525288 -0.00128125 -0.00337768 -0.00139124 -0.000792469 -0.000416322 
-0.000578344 -0.000346404 -0.000619736 -0.000368572 -0.000452899 -0.000414803 -0.00042151 -0.000525695 -0.000528645 
-0.000841853 -0.000748227 -0.000775588 -0.00101683 -0.00142623 -0.000679167 -0.000650141 -0.000613203 -0.00158271 
-0.00202674 -0.00224968 -0.0017577 -0.0015283 -0.000681981 -0.00162673 -0.000991805 -0.000853211 -0.000683157 
-0.000656902 -0.00127239 -0.00102057 -0.00122053 -0.000399572 -0.000560289 -0.000451876 -0.00040755 -0.000531186 
-0.000354996 -0.000467598 -0.000404257 -0.000357672 -0.000677279 -0.000432532 -0.000905218 -0.000975247 -0.00203565 
-0.000861656 -0.00384858 -0.00202946 -0.0020477 -0.00199253 -0.00189333 -0.00275707 -0.00216893 -0.00249792 
-0.00146791 -0.00104396 -0.00224054 -0.000856074 -0.000836573 -0.00126635 -0.00209984 -0.000620966 -0.000667518 
-0.000563502 -0.0006256 -0.000483338 -0.00148128 -0.00157059 -0.00170582 -0.00154924 -0.0019241 -0.00294491 
-0.00187643 -0.00222871 -0.00113127 -0.00106648 -0.00111111 -0.00174485 -0.00186699 -0.00128578 -0.00244578 
-0.00232407 -0.000952385 -0.000555559 -0.000784364 -0.00103502 -0.000968951 -0.00192805 -0.0010978 -0.00090147 
-0.000867777 -0.000398992 -0.000550046 -0.00055586 -0.00304643 -0.00287945 -0.00257237 -0.0014219 -0.00124038 
-0.0029228 -0.000454389 -0.000639416 -0.00113558 -0.000855809 -0.000526652 -0.00274674 -0.00150589 -0.000406533 
-0.000630237 -0.000503854 -0.000473629 -0.000453167 -0.000338786 -0.00175086 -0.00214614 -0.00141859 -0.00180361 
-0.000413901 -0.000335979 -0.000294364 -0.000735659 -0.000321026 -0.00051722 -0.000477588 -0.000737357 -0.000480917 
-0.000513495 -0.000582891 -0.000759982 -0.00109207 -0.00392842 -0.00353361 -0.000452675 -0.000833496 -0.000578123 
-0.000348061 -0.000377925 -0.000447339 -0.00032563 -0.000332313 -0.000313302 -0.000315849 -0.000332503 -0.000352365 
-0.000465168 -0.00052937 -0.00039268 -0.000400114 -0.000664571 -0.0011416 -0.000801093 -0.00126207 -0.00246735 
-0.00389729 -0.00172595 -0.00107501 -0.00121758 -0.00196886 -0.00172857 -0.00314383 -0.00171109 -0.00117239 
-0.000490743 -0.000785857 -0.000918622 -0.00115118 -0.00535857 -0.00337886 -0.00166502 -0.00284927 -0.00288591 
-0.00527936 -0.00288657 -0.00466951 -0.000788907 -0.000524408 -0.0003172 -0.000390167 -0.000372682 -0.000393023 
-0.0010764 -0.00186112 -0.00184987 -0.00254915 -0.00333252 -0.00246151 -0.00159419 -0.00212159 -0.00149681 
-0.00220534 -0.000384941 -0.000636986 -0.00227917 -0.000778128 -0.000366902 -0.000545926 -0.000460418 -0.000781954 
-0.000388939 -0.000473924 -0.000819693 -0.000589479 -0.000945482 -0.00133215 -0.000906195 -0.00143851 -0.00695889 
-0.00460923 -0.000516957 -0.000805939 -0.000762202 -0.00135026 -0.00220359 -0.00261061 -0.00358839 -0.00208958 
1.30677 0.303989 0.233025 0.66759 0.344485 0.441183 0.471988 0.281364 0.37981 
0.292421 0.653617 0.259361 0.970636 1.27719 0.322376 0.551054 0.732622 0.749343 
1.27502 1.12614 0.374629 0.463989 2.09515 0.415579 0.282223 0.627761 1.47449 
0.862129 0.285659 0.287624 0.447318 0.355625 0.290494 0.523628 0.390074 0.320382 
2.28273 0.478524 0.249455 0.338335 0.431721 0.26859 0.405036 0.266239 0.778171 
0.247149 0.371464 1.0751 0.576003 0.237487 1.06879 1.65056 1.15736 0.320638 
0.23791 0.272295 0.266879 0.238732 0.23747 0.727079 0.273434 0.240065 0.235719 
0.264301 0.241207 0.350881 0.595362 0.817304 0.301002 0.381588 0.308606 1.53311 
1.31372 0.26039 0.357819 0.249354 0.303576 0.286777 0.422933 0.261229 0.273235 
0.240285 0.233856 0.238014 0.234472 0.244313 0.242197 0.237723 0.330387 0.240804 
0.272793 0.243903 0.568058 0.237401 0.384386 0.299933 0.238769 0.245068 0.261778 
0.252269 0.240553 0.352264 0.505388 0.763222 0.681243 0.383482 0.245566 1.35529 
0.341399 0.337593 0.309299 0.485959 0.266217 0.36342 0.344676 0.460127 0.866732 
0.387106 0.275815 0.299565 0.825714 0.438533 0.323227 0.273139 0.248428 0.614388 
0.240544 0.318369 0.886889 0.264345 0.487885 0.248155 0.242479 0.521066 0.424511 
0.255043 0.306529 0.274864 0.382331 0.269635 0.256933 0.256105 0.245496 0.265087 
0.306369 0.265953 1.01316 0.27285 0.260699 0.41246 0.297686 0.273737 0.613437 
0.250622 0.264839 0.265907 0.330728 0.781202 0.254869 0.356796 0.316565 0.295741 
0.504722 0.285133 0.332363 0.327362 0.3928 0.299652 0.292029 0.330592 0.281079 
0.276535 0.500305 0.271916 0.451012 0.32218 0.863491 0.291971 0.275264 0.294795 
0.545771 0.328841 0.349243 0.344092 0.402168 0.886683 0.455219 0.369597 0.312835 
0.402387 0.648056 0.423143 0.665196 0.55681 0.692234 0.547939 0.67173 0.672968 
0.440348 0.356031 0.279385 0.678692 1.06684 0.318187 0.322675 0.496431 0.665223 
0.686171 0.388396 0.424067 0.500981 0.394153 0.548351 0.628605 0.414964 0.635914 
1.56627 1.03077 0.465502 0.547842 0.337637 0.577553 0.586325 2.14434 0.447812 
0.849241 0.804489 0.340463 0.248908 0.679735 0.320426 0.249085 0.333506 0.763306 
0.356483 0.981968 0.329398 0.509657 0.277721 0.260399 0.241608 0.260809 0.276701 
0.377747 0.290337 0.25081 0.24815 0.475977 0.403139 0.746291 1.24554 0.470536 
0.27419 0.868875 0.299011 0.873342 0.289089 0.427731 0.232983 1.21083 0.882694 
0.256365 0.292162 0.813985 0.746204 0.256388 0.328075 0.245316 0.233855 0.236532 
0.416145 0.478465 0.241773 0.233185 0.242228 0.368995 0.239504 0.235858 0.980888 
0.246261 0.245676 0.353428 0.256408 0.334406 0.249092 0.488154 0.251438 1.14812 
0.463674 0.790505 0.599831 2.35648 2.09453 1.42764 3.18025 4.82787 5.64278 
0.625394 1.2543 2.29616 1.85794 0.541687 0.639619 1.13144 0.555186 1.89821 
0.720422 1.94922 1.0885 1.32918 0.622572 2.29735 1.28641 0.658181 0.760578 
1.67771 0.602996 0.603439 1.73936 0.475429 0.622768 0.366724 0.477047 0.57866 
0.678935 0.578465 2.41251 1.95361 0.597319 0.513522 0.519223 0.395979 0.3658 
0.534103 1.91945 0.610802 1.00233 2.48165 1.20095 0.480602 0.563783 0.937439 
0.635343 0.70977 0.679084 0.513713 1.05604 0.391894 1.91518 0.885836 1.93117 
1.02552 0.669146 0.803274 0.706902 0.535279 3.69428 1.16233 1.01921 1.9292 
1.21378 1.17932 0.766727 1.0159 5.00774 2.03782 1.18036 3.29629 1.72546 
4.48721 2.00287 3.0781 1.32165 1.11846 0.610481 0.879463 0.690151 0.50102 
0.623806 2.32095 1.892 0.64224 0.690226 0.961645 2.86433 0.90093 1.32768 
0.414707 0.484367 0.524437 1.21998 0.614129 0.508025 0.462356 0.555995 1.12335 
0.802912 2.00439 1.10089 2.50293 1.00657 0.638061 0.490507 2.01736 0.675036 
0.723318 1.24287 0.612834 0.946296 1.73889 2.05815 1.4732 3.7023 2.07614 
1.41973 0.515796 0.462575 0.390611 0.496376 0.445619 0.427056 0.348643 0.354116 
0.4354 0.376278 0.285992 0.301108 0.463851 0.40805 0.437944 0.560355 0.352069 
0.35856 1.23428 0.939833 1.08656 0.438046 0.514968 0.463864 0.713203 0.525555 
1.49438 0.462482 0.717534 1.7899 0.860649 0.701268 0.862315 1.16607 0.906783 
1.03312 0.806477 0.893236 2.5278 0.831894 0.364102 0.472902 0.569332 0.472405 
0.638421 0.622779 0.568735 0.452191 0.422221 0.364554 0.742162 0.30999 1.04674 
0.507242 2.4552 0.99922 0.494069 0.429985 2.17863 1.04637 0.361423 0.846412 
0.369651 0.344163 0.295933 1.57205 2.03416 0.465736 0.519214 2.1526 1.03568 
0.320693 0.306705 0.818669 0.759076 1.35625 0.463949 0.447064 1.61555 0.452035 
0.325992 1.4642 0.334609 0.517574 0.572406 0.774395 0.453255 1.34368 0.35889 
0.368676 0.369159 0.970541 0.63699 0.511362 1.72472 1.19498 0.707155 2.7765 
0.667146 0.966748 0.608047 1.91258 1.54315 0.53233 1.12403 0.412316 0.355363 
0.515908 0.957125 0.611594 0.454418 0.548902 0.38687 0.436603 0.563442 0.966072 
0.495278 2.28813 1.1148 1.09999 0.667563 1.08451 1.53479 1.00081 0.430142 
0.757764 0.300657 0.323102 0.295384 0.283484 0.36227 0.341831 0.587147 0.318084 
1.59426 0.745612 0.635602 1.76898 1.65597 0.395708 0.543028 0.399673 0.387556 