# vtk DataFile Version 4.0
vtk output
ASCII
DATASET POLYDATA
POINTS 1798 double
9.375 -5.975 0 9.375 -3.475 0 7.42876 -5.975 0 
7.42876 -5.975 0 9.375 -3.475 0 7.19363 -3.475 0 
5.48251 -5.975 0 7.19363 -3.475 0 5.01226 -3.475 0 
3.53627 -5.975 0 5.01226 -3.475 0 2.57402 -4.30833 0 
3.53627 -5.975 0 5.48251 -5.975 0 5.01226 -3.475 0 
9.375 -0.975 0 7.19363 -0.975 0 9.375 -3.475 0 
9.375 -3.475 0 7.19363 -0.975 0 7.19363 -3.475 0 
7.19363 -3.475 0 7.19363 -0.975 0 5.01226 -0.975 0 
5.01226 -3.475 0 5.01226 -0.975 0 2.83089 -0.975 0 
2.83089 -3.475 0 2.83089 -0.975 0 1.61177 -2.64167 0 
2.57402 -4.30833 0 2.83089 -3.475 0 1.61177 -2.64167 0 
2.57402 -4.30833 0 5.01226 -3.475 0 2.83089 -3.475 0 
2.83089 -3.475 0 5.01226 -3.475 0 2.83089 -0.975 0 
7.19363 -3.475 0 5.01226 -0.975 0 5.01226 -3.475 0 
2.83089 -0.975 0 0.649519 -0.975 0 1.61177 -2.64167 0 
5.48251 -5.975 0 7.42876 -5.975 0 7.19363 -3.475 0 
3.52028 -3.98492 0 4.01226 -3.475 0 4.066 -3.79841 0 
2.22133 -1.80833 0 1.83089 -0.975 0 1.14952 -1.84103 0 
2.33089 -1.24887 0 1.69264 -2.06122 0 1.75742 -1.51756 0 
1.2402 -0.975 0 0.899519 -1.40801 0 1.33634 -1.40116 0 
4.53913 -3.6367 0 4.51226 -3.475 0 2.07303 -1.52948 0 
1.906 -1.26142 0 1.53555 -0.975 0 2.33089 -0.975 0 
1.38788 -1.16561 0 1.38788 -0.975 0 1.11339 -1.22575 0 
1.58221 -1.33155 0 1.23635 -1.13049 0 1.2525 -1.27833 0 
1.25865 -1.62205 0 1.21888 -1.3913 0 1.02452 -1.62452 0 
1.44065 -1.30057 0 1.56737 -1.15216 0 1.7295 -1.22906 0 
1.68322 -0.975 0 1.01966 -1.33238 0 0.774519 -1.19151 0 
0.944862 -0.975 0 0.894395 -1.26663 0 0.903995 -1.11811 0 
1.08536 -1.06258 0 0.79719 -0.975 0 0.712019 -1.08325 0 
0.995002 -1.19857 0 1.02768 -1.47836 0 1.10776 -1.40075 0 
1.15559 -1.53023 0 1.1424 -1.7008 0 1.38064 -2.24135 0 
1.51162 -1.58692 0 1.30783 -1.78324 0 1.26508 -2.04119 0 
1.48384 -1.94492 0 1.52089 -2.124 0 1.91655 -2.225 0 
1.76416 -2.43333 0 1.70836 -1.7874 0 1.48679 -1.76507 0 
2.08089 -0.975 0 2.52611 -1.39167 0 2.37372 -1.6 0 
1.61347 -1.47763 0 1.49621 -2.44151 0 1.65902 -1.63905 0 
1.95589 -1.09528 0 2.11784 -1.23447 0 2.23313 -1.11193 0 
2.58089 -0.975 0 2.6785 -1.18333 0 1.7284 -2.24727 0 
1.56437 -2.28709 0 2.49112 -1.14409 0 1.96618 -1.76517 0 
2.06894 -2.01667 0 1.87038 -1.95105 0 2.25345 -1.43649 0 
2.11177 -3.50769 0 2.32402 -3.87532 0 2.7213 -3.83052 0 
2.64766 -4.06943 0 2.44902 -4.09183 0 2.22133 -3.05833 0 
2.52611 -3.26667 0 2.27352 -3.30909 0 2.40654 -3.58259 0 
1.86177 -3.07468 0 1.81816 -2.78275 0 1.73677 -2.85817 0 
3.04715 -4.14663 0 2.83089 -2.475 0 2.41811 -3.19284 0 
2.83089 -2.975 0 2.22133 -1.80833 0 2.01494 -2.91725 0 
1.90696 -2.23811 0 1.9501 -2.57941 0 2.40705 -2.66686 0 
2.83089 -1.725 0 2.45435 -2.20727 0 2.83089 -2.1 0 
2.54272 -1.88814 0 2.5357 -1.37856 0 8.14641 -5.05315 0 
9.375 -4.475 0 4.04467 -5.11388 0 3.03627 -5.10897 0 
4.066 -3.79841 0 3.52028 -3.98492 0 4.52847 -4.29444 0 
3.1677 -4.49933 0 3.9179 -4.4865 0 3.53909 -5.39602 0 
4.50386 -4.33612 0 5.19712 -4.45776 0 4.50939 -5.44446 0 
5.33982 -5.21638 0 6.064 -5.12543 0 6.48251 -5.975 0 
7.28727 -4.47061 0 8.65735 -4.39685 0 7.33512 -4.97939 0 
6.61215 -4.32457 0 5.29765 -4.99224 0 8.50854 -2.48198 0 
9.375 -2.475 0 8.28431 -0.975 0 8.9357 -1.725 0 
7.85109 -1.72849 0 8.06008 -1.96802 0 8.375 -3.475 0 
6.32717 -2.48198 0 7.19363 -2.475 0 6.10294 -0.975 0 
6.75433 -1.725 0 5.66972 -1.72849 0 4.1458 -2.48198 0 
5.01226 -2.475 0 5.01226 -1.725 0 4.68353 -3.09825 0 
4.58038 -2.64553 0 4.54917 -2.06931 0 3.92157 -0.975 0 
3.48835 -1.72849 0 4.50223 -1.52259 0 4.0052 -1.94109 0 
3.89946 -1.46358 0 4.46692 -0.975 0 3.33089 -0.975 0 
3.69734 -1.96802 0 2.83089 -1.975 0 3.92157 -3.475 0 
3.15962 -1.35175 0 3.27019 -2.725 0 3.37623 -3.475 0 
4.3548 -2.72151 0 3.81188 -2.53166 0 4.51226 -3.475 0 
5.87871 -1.96802 0 5.01226 -1.975 0 6.19363 -3.475 0 
0.808145 -1.09992 0 0.743269 -1.13738 0 0.791332 -1.14571 0 
0.85562 -1.1953 0 0.815667 -1.18063 0 0.837019 -1.29976 0 
0.853236 -1.14005 0 0.805769 -1.24563 0 0.850082 -1.25613 0 
0.760082 -1.09159 0 0.794093 -1.03821 0 0.788233 -1.072 0 
0.831616 -1.06212 0 0.750709 -1.04809 0 0.829675 -1.02377 0 
0.723355 -0.975 0 0.680769 -1.02913 0 0.795331 -1.00659 0 
0.760273 -0.975 0 0.741814 -1.00976 0 0.707013 -1.00596 0 
0.686437 -0.975 0 0.714975 -1.04143 0 0.665144 -1.00206 0 
0.863935 -1.09512 0 0.919277 -1.04508 0 0.89975 -1.07911 0 
0.961777 -1.09209 0 0.871026 -0.975 0 0.873028 -1.04116 0 
0.899196 -1.00726 0 0.860998 -1.00841 0 0.868269 -1.35389 0 
0.954376 -1.15282 0 0.904075 -1.17191 0 1.0254 -1.13066 0 
1.0187 -0.975 0 0.946373 -1.01526 0 0.956054 -1.05455 0 
1.01525 -1.07564 0 1.09253 -0.975 0 0.944377 -1.34603 0 
0.881332 -1.31026 0 0.998229 -1.02332 0 0.981779 -0.975 0 
1.05302 -1.01804 0 0.908081 -1.36699 0 0.949645 -1.39707 0 
0.962019 -1.51627 0 0.930769 -1.46214 0 0.983905 -1.44228 0 
1.00715 -1.38908 0 1.06 -1.1869 0 1.13657 -1.13778 0 
1.12945 -1.02211 0 0.970254 -1.27431 0 0.993269 -1.57039 0 
1.07645 -1.55846 0 1.01047 -1.52437 0 1.03725 -1.58109 0 
1.08509 -1.61869 0 1.08702 -1.73277 0 1.05577 -1.67865 0 
1.14596 -1.77091 0 1.10523 -1.66569 0 1.1771 -1.62683 0 
1.22499 -1.80205 0 1.16637 -0.975 0 1.04473 -1.261 0 
0.938736 -1.2221 0 1.09701 -1.49104 0 1.2073 -1.94111 0 
1.24839 -1.71328 0 1.115 -1.31339 0 1.28636 -1.88051 0 
1.21288 -1.87116 0 1.05393 -1.42532 0 1.14144 -1.07942 0 
1.18488 -1.11243 0 1.19787 -1.03771 0 1.18985 -1.1806 0 
1.28965 -1.05402 0 1.24738 -1.02549 0 1.23387 -1.07715 0 
1.31404 -0.975 0 1.35096 -1.02967 0 1.34509 -1.10425 0 
1.46171 -1.06466 0 1.41152 -1.03076 0 1.46171 -0.975 0 
1.49863 -1.01983 0 1.53318 -1.0859 0 1.28904 -1.11041 0 
1.2927 -1.19914 0 1.41019 -1.10446 0 1.47799 -1.16385 0 
1.63961 -1.07294 0 1.35901 -1.67953 0 1.28625 -1.96224 0 
1.392 -2.03291 0 1.38223 -1.92151 0 1.34804 -1.27703 0 
2.01974 -2.92054 0 1.71496 -2.71221 0 1.67427 -2.74992 0 
1.60938 -0.975 0 1.58127 -1.03731 0 1.66071 -1.16473 0 
1.78283 -1.10308 0 1.37328 -1.53826 0 1.87116 -2.92156 0 
1.74248 -2.78271 0 1.71927 -1.04973 0 1.32286 -2.14127 0 
1.42147 -2.12795 0 1.82679 -1.19596 0 1.86768 -1.06186 0 
1.95589 -0.975 0 1.89339 -0.975 0 1.92824 -1.03514 0 
2.00746 -1.03514 0 2.06276 -1.13474 0 2.00954 -1.22921 0 
2.15161 -1.15074 0 2.22521 -1.22911 0 2.20589 -0.975 0 
2.00206 -1.38764 0 2.14339 -1.05195 0 2.26839 -1.03374 0 
2.36226 -1.12311 0 4.26226 -3.59963 0 4.76226 -3.475 0 
4.77569 -3.55585 0 1.43843 -2.34143 0 1.52127 -2.36032 0 
1.68796 -2.5375 0 1.47518 -2.25349 0 1.55399 -2.54159 0 
1.64637 -2.38466 0 1.61898 -2.47419 0 1.40213 -1.82165 0 
1.26582 -1.49657 0 1.85269 -1.40166 0 1.71405 -1.37972 0 
1.91425 -1.54936 0 2.45589 -0.975 0 2.39339 -1.03914 0 
2.51839 -1.0502 0 2.75469 -1.07917 0 2.58481 -1.16369 0 
2.51429 -1.26708 0 2.70589 -0.975 0 2.64339 -1.0678 0 
2.76839 -1.00923 0 1.58946 -1.85671 0 2.52817 -3.90179 0 
2.51152 -4.20008 0 2.61084 -4.18888 0 2.13619 -1.36868 0 
1.98677 -3.29119 0 1.47596 -1.43897 0 1.82931 -1.68395 0 
2.04319 -3.10259 0 2.12673 -3.35471 0 2.20632 -1.63745 0 
2.27654 -3.47672 0 2.21789 -3.69151 0 2.16118 -2.71404 0 
2.23155 -2.41657 0 2.28385 -2.95655 0 1.81335 -2.77946 0 
1.98252 -2.74833 0 1.75937 -2.43989 0 1.78094 -2.61054 0 
1.92853 -2.40876 0 2.37851 -1.59345 0 2.83089 -1.475 0 
2.83089 -1.225 0 2.68329 -1.17678 0 2.70838 -1.35 0 
2.62035 -1.60541 0 2.17565 -2.13382 0 2.5595 -2.90273 0 
2.34637 -1.99183 0 2.69895 -3.225 0 2.56461 -2.45085 0 
4.19425 -0.975 0 4.05791 -1.22596 0 4.20086 -1.49292 0 
4.37636 -1.25577 0 4.78144 -1.50781 0 4.56624 -1.3293 0 
5.01226 -1.35 0 4.71537 -1.80927 0 5.01226 -2.1 0 
4.73959 -0.975 0 4.60325 -1.12785 0 4.87592 -1.1625 0 
3.62623 -0.975 0 3.84042 -1.25257 0 3.15962 -1.35175 0 
3.7739 -1.08248 0 3.57333 -1.20288 0 3.69133 -1.3113 0 
3.47856 -1.0608 0 3.32398 -1.54012 0 3.35512 -1.24577 0 
3.67339 -1.56419 0 3.49916 -1.40202 0 2.99525 -1.16337 0 
3.08089 -0.975 0 3.19034 -1.13841 0 3.6489 -3.05395 0 
3.42157 -3.475 0 2.7213 -3.83052 0 2.76939 -4.10695 0 
3.79047 -5.54444 0 3.49523 -4.88893 0 3.28627 -5.54199 0 
3.53768 -5.68551 0 3.28768 -5.2525 0 2.83089 -1.475 0 
3.42848 -1.65988 0 2.83089 -1.225 0 2.99525 -1.16337 0 
2.97149 -1.35 0 2.83089 -1.725 0 3.26581 -2.18105 0 
3.06329 -1.59483 0 3.41615 -1.94201 0 2.83089 -2.725 0 
3.58512 -2.28428 0 3.11968 -1.89043 0 3.05054 -3.1 0 
2.83089 -2.35 0 3.12164 -2.45421 0 3.12623 -3.75053 0 
2.80515 -4.70865 0 2.92071 -4.90881 0 3.20721 -4.87684 0 
3.04715 -4.14663 0 3.04366 -4.70314 0 2.87086 -4.40383 0 
4.50939 -5.975 0 4.99595 -5.70973 0 4.02006 -5.15556 0 
4.02283 -5.70973 0 4.50663 -4.89029 0 8.82966 -0.975 0 
8.55699 -1.39605 0 9.375 -1.725 0 9.10233 -1.31894 0 
6.64829 -0.975 0 6.37562 -1.39605 0 7.19363 -1.725 0 
5.93733 -1.38107 0 5.5576 -0.975 0 5.34099 -1.35175 0 
5.83027 -0.975 0 5.64365 -1.27512 0 6.75435 -1.3425 0 
6.92096 -0.975 0 7.19363 -1.35 0 6.19685 -1.93212 0 
5.45156 -2.725 0 6.95564 -5.26065 0 5.98251 -5.69344 0 
6.04733 -5.14978 0 9.04627 -3.09825 0 7.69363 -0.975 0 
7.98897 -1.30648 0 5.34099 -1.35175 0 5.44414 -1.80447 0 
5.60294 -3.475 0 6.53617 -2.72151 0 8.42876 -5.975 0 
8.90188 -5.32593 0 7.7359 -5.58046 0 8.375 -3.475 0 
6.19363 -3.475 0 5.73636 -4.22813 0 8.76071 -4.26408 0 
8.71754 -2.72151 0 7.19363 -2.225 0 7.83588 -2.80126 0 
7.77212 -4.17944 0 -1.43856 -2.64167 0 -0.525 -1.725 0 
-0.476314 -0.975 0 -1.43856 -2.64167 0 -1.12102 -3.475 0 
-0.525 -1.725 0 -1.43856 -2.64167 0 -2.40081 -4.30833 0 
-1.12102 -3.475 0 -1.12102 -3.475 0 -2.40081 -4.30833 0 
-0.525 -3.85 0 -0.525 -1.725 0 -1.12102 -3.475 0 
-0.525 -3.85 0 -3.36307 -5.975 0 -1.94403 -5.975 0 
-2.40081 -4.30833 0 -2.40081 -4.30833 0 -1.94403 -5.975 0 
-0.525 -3.85 0 -0.525 -3.85 0 -1.94403 -5.975 0 
-0.525 -5.975 0 -0.525 -1.725 0 0.525 -1.725 0 
-0.476314 -0.975 0 -0.476314 -0.975 0 0.525 -1.725 0 
0.476314 -0.975 0 0.476314 -0.975 0 0.525 -1.725 0 
1.43856 -2.64167 0 1.43856 -2.64167 0 0.525 -1.725 0 
1.12102 -3.475 0 2.40081 -4.30833 0 1.12102 -3.475 0 
0.525 -3.85 0 1.94403 -5.975 0 0.525 -3.85 0 
[...]
CELL_DATA 2129
FIELD FieldData 4
electrode_index 1 2129 int
0 0 0 0 0 0 0 0 0 
0 0 0 0 0 0 0 0 0 
0 0 0 0 0 0 0 0 0 
0 0 0 0 0 0 0 0 0 
0 0 0 0 0 0 0 0 0 
0 0 0 0 0 0 0 0 0 
0 0 0 0 0 0 0 0 0 
0 0 0 0 0 0 0 0 0 
0 0 0 0 0 0 0 0 0 
0 0 0 0 0 0 0 0 0 
0 0 0 0 0 0 0 0 0 
0 0 0 0 0 0 0 0 0 
0 0 0 0 0 0 0 0 0 
0 0 0 0 0 0 0 0 0 
0 0 0 0 0 0 0 0 0 
0 0 0 0 0 0 0 0 0 
0 0 0 0 0 0 0 0 0 
0 0 0 0 0 0 0 0 0 
0 0 0 0 0 0 0 0 0 
0 0 0 0 0 0 0 0 0 
0 0 0 0 0 0 0 0 0 
0 0 0 0 0 0 0 0 0 
0 0 0 0 0 0 0 0 0 
0 0 0 0 0 0 0 0 0 
0 0 0 0 0 0 0 0 0 
0 0 0 0 0 0 0 0 0 
0 0 0 0 0 0 0 0 0 
0 0 0 0 0 0 0 0 0 
0 0 0 0 0 0 0 0 0 
0 0 0 0 0 0 0 0 0 
0 0 0 0 0 0 0 0 0 
0 0 0 0 0 0 0 0 0 
0 0 0 0 0 0 0 0 0 
0 0 0 0 0 0 0 0 0 
0 0 0 0 0 0 0 0 0 
0 0 0 0 0 0 0 0 0 
0 0 0 0 0 0 0 0 0 
0 0 0 0 0 0 0 0 0 
0 0 0 0 0 0 0 0 0 
0 0 0 0 0 0 0 0 0 
0 0 0 0 0 0 0 0 0 
0 0 0 0 0 0 0 0 0 
0 0 0 0 0 0 0 0 0 
0 0 0 0 0 0 0 0 0 
0 0 0 0 0 0 0 0 0 
0 0 0 0 0 0 0 0 0 
0 0 0 0 0 0 0 0 0 
0 0 0 0 0 0 0 0 0 
0 0 0 0 0 0 0 0 0 
0 0 0 0 0 0 0 0 0 
0 0 0 0 0 0 0 0 0 
0 0 0 0 0 0 0 0 0 
0 0 0 0 0 0 0 0 0 
0 0 0 0 0 0 0 0 0 
0 0 0 0 0 0 0 0 0 
0 0 0 0 0 0 0 0 0 
0 0 0 0 0 0 0 0 0 
0 0 0 0 0 0 0 0 0 
0 0 0 0 0 0 0 0 0 
0 0 0 0 0 0 0 0 0 
0 0 0 0 0 0 0 0 0 
0 0 0 0 0 0 0 0 0 
0 0 0 0 0 0 0 0 0 
0 0 0 0 0 0 0 0 0 
0 0 0 0 0 0 0 0 0 
0 0 0 0 0 0 0 0 0 
0 0 0 0 0 0 0 0 0 
0 0 0 0 0 0 0 0 0 
0 0 0 0 0 0 0 0 0 
0 0 0 0 0 0 0 0 0 
0 0 0 0 0 0 0 0 0 
0 0 0 0 0 0 0 0 0 
0 0 0 0 0 0 0 0 0 
0 0 0 0 0 0 0 0 0 
0 0 0 0 0 0 0 0 0 
0 0 0 0 0 0 0 0 0 
0 0 0 0 0 0 0 0 0 
0 0 0 0 0 0 0 0 0 
0 0 0 0 0 0 0 0 1 
1 1 1 1 1 1 1 1 1 
1 1 1 1 1 1 1 1 1 
1 1 1 1 1 1 1 1 1 
1 1 1 1 1 1 1 1 1 
1 1 1 1 1 1 1 1 1 
1 1 1 1 1 1 1 1 1 
1 1 1 1 1 1 1 1 1 
1 1 1 1 1 1 1 1 1 
1 1 1 1 1 1 1 1 1 
1 1 1 1 1 1 1 1 1 
1 1 1 1 1 1 1 1 1 
1 1 1 1 1 1 1 1 1 
1 1 1 1 1 1 1 1 1 
1 1 1 1 1 1 1 1 1 
1 1 1 1 1 1 1 1 1 
1 1 1 1 1 1 1 1 1 
1 1 1 1 1 1 1 1 1 
1 1 1 1 1 1 1 1 1 
1 1 1 1 1 1 1 1 1 
1 1 1 1 1 1 1 1 1 
1 1 1 1 1 1 1 1 1 
1 1 1 1 1 1 1 1 1 
1 1 1 1 1 1 1 1 1 
1 1 1 1 1 1 1 1 1 
1 1 1 1 1 1 1 1 1 
1 1 1 1 1 1 1 1 1 
1 1 1 1 1 1 1 1 1 
1 1 1 1 1 1 1 1 1 
1 1 1 1 1 1 1 1 1 
1 1 1 1 1 1 1 1 1 
1 1 1 1 1 1 1 1 1 
1 1 1 1 1 1 1 1 1 
1 1 1 1 1 2 2 2 2 
2 2 2 2 2 2 2 2 2 
2 2 2 2 2 2 2 2 2 
2 2 2 2 2 2 2 2 2 
2 2 2 2 2 2 2 2 2 
2 2 2 2 2 2 2 2 2 
2 2 2 2 2 2 2 2 2 
2 2 2 2 2 2 2 2 2 
2 2 2 2 2 2 2 2 2 
2 2 2 2 2 2 2 2 2 
2 2 2 2 2 2 2 2 2 
2 2 2 2 2 2 2 2 2 
2 2 2 2 2 2 2 2 2 
2 2 2 2 2 2 2 2 2 
2 2 2 2 2 2 2 2 2 
2 2 2 2 2 2 2 2 2 
2 2 2 2 2 2 2 2 2 
2 2 2 2 2 2 2 2 2 
2 2 2 2 2 2 2 2 2 
2 2 2 2 2 2 2 2 2 
2 2 2 2 2 2 2 2 2 
2 2 2 2 2 2 2 2 2 
2 2 2 2 2 2 2 2 2 
2 2 2 2 2 2 2 2 2 
2 2 2 2 2 2 2 2 2 
2 2 2 2 2 2 2 2 2 
2 2 2 2 2 2 2 2 2 
2 2 2 2 2 2 2 2 2 
2 2 2 2 2 2 2 2 2 
2 2 2 2 2 2 3 3 3 
3 3 3 3 3 3 3 3 3 
3 3 3 3 3 3 3 3 3 
3 3 3 3 3 3 3 3 3 
3 3 3 3 3 3 3 3 3 
3 4 4 4 4 4 4 4 4 
4 4 4 4 4 4 4 4 4 
4 4 4 4 4 4 4 4 4 
4 4 4 4 4 4 4 4 4 
4 4 4 4 4 4 4 4 4 
4 4 4 4 4 4 4 4 4 
4 4 4 4 4 4 4 4 4 
4 4 4 4 4 4 4 4 4 
4 4 4 4 4 4 4 4 4 
4 4 4 4 4 4 4 4 4 
4 4 4 4 4 4 4 4 4 
4 4 4 4 4 4 4 4 4 
4 4 4 4 4 4 4 4 4 
4 4 4 4 4 4 4 4 4 
4 4 4 4 4 4 4 4 4 
4 4 4 4 4 4 4 4 4 
4 4 4 4 4 4 4 4 4 
4 4 4 4 4 4 4 4 4 
4 4 4 4 4 4 4 4 4 
4 4 4 4 4 4 4 4 4 
4 4 4 4 4 4 4 4 4 
4 4 4 4 4 4 4 4 4 
4 4 4 4 4 4 4 4 4 
4 4 4 4 4 4 4 4 4 
4 4 4 4 4 4 4 4 4 
4 4 4 4 4 4 4 4 4 
4 4 4 4 4 4 4 4 4 
4 4 4 4 4 4 4 4 4 
4 4 4 4 4 4 4 4 4 
4 4 4 4 4 4 4 4 4 
4 4 4 4 4 4 4 4 4 
4 4 4 4 4 4 4 4 4 
4 4 4 4 4 4 4 4 4 
4 4 4 4 4 4 4 4 4 
4 4 4 4 4 4 4 4 4 
4 4 4 4 4 4 4 4 4 
4 4 4 4 4 4 4 4 4 
4 4 4 4 4 4 4 4 4 
4 4 4 4 4 4 4 4 4 
4 4 4 4 4 4 4 4 4 
4 4 4 4 4 4 4 4 4 
4 4 4 4 4 4 4 4 4 
4 4 4 4 4 4 4 4 4 
4 4 4 4 4 4 4 4 4 
4 4 4 4 4 4 4 4 4 
4 4 4 4 4 4 4 4 4 
4 4 4 4 4 4 4 4 4 
4 4 4 4 4 4 4 4 4 
4 4 4 4 4 4 4 4 4 
4 4 4 4 4 4 4 4 4 
4 4 4 4 4 4 4 4 4 
4 4 4 4 4 4 4 4 4 
4 4 4 4 4 4 4 4 4 
4 4 4 4 4 4 4 4 4 
4 4 4 4 4 4 4 4 4 
4 4 4 4 4 4 4 4 4 
4 4 4 4 4 4 4 4 4 
4 4 4 4 4 4 4 4 4 
4 4 4 4 4 4 4 4 4 
4 4 4 4 4 4 4 4 4 
4 4 4 4 4 4 4 4 4 
4 4 4 4 4 4 4 4 4 
4 4 4 4 4 4 4 4 4 
4 4 4 4 4 4 4 4 4 
4 4 4 4 4 4 4 4 4 
4 4 4 4 4 4 4 4 4 
4 4 4 4 4 4 4 4 4 
4 4 4 4 4 4 4 4 4 
4 4 4 4 4 4 4 4 4 
4 4 4 4 4 4 4 4 4 
4 4 4 4 4 4 4 4 4 
4 4 4 4 4 4 4 4 4 
4 4 4 4 4 4 4 4 4 
4 4 4 4 4 4 4 4 4 
4 4 4 4 4 4 4 4 4 
4 4 4 4 4 4 4 4 4 
4 4 4 4 4 4 4 4 4 
4 4 4 4 4 4 4 4 4 
4 4 4 4 4 4 4 4 4 
4 4 4 4 4 4 4 4 4 
4 4 4 4 4 4 4 4 4 
4 4 4 4 4 4 4 4 4 
4 4 4 4 4 4 4 4 4 
4 4 4 4 4 4 4 4 4 
4 4 4 4 4 4 4 4 4 
4 4 4 4 4 4 4 4 4 
4 4 4 4 4 4 4 4 5 
5 5 5 5 5 5 5 5 5 
5 5 5 5 5 5 5 5 5 
5 5 5 5 5 5 5 5 5 
5 5 5 5 5 5 5 5 5 
5 5 5 5 5 
charge 1 2129 double
0.164375 0.0439196 0.0455496 0.3175 0.260949 0.369081 0.0454446 0.36643 0.059668 
0.0897472 0.142473 0.0735288 0.0552787 0.0471915 0.293183 0.115255 0.0670617 0.0478514 
0.0531652 0.107686 0.122509 0.370447 0.447882 1.13794 0.113206 0.141316 0.497112 
0.244782 0.302531 0.249481 0.772931 0.222709 0.0445395 0.0457107 0.704 0.294754 
0.127697 0.287083 1.42331 0.149664 0.188862 1.16536 0.681457 0.750788 0.316058 
0.180595 0.534835 0.335549 0.321833 0.440332 0.207516 0.451064 0.214479 0.268913 
1.81783 0.153343 0.268899 0.169621 0.231009 0.208722 0.389164 0.165267 0.303356 
0.387173 0.813466 0.406562 2.03457 0.412626 0.955127 1.95132 0.44392 1.05611 
0.971409 0.556593 0.478325 2.12361 1.21509 0.344027 0.297658 0.415503 0.454823 
0.791309 0.216763 1.74607 0.886632 0.331585 0.15825 0.230421 0.24624 0.149828 
0.252943 0.339568 0.433659 0.226096 0.197303 0.22703 0.157854 1.22757 0.119882 
0.146542 0.200819 0.144186 0.150189 0.343534 0.115333 0.145779 0.183992 0.147847 
0.135123 1.13894 0.254449 0.159436 0.240416 0.333691 1.06166 0.205813 0.157709 
0.303746 0.272777 0.181345 0.156957 1.09889 0.99944 0.132432 0.116876 0.105925 
0.135417 0.132918 0.165144 0.120868 0.235475 0.682318 0.331177 0.336037 0.398388 
0.186476 0.116867 0.125198 0.572978 0.341163 0.158783 0.268078 0.527591 0.612184 
0.0837249 0.194001 0.0819522 0.0784264 0.0871427 0.0777473 0.102879 0.221042 0.111073 
0.191453 0.083774 0.0982053 0.151364 0.10713 0.171748 0.0795134 0.0925817 0.158249 
0.0588011 0.0462914 0.0770955 0.0985509 0.243787 0.0574721 0.139155 0.0519989 0.126386 
0.0730421 0.0573561 0.0729454 0.656095 0.0571288 0.0443933 0.1975 0.0497984 0.0764608 
0.108936 0.0418387 0.330916 0.0650528 0.0534735 0.046435 0.0432021 0.0404827 0.186857 
0.083287 0.0906468 0.193879 0.255299 0.473629 0.0773131 0.0545308 0.0454988 0.0800828 
0.0554354 0.0638542 0.183146 0.0448985 0.0641649 0.0541749 0.053492 0.541188 0.0485368 
0.0494992 0.0748858 0.0882211 0.152365 0.118957 0.136895 0.289754 0.0662461 0.0875187 
0.0723359 0.184213 0.0744794 0.134949 0.0879369 0.0628871 0.0823525 0.0527496 0.114718 
0.0608038 0.0607706 0.045414 0.0555734 0.114675 0.0481752 0.049537 0.0580536 0.725491 
2.10209 0.832579 1.25148 0.673974 0.424165 0.599648 1.9602 0.527038 0.520085 
0.957184 0.659455 0.633032 1.84218 1.18917 0.76226 0.829638 0.577724 0.942918 
0.684639 0.81388 0.566661 0.839093 2.5616 1.0837 0.589589 1.29211 2.52634 
1.23571 0.737579 1.50966 1.61723 2.52966 0.948877 3.05737 1.81706 3.00641 
3.05829 1.41036 0.514824 5.82888 0.616325 0.508264 0.686267 0.488636 1.18679 
0.44509 0.624185 0.608424 1.08318 0.698222 0.692836 2.0158 0.728016 0.758671 
0.610663 1.10652 0.44551 0.379994 0.49136 0.510637 0.354863 0.565707 0.428134 
0.539323 0.616277 0.488061 1.91124 0.429478 0.929138 0.563538 0.614032 0.411752 
1.23461 1.85519 0.520116 1.56281 1.69533 1.65495 0.987428 0.673346 0.678073 
0.490019 1.43324 0.421991 1.50771 0.779336 0.434152 0.37497 0.354488 0.315294 
0.30583 0.398602 0.493956 0.360034 0.352679 0.387545 0.451716 0.545006 0.342038 
1.72274 1.06394 0.884468 0.599332 0.733086 0.434664 1.48775 0.776116 1.35134 
0.399313 0.348578 0.734706 0.287589 0.356537 0.605634 0.308411 0.808893 0.489983 
0.30627 0.313031 0.391553 0.477662 0.313258 0.326913 0.250903 0.70073 0.28189 
0.267722 0.246445 1.31224 0.270325 1.57901 0.665699 0.378434 0.334395 1.31456 
0.325001 0.455475 0.414452 0.357152 0.272611 0.259114 0.309195 1.53319 0.471616 
0.685585 0.413968 0.356272 0.427927 0.718549 1.36333 0.371403 0.313668 0.443829 
0.334141 0.384113 0.860325 0.326576 0.488561 1.54883 0.326752 0.449594 0.395948 
0.292039 0.238675 0.287838 0.28952 0.40832 0.245812 0.207108 0.288476 0.312713 
0.181524 0.217614 0.587805 0.328675 0.601228 0.251136 0.199976 0.359025 0.219482 
0.225803 1.39008 0.192217 0.786825 0.53002 1.00536 1.30905 0.223413 0.24843 
0.237712 0.282643 0.185087 0.164588 0.960581 0.381096 0.419574 1.43376 0.320529 
0.49439 0.46493 0.873082 1.0053 0.205605 0.226068 0.39577 0.506485 0.411083 
0.714754 0.574823 1.35867 0.221176 1.23512 0.229747 0.369255 0.175229 0.212672 
0.20781 0.696239 0.175843 0.210519 0.158166 0.354493 0.704878 0.133195 0.299891 
0.235649 1.23554 0.225459 0.337555 0.0494663 0.0489921 0.0420928 0.0395877 0.444111 
0.678636 0.36886 0.656115 0.257226 0.308971 0.312038 0.204721 0.890339 0.255702 
0.331251 0.272678 0.22989 0.253327 0.204429 0.178033 0.139701 0.153021 0.170396 
0.136509 0.121883 0.745939 0.675895 0.305013 0.278274 1.07718 0.962944 0.51001 
0.208216 0.668643 0.194159 0.16269 0.580219 0.246799 0.862303 1.78394 0.180842 
0.172357 0.171434 0.175907 1.1572 0.664509 0.176828 0.138167 0.933878 0.190369 
0.175326 0.12276 0.131904 0.709794 0.49355 0.442331 0.2497 0.115304 0.106728 
0.692817 0.166328 0.148757 0.283612 0.144165 0.0932313 0.120583 0.139738 0.0987065 
0.16188 0.159177 0.19753 0.219582 0.394624 0.125713 0.299543 0.121298 0.101464 
0.281444 0.0929389 0.117109 0.141163 0.12397 0.113848 0.0984337 0.0877682 0.103597 
0.0995365 0.109418 0.0957861 0.0912113 0.0950291 0.0859022 0.0874292 0.074962 0.249524 
0.122483 0.130135 0.0879682 0.114287 0.123958 0.491178 0.0931396 0.696694 0.136888 
0.108401 0.0581237 0.0793022 0.090306 0.283866 0.0643653 0.184591 0.134969 0.618618 
0.353109 0.203494 0.146194 0.236912 0.337966 0.129548 0.867642 0.369295 0.368637 
0.164492 0.15195 0.177154 0.964838 0.683407 0.355042 0.0986145 0.124431 0.0829069 
0.1149 0.0984402 0.329297 0.632313 0.179388 0.278229 0.0512138 0.0567698 0.0576867 
0.10002 0.128936 0.199679 0.294144 0.0971771 0.0859195 0.294309 0.28045 0.149765 
0.150924 0.664797 0.100113 0.0667139 0.12173 0.140002 0.279547 0.153915 0.16522 
0.0657637 0.0719513 0.0589532 0.103031 0.0782111 0.0867992 0.0684677 0.0624054 0.0643478 
0.0743125 0.0789883 0.072129 0.0671301 0.0722011 0.0675099 0.0695114 0.0952171 0.0778454 
0.0910231 0.486089 0.123462 0.145882 0.152925 0.553739 0.579121 0.305639 0.191447 
0.0899565 0.11522 0.0663809 0.0789905 0.0653433 0.124032 0.0590018 0.0486655 0.206257 
0.118269 0.0756047 0.146533 0.214036 0.467553 0.172417 0.0969949 0.0882089 0.104033 
0.172439 0.0805397 0.190536 0.507175 0.390759 0.410594 0.108103 0.0981225 0.44515 
0.0611465 0.20045 0.104281 0.0604229 0.0421063 0.0433989 0.0545862 0.0462856 0.0770472 
0.18352 0.0605167 0.103617 0.0889735 0.104333 0.420259 0.0582134 0.0754848 0.0780183 
0.165418 0.0426714 0.0418045 0.162056 0.089208 0.0658199 0.0792558 0.0403621 0.041027 
0.0427226 0.130203 0.0688237 0.0537631 0.0515534 0.0462872 0.0481825 0.0425513 -0.0141356 
-0.00990699 -0.00754735 -0.00960978 -0.00980976 -0.0103185 -0.0071957 -0.01528 -0.0194681 -0.0856698 
-0.112976 -0.221314 -0.0498883 -0.0277591 -0.0675027 -0.180128 -0.033796 -0.0735898 -0.00597718 
-0.0113666 -0.0536612 -0.0700373 -0.0396453 -0.0072809 -0.0150615 -0.0126649 -0.049025 -0.0433319 
-0.0176976 -0.0151528 -0.02493 -0.0437659 -0.0834404 -0.123902 -0.266122 -0.389056 -0.680915 
-0.122549 -0.193204 -0.197855 -0.0169147 -0.0344224 -0.00939978 -0.0125772 -0.130157 -0.0088824 
-0.139682 -0.0691665 -0.0138711 -0.0213937 -0.0313143 -0.0138865 -0.100583 -0.0862039 -0.0462899 
-0.0106278 -0.016916 -0.0117795 -0.0132271 -0.965675 -0.142049 -0.526079 -1.05648 -1.12626 
-1.3575 -0.0725568 -0.0552824 -0.179594 -0.140692 -0.288474 -0.0796903 -0.0848489 -0.0249757 
-0.0165077 -0.0226402 -0.038319 -0.0708328 -0.0365164 -0.0953884 -0.0745227 -0.0995355 -0.950689 
-0.1398 -0.182848 -0.982864 -0.270999 -0.934087 -0.156448 -0.400437 -1.0608 -0.26283 
-0.278075 -0.267426 -0.192992 -0.117167 -0.14119 -0.144117 -0.181263 -0.375109 -1.0061 
-0.244126 -0.52445 -0.00574318 -0.314883 -0.00508403 -0.0779722 -0.0695743 -0.0279101 -0.0250515 
-0.35565 -0.091428 -0.0742961 -0.0916791 -0.0215507 -0.33629 -0.791458 -0.10213 -0.344261 
-0.595416 -0.131906 -0.165603 -0.115939 -0.0836888 -0.331864 -0.262274 -0.597172 -0.0516259 
-0.374726 -0.610984 -0.0795648 -0.16148 -0.122843 -0.253998 -0.0827423 -0.0313825 -0.0855303 
-0.0474653 -0.0161387 -0.0112385 -0.0149934 -0.0286643 -0.836621 -1.76599 -0.132024 -0.116178 
-0.953245 -0.237267 -0.0425849 -0.0451261 -0.0156147 -0.0165209 -0.619888 -0.329346 -0.574858 
-0.418249 -0.532732 -0.249498 -0.530977 -0.230645 -0.189524 -0.189493 -0.314682 -0.920721 
-0.236143 -0.472052 -0.625643 -0.183704 -0.247803 -0.948081 -0.858391 -0.271719 -1.0884 
-0.446619 -0.223584 -0.313631 -0.446515 -0.536741 -0.263682 -0.172283 -1.06159 -0.205479 
-0.494558 -1.02184 -1.59605 -0.694688 -0.525614 -0.580576 -0.376653 -0.497219 -0.521988 
-0.636568 -0.318072 -1.49241 -0.20537 -0.218378 -0.25185 -0.933231 -0.0532808 -0.0626928 
-0.122732 -0.078203 -0.143609 -0.0651587 -0.219226 -0.112049 -0.0410853 -0.087425 -0.262911 
-0.0662947 -0.0457234 -0.0492949 -0.0377526 -0.0324364 -0.00644014 -0.00700507 -0.00531528 -0.00515939 
-0.113616 -0.130704 -0.0983896 -0.105164 -0.450605 -0.773018 -0.0482789 -0.0314728 -0.117855 
-0.0974966 -0.21722 -0.870139 -0.0828706 -0.136068 -0.167732 -0.140533 -0.207614 -0.449642 
-0.322759 -0.165209 -0.185703 -0.13804 -0.133717 -0.276725 -0.379679 -0.719523 -0.167012 
-0.583526 -0.131931 -0.129113 -0.408886 -0.241699 -1.13542 -0.339015 -0.0871106 -0.0272739 
-0.0605682 -0.0539668 -0.116163 -0.0339388 -0.181586 -0.0220352 -0.0355366 -0.0213062 -0.0171053 
-0.0838201 -0.0778322 -0.25887 -0.449508 -0.127369 -0.105355 -0.179785 -0.714335 -0.279496 
-0.252535 -0.0763048 -0.0488004 -0.605109 -0.305571 -0.130752 -0.660172 -0.0412968 -0.0331588 
-0.0326209 -0.046293 -0.202198 -0.0340543 -0.0277119 -0.0345587 -0.0581363 -0.02369 -0.0240895 
-0.0316336 -0.0241392 -0.0544687 -0.0128449 -0.012233 -0.0732645 -0.041744 -0.0322224 -0.0262371 
-0.0220278 -0.00875226 -0.00374366 -0.00202762 -0.00165563 -0.00295022 -0.0267279 -0.0256424 -0.0224782 
-0.00377648 -0.00259782 -0.00184218 -0.0395244 -0.0284258 -0.0724174 -0.0406946 -0.0243943 -0.0284454 
-0.0273909 -0.0231667 -0.0214772 -0.0211339 -0.0252066 -0.0244479 -0.0213114 -0.025167 -0.0352254 
-0.0262362 -0.0302542 -0.0217849 -0.0125027 -0.00752873 -0.0165306 -0.00482578 -0.00235915 -0.0050774 
-0.00315183 -0.00270232 -0.00242812 -0.00237493 -0.00340754 -0.00302903 -0.00344285 -0.00175624 -0.00219734 
-0.00185863 -0.00184852 -0.00255873 -0.0019302 -0.00272348 -0.00202601 -0.00189095 -0.0681865 -0.0341768 
-0.0465602 -0.0233517 -0.0250911 -0.0307383 -0.0394043 -0.0148493 -0.0302987 -0.0330591 -0.0101469 
-0.0149019 -0.0192616 -0.00726531 -0.00420648 -0.00293647 -0.00615642 -0.00267875 -0.00258064 -0.00340661 
-0.00526328 -0.00219559 -0.00223533 -0.00208984 -0.00231799 -0.0019283 -0.0179859 -0.0113747 -0.0143951 
-0.0214399 -0.0070742 -0.0107338 -0.00635931 -0.00938204 -0.0324549 -0.0209681 -0.0482664 -0.0477624 
-0.00479953 -0.00381484 -0.0061935 -0.0055788 -0.0363701 -0.0295623 -0.0331947 -0.0200325 -0.0248548 
-0.0326158 -0.00386858 -0.0030987 -0.00315771 -0.00186743 -0.00234097 -0.00274564 -0.0639175 -0.0266201 
-0.0495097 -0.00368866 -0.00351214 -0.0072224 -0.0290291 -0.0310626 -0.0253838 -0.00303315 -0.00235312 
-0.0487988 -0.00405335 -0.0284278 -0.0445004 -0.0119355 -0.0557912 -0.0554049 -0.056149 -0.0290467 
-0.0119646 -0.0118205 -0.0044148 -0.00574709 -0.00205745 -0.0016118 -0.00165538 -0.00448925 -0.00166403 
-0.00253442 -0.00260371 -0.00448061 -0.0493023 -0.0589973 -0.0395751 -0.019549 -0.0351693 -0.061684 
-0.0124856 -0.0102942 -0.0017318 -0.00300007 -0.00236153 -0.00164879 -0.0327957 -0.0326986 -0.0305343 
-0.0338047 -0.0016575 -0.00161344 -0.00183331 -0.00197327 -0.0290798 -0.043504 -0.00166074 -0.00171541 
-0.0175669 -0.0137735 -0.0294917 -0.0497437 -0.00288531 -0.00457498 -0.0377137 -0.0715975 -0.0693072 
-0.0448593 -0.0242587 -0.037093 -0.025908 -0.0466517 -0.00717954 -0.00424468 -0.00227584 -0.00370102 
-0.00464333 -0.00465092 -0.121163 -0.0687591 -0.00434004 -0.00723819 -0.00691019 -0.0125555 -0.00767494 
-0.0123407 -0.0503861 -0.0358373 -0.0219026 -0.0284542 -0.039472 -0.0436378 -0.111978 -0.183669 
-0.013831 -0.017268 -0.0174112 -0.0143421 -0.00515952 -0.00694501 -0.00478852 -0.00726928 -0.00213487 
-0.0035961 -0.0142074 -0.00466505 -0.00190478 -0.00277088 -0.00222796 -0.00364993 -0.037039 -0.0436723 
-0.0995001 -0.0643783 -0.0378791 -0.0654717 -0.0542743 -0.0981423 -0.0239062 -0.0138377 -0.0020183 
-0.00305324 -0.00267232 -0.00457104 -0.0172488 -0.0122055 -0.027033 -0.0134989 -0.0151451 -0.0110108 
-0.0107456 -0.010149 -0.010007 -0.00941009 -0.0198401 -0.0262779 -0.0230917 -0.0408596 -0.0183599 
-0.0210397 -0.0401191 -0.0253346 -0.00844628 -0.00712311 -0.00654038 -0.0191254 -0.0306186 -0.0123536 
-0.00817008 -0.0103686 -0.0161537 -0.0174041 -0.0173211 -0.0403919 -0.0359653 -0.017695 -0.0159678 
-0.0227444 -0.0505392 -0.0205701 -0.0211776 -0.0226216 -0.0317122 -0.0193546 -0.0227467 -0.0312697 
-0.0505746 -0.0403206 -0.0166125 -0.0164876 -0.0173919 -0.062603 -0.0274736 -0.0150686 -0.0151832 
-0.0897465 -0.0563717 -0.0272577 -0.027251 -0.0151154 -0.0172866 -0.0253882 -0.0256578 -0.0288213 
-0.0342687 -0.0263892 -0.0221158 -0.0168851 -0.029149 -0.0299815 -0.0146798 -0.0212607 -0.0218224 
-0.0159755 -0.075682 -0.136578 -0.108021 -0.0694201 -0.0792332 -0.0159828 -0.00424086 -0.00213234 
-0.00174322 -0.00562459 -0.277121 -0.406842 -0.0926252 -0.00441821 -0.00281394 -0.00170187 -0.00952569 
-0.00577956 -0.00898804 -0.0129087 -0.00554895 -0.00452646 -0.00771554 -0.00716775 -0.00487488 -0.00395794 
-0.00656109 -0.00878948 -0.00414002 -0.00312411 -0.00447104 -0.00665808 -0.00340551 -0.00231814 -0.00279082 
-0.00392077 -0.00282551 -0.00178938 -0.00178423 -0.0022873 -0.00247131 -0.00148945 -0.00148362 -0.00148483 
-0.00254571 -0.00247461 -0.00225173 -0.00146561 -0.0839207 -0.0639577 -0.656333 -0.151066 -0.0679006 
-0.0882641 -0.0802536 -0.0684701 -0.076215 -0.067161 -0.0698857 -0.10325 -0.0607093 -0.0556078 
-0.232458 -0.0700062 -0.0730717 -0.0780565 -0.0340649 -0.0121768 -0.0466428 -0.0054581 -0.00257951 
-0.0072539 -0.00351278 -0.00300437 -0.00264553 -0.00336643 -0.00390169 -0.00343708 -0.0039863 -0.00176634 
-0.00215291 -0.00188175 -0.00185907 -0.00187042 -0.00194809 -0.0028136 -0.00180942 -0.00194426 -0.660866 
-0.169799 -0.201301 -0.0788269 -0.1285 -0.109639 -0.081399 -0.242167 -0.157711 -0.576218 
-0.0196706 -1.02321 -0.478127 -0.0164613 -0.00509432 -0.00335982 -0.00809512 -0.00298956 -0.00288654 
-0.00391118 -0.0042279 -0.00236285 -0.00243021 -0.00222204 -0.00189966 -0.00191491 -0.00174169 -0.120975 
-0.0725298 -0.0581202 -0.0116266 -0.0187353 -0.00795647 -0.0158387 -0.166304 -0.0852312 -0.702146 
-1.16508 -0.00583492 -0.00451744 -0.00774498 -0.00670139 -0.00622897 -0.00467865 -0.0115123 -0.00735873 
-0.00555247 -0.00776543 -0.00575013 -0.00768982 -0.0105391 -0.00761966 -0.00900063 -0.00891457 -0.016639 
-0.0132179 -0.0159906 -0.0130096 -0.0171154 -0.0131316 -0.011071 -0.0237966 -0.0188007 -0.00816849 
-0.00821059 -0.00386178 -0.0033445 -0.00620313 -0.00491782 -0.00388929 -0.00494028 -0.0040891 -0.00451607 
-0.00725609 -0.00491356 -0.00612399 -0.00573118 -0.0140779 -0.00819308 -0.011281 -0.00891745 -0.00940186 
-0.00871217 -0.00747919 -0.0159531 -0.0128106 -0.00517239 -0.00551026 -0.0103271 -0.00695483 -0.00456352 
-0.00589277 -0.00813327 -0.00569593 -0.0077552 -0.00572115 -0.00437244 -0.00580973 -0.0049139 -0.00510198 
-0.00417505 -0.00403396 -0.00359956 -0.00440865 -0.00434004 -0.0038673 -0.00423223 -0.00323774 -0.00380685 
-0.00571849 -0.00536211 -0.00243598 -0.00222699 -0.00407528 -0.00264347 -0.00242203 -0.00275872 -0.00256955 