# vtk DataFile Version 4.0
vtk output
ASCII
DATASET STRUCTURED_POINTS
DIMENSIONS 62 62 62
SPACING 0.05 0.05 0.05
ORIGIN -1.525 -0.525 -0.525
POINT_DATA 238328
FIELD FieldData 1
potential 1 238328 double
0.796226 0.796927 0.797629 0.798332 0.799037 0.799743 0.800452 0.801161 0.801873 
0.802585 0.8033 0.804016 0.804734 0.805453 0.806175 0.806897 0.807622 0.808348 
0.809076 0.809806 0.810538 0.811271 0.812006 0.812743 0.813482 0.814222 0.814965 
0.815709 0.816456 0.817204 0.817954 0.818706 0.81946 0.820216 0.820974 0.821734 
0.822496 0.82326 0.824026 0.824794 0.825564 0.826336 0.82711 0.827886 0.828663 
0.829443 0.830225 0.831009 0.831795 0.832584 0.833374 0.834166 0.834961 0.835757 
0.836556 0.837358 0.838161 0.838967 0.839775 0.840585 0.841398 0.842214 0.799784 
0.800494 0.801206 0.801919 0.802634 0.803351 0.804069 0.804789 0.80551 0.806233 
0.806958 0.807685 0.808413 0.809143 0.809875 0.810608 0.811343 0.81208 0.812819 
0.81356 0.814302 0.815047 0.815793 0.816541 0.817291 0.818043 0.818797 0.819552 
0.82031 0.82107 0.821832 0.822595 0.823361 0.824129 0.824899 0.825671 0.826445 
0.827221 0.827999 0.828779 0.829561 0.830345 0.831132 0.83192 0.832711 0.833503 
0.834298 0.835095 0.835893 0.836694 0.837497 0.838303 0.83911 0.83992 0.840732 
0.841546 0.842362 0.843181 0.844003 0.844826 0.845653 0.846482 0.803384 0.804104 
0.804826 0.80555 0.806275 0.807002 0.80773 0.808461 0.809193 0.809926 0.810662 
0.811399 0.812138 0.812879 0.813621 0.814365 0.815111 0.815859 0.816609 0.817361 
0.818115 0.81887 0.819628 0.820387 0.821149 0.821912 0.822677 0.823445 0.824214 
0.824986 0.82576 0.826535 0.827313 0.828093 0.828875 0.829659 0.830446 0.831234 
0.832025 0.832817 0.833612 0.834409 0.835208 0.836009 0.836813 0.837618 0.838426 
0.839235 0.840047 0.840861 0.841678 0.842496 0.843317 0.84414 0.844965 0.845793 
0.846623 0.847455 0.84829 0.849128 0.849967 0.85081 0.807028 0.807759 0.808491 
0.809225 0.809961 0.810698 0.811437 0.812178 0.812921 0.813665 0.814411 0.81516 
0.815909 0.816661 0.817415 0.81817 0.818927 0.819687 0.820448 0.821211 0.821976 
0.822743 0.823512 0.824283 0.825056 0.825831 0.826609 0.827388 0.82817 0.828954 
0.829739 0.830527 0.831318 0.83211 0.832904 0.833701 0.8345 0.835301 0.836104 
0.83691 0.837718 0.838528 0.83934 0.840154 0.840971 0.84179 0.84261 0.843434 
0.844259 0.845086 0.845916 0.846748 0.847583 0.848419 0.849258 0.8501 0.850944 
0.85179 0.852639 0.85349 0.854344 0.8552 0.810717 0.811458 0.812201 0.812946 
0.813692 0.81444 0.81519 0.815942 0.816696 0.817451 0.818209 0.818968 0.819729 
0.820492 0.821257 0.822023 0.822792 0.823563 0.824336 0.82511 0.825887 0.826666 
0.827447 0.82823 0.829015 0.829802 0.830592 0.831384 0.832178 0.832974 0.833772 
0.834572 0.835375 0.83618 0.836988 0.837797 0.838609 0.839424 0.84024 0.841059 
0.84188 0.842703 0.843529 0.844357 0.845187 0.846019 0.846853 0.84769 0.848529 
0.849371 0.850214 0.851061 0.851909 0.85276 0.853613 0.854468 0.855326 0.856187 
0.85705 0.857915 0.858783 0.859654 0.814452 0.815204 0.815958 0.816713 0.81747 
0.81823 0.818991 0.819754 0.820519 0.821286 0.822054 0.822825 0.823597 0.824372 
0.825148 0.825927 0.826707 0.82749 0.828274 0.829061 0.82985 0.830641 0.831434 
0.832229 0.833027 0.833826 0.834628 0.835432 0.836239 0.837048 0.837859 0.838672 
0.839488 0.840306 0.841127 0.84195 0.842775 0.843602 0.844433 0.845265 0.846099 
0.846936 0.847776 0.848617 0.849461 0.850308 0.851156 0.852007 0.85286 0.853716 
0.854574 0.855434 0.856297 0.857162 0.85803 0.8589 0.859772 0.860647 0.861525 
0.862405 0.863288 0.864174 0.818234 0.818997 0.819762 0.820529 0.821297 0.822068 
0.82284 0.823615 0.824391 0.825169 0.82595 0.826732 0.827516 0.828302 0.829091 
0.829881 0.830674 0.831468 0.832265 0.833064 0.833865 0.834668 0.835474 0.836281 
0.837092 0.837904 0.838719 0.839536 0.840355 0.841177 0.842001 0.842828 0.843657 
0.844489 0.845323 0.846159 0.846998 0.847839 0.848683 0.849529 0.850378 0.851229 
0.852083 0.852939 0.853797 0.854657 0.85552 0.856386 0.857253 0.858124 0.858996 
0.859872 0.860749 0.861629 0.862511 0.863396 0.864284 0.865174 0.866066 0.866961 
0.867859 0.86876 0.822064 0.822838 0.823615 0.824393 0.825173 0.825955 0.826739 
0.827525 0.828314 0.829104 0.829896 0.83069 0.831486 0.832285 0.833085 0.833888 
0.834693 0.8355 0.836309 0.83712 0.837934 0.83875 0.839568 0.840389 0.841212 
0.842037 0.842865 0.843695 0.844528 0.845363 0.846201 0.847041 0.847884 0.848729 
0.849577 0.850427 0.85128 0.852136 0.852994 0.853854 0.854717 0.855583 0.856451 
0.857321 0.858194 0.859069 0.859947 0.860828 0.86171 0.862596 0.863483 0.864374 
0.865266 0.866161 0.867059 0.867959 0.868862 0.869767 0.870675 0.871585 0.872499 
0.873415 0.825943 0.82673 0.827518 0.828308 0.829099 0.829893 0.830689 0.831488 
0.832288 0.83309 0.833894 0.834701 0.835509 0.83632 0.837133 0.837948 0.838766 
0.839585 0.840407 0.841232 0.842058 0.842887 0.843718 0.844552 0.845388 0.846227 
0.847068 0.847912 0.848758 0.849607 0.850459 0.851313 0.85217 0.853029 0.853891 
0.854756 0.855623 0.856493 0.857366 0.858241 0.859119 0.859999 0.860882 0.861767 
0.862655 0.863546 0.864439 0.865335 0.866233 0.867133 0.868036 0.868942 0.86985 
0.870761 0.871674 0.87259 0.873508 0.874429 0.875353 0.876279 0.877208 0.87814 
0.829874 0.830671 0.831472 0.832274 0.833077 0.833884 0.834692 0.835502 0.836315 
0.83713 0.837946 0.838765 0.839587 0.84041 0.841236 0.842064 0.842894 0.843727 
0.844562 0.845399 0.846239 0.847081 0.847926 0.848773 0.849623 0.850475 0.85133 
0.852187 0.853048 0.853911 0.854776 0.855645 0.856516 0.85739 0.858266 0.859146 
0.860028 0.860913 0.8618 0.862691 0.863583 0.864479 0.865377 0.866278 0.867182 
0.868088 0.868997 0.869908 0.870822 0.871738 0.872657 0.873579 0.874503 0.875429 
0.876359 0.87729 0.878225 0.879162 0.880102 0.881045 0.88199 0.882938 0.833856 
0.834666 0.835478 0.836292 0.837109 0.837927 0.838748 0.839571 0.840396 0.841224 
0.842053 0.842885 0.84372 0.844556 0.845395 0.846236 0.847079 0.847925 0.848774 
0.849624 0.850478 0.851334 0.852192 0.853053 0.853916 0.854783 0.855652 0.856523 
0.857398 0.858275 0.859155 0.860038 0.860924 0.861813 0.862704 0.863599 0.864496 
0.865396 0.866299 0.867205 0.868114 0.869025 0.869939 0.870856 0.871775 0.872697 
0.873622 0.874549 0.875479 0.876412 0.877347 0.878285 0.879226 0.880169 0.881114 
0.882063 0.883014 0.883968 0.884924 0.885883 0.886845 0.88781 0.837891 0.838713 
0.839538 0.840365 0.841194 0.842025 0.842859 0.843695 0.844533 0.845374 0.846217 
0.847062 0.847909 0.848759 0.849611 0.850466 0.851323 0.852182 0.853044 0.853909 
0.854776 0.855646 0.856518 0.857393 0.858271 0.859151 0.860035 0.860921 0.86181 
0.862702 0.863597 0.864495 0.865396 0.8663 0.867207 0.868117 0.86903 0.869946 
0.870865 0.871786 0.872711 0.873638 0.874568 0.875501 0.876437 0.877376 0.878317 
0.879261 0.880207 0.881157 0.882109 0.883063 0.884021 0.88498 0.885943 0.886909 
0.887877 0.888848 0.889821 0.890798 0.891777 0.892759 0.84198 0.842816 0.843653 
0.844493 0.845335 0.84618 0.847027 0.847876 0.848728 0.849581 0.850438 0.851296 
0.852157 0.853021 0.853887 0.854755 0.855626 0.856499 0.857375 0.858254 0.859135 
0.860019 0.860906 0.861795 0.862688 0.863583 0.864481 0.865382 0.866286 0.867193 
0.868104 0.869017 0.869934 0.870853 0.871776 0.872702 0.873631 0.874563 0.875498 
0.876436 0.877377 0.878321 0.879267 0.880217 0.88117 0.882125 0.883083 0.884044 
0.885007 0.885974 0.886943 0.887915 0.888889 0.889867 0.890847 0.89183 0.892815 
0.893804 0.894795 0.895789 0.896785 0.897785 0.846126 0.846974 0.847825 0.848678 
0.849534 0.850392 0.851252 0.852115 0.85298 0.853848 0.854718 0.85559 0.856465 
0.857343 0.858222 0.859105 0.85999 0.860878 0.861768 0.862661 0.863557 0.864456 
0.865357 0.866261 0.867168 0.868079 0.868992 0.869908 0.870828 0.87175 0.872676 
0.873605 0.874538 0.875473 0.876412 0.877354 0.8783 0.879248 0.8802 0.881155 
0.882112 0.883073 0.884037 0.885004 0.885974 0.886946 0.887922 0.8889 0.889881 
0.890865 0.891852 0.892841 0.893833 0.894829 0.895827 0.896827 0.897831 0.898837 
0.899847 0.900858 0.901873 0.902891 0.850329 0.851191 0.852055 0.852922 0.853791 
0.854663 0.855537 0.856413 0.857293 0.858174 0.859058 0.859945 0.860834 0.861726 
0.86262 0.863517 0.864417 0.865319 0.866224 0.867132 0.868043 0.868956 0.869873 
0.870792 0.871715 0.87264 0.873569 0.874501 0.875436 0.876375 0.877316 0.878262 
0.87921 0.880162 0.881118 0.882077 0.883039 0.884005 0.884973 0.885945 0.88692 
0.887899 0.88888 0.889864 0.890852 0.891842 0.892835 0.893831 0.89483 0.895832 
0.896837 0.897844 0.898855 0.899868 0.900884 0.901904 0.902926 0.903951 0.904978 
0.906009 0.907042 0.908078 0.85459 0.855466 0.856344 0.857225 0.858108 0.858994 
0.859882 0.860773 0.861667 0.862563 0.863461 0.864363 0.865266 0.866173 0.867082 
0.867994 0.868908 0.869826 0.870746 0.871669 0.872595 0.873523 0.874455 0.87539 
0.876328 0.877269 0.878214 0.879162 0.880113 0.881068 0.882026 0.882988 0.883953 
0.884922 0.885895 0.886871 0.88785 0.888833 0.889819 0.890809 0.891802 0.892798 
0.893797 0.8948 0.895805 0.896813 0.897824 0.898839 0.899856 0.900876 0.901899 
0.902925 0.903954 0.904987 0.906022 0.90706 0.908101 0.909144 0.910191 0.911241 
0.912293 0.913347 0.858912 0.859802 0.860694 0.861589 0.862487 0.863387 0.86429 
0.865196 0.866104 0.867015 0.867928 0.868844 0.869763 0.870685 0.871609 0.872536 
0.873466 0.874398 0.875334 0.876272 0.877214 0.878158 0.879106 0.880057 0.881011 
0.881968 0.882929 0.883893 0.88486 0.885832 0.886807 0.887786 0.888768 0.889754 
0.890744 0.891738 0.892735 0.893736 0.89474 0.895748 0.896759 0.897773 0.898791 
0.899811 0.900835 0.901862 0.902892 0.903924 0.90496 0.905999 0.907041 0.908086 
0.909134 0.910185 0.91124 0.912297 0.913357 0.914421 0.915487 0.916556 0.917627 
0.918701 0.863296 0.8642 0.865107 0.866017 0.86693 0.867844 0.868762 0.869683 
0.870606 0.871532 0.872461 0.873392 0.874326 0.875263 0.876203 0.877145 0.878091 
0.879039 0.87999 0.880945 0.881902 0.882863 0.883826 0.884793 0.885764 0.886737 
0.887715 0.888695 0.88968 0.890668 0.891661 0.892657 0.893656 0.89466 0.895668 
0.896679 0.897695 0.898714 0.899736 0.900763 0.901792 0.902825 0.903862 0.904901 
0.905943 0.906989 0.908038 0.909089 0.910144 0.911202 0.912263 0.913327 0.914395 
0.915465 0.916539 0.917616 0.918696 0.91978 0.920866 0.921955 0.923046 0.92414 
0.867743 0.868662 0.869584 0.870509 0.871437 0.872367 0.8733 0.874236 0.875175 
0.876116 0.87706 0.878007 0.878957 0.87991 0.880865 0.881824 0.882785 0.88375 
0.884717 0.885688 0.886662 0.887638 0.888619 0.889602 0.890589 0.89158 0.892574 
0.893572 0.894573 0.895579 0.896588 0.897602 0.89862 0.899642 0.900667 0.901697 
0.902731 0.903769 0.90481 0.905856 0.906904 0.907956 0.909012 0.91007 0.911132 
0.912196 0.913264 0.914335 0.915409 0.916486 0.917566 0.91865 0.919737 0.920827 
0.921921 0.923018 0.924119 0.925222 0.926329 0.927438 0.92855 0.929665 0.872255 
0.87319 0.874127 0.875067 0.87601 0.876956 0.877905 0.878856 0.879811 0.880768 
0.881728 0.882691 0.883657 0.884626 0.885598 0.886573 0.887551 0.888532 0.889516 
0.890503 0.891494 0.892487 0.893484 0.894485 0.895489 0.896496 0.897508 0.898523 
0.899542 0.900565 0.901593 0.902624 0.90366 0.9047 0.905745 0.906793 0.907846 
0.908903 0.909964 0.911028 0.912096 0.913168 0.914242 0.91532 0.916401 0.917485 
0.918572 0.919662 0.920755 0.921852 0.922952 0.924055 0.925162 0.926272 0.927386 
0.928504 0.929625 0.930749 0.931876 0.933006 0.934139 0.935275 0.876834 0.877784 
0.878737 0.879693 0.880652 0.881614 0.882579 0.883546 0.884517 0.885491 0.886467 
0.887447 0.888429 0.889415 0.890403 0.891395 0.892389 0.893387 0.894388 0.895392 
0.8964 0.897411 0.898425 0.899443 0.900464 0.901489 0.902518 0.903551 0.904588 
0.905629 0.906674 0.907724 0.908778 0.909837 0.910901 0.911969 0.913041 0.914117 
0.915197 0.916281 0.917369 0.91846 0.919554 0.920651 0.921752 0.922855 0.923961 
0.925071 0.926184 0.9273 0.928419 0.929542 0.930669 0.931799 0.932934 0.934072 
0.935213 0.936358 0.937507 0.938658 0.939813 0.940969 0.881481 0.882447 0.883416 
0.884389 0.885364 0.886342 0.887323 0.888308 0.889295 0.890285 0.891278 0.892275 
0.893274 0.894276 0.895282 0.896291 0.897303 0.898318 0.899336 0.900357 0.901382 
0.902411 0.903442 0.904478 0.905516 0.906559 0.907606 0.908657 0.909712 0.910771 
0.911835 0.912903 0.913976 0.915054 0.916137 0.917224 0.918316 0.919412 0.920512 
0.921616 0.922724 0.923835 0.924949 0.926065 0.927185 0.928308 0.929434 0.930562 
0.931694 0.93283 0.933968 0.935111 0.936257 0.937408 0.938562 0.939721 0.940884 
0.94205 0.94322 0.944392 0.945568 0.946746 0.886198 0.887181 0.888167 0.889155 
0.890148 0.891142 0.89214 0.893141 0.894146 0.895153 0.896163 0.897177 0.898193 
0.899213 0.900236 0.901262 0.902292 0.903324 0.90436 0.9054 0.906442 0.907488 
0.908538 0.909591 0.910648 0.911709 0.912774 0.913843 0.914916 0.915993 0.917076 
0.918163 0.919255 0.920352 0.921455 0.922562 0.923673 0.924789 0.925909 0.927034 
0.928161 0.929292 0.930426 0.931562 0.932702 0.933844 0.934988 0.936136 0.937287 
0.938441 0.939599 0.94076 0.941926 0.943096 0.944271 0.94545 0.946633 0.947821 
0.949012 0.950207 0.951404 0.952603 0.890987 0.891987 0.89299 0.893995 0.895004 
0.896016 0.897031 0.89805 0.899071 0.900096 0.901124 0.902155 0.903189 0.904226 
0.905267 0.906311 0.907359 0.908409 0.909463 0.910521 0.911581 0.912646 0.913713 
0.914785 0.91586 0.916939 0.918022 0.919109 0.920201 0.921297 0.922398 0.923505 
0.924616 0.925733 0.926854 0.927981 0.929113 0.930249 0.93139 0.932534 0.933682 
0.934833 0.935986 0.937142 0.938301 0.939461 0.940625 0.941791 0.94296 0.944132 
0.945308 0.946488 0.947672 0.948862 0.950056 0.951255 0.952459 0.953668 0.954881 
0.956097 0.957315 0.958536 0.89585 0.896867 0.897887 0.89891 0.899936 0.900966 
0.901998 0.903034 0.904073 0.905116 0.906161 0.90721 0.908262 0.909318 0.910377 
0.911439 0.912504 0.913573 0.914646 0.915722 0.916801 0.917883 0.91897 0.92006 
0.921153 0.922251 0.923352 0.924458 0.925569 0.926684 0.927804 0.928929 0.93006 
0.931196 0.932338 0.933484 0.934636 0.935793 0.936954 0.938118 0.939286 0.940457 
0.94163 0.942805 0.943981 0.94516 0.946341 0.947525 0.94871 0.9499 0.951093 
0.952291 0.953493 0.954701 0.955914 0.957133 0.958357 0.959586 0.96082 0.962058 
0.963298 0.964539 0.900788 0.901822 0.90286 0.903901 0.904945 0.905992 0.907042 
0.908096 0.909153 0.910214 0.911277 0.912344 0.913415 0.914489 0.915566 0.916646 
0.917731 0.918818 0.919909 0.921004 0.922102 0.923203 0.924309 0.925417 0.92653 
0.927646 0.928766 0.92989 0.931019 0.932153 0.933292 0.934437 0.935587 0.936742 
0.937904 0.939071 0.940243 0.941419 0.942601 0.943785 0.944973 0.946163 0.947355 
0.948548 0.949742 0.950937 0.952135 0.953335 0.954537 0.955742 0.956951 0.958165 
0.959383 0.960607 0.961838 0.963076 0.96432 0.96557 0.966825 0.968084 0.969346 
0.970607 0.905802 0.906855 0.90791 0.908969 0.910031 0.911097 0.912165 0.913237 
0.914312 0.915391 0.916473 0.917559 0.918647 0.91974 0.920836 0.921935 0.923038 
0.924144 0.925254 0.926368 0.927485 0.928606 0.92973 0.930857 0.931989 0.933124 
0.934262 0.935406 0.936553 0.937706 0.938864 0.940028 0.941197 0.942372 0.943553 
0.94474 0.945931 0.947128 0.948329 0.949534 0.950741 0.951949 0.953159 0.954369 
0.95558 0.956791 0.958004 0.959218 0.960434 0.961652 0.962875 0.964103 0.965336 
0.966575 0.967822 0.969077 0.97034 0.971611 0.972888 0.974168 0.975451 0.976732 
0.910895 0.911966 0.91304 0.914117 0.915197 0.916281 0.917368 0.918458 0.919552 
0.920649 0.92175 0.922854 0.923961 0.925072 0.926187 0.927305 0.928427 0.929552 
0.930682 0.931815 0.932951 0.934091 0.935234 0.936381 0.937531 0.938685 0.939843 
0.941005 0.942171 0.943343 0.94452 0.945702 0.94689 0.948084 0.949285 0.95049 
0.951702 0.952918 0.954138 0.955361 0.956587 0.957814 0.959041 0.960267 0.961492 
0.962716 0.963941 0.965167 0.966395 0.967625 0.968859 0.970098 0.971343 0.972595 
0.973856 0.975127 0.976408 0.977698 0.978997 0.980302 0.981607 0.982908 0.916068 
0.917157 0.918249 0.919345 0.920444 0.921546 0.922651 0.92376 0.924873 0.925988 
0.927107 0.92823 0.929356 0.930486 0.931619 0.932757 0.933898 0.935042 0.936191 
0.937343 0.938499 0.939658 0.940821 0.941987 0.943156 0.944329 0.945506 0.946686 
0.947872 0.949062 0.950258 0.951459 0.952666 0.953879 0.955097 0.956321 0.957551 
0.958786 0.960025 0.961267 0.96251 0.963753 0.964995 0.966235 0.967473 0.968708 
0.969943 0.971178 0.972414 0.973653 0.974894 0.976141 0.977394 0.978656 0.979928 
0.981212 0.982509 0.98382 0.985144 0.986476 0.987809 0.989132 0.921321 0.922429 
0.92354 0.924654 0.925772 0.926893 0.928016 0.929144 0.930275 0.931409 0.932547 
0.933688 0.934833 0.935981 0.937134 0.93829 0.93945 0.940614 0.941782 0.942953 
0.944128 0.945307 0.946488 0.947674 0.948862 0.950054 0.951249 0.952449 0.953653 
0.954862 0.956077 0.957297 0.958522 0.959753 0.960989 0.962231 0.963479 0.964731 
0.965987 0.967245 0.968504 0.969762 0.971018 0.972269 0.973516 0.974759 0.976001 
0.977241 0.978482 0.979725 0.980971 0.982221 0.983478 0.984745 0.986024 0.987317 
0.988628 0.98996 0.991314 0.992686 0.994055 0.995405 0.926656 0.927782 0.928912 
0.930045 0.931181 0.932321 0.933463 0.934609 0.935759 0.936912 0.938068 0.939227 
0.940391 0.941558 0.942729 0.943904 0.945082 0.946265 0.947451 0.948642 0.949836 
0.951033 0.952234 0.953439 0.954646 0.955857 0.957071 0.95829 0.959513 0.960742 
0.961975 0.963214 0.964458 0.965707 0.96696 0.968218 0.969481 0.970748 0.972019 
0.973292 0.974564 0.975835 0.9771 0.97836 0.979612 0.980859 0.982103 0.983345 
0.984588 0.985831 0.987077 0.988326 0.989582 0.990849 0.99213 0.993427 0.994745 
0.99609 0.99748 0.998936 1.00027 1.00028 0.932073 0.933218 0.934366 0.935518 
0.936673 0.937831 0.938992 0.940156 0.941324 0.942495 0.943669 0.944847 0.946029 
0.947214 0.948403 0.949596 0.950792 0.951993 0.953197 0.954406 0.955619 0.956835 
0.958054 0.959277 0.960503 0.961733 0.962966 0.964204 0.965447 0.966696 0.96795 
0.969209 0.970472 0.971738 0.973007 0.97428 0.975556 0.976836 0.978118 0.979401 
0.980682 0.981961 0.983232 0.984494 0.985748 0.986995 0.988237 0.989478 0.990718 
0.991959 0.993202 0.994445 0.995693 0.996954 0.998232 0.999526 0.999813 0.999883 
0.999978 1.00007 1.00012 1.00014 0.937571 0.938735 0.939902 0.941072 0.942245 
0.943422 0.944601 0.945783 0.946969 0.948158 0.94935 0.950546 0.951745 0.952948 
0.954154 0.955363 0.956577 0.957794 0.959016 0.960241 0.961471 0.962705 0.963942 
0.965182 0.966426 0.967674 0.968926 0.970185 0.97145 0.972721 0.973999 0.97528 
0.976565 0.977849 0.979133 0.980418 0.981704 0.982991 0.98428 0.985567 0.98685 
0.988127 0.989394 0.990651 0.9919 0.993146 0.994386 0.995622 0.996859 0.998097 
0.999338 0.999856 0.99982 0.999809 0.999814 0.999833 0.999866 0.999911 0.999962 
1.00001 1.00003 1.00004 0.943151 0.944333 0.945518 0.946706 0.947897 0.949091 
0.950288 0.951488 0.952692 0.953898 0.955108 0.956321 0.957537 0.958756 0.959978 
0.961203 0.962431 0.963664 0.9649 0.966141 0.967386 0.968635 0.969887 0.971144 
0.972405 0.97367 0.974942 0.976223 0.977511 0.97881 0.980117 0.981428 0.982739 
0.984043 0.985341 0.986635 0.987927 0.989219 0.990508 0.991791 0.993061 0.994314 
0.995549 0.996774 0.998017 0.999287 1.00013 1.00008 1.00004 0.999992 0.999951 
0.999915 0.999888 0.999874 0.999872 0.999881 0.999899 0.999923 0.999948 0.999968 
0.999977 0.999974 0.948809 0.950009 0.951212 0.952418 0.953626 0.954837 0.956051 
0.957268 0.958489 0.959713 0.960939 0.962169 0.963401 0.964635 0.965871 0.96711 
0.968351 0.969595 0.970844 0.972096 0.973352 0.974613 0.975879 0.977149 0.978425 
0.979706 0.980997 0.982301 0.98362 0.984955 0.986303 0.987656 0.989003 0.990331 
0.991639 0.992939 0.994238 0.995535 0.996827 0.998104 0.99935 1.0004 1.0003 
1.00026 1.00023 1.00021 1.00017 1.00012 1.00007 1.00003 0.999993 0.999962 
0.999938 0.999923 0.999915 0.999915 0.999921 0.999929 0.999937 0.999941 0.999938 
0.999926 0.954545 0.955761 0.95698 0.958202 0.959427 0.960654 0.961885 0.963119 
0.964356 0.965597 0.96684 0.968086 0.969333 0.970581 0.971829 0.973078 0.974329 
0.97558 0.976836 0.978095 0.979359 0.980627 0.981901 0.983179 0.984465 0.98576 
0.987069 0.988397 0.989752 0.991139 0.992554 0.993977 0.995381 0.996739 0.99804 
0.999342 1.00065 1.00081 1.0007 1.00058 1.00048 1.0004 1.00035 1.0003 
1.00026 1.00022 1.00018 1.00014 1.00009 1.00006 1.00002 0.999997 0.999975 
0.999958 0.999946 0.999939 0.999936 0.999933 0.999929 0.999922 0.99991 0.999891 
0.960352 0.961584 0.962818 0.964055 0.965295 0.966537 0.967783 0.969033 0.970287 
0.971544 0.972805 0.974067 0.975329 0.97659 0.977848 0.979103 0.980357 0.981611 
0.982867 0.984126 0.985389 0.986657 0.987932 0.989213 0.990503 0.991804 0.993123 
0.994469 0.99586 0.997325 0.998891 1.00044 1.00108 1.00099 1.00085 1.00074 
1.00065 1.00056 1.00049 1.00043 1.00038 1.00034 1.00031 1.00028 1.00025 
1.00021 1.00018 1.00014 1.00011 1.00007 1.00005 1.00002 1 0.999983 
0.999968 0.999956 0.999946 0.999935 0.999924 0.999909 0.99989 0.999866 0.966226 
0.967471 0.968718 0.969968 0.971221 0.972477 0.973737 0.975002 0.976273 0.977548 
0.978827 0.980108 0.981387 0.982659 0.983923 0.98518 0.986431 0.987677 0.988922 
0.990169 0.991423 0.992683 0.993951 0.995226 0.99651 0.997807 0.99912 1.00008 
1.00023 1.00042 1.0006 1.00068 1.00069 1.00065 1.00058 1.00051 1.00045 
1.0004 1.00035 1.00032 1.0003 1.00028 1.00026 1.00024 1.00022 1.00019 
1.00016 1.00014 1.00011 1.00008 1.00006 1.00004 1.00002 1 0.999984 
0.999969 0.999954 0.999938 0.99992 0.999901 0.999877 0.99985 0.972158 0.973414 
0.974672 0.975933 0.977197 0.978465 0.979738 0.981017 0.982304 0.983599 0.984901 
0.986206 0.987506 0.988792 0.990061 0.991311 0.992544 0.993764 0.99498 0.996202 
0.997437 0.998683 0.999865 0.999903 0.999952 1.00001 1.00008 1.00016 1.00025 
1.00033 1.0004 1.00044 1.00045 1.00043 1.00039 1.00035 1.00031 1.00028 
1.00025 1.00024 1.00023 1.00022 1.00021 1.0002 1.00019 1.00017 1.00015 
1.00013 1.00011 1.00009 1.00007 1.00005 1.00003 1.00001 0.999995 0.999978 
0.99996 0.999941 0.99992 0.999896 0.99987 0.99984 0.978139 0.979403 0.980669 
0.981937 0.98321 0.984487 0.98577 0.987063 0.988367 0.989683 0.991016 0.992361 
0.9937 0.995008 0.996276 0.997514 0.998699 0.999828 0.999999 0.999969 0.999961 
0.999969 0.999989 1.00002 1.00005 1.00009 1.00013 1.00018 1.00022 1.00026 
1.00028 1.0003 1.00029 1.00028 1.00026 1.00023 1.00021 1.00019 1.00018 
1.00017 1.00017 1.00017 1.00017 1.00017 1.00016 1.00015 1.00014 1.00012 
1.00011 1.00009 1.00007 1.00006 1.00004 1.00002 1 0.999985 0.999965 
0.999944 0.999921 0.999895 0.999867 0.999836 0.984159 0.985427 0.986697 0.98797 
0.989247 0.990531 0.991822 0.993123 0.994439 0.995776 0.997145 0.998575 1.00001 
1.00056 1.00045 1.00034 1.00023 1.00015 1.00009 1.00006 1.00005 1.00005 
1.00007 1.00009 1.00011 1.00013 1.00015 1.00017 1.00019 1.0002 1.0002 
1.0002 1.00019 1.00018 1.00017 1.00015 1.00014 1.00013 1.00013 1.00013 
1.00013 1.00013 1.00014 1.00014 1.00014 1.00013 1.00012 1.00011 1.0001 
1.00009 1.00008 1.00006 1.00005 1.00003 1.00001 0.999992 0.999971 0.999949 
0.999924 0.999898 0.999869 0.999838 0.990205 0.991475 0.992745 0.994019 0.995297 
0.996582 0.997876 0.99918 1.0001 1.00017 1.00026 1.00035 1.00038 1.00037 
1.00032 1.00026 1.0002 1.00016 1.00013 1.00011 1.0001 1.0001 1.00011 
1.00012 1.00013 1.00014 1.00015 1.00015 1.00015 1.00015 1.00015 1.00014 
1.00013 1.00012 1.00011 1.0001 1.00009 1.00009 1.00009 1.00009 1.0001 
1.00011 1.00011 1.00012 1.00012 1.00012 1.00011 1.00011 1.0001 1.00009 
1.00008 1.00006 1.00005 1.00003 1.00002 0.999997 0.999976 0.999954 0.999929 
0.999902 0.999874 0.999843 0.996269 0.997539 0.998802 0.999994 1 1.00002 
1.00004 1.00008 1.00011 1.00016 1.00021 1.00025 1.00027 1.00026 1.00024 
1.00021 1.00018 1.00016 1.00014 1.00013 1.00013 1.00013 1.00013 1.00014 
1.00014 1.00014 1.00014 1.00014 1.00013 1.00012 1.00011 1.0001 1.00009 
1.00008 1.00007 1.00006 1.00006 1.00006 1.00006 1.00007 1.00008 1.00009 
1.00009 1.0001 1.0001 1.00011 1.0001 1.0001 1.0001 1.00009 1.00008 
1.00007 1.00005 1.00004 1.00002 1 0.999982 0.999959 0.999935 0.999909 
0.999881 0.999851 1.00003 1.00002 1.00001 1.00002 1.00002 1.00004 1.00006 
1.00008 1.00011 1.00014 1.00017 1.00019 1.0002 1.00021 1.0002 1.00018 
1.00017 1.00016 1.00015 1.00015 1.00014 1.00014 1.00014 1.00014 1.00014 
1.00014 1.00013 1.00012 1.00011 1.0001 1.00008 1.00007 1.00006 1.00005 
1.00004 1.00004 1.00004 1.00004 1.00005 1.00005 1.00006 1.00007 1.00008 
1.00009 1.00009 1.0001 1.0001 1.0001 1.00009 1.00009 1.00008 1.00007 
1.00006 1.00004 1.00002 1.00001 0.999987 0.999965 0.999942 0.999916 0.99989 
0.999861 1.00002 1.00002 1.00002 1.00003 1.00004 1.00005 1.00007 1.00009 
1.00011 1.00013 1.00015 1.00016 1.00017 1.00017 1.00017 1.00017 1.00016 
1.00016 1.00015 1.00015 1.00015 1.00015 1.00015 1.00014 1.00014 1.00013 
1.00012 1.00011 1.0001 1.00008 1.00007 1.00006 1.00004 1.00004 1.00003 
1.00003 1.00003 1.00003 1.00004 1.00005 1.00005 1.00006 1.00007 1.00008 
1.00009 1.00009 1.00009 1.00009 1.00009 1.00008 1.00008 1.00007 1.00006 
1.00004 1.00003 1.00001 0.999991 0.99997 0.999948 0.999924 0.999899 0.999872 
1.00002 1.00002 1.00002 1.00003 1.00004 1.00005 1.00007 1.00008 1.0001 
1.00012 1.00013 1.00014 1.00015 1.00016 1.00016 1.00016 1.00016 1.00016 
1.00016 1.00016 1.00015 1.00015 1.00015 1.00014 1.00013 1.00013 1.00011 
1.0001 1.00009 1.00007 1.00006 1.00005 1.00004 1.00003 1.00002 1.00002 
1.00002 1.00003 1.00003 1.00004 1.00005 1.00006 1.00007 1.00007 1.00008 
1.00009 1.00009 1.00009 1.00009 1.00008 1.00007 1.00007 1.00006 1.00004 
1.00003 1.00001 0.999995 0.999975 0.999954 0.999932 0.999909 0.999884 1.00001 
1.00001 1.00002 1.00003 1.00004 1.00005 1.00007 1.00008 1.00009 1.00011 
1.00012 1.00013 1.00014 1.00015 1.00016 1.00016 1.00016 1.00016 1.00016 
1.00016 1.00016 1.00015 1.00015 1.00014 1.00013 1.00012 1.00011 1.0001 
1.00008 1.00007 1.00005 1.00004 1.00003 1.00003 1.00002 1.00002 1.00002 
1.00003 1.00003 1.00004 1.00005 1.00006 1.00006 1.00007 1.00008 1.00008 
1.00008 1.00008 1.00008 1.00008 1.00007 1.00006 1.00005 1.00004 1.00003 
1.00001 0.999997 0.999979 0.99996 0.999939 0.999918 0.999895 0.999995 1 
1.00001 1.00002 1.00003 1.00005 1.00006 1.00008 1.00009 1.0001 1.00012 
1.00013 1.00014 1.00015 1.00015 1.00016 1.00016 1.00016 1.00016 1.00016 
1.00016 1.00015 1.00015 1.00014 1.00013 1.00012 1.00011 1.00009 1.00008 
1.00007 1.00005 1.00004 1.00003 1.00003 1.00002 1.00002 1.00002 1.00003 
1.00003 1.00004 1.00004 1.00005 1.00006 1.00007 1.00007 1.00007 1.00008 
1.00008 1.00008 1.00007 1.00007 1.00006 1.00005 1.00004 1.00003 1.00001 
0.999998 0.999982 0.999964 0.999945 0.999926 0.999905 0.999981 0.999989 0.999999 
1.00001 1.00003 1.00004 1.00006 1.00007 1.00009 1.0001 1.00011 1.00013 
1.00014 1.00015 1.00015 1.00016 1.00016 1.00016 1.00016 1.00016 1.00016 
1.00015 1.00015 1.00014 1.00013 1.00012 1.0001 1.00009 1.00008 1.00007 
1.00005 1.00004 1.00004 1.00003 1.00003 1.00002 1.00002 1.00003 1.00003 
1.00004 1.00004 1.00005 1.00006 1.00006 1.00007 1.00007 1.00007 1.00007 
1.00007 1.00007 1.00006 1.00005 1.00005 1.00004 1.00002 1.00001 0.999998 
0.999983 0.999967 0.99995 0.999933 0.999914 0.99997 0.999979 0.999991 1 
1.00002 1.00004 1.00005 1.00007 1.00008 1.0001 1.00011 1.00012 1.00014 
1.00014 1.00015 1.00016 1.00016 1.00016 1.00017 1.00016 1.00016 1.00015 
1.00015 1.00014 1.00013 1.00012 1.0001 1.00009 1.00008 1.00007 1.00005 
1.00004 1.00004 1.00003 1.00003 1.00003 1.00003 1.00003 1.00003 1.00004 
1.00004 1.00005 1.00005 1.00006 1.00006 1.00006 1.00006 1.00006 1.00006 
1.00006 1.00005 1.00005 1.00004 1.00003 1.00002 1.00001 0.999996 0.999983 
0.999969 0.999954 0.999938 0.999922 0.999962 0.999972 0.999985 1 1.00002 
1.00003 1.00005 1.00007 1.00008 1.0001 1.00011 1.00012 1.00013 1.00014 
1.00015 1.00016 1.00016 1.00016 1.00016 1.00016 1.00016 1.00015 1.00015 
1.00014 1.00013 1.00011 1.0001 1.00009 1.00008 1.00007 1.00006 1.00005 
1.00004 1.00003 1.00003 1.00003 1.00003 1.00003 1.00003 1.00003 1.00004 
1.00004 1.00005 1.00005 1.00005 1.00005 1.00005 1.00005 1.00005 1.00005 
1.00005 1.00004 1.00003 1.00002 1.00001 1 0.999994 0.999982 0.999969 
0.999956 0.999942 0.999928 0.999959 0.999969 0.999983 0.999998 1.00001 1.00003 
1.00005 1.00006 1.00008 1.00009 1.00011 1.00012 1.00013 1.00014 1.00015 
1.00016 1.00016 1.00016 1.00016 1.00016 1.00016 1.00015 1.00014 1.00013 
1.00012 1.00011 1.0001 1.00009 1.00008 1.00007 1.00006 1.00005 1.00004 
1.00003 1.00003 1.00003 1.00003 1.00003 1.00003 1.00003 1.00003 1.00004 
1.00004 1.00004 1.00004 1.00005 1.00005 1.00005 1.00004 1.00004 1.00004 
1.00003 1.00002 1.00002 1.00001 0.999999 0.99999 0.999979 0.999968 0.999957 
0.999945 0.999933 0.99996 0.99997 0.999983 0.999998 1.00001 1.00003 1.00005 
1.00006 1.00008 1.00009 1.00011 1.00012 1.00013 1.00014 1.00015 1.00016 
1.00016 1.00016 1.00016 1.00016 1.00015 1.00015 1.00014 1.00013 1.00012 
1.00011 1.0001 1.00009 1.00008 1.00007 1.00006 1.00005 1.00004 1.00003 
1.00003 1.00003 1.00002 1.00002 1.00002 1.00003 1.00003 1.00003 1.00003 
1.00003 1.00004 1.00004 1.00004 1.00003 1.00003 1.00003 1.00003 1.00002 
1.00002 1.00001 1 0.999994 0.999985 0.999976 0.999967 0.999957 0.999947 
0.999938 0.999964 0.999975 0.999987 1 1.00002 1.00003 1.00005 1.00006 
1.00008 1.00009 1.00011 1.00012 1.00013 1.00014 1.00015 1.00015 1.00016 
1.00016 1.00016 1.00015 1.00015 1.00014 1.00014 1.00013 1.00012 1.00011 
1.0001 1.00008 1.00007 1.00006 1.00005 1.00005 1.00004 1.00003 1.00003 
1.00002 1.00002 1.00002 1.00002 1.00002 1.00002 1.00002 1.00003 1.00003 
1.00003 1.00003 1.00003 1.00002 1.00002 1.00002 1.00002 1.00001 1.00001 
1 0.999994 0.999987 0.99998 0.999972 0.999965 0.999957 0.999949 0.999941 
0.999972 0.999982 0.999994 1.00001 1.00002 1.00004 1.00005 1.00007 1.00008 
1.00009 1.00011 1.00012 1.00013 1.00014 1.00014 1.00015 1.00015 1.00015 
1.00015 1.00015 1.00014 1.00014 1.00013 1.00012 1.00011 1.0001 1.00009 
1.00008 1.00007 1.00006 1.00005 1.00004 1.00004 1.00003 1.00003 1.00002 
1.00002 1.00002 1.00002 1.00002 1.00002 1.00002 1.00002 1.00002 1.00002 
1.00002 1.00002 1.00001 1.00001 1.00001 1.00001 1 0.999997 0.999992 
0.999986 0.999981 0.999975 0.999968 0.999962 0.999956 0.99995 0.999943 0.999982 