# vtk DataFile Version 4.0
vtk output
ASCII
DATASET STRUCTURED_POINTS
DIMENSIONS 42 42 42
SPACING 0.05 0.05 0.05
ORIGIN -1.025 -1.025 -1.025
POINT_DATA 74088
FIELD FieldData 1
potential 1 74088 double
0.0257255 0.0269095 0.028159 0.0294281 0.0306351 0.0316695 0.0324312 0.0328754 0.0330374 
0.0330246 0.0329606 0.0329253 0.0329436 0.0330119 0.0331189 0.0332518 0.0333972 0.0335433 
0.0336826 0.0338128 0.0339371 0.0340622 0.0341914 0.0343174 0.0344234 0.0344914 0.0345081 
0.0344671 0.034368 0.0342171 0.0340272 0.0338177 0.03361 0.0334181 0.0332458 0.0330932 
0.0329644 0.0328694 0.0328221 0.0328357 0.032909 0.0330046 0.0317481 0.0330099 0.0343189 
0.0356396 0.0369173 0.0380798 0.0390544 0.0397961 0.040307 0.0406372 0.0408606 0.0410421 
0.0412199 0.0414081 0.0416078 0.0418134 0.0420176 0.0422133 0.0423964 0.042567 0.042729 
0.0428876 0.0430433 0.0431878 0.0433046 0.0433758 0.0433871 0.0433309 0.0432069 0.0430222 
0.0427916 0.0425354 0.0422743 0.0420225 0.0417851 0.0415625 0.0413558 0.0411684 0.0410041 
0.0408606 0.0407189 0.0405321 0.037976 0.0393474 0.0407566 0.0421748 0.0435621 0.0448675 
0.046038 0.047033 0.0478391 0.0484745 0.0489798 0.0494006 0.0497734 0.0501195 0.0504486 
0.0507629 0.0510606 0.0513384 0.0515951 0.0518316 0.0520509 0.0522549 0.0524419 0.052604 
0.0527269 0.0527952 0.0527956 0.0527208 0.0525704 0.0523519 0.0520795 0.0517716 0.0514469 
0.0511186 0.0507933 0.050472 0.050154 0.0498374 0.0495171 0.0491803 0.0488001 0.048333 
0.0443895 0.0458981 0.0474387 0.0489875 0.0505137 0.0519789 0.0533423 0.0545688 0.0556386 
0.0565527 0.0573304 0.0580005 0.0585915 0.0591259 0.0596171 0.0600726 0.0604946 0.0608834 
0.0612392 0.0615626 0.0618545 0.062115 0.0623404 0.0625234 0.0626528 0.0627159 0.0627019 
0.0626045 0.0624241 0.0621669 0.061846 0.0614773 0.0610762 0.0606549 0.0602203 0.0597742 
0.0593146 0.0588361 0.0583281 0.057773 0.0571431 0.0564041 0.0509591 0.0526295 0.0543278 
0.0560344 0.0577237 0.0593655 0.0609265 0.0623765 0.0636939 0.0648709 0.0659131 0.0668368 
0.0676621 0.0684076 0.069088 0.0697122 0.070285 0.0708086 0.0712837 0.0717104 0.0720883 
0.072415 0.0726866 0.0728965 0.0730358 0.0730948 0.0730652 0.0729424 0.0727268 0.0724244 
0.0720459 0.0716044 0.0711132 0.0705826 0.0700194 0.0694255 0.0687984 0.0681313 0.0674116 
0.0666209 0.065736 0.0647318 0.0576499 0.0595046 0.0613846 0.0632723 0.0651463 0.0669811 
0.0687493 0.070424 0.0719837 0.0734162 0.0747192 0.0758997 0.07697 0.0779444 0.0788345 
0.0796493 0.0803942 0.0810718 0.081683 0.0822267 0.0827012 0.0831038 0.0834299 0.0836737 
0.083828 0.0838857 0.0838407 0.08369 0.0834344 0.0830791 0.082633 0.0821069 0.0815117 
0.0808564 0.0801471 0.0793857 0.0785701 0.0776933 0.0767439 0.0757064 0.0745623 0.0732959 
0.0644257 0.0664854 0.0685684 0.070659 0.0727381 0.0747837 0.0767714 0.0786778 0.0804823 
0.0821702 0.0837345 0.0851755 0.0864995 0.0877152 0.0888308 0.0898534 0.0907874 0.0916347 
0.0923952 0.0930674 0.0936489 0.0941362 0.0945246 0.0948093 0.0949841 0.095044 0.0949846 
0.0948041 0.0945038 0.0940884 0.0935651 0.0929427 0.0922303 0.0914357 0.0905648 0.0896194 
0.0885983 0.0874962 0.0863039 0.0850099 0.0836024 0.0820725 0.0712523 0.073536 0.075842 
0.0781561 0.0804602 0.0827342 0.0849573 0.0871071 0.089164 0.0911124 0.0929424 0.0946501 
0.0962359 0.0977032 0.0990566 0.1003 0.101437 0.102466 0.103388 0.104199 0.104897 
0.105477 0.105935 0.106267 0.106468 0.106533 0.106461 0.106249 0.1059 0.105417 
0.104807 0.104077 0.103235 0.102289 0.101242 0.100099 0.098859 0.0975188 0.096073 
0.0945146 0.0928376 0.0910391 0.0780993 0.0806252 0.0831738 0.0857311 0.08828 0.0908025 
0.093278 0.095686 0.0980076 0.100227 0.102331 0.104313 0.106168 0.107897 0.109499 
0.110976 0.112326 0.113548 0.114641 0.1156 0.116423 0.117104 0.11764 0.118025 
0.118256 0.11833 0.118245 0.118 0.117598 0.117041 0.116336 0.115488 0.114506 
0.113395 0.112162 0.110808 0.109337 0.107748 0.106039 0.104208 0.102253 0.100177 
0.0849432 0.0877287 0.0905388 0.0933593 0.0961741 0.0989647 0.101712 0.104396 0.106998 
0.109501 0.111891 0.114158 0.116294 0.118294 0.120155 0.121874 0.123449 0.124875 
0.126149 0.127266 0.128222 0.129011 0.12963 0.130075 0.13034 0.130425 0.130328 
0.130048 0.129588 0.128951 0.128142 0.127168 0.126035 0.124748 0.123316 0.121741 
0.120028 0.118179 0.116196 0.114082 0.111839 0.109473 0.0917658 0.0948288 0.0979196 
0.101024 0.104125 0.107206 0.110246 0.113226 0.116126 0.11893 0.121621 0.124186 
0.126615 0.128899 0.131031 0.133004 0.134814 0.136454 0.137918 0.139202 0.1403 
0.141205 0.141914 0.142422 0.142727 0.142824 0.142715 0.142398 0.141876 0.141153 
0.140233 0.139122 0.137827 0.136354 0.134711 0.132903 0.130936 0.128816 0.126548 
0.124138 0.121594 0.118924 0.0985545 0.101913 0.105305 0.108715 0.112125 0.115518 
0.118873 0.122171 0.125392 0.128516 0.131526 0.134406 0.137143 0.139724 0.14214 
0.14438 0.146437 0.148303 0.149969 0.151429 0.152677 0.153706 0.154512 0.155089 
0.155434 0.155546 0.155424 0.155068 0.15448 0.153664 0.152624 0.151367 0.1499 
0.148229 0.146363 0.144309 0.142076 0.139672 0.137104 0.134384 0.131522 0.128531 
0.1053 0.108974 0.112687 0.116425 0.120168 0.123898 0.127594 0.131235 0.134799 
0.138266 0.141617 0.144832 0.147894 0.15079 0.153506 0.156028 0.158346 0.16045 
0.162329 0.163977 0.165385 0.166545 0.167453 0.168104 0.168495 0.168622 0.168487 
0.168088 0.16743 0.166514 0.165346 0.163933 0.162282 0.160401 0.158299 0.155985 
0.15347 0.150766 0.147883 0.144834 0.141635 0.138301 0.111995 0.116005 0.120063 
0.124152 0.128253 0.132347 0.136411 0.140422 0.144357 0.148193 0.151909 0.155482 
0.158893 0.162124 0.165157 0.167979 0.170574 0.172931 0.175038 0.176884 0.178461 
0.179762 0.180779 0.181509 0.181947 0.182092 0.181942 0.181499 0.180764 0.179742 
0.178437 0.176858 0.17501 0.172905 0.170552 0.167962 0.165149 0.162125 0.158906 
0.155508 0.151949 0.148248 0.118634 0.123002 0.127428 0.131895 0.136383 0.14087 
0.145331 0.149743 0.154079 0.158314 0.162423 0.166381 0.170166 0.173755 0.17713 
0.180271 0.183163 0.185789 0.188137 0.190195 0.191953 0.193403 0.194537 0.195351 
0.19584 0.196003 0.195838 0.195346 0.19453 0.193394 0.191943 0.190185 0.188129 
0.185784 0.183163 0.180278 0.177146 0.173782 0.170203 0.16643 0.162484 0.158388 
0.12521 0.129959 0.13478 0.139655 0.14456 0.149472 0.154364 0.159211 0.163981 
0.168648 0.173183 0.177558 0.181746 0.185722 0.189463 0.192948 0.196156 0.199071 
0.201678 0.203962 0.205913 0.207522 0.208781 0.209685 0.210228 0.21041 0.210229 
0.209685 0.208782 0.207524 0.205917 0.203968 0.201688 0.199087 0.196178 0.192978 
0.189502 0.185771 0.181806 0.177629 0.173266 0.168742 0.131715 0.136871 0.142117 
0.147429 0.152785 0.158158 0.163519 0.168838 0.174082 0.179219 0.184218 0.189045 
0.19367 0.198065 0.202202 0.206056 0.209606 0.212832 0.215715 0.218242 0.220401 
0.22218 0.223572 0.224571 0.225172 0.225374 0.225175 0.224576 0.22358 0.222192 
0.220417 0.218264 0.215743 0.212866 0.209648 0.206108 0.202263 0.198137 0.193753 
0.189138 0.184322 0.179333 0.138139 0.143731 0.149432 0.155217 0.161062 0.166936 
0.172807 0.178641 0.184402 0.190053 0.195557 0.200877 0.205979 0.210829 0.215396 
0.219651 0.22357 0.22713 0.230312 0.233099 0.235479 0.23744 0.238975 0.240076 
0.240739 0.240962 0.240744 0.240086 0.23899 0.237462 0.235507 0.233134 0.230355 
0.227182 0.223632 0.219723 0.215478 0.210923 0.206084 0.200993 0.195683 0.190188 
0.144468 0.150528 0.156718 0.163016 0.169391 0.17581 0.182238 0.188636 0.194963 
0.201177 0.207235 0.213095 0.218718 0.224064 0.229099 0.23379 0.238108 0.242029 
0.245533 0.2486 0.251218 0.253374 0.25506 0.256269 0.256998 0.257244 0.257006 
0.256284 0.255083 0.253405 0.251257 0.248649 0.245592 0.242099 0.238189 0.233882 
0.229203 0.224181 0.218846 0.213234 0.207384 0.201334 0.150688 0.157247 0.163966 
0.170818 0.177769 0.184784 0.191823 0.19884 0.205789 0.212622 0.219289 0.225743 
0.231937 0.237827 0.243372 0.248537 0.253289 0.257602 0.261452 0.264819 0.267692 
0.270056 0.271904 0.273229 0.274028 0.274297 0.274037 0.273248 0.271933 0.270096 
0.267742 0.264882 0.261525 0.257688 0.253389 0.24865 0.243498 0.237965 0.232088 
0.225906 0.219462 0.212803 0.156775 0.163871 0.171161 0.178613 0.186194 0.193861 
0.20157 0.209269 0.216904 0.22442 0.23176 0.238869 0.245691 0.252177 0.258282 
0.263963 0.269186 0.273922 0.278145 0.281837 0.284981 0.287567 0.289587 0.291035 
0.291907 0.292202 0.291918 0.291058 0.289622 0.287615 0.285042 0.281911 0.278234 
0.274025 0.269305 0.264096 0.258429 0.252339 0.245866 0.239055 0.231958 0.224627 
0.162704 0.170378 0.178284 0.18639 0.194657 0.203041 0.211488 0.219939 0.228334 
0.236607 0.244691 0.252523 0.260039 0.267182 0.2739 0.280145 0.285881 0.291074 
0.295699 0.299735 0.30317 0.305992 0.308194 0.30977 0.31072 0.311042 0.310734 
0.309798 0.308234 0.306047 0.303241 0.299823 0.295802 0.291194 0.286018 0.280299 
0.27407 0.267368 0.26024 0.252737 0.244917 0.236842 0.168444 0.176737 0.185309 
0.194127 0.203148 0.21232 0.221583 0.23087 0.240108 0.249222 0.258133 0.266767 
0.27505 0.282917 0.290307 0.297168 0.30346 0.309146 0.314202 0.318608 0.32235 
0.32542 0.327813 0.329525 0.330556 0.330905 0.330572 0.329556 0.327859 0.325483 
0.322431 0.318707 0.314319 0.309283 0.303616 0.297344 0.290501 0.283129 0.275279 
0.26701 0.258389 0.249487 0.173954 0.182912 0.192207 0.201802 0.211649 0.221692 
0.231859 0.242075 0.252254 0.262305 0.272139 0.281665 0.290799 0.299464 0.307591 
0.315125 0.322018 0.328236 0.333752 0.338548 0.342615 0.345945 0.348536 0.35039 
0.351504 0.351881 0.35152 0.350423 0.348589 0.346015 0.342704 0.338658 0.333883 
0.328389 0.322194 0.315323 0.307811 0.299704 0.291058 0.28194 0.272427 0.262604 
0.179187 0.18886 0.198938 0.209382 0.220139 0.231145 0.24232 0.253573 0.264803 
0.275904 0.286768 0.297289 0.307367 0.316914 0.325851 0.334116 0.34166 0.348446 
0.35445 0.359658 0.364062 0.367661 0.370457 0.372453 0.373653 0.374059 0.373671 
0.37249 0.370514 0.367738 0.36416 0.359778 0.354595 0.348617 0.341857 0.334339 
0.326099 0.317185 0.30766 0.2976 0.287095 0.276242 0.18409 0.19453 0.205456 
0.216828 0.228589 0.240665 0.252965 0.265379 0.27779 0.29007 0.302089 0.313722 
0.32485 0.33537 0.345195 0.354254 0.362496 0.369886 0.376403 0.382038 0.38679 
0.390664 0.393667 0.395807 0.397092 0.397526 0.397111 0.395846 0.393726 0.390745 
0.386896 0.382169 0.376562 0.370074 0.362714 0.354502 0.345473 0.335676 0.325181 
0.314074 0.302459 0.290453 0.188596 0.199859 0.211705 0.224094 0.236965 0.250233 
0.263792 0.277513 0.291256 0.304864 0.318182 0.331058 0.343354 0.354948 0.36574 
0.375656 0.384644 0.392669 0.399719 0.405792 0.410896 0.415044 0.418251 0.420532 
0.4219 0.422362 0.421921 0.420573 0.418313 0.415129 0.411008 0.405933 0.399891 
0.392875 0.384885 0.375933 0.366052 0.355292 0.343728 0.331458 0.318602 0.305298 
0.192632 0.204776 0.21762 0.231125 0.245225 0.259825 0.274799 0.289997 0.305244 
0.320353 0.335135 0.349406 0.362999 0.375773 0.387618 0.398453 0.408225 0.41691 
0.424504 0.431016 0.436468 0.440882 0.444287 0.446703 0.448148 0.448635 0.448168 
0.446743 0.444351 0.440972 0.436585 0.431166 0.424689 0.417134 0.40849 0.39876 
0.387968 0.376163 0.363424 0.349861 0.335614 0.320849 0.196114 0.209199 0.223126 
0.237857 0.253322 0.269414 0.285987 0.302857 0.319812 0.336623 0.353056 0.368888 
0.383921 0.397989 0.410967 0.422774 0.433364 0.442721 0.450857 0.457799 0.463583 
0.468247 0.471833 0.47437 0.475886 0.476396 0.475905 0.474411 0.471897 0.468338 
0.463704 0.457956 0.451054 0.442963 0.433655 0.423117 0.41136 0.398429 0.384405 
0.369409 0.353606 0.337192 0.198949 0.213038 0.228137 0.244216 0.261202 0.278973 
0.297356 0.316129 0.335031 0.353776 0.372074 0.389653 0.406274 0.421747 0.435935 
0.448757 0.460178 0.470202 0.478863 0.486206 0.492292 0.497179 0.50092 0.503561 
0.505135 0.505663 0.505154 0.5036 0.500983 0.497269 0.492415 0.486367 0.479069 
0.470463 0.460497 0.449137 0.436377 0.422247 0.406827 0.390251 0.372707 0.354431 
0.201035 0.216193 0.232564 0.250129 0.268813 0.28848 0.308924 0.32987 0.350995 
0.37194 0.392344 0.411869 0.430232 0.447214 0.46267 0.476527 0.48877 0.499432 
0.508573 0.516273 0.522615 0.52768 0.531542 0.53426 0.535876 0.536418 0.535895 
0.534298 0.531603 0.527767 0.522734 0.516435 0.508788 0.499709 0.489117 0.476948 
0.463166 0.447783 0.430867 0.412559 0.393077 0.372702 0.20227 0.218562 0.236312 
0.255519 0.276109 0.297927 0.320726 0.344166 0.367837 0.391285 0.414057 0.435738 
0.455988 0.474562 0.491315 0.506192 0.519213 0.530449 0.540001 0.547984 0.554515 
0.559703 0.56364 0.566401 0.568039 0.568588 0.568057 0.566436 0.563695 0.559783 
0.554629 0.548143 0.540218 0.530739 0.519587 0.506656 0.491872 0.475208 0.456716 
0.436536 0.41491 0.392176 0.202543 0.22004 0.23929 0.260317 0.283057 0.307332 
0.332838 0.359148 0.385739 0.412032 0.437454 0.461494 0.483752 0.503962 0.521991 
0.537823 0.55153 0.563235 0.573093 0.581261 0.587895 0.593131 0.597085 0.599848 
0.601484 0.602031 0.6015 0.599879 0.597132 0.593199 0.587994 0.581408 0.573304 
0.563532 0.551927 0.53833 0.522611 0.504693 0.484586 0.462417 0.43845 0.41308 
0.201748 0.220523 0.241411 0.264473 0.289657 0.316756 0.345394 0.375023 0.404966 
0.434478 0.462834 0.489412 0.513748 0.53557 0.554783 0.571436 0.585676 0.597698 
0.607717 0.615944 0.622572 0.627768 0.631672 0.63439 0.635995 0.63653 0.636007 
0.634413 0.631705 0.627814 0.622644 0.616062 0.607908 0.597987 0.586085 0.571978 
0.555463 0.536386 0.514694 0.490474 0.463995 0.435712 0.199776 0.219912 0.242602 
0.267961 0.295952 0.326334 0.358622 0.392103 0.425888 0.459016 0.490572 0.519805 
0.546202 0.56951 0.589713 0.606965 0.621515 0.633647 0.643647 0.651779 0.658275 
0.663333 0.667111 0.66973 0.671273 0.671784 0.671278 0.669738 0.667116 0.663339 
0.658298 0.651844 0.64379 0.633903 0.621912 0.607523 0.590438 0.570402 0.547257 
0.521014 0.491917 0.460468 0.196508 0.218103 0.242797 0.270782 0.302048 0.336293 
0.372878 0.410846 0.449023 0.486162 0.521124 0.553023 0.581323 0.60585 0.626724 
0.644249 0.65881 0.670796 0.680563 0.688426 0.694652 0.699463 0.703036 0.705501 
0.706947 0.707423 0.70694 0.70548 0.702994 0.699403 0.69459 0.688396 0.680613 
0.670972 0.659153 0.644783 0.627457 0.606789 0.582468 0.554371 0.522661 0.487858 
0.191803 0.214974 0.241928 0.272973 0.308127 0.346991 0.388684 0.431899 0.475063 
0.516571 0.555024 0.589425 0.61928 0.644575 0.665648 0.683015 0.697221 0.708763 
0.718063 0.725474 0.731288 0.735746 0.739034 0.741289 0.742604 0.743027 0.742571 
0.741217 0.738913 0.735578 0.731092 0.725292 0.717955 0.708794 0.697443 0.683459 
0.66633 0.645504 0.62047 0.590888 0.556752 0.518529 0.185463 0.210349 0.239901 
0.27459 0.314463 0.35895 0.406787 0.456144 0.504912 0.55104 0.592863 0.629341 
0.66014 0.685539 0.706193 0.72288 0.736321 0.747106 0.7557 0.762479 0.767747 
0.77175 0.774678 0.776671 0.777819 0.778174 0.777748 0.77652 0.77444 0.771425 
0.767357 0.762074 0.755356 0.746905 0.736334 0.723148 0.706735 0.686378 0.66131 
0.630875 0.594763 0.553265 0.177175 0.203948 0.236554 0.275695 0.321445 0.372919 
0.428222 0.484755 0.539698 0.590483 0.635222 0.672983 0.703804 0.728426 0.747919 
0.763355 0.775613 0.78534 0.793011 0.798997 0.803599 0.807061 0.809569 0.811257 
0.812212 0.812484 0.812088 0.811003 0.809183 0.806543 0.802972 0.798314 0.792363 
0.784835 0.775341 0.763366 0.748236 0.729088 0.704878 0.674538 0.637276 0.592983 
0.166445 0.195297 0.231579 0.27634 0.329634 0.389973 0.454418 0.519268 0.580801 
0.635882 0.682549 0.720317 0.749913 0.77271 0.790245 0.803865 0.814559 0.822973 
0.829542 0.834606 0.838451 0.841312 0.843362 0.844722 0.845472 0.845656 0.845289 
0.844358 0.842822 0.840604 0.837594 0.833649 0.828587 0.822152 0.813985 0.80359 
0.79029 0.77314 0.750851 0.721882 0.684773 0.638688 0.152453 0.183567 0.224411 
0.276569 0.339908 0.411711 0.487357 0.561697 0.629883 0.688175 0.734978 0.770923 
0.797812 0.817699 0.832509 0.843807 0.852617 0.859517 0.864856 0.868915 0.871958 
0.8742 0.875793 0.876835 0.877387 0.877484 0.877144 0.876366 0.875125 0.873362 
0.870969 0.867804 0.863713 0.85849 0.85183 0.843298 0.832291 0.817891 0.79865 
0.772589 0.737487 0.691396 0.133821 0.167265 0.213967 0.276458 0.353771 0.440528 
0.529779 0.614766 0.68898 0.748044 0.792063 0.82394 0.846684 0.862707 0.874115 
0.882644 0.889301 0.894525 0.898552 0.901591 0.903859 0.905529 0.906714 0.907477 
0.907857 0.907878 0.907556 0.906906 0.905948 0.904663 0.902936 0.900602 0.897523 
0.89356 0.888484 0.881967 0.873578 0.862574 0.847476 0.825944 0.795179 0.751991 
0.0203114 0.0214738 0.0227382 0.0240865 0.0254477 0.0266604 0.0275296 0.0279361 0.0278915 
0.0275533 0.0271503 0.0268303 0.0266208 0.0265017 0.0264527 0.026453 0.0264808 0.0265176 
0.0265527 0.0265849 0.0266259 0.0266994 0.0268239 0.0269851 0.0271412 0.0272539 0.0273005 
0.0272717 0.0271669 0.0269947 0.0267754 0.0265476 0.0263604 0.0262381 0.0261686 0.0261354 
0.0261379 0.0261917 0.0263246 0.026571 0.0269514 0.027419 0.0265025 0.0277386 0.0290504 
0.0304138 0.0317783 0.0330489 0.0341019 0.0348401 0.0352386 0.0353613 0.0353308 0.0352617 
0.0352161 0.0352106 0.0352421 0.0352996 0.0353694 0.0354404 0.035507 0.035573 0.0356511 
0.0357583 0.0359028 0.0360707 0.0362289 0.0363424 0.0363855 0.0363456 0.0362216 0.0360241 
0.035777 0.035518 0.0352868 0.0351058 0.0349736 0.0348807 0.0348229 0.0348061 0.0348418 
0.0349361 0.0350685 0.035162 0.03292 0.0342585 0.0356587 0.0370963 0.0385319 0.0399024 
0.0411266 0.0421293 0.0428732 0.0433743 0.0436934 0.0439073 0.0440763 0.0442341 0.0443934 
0.0445549 0.0447138 0.0448654 0.0450087 0.0451481 0.0452921 0.0454488 0.0456193 0.0457919 
0.0459424 0.0460432 0.0460709 0.0460124 0.0458664 0.0456439 0.0453681 0.045071 0.0447833 
0.0445252 0.0443021 0.0441106 0.043946 0.0438057 0.0436853 0.0435694 0.0434176 0.0431579 
0.0395412 0.0410106 0.0425323 0.0440843 0.0456349 0.0471382 0.0485364 0.0497717 0.0508052 
0.0516297 0.0522713 0.0527759 0.0531913 0.0535534 0.0538836 0.0541921 0.0544814 0.054752 
0.0550047 0.0552423 0.0554686 0.0556858 0.0558912 0.0560745 0.0562185 0.0563029 0.056309 
0.0562259 0.0560523 0.0557985 0.0554843 0.0551351 0.0547753 0.0544223 0.0540841 0.0537613 
0.0534491 0.053139 0.0528163 0.0524539 0.0520086 0.0514237 0.0463287 0.0479564 0.0496291 
0.0513277 0.0530259 0.0546878 0.0562694 0.0577253 0.059019 0.0601336 0.0610755 0.0618696 
0.0625491 0.0631455 0.0636821 0.0641734 0.0646264 0.0650447 0.0654298 0.0657826 0.0661035 
0.066391 0.0666408 0.0668441 0.0669884 0.067059 0.0670425 0.0669309 0.0667234 0.0664288 
0.0660632 0.0656462 0.0651974 0.0647313 0.0642565 0.0637748 0.0632817 0.0627659 0.0622078 
0.0615785 0.0608401 0.0599521 0.0532372 0.0550487 0.0568994 0.0587721 0.0606447 0.0624876 
0.0642658 0.0659418 0.0674836 0.0688706 0.0700986 0.0711789 0.0721325 0.0729834 0.0737519 
0.0744526 0.0750944 0.0756819 0.0762164 0.0766975 0.0771233 0.0774909 0.077795 0.0780284 
0.0781815 0.0782441 0.0782067 0.078064 0.0778166 0.0774714 0.0770411 0.0765412 0.075987 
0.0753904 0.0747593 0.074096 0.0733961 0.0726482 0.0718336 0.0709264 0.0698975 0.0687198 
0.0602193 0.0622373 0.06429 0.066362 0.0684332 0.0704785 0.0724687 0.0743727 0.0761618 
0.0778148 0.0793225 0.0806871 0.0819204 0.083038 0.0840552 0.0849846 0.0858335 0.0866062 
0.0873033 0.0879234 0.0884639 0.0889207 0.0892887 0.0895613 0.0897317 0.0897921 0.0897365 
0.0895617 0.089269 0.0888642 0.0883571 0.0877601 0.0870849 0.0863417 0.0855375 0.0846744 
0.0837491 0.082752 0.0816673 0.0804759 0.0791573 0.0776959 0.0672306 0.0694755 0.0717524 
0.0740464 0.0763392 0.0786084 0.0808289 0.0829733 0.0850164 0.0869378 0.0887255 0.090376 
0.0918931 0.0932853 0.0945625 0.0957329 0.096802 0.097772 0.0986427 0.0994119 0.100076 
0.10063 0.101071 0.101391 0.101586 0.10165 0.101579 0.101371 0.101028 0.100555 
0.0999604 0.0992533 0.0984436 0.09754 0.0965482 0.0954711 0.0943069 0.0930485 0.0916858 
0.0902055 0.0885958 0.0868496 0.0742343 0.0767253 0.079247 0.0817847 0.0843212 0.0868364 
0.0893068 0.0917084 0.0940182 0.0962168 0.0982899 0.10023 0.102036 0.10371 0.105255 
0.106677 0.107976 0.109153 0.110207 0.111134 0.11193 0.112591 0.113111 0.113486 
0.113711 0.113783 0.113698 0.113456 0.113058 0.11251 0.111818 0.110989 0.110033 
0.108956 0.107765 0.106462 0.105049 0.103521 0.101873 0.100099 0.0981938 0.0961566 
0.0812037 0.0839584 0.0867447 0.0895477 0.0923504 0.0951334 0.0978753 0.100554 0.103147 
0.105636 0.108005 0.110244 0.112345 0.114308 0.116129 0.11781 0.119348 0.120741 
0.121987 0.12308 0.124017 0.124791 0.125399 0.125835 0.126095 0.126178 0.12608 
0.125802 0.125345 0.124715 0.123916 0.122955 0.121841 0.12058 0.119178 0.11764 
0.115968 0.114162 0.112223 0.110148 0.10794 0.105601 0.0881201 0.0911569 0.0942274 
0.0973169 0.100409 0.103483 0.106519 0.109496 0.112392 0.115188 0.117867 0.120416 
0.122824 0.125085 0.127192 0.129141 0.130927 0.132546 0.133993 0.135261 0.136346 
0.137241 0.137943 0.138446 0.138746 0.138842 0.138731 0.138415 0.137895 0.137175 
0.136261 0.135159 0.133876 0.13242 0.130796 0.129012 0.127072 0.124979 0.122739 
0.120354 0.11783 0.115178 0.094973 0.0983099 0.101685 0.105083 0.108487 0.111877 
0.115232 0.118531 0.121753 0.124877 0.127883 0.130758 0.133486 0.136057 0.138461 
0.14069 0.142736 0.144591 0.146249 0.147702 0.148943 0.149968 0.150769 0.151343 
0.151687 0.151797 0.151674 0.151317 0.150729 0.149913 0.148876 0.147622 0.14616 
0.144497 0.142641 0.140599 0.138379 0.135988 0.133434 0.130726 0.127873 0.124888 
0.101755 0.105411 0.109113 0.112843 0.116584 0.120315 0.124016 0.127663 0.131235 
0.13471 0.138066 0.141286 0.144352 0.14725 0.149966 0.152488 0.154806 0.156909 
0.158789 0.160437 0.161845 0.163006 0.163914 0.164565 0.164955 0.165082 0.164945 
0.164545 0.163884 0.162965 0.161795 0.16038 0.158727 0.156846 0.154743 0.15243 
0.149917 0.147213 0.144331 0.141282 0.13808 0.134743 0.108461 0.112458 0.116508 
0.120595 0.1247 0.128801 0.132876 0.1369 0.14085 0.144703 0.148434 0.152023 
0.155448 0.158692 0.161739 0.164572 0.167178 0.169544 0.171659 0.173513 0.175097 
0.176403 0.177426 0.178158 0.178598 0.178742 0.178591 0.178144 0.177405 0.176377 
0.175065 0.173477 0.171622 0.169507 0.167144 0.164544 0.16172 0.158686 0.155455 
0.152045 0.148472 0.144756 0.115088 0.119447 0.123871 0.128342 0.132839 0.13734 
0.14182 0.146253 0.150614 0.154874 0.15901 0.162995 0.166807 0.170422 0.173821 
0.176985 0.179898 0.182543 0.184909 0.186983 0.188754 0.190215 0.191358 0.192178 
0.192671 0.192834 0.192667 0.19217 0.191347 0.190201 0.188739 0.186966 0.184893 
0.182531 0.17989 0.176985 0.17383 0.170442 0.16684 0.163042 0.15907 0.154948 
0.121629 0.126375 0.1312 0.136084 0.141006 0.14594 0.15086 0.155738 0.160544 
0.165249 0.169822 0.174237 0.178464 0.182479 0.186257 0.189776 0.193018 0.195963 
0.198596 0.200904 0.202876 0.204502 0.205774 0.206686 0.207235 0.207418 0.207234 
0.206685 0.205772 0.2045 0.202875 0.200906 0.198601 0.195973 0.193034 0.189802 
0.186292 0.182524 0.178522 0.174307 0.169905 0.165343 0.128078 0.133237 0.138492 
0.143822 0.149203 0.154609 0.160008 0.16537 0.170661 0.17585 0.180901 0.185782 
0.190461 0.194909 0.199097 0.203 0.206595 0.209861 0.212782 0.215342 0.217528 
0.21933 0.22074 0.221752 0.22236 0.222564 0.222363 0.221756 0.220746 0.219339 
0.217541 0.21536 0.212806 0.209892 0.206633 0.203048 0.199156 0.194979 0.190543 
0.185875 0.181006 0.175965 0.134425 0.140025 0.145743 0.151555 0.157435 0.163352 
0.169274 0.175165 0.180989 0.186707 0.19228 0.197671 0.202843 0.207762 0.212396 
0.216714 0.220692 0.224306 0.227536 0.230366 0.232782 0.234773 0.23633 0.237447 
0.23812 0.238346 0.238125 0.237456 0.236344 0.234793 0.232808 0.230399 0.227577 
0.224356 0.220752 0.216785 0.212478 0.207856 0.202948 0.197788 0.192407 0.186844 
0.140654 0.146728 0.152944 0.159278 0.165699 0.172176 0.17867 0.185142 0.19155 
0.197849 0.203996 0.209947 0.21566 0.221094 0.226214 0.230985 0.235378 0.239367 
0.242932 0.246052 0.248715 0.250908 0.252623 0.253853 0.254594 0.254843 0.254601 
0.253867 0.252645 0.250937 0.248753 0.2461 0.24299 0.239436 0.235458 0.231077 
0.226318 0.221211 0.215789 0.210088 0.204147 0.198009 0.14675 0.153331 0.160084 
0.166983 0.173995 0.181083 0.188206 0.195317 0.202369 0.20931 0.21609 0.222658 
0.228965 0.234966 0.240617 0.245883 0.250728 0.255125 0.259049 0.262483 0.26541 
0.26782 0.269703 0.271053 0.271866 0.272141 0.271876 0.271072 0.269731 0.267859 
0.26546 0.262544 0.259123 0.255211 0.250828 0.245996 0.240745 0.235106 0.229118 
0.222822 0.216265 0.209494 0.152686 0.159811 0.167145 0.174658 0.182316 0.190075 
0.19789 0.205707 0.213471 0.221123 0.228604 0.235855 0.242819 0.249444 0.25568 
0.261486 0.266823 0.271662 0.275977 0.279747 0.282958 0.285598 0.28766 0.289138 
0.290028 0.290329 0.290039 0.289161 0.287696 0.285646 0.283019 0.279821 0.276065 
0.271766 0.266942 0.26162 0.25583 0.249608 0.242997 0.236045 0.228805 0.221334 
0.158433 0.166143 0.174105 0.182287 0.190651 0.199149 0.207728 0.216328 0.224884 
0.233327 0.241587 0.249596 0.257289 0.264602 0.271482 0.27788 0.283755 0.289073 
0.293808 0.29794 0.301454 0.304341 0.306592 0.308204 0.309175 0.309503 0.309189 
0.308231 0.306633 0.304396 0.301525 0.298027 0.293912 0.289194 0.283893 0.278036 
0.271655 0.264792 0.257493 0.249814 0.241817 0.233566 0.163954 0.172291 0.180932 
0.189844 0.198983 0.208297 0.217725 0.227197 0.236635 0.245961 0.255092 0.263946 
0.272448 0.280525 0.288114 0.295162 0.301622 0.307459 0.312647 0.317166 0.321002 
0.324148 0.326599 0.328352 0.329407 0.329764 0.329422 0.328382 0.326645 0.324211 
0.321083 0.317265 0.312765 0.307597 0.30178 0.29534 0.288312 0.280741 0.272681 
0.264194 0.255352 0.246231 0.1692 0.178212 0.187589 0.197298 0.207291 0.217508 
0.22788 0.238325 0.248753 0.259069 0.269176 0.278977 0.288381 0.297305 0.305677 
0.313436 0.320534 0.326932 0.332605 0.337534 0.341711 0.345128 0.347787 0.349687 
0.350829 0.351215 0.350846 0.349721 0.347839 0.345199 0.3418 0.337645 0.332737 
0.327087 0.320712 0.313638 0.305902 0.297551 0.288645 0.279257 0.26947 0.259374 
0.174117 0.183851 0.194027 0.204607 0.215541 0.226763 0.23819 0.249727 0.261269 
0.272701 0.283905 0.294768 0.30518 0.315047 0.324284 0.332822 0.340611 0.347612 
0.353801 0.359164 0.363695 0.367395 0.370268 0.372317 0.373548 0.373964 0.373566 
0.372353 0.370324 0.367471 0.363793 0.359285 0.353947 0.347785 0.340811 0.333049 
0.324537 0.315325 0.30548 0.295086 0.284238 0.273045 0.178636 0.189144 0.200184 
0.211718 0.223694 0.236035 0.248646 0.261415 0.274215 0.286908 0.299354 0.311412 
0.322955 0.333871 0.34406 0.35345 0.361986 0.36963 0.376364 0.382178 0.387075 
0.391063 0.394152 0.396351 0.39767 0.398116 0.39769 0.39639 0.39421 0.391144 
0.38718 0.38231 0.376524 0.369821 0.362208 0.353704 0.344345 0.334184 0.323295 
0.311773 0.299732 0.287299 0.182677 0.194012 0.205988 0.218569 0.231698 0.245289 
0.259234 0.273399 0.287629 0.301756 0.315608 0.329017 0.34183 0.35391 0.365149 
0.375465 0.384802 0.393126 0.400427 0.406704 0.411972 0.416247 0.419549 0.421895 
0.423299 0.423774 0.423319 0.421934 0.419609 0.416331 0.412083 0.406846 0.4006 
0.393335 0.385047 0.375748 0.365469 0.354264 0.342215 0.329429 0.316039 0.3022 
0.186146 0.198362 0.21135 0.22508 0.239488 0.254483 0.269938 0.285689 0.30155 
0.317314 0.33277 0.347709 0.361945 0.37532 0.38771 0.399025 0.409212 0.418246 
0.426127 0.43287 0.438503 0.443056 0.44656 0.449045 0.45053 0.45103 0.450549 
0.449084 0.446622 0.443142 0.438617 0.433018 0.426312 0.418473 0.409482 0.39934 
0.38807 0.375723 0.362385 0.348178 0.333262 0.317822 0.188935 0.202086 0.216167 
0.231155 0.246988 0.263564 0.280733 0.298299 0.31603 0.333672 0.350957 0.367631 
0.383467 0.398276 0.411918 0.424301 0.435377 0.445136 0.453596 0.460793 0.466773 
0.471584 0.475274 0.477881 0.479437 0.47996 0.479455 0.47792 0.475335 0.471671 
0.466889 0.460946 0.453792 0.445381 0.435674 0.424653 0.412325 0.398734 0.38397 
0.368172 0.351525 0.334257 0.190921 0.205058 0.220317 0.236686 0.254108 0.272469 
0.291594 0.311245 0.331134 0.350936 0.370318 0.38896 0.406586 0.422973 0.437965 
0.451471 0.463458 0.473938 0.482956 0.490575 0.496866 0.501902 0.505748 0.508457 
0.51007 0.510611 0.510088 0.508495 0.505807 0.501987 0.496983 0.49073 0.483161 
0.474201 0.463785 0.451865 0.438426 0.423497 0.407166 0.389587 0.370978 0.351615 
0.19197 0.207141 0.223663 0.241548 0.260745 0.281133 0.302502 0.324562 0.346948 
0.369247 0.391032 0.411905 0.431523 0.449627 0.46605 0.480711 0.493603 0.504771 
0.514298 0.522283 0.528831 0.534041 0.538002 0.540782 0.542433 0.542986 0.542451 
0.540818 0.538057 0.534121 0.528943 0.522438 0.514509 0.505051 0.493961 0.481153 
0.466575 0.450231 0.432197 0.412636 0.391805 0.370044 0.191937 0.208183 0.226059 
0.245608 0.266796 0.289493 0.313453 0.338311 0.363601 0.388789 0.413329 0.436715 
0.458529 0.478472 0.496374 0.512181 0.525927 0.537711 0.547662 0.555929 0.562654 
0.567971 0.571991 0.574803 0.576469 0.577026 0.576486 0.574837 0.572042 0.568045 
0.562759 0.55608 0.547877 0.538007 0.52632 0.512677 0.496974 0.47917 0.459314 
0.437574 0.414242 0.389734 0.190672 0.208027 0.22735 0.24873 0.272161 0.297507 
0.324474 0.3526 0.38128 0.409818 0.437502 0.463693 0.487884 0.509744 0.529117 
0.545997 0.56049 0.572763 0.583013 0.591442 0.598241 0.603576 0.607588 0.610383 
0.612037 0.61259 0.612055 0.610418 0.607636 0.60364 0.598333 0.591581 0.583224 
0.573072 0.560917 0.546553 0.529801 0.510552 0.488803 0.464706 0.438587 0.410948 
0.188028 0.206518 0.227385 0.250787 0.276762 0.305173 0.33566 0.367627 0.400276 
0.432685 0.463931 0.493202 0.519898 0.543668 0.564407 0.582202 0.597255 0.609829 
0.620204 0.628643 0.635384 0.640634 0.644558 0.647282 0.64889 0.649429 0.64891 
0.647316 0.6446 0.640682 0.635451 0.628756 0.620399 0.610142 0.597711 0.582816 
0.565183 0.544596 0.520966 0.494394 0.465222 0.434044 0.183858 0.2035 0.226018 
0.251672 0.280567 0.312565 0.347213 0.383723 0.421023 0.457886 0.493106 0.525671 
0.554887 0.580427 0.602293 0.620719 0.636053 0.648676 0.658954 0.667217 0.673751 
0.678796 0.682545 0.685136 0.686665 0.687178 0.686687 0.685169 0.682572 0.678813 
0.673771 0.667277 0.659104 0.648965 0.63652 0.621382 0.603152 0.581474 0.556111 