# vtk DataFile Version 4.0
vtk output
ASCII
DATASET STRUCTURED_POINTS
DIMENSIONS 62 62 62
SPACING 0.05 0.05 0.05
ORIGIN -1.525 -1.525 -1.525
POINT_DATA 238328
FIELD FieldData 1
potential 1 238328 double
0.00832459 0.00832709 0.00832959 0.0083321 0.00833461 0.00833712 0.00833963 0.00834214 0.00834466 
0.00834717 0.00834969 0.00835221 0.00835473 0.00835726 0.00835978 0.00836231 0.00836484 0.00836737 
0.00836991 0.00837244 0.00837498 0.00837752 0.00838006 0.0083826 0.00838515 0.00838769 0.00839024 
0.00839279 0.00839535 0.0083979 0.00840046 0.00840301 0.00840557 0.00840814 0.0084107 0.00841327 
0.00841583 0.0084184 0.00842098 0.00842355 0.00842612 0.0084287 0.00843128 0.00843386 0.00843645 
0.00843903 0.00844162 0.00844421 0.0084468 0.00844939 0.00845199 0.00845458 0.00845718 0.00845978 
0.00846239 0.00846499 0.0084676 0.00847021 0.00847282 0.00847543 0.00847805 0.00848066 0.00832595 
0.00832845 0.00833096 0.00833346 0.00833597 0.00833848 0.00834099 0.00834351 0.00834602 0.00834854 
0.00835106 0.00835358 0.00835611 0.00835863 0.00836116 0.00836369 0.00836622 0.00836875 0.00837129 
0.00837382 0.00837636 0.0083789 0.00838145 0.00838399 0.00838654 0.00838908 0.00839163 0.00839419 
0.00839674 0.00839929 0.00840185 0.00840441 0.00840697 0.00840954 0.0084121 0.00841467 0.00841724 
0.00841981 0.00842238 0.00842496 0.00842753 0.00843011 0.00843269 0.00843527 0.00843786 0.00844045 
0.00844303 0.00844562 0.00844822 0.00845081 0.00845341 0.00845601 0.00845861 0.00846121 0.00846381 
0.00846642 0.00846903 0.00847164 0.00847425 0.00847686 0.00847948 0.0084821 0.00832731 0.00832981 
0.00833232 0.00833483 0.00833734 0.00833985 0.00834236 0.00834488 0.00834739 0.00834991 0.00835243 
0.00835496 0.00835748 0.00836001 0.00836254 0.00836507 0.0083676 0.00837013 0.00837267 0.00837521 
0.00837775 0.00838029 0.00838283 0.00838538 0.00838792 0.00839047 0.00839302 0.00839558 0.00839813 
0.00840069 0.00840325 0.00840581 0.00840837 0.00841094 0.0084135 0.00841607 0.00841864 0.00842121 
0.00842379 0.00842636 0.00842894 0.00843152 0.0084341 0.00843669 0.00843927 0.00844186 0.00844445 
0.00844704 0.00844964 0.00845223 0.00845483 0.00845743 0.00846003 0.00846263 0.00846524 0.00846785 
0.00847045 0.00847307 0.00847568 0.0084783 0.00848091 0.00848353 0.00832867 0.00833117 0.00833368 
0.00833619 0.0083387 0.00834121 0.00834373 0.00834625 0.00834876 0.00835128 0.00835381 0.00835633 
0.00835886 0.00836138 0.00836391 0.00836644 0.00836898 0.00837151 0.00837405 0.00837659 0.00837913 
0.00838167 0.00838422 0.00838676 0.00838931 0.00839186 0.00839442 0.00839697 0.00839953 0.00840208 
0.00840464 0.00840721 0.00840977 0.00841234 0.0084149 0.00841747 0.00842004 0.00842262 0.00842519 
0.00842777 0.00843035 0.00843293 0.00843551 0.0084381 0.00844069 0.00844327 0.00844587 0.00844846 
0.00845105 0.00845365 0.00845625 0.00845885 0.00846145 0.00846406 0.00846666 0.00846927 0.00847188 
0.0084745 0.00847711 0.00847973 0.00848235 0.00848497 0.00833003 0.00833254 0.00833504 0.00833755 
0.00834007 0.00834258 0.0083451 0.00834761 0.00835013 0.00835265 0.00835518 0.0083577 0.00836023 
0.00836276 0.00836529 0.00836782 0.00837036 0.00837289 0.00837543 0.00837797 0.00838051 0.00838306 
0.0083856 0.00838815 0.0083907 0.00839325 0.00839581 0.00839836 0.00840092 0.00840348 0.00840604 
0.0084086 0.00841117 0.00841373 0.0084163 0.00841887 0.00842145 0.00842402 0.0084266 0.00842918 
0.00843176 0.00843434 0.00843692 0.00843951 0.0084421 0.00844469 0.00844728 0.00844988 0.00845247 
0.00845507 0.00845767 0.00846027 0.00846288 0.00846548 0.00846809 0.0084707 0.00847331 0.00847592 
0.00847854 0.00848116 0.00848378 0.0084864 0.00833139 0.0083339 0.00833641 0.00833892 0.00834143 
0.00834395 0.00834646 0.00834898 0.0083515 0.00835403 0.00835655 0.00835908 0.0083616 0.00836413 
0.00836667 0.0083692 0.00837174 0.00837427 0.00837681 0.00837935 0.0083819 0.00838444 0.00838699 
0.00838954 0.00839209 0.00839464 0.0083972 0.00839975 0.00840231 0.00840487 0.00840744 0.00841 
0.00841257 0.00841513 0.0084177 0.00842028 0.00842285 0.00842543 0.008428 0.00843058 0.00843317 
0.00843575 0.00843833 0.00844092 0.00844351 0.0084461 0.0084487 0.00845129 0.00845389 0.00845649 
0.00845909 0.00846169 0.0084643 0.00846691 0.00846951 0.00847213 0.00847474 0.00847735 0.00847997 
0.00848259 0.00848521 0.00848783 0.00833275 0.00833526 0.00833777 0.00834028 0.0083428 0.00834531 
0.00834783 0.00835035 0.00835287 0.0083554 0.00835792 0.00836045 0.00836298 0.00836551 0.00836804 
0.00837058 0.00837312 0.00837565 0.00837819 0.00838074 0.00838328 0.00838583 0.00838838 0.00839093 
0.00839348 0.00839603 0.00839859 0.00840115 0.00840371 0.00840627 0.00840883 0.0084114 0.00841396 
0.00841653 0.00841911 0.00842168 0.00842425 0.00842683 0.00842941 0.00843199 0.00843457 0.00843716 
0.00843975 0.00844233 0.00844492 0.00844752 0.00845011 0.00845271 0.00845531 0.00845791 0.00846051 
0.00846312 0.00846572 0.00846833 0.00847094 0.00847355 0.00847617 0.00847878 0.0084814 0.00848402 
0.00848664 0.00848927 0.00833411 0.00833662 0.00833913 0.00834165 0.00834416 0.00834668 0.0083492 
0.00835172 0.00835424 0.00835677 0.00835929 0.00836182 0.00836435 0.00836689 0.00836942 0.00837196 
0.00837449 0.00837703 0.00837958 0.00838212 0.00838467 0.00838721 0.00838976 0.00839231 0.00839487 
0.00839742 0.00839998 0.00840254 0.0084051 0.00840766 0.00841023 0.00841279 0.00841536 0.00841793 
0.00842051 0.00842308 0.00842566 0.00842824 0.00843082 0.0084334 0.00843598 0.00843857 0.00844116 
0.00844375 0.00844634 0.00844893 0.00845153 0.00845413 0.00845673 0.00845933 0.00846193 0.00846454 
0.00846714 0.00846975 0.00847237 0.00847498 0.0084776 0.00848021 0.00848283 0.00848545 0.00848808 
0.0084907 0.00833547 0.00833798 0.00834049 0.00834301 0.00834553 0.00834804 0.00835056 0.00835309 
0.00835561 0.00835814 0.00836067 0.0083632 0.00836573 0.00836826 0.0083708 0.00837333 0.00837587 
0.00837841 0.00838096 0.0083835 0.00838605 0.0083886 0.00839115 0.0083937 0.00839626 0.00839881 
0.00840137 0.00840393 0.00840649 0.00840906 0.00841162 0.00841419 0.00841676 0.00841933 0.00842191 
0.00842448 0.00842706 0.00842964 0.00843222 0.0084348 0.00843739 0.00843998 0.00844257 0.00844516 
0.00844775 0.00845035 0.00845294 0.00845554 0.00845814 0.00846075 0.00846335 0.00846596 0.00846857 
0.00847118 0.00847379 0.00847641 0.00847902 0.00848164 0.00848426 0.00848689 0.00848951 0.00849214 
0.00833683 0.00833934 0.00834186 0.00834437 0.00834689 0.00834941 0.00835193 0.00835446 0.00835698 
0.00835951 0.00836204 0.00836457 0.0083671 0.00836964 0.00837217 0.00837471 0.00837725 0.00837979 
0.00838234 0.00838489 0.00838743 0.00838998 0.00839254 0.00839509 0.00839764 0.0084002 0.00840276 
0.00840532 0.00840789 0.00841045 0.00841302 0.00841559 0.00841816 0.00842073 0.00842331 0.00842588 
0.00842846 0.00843104 0.00843363 0.00843621 0.0084388 0.00844139 0.00844398 0.00844657 0.00844916 
0.00845176 0.00845436 0.00845696 0.00845956 0.00846217 0.00846477 0.00846738 0.00846999 0.0084726 
0.00847522 0.00847783 0.00848045 0.00848307 0.00848569 0.00848832 0.00849094 0.00849357 0.00833819 
0.0083407 0.00834322 0.00834574 0.00834826 0.00835078 0.0083533 0.00835582 0.00835835 0.00836088 
0.00836341 0.00836594 0.00836848 0.00837101 0.00837355 0.00837609 0.00837863 0.00838117 0.00838372 
0.00838627 0.00838882 0.00839137 0.00839392 0.00839648 0.00839903 0.00840159 0.00840415 0.00840672 
0.00840928 0.00841185 0.00841442 0.00841699 0.00841956 0.00842213 0.00842471 0.00842729 0.00842987 
0.00843245 0.00843503 0.00843762 0.00844021 0.0084428 0.00844539 0.00844798 0.00845058 0.00845317 
0.00845577 0.00845838 0.00846098 0.00846359 0.00846619 0.0084688 0.00847141 0.00847403 0.00847664 
0.00847926 0.00848188 0.0084845 0.00848712 0.00848975 0.00849238 0.00849501 0.00833955 0.00834206 
0.00834458 0.0083471 0.00834962 0.00835214 0.00835467 0.00835719 0.00835972 0.00836225 0.00836478 
0.00836731 0.00836985 0.00837239 0.00837493 0.00837747 0.00838001 0.00838255 0.0083851 0.00838765 
0.0083902 0.00839275 0.00839531 0.00839786 0.00840042 0.00840298 0.00840554 0.00840811 0.00841067 
0.00841324 0.00841581 0.00841838 0.00842096 0.00842353 0.00842611 0.00842869 0.00843127 0.00843385 
0.00843644 0.00843903 0.00844161 0.00844421 0.0084468 0.00844939 0.00845199 0.00845459 0.00845719 
0.00845979 0.0084624 0.008465 0.00846761 0.00847022 0.00847284 0.00847545 0.00847807 0.00848069 
0.00848331 0.00848593 0.00848855 0.00849118 0.00849381 0.00849644 0.00834091 0.00834343 0.00834594 
0.00834846 0.00835098 0.00835351 0.00835603 0.00835856 0.00836109 0.00836362 0.00836615 0.00836869 
0.00837122 0.00837376 0.0083763 0.00837884 0.00838139 0.00838393 0.00838648 0.00838903 0.00839158 
0.00839414 0.00839669 0.00839925 0.00840181 0.00840437 0.00840693 0.0084095 0.00841207 0.00841464 
0.00841721 0.00841978 0.00842235 0.00842493 0.00842751 0.00843009 0.00843267 0.00843526 0.00843784 
0.00844043 0.00844302 0.00844561 0.00844821 0.0084508 0.0084534 0.008456 0.00845861 0.00846121 
0.00846382 0.00846642 0.00846903 0.00847165 0.00847426 0.00847688 0.00847949 0.00848211 0.00848474 
0.00848736 0.00848999 0.00849261 0.00849524 0.00849787 0.00834227 0.00834479 0.00834731 0.00834983 
0.00835235 0.00835487 0.0083574 0.00835993 0.00836246 0.00836499 0.00836752 0.00837006 0.0083726 
0.00837514 0.00837768 0.00838022 0.00838277 0.00838532 0.00838786 0.00839042 0.00839297 0.00839552 
0.00839808 0.00840064 0.0084032 0.00840576 0.00840833 0.00841089 0.00841346 0.00841603 0.0084186 
0.00842118 0.00842375 0.00842633 0.00842891 0.00843149 0.00843408 0.00843666 0.00843925 0.00844184 
0.00844443 0.00844702 0.00844962 0.00845222 0.00845482 0.00845742 0.00846002 0.00846263 0.00846523 
0.00846784 0.00847045 0.00847307 0.00847568 0.0084783 0.00848092 0.00848354 0.00848616 0.00848879 
0.00849142 0.00849404 0.00849668 0.00849931 0.00834363 0.00834615 0.00834867 0.00835119 0.00835371 
0.00835624 0.00835877 0.0083613 0.00836383 0.00836636 0.0083689 0.00837143 0.00837397 0.00837651 
0.00837906 0.0083816 0.00838415 0.0083867 0.00838925 0.0083918 0.00839435 0.00839691 0.00839947 
0.00840203 0.00840459 0.00840715 0.00840972 0.00841228 0.00841485 0.00841742 0.00842 0.00842257 
0.00842515 0.00842773 0.00843031 0.00843289 0.00843548 0.00843807 0.00844065 0.00844325 0.00844584 
0.00844843 0.00845103 0.00845363 0.00845623 0.00845883 0.00846144 0.00846404 0.00846665 0.00846926 
0.00847187 0.00847449 0.00847711 0.00847972 0.00848234 0.00848497 0.00848759 0.00849022 0.00849285 
0.00849548 0.00849811 0.00850074 0.00834499 0.00834751 0.00835003 0.00835255 0.00835508 0.00835761 
0.00836013 0.00836266 0.0083652 0.00836773 0.00837027 0.00837281 0.00837535 0.00837789 0.00838043 
0.00838298 0.00838553 0.00838808 0.00839063 0.00839318 0.00839574 0.00839829 0.00840085 0.00840341 
0.00840598 0.00840854 0.00841111 0.00841368 0.00841625 0.00841882 0.00842139 0.00842397 0.00842655 
0.00842913 0.00843171 0.0084343 0.00843688 0.00843947 0.00844206 0.00844465 0.00844725 0.00844984 
0.00845244 0.00845504 0.00845764 0.00846025 0.00846285 0.00846546 0.00846807 0.00847068 0.00847329 
0.00847591 0.00847853 0.00848115 0.00848377 0.00848639 0.00848902 0.00849165 0.00849428 0.00849691 
0.00849954 0.00850218 0.00834635 0.00834887 0.00835139 0.00835392 0.00835644 0.00835897 0.0083615 
0.00836403 0.00836657 0.0083691 0.00837164 0.00837418 0.00837672 0.00837926 0.00838181 0.00838436 
0.0083869 0.00838946 0.00839201 0.00839456 0.00839712 0.00839968 0.00840224 0.0084048 0.00840736 
0.00840993 0.0084125 0.00841507 0.00841764 0.00842021 0.00842279 0.00842537 0.00842795 0.00843053 
0.00843311 0.0084357 0.00843829 0.00844087 0.00844347 0.00844606 0.00844865 0.00845125 0.00845385 
0.00845645 0.00845905 0.00846166 0.00846427 0.00846688 0.00846949 0.0084721 0.00847472 0.00847733 
0.00847995 0.00848257 0.0084852 0.00848782 0.00849045 0.00849308 0.00849571 0.00849834 0.00850097 
0.00850361 0.00834771 0.00835023 0.00835275 0.00835528 0.00835781 0.00836034 0.00836287 0.0083654 
0.00836794 0.00837047 0.00837301 0.00837555 0.00837809 0.00838064 0.00838319 0.00838573 0.00838828 
0.00839084 0.00839339 0.00839594 0.0083985 0.00840106 0.00840362 0.00840619 0.00840875 0.00841132 
0.00841389 0.00841646 0.00841903 0.00842161 0.00842419 0.00842676 0.00842935 0.00843193 0.00843451 
0.0084371 0.00843969 0.00844228 0.00844487 0.00844747 0.00845006 0.00845266 0.00845526 0.00845786 
0.00846047 0.00846307 0.00846568 0.00846829 0.00847091 0.00847352 0.00847614 0.00847875 0.00848137 
0.008484 0.00848662 0.00848925 0.00849187 0.00849451 0.00849714 0.00849977 0.00850241 0.00850505 
0.00834907 0.00835159 0.00835412 0.00835664 0.00835917 0.0083617 0.00836423 0.00836677 0.00836931 
0.00837184 0.00837438 0.00837692 0.00837947 0.00838201 0.00838456 0.00838711 0.00838966 0.00839222 
0.00839477 0.00839733 0.00839989 0.00840245 0.00840501 0.00840757 0.00841014 0.00841271 0.00841528 
0.00841785 0.00842043 0.008423 0.00842558 0.00842816 0.00843074 0.00843333 0.00843591 0.0084385 
0.00844109 0.00844368 0.00844628 0.00844887 0.00845147 0.00845407 0.00845667 0.00845928 0.00846188 
0.00846449 0.0084671 0.00846971 0.00847232 0.00847494 0.00847756 0.00848018 0.0084828 0.00848542 
0.00848805 0.00849067 0.0084933 0.00849593 0.00849857 0.0085012 0.00850384 0.00850648 0.00835043 
0.00835295 0.00835548 0.00835801 0.00836054 0.00836307 0.0083656 0.00836814 0.00837067 0.00837321 
0.00837575 0.0083783 0.00838084 0.00838339 0.00838594 0.00838849 0.00839104 0.0083936 0.00839615 
0.00839871 0.00840127 0.00840383 0.0084064 0.00840896 0.00841153 0.0084141 0.00841667 0.00841924 
0.00842182 0.0084244 0.00842698 0.00842956 0.00843214 0.00843473 0.00843731 0.0084399 0.00844249 
0.00844509 0.00844768 0.00845028 0.00845288 0.00845548 0.00845808 0.00846069 0.00846329 0.0084659 
0.00846851 0.00847113 0.00847374 0.00847636 0.00847898 0.0084816 0.00848422 0.00848684 0.00848947 
0.0084921 0.00849473 0.00849736 0.0085 0.00850264 0.00850527 0.00850791 0.00835179 0.00835431 
0.00835684 0.00835937 0.0083619 0.00836443 0.00836697 0.00836951 0.00837204 0.00837458 0.00837713 
0.00837967 0.00838222 0.00838476 0.00838731 0.00838987 0.00839242 0.00839498 0.00839753 0.00840009 
0.00840265 0.00840522 0.00840778 0.00841035 0.00841292 0.00841549 0.00841806 0.00842064 0.00842321 
0.00842579 0.00842837 0.00843096 0.00843354 0.00843613 0.00843871 0.0084413 0.0084439 0.00844649 
0.00844909 0.00845169 0.00845429 0.00845689 0.00845949 0.0084621 0.00846471 0.00846732 0.00846993 
0.00847254 0.00847516 0.00847778 0.0084804 0.00848302 0.00848564 0.00848827 0.0084909 0.00849353 
0.00849616 0.00849879 0.00850143 0.00850407 0.00850671 0.00850935 0.00835315 0.00835568 0.0083582 
0.00836073 0.00836327 0.0083658 0.00836834 0.00837087 0.00837341 0.00837595 0.0083785 0.00838104 
0.00838359 0.00838614 0.00838869 0.00839124 0.0083938 0.00839636 0.00839891 0.00840147 0.00840404 
0.0084066 0.00840917 0.00841174 0.00841431 0.00841688 0.00841945 0.00842203 0.00842461 0.00842719 
0.00842977 0.00843235 0.00843494 0.00843753 0.00844011 0.00844271 0.0084453 0.0084479 0.00845049 
0.00845309 0.00845569 0.0084583 0.0084609 0.00846351 0.00846612 0.00846873 0.00847134 0.00847396 
0.00847658 0.0084792 0.00848182 0.00848444 0.00848707 0.00848969 0.00849232 0.00849495 0.00849759 
0.00850022 0.00850286 0.0085055 0.00850814 0.00851078 0.00835451 0.00835704 0.00835957 0.0083621 
0.00836463 0.00836717 0.0083697 0.00837224 0.00837478 0.00837732 0.00837987 0.00838242 0.00838496 
0.00838751 0.00839007 0.00839262 0.00839518 0.00839773 0.00840029 0.00840286 0.00840542 0.00840799 
0.00841055 0.00841312 0.00841569 0.00841827 0.00842084 0.00842342 0.008426 0.00842858 0.00843116 
0.00843375 0.00843634 0.00843892 0.00844152 0.00844411 0.0084467 0.0084493 0.0084519 0.0084545 
0.0084571 0.00845971 0.00846231 0.00846492 0.00846753 0.00847014 0.00847276 0.00847538 0.00847799 
0.00848061 0.00848324 0.00848586 0.00848849 0.00849112 0.00849375 0.00849638 0.00849901 0.00850165 
0.00850429 0.00850693 0.00850957 0.00851222 0.00835587 0.0083584 0.00836093 0.00836346 0.00836599 
0.00836853 0.00837107 0.00837361 0.00837615 0.0083787 0.00838124 0.00838379 0.00838634 0.00838889 
0.00839144 0.008394 0.00839656 0.00839911 0.00840168 0.00840424 0.0084068 0.00840937 0.00841194 
0.00841451 0.00841708 0.00841966 0.00842223 0.00842481 0.00842739 0.00842997 0.00843256 0.00843515 
0.00843773 0.00844032 0.00844292 0.00844551 0.00844811 0.0084507 0.0084533 0.00845591 0.00845851 
0.00846112 0.00846372 0.00846633 0.00846894 0.00847156 0.00847417 0.00847679 0.00847941 0.00848203 
0.00848466 0.00848728 0.00848991 0.00849254 0.00849517 0.00849781 0.00850044 0.00850308 0.00850572 
0.00850836 0.00851101 0.00851365 0.00835723 0.00835976 0.00836229 0.00836482 0.00836736 0.0083699 
0.00837244 0.00837498 0.00837752 0.00838007 0.00838261 0.00838516 0.00838771 0.00839026 0.00839282 
0.00839538 0.00839793 0.00840049 0.00840306 0.00840562 0.00840819 0.00841076 0.00841333 0.0084159 
0.00841847 0.00842105 0.00842362 0.0084262 0.00842879 0.00843137 0.00843395 0.00843654 0.00843913 
0.00844172 0.00844432 0.00844691 0.00844951 0.00845211 0.00845471 0.00845731 0.00845992 0.00846252 
0.00846513 0.00846774 0.00847036 0.00847297 0.00847559 0.00847821 0.00848083 0.00848345 0.00848608 
0.0084887 0.00849133 0.00849396 0.0084966 0.00849923 0.00850187 0.00850451 0.00850715 0.00850979 
0.00851244 0.00851509 0.00835859 0.00836112 0.00836365 0.00836619 0.00836872 0.00837126 0.0083738 
0.00837634 0.00837889 0.00838144 0.00838398 0.00838653 0.00838909 0.00839164 0.0083942 0.00839675 
0.00839931 0.00840187 0.00840444 0.008407 0.00840957 0.00841214 0.00841471 0.00841728 0.00841986 
0.00842244 0.00842502 0.0084276 0.00843018 0.00843276 0.00843535 0.00843794 0.00844053 0.00844312 
0.00844572 0.00844831 0.00845091 0.00845351 0.00845611 0.00845872 0.00846133 0.00846393 0.00846654 
0.00846916 0.00847177 0.00847439 0.008477 0.00847963 0.00848225 0.00848487 0.0084875 0.00849013 
0.00849276 0.00849539 0.00849802 0.00850066 0.0085033 0.00850594 0.00850858 0.00851122 0.00851387 
0.00851652 0.00835995 0.00836248 0.00836501 0.00836755 0.00837009 0.00837263 0.00837517 0.00837771 
0.00838026 0.00838281 0.00838536 0.00838791 0.00839046 0.00839301 0.00839557 0.00839813 0.00840069 
0.00840325 0.00840582 0.00840839 0.00841095 0.00841352 0.0084161 0.00841867 0.00842125 0.00842383 
0.00842641 0.00842899 0.00843157 0.00843416 0.00843675 0.00843934 0.00844193 0.00844452 0.00844712 
0.00844971 0.00845231 0.00845492 0.00845752 0.00846013 0.00846273 0.00846534 0.00846795 0.00847057 
0.00847318 0.0084758 0.00847842 0.00848104 0.00848367 0.00848629 0.00848892 0.00849155 0.00849418 
0.00849681 0.00849945 0.00850209 0.00850473 0.00850737 0.00851001 0.00851266 0.0085153 0.00851795 
0.00836131 0.00836384 0.00836638 0.00836891 0.00837145 0.00837399 0.00837654 0.00837908 0.00838163 
0.00838418 0.00838673 0.00838928 0.00839183 0.00839439 0.00839695 0.00839951 0.00840207 0.00840463 
0.0084072 0.00840977 0.00841234 0.00841491 0.00841748 0.00842006 0.00842264 0.00842522 0.0084278 
0.00843038 0.00843296 0.00843555 0.00843814 0.00844073 0.00844333 0.00844592 0.00844852 0.00845112 
0.00845372 0.00845632 0.00845893 0.00846153 0.00846414 0.00846675 0.00846936 0.00847198 0.0084746 
0.00847721 0.00847984 0.00848246 0.00848508 0.00848771 0.00849034 0.00849297 0.0084956 0.00849824 
0.00850087 0.00850351 0.00850615 0.0085088 0.00851144 0.00851409 0.00851674 0.00851939 0.00836267 
0.0083652 0.00836774 0.00837028 0.00837282 0.00837536 0.0083779 0.00838045 0.008383 0.00838555 
0.0083881 0.00839065 0.00839321 0.00839576 0.00839832 0.00840089 0.00840345 0.00840601 0.00840858 
0.00841115 0.00841372 0.00841629 0.00841887 0.00842145 0.00842402 0.0084266 0.00842919 0.00843177 
0.00843436 0.00843695 0.00843954 0.00844213 0.00844472 0.00844732 0.00844992 0.00845252 0.00845512 
0.00845772 0.00846033 0.00846294 0.00846555 0.00846816 0.00847077 0.00847339 0.00847601 0.00847863 
0.00848125 0.00848387 0.0084865 0.00848913 0.00849176 0.00849439 0.00849702 0.00849966 0.0085023 
0.00850494 0.00850758 0.00851022 0.00851287 0.00851552 0.00851817 0.00852082 0.00836403 0.00836656 
0.0083691 0.00837164 0.00837418 0.00837672 0.00837927 0.00838182 0.00838437 0.00838692 0.00838947 
0.00839202 0.00839458 0.00839714 0.0083997 0.00840226 0.00840483 0.00840739 0.00840996 0.00841253 
0.0084151 0.00841768 0.00842025 0.00842283 0.00842541 0.00842799 0.00843058 0.00843316 0.00843575 
0.00843834 0.00844093 0.00844353 0.00844612 0.00844872 0.00845132 0.00845392 0.00845652 0.00845913 
0.00846174 0.00846434 0.00846696 0.00846957 0.00847218 0.0084748 0.00847742 0.00848004 0.00848267 
0.00848529 0.00848792 0.00849055 0.00849318 0.00849581 0.00849845 0.00850108 0.00850372 0.00850636 
0.00850901 0.00851165 0.0085143 0.00851695 0.0085196 0.00852226 0.00836538 0.00836792 0.00837046 
0.008373 0.00837554 0.00837809 0.00838064 0.00838318 0.00838573 0.00838829 0.00839084 0.0083934 
0.00839595 0.00839851 0.00840108 0.00840364 0.00840621 0.00840877 0.00841134 0.00841391 0.00841649 
0.00841906 0.00842164 0.00842422 0.0084268 0.00842938 0.00843197 0.00843455 0.00843714 0.00843973 
0.00844233 0.00844492 0.00844752 0.00845012 0.00845272 0.00845532 0.00845793 0.00846053 0.00846314 
0.00846575 0.00846836 0.00847098 0.00847359 0.00847621 0.00847883 0.00848146 0.00848408 0.00848671 
0.00848934 0.00849197 0.0084946 0.00849723 0.00849987 0.00850251 0.00850515 0.00850779 0.00851044 
0.00851308 0.00851573 0.00851838 0.00852103 0.00852369 0.00836674 0.00836928 0.00837182 0.00837436 
0.00837691 0.00837945 0.008382 0.00838455 0.0083871 0.00838966 0.00839221 0.00839477 0.00839733 
0.00839989 0.00840245 0.00840502 0.00840758 0.00841015 0.00841272 0.0084153 0.00841787 0.00842045 
0.00842303 0.00842561 0.00842819 0.00843077 0.00843336 0.00843595 0.00843854 0.00844113 0.00844372 
0.00844632 0.00844892 0.00845152 0.00845412 0.00845672 0.00845933 0.00846194 0.00846455 0.00846716 
0.00846977 0.00847239 0.008475 0.00847762 0.00848025 0.00848287 0.0084855 0.00848812 0.00849075 
0.00849338 0.00849602 0.00849865 0.00850129 0.00850393 0.00850657 0.00850922 0.00851186 0.00851451 
0.00851716 0.00851981 0.00852247 0.00852512 0.0083681 0.00837064 0.00837318 0.00837573 0.00837827 
0.00838082 0.00838337 0.00838592 0.00838847 0.00839103 0.00839358 0.00839614 0.0083987 0.00840126 
0.00840383 0.00840639 0.00840896 0.00841153 0.0084141 0.00841668 0.00841925 0.00842183 0.00842441 
0.00842699 0.00842958 0.00843216 0.00843475 0.00843734 0.00843993 0.00844252 0.00844512 0.00844772 
0.00845031 0.00845292 0.00845552 0.00845812 0.00846073 0.00846334 0.00846595 0.00846856 0.00847118 
0.0084738 0.00847642 0.00847904 0.00848166 0.00848428 0.00848691 0.00848954 0.00849217 0.0084948 
0.00849744 0.00850008 0.00850271 0.00850536 0.008508 0.00851064 0.00851329 0.00851594 0.00851859 
0.00852124 0.0085239 0.00852656 0.00836946 0.008372 0.00837455 0.00837709 0.00837964 0.00838218 
0.00838473 0.00838729 0.00838984 0.0083924 0.00839495 0.00839751 0.00840008 0.00840264 0.0084052 
0.00840777 0.00841034 0.00841291 0.00841548 0.00841806 0.00842064 0.00842322 0.0084258 0.00842838 
0.00843096 0.00843355 0.00843614 0.00843873 0.00844132 0.00844392 0.00844651 0.00844911 0.00845171 
0.00845431 0.00845692 0.00845953 0.00846213 0.00846474 0.00846736 0.00846997 0.00847259 0.0084752 
0.00847783 0.00848045 0.00848307 0.0084857 0.00848833 0.00849096 0.00849359 0.00849622 0.00849886 
0.0085015 0.00850414 0.00850678 0.00850942 0.00851207 0.00851472 0.00851737 0.00852002 0.00852268 
0.00852533 0.00852799 0.00837082 0.00837336 0.00837591 0.00837845 0.008381 0.00838355 0.0083861 
0.00838865 0.00839121 0.00839377 0.00839633 0.00839889 0.00840145 0.00840401 0.00840658 0.00840915 
0.00841172 0.00841429 0.00841687 0.00841944 0.00842202 0.0084246 0.00842718 0.00842977 0.00843235 
0.00843494 0.00843753 0.00844012 0.00844272 0.00844531 0.00844791 0.00845051 0.00845311 0.00845571 
0.00845832 0.00846093 0.00846354 0.00846615 0.00846876 0.00847138 0.00847399 0.00847661 0.00847924 
0.00848186 0.00848448 0.00848711 0.00848974 0.00849237 0.00849501 0.00849764 0.00850028 0.00850292 
0.00850556 0.0085082 0.00851085 0.0085135 0.00851615 0.0085188 0.00852145 0.00852411 0.00852677 
0.00852942 0.00837218 0.00837472 0.00837727 0.00837982 0.00838236 0.00838492 0.00838747 0.00839002 
0.00839258 0.00839514 0.0083977 0.00840026 0.00840282 0.00840539 0.00840796 0.00841053 0.0084131 
0.00841567 0.00841825 0.00842082 0.0084234 0.00842598 0.00842857 0.00843115 0.00843374 0.00843633 
0.00843892 0.00844151 0.00844411 0.00844671 0.0084493 0.0084519 0.00845451 0.00845711 0.00845972 
0.00846233 0.00846494 0.00846755 0.00847017 0.00847278 0.0084754 0.00847802 0.00848065 0.00848327 
0.0084859 0.00848853 0.00849116 0.00849379 0.00849642 0.00849906 0.0085017 0.00850434 0.00850698 
0.00850963 0.00851227 0.00851492 0.00851757 0.00852023 0.00852288 0.00852554 0.0085282 0.00853086 
0.00837354 0.00837609 0.00837863 0.00838118 0.00838373 0.00838628 0.00838883 0.00839139 0.00839395 
0.00839651 0.00839907 0.00840163 0.0084042 0.00840676 0.00840933 0.0084119 0.00841448 0.00841705 
0.00841963 0.00842221 0.00842479 0.00842737 0.00842995 0.00843254 0.00843513 0.00843772 0.00844031 
0.0084429 0.0084455 0.0084481 0.0084507 0.0084533 0.00845591 0.00845851 0.00846112 0.00846373 
0.00846634 0.00846896 0.00847157 0.00847419 0.00847681 0.00847943 0.00848206 0.00848468 0.00848731 
0.00848994 0.00849257 0.0084952 0.00849784 0.00850048 0.00850312 0.00850576 0.0085084 0.00851105 
0.0085137 0.00851635 0.008519 0.00852166 0.00852431 0.00852697 0.00852963 0.00853229 0.0083749 
0.00837745 0.00837999 0.00838254 0.00838509 0.00838765 0.0083902 0.00839276 0.00839532 0.00839788 
0.00840044 0.008403 0.00840557 0.00840814 0.00841071 0.00841328 0.00841585 0.00841843 0.00842101 
0.00842359 0.00842617 0.00842875 0.00843134 0.00843393 0.00843652 0.00843911 0.0084417 0.0084443 
0.00844689 0.00844949 0.00845209 0.0084547 0.0084573 0.00845991 0.00846252 0.00846513 0.00846774 
0.00847036 0.00847298 0.0084756 0.00847822 0.00848084 0.00848346 0.00848609 0.00848872 0.00849135 
0.00849399 0.00849662 0.00849926 0.0085019 0.00850454 0.00850718 0.00850983 0.00851247 0.00851512 
0.00851778 0.00852043 0.00852308 0.00852574 0.0085284 0.00853106 0.00853373 0.00837626 0.00837881 
0.00838135 0.0083839 0.00838646 0.00838901 0.00839157 0.00839412 0.00839668 0.00839925 0.00840181 
0.00840438 0.00840694 0.00840951 0.00841208 0.00841466 0.00841723 0.00841981 0.00842239 0.00842497 
0.00842755 0.00843014 0.00843272 0.00843531 0.0084379 0.0084405 0.00844309 0.00844569 0.00844829 
0.00845089 0.00845349 0.00845609 0.0084587 0.00846131 0.00846392 0.00846653 0.00846915 0.00847176 
0.00847438 0.008477 0.00847962 0.00848225 0.00848487 0.0084875 0.00849013 0.00849277 0.0084954 
0.00849804 0.00850068 0.00850332 0.00850596 0.0085086 0.00851125 0.0085139 0.00851655 0.0085192 
0.00852186 0.00852451 0.00852717 0.00852983 0.0085325 0.00853516 0.00837762 0.00838017 0.00838272 
0.00838527 0.00838782 0.00839038 0.00839293 0.00839549 0.00839805 0.00840062 0.00840318 0.00840575 
0.00840832 0.00841089 0.00841346 0.00841603 0.00841861 0.00842119 0.00842377 0.00842635 0.00842894 
0.00843152 0.00843411 0.0084367 0.00843929 0.00844189 0.00844448 0.00844708 0.00844968 0.00845228 
0.00845488 0.00845749 0.0084601 0.00846271 0.00846532 0.00846793 0.00847055 0.00847317 0.00847579 
0.00847841 0.00848103 0.00848366 0.00848628 0.00848891 0.00849155 0.00849418 0.00849682 0.00849945 
0.00850209 0.00850473 0.00850738 0.00851002 0.00851267 0.00851532 0.00851797 0.00852063 0.00852328 
0.00852594 0.0085286 0.00853126 0.00853393 0.00853659 0.00837898 0.00838153 0.00838408 0.00838663 
0.00838918 0.00839174 0.0083943 0.00839686 0.00839942 0.00840199 0.00840455 0.00840712 0.00840969 
0.00841226 0.00841483 0.00841741 0.00841999 0.00842257 0.00842515 0.00842773 0.00843032 0.00843291 
0.00843549 0.00843809 0.00844068 0.00844327 0.00844587 0.00844847 0.00845107 0.00845367 0.00845628 
0.00845889 0.0084615 0.00846411 0.00846672 0.00846933 0.00847195 0.00847457 0.00847719 0.00847981 
0.00848244 0.00848507 0.00848769 0.00849033 0.00849296 0.00849559 0.00849823 0.00850087 0.00850351 
0.00850615 0.0085088 0.00851145 0.00851409 0.00851675 0.0085194 0.00852205 0.00852471 0.00852737 
0.00853003 0.00853269 0.00853536 0.00853803 0.00838034 0.00838289 0.00838544 0.00838799 0.00839055 
0.00839311 0.00839567 0.00839823 0.00840079 0.00840336 0.00840592 0.00840849 0.00841106 0.00841364 
0.00841621 0.00841879 0.00842137 0.00842395 0.00842653 0.00842911 0.0084317 0.00843429 0.00843688 
0.00843947 0.00844207 0.00844466 0.00844726 0.00844986 0.00845246 0.00845507 0.00845767 0.00846028 
0.00846289 0.00846551 0.00846812 0.00847074 0.00847335 0.00847597 0.0084786 0.00848122 0.00848385 
0.00848647 0.0084891 0.00849174 0.00849437 0.00849701 0.00849964 0.00850229 0.00850493 0.00850757 
0.00851022 0.00851287 0.00851552 0.00851817 0.00852082 0.00852348 0.00852614 0.0085288 0.00853146 
0.00853413 0.00853679 0.00853946 0.0083817 0.00838425 0.0083868 0.00838935 0.00839191 0.00839447 
0.00839703 0.00839959 0.00840216 0.00840472 0.00840729 0.00840986 0.00841244 0.00841501 0.00841759 
0.00842016 0.00842274 0.00842533 0.00842791 0.0084305 0.00843308 0.00843567 0.00843827 0.00844086 
0.00844345 0.00844605 0.00844865 0.00845125 0.00845386 0.00845646 0.00845907 0.00846168 0.00846429 
0.0084669 0.00846952 0.00847214 0.00847476 0.00847738 0.00848 0.00848263 0.00848525 0.00848788 
0.00849051 0.00849315 0.00849578 0.00849842 0.00850106 0.0085037 0.00850634 0.00850899 0.00851164 
0.00851429 0.00851694 0.00851959 0.00852225 0.00852491 0.00852757 0.00853023 0.00853289 0.00853556 
0.00853822 0.00854089 0.00838305 0.00838561 0.00838816 0.00839072 0.00839328 0.00839584 0.0083984 
0.00840096 0.00840353 0.00840609 0.00840866 0.00841124 0.00841381 0.00841638 0.00841896 0.00842154 
0.00842412 0.00842671 0.00842929 0.00843188 0.00843447 0.00843706 0.00843965 0.00844225 0.00844484 
0.00844744 0.00845004 0.00845264 0.00845525 0.00845786 0.00846046 0.00846308 0.00846569 0.0084683 