# vtk DataFile Version 4.0
vtk output
ASCII
DATASET STRUCTURED_POINTS
DIMENSIONS 42 42 42
SPACING 0.05 0.05 0.05
ORIGIN -1.025 -1.025 -1.025
POINT_DATA 74088
FIELD FieldData 1
potential 1 74088 double
0.000776534 0.000835996 0.000899272 0.000965109 0.00103124 0.00109477 0.00115266 0.00120327 0.00124713 
0.00128758 0.00132796 0.00137013 0.00141507 0.00146375 0.00151771 0.00157819 0.00164553 0.00171871 
0.00179761 0.00188224 0.00197367 0.00207309 0.00218214 0.00230101 0.00242852 0.00256181 0.00269755 
0.00283323 0.00296659 0.00309731 0.00322882 0.00336905 0.00352934 0.00371871 0.00393898 0.00418639 
0.0044551 0.00474001 0.00503719 0.00534293 0.00565112 0.00594781 0.000951275 0.00101852 0.00108996 
0.00116483 0.00124144 0.00131783 0.00139185 0.00146191 0.00152763 0.00159055 0.0016526 0.00171567 
0.00178111 0.00185065 0.00192562 0.0020071 0.00209578 0.00219182 0.00229554 0.0024077 0.00252979 
0.00266283 0.00280779 0.00296449 0.00313094 0.00330471 0.00348281 0.00366308 0.00384447 0.00402836 
0.00421929 0.00442513 0.00465503 0.00491537 0.0052068 0.00552562 0.00586576 0.00622062 0.00658354 
0.00694638 0.00729755 0.00762053 0.00113652 0.00121244 0.00129327 0.00137839 0.00146671 0.00155667 
0.00164677 0.00173553 0.00182235 0.0019076 0.00199264 0.00207852 0.00216712 0.00226026 0.00235935 
0.00246578 0.00258048 0.00270424 0.00283812 0.00298307 0.00314039 0.00331112 0.00349557 0.00369335 
0.0039025 0.00412105 0.00434673 0.00457813 0.00481521 0.00506033 0.00531795 0.00559516 0.00589877 
0.00623302 0.00659764 0.00698912 0.00740116 0.00782576 0.00825351 0.00867296 0.00906987 0.00942736 
0.00133032 0.00141576 0.00150688 0.00160322 0.0017039 0.00180802 0.00191428 0.00202152 0.00212886 
0.00223652 0.00234505 0.00245542 0.00256931 0.00268838 0.00281453 0.00294919 0.00309378 0.00324949 
0.0034174 0.00359881 0.00379474 0.00400618 0.00423292 0.00447475 0.00473008 0.00499729 0.00527501 
0.00556253 0.00586059 0.00617179 0.00650034 0.00685157 0.00723045 0.00763948 0.00807793 0.00854198 
0.0090252 0.00951838 0.0100102 0.0104875 0.010935 0.0113373 0.00153019 0.00162581 0.00172792 
0.00183604 0.00194973 0.00206827 0.00219076 0.00231631 0.00244401 0.00257393 0.00270624 0.0028421 
0.00298266 0.00312965 0.00328513 0.00345062 0.00362788 0.0038182 0.00402285 0.00424304 0.00447983 
0.00473388 0.00500516 0.0052933 0.00559738 0.00591629 0.00624935 0.00659636 0.0069585 0.00733806 
0.00773888 0.00816459 0.00861843 0.0091017 0.00961314 0.0101486 0.0107013 0.0112613 0.0118165 
0.0123531 0.0128562 0.0133125 0.00173297 0.00183939 0.00195286 0.00207323 0.00220027 0.00233342 
0.00247211 0.00261565 0.00276354 0.00291538 0.0030717 0.00323334 0.00340136 0.00357751 0.00376359 
0.00396159 0.00417309 0.00439956 0.00464225 0.00490251 0.00518125 0.00547894 0.0057959 0.00613184 
0.00648626 0.00685847 0.00724866 0.00765657 0.0080836 0.00853183 0.00900382 0.00950256 0.0100296 
0.0105853 0.0111675 0.0117719 0.0123914 0.0130158 0.0136333 0.0142302 0.0147929 0.0153099 
0.00193554 0.0020529 0.00217799 0.00231086 0.00245132 0.00259908 0.00275381 0.00291512 0.00308256 
0.00325608 0.00343605 0.00362336 0.00381891 0.00402454 0.00424179 0.0044727 0.00471883 0.0049818 
0.00526294 0.00556336 0.00588408 0.00622547 0.00658826 0.00697225 0.00737727 0.00780316 0.00825003 
0.0087184 0.00920926 0.00972426 0.0102652 0.0108337 0.0114305 0.0120551 0.0127046 0.0133744 
0.0140571 0.0147432 0.015421 0.016078 0.016702 0.0172833 0.00213479 0.00226309 0.00239971 
0.00254492 0.00269869 0.00286088 0.00303123 0.00320984 0.00339635 0.0035908 0.00379376 0.00400616 
0.00422882 0.00446318 0.00471131 0.00497452 0.00525489 0.00555379 0.00587244 0.00621216 0.00657385 
0.00695817 0.0073657 0.0077967 0.00825127 0.00872936 0.00923134 0.00975774 0.0103096 0.0108878 
0.0114934 0.0121271 0.0127891 0.0134777 0.0141897 0.0149202 0.0156619 0.0164059 0.0171411 
0.0178565 0.0185412 0.0191868 0.00232751 0.00246648 0.00261456 0.00277179 0.0029384 0.00311459 
0.00330016 0.00349533 0.00370008 0.00391459 0.00413954 0.00437571 0.00462435 0.0048865 0.00516403 
0.00545857 0.0057716 0.00610487 0.00645935 0.00683661 0.00723761 0.00766292 0.00811319 0.00858897 
0.00909058 0.00961809 0.010172 0.0107527 0.011361 0.0119974 0.0126624 0.0133556 0.0140767 
0.0148234 0.0155921 0.0163779 0.0171733 0.0179705 0.0187592 0.0195295 0.0202722 0.0209796 
0.00251093 0.00266033 0.00281926 0.00298807 0.00316699 0.00335646 0.00355654 0.00376733 0.00398938 
0.00422281 0.00446842 0.00472701 0.00499987 0.00528814 0.00559324 0.00591696 0.00626067 0.00662607 
0.00701425 0.00742647 0.00786397 0.00832759 0.00881759 0.00933499 0.00988006 0.0104531 0.0110545 
0.0116845 0.0123439 0.0130324 0.0137502 0.0144965 0.0152698 0.0160678 0.0168868 0.0177212 
0.0185648 0.0194095 0.0202466 0.0210672 0.0218629 0.0226269 0.00268302 0.00284207 0.00301119 
0.00319093 0.00338152 0.0035834 0.00379693 0.00402241 0.00426047 0.00451144 0.00477602 0.0050553 
0.00535029 0.00566246 0.00599299 0.00634346 0.00671539 0.00711004 0.00752901 0.00797319 0.00844385 
0.00894213 0.00946829 0.0100233 0.0106074 0.0112212 0.0118649 0.0125385 0.0132425 0.0139765 
0.0147401 0.015532 0.0163504 0.0171924 0.0180543 0.0189309 0.0198159 0.0207019 0.0215813 
0.0224458 0.0232883 0.0241023 0.00284168 0.00300966 0.00318827 0.00337807 0.00357942 0.00379269 
0.00401858 0.00425756 0.00451002 0.004777 0.00505882 0.00535676 0.00567181 0.00600531 0.00635856 
0.00673295 0.00713001 0.00755105 0.00799729 0.00846987 0.00897006 0.0094989 0.010057 0.010645 
0.0112633 0.0119125 0.0125925 0.0133036 0.0140455 0.0148179 0.0156198 0.0164497 0.0173056 
0.0181842 0.0190817 0.0199931 0.0209124 0.021833 0.0227479 0.0236495 0.0245313 0.0253872 
0.00298555 0.0031615 0.00334872 0.00354755 0.00375852 0.00398225 0.00421917 0.00447021 0.00473573 
0.00501661 0.00531382 0.00562816 0.00596091 0.00631319 0.00668627 0.00708156 0.00750051 0.00794437 
0.00841442 0.00891173 0.00943725 0.00999242 0.0105777 0.0111936 0.0118409 0.0125197 0.0132301 
0.013972 0.0147449 0.0155485 0.0163814 0.0172418 0.0181275 0.0190349 0.0199606 0.0208994 
0.0218459 0.0227938 0.0237369 0.0246681 0.0255812 0.0264709 0.00311337 0.00329638 0.00349109 
0.00369793 0.00391745 0.00415027 0.00439695 0.00465837 0.00493533 0.00522838 0.00553872 0.00586718 
0.006215 0.00658328 0.00697335 0.00738641 0.00782372 0.00828691 0.00877687 0.00929492 0.00984165 
0.0104185 0.0110262 0.011665 0.0123357 0.0130383 0.0137728 0.014539 0.0153362 0.0161639 
0.0170203 0.0179038 0.0188117 0.0197405 0.0206868 0.0216458 0.022612 0.02358 0.0245434 
0.0254967 0.0264333 0.0273479 0.00322416 0.00341329 0.00361434 0.00382803 0.0040548 0.00429543 
0.00455044 0.00482065 0.00510708 0.00541045 0.00573177 0.00607198 0.00643219 0.00681378 0.00721771 
0.00764526 0.00809769 0.00857636 0.0090824 0.00961696 0.0101807 0.0107747 0.0113998 0.0120564 
0.012745 0.0134656 0.0142181 0.0150023 0.0158171 0.0166618 0.0175349 0.0184341 0.0193568 
0.0203001 0.0212597 0.0222316 0.0232104 0.0241911 0.0251677 0.026135 0.0270869 0.0280183 
0.00331721 0.00351141 0.00371777 0.00393698 0.00416974 0.00441661 0.00467847 0.00495589 0.00525 
0.00556163 0.00589165 0.00624122 0.0066113 0.00700317 0.00741795 0.00785683 0.00832094 0.0088114 
0.00932964 0.00987646 0.010453 0.0110596 0.0116974 0.0123667 0.0130677 0.0138007 0.0145653 
0.0153611 0.0161874 0.0170424 0.0179253 0.0188335 0.0197643 0.0207149 0.021681 0.0226587 
0.0236433 0.0246296 0.0256123 0.0265861 0.0275455 0.0284857 0.00339203 0.00359023 0.00380067 
0.00402414 0.00426154 0.00451332 0.00478031 0.00506327 0.00536314 0.00568089 0.00601749 0.00637391 
0.00675132 0.0071507 0.00757329 0.00802016 0.00849256 0.00899135 0.00951789 0.0100731 0.0106579 
0.0112727 0.0119184 0.0125954 0.0133038 0.0140437 0.0148148 0.0156164 0.0164477 0.0173072 
0.0181935 0.0191042 0.0200368 0.0209878 0.0219541 0.0229312 0.0239149 0.0249001 0.0258818 
0.0268551 0.027815 0.0287562 0.00344837 0.00364924 0.00386269 0.00408929 0.00432976 0.00458493 
0.00485549 0.00514218 0.00544605 0.00576789 0.00610875 0.00646973 0.00685165 0.00725594 0.00768337 
0.00813513 0.00861234 0.00911596 0.00964714 0.0102067 0.0107956 0.0114144 0.0120635 0.0127434 
0.0134543 0.014196 0.014968 0.0157701 0.0166008 0.0174588 0.0183425 0.0192499 0.0201781 
0.0211239 0.022084 0.0230543 0.0240308 0.0250087 0.0259832 0.0269495 0.0279029 0.0288383 
0.003486 0.00368842 0.00390355 0.00413187 0.00437415 0.00463121 0.00490372 0.00519249 0.00549835 
0.00582229 0.00616528 0.00652835 0.00691245 0.00731873 0.00774812 0.00820174 0.00868053 0.0091856 
0.00971776 0.010278 0.010867 0.0114855 0.0121337 0.0128122 0.0135207 0.0142593 0.0150275 
0.0158245 0.0166495 0.0175009 0.0183765 0.0192749 0.0201931 0.0211281 0.0220765 0.0230345 
0.023998 0.0249628 0.0259242 0.0268774 0.027818 0.0287415 0.00350466 0.00370769 0.00392315 
0.00415201 0.00439472 0.00465204 0.00492491 0.00521401 0.00552 0.00584415 0.00618708 0.00654995 
0.00693377 0.00733933 0.00776794 0.00822042 0.00869775 0.00920093 0.00973054 0.0102879 0.0108733 
0.0114875 0.0121308 0.0128034 0.0135053 0.0142363 0.014996 0.0157834 0.0165975 0.0174371 
0.0183001 0.0191843 0.0200875 0.0210065 0.021938 0.0228787 0.023824 0.0247704 0.0257132 
0.0266481 0.0275705 0.0284763 0.00350453 0.0037069 0.00392174 0.00414956 0.0043914 0.00464772 
0.00491928 0.00520695 0.00551139 0.00583353 0.00617442 0.00653491 0.00691586 0.00731844 0.00774341 
0.00819191 0.00866477 0.00916283 0.00968695 0.0102377 0.010816 0.0114222 0.0120566 0.0127194 
0.0134108 0.0141299 0.0148767 0.0156501 0.0164491 0.0172722 0.0181178 0.0189836 0.0198671 
0.0207655 0.0216756 0.0225938 0.0235167 0.0244398 0.0253593 0.0262709 0.0271702 0.0280529 
0.00348572 0.00368619 0.00389921 0.00412509 0.00436441 0.00461829 0.00488703 0.00517157 0.00547266 
0.00579116 0.00612789 0.00648375 0.00685976 0.00725665 0.00767558 0.00811738 0.00858274 0.00907281 
0.00958811 0.0101292 0.010697 0.0112917 0.0119137 0.0125631 0.0132398 0.0139433 0.0146732 
0.0154287 0.0162084 0.0170112 0.0178352 0.0186783 0.019538 0.0204117 0.0212962 0.0221881 
0.0230839 0.0239798 0.0248717 0.0257555 0.0266273 0.0274829 0.00344789 0.00364625 0.00385593 
0.00407855 0.00431439 0.00456418 0.00482871 0.00510855 0.00540455 0.00571746 0.00604807 0.00639737 
0.00676608 0.00715515 0.0075654 0.00799791 0.00845332 0.0089324 0.00943591 0.00996447 0.0105185 
0.0110985 0.0117046 0.0123371 0.0129957 0.0136801 0.0143895 0.0151233 0.0158802 0.016659 
0.0174576 0.0182742 0.0191066 0.0199519 0.0208072 0.021669 0.0225342 0.0233991 0.0242595 
0.0251119 0.0259523 0.0267768 0.0033922 0.00358641 0.00379258 0.00401049 0.00424155 0.00448611 
0.00474497 0.00501852 0.00530785 0.0056133 0.00593608 0.00627664 0.006636 0.00701502 0.00741439 
0.00783503 0.00827783 0.00874338 0.00923244 0.00974541 0.0102827 0.0108451 0.0114323 0.0120447 
0.0126819 0.0133438 0.0140296 0.0147383 0.015469 0.0162204 0.0169905 0.0177776 0.0185791 
0.0193929 0.0202157 0.0210444 0.0218757 0.0227062 0.0235321 0.0243497 0.0251552 0.0259451 
0.00331891 0.00350816 0.0037089 0.0039213 0.00414654 0.0043846 0.00463632 0.00490242 0.00518327 
0.00547985 0.00579281 0.00612288 0.00647095 0.00683767 0.00722397 0.00763055 0.00805823 0.00850783 
0.00897967 0.0094745 0.00999259 0.0105342 0.0110998 0.0116892 0.0123022 0.0129386 0.0135976 
0.0142784 0.0149799 0.0157008 0.0164395 0.0171941 0.0179622 0.0187414 0.0195289 0.0203217 
0.0211166 0.02191 0.0226984 0.0234784 0.0242464 0.0249987 0.0032289 0.00341189 0.00360626 
0.00381228 0.00402995 0.00426054 0.00450394 0.00476097 0.00503221 0.00531817 0.00561975 0.00593753 
0.00627226 0.00662486 0.00699589 0.00738624 0.00779663 0.00822771 0.00868017 0.00915431 0.0096506 
0.0101691 0.0107104 0.0112741 0.0118602 0.0124682 0.0130979 0.013748 0.0144178 0.0151057 
0.0158103 0.0165298 0.017262 0.0180043 0.0187544 0.0195088 0.0202648 0.021019 0.0217677 
0.0225077 0.0232354 0.0239478 0.00312195 0.00329868 0.0034859 0.00368364 0.0038933 0.00411474 
0.00434846 0.00459558 0.00485568 0.00512974 0.00541818 0.00572208 0.00604184 0.00637822 0.00673218 
0.00710423 0.00749524 0.00790578 0.0083364 0.00878768 0.00925981 0.00975304 0.0102674 0.0108032 
0.0113599 0.0119373 0.0125351 0.0131521 0.0137876 0.0144403 0.0151086 0.015791 0.0164851 
0.0171886 0.0178991 0.0186137 0.0193288 0.0200417 0.0207489 0.0214469 0.0221326 0.0228026 
0.0029992 0.00316845 0.00334762 0.00353724 0.00373721 0.00394891 0.00417207 0.00440721 0.00465529 
0.00491597 0.00519011 0.00547837 0.00578149 0.00610009 0.00643496 0.00678692 0.00715655 0.00754455 
0.00795146 0.00837775 0.00882362 0.00928933 0.00977487 0.0102804 0.0108056 0.0113503 0.0119138 
0.0124957 0.013095 0.0137103 0.0143404 0.0149837 0.0156381 0.0163013 0.0169706 0.0176436 
0.0183168 0.018987 0.0196511 0.0203056 0.0209474 0.0215737 0.00286164 0.00302256 0.003193 
0.00337318 0.00356359 0.00376446 0.00397562 0.00419837 0.00443244 0.00467849 0.00493727 0.00520858 
0.00549349 0.00579268 0.00610685 0.0064369 0.00678347 0.00714712 0.00752848 0.00792788 0.00834569 
0.00878199 0.00923689 0.00971023 0.010202 0.0107119 0.0112394 0.0117843 0.0123453 0.0129217 
0.013512 0.0141147 0.0147279 0.0153495 0.0159766 0.0166069 0.017237 0.0178637 0.0184837 
0.0190937 0.0196905 0.0202712 0.00271035 0.00286228 0.00302318 0.0031933 0.00337294 0.00356222 
0.00376146 0.00397031 0.00418985 0.00442016 0.00466156 0.00491449 0.00518028 0.00545855 0.00575066 
0.00605722 0.00637911 0.00671691 0.00707113 0.00744213 0.00783017 0.00823544 0.00865793 0.00909749 
0.0095542 0.0100276 0.0105176 0.0110236 0.0115451 0.012081 0.01263 0.013191 0.013762 
0.0143408 0.0149252 0.015512 0.0160985 0.0166812 0.0172565 0.0178212 0.0183723 0.0189068 
0.00254663 0.00268898 0.00283973 0.00299915 0.00316738 0.00334453 0.00353059 0.00372571 0.00392995 
0.00414309 0.00436638 0.0045999 0.00484432 0.0051009 0.00536948 0.00565138 0.00594723 0.00625784 
0.00658352 0.00692487 0.0072819 0.00765478 0.00804348 0.00844795 0.00886813 0.00930366 0.00975463 
0.0102205 0.010701 0.0111951 0.011702 0.0122202 0.0127482 0.0132839 0.0138249 0.0143683 
0.0149108 0.0154493 0.01598 0.0164992 0.0170041 0.0174918 0.00237208 0.00250427 0.00264442 
0.00279263 0.00294899 0.00311342 0.00328588 0.00346619 0.00365441 0.00385056 0.00405446 0.00426749 
0.00449 0.00472278 0.00496683 0.00522321 0.00549208 0.00577436 0.00607074 0.00638128 0.00670637 
0.0070458 0.00739975 0.00776798 0.00815038 0.00854718 0.00895789 0.0093826 0.00982094 0.0102725 
0.0107363 0.0112112 0.0116957 0.0121879 0.0126854 0.0131854 0.0136844 0.014179 0.0146654 
0.0151398 0.0155986 0.0160395 0.00218847 0.00231022 0.00243931 0.00257599 0.00272012 0.0028715 
0.00302998 0.00319515 0.00336677 0.00354487 0.00372955 0.00392139 0.00412054 0.00432916 0.00454777 
0.00477718 0.00501864 0.00527207 0.00553818 0.00581758 0.00611007 0.00641555 0.00673407 0.00706524 
0.00740929 0.00776614 0.00813602 0.00851866 0.00891424 0.00932248 0.00974271 0.0101741 0.0106149 
0.0110636 0.0115179 0.0119748 0.0124308 0.0128823 0.0133253 0.0137556 0.0141696 0.0145642 
0.0019982 0.00210908 0.00222695 0.00235181 0.00248358 0.00262181 0.00276602 0.00291572 0.00307045 
0.00323005 0.0033947 0.00356466 0.00374113 0.00392486 0.004117 0.00431933 0.0045323 0.00475653 
0.00499285 0.00524064 0.0055004 0.00577185 0.00605466 0.00634875 0.00665396 0.00697045 0.00729877 
0.00763904 0.00799141 0.00835602 0.00873263 0.00912021 0.00951764 0.00992316 0.0103346 0.0107491 
0.0111631 0.0115725 0.0119734 0.012361 0.0127316 0.0130815 0.00180375 0.00190361 0.00201012 
0.00212321 0.00224253 0.0023676 0.00249765 0.00263174 0.0027694 0.0029102 0.00305435 0.00320246 
0.00335528 0.00351429 0.00368082 0.00385555 0.00404039 0.00423567 0.00444164 0.00465837 0.00488609 
0.00512377 0.00537138 0.00562848 0.00589507 0.0061714 0.00645792 0.00675549 0.00706464 0.00738566 
0.00771853 0.00806284 0.00841722 0.00878021 0.00914946 0.00952226 0.00989514 0.0102639 0.0106242 
0.0109712 0.0113006 0.0116085 0.00160794 0.0016968 0.00179206 0.00189346 0.00200061 0.00211271 
0.00222863 0.00234722 0.00246768 0.00258958 0.00271317 0.00283922 0.00296893 0.00310356 0.00324444 
0.00339313 0.00355042 0.00371682 0.00389349 0.00408011 0.00427606 0.00448133 0.00469458 0.00491552 
0.00514411 0.0053809 0.0056261 0.00588144 0.00614753 0.0064254 0.00671515 0.00701663 0.00732885 
0.0076498 0.00797768 0.00830955 0.00864224 0.00897158 0.00929305 0.00960194 0.00989319 0.0101625 
0.00141392 0.00149195 0.00157612 0.00166621 0.00176159 0.00186107 0.00196316 0.00206637 0.00216957 
0.00227254 0.00237563 0.00248001 0.00258703 0.00269826 0.00281486 0.00293817 0.00306923 0.00320873 
0.00335733 0.00351449 0.0036806 0.00385435 0.00403472 0.00422156 0.0044136 0.00461166 0.00481697 
0.0050306 0.00525448 0.00548997 0.00573746 0.005997 0.0062677 0.00654766 0.00683477 0.00712651 
0.00741951 0.00771046 0.00799493 0.00826828 0.0085252 0.00876069 0.00122465 0.00129225 0.00136572 
0.00144502 0.00152927 0.00161676 0.00170539 0.00179328 0.00187922 0.00196309 0.00204594 0.00212935 
0.00221495 0.00230421 0.00239834 0.0024981 0.00260466 0.00271863 0.00284067 0.00297099 0.00310862 
0.0032533 0.00340312 0.00355722 0.00371496 0.00387685 0.00404345 0.00421703 0.00440004 0.0045942 
0.00480062 0.00501943 0.00524953 0.00548916 0.00573614 0.00598788 0.00624188 0.00649482 0.00674363 
0.0069838 0.00721056 0.0074181 0.00104309 0.0011007 0.00116415 0.00123346 0.00130745 0.00138366 
0.00145931 0.00153185 0.00160023 0.00166496 0.00172786 0.0017913 0.00185725 0.00192682 0.00200076 
0.00207947 0.00216372 0.00225431 0.00235194 0.00245693 0.00256906 0.00268701 0.0028086 0.00293317 
0.00305955 0.00318753 0.00331867 0.00345438 0.00359794 0.00375244 0.00391924 0.00409855 0.00428894 
0.00448882 0.00469586 0.00490741 0.00512196 0.00533726 0.00555083 0.00575985 0.00596023 0.00614598 
0.000871803 0.000920205 0.000974474 0.00103481 0.00109966 0.00116564 0.0012285 0.00128548 0.00133571 
0.00138097 0.00142451 0.00146958 0.00151815 0.00157084 0.00162765 0.00168837 0.00175311 0.00182267 
0.00189805 0.00198003 0.00206844 0.00216207 0.00225905 0.00235751 0.00245573 0.00255405 0.00265271 
0.00275384 0.00286134 0.00297811 0.00310693 0.00324777 0.00339928 0.00355927 0.0037259 0.00389721 
0.00407168 0.00424842 0.00442647 0.00460495 0.00478179 0.0049519 0.000712883 0.000753236 0.00079953 
0.000852337 0.000909508 0.000966039 0.00101634 0.00105697 0.00108817 0.00111365 0.00113888 0.00116779 
0.00120187 0.00124087 0.00128384 0.00132988 0.00137852 0.00143012 0.00148569 0.00154662 0.00161335 
0.0016848 0.00175932 0.00183477 0.0019097 0.00198258 0.00205422 0.00212577 0.00220054 0.00228287 
0.00237618 0.00247987 0.00259282 0.00271282 0.00283816 0.00296789 0.00310106 0.00323767 0.00337851 
0.0035253 0.0036792 0.00383827 0.000567693 0.000601801 0.000642044 0.000689239 0.000740406 0.000787941 
0.000825038 0.000848438 0.000859617 0.000865481 0.000874316 0.000890087 0.000912865 0.000941339 0.000973666 
0.00100845 0.0010446 0.00108164 0.00112045 0.00116223 0.00120844 0.00125913 0.00131297 0.00136831 
0.00142314 0.00147588 0.00152594 0.00157329 0.00162187 0.00167522 0.00173664 0.00180597 0.00188205 
0.0019623 0.00204592 0.00213219 0.00222155 0.00231498 0.00241502 0.00252579 0.00265349 0.00280286 
0.000661191 0.000720408 0.000783683 0.000850652 0.00091939 0.000986102 0.0010449 0.00109118 0.00112458 
0.00114979 0.00117339 0.00119856 0.00122557 0.00125544 0.00129106 0.00133426 0.00138407 0.0014391 
0.00149807 0.00156124 0.00163018 0.00170887 0.00180147 0.00190897 0.00202717 0.00215037 0.00227225 
0.00238829 0.00249386 0.00258671 0.00267008 0.00275895 0.00287957 0.00305047 0.00327059 0.00352832 
0.00381274 0.00411764 0.0044404 0.0047814 0.00513837 0.00549344 0.000846853 0.000914042 0.000985902 
0.00106193 0.00114051 0.0012192 0.00129451 0.00136264 0.00142231 0.00147513 0.00152394 0.00157207 
0.00162152 0.00167419 0.00173206 0.0017966 0.00186811 0.0019463 0.00203135 0.00212476 0.00222873 
0.00234647 0.00248025 0.00262937 0.0027898 0.00295667 0.00312427 0.00328869 0.00344742 0.00360133 
0.00375766 0.00393147 0.00414126 0.00439824 0.00470174 0.00504379 0.00541448 0.00580555 0.00621017 
0.0066201 0.00702119 0.0073873 0.00104587 0.00112188 0.00120344 0.00128989 0.0013803 0.00147266 
0.00156453 0.00165333 0.0017371 0.00181618 0.00189147 0.00196563 0.00204071 0.00211931 0.00220359 
0.00229485 0.00239453 0.00250331 0.00262232 0.00275348 0.00289886 0.00306028 0.00323872 0.00343297 
0.00363988 0.00385553 0.0040756 0.0042971 0.00451962 0.00474604 0.00498479 0.00524824 0.00554881 
0.00589369 0.0062826 0.00670939 0.00716531 0.00764029 0.00812267 0.00859758 0.00904412 0.00943585 
0.00125598 0.00134177 0.00143396 0.00153206 0.00163531 0.00174226 0.00185116 0.00195999 0.00206685 
0.00217127 0.00227387 0.00237572 0.00247928 0.00258717 0.00270155 0.00282451 0.00295785 0.00310281 
0.00326119 0.0034347 0.00362505 0.00383313 0.00405934 0.00430252 0.0045603 0.00483 0.00510838 
0.00539413 0.00568803 0.00599374 0.00631895 0.00667294 0.0070644 0.00749777 0.00797251 0.0084837 
0.00902301 0.00957866 0.0101355 0.0106748 0.0111737 0.0116083 0.00147404 0.00157055 0.00167428 
0.00178474 0.00190153 0.00202371 0.00214984 0.00227836 0.00240775 0.00253718 0.00266697 0.00279787 
0.00293196 0.00307162 0.00321937 0.00337768 0.0035484 0.00373336 0.00393428 0.00415281 0.00439013 
0.00464706 0.00492357 0.00521884 0.0055314 0.00585933 0.00620082 0.00655553 0.006925 0.00731296 
0.00772556 0.00816941 0.00865038 0.0091711 0.00973085 0.0103248 0.0109443 0.0115769 0.0122058 
0.0128108 0.0133695 0.0138623 0.00169617 0.00180419 0.00192004 0.00204353 0.00217441 0.00231207 
0.00245547 0.00260347 0.00275481 0.00290889 0.00306577 0.00322618 0.00339173 0.00356485 0.00374801 
0.00394359 0.00415396 0.00438071 0.00462576 0.0048904 0.00517576 0.00548274 0.00581105 0.00616058 
0.0065302 0.00691916 0.00732637 0.00775229 0.00819861 0.00866874 0.00916695 0.00969823 0.0102661 
0.0108716 0.0115135 0.0121868 0.0128827 0.0135882 0.0142867 0.0149585 0.0155836 0.0161454 
0.00191851 0.00203832 0.00216669 0.00230346 0.00244871 0.0026018 0.00276249 0.00292953 0.00310227 
0.00328043 0.00346385 0.00365355 0.00385081 0.00405785 0.00427693 0.00451061 0.00476094 0.00503 
0.00531915 0.00562985 0.00596337 0.00632024 0.00670082 0.00710505 0.00753251 0.00798285 0.00845613 
0.0089528 0.00947457 0.010024 0.0106043 0.0112185 0.0118687 0.0125547 0.0132744 0.0140222 
0.0147897 0.0155638 0.0163292 0.0170677 0.0177625 0.0183994 0.00213687 0.00226862 0.00240951 
0.00255973 0.00271914 0.00288767 0.00306509 0.00325079 0.00344425 0.00364546 0.00385481 0.00407294 
0.00430106 0.00454128 0.00479573 0.00506681 0.00535656 0.00566651 0.0059989 0.00635454 0.00673489 
0.00714058 0.00757232 0.00803021 0.00851426 0.00902468 0.00956169 0.0101263 0.0107196 0.0113435 
0.0120002 0.0126915 0.0134177 0.014178 0.0149695 0.0157859 0.0166193 0.0174574 0.018286 
0.0190896 0.0198536 0.0205665 0.00234777 0.00249124 0.00264436 0.00280758 0.00298087 0.00316448 
0.00335798 0.00356168 0.00377509 0.00399836 0.00423214 0.00447726 0.00473489 0.00500666 0.00529497 
0.00560157 0.00592881 0.00627805 0.00665116 0.00704973 0.00747468 0.00792683 0.00840714 0.00891607 
0.00945384 0.0100209 0.0106178 0.0112454 0.0119046 0.0125966 0.0133225 0.0140831 0.0148778 
0.0157048 0.0165604 0.017439 0.0183318 0.0192282 0.0201154 0.0209804 0.0218104 0.0225959 
0.00254791 0.00270255 0.00286757 0.00304323 0.00322983 0.00342767 0.00363676 0.00385734 0.00408961 
0.00433362 0.00459026 0.00486039 0.0051455 0.00544679 0.00576645 0.00610635 0.00646819 0.00685406 
0.00726513 0.00770326 0.00816963 0.00866492 0.00919023 0.00974627 0.0103335 0.0109526 0.0116039 
0.0122881 0.0130061 0.0137584 0.0145453 0.0153665 0.0162212 0.0171064 0.0180183 0.0189509 
0.0198961 0.0208445 0.0217846 0.022705 0.0235954 0.0244471 0.00273489 0.00290012 0.00307621 
0.00326359 0.00346268 0.00367391 0.00389753 0.00413392 0.00438358 0.00464678 0.00492441 0.00521759 
0.00552754 0.00585579 0.00620388 0.00657395 0.0069674 0.00738637 0.00783194 0.00830587 0.00880963 
0.00934395 0.00990983 0.0105082 0.0111397 0.0118047 0.012504 0.0132377 0.0140066 0.0148107 
0.0156497 0.0165227 0.0174279 0.0183625 0.019322 0.0203005 0.0212904 0.0222835 0.0232693 
0.0242384 0.0251813 0.0260903 0.00290679 0.00308169 0.00326792 0.00346617 0.00367686 0.0039003 
0.00413727 0.00438809 0.00465352 0.00493414 0.00523075 0.00554453 0.00587673 0.00622876 0.00660237 
0.00699912 0.00742082 0.00786897 0.00834517 0.00885075 0.00938726 0.00995595 0.0105574 0.0111926 
0.0118623 0.0125669 0.013307 0.0140827 0.0148944 0.0157416 0.0166236 0.017539 0.0184856 
0.0194603 0.0204584 0.0214744 0.0225012 0.0235307 0.0245545 0.0255637 0.0265502 0.027507 
0.00306209 0.00324556 0.00344113 0.00364909 0.0038701 0.00410477 0.00435356 0.00461747 0.00489689 
0.00519294 0.00550615 0.00583797 0.00618965 0.00656252 0.00695808 0.00737806 0.00782405 0.00829755 
0.00880011 0.00933292 0.00989757 0.0104953 0.0111268 0.0117932 0.0124947 0.0132323 0.014006 
0.0148159 0.015662 0.0165436 0.0174597 0.0184084 0.0193873 0.020393 0.021421 0.0224657 
0.0235207 0.0245787 0.0256321 0.0266728 0.0276934 0.0286873 0.00319963 0.00339079 0.00359433 
0.00381091 0.00404102 0.00428543 0.0045447 0.00481988 0.00511158 0.00542072 0.00574837 0.00609564 
0.00646388 0.00685437 0.00726856 0.00770795 0.0081744 0.00866906 0.00919364 0.00974909 0.0103369 
0.0109585 0.0116146 0.012306 0.0130333 0.0137968 0.0145969 0.0154333 0.0163057 0.0172134 
0.0181549 0.0191281 0.0201305 0.0211584 0.0222077 0.0232727 0.0243476 0.0254257 0.0265 
0.0275631 0.0286083 0.0296292 0.00331857 0.00351626 0.00372664 0.00395056 0.00418847 0.00444117 
0.00470936 0.00499394 0.00529596 0.00561615 0.00595563 0.00631571 0.00669759 0.00710246 0.00753189 
0.00798718 0.00846987 0.00898167 0.00952372 0.0100973 0.0107034 0.0113437 0.0120186 0.0127291 
0.0134757 0.0142587 0.0150781 0.0159337 0.0168247 0.0177503 0.018709 0.0196985 0.020716 
0.0217578 0.0228199 0.0238971 0.0249838 0.0260737 0.0271604 0.0282372 0.0292976 0.0303354 
0.00341828 0.00362131 0.00383739 0.00406719 0.00431151 0.00457098 0.00484641 0.0051387 0.00544886 
0.00577794 0.00612698 0.00649707 0.00688949 0.00730573 0.00774693 0.00821438 0.00870967 0.0092342 
0.00978942 0.0103764 0.0109961 0.0116496 0.0123382 0.0130621 0.0138219 0.0146178 0.0154498 
0.0163174 0.0172198 0.0181559 0.019124 0.0201219 0.0211465 0.0221946 0.0232618 0.0243435 
0.025434 0.0265278 0.0276186 0.0287006 0.0297673 0.030813 0.00349827 0.00370552 0.00392603 
0.00416032 0.00440956 0.00467419 0.00495525 0.00525333 0.0055697 0.00590533 0.00626134 0.00663882 
0.00703912 0.00746339 0.00791287 0.00838908 0.00889318 0.00942649 0.00999048 0.0105864 0.0112148 
0.0118769 0.0125736 0.0133054 0.0140726 0.0148754 0.0157135 0.0165866 0.0174935 0.018433 
0.0194035 0.0204025 0.0214272 0.0224742 0.0235391 0.0246179 0.025705 0.0267952 0.0278826 
0.0289618 0.0300265 0.0310713 0.00355827 0.00376859 0.00399207 0.00422971 0.00448225 0.00475052 
0.00503523 0.00533733 0.00565788 0.00599785 0.00635845 0.00674068 0.00714594 0.0075752 0.00802986 
0.00851125 0.00902039 0.00955868 0.0101274 0.0107276 0.0113603 0.0120262 0.0127261 0.0134604 
0.0142295 0.0150333 0.0158717 0.016744 0.0176492 0.0185857 0.019552 0.0205456 0.0215636 
0.0226026 0.0236588 0.0247278 0.0258047 0.0268844 0.0279614 0.0290302 0.0300856 0.0311219 
0.00359824 0.00381016 0.00403556 0.00427504 0.00452941 0.00479959 0.00508638 0.0053906 0.00571329 
0.00605543 0.0064181 0.00680266 0.0072099 0.00764138 0.00809797 0.00858107 0.00909185 0.00963132 
0.0102008 0.0108013 0.0114337 0.0120987 0.0127972 0.0135291 0.0142949 0.0150946 0.0159276 
0.0167935 0.017691 0.0186187 0.0195746 0.0205568 0.0215621 0.0225871 0.0236284 0.0246814 
0.0257419 0.0268048 0.0278649 0.028917 0.0299561 0.0309766 0.00361812 0.00383054 0.00405625 
0.0042963 0.00455108 0.00482157 0.00510866 0.00541306 0.00573589 0.00607809 0.00644067 0.00682483 
0.00723158 0.00766213 0.00811771 0.00859938 0.00910821 0.00964537 0.0102118 0.0108087 0.0114367 
0.0120966 0.0127888 0.0135139 0.0142717 0.0150621 0.0158848 0.0167389 0.0176236 0.0185369 
0.0194775 0.0204424 0.0214294 0.0224351 0.0234557 0.0244875 0.0255258 0.0265661 0.0276036 
0.0286331 0.0296496 0.0306485 0.00361786 0.00382952 0.00405453 0.00429352 0.00454726 0.00481653 
0.00510217 0.00540504 0.00572602 0.0060661 0.0064263 0.00680772 0.00721139 0.00763836 0.00808994 
0.00856693 0.00907073 0.00960214 0.010162 0.0107515 0.0113712 0.0120219 0.0127039 0.0134175 
0.0141628 0.0149396 0.0157471 0.0165849 0.0174517 0.0183461 0.0192659 0.020209 0.0211728 
0.0221541 0.0231493 0.0241546 0.0251659 0.0261786 0.0271882 0.0281898 0.0291786 0.0301502 
0.0035975 0.00380734 0.00403031 0.00426701 0.00451823 0.00478478 0.0050673 0.00536679 0.00568408 
0.00601996 0.00637569 0.00675198 0.00715003 0.00757089 0.00801558 0.00848515 0.00898064 0.00950295 
0.010053 0.0106315 0.0112393 0.011877 0.0125449 0.0132431 0.0139719 0.0147306 0.015519 
0.016336 0.0171806 0.0180513 0.0189462 0.0198631 0.0207993 0.0217518 0.0227171 0.0236917 
0.0246713 0.0256521 0.0266292 0.0275984 0.0285549 0.0294942 0.00355756 0.00376435 0.00398396 
0.00421714 0.00446443 0.00472671 0.00500463 0.00529901 0.00561063 0.00594058 0.0062895 0.00665861 
0.00704865 0.00746077 0.00789596 0.00835518 0.00883949 0.00934972 0.00988666 0.010451 0.0110435 
0.0116646 0.0123147 0.012994 0.0137023 0.0144393 0.0152044 0.0159969 0.0168154 0.0176586 
0.0185246 0.0194112 0.0203159 0.0212358 0.0221674 0.0231073 0.0240517 0.0249964 0.0259373 
0.02687 0.02779 0.0286931 0.00349766 0.00370051 0.00391603 0.00414428 0.00438639 0.00464292 
0.00491469 0.00520236 0.00550669 0.00582856 0.00616892 0.00652844 0.0069083 0.00730927 0.00773246 
0.0081788 0.00864912 0.0091443 0.00966514 0.0102122 0.0107862 0.0113876 0.0120166 0.0126734 
0.0133578 0.0140696 0.0148081 0.0155722 0.0163612 0.0171734 0.018007 0.0188599 0.0197297 
0.0206135 0.0215082 0.0224102 0.0233158 0.0242213 0.0251225 0.026015 0.0268951 0.0277585 
0.00341913 0.00361685 0.00382657 0.00404904 0.00428466 0.00453418 0.00479833 0.0050777 0.00537299 
0.00568508 0.00601486 0.00636293 0.00673038 0.00711799 0.00752673 0.00795752 0.0084113 0.00888881 