# vtk DataFile Version 4.0
vtk output
ASCII
DATASET STRUCTURED_POINTS
DIMENSIONS 42 42 42
SPACING 0.05 0.05 0.05
ORIGIN -1.025 -1.025 -1.025
POINT_DATA 74088
FIELD FieldData 1
potential 1 74088 double
0.00634296 0.00643907 0.0065329 0.0066148 0.00666946 0.00667686 0.00661724 0.00648036 0.00627227 
0.00601343 0.00572872 0.00543372 0.00513551 0.00483782 0.00454508 0.00426132 0.00399026 0.00373523 
0.00349904 0.00328448 0.00309382 0.00292735 0.00278299 0.00265501 0.00253623 0.00242074 0.00230542 
0.00218995 0.00207543 0.00196387 0.00185758 0.0017593 0.00167079 0.00159195 0.00152165 0.00145852 
0.00140199 0.00135245 0.00130999 0.00127523 0.00124735 0.00122349 0.0083538 0.00839521 0.00843421 
0.00846133 0.00846572 0.00843277 0.00834753 0.00819892 0.00798538 0.00771591 0.00740542 0.00706791 
0.00671451 0.00635306 0.00599112 0.00563471 0.00528983 0.0049613 0.00465324 0.00436936 0.00411189 
0.00388156 0.00367669 0.00349302 0.00332331 0.00316244 0.00300625 0.0028533 0.00270377 0.00255891 
0.00242082 0.00229177 0.00217396 0.00206751 0.00197201 0.001886 0.00180865 0.00173918 0.00167728 
0.00162227 0.00157219 0.00152477 0.0105902 0.0105694 0.0105462 0.0105122 0.0104589 0.0103749 
0.0102477 0.0100669 0.00982708 0.00953032 0.00918486 0.00880171 0.00839253 0.00796794 0.00753763 
0.00711011 0.00669287 0.00629213 0.00591313 0.00555961 0.00523383 0.0049372 0.00466758 0.0044216 
0.00419446 0.00398108 0.00377713 0.00358082 0.00339119 0.00320899 0.00303559 0.00287302 0.00272278 
0.00258552 0.00246103 0.0023481 0.00224569 0.00215246 0.00206737 0.00198886 0.00191489 0.00184253 
0.0130143 0.0129273 0.0128363 0.012735 0.012616 0.0124702 0.0122876 0.0120579 0.0117743 
0.0114354 0.0110446 0.0106102 0.0101434 0.00965559 0.00915781 0.00866054 0.00817266 0.00770111 
0.00725191 0.00682885 0.00643478 0.00606983 0.00573339 0.00542258 0.00513391 0.00486305 0.00460651 
0.00436186 0.00412772 0.00390417 0.00369215 0.003493 0.00330768 0.00313694 0.00298054 0.00283748 
0.00270657 0.00258622 0.0024749 0.00237067 0.00227087 0.0021736 0.0155701 0.0154163 0.0152549 
0.0150816 0.0148907 0.0146749 0.0144258 0.0141342 0.0137933 0.0133994 0.0129541 0.0124631 
0.0119362 0.0113851 0.0108214 0.0102565 0.00969977 0.00915926 0.00864134 0.00814948 0.0076867 
0.00725371 0.00684997 0.00647339 0.00612147 0.00579079 0.00547836 0.0051819 0.00490004 0.00463226 
0.00437888 0.0041406 0.00391805 0.00371179 0.00352123 0.00334562 0.0031838 0.00303406 0.00289432 
0.00276234 0.00263616 0.00251381 0.0181897 0.0179704 0.0177386 0.0174916 0.0172254 0.0169343 
0.0166114 0.0162489 0.015841 0.0153834 0.0148763 0.0143245 0.0137361 0.0131225 0.0124949 
0.0118648 0.011242 0.0106353 0.0100502 0.0094911 0.00896116 0.0084612 0.00799116 0.00754945 
0.00713445 0.00674325 0.00637389 0.00602421 0.00569283 0.00537891 0.00508234 0.00480324 0.00454215 
0.00429892 0.00407299 0.00386344 0.00366931 0.00348844 0.00331904 0.00315883 0.00300587 0.00285852 
0.0207995 0.0205175 0.0202174 0.0198978 0.0195559 0.0191877 0.0187877 0.01835 0.0178696 
0.0173433 0.0167707 0.0161558 0.0155062 0.0148314 0.0141427 0.0134511 0.0127658 0.0120956 
0.0114465 0.0108233 0.0102287 0.00966426 0.00913002 0.00862532 0.00814878 0.00769849 0.00727295 
0.00687021 0.0064891 0.00612858 0.00578825 0.00546794 0.00516765 0.00488694 0.00462513 0.00438144 
0.00415421 0.00394192 0.00374246 0.0035539 0.0033744 0.00320232 0.0233274 0.0229867 0.0226219 
0.0222328 0.0218177 0.0213739 0.0208973 0.0203843 0.0198308 0.0192346 0.0185961 0.0179188 
0.0172092 0.0164766 0.0157302 0.0149807 0.0142375 0.0135083 0.0127998 0.0121162 0.0114609 
0.0108357 0.0102409 0.00967644 0.00914167 0.00863503 0.00815549 0.00770146 0.00727181 0.00686571 
0.00648235 0.00612134 0.0057823 0.00546471 0.00516756 0.00488977 0.0046301 0.0043866 0.00415768 
0.00394139 0.00373607 0.0035402 0.0257084 0.0253139 0.0248896 0.024436 0.0239525 0.0234376 
0.0228887 0.0223036 0.0216801 0.0210169 0.020315 0.0195784 0.0188123 0.018025 0.0172257 
0.0164237 0.0156274 0.0148449 0.0140819 0.0133433 0.0126323 0.0119512 0.0113006 0.0106811 
0.0100922 0.00953337 0.00900326 0.008501 0.00802541 0.00757574 0.00715115 0.006751 0.00637494 
0.00602172 0.00569029 0.00537993 0.00508882 0.00481564 0.00455838 0.00431549 0.00408551 0.0038669 
0.0278899 0.027447 0.0269694 0.0264579 0.0259127 0.0253332 0.0247187 0.0240679 0.0233802 
0.0226555 0.0218958 0.0211042 0.0202865 0.0194501 0.0186032 0.0177542 0.0169111 0.0160809 
0.0152698 0.0144821 0.0137216 0.0129904 0.0122899 0.0116208 0.0109833 0.0103768 0.00980069 
0.00925425 0.00873625 0.00824619 0.00778305 0.00734659 0.00693547 0.00654861 0.00618531 0.00584417 
0.00552365 0.00522234 0.00493861 0.00467101 0.00441779 0.00417781 0.0298326 0.0293476 0.0288236 
0.0282614 0.0276625 0.0270268 0.0263549 0.0256466 0.0249029 0.024124 0.0233126 0.022473 
0.0216101 0.0207308 0.0198425 0.0189529 0.0180694 0.0171984 0.0163456 0.0155156 0.0147121 
0.0139374 0.0131934 0.0124809 0.0118008 0.0111522 0.0105352 0.00994914 0.00939316 0.00886672 
0.00836876 0.00789884 0.00745559 0.00703816 0.00664542 0.00627596 0.00592858 0.00560146 0.00529343 
0.00500304 0.00472855 0.00446881 0.0315107 0.0309903 0.0304269 0.0298226 0.0291785 0.0284956 
0.0277757 0.0270191 0.0262276 0.0254031 0.0245487 0.0236683 0.0227673 0.0218522 0.0209294 
0.0200059 0.0190888 0.018184 0.0172966 0.0164313 0.015592 0.0147808 0.0140001 0.0132509 
0.0125342 0.0118496 0.0111973 0.0105769 0.00998776 0.00942921 0.0089005 0.00840086 0.00792905 
0.00748418 0.00706505 0.00667042 0.00629868 0.00594861 0.00561889 0.00530788 0.00501423 0.00473668 
0.0329099 0.032361 0.0317662 0.0311275 0.0304472 0.0297263 0.0289673 0.0281721 0.0273425 
0.0264815 0.0255926 0.0246798 0.0237487 0.0228049 0.0218549 0.0209049 0.0199612 0.0190294 
0.0181146 0.0172215 0.0163533 0.0155128 0.0147022 0.0139233 0.0131763 0.0124618 0.0117804 
0.011131 0.0105137 0.00992778 0.00937277 0.00884747 0.00835099 0.00788217 0.00744022 0.00702345 
0.00663049 0.00626023 0.00591141 0.00558236 0.00527177 0.00497844 0.0340261 0.0334552 0.0328366 
0.0321718 0.0314632 0.0307137 0.0299253 0.0291007 0.0282426 0.0273543 0.0264395 0.0255027 
0.0245492 0.0235845 0.0226144 0.0216451 0.020682 0.0197305 0.0187956 0.0178815 0.0169917 
0.016129 0.0152955 0.0144932 0.0137225 0.0129847 0.0122795 0.0116068 0.0109667 0.0103585 
0.0097815 0.00923496 0.00871773 0.008229 0.00776751 0.007332 0.00692117 0.00653387 0.00616863 
0.00582402 0.00549898 0.0051922 0.0348622 0.0342757 0.0336396 0.0329563 0.0322284 0.0314587 
0.0306499 0.0298052 0.0289276 0.0280208 0.0270887 0.0261362 0.0251682 0.02419 0.0232072 
0.0222257 0.0212502 0.020286 0.0193379 0.0184099 0.0175053 0.0166271 0.0157777 0.0149585 
0.0141707 0.0134154 0.0126923 0.012002 0.0113442 0.0107185 0.0101244 0.00956081 0.00902702 
0.00852215 0.00804493 0.00759424 0.00716868 0.00676732 0.00638854 0.00603123 0.00569414 0.00537598 
0.0354253 0.0348294 0.034183 0.0334884 0.0327489 0.0319671 0.0311466 0.0302901 0.0294016 
0.0284846 0.0275434 0.026583 0.025608 0.0246237 0.0236355 0.0226483 0.0216672 0.0206971 
0.0197426 0.0188074 0.0178947 0.0170077 0.0161485 0.0153187 0.0145199 0.0137528 0.0130178 
0.012315 0.0116449 0.0110066 0.0103998 0.0098236 0.00927753 0.00876046 0.00827121 0.00780867 
0.00737186 0.00695936 0.00657 0.00620259 0.00585585 0.00552866 0.0357275 0.0351279 0.0344772 
0.0337781 0.0330341 0.032248 0.0314232 0.0305628 0.0296711 0.0287517 0.0278093 0.0268482 
0.0258734 0.02489 0.0239027 0.0229167 0.0219364 0.020967 0.0200123 0.0190762 0.0181616 
0.0172719 0.016409 0.0155748 0.0147708 0.0139975 0.0132559 0.0125461 0.0118684 0.0112222 
0.0106072 0.0100229 0.0094685 0.00894295 0.00844535 0.00797451 0.00752954 0.00710914 0.00671208 
0.00633718 0.0059833 0.00564937 0.0357826 0.0351845 0.0345351 0.033838 0.0330958 0.0323121 
0.0314899 0.0306331 0.0297454 0.0288306 0.0278937 0.0269389 0.025971 0.0249947 0.0240148 
0.0230357 0.0220627 0.0210999 0.020151 0.0192196 0.0183092 0.0174225 0.0165618 0.0157287 
0.0149247 0.0141508 0.0134076 0.0126958 0.0120152 0.0113657 0.010747 0.0101587 0.00959985 
0.00906975 0.00856723 0.00809159 0.00764162 0.00721627 0.00681425 0.00643454 0.00607599 0.00573743 
0.0356064 0.0350139 0.0343713 0.0336813 0.0329472 0.0321717 0.0313585 0.0305116 0.0296341 
0.0287308 0.0278056 0.0268632 0.0259082 0.0249451 0.023978 0.0230123 0.0220518 0.0211009 
0.0201633 0.0192422 0.0183413 0.0174632 0.0166098 0.015783 0.0149842 0.0142146 0.0134748 
0.0127655 0.0120865 0.0114382 0.01082 0.0102316 0.0096722 0.00914097 0.0086371 0.00815988 
0.00770808 0.00728065 0.00687648 0.00649451 0.00613362 0.00579291 0.0352142 0.0346319 0.0340006 
0.0333228 0.0326015 0.0318399 0.0310416 0.0302098 0.0293487 0.0284622 0.0275547 0.0266304 
0.0256936 0.0247487 0.0238002 0.0228525 0.0219098 0.0209759 0.0200543 0.019149 0.0182627 
0.0173978 0.0165566 0.0157409 0.0149521 0.0141914 0.0134595 0.0127571 0.0120843 0.0114411 
0.0108273 0.0102425 0.00968626 0.00915741 0.0086557 0.00817995 0.00772921 0.00730265 0.00689894 
0.00651718 0.00615645 0.00581567 0.0346221 0.0340541 0.033438 0.0327768 0.032073 0.0313301 
0.0305514 0.0297401 0.0289003 0.0280359 0.027151 0.0262496 0.0253358 0.0244141 0.0234888 
0.0225639 0.0216434 0.0207312 0.0198307 0.0189453 0.0180779 0.0172309 0.0164064 0.0156062 
0.0148317 0.0140841 0.0133645 0.0126731 0.0120104 0.0113762 0.0107706 0.0101932 0.00964331 
0.00912029 0.00862372 0.00815254 0.00770581 0.00728269 0.00688204 0.0065031 0.00614469 0.00580599 
0.0338462 0.0332957 0.0326985 0.0320575 0.0313754 0.0306555 0.0299005 0.0291143 0.0283004 
0.0274626 0.0266045 0.0257303 0.024844 0.0239499 0.0230518 0.0221539 0.0212598 0.0203734 
0.019498 0.0186368 0.0177924 0.0169673 0.0161635 0.0153828 0.0146267 0.0138964 0.0131928 
0.0125162 0.0118671 0.0112456 0.0106518 0.0100851 0.0095448 0.00903095 0.00854247 0.00807859 
0.00763876 0.00722167 0.00682669 0.00645274 0.00609892 0.00576424 0.0329019 0.0323715 0.0317964 
0.0311791 0.0305224 0.0298289 0.0291018 0.0283444 0.0275604 0.0267527 0.0259255 0.0250823 
0.0242274 0.0233645 0.0224975 0.0216301 0.0207664 0.0199093 0.0190625 0.018229 0.0174114 
0.0166118 0.0158325 0.0150751 0.0143411 0.0136316 0.0129475 0.0122893 0.0116574 0.011052 
0.0104731 0.00992006 0.00939276 0.00889074 0.00841336 0.00795984 0.0075291 0.00712074 0.00673368 
0.00636701 0.00601983 0.00569127 0.0318037 0.0312959 0.0307458 0.0301552 0.0295267 0.0288631 
0.0281671 0.0274421 0.0266909 0.0259171 0.025124 0.0243155 0.0234951 0.0226667 0.0218337 
0.0210004 0.0201697 0.0193454 0.0185305 0.0177281 0.0169403 0.0161697 0.0154182 0.0146874 
0.0139788 0.0132935 0.0126321 0.0119954 0.011384 0.0107978 0.0102367 0.00970047 0.00918907 
0.00870177 0.00823805 0.0077971 0.00737841 0.00698106 0.00660417 0.00624691 0.0059084 0.00558783 
0.0305653 0.0300828 0.0295598 0.0289986 0.0284011 0.0277702 0.0271084 0.0264185 0.0257034 
0.0249663 0.0242104 0.0234392 0.0226562 0.0218648 0.021069 0.0202721 0.0194774 0.0186886 
0.0179084 0.0171397 0.0163849 0.0156462 0.0149254 0.0142243 0.013544 0.0128859 0.0122502 
0.0116382 0.0110502 0.0104859 0.00994541 0.00942893 0.00893591 0.00846581 0.00801831 0.00759266 
0.00718818 0.00680404 0.00643946 0.00609366 0.00576577 0.00545502 0.0292006 0.0287451 0.0282516 
0.0277217 0.0271578 0.0265621 0.025937 0.0252849 0.0246085 0.0239106 0.0231943 0.0224628 
0.0217194 0.0209676 0.020211 0.0194528 0.0186966 0.0179454 0.0172025 0.01647 0.0157507 
0.0150465 0.0143592 0.0136903 0.0130413 0.0124127 0.0118058 0.0112212 0.0106589 0.0101192 
0.00960222 0.00910786 0.00863565 0.00818533 0.00775635 0.00734822 0.00696013 0.00659136 0.0062411 
0.00590871 0.00559325 0.00529412 0.0277224 0.0272956 0.0268331 0.0263368 0.0258086 0.0252503 
0.0246641 0.0240521 0.0234166 0.0227602 0.0220856 0.0213957 0.0206939 0.0199834 0.0192677 
0.0185502 0.0178342 0.0171228 0.016419 0.0157251 0.0150434 0.0143761 0.0137246 0.0130905 
0.012475 0.0118787 0.0113028 0.0107479 0.010214 0.00970122 0.00921003 0.00873986 0.00829094 
0.00786254 0.00745444 0.0070659 0.00669628 0.00634486 0.00601096 0.00569372 0.00539246 0.00510641 
0.0261433 0.0257465 0.025317 0.024856 0.0243651 0.0238463 0.023301 0.022731 0.0221384 
0.0215253 0.0208939 0.0202473 0.0195886 0.0189208 0.0182474 0.0175719 0.0168977 0.0162278 
0.0155646 0.0149111 0.0142691 0.0136407 0.0130272 0.0124299 0.0118498 0.0112883 0.0107458 
0.0102225 0.00971893 0.0092354 0.00877188 0.00832838 0.00790464 0.00750037 0.00711503 0.00674811 
0.00639889 0.00606665 0.00575089 0.0054506 0.005165 0.00489351 0.024476 0.0241106 0.0237151 
0.0232908 0.0228392 0.0223615 0.0218589 0.0213328 0.0207846 0.020216 0.0196295 0.0190273 
0.0184125 0.0177883 0.0171583 0.0165259 0.0158946 0.0152671 0.0146464 0.0140347 0.0134341 
0.0128462 0.0122724 0.0117139 0.0111716 0.0106465 0.0101389 0.00964939 0.00917807 0.00872565 
0.00829182 0.00787665 0.00748006 0.00710167 0.00674096 0.00639743 0.00607036 0.00575933 0.00546326 
0.00518138 0.004913 0.00465734 0.0227339 0.0224005 0.0220401 0.0216539 0.021243 0.0208079 
0.0203495 0.0198688 0.0193663 0.0188437 0.0183027 0.0177457 0.0171755 0.0165954 0.0160093 
0.0154207 0.0148329 0.0142489 0.0136715 0.0131029 0.012545 0.0119993 0.0114668 0.0109486 
0.0104457 0.00995857 0.0094877 0.00903332 0.00859615 0.00817629 0.00777373 0.00738861 0.00702076 
0.00666985 0.00633542 0.00601692 0.00571388 0.00542536 0.00515051 0.00488842 0.00463858 0.00440015 
0.0209309 0.0206301 0.0203057 0.0199586 0.0195892 0.0191982 0.0187855 0.0183512 0.0178957 
0.0174198 0.0169249 0.0164132 0.0158876 0.0153519 0.0148098 0.014265 0.0137211 0.0131812 
0.012648 0.0121235 0.0116095 0.0111071 0.0106173 0.0101409 0.00967869 0.00923087 0.00879788 
0.00838023 0.00797837 0.00759229 0.0072223 0.00686858 0.0065308 0.00620875 0.00590203 0.0056103 
0.00533241 0.00506782 0.00481546 0.00457457 0.00434455 0.00412439 0.0190823 0.0188145 0.0185265 
0.018219 0.0178924 0.0175465 0.0171805 0.0167938 0.016386 0.0159572 0.0155084 0.0150418 
0.0145607 0.0140688 0.0135702 0.0130692 0.0125692 0.0120736 0.011585 0.0111053 0.0106361 
0.010178 0.00973197 0.0092986 0.00887803 0.00847049 0.00807644 0.00769637 0.00733061 0.00697936 
0.00664297 0.00632156 0.00601492 0.00572288 0.00544527 0.00518105 0.00492972 0.00469021 0.00446162 
0.00424325 0.00403389 0.00383311 0.017206 0.0169707 0.0167192 0.0164518 0.0161687 0.0158687 
0.0155502 0.0152118 0.0148518 0.01447 0.0140668 0.0136447 0.0132071 0.012758 0.0123022 
0.0118442 0.011388 0.0109367 0.010493 0.0100587 0.00963463 0.0092219 0.00882048 0.00843068 
0.00805243 0.00768579 0.00733125 0.00698926 0.00666002 0.00634416 0.00604187 0.00575348 0.00547883 
0.00521771 0.0049697 0.00473412 0.0045101 0.00429666 0.00409297 0.00389787 0.00371018 0.00352928 
0.0153217 0.0151185 0.014903 0.014676 0.0144365 0.0141828 0.0139124 0.0136222 0.0133099 
0.0129742 0.0126155 0.0122364 0.0118407 0.0114331 0.011019 0.0106033 0.01019 0.0097828 
0.00938414 0.00899532 0.0086173 0.00825007 0.00789379 0.0075479 0.00721208 0.00688647 0.0065714 
0.00626733 0.00597475 0.00569431 0.00542646 0.0051713 0.0049289 0.004699 0.00448115 0.00427464 
0.00407862 0.00389209 0.0037138 0.00354245 0.00337706 0.00321672 0.0134519 0.0132793 0.0130994 
0.0129121 0.0127164 0.0125092 0.0122867 0.0120444 0.0117785 0.0114871 0.0111709 0.0108325 
0.0104767 0.010109 0.00973514 0.00936054 0.00898972 0.00862626 0.00827231 0.00792908 0.007597 
0.00727563 0.00696432 0.00666208 0.00636842 0.00608339 0.00580732 0.00554059 0.00528421 0.00503886 
0.00480496 0.00458288 0.00437252 0.00417376 0.00398613 0.00380878 0.00364093 0.00348128 0.00332876 
0.00318166 0.00303878 0.00289939 0.0116212 0.0114776 0.0113317 0.0111836 0.0110313 0.0108706 
0.0106954 0.0104994 0.0102774 0.0100276 0.00975043 0.00944978 0.00913122 0.0088014 0.00846631 
0.00813186 0.0078028 0.00748238 0.00717283 0.00687487 0.00658849 0.00631267 0.00604575 0.00578647 
0.00553409 0.00528848 0.00505013 0.0048198 0.00459854 0.00438725 0.00418659 0.00399675 0.003818 
0.00364978 0.00349181 0.00334313 0.00320305 0.00307019 0.00294301 0.00282004 0.00270002 0.00258179 
0.0098542 0.00973763 0.00962439 0.00951471 0.00940566 0.00929077 0.00916141 0.00900888 0.00882715 
0.00861401 0.0083715 0.00810471 0.00782065 0.00752652 0.00722893 0.00693383 0.00664551 0.00636755 
0.00610172 0.00584855 0.00560742 0.00537611 0.00515253 0.00493482 0.00472216 0.00451432 0.00431195 
0.00411622 0.00392848 0.00374991 0.00358111 0.00342254 0.00327392 0.00313517 0.00300558 0.00288462 
0.00277114 0.00266392 0.00256169 0.0024626 0.00236513 0.00226805 0.00817573 0.00808386 0.00800167 
0.00792971 0.00786356 0.00779368 0.00770765 0.00759434 0.00744707 0.00726431 0.00705038 0.00681309 
0.0065605 0.0063004 0.00603934 0.00578246 0.00553436 0.00529793 0.00507514 0.00486591 0.00466885 
0.00448076 0.00429879 0.00412071 0.00394542 0.00377285 0.0036042 0.00344088 0.0032848 0.00313705 
0.00299832 0.00286911 0.00274912 0.00263793 0.002535 0.00243957 0.00235111 0.0022684 0.00218985 
0.00211375 0.00203819 0.00196203 0.0066075 0.00653856 0.0064861 0.00645147 0.00642825 0.00640221 
0.00635606 0.00627586 0.0061543 0.00599347 0.0058016 0.00558909 0.00536532 0.00513808 0.00491266 
0.00469374 0.00448502 0.00428927 0.00410829 0.00394197 0.0037874 0.00364058 0.00349761 0.00335605 
0.00321506 0.00307504 0.00293754 0.00280434 0.00267737 0.00255813 0.00244753 0.00234549 0.00225156 
0.00216538 0.00208623 0.00201407 0.00194837 0.00188807 0.00183162 0.00177721 0.00172289 0.00166695 
0.00516873 0.00512163 0.00509831 0.0051014 0.00512146 0.00513782 0.00512597 0.005069 0.00496258 
0.00481405 0.00463689 0.00444525 0.00424899 0.00405391 0.00386407 0.00368266 0.00351237 0.00335629 
0.00321616 0.00309086 0.00297651 0.00286764 0.00275996 0.00265136 0.00254104 0.00243033 0.00232107 
0.00221529 0.00211518 0.00202231 0.00193715 0.0018593 0.00178813 0.00172332 0.00166472 0.00161263 
0.00156669 0.00152656 0.00149046 0.00145613 0.00142162 0.00138542 0.00387542 0.00385116 0.00385759 
0.00389979 0.00396437 0.00401912 0.00403203 0.00398595 0.00388164 0.00373477 0.00356704 0.00339477 
0.00322587 0.00306328 0.00290887 0.00276417 0.00263157 0.00251409 0.00241282 0.00232605 0.00224805 
0.00217246 0.00209487 0.00201399 0.00193048 0.00184571 0.00176187 0.00168129 0.00160596 0.00153687 
0.00147389 0.00141651 0.00136391 0.00131627 0.001274 0.00123807 0.00120922 0.00118685 0.00116915 
0.00115312 0.00113662 0.00111885 0.00274119 0.00274386 0.00278405 0.00286887 0.00297652 0.00306023 
0.00308292 0.00303176 0.00291602 0.00276388 0.00260467 0.00245341 0.002313 0.00218303 0.00206312 
0.0019537 0.0018574 0.00177648 0.00171167 0.00165907 0.00161105 0.00156129 0.00150712 0.00144873 
0.00138725 0.00132491 0.00126401 0.00120666 0.00115419 0.00110628 0.00106193 0.00102045 0.000981864 
0.000946871 0.000916909 0.000893372 0.000878092 0.000871401 0.000870576 0.000870591 0.000869351 0.000868015 
0.00548626 0.00565482 0.00581902 0.00597624 0.00611656 0.00621217 0.00622327 0.00612343 0.00591313 
0.00562418 0.00530209 0.00497384 0.00464534 0.00431816 0.00399812 0.0036914 0.00340166 0.00313317 
0.00289008 0.00267673 0.00249714 0.00235432 0.00224593 0.00216033 0.00208178 0.00200019 0.00191064 
0.00181409 0.00171304 0.00161118 0.00151327 0.00142457 0.00134985 0.0012892 0.00123821 0.00119369 
0.0011544 0.00112122 0.0010956 0.00107936 0.00107285 0.00107265 0.00770539 0.00780811 0.00791101 
0.00800654 0.00808459 0.00812757 0.00810954 0.00800702 0.00781118 0.0075323 0.00719497 0.00682272 
0.00643129 0.00603114 0.0056313 0.00524004 0.00486402 0.00450967 0.00418224 0.00388706 0.00362794 
0.00340721 0.00322314 0.00306775 0.00292922 0.00279653 0.00266339 0.00252778 0.00239068 0.00225457 
0.00212371 0.0020027 0.00189542 0.00180317 0.00172395 0.00165519 0.00159487 0.00154233 0.00149759 
0.00146054 0.0014294 0.0013995 0.0102314 0.0102535 0.0102801 0.0103019 0.0103093 0.0102886 
0.0102208 0.0100861 0.00987103 0.00957457 0.00920806 0.00878874 0.00833468 0.00786127 0.00738181 
0.00690744 0.00644766 0.00601017 0.00560138 0.00522665 0.004889 0.00458978 0.00432771 0.00409642 
0.00388773 0.00369323 0.00350593 0.00332235 0.00314196 0.0029661 0.00279778 0.00264058 0.0024977 
0.0023705 0.00225832 0.00215964 0.00207216 0.00199441 0.00192505 0.00186237 0.00180335 0.00174399 
0.0130138 0.0129507 0.0128916 0.0128291 0.0127547 0.0126574 0.0125216 0.0123303 0.0120685 
0.0117305 0.0113185 0.0108448 0.0103263 0.00977999 0.00922241 0.00866685 0.00812532 0.00760665 
0.00711801 0.00666422 0.00624771 0.00586998 0.00552825 0.00521894 0.00493594 0.004673 0.00442402 
0.00418536 0.00395521 0.00373394 0.0035235 0.00332622 0.00314452 0.00297939 0.00283113 0.00269816 
0.00257884 0.00247102 0.00237246 0.00228063 0.00219195 0.00210315 0.0159772 0.0158301 0.0156824 
0.0155296 0.015365 0.0151794 0.0149606 0.0146936 0.0143641 0.0139642 0.0134919 0.0129558 
0.0123701 0.0117517 0.0111183 0.0104847 0.00986406 0.00926635 0.0086989 0.00816678 0.00767163 
0.00721451 0.00679367 0.00640599 0.00604736 0.00571312 0.00539824 0.00509957 0.00481484 0.00454381 
0.00428718 0.00404652 0.00382311 0.00361774 0.00343075 0.00326063 0.0031061 0.00296464 0.0028338 
0.00271038 0.00259114 0.00247336 0.0190304 0.0188027 0.0185678 0.0183229 0.0180637 0.017783 
0.017471 0.0171152 0.0167033 0.016227 0.0156834 0.0150782 0.0144232 0.0137342 0.0130281 
0.0123204 0.0116244 0.0109506 0.0103067 0.00969711 0.00912436 0.00858922 0.00809046 0.00762577 
0.00719235 0.00678661 0.00640444 0.00604361 0.00570178 0.00537826 0.0050728 0.00478633 0.0045191 
0.00427202 0.00404466 0.00383572 0.00364391 0.00346686 0.00330179 0.00314563 0.00299541 0.00284933 
0.022074 0.0217705 0.021452 0.0211173 0.0207637 0.0203859 0.0199764 0.0195252 0.0190233 
0.0184628 0.0178416 0.0171638 0.016439 0.0156817 0.0149068 0.0141296 0.0133633 0.0126175 
0.0119002 0.0112165 0.010569 0.0099585 0.00938476 0.00884596 0.00834014 0.00786448 0.0074165 
0.00699385 0.00659455 0.0062176 0.00586237 0.00552889 0.00521747 0.00492796 0.00465951 0.00441129 
0.00418159 0.00396814 0.00376842 0.00357935 0.00339881 0.00322478 0.0250118 0.0246382 0.0242416 
0.0238221 0.023378 0.022906 0.0224006 0.0218545 0.0212613 0.0206152 0.019915 0.0191645 
0.0183718 0.0175493 0.0167109 0.0158695 0.0150377 0.0142253 0.0134402 0.0126871 0.0119694 
0.0112882 0.0106441 0.0100355 0.00946143 0.00891991 0.00840901 0.00792675 0.00747158 0.00704218 
0.00663785 0.00625821 0.00590285 0.00557127 0.00526251 0.00497556 0.00470848 0.00445925 0.00422542 
0.00400457 0.00379464 0.00359345 0.0277606 0.0273235 0.0268559 0.0263587 0.0258314 0.0252719 
0.0246763 0.0240408 0.0233605 0.0226328 0.0218572 0.0210373 0.0201812 0.0192982 0.0184009 
0.0175015 0.0166108 0.0157385 0.0148918 0.014076 0.0132942 0.0125487 0.0118398 0.0111674 
0.0105306 0.00992849 0.00935924 0.00882125 0.00831348 0.00783431 0.00738313 0.00695905 0.00656154 
0.00618974 0.00584223 0.00551786 0.00521506 0.00493158 0.0046653 0.00441423 0.00417624 0.00394963 
0.0302564 0.0297631 0.0292326 0.0286665 0.0280649 0.0274271 0.0267511 0.026035 0.0252766 
0.0244746 0.0236303 0.0227477 0.0218332 0.020896 0.0199466 0.0189959 0.0180536 0.0171286 
0.0162278 0.0153565 0.0145182 0.0137156 0.0129494 0.0122201 0.0115276 0.0108707 0.0102487 
0.00966019 0.00910404 0.00857908 0.0080844 0.00761886 0.00718209 0.00677241 0.00638859 0.00602953 
0.00569331 0.00537797 0.0050816 0.00480237 0.00453831 0.00428794 0.0324549 0.0319134 0.0313288 
0.0307034 0.030038 0.0293326 0.0285878 0.0278026 0.0269767 0.026111 0.0252069 0.0242692 
0.0233042 0.02232 0.0213258 0.0203311 0.0193449 0.0183752 0.0174285 0.0165098 0.0156233 
0.0147716 0.0139561 0.0131775 0.0124364 0.0117319 0.0110635 0.0104302 0.00983089 0.00926489 
0.00873106 0.00822809 0.00775534 0.00731105 0.00689435 0.00650349 0.00613674 0.00579245 0.00546874 
0.00516386 0.00487605 0.00460384 0.0343308 0.0337488 0.0331195 0.0324448 0.0317266 0.030966 
0.0301643 0.0293224 0.0284409 0.0275219 0.0265685 0.0255853 0.0245784 0.0235553 0.0225242 
0.0214936 0.0204714 0.0194651 0.0184808 0.0175235 0.0165973 0.015705 0.0148484 0.0140286 
0.0132465 0.0125016 0.0117935 0.0111217 0.0104853 0.00988346 0.00931501 0.00877922 0.00827445 
0.00779969 0.00735352 0.00693435 0.00654063 0.0061705 0.00582237 0.00549462 0.00518552 0.00489363 
0.0358729 0.0352587 0.0345938 0.0338802 0.0331203 0.0323166 0.0314701 0.0305832 0.0296581 
0.0286976 0.0277056 0.0266869 0.0256472 0.024594 0.0235344 0.0224759 0.021426 0.0203915 
0.019378 0.0183905 0.0174332 0.0165087 0.0156193 0.0147665 0.0139511 0.013173 0.0124322 
0.0117287 0.0110609 0.0104288 0.00983102 0.00926689 0.00873481 0.00823364 0.00776196 0.00731837 
0.00690105 0.00650851 0.00613924 0.00579152 0.0054638 0.00515458 0.0370818 0.0364437 0.035752 
0.0350097 0.0342188 0.0333823 0.0325028 0.031583 0.0306261 0.0296355 0.0286155 0.027571 
0.0265083 0.0254335 0.0243535 0.0232756 0.0222063 0.0211517 0.0201173 0.0191081 0.0181279 
0.0171795 0.0162654 0.0153874 0.0145462 0.0137422 0.012976 0.0122466 0.0115539 0.0108972 
0.0102756 0.009688 0.0091332 0.00861003 0.00811701 0.0076527 0.00721556 0.00680418 0.00641692 
0.00605218 0.0057085 0.0053846 0.037966 0.0373119 0.0366019 0.0358394 0.0350274 0.0341692 
0.0332676 0.0323262 0.0313483 0.0303381 0.0293005 0.02824 0.0271629 0.0260753 0.0249835 
0.023894 0.0228133 0.0217466 0.0206993 0.0196764 0.0186812 0.0177168 0.0167859 0.0158902 
0.0150306 0.014208 0.0134226 0.012674 0.0119623 0.0112867 0.0106463 0.0100404 0.0094675 
0.00892671 0.00841654 0.00793559 0.00748242 0.0070556 0.00665364 0.00627485 0.005918 0.00558184 
0.03854 0.037876 0.0371557 0.0363821 0.0355582 0.0346878 0.033774 0.0328209 0.0318324 
0.0308126 0.0297664 0.0286991 0.0276164 0.0265241 0.0254286 0.0243355 0.0232507 0.0221795 
0.021127 0.0200977 0.019095 0.0181222 0.017182 0.0162756 0.0154046 0.01457 0.0137719 
0.0130104 0.0122854 0.0115964 0.0109426 0.0103231 0.00973681 0.00918283 0.00865964 0.00816608 
0.00770047 0.00726171 0.00684816 0.00645849 0.00609132 0.00574531 0.0388201 0.0381532 0.0374295 
0.0366525 0.0358251 0.0349511 0.0340344 0.0330788 0.0320883 0.0310679 0.030022 0.0289564 
0.0278761 0.0267871 0.025695 0.0246055 0.0235239 0.0224554 0.0214048 0.0203763 0.0193733 
0.018399 0.0174558 0.0165456 0.01567 0.0148296 0.0140249 0.0132563 0.0125237 0.0118265 
0.0111642 0.0105359 0.009941 0.00937811 0.00884596 0.00834339 0.00786912 0.00742178 0.00699989 
0.00660229 0.00622742 0.00587414 0.0388255 0.0381617 0.0374413 0.0366674 0.035844 0.0349743 
0.0340625 0.0331124 0.0321286 0.0311154 0.0300778 0.0290213 0.0279508 0.0268721 0.0257906 
0.0247114 0.0236396 0.0225805 0.0215384 0.0205171 0.0195201 0.0185507 0.0176112 0.0167035 
0.015829 0.0149888 0.0141834 0.0134131 0.0126781 0.0119778 0.0113119 0.0106796 0.0100802 
0.00951255 0.00897555 0.00846777 0.00798827 0.00753571 0.00710864 0.00670585 0.00632603 0.00596792 
0.0385761 0.0379204 0.0372088 0.0364448 0.0356317 0.0347733 0.0338735 0.0329361 0.0319659 
0.030967 0.0299449 0.0289043 0.0278505 0.0267887 0.0257239 0.0246611 0.0236054 0.0225617 
0.0215339 0.0205257 0.0195408 0.0185822 0.0176522 0.0167527 0.0158851 0.0150505 0.0142496 
0.013483 0.0127504 0.0120519 0.011387 0.0107552 0.0101555 0.00958709 0.0090487 0.00853946 
0.00805818 0.00760354 0.0071743 0.0067692 0.00638699 0.00602647 0.0380918 0.0374486 0.036751 
0.0360022 0.0352052 0.0343639 0.0334821 0.0325641 0.0316136 0.0306358 0.0296353 0.0286169 
0.0275856 0.0265462 0.0255039 0.0244632 0.0234291 0.0224061 0.021398 0.0204085 0.0194412 
0.0184987 0.0175836 0.0166974 0.0158418 0.015018 0.0142266 0.0134682 0.0127428 0.0120507 
0.0113912 0.0107639 0.0101679 0.00960244 0.00906654 0.00855924 0.00807938 0.00762588 0.00719725 
0.00679253 0.00641057 0.0060501 0.037391 0.0367649 0.0360859 0.0353567 0.034581 0.0337622 
0.032904 0.0320105 0.0310857 0.0301344 0.0291608 0.0281699 0.0271663 0.0261546 0.0251396 
0.0241262 0.0231186 0.0221212 0.0211377 0.020172 0.0192271 0.0183057 0.01741 0.0165421 
0.0157032 0.0148947 0.0141174 0.0133718 0.0126581 0.0119764 0.0113264 0.0107073 0.010119 
0.00955998 0.00903009 0.00852798 0.00805272 0.00760307 0.00717807 0.00677647 0.00639708 0.00603901 
0.036493 0.0358874 0.0352306 0.0345256 0.0337754 0.0329836 0.0321539 0.0312896 0.0303953 
0.0294752 0.0285335 0.0275746 0.0266031 0.0256235 0.0246406 0.0236587 0.022682 0.0217147 
0.0207604 0.0198226 0.0189044 0.0180084 0.0171366 0.0162911 0.0154734 0.0146845 0.0139256 
0.0131969 0.012499 0.0118315 0.0111947 0.0105879 0.0100103 0.00946157 0.00894077 0.00844697 
0.0079793 0.00753647 0.00711762 0.00672154 0.00634726 0.00599376 0.0354148 0.0348329 0.0342018 
0.0335244 0.0328036 0.032043 0.0312454 0.0304149 0.0295552 0.0286704 0.0277646 0.0268418 
0.0259064 0.0249631 0.024016 0.0230694 0.0221275 0.021194 0.0202727 0.0193668 0.0184793 
0.0176124 0.0167686 0.0159495 0.0151568 0.0143916 0.0136548 0.0129468 0.0122681 0.0116188 
0.0109986 0.0104073 0.00984403 0.00930862 0.00880006 0.00831764 0.00786024 0.00742703 0.00701682 
0.0066288 0.00626191 0.00591497 0.0341729 0.0336172 0.0330148 0.0323682 0.0316804 0.030954 
0.0301925 0.0293991 0.0285779 0.0277318 0.0268651 0.025982 0.0250865 0.0241827 0.0232748 
0.0223668 0.0214631 0.0205667 0.0196817 0.018811 0.0179575 0.0171233 0.0163109 0.0155219 
0.0147579 0.0140198 0.0133086 0.0126247 0.0119689 0.0113409 0.0107409 0.010168 0.0096224 
0.00910319 0.00860982 0.00814147 0.00769716 0.00727595 0.00687702 0.00649931 0.0061419 0.00580369 
0.0327827 0.0322555 0.0316843 0.0310713 0.0304191 0.0297303 0.0290077 0.028255 0.0274747 
0.0266707 0.0258465 0.025006 0.0241529 0.0232915 0.0224254 0.0215592 0.020696 0.0198398 
0.0189941 0.0181617 0.017345 0.0165468 0.0157691 0.0150133 0.014281 0.0135733 0.0128909 
0.0122345 0.0116046 0.0110011 0.0104239 0.00987273 0.00934749 0.00884748 0.00837199 0.00792033 
0.00749155 0.00708495 0.00669952 0.00633437 0.00598843 0.00566102 0.0312575 0.0307614 0.0302237 
0.0296467 0.0290327 0.0283839 0.0277035 0.0269936 0.0262575 0.0254982 0.0247189 0.0239234 
0.0231153 0.0222983 0.0214768 0.0206542 0.0198341 0.0190205 0.0182164 0.0174247 0.0166479 
0.0158885 0.0151481 0.0144285 0.0137309 0.0130565 0.0124057 0.0117796 0.0111784 0.0106022 