# vtk DataFile Version 4.0
vtk output
ASCII
DATASET STRUCTURED_POINTS
DIMENSIONS 42 42 42
SPACING 0.05 0.05 0.05
ORIGIN -1.025 -1.025 -1.025
POINT_DATA 74088
FIELD FieldData 3
potential 1 74088 double
0.914337 0.91325 0.911911 0.9103 0.908559 0.907048 0.90618 0.906195 0.907053 
0.908467 0.910082 0.911647 0.913034 0.914168 0.915008 0.915577 0.915955 0.916217 
0.916413 0.916572 0.916709 0.916832 0.916938 0.917023 0.917082 0.917113 0.917118 
0.9171 0.917061 0.917006 0.916934 0.916831 0.916655 0.916354 0.915905 0.915319 
0.914622 0.913811 0.91284 0.911633 0.910147 0.908466 0.892736 0.89181 0.890688 
0.889354 0.887889 0.886513 0.88552 0.885137 0.885428 0.886282 0.887489 0.888842 
0.890179 0.891389 0.892398 0.893183 0.89377 0.894203 0.894526 0.894773 0.894969 
0.895128 0.895257 0.895355 0.895422 0.895459 0.895467 0.895447 0.895402 0.895328 
0.89522 0.895058 0.894808 0.89443 0.893902 0.893231 0.892435 0.891517 0.890462 
0.889251 0.887915 0.886594 0.869706 0.86889 0.867913 0.866767 0.865506 0.864273 
0.863274 0.862699 0.86265 0.863114 0.86398 0.865099 0.86632 0.867519 0.868601 
0.869515 0.870247 0.870812 0.871242 0.871569 0.871821 0.87202 0.872176 0.872293 
0.872373 0.872416 0.872424 0.872397 0.872336 0.872233 0.872081 0.871859 0.87154 
0.871094 0.870504 0.869771 0.868909 0.867932 0.866853 0.865703 0.864558 0.863564 
0.845393 0.844665 0.843799 0.842796 0.841698 0.840604 0.83966 0.839018 0.838785 
0.838994 0.839599 0.840499 0.841572 0.842697 0.843774 0.844734 0.845541 0.84619 
0.846697 0.847089 0.847392 0.847629 0.847812 0.847949 0.848041 0.84809 0.848097 
0.848062 0.847984 0.847854 0.847662 0.847392 0.847019 0.846523 0.845889 0.84512 
0.84423 0.843245 0.842202 0.841159 0.840211 0.839485 0.820018 0.819368 0.818598 
0.817717 0.816758 0.815796 0.814938 0.814303 0.813988 0.814042 0.814457 0.815169 
0.816084 0.817097 0.818111 0.819052 0.819874 0.820559 0.82111 0.821545 0.821887 
0.822155 0.822362 0.822515 0.822618 0.822672 0.822678 0.822636 0.822544 0.822394 
0.822174 0.82187 0.821464 0.820939 0.820288 0.819514 0.818637 0.817691 0.816726 
0.815814 0.815047 0.814526 0.79385 0.793271 0.792591 0.79182 0.790988 0.790152 
0.789394 0.788806 0.788472 0.788442 0.788724 0.789282 0.790044 0.790926 0.791841 
0.792719 0.79351 0.794189 0.794752 0.795209 0.795573 0.795862 0.796085 0.79625 
0.79636 0.796418 0.796424 0.796377 0.796276 0.796112 0.795877 0.795556 0.795137 
0.794607 0.793965 0.793218 0.792389 0.791517 0.790657 0.789882 0.789269 0.788898 
0.767179 0.766669 0.766073 0.765404 0.764688 0.763972 0.763318 0.762799 0.762482 
0.762412 0.762605 0.763038 0.763663 0.76441 0.765209 0.765998 0.766729 0.767374 
0.767923 0.768378 0.768749 0.769045 0.769276 0.769446 0.769561 0.76962 0.769626 
0.769577 0.769472 0.769303 0.769062 0.768739 0.768324 0.767811 0.767201 0.766506 
0.76575 0.764974 0.764231 0.763584 0.7631 0.762834 0.74029 0.739843 0.739326 
0.738751 0.738143 0.737538 0.736985 0.736541 0.736259 0.736177 0.73631 0.736647 
0.737153 0.737774 0.738455 0.739144 0.739797 0.740389 0.740905 0.741342 0.741704 
0.741996 0.742226 0.742397 0.742511 0.742571 0.742577 0.742528 0.742421 0.742253 
0.742016 0.741702 0.741306 0.740826 0.740266 0.739639 0.738971 0.738299 0.737671 
0.73714 0.736758 0.736566 0.71343 0.713043 0.712599 0.712111 0.711599 0.711094 
0.710635 0.710265 0.710025 0.709946 0.71004 0.710303 0.710708 0.711218 0.711788 
0.712377 0.712948 0.713476 0.713946 0.714353 0.714695 0.714974 0.715196 0.715361 
0.715472 0.71553 0.715536 0.715488 0.715385 0.715222 0.714996 0.714701 0.714334 
0.713897 0.713396 0.712845 0.712269 0.7117 0.711178 0.710748 0.710446 0.710305 
0.686803 0.686469 0.686092 0.685682 0.685256 0.68484 0.684464 0.684162 0.683964 
0.683894 0.683963 0.684169 0.684493 0.684907 0.685379 0.685874 0.686364 0.686825 
0.687244 0.687613 0.687927 0.688187 0.688395 0.688551 0.688656 0.688711 0.688716 
0.688671 0.688573 0.688421 0.68821 0.68794 0.687609 0.68722 0.686781 0.686307 
0.685819 0.685345 0.684918 0.684571 0.684334 0.684227 0.660556 0.660273 0.659955 
0.659614 0.659264 0.658924 0.65862 0.658377 0.658217 0.658159 0.658212 0.658374 
0.658633 0.658969 0.659355 0.659767 0.660181 0.660578 0.660945 0.661272 0.661554 
0.661791 0.661981 0.662125 0.662222 0.662273 0.662278 0.662236 0.662146 0.662007 
0.661816 0.661573 0.661281 0.660942 0.660565 0.660163 0.659756 0.659366 0.659019 
0.658741 0.658553 0.658471 0.634795 0.634557 0.634292 0.63401 0.633725 0.633451 
0.633208 0.633014 0.632887 0.632842 0.632884 0.633013 0.63322 0.63349 0.633806 
0.634146 0.634492 0.634829 0.635145 0.63543 0.63568 0.635891 0.636061 0.636191 
0.63628 0.636327 0.636331 0.636294 0.636213 0.636088 0.635918 0.635705 0.635451 
0.63516 0.634841 0.634506 0.63417 0.633852 0.633571 0.633349 0.6332 0.633136 
0.609581 0.609383 0.609165 0.608935 0.608704 0.608485 0.608292 0.608139 0.608041 
0.608007 0.608041 0.608144 0.60831 0.608529 0.608785 0.609064 0.609352 0.609635 
0.609903 0.610149 0.610366 0.610551 0.610702 0.610817 0.610896 0.610938 0.610943 
0.61091 0.610839 0.610729 0.610582 0.610398 0.610181 0.609935 0.609669 0.609391 
0.609117 0.608859 0.608634 0.608456 0.608338 0.608286 0.584946 0.584783 0.584605 
0.58442 0.584235 0.584061 0.58391 0.583791 0.583716 0.583691 0.58372 0.583804 
0.583938 0.584113 0.584321 0.584549 0.584786 0.585022 0.585248 0.585456 0.585642 
0.585802 0.585934 0.586035 0.586105 0.586142 0.586147 0.586119 0.586058 0.585964 
0.585838 0.585683 0.5855 0.585295 0.585075 0.584849 0.584626 0.584418 0.584238 
0.584096 0.584002 0.58396 0.560897 0.560765 0.560623 0.560475 0.560329 0.560193 
0.560076 0.559985 0.559928 0.559911 0.559937 0.560005 0.560112 0.560254 0.560421 
0.560607 0.560801 0.560996 0.561184 0.561359 0.561517 0.561653 0.561766 0.561854 
0.561915 0.561948 0.561953 0.561931 0.56188 0.561801 0.561696 0.561566 0.561415 
0.561247 0.561067 0.560884 0.560704 0.560538 0.560395 0.560282 0.560206 0.560171 
0.537427 0.537322 0.53721 0.537094 0.53698 0.536875 0.536786 0.536717 0.536676 
0.536665 0.536688 0.536744 0.53683 0.536944 0.537079 0.537228 0.537386 0.537545 
0.5377 0.537846 0.537978 0.538093 0.538189 0.538264 0.538317 0.538346 0.538352 
0.538335 0.538294 0.538229 0.538143 0.538037 0.537914 0.537778 0.537634 0.537488 
0.537345 0.537213 0.5371 0.53701 0.536949 0.536921 0.514513 0.514432 0.514345 
0.514257 0.514171 0.514092 0.514025 0.513975 0.513946 0.51394 0.513961 0.514006 
0.514076 0.514167 0.514274 0.514394 0.514521 0.51465 0.514776 0.514895 0.515004 
0.5151 0.51518 0.515243 0.515289 0.515315 0.515322 0.515309 0.515277 0.515227 
0.515158 0.515074 0.514977 0.514869 0.514756 0.51464 0.514528 0.514425 0.514336 
0.514266 0.514218 0.514194 0.492127 0.492067 0.492003 0.491938 0.491875 0.491818 
0.49177 0.491735 0.491716 0.491715 0.491733 0.49177 0.491826 0.491897 0.491982 
0.492076 0.492177 0.492279 0.49238 0.492476 0.492564 0.492643 0.492709 0.492762 
0.492801 0.492824 0.492832 0.492825 0.492802 0.492764 0.492712 0.492647 0.492572 
0.49249 0.492403 0.492315 0.492229 0.49215 0.492081 0.492027 0.491989 0.491969 
0.470235 0.470194 0.47015 0.470106 0.470063 0.470024 0.469992 0.469969 0.469958 
0.469961 0.469977 0.470007 0.47005 0.470105 0.470171 0.470243 0.470321 0.4704 
0.470479 0.470554 0.470624 0.470687 0.470741 0.470784 0.470817 0.470838 0.470848 
0.470845 0.47083 0.470804 0.470767 0.470721 0.470666 0.470606 0.470542 0.470477 
0.470414 0.470356 0.470305 0.470264 0.470234 0.470218 0.448799 0.448776 0.44875 
0.448723 0.448698 0.448676 0.448657 0.448646 0.448642 0.448647 0.448661 0.448684 
0.448717 0.448758 0.448806 0.448859 0.448916 0.448975 0.449034 0.449091 0.449145 
0.449193 0.449236 0.449271 0.449299 0.449318 0.449329 0.449331 0.449324 0.449309 
0.449286 0.449256 0.44922 0.44918 0.449137 0.449094 0.449051 0.44901 0.448975 
0.448945 0.448923 0.448909 0.427782 0.427774 0.427765 0.427755 0.427746 0.427738 
0.427732 0.42773 0.427732 0.427739 0.427751 0.427768 0.427791 0.427819 0.427852 
0.427887 0.427926 0.427967 0.428007 0.428047 0.428085 0.428121 0.428153 0.428181 
0.428204 0.428222 0.428234 0.428241 0.428242 0.428238 0.428228 0.428214 0.428196 
0.428174 0.428151 0.428126 0.428102 0.428078 0.428056 0.428037 0.428021 0.42801 
0.407143 0.407151 0.407157 0.407163 0.407168 0.407173 0.407179 0.407186 0.407193 
0.407202 0.407212 0.407224 0.407237 0.407253 0.40727 0.40729 0.407311 0.407334 
0.407357 0.407382 0.407406 0.407429 0.407452 0.407473 0.407492 0.407509 0.407523 
0.407534 0.407543 0.407549 0.407552 0.407553 0.407552 0.407548 0.407543 0.407537 
0.407529 0.407521 0.407512 0.407503 0.407493 0.407484 0.386843 0.386865 0.386887 
0.386908 0.386928 0.386947 0.386964 0.386978 0.386991 0.387001 0.387009 0.387015 
0.387019 0.387022 0.387025 0.387028 0.387033 0.387038 0.387045 0.387054 0.387065 
0.387077 0.38709 0.387105 0.38712 0.387136 0.387153 0.387169 0.387186 0.387202 
0.387218 0.387234 0.387249 0.387263 0.387276 0.387287 0.387296 0.387303 0.387307 
0.387308 0.387305 0.387298 0.366844 0.36688 0.366918 0.366954 0.366989 0.367021 
0.367049 0.367073 0.36709 0.367101 0.367107 0.367106 0.3671 0.367091 0.367079 
0.367065 0.367052 0.36704 0.367031 0.367025 0.367022 0.367023 0.367028 0.367036 
0.367048 0.367064 0.367083 0.367104 0.367129 0.367155 0.367184 0.367215 0.367247 
0.367279 0.36731 0.36734 0.367367 0.36739 0.367407 0.367417 0.367421 0.367416 
0.347106 0.347158 0.347212 0.347265 0.347316 0.347362 0.347403 0.347435 0.347458 
0.34747 0.347472 0.347464 0.347448 0.347424 0.347395 0.347364 0.347332 0.347302 
0.347276 0.347254 0.347238 0.347228 0.347224 0.347227 0.347236 0.347251 0.347273 
0.3473 0.347332 0.34737 0.347412 0.347459 0.347508 0.347559 0.34761 0.34766 
0.347705 0.347745 0.347776 0.347797 0.347807 0.347805 0.327594 0.327664 0.327735 
0.327806 0.327874 0.327937 0.327991 0.328033 0.328062 0.328076 0.328074 0.328057 
0.328028 0.327988 0.327941 0.32789 0.327838 0.327788 0.327743 0.327705 0.327675 
0.327654 0.327642 0.327639 0.327645 0.32766 0.327685 0.327717 0.327758 0.327808 
0.327864 0.327927 0.327995 0.328067 0.328139 0.32821 0.328276 0.328335 0.328382 
0.328415 0.328433 0.328434 0.308275 0.308363 0.308454 0.308545 0.308633 0.308714 
0.308784 0.308838 0.308874 0.308888 0.308882 0.308855 0.30881 0.308751 0.308682 
0.308608 0.308534 0.308463 0.308398 0.308343 0.308299 0.308266 0.308246 0.308237 
0.308241 0.308256 0.308283 0.308321 0.308371 0.308432 0.308504 0.308585 0.308673 
0.308767 0.308864 0.308959 0.309049 0.309129 0.309195 0.309243 0.309269 0.309273 
0.289118 0.289226 0.289339 0.289454 0.289565 0.289667 0.289755 0.289824 0.289867 
0.289883 0.289871 0.289831 0.289768 0.289686 0.289592 0.289491 0.28939 0.289295 
0.289209 0.289136 0.289077 0.289032 0.289003 0.288989 0.28899 0.289005 0.289035 
0.289079 0.289139 0.289212 0.289299 0.2894 0.289511 0.28963 0.289754 0.289877 
0.289995 0.2901 0.290188 0.290253 0.29029 0.290298 0.270097 0.270228 0.270367 
0.270508 0.270646 0.270775 0.270885 0.27097 0.271023 0.27104 0.27102 0.270964 
0.270878 0.270768 0.270643 0.270511 0.270381 0.270258 0.270149 0.270056 0.269981 
0.269925 0.269887 0.269868 0.269866 0.269881 0.269914 0.269964 0.270032 0.270119 
0.270223 0.270344 0.270479 0.270627 0.270781 0.270937 0.271087 0.271224 0.271339 
0.271425 0.271476 0.271489 0.251194 0.25135 0.251518 0.251691 0.251862 0.252021 
0.252158 0.252263 0.252327 0.252345 0.252314 0.252238 0.252123 0.251979 0.251817 
0.251649 0.251484 0.251332 0.251197 0.251083 0.250992 0.250924 0.250879 0.250854 
0.250849 0.250864 0.250899 0.250954 0.251031 0.25113 0.251252 0.251395 0.251557 
0.251736 0.251926 0.25212 0.252308 0.252482 0.25263 0.252743 0.252811 0.252831 
0.232399 0.232584 0.232785 0.232995 0.233204 0.2334 0.23357 0.233699 0.233775 
0.233792 0.233748 0.233645 0.233494 0.233308 0.233102 0.232891 0.232688 0.232502 
0.23234 0.232206 0.232099 0.23202 0.231967 0.231937 0.231929 0.231942 0.231979 
0.232038 0.232122 0.232234 0.232372 0.232539 0.23273 0.232944 0.233174 0.233411 
0.233646 0.233864 0.234053 0.234198 0.23429 0.23432 0.213716 0.213933 0.214172 
0.214425 0.214679 0.214919 0.215127 0.215284 0.215375 0.215389 0.215324 0.215187 
0.214992 0.214755 0.214497 0.214238 0.213991 0.21377 0.21358 0.213425 0.213304 
0.213215 0.213155 0.21312 0.213108 0.21312 0.213155 0.213216 0.213306 0.213428 
0.213583 0.213773 0.213995 0.214247 0.214521 0.214808 0.215096 0.215367 0.215606 
0.215793 0.215915 0.215959 0.195164 0.195418 0.195699 0.196001 0.196308 0.1966 
0.196854 0.197043 0.197146 0.197153 0.19706 0.196879 0.196627 0.19633 0.196013 
0.1957 0.195407 0.195149 0.194932 0.194758 0.194625 0.194528 0.194462 0.194423 
0.194407 0.194414 0.194445 0.194505 0.194598 0.194727 0.194897 0.19511 0.195363 
0.195655 0.195978 0.19632 0.196668 0.197003 0.197301 0.197541 0.197702 0.197768 
0.176785 0.177077 0.177407 0.177766 0.178134 0.178487 0.178791 0.179014 0.179128 
0.179118 0.178986 0.178746 0.178427 0.178061 0.177678 0.177307 0.176968 0.176675 
0.176433 0.176243 0.176101 0.176 0.17593 0.175886 0.175864 0.175864 0.175887 
0.175941 0.176031 0.176165 0.176347 0.17658 0.176864 0.177197 0.17757 0.177972 
0.178386 0.178791 0.179161 0.179466 0.179679 0.179778 0.15864 0.158976 0.159361 
0.159783 0.160222 0.160643 0.161003 0.161259 0.161374 0.161335 0.161145 0.160831 
0.160431 0.159987 0.159536 0.159109 0.158727 0.158403 0.158142 0.157942 0.157795 
0.157692 0.15762 0.157572 0.157542 0.15753 0.15754 0.157582 0.157664 0.157796 
0.157986 0.158236 0.158549 0.158921 0.159343 0.159805 0.160289 0.16077 0.16122 
0.161604 0.161886 0.162035 0.140814 0.141199 0.141645 0.142141 0.14266 0.143158 
0.143576 0.143857 0.143957 0.143864 0.143592 0.143184 0.142691 0.142166 0.141651 
0.141174 0.140757 0.140411 0.140138 0.139934 0.139788 0.139687 0.139616 0.139563 
0.139522 0.139493 0.139485 0.139508 0.139575 0.139699 0.13989 0.140153 0.140489 
0.140895 0.141363 0.14188 0.142429 0.142987 0.143524 0.144001 0.144372 0.144595 
0.123404 0.123846 0.124363 0.124944 0.125557 0.126139 0.126613 0.126903 0.126959 
0.126775 0.126389 0.125863 0.12527 0.124668 0.124099 0.123588 0.12315 0.122792 
0.122516 0.122316 0.122177 0.122082 0.122012 0.121954 0.121901 0.121852 0.121819 
0.121815 0.12186 0.121969 0.122155 0.122424 0.122777 0.123209 0.12371 0.124269 
0.124872 0.125499 0.126123 0.126704 0.127189 0.12752 0.10651 0.107021 0.107623 
0.108307 0.109031 0.109708 0.110231 0.110501 0.110465 0.110139 0.109595 0.10893 
0.108236 0.107573 0.106972 0.106446 0.106004 0.105649 0.10538 0.10519 0.105063 
0.104977 0.104912 0.104849 0.104782 0.104712 0.104649 0.104614 0.104629 0.104716 
0.10489 0.105157 0.105516 0.105958 0.106474 0.107053 0.107688 0.108365 0.109065 
0.109755 0.11038 0.110864 0.0902219 0.0908196 0.0915296 0.0923452 0.093208 0.0939952 
0.0945508 0.09475 0.0945513 0.0940128 0.0932631 0.0924448 0.0916626 0.0909656 0.0903628 
0.089849 0.0894208 0.0890801 0.0888272 0.0886545 0.0885436 0.0884696 0.0884089 0.0883434 
0.0882646 0.088174 0.0880836 0.0880151 0.0879967 0.0880555 0.0882097 0.0884639 0.0888119 
0.0892427 0.0897457 0.0903145 0.0909463 0.0916408 0.092394 0.0931874 0.0939736 0.0946643 
0.0746051 0.0753171 0.0761738 0.0771704 0.0782201 0.0791336 0.0796887 0.0797377 0.079274 
0.0784345 0.077435 0.0764664 0.0756288 0.074938 0.0743684 0.0738911 0.0734942 0.0731792 
0.0729495 0.0727983 0.072705 0.0726428 0.0725867 0.0725199 0.072434 0.0723301 0.0722194 
0.0721238 0.0720745 0.0721028 0.0722287 0.0724541 0.0727676 0.0731563 0.0736106 0.0741277 
0.0747135 0.0753802 0.0761446 0.0770156 0.077971 0.0789259 0.0596952 0.060564 0.0616351 
0.0628999 0.0642098 0.0652613 0.0657476 0.0655201 0.0646516 0.0634144 0.0621428 0.0610562 
0.0602112 0.0595691 0.0590645 0.0586479 0.0583005 0.0580251 0.057828 0.057702 0.0576245 
0.0575682 0.0575122 0.0574436 0.0573558 0.0572494 0.0571335 0.0570269 0.0569585 0.0569598 
0.0570491 0.0572246 0.0574732 0.0577821 0.0581457 0.0585659 0.0590548 0.0596372 0.0603519 
0.061246 0.062347 0.063609 0.0454956 0.046586 0.0479894 0.0496753 0.0513493 0.0525137 
0.0527932 0.0520969 0.0506464 0.0489306 0.0474111 0.0462633 0.0454548 0.0448901 0.0444749 
0.044144 0.0438732 0.0436663 0.043526 0.0434345 0.0433632 0.0432961 0.0432268 0.0431497 
0.0430618 0.0429632 0.0428599 0.0427661 0.0427021 0.0426894 0.0427398 0.0428488 0.0430054 
0.0432012 0.043435 0.0437133 0.0440521 0.0444829 0.0450648 0.0458894 0.0470577 0.0486188 
0.931185 0.930204 0.928868 0.92692 0.924322 0.921651 0.919802 0.919348 0.920338 
0.922323 0.924638 0.926843 0.928789 0.930368 0.931461 0.932092 0.93243 0.932628 
0.932768 0.932885 0.932996 0.933104 0.933201 0.933277 0.933327 0.933355 0.933368 
0.933371 0.933369 0.933371 0.933385 0.933392 0.933302 0.932987 0.932413 0.931656 
0.930809 0.929902 0.928839 0.927413 0.925422 0.922923 0.908629 0.90773 0.906549 
0.904938 0.902874 0.900656 0.898836 0.8979 0.89804 0.899119 0.900786 0.902682 
0.90456 0.906245 0.907613 0.90862 0.909313 0.90978 0.9101 0.910329 0.910507 
0.910655 0.910778 0.910873 0.910937 0.910974 0.910987 0.910983 0.91096 0.91092 
0.910858 0.910753 0.910541 0.910136 0.909501 0.908665 0.907684 0.906573 0.905279 
0.903707 0.901851 0.899936 0.884346 0.883503 0.882425 0.881031 0.879316 0.877453 
0.875785 0.874677 0.874358 0.874847 0.875986 0.877528 0.879234 0.880905 0.882392 
0.883609 0.884538 0.885212 0.885685 0.886019 0.886268 0.886463 0.886621 0.886742 
0.886825 0.886871 0.886884 0.886866 0.886816 0.886728 0.886591 0.886381 0.886054 
0.885553 0.884842 0.883928 0.88284 0.881597 0.880194 0.878647 0.87706 0.875678 
0.858507 0.857724 0.856738 0.855509 0.854048 0.852466 0.850987 0.849876 0.849345 
0.84948 0.85023 0.851443 0.852925 0.854483 0.855961 0.857249 0.858294 0.859093 
0.85968 0.860107 0.860426 0.860673 0.860868 0.861017 0.861118 0.861171 0.861181 
0.861149 0.861074 0.860946 0.860751 0.860464 0.86005 0.859471 0.858697 0.857727 
0.856583 0.855294 0.853905 0.852492 0.851201 0.850242 0.831397 0.83068 0.829787 
0.828705 0.827449 0.826103 0.82482 0.823793 0.823198 0.823139 0.823621 0.824557 
0.825799 0.827184 0.828561 0.829815 0.830879 0.831729 0.832382 0.832876 0.833253 
0.833545 0.833774 0.833945 0.834061 0.83412 0.834128 0.834086 0.833992 0.833836 
0.833602 0.833266 0.832799 0.832174 0.83137 0.830387 0.829249 0.828 0.826709 
0.825482 0.824462 0.823811 0.803376 0.802729 0.801934 0.800987 0.799912 0.798772 
0.797679 0.796776 0.796203 0.796055 0.796361 0.797073 0.798087 0.799271 0.800493 
0.801646 0.80266 0.803503 0.804178 0.804706 0.805119 0.805442 0.805694 0.805881 
0.806006 0.806071 0.806079 0.806031 0.805925 0.805751 0.805494 0.805133 0.804644 
0.804008 0.803213 0.802265 0.801191 0.800043 0.798902 0.797872 0.797079 0.796638 
0.774834 0.774259 0.77356 0.772742 0.77183 0.770875 0.769961 0.769195 0.768685 
0.768511 0.768706 0.769245 0.770056 0.771037 0.772083 0.7731 0.774024 0.774819 
0.775477 0.77601 0.776436 0.776773 0.777035 0.777229 0.77736 0.777428 0.777437 
0.777386 0.777273 0.777091 0.776823 0.776456 0.775971 0.775354 0.774602 0.773726 
0.772756 0.771747 0.770774 0.769932 0.76932 0.76902 0.746144 0.745638 0.745032 
0.744335 0.743569 0.742778 0.742027 0.741396 0.740965 0.740798 0.740924 0.741332 
0.741971 0.742768 0.74364 0.744511 0.745324 0.746046 0.746662 0.747174 0.747592 
0.747927 0.748188 0.748383 0.748514 0.748583 0.748592 0.748541 0.748426 0.748242 
0.747976 0.747617 0.747154 0.746579 0.745893 0.745112 0.744267 0.743408 0.742601 
0.741925 0.741454 0.741246 0.717618 0.717179 0.71666 0.716072 0.715437 0.71479 
0.714181 0.713672 0.71332 0.713175 0.713259 0.713569 0.71407 0.714708 0.715421 
0.716151 0.71685 0.717487 0.718045 0.71852 0.718915 0.719235 0.719487 0.719675 
0.719802 0.719869 0.719878 0.719827 0.719715 0.719535 0.71928 0.718942 0.718514 
0.717993 0.717387 0.716709 0.715992 0.715278 0.714623 0.714086 0.713724 0.713576 
0.689495 0.689117 0.688678 0.688188 0.687666 0.687142 0.686656 0.686251 0.685971 
0.685851 0.685911 0.686148 0.686539 0.687046 0.687623 0.688225 0.688816 0.689365 
0.689858 0.690286 0.690648 0.690945 0.691181 0.691358 0.691478 0.691541 0.691549 
0.6915 0.691393 0.691223 0.690985 0.690675 0.69029 0.689831 0.689307 0.688732 
0.688135 0.687552 0.687026 0.686604 0.686324 0.686215 0.661936 0.661615 0.661247 
0.660842 0.660418 0.659998 0.659613 0.659294 0.659075 0.658981 0.659026 0.659209 
0.659515 0.659916 0.660379 0.660872 0.661363 0.661831 0.662258 0.662635 0.662959 
0.663228 0.663443 0.663605 0.663716 0.663774 0.663781 0.663735 0.663636 0.66348 
0.663264 0.662986 0.662648 0.662251 0.661805 0.661326 0.660836 0.660365 0.659947 
0.659615 0.659398 0.659316 0.63504 0.63477 0.634465 0.634134 0.633792 0.633458 
0.633155 0.632907 0.632737 0.632666 0.632701 0.632844 0.633084 0.633401 0.633773 
0.634173 0.634578 0.63497 0.635334 0.635661 0.635945 0.636184 0.636376 0.636523 
0.636622 0.636675 0.636681 0.63664 0.63655 0.636409 0.636218 0.635975 0.635683 
0.635346 0.634973 0.634578 0.634179 0.633802 0.63347 0.63321 0.633041 0.632977 
0.608855 0.608631 0.60838 0.608112 0.607839 0.607575 0.607338 0.607146 0.607017 
0.606964 0.606994 0.607106 0.607295 0.607547 0.607844 0.608167 0.6085 0.608825 
0.609132 0.609411 0.609657 0.609865 0.610034 0.610163 0.610252 0.610299 0.610304 
0.610268 0.610188 0.610066 0.609899 0.609691 0.609443 0.60916 0.608852 0.608529 
0.608208 0.607907 0.607645 0.60744 0.607308 0.607258 0.583393 0.58321 0.583007 
0.582792 0.582575 0.582368 0.582185 0.582038 0.58194 0.581902 0.581927 0.582018 
0.582167 0.582367 0.582604 0.582865 0.583136 0.583404 0.58366 0.583895 0.584104 
0.584283 0.58443 0.584543 0.58462 0.584662 0.584667 0.584636 0.584568 0.584462 
0.584321 0.584145 0.583938 0.583704 0.583452 0.583191 0.582934 0.582695 0.582488 
0.582327 0.582223 0.582182 0.558644 0.558496 0.558334 0.558164 0.557994 0.557833 
0.557692 0.55758 0.557508 0.557481 0.557504 0.557577 0.557696 0.557855 0.558044 
0.558253 0.558472 0.558692 0.558903 0.559099 0.559275 0.559427 0.559553 0.55965 
0.559717 0.559754 0.559759 0.559734 0.559677 0.559588 0.559471 0.559325 0.559154 
0.558963 0.558759 0.55855 0.558346 0.558157 0.557994 0.557868 0.557786 0.557752 
0.53458 0.534462 0.534335 0.534202 0.53407 0.533947 0.533841 0.533757 0.533704 
0.533687 0.533707 0.533767 0.533861 0.533987 0.534138 0.534305 0.534482 0.53466 
0.534832 0.534994 0.535141 0.535268 0.535374 0.535457 0.535514 0.535547 0.535553 
0.535533 0.535487 0.535415 0.535319 0.5352 0.535062 0.534909 0.534746 0.534581 
0.53442 0.534271 0.534144 0.534045 0.533979 0.533951 0.511161 0.511071 0.510973 
0.510872 0.510772 0.51068 0.510601 0.51054 0.510502 0.510492 0.510511 0.510559 
0.510634 0.510734 0.510853 0.510986 0.511126 0.511269 0.511409 0.51154 0.511661 
0.511766 0.511854 0.511924 0.511973 0.512001 0.512009 0.511994 0.511958 0.511902 
0.511826 0.511732 0.511623 0.511502 0.511375 0.511245 0.51112 0.511005 0.510906 
0.510829 0.510777 0.510754 0.488345 0.488278 0.488205 0.488131 0.488058 0.487992 
0.487935 0.487892 0.487867 0.487863 0.48788 0.487919 0.487978 0.488056 0.488149 
0.488253 0.488363 0.488476 0.488587 0.488692 0.488789 0.488875 0.488948 0.489005 
0.489047 0.489072 0.489081 0.489072 0.489046 0.489003 0.488945 0.488873 0.48879 
0.488698 0.488601 0.488502 0.488407 0.48832 0.488244 0.488185 0.488145 0.488125 
0.466082 0.466036 0.465986 0.465935 0.465885 0.46584 0.465802 0.465774 0.465759 
0.465759 0.465775 0.465806 0.465852 0.465912 0.465982 0.466062 0.466146 0.466233 
0.466319 0.466401 0.466477 0.466546 0.466604 0.466651 0.466687 0.466709 0.466719 
0.466715 0.466699 0.466669 0.466628 0.466576 0.466516 0.466449 0.466378 0.466306 
0.466237 0.466172 0.466117 0.466072 0.466041 0.466025 0.444325 0.444297 0.444268 
0.444237 0.444207 0.44418 0.444158 0.444143 0.444137 0.44414 0.444154 0.444178 
0.444212 0.444256 0.444308 0.444366 0.444428 0.444491 0.444555 0.444617 0.444675 
0.444727 0.444773 0.444811 0.444841 0.444861 0.444872 0.444874 0.444866 0.444849 
0.444823 0.44479 0.44475 0.444706 0.444659 0.44461 0.444563 0.444519 0.44448 
0.444448 0.444425 0.444411 0.423022 0.423012 0.423001 0.422989 0.422977 0.422967 
0.422959 0.422955 0.422955 0.422962 0.422974 0.422992 0.423016 0.423045 0.423079 
0.423118 0.423159 0.423202 0.423246 0.423289 0.42333 0.423368 0.423402 0.423432 
0.423457 0.423476 0.423489 0.423495 0.423496 0.423491 0.42348 0.423464 0.423443 
0.42342 0.423394 0.423367 0.42334 0.423314 0.42329 0.42327 0.423254 0.423242 
0.402126 0.402133 0.402139 0.402144 0.402149 0.402154 0.402159 0.402165 0.402172 
0.402181 0.402191 0.402203 0.402217 0.402233 0.402251 0.402271 0.402293 0.402317 
0.402341 0.402367 0.402392 0.402417 0.402441 0.402463 0.402484 0.402501 0.402516 
0.402528 0.402537 0.402543 0.402547 0.402547 0.402545 0.402542 0.402536 0.402529 
0.402521 0.402512 0.402502 0.402493 0.402483 0.402474 0.381587 0.38161 0.381633 
0.381655 0.381677 0.381697 0.381715 0.381731 0.381744 0.381754 0.381763 0.381768 
0.381772 0.381774 0.381776 0.381778 0.381782 0.381786 0.381793 0.381802 0.381812 
0.381824 0.381838 0.381854 0.38187 0.381887 0.381904 0.381922 0.381939 0.381957 
0.381974 0.381991 0.382007 0.382023 0.382037 0.38205 0.38206 0.382068 0.382073 
0.382074 0.38207 0.382063 0.361359 0.361398 0.361438 0.361478 0.361516 0.361552 
0.361583 0.361609 0.361628 0.361641 0.361646 0.361645 0.361638 0.361626 0.361611 
0.361595 0.361579 0.361564 0.361553 0.361545 0.36154 0.361541 0.361545 0.361554 
0.361566 0.361583 0.361603 0.361626 0.361652 0.361681 0.361713 0.361747 0.361782 
0.361817 0.361852 0.361885 0.361914 0.361939 0.361958 0.36197 0.361973 0.361968 
0.341394 0.341451 0.341509 0.341568 0.341624 0.341676 0.341722 0.341759 0.341785 
0.341799 0.341802 0.341792 0.341773 0.341745 0.341712 0.341676 0.341639 0.341604 
0.341573 0.341548 0.341529 0.341517 0.341513 0.341515 0.341525 0.341541 0.341564 
0.341593 0.341628 0.34167 0.341716 0.341767 0.341821 0.341878 0.341934 0.341989 
0.34204 0.342084 0.342118 0.342142 0.342152 0.342149 0.321649 0.321724 0.321803 
0.321882 0.321959 0.32203 0.322092 0.322141 0.322175 0.322191 0.32219 0.322171 
0.322137 0.322092 0.322037 0.321978 0.321919 0.321862 0.321811 0.321767 0.321733 
0.321709 0.321695 0.321691 0.321698 0.321714 0.32174 0.321776 0.321821 0.321875 
0.321937 0.322006 0.322082 0.322161 0.322242 0.322321 0.322395 0.32246 0.322512 
0.322549 0.322567 0.322566 0.30208 0.302177 0.302278 0.30238 0.302481 0.302574 
0.302655 0.302719 0.302761 0.30278 0.302774 0.302744 0.302693 0.302626 0.302546 
0.302461 0.302375 0.302294 0.30222 0.302158 0.302108 0.302071 0.302048 0.302038 
0.302042 0.302059 0.302088 0.30213 0.302185 0.302253 0.302331 0.302421 0.302519 
0.302625 0.302733 0.30284 0.302941 0.30303 0.303104 0.303156 0.303184 0.303186 
0.28265 0.282769 0.282896 0.283025 0.283153 0.283273 0.283377 0.283459 0.283513 
0.283535 0.283523 0.283479 0.283406 0.283311 0.283202 0.283085 0.282969 0.28286 
0.282762 0.282678 0.282612 0.282562 0.28253 0.282515 0.282516 0.282533 0.282566 
0.282615 0.28268 0.282761 0.282858 0.28297 0.283094 0.283228 0.283367 0.283507 
0.28364 0.283759 0.283858 0.28393 0.283969 0.283974 0.26332 0.263466 0.263622 
0.263784 0.263945 0.264097 0.26423 0.264334 0.264402 0.264427 0.264407 0.264344 
0.264245 0.264116 0.26397 0.263816 0.263665 0.263523 0.263398 0.263292 0.263208 
0.263145 0.263104 0.263084 0.263082 0.2631 0.263136 0.263192 0.263267 0.263363 
0.263479 0.263615 0.263767 0.263934 0.26411 0.264288 0.264459 0.264615 0.264746 
0.264842 0.264896 0.264906 0.244064 0.244239 0.244429 0.244629 0.24483 0.245022 
0.24519 0.245323 0.245407 0.245436 0.245405 0.245319 0.245184 0.245014 0.244822 
0.244623 0.24443 0.244252 0.244097 0.243968 0.243866 0.243791 0.243742 0.243716 
0.243712 0.243729 0.243768 0.24383 0.243916 0.244026 0.244162 0.244323 0.244508 
0.244712 0.244929 0.245153 0.245371 0.245572 0.245743 0.24587 0.245944 0.245959 
0.22486 0.225068 0.225297 0.225542 0.225793 0.226033 0.226246 0.226414 0.226519 
0.226551 0.226506 0.226388 0.226208 0.225985 0.225737 0.225485 0.225243 0.225024 
0.224837 0.224683 0.224565 0.224479 0.224422 0.224392 0.224385 0.224402 0.224443 
0.224509 0.224603 0.224727 0.224883 0.225071 0.22529 0.225536 0.225803 0.22608 
0.226355 0.226612 0.226832 0.227 0.2271 0.227124 0.205705 0.205948 0.206222 
0.206521 0.20683 0.207131 0.207399 0.20761 0.20774 0.207774 0.207707 0.207547 
0.20731 0.207021 0.206705 0.206389 0.206092 0.205829 0.205608 0.205432 0.205298 
0.205203 0.205141 0.205107 0.205097 0.205112 0.205152 0.205219 0.205319 0.205455 
0.205631 0.205847 0.206103 0.206395 0.206717 0.207057 0.2074 0.207724 0.208008 
0.208228 0.208363 0.208401 0.18661 0.186893 0.187218 0.187579 0.187959 0.188333 
0.188669 0.188932 0.18909 0.189122 0.189024 0.188807 0.188497 0.188126 0.187731 
0.187343 0.186986 0.186677 0.186424 0.186226 0.186081 0.18598 0.185914 0.185877 
0.185864 0.185873 0.185908 0.185973 0.186075 0.186219 0.186412 0.186655 0.18695 
0.187292 0.187676 0.188088 0.188509 0.188916 0.189278 0.189565 0.189748 0.189808 
0.16762 0.167945 0.168327 0.16876 0.169223 0.169685 0.170102 0.170425 0.170611 
0.170633 0.170488 0.170195 0.169792 0.169326 0.168841 0.168376 0.167957 0.167603 
0.16732 0.167106 0.166954 0.166852 0.166786 0.166746 0.166727 0.166727 0.16675 
0.166806 0.166903 0.167051 0.167257 0.167526 0.167859 0.168254 0.168704 0.169194 
0.169705 0.170207 0.170664 0.171037 0.171286 0.171381 0.148809 0.149179 0.149624 
0.150138 0.1507 0.151266 0.151776 0.152164 0.15237 0.152365 0.152148 0.151755 
0.151241 0.150666 0.150086 0.149543 0.149067 0.148673 0.148368 0.148146 0.147994 
0.147895 0.147832 0.147789 0.14776 0.147744 0.147749 0.147786 0.14787 0.148013 
0.148228 0.148519 0.148889 0.149337 0.149854 0.150426 0.15103 0.151637 0.152205 
0.152685 0.153023 0.153176 0.130285 0.130704 0.131218 0.131825 0.132501 0.133188 
0.133803 0.134252 0.134461 0.134396 0.134071 0.133546 0.132901 0.132212 0.131542 
0.130933 0.130411 0.12999 0.129672 0.12945 0.129306 0.129217 0.129159 0.129113 
0.129069 0.129029 0.129004 0.129012 0.129072 0.129202 0.129417 0.129726 0.130131 
0.130628 0.131208 0.131856 0.132552 0.133266 0.133955 0.134563 0.135022 0.135267 
0.112184 0.112656 0.113246 0.11396 0.11477 0.115598 0.116325 0.116822 0.116995 