# vtk DataFile Version 4.0
vtk output
ASCII
DATASET STRUCTURED_POINTS
DIMENSIONS 62 62 62
SPACING 0.05 0.05 0.05
ORIGIN -1.525 -1.525 -1.525
POINT_DATA 238328
FIELD FieldData 1
potential 1 238328 double
0.0390498 0.0390628 0.0390758 0.0390888 0.0391019 0.0391149 0.0391279 0.0391409 0.0391539 
0.0391669 0.03918 0.039193 0.039206 0.039219 0.039232 0.039245 0.039258 0.039271 
0.0392841 0.0392971 0.0393101 0.0393231 0.0393361 0.0393491 0.0393621 0.0393751 0.0393881 
0.0394011 0.039414 0.039427 0.03944 0.039453 0.039466 0.039479 0.039492 0.039505 
0.0395179 0.0395309 0.0395439 0.0395569 0.0395698 0.0395828 0.0395958 0.0396088 0.0396217 
0.0396347 0.0396476 0.0396606 0.0396736 0.0396865 0.0396995 0.0397124 0.0397254 0.0397383 
0.0397513 0.0397642 0.0397772 0.0397901 0.0398031 0.039816 0.0398289 0.0398419 0.0390652 
0.0390783 0.0390913 0.0391043 0.0391174 0.0391304 0.0391435 0.0391565 0.0391695 0.0391826 
0.0391956 0.0392086 0.0392216 0.0392347 0.0392477 0.0392607 0.0392738 0.0392868 0.0392998 
0.0393128 0.0393258 0.0393389 0.0393519 0.0393649 0.0393779 0.0393909 0.0394039 0.0394169 
0.0394299 0.0394429 0.0394559 0.039469 0.039482 0.039495 0.039508 0.0395209 0.0395339 
0.0395469 0.0395599 0.0395729 0.0395859 0.0395989 0.0396119 0.0396249 0.0396378 0.0396508 
0.0396638 0.0396768 0.0396898 0.0397027 0.0397157 0.0397287 0.0397416 0.0397546 0.0397676 
0.0397805 0.0397935 0.0398064 0.0398194 0.0398324 0.0398453 0.0398582 0.0390807 0.0390938 
0.0391068 0.0391199 0.0391329 0.039146 0.039159 0.0391721 0.0391851 0.0391982 0.0392112 
0.0392243 0.0392373 0.0392503 0.0392634 0.0392764 0.0392895 0.0393025 0.0393155 0.0393286 
0.0393416 0.0393546 0.0393677 0.0393807 0.0393937 0.0394068 0.0394198 0.0394328 0.0394458 
0.0394588 0.0394719 0.0394849 0.0394979 0.0395109 0.0395239 0.0395369 0.03955 0.039563 
0.039576 0.039589 0.039602 0.039615 0.039628 0.039641 0.039654 0.039667 0.03968 
0.039693 0.0397059 0.0397189 0.0397319 0.0397449 0.0397579 0.0397709 0.0397838 0.0397968 
0.0398098 0.0398228 0.0398357 0.0398487 0.0398617 0.0398746 0.0390962 0.0391093 0.0391223 
0.0391354 0.0391485 0.0391615 0.0391746 0.0391876 0.0392007 0.0392138 0.0392268 0.0392399 
0.039253 0.039266 0.0392791 0.0392921 0.0393052 0.0393182 0.0393313 0.0393443 0.0393574 
0.0393704 0.0393835 0.0393965 0.0394096 0.0394226 0.0394356 0.0394487 0.0394617 0.0394748 
0.0394878 0.0395008 0.0395139 0.0395269 0.0395399 0.0395529 0.039566 0.039579 0.039592 
0.039605 0.039618 0.0396311 0.0396441 0.0396571 0.0396701 0.0396831 0.0396961 0.0397091 
0.0397221 0.0397351 0.0397481 0.0397611 0.0397741 0.0397871 0.0398001 0.0398131 0.0398261 
0.0398391 0.0398521 0.0398651 0.039878 0.039891 0.0391117 0.0391247 0.0391378 0.0391509 
0.039164 0.0391771 0.0391901 0.0392032 0.0392163 0.0392294 0.0392425 0.0392555 0.0392686 
0.0392817 0.0392947 0.0393078 0.0393209 0.039334 0.039347 0.0393601 0.0393731 0.0393862 
0.0393993 0.0394123 0.0394254 0.0394384 0.0394515 0.0394646 0.0394776 0.0394907 0.0395037 
0.0395168 0.0395298 0.0395428 0.0395559 0.0395689 0.039582 0.039595 0.039608 0.0396211 
0.0396341 0.0396472 0.0396602 0.0396732 0.0396862 0.0396993 0.0397123 0.0397253 0.0397383 
0.0397513 0.0397644 0.0397774 0.0397904 0.0398034 0.0398164 0.0398294 0.0398424 0.0398554 
0.0398684 0.0398814 0.0398944 0.0399074 0.0391271 0.0391402 0.0391533 0.0391664 0.0391795 
0.0391926 0.0392057 0.0392188 0.0392319 0.039245 0.0392581 0.0392712 0.0392843 0.0392973 
0.0393104 0.0393235 0.0393366 0.0393497 0.0393628 0.0393758 0.0393889 0.039402 0.0394151 
0.0394281 0.0394412 0.0394543 0.0394674 0.0394804 0.0394935 0.0395066 0.0395196 0.0395327 
0.0395457 0.0395588 0.0395719 0.0395849 0.039598 0.039611 0.0396241 0.0396371 0.0396502 
0.0396632 0.0396763 0.0396893 0.0397024 0.0397154 0.0397284 0.0397415 0.0397545 0.0397675 
0.0397806 0.0397936 0.0398066 0.0398197 0.0398327 0.0398457 0.0398587 0.0398717 0.0398848 
0.0398978 0.0399108 0.0399238 0.0391426 0.0391557 0.0391688 0.0391819 0.039195 0.0392082 
0.0392213 0.0392344 0.0392475 0.0392606 0.0392737 0.0392868 0.0392999 0.039313 0.0393261 
0.0393392 0.0393523 0.0393654 0.0393785 0.0393916 0.0394047 0.0394178 0.0394309 0.039444 
0.039457 0.0394701 0.0394832 0.0394963 0.0395094 0.0395225 0.0395355 0.0395486 0.0395617 
0.0395748 0.0395878 0.0396009 0.039614 0.0396271 0.0396401 0.0396532 0.0396663 0.0396793 
0.0396924 0.0397054 0.0397185 0.0397315 0.0397446 0.0397577 0.0397707 0.0397838 0.0397968 
0.0398098 0.0398229 0.0398359 0.039849 0.039862 0.039875 0.0398881 0.0399011 0.0399141 
0.0399272 0.0399402 0.0391581 0.0391712 0.0391843 0.0391975 0.0392106 0.0392237 0.0392368 
0.0392499 0.0392631 0.0392762 0.0392893 0.0393024 0.0393155 0.0393287 0.0393418 0.0393549 
0.039368 0.0393811 0.0393942 0.0394073 0.0394204 0.0394336 0.0394467 0.0394598 0.0394729 
0.039486 0.0394991 0.0395122 0.0395253 0.0395384 0.0395515 0.0395645 0.0395776 0.0395907 
0.0396038 0.0396169 0.03963 0.0396431 0.0396562 0.0396692 0.0396823 0.0396954 0.0397085 
0.0397215 0.0397346 0.0397477 0.0397608 0.0397738 0.0397869 0.0398 0.039813 0.0398261 
0.0398391 0.0398522 0.0398652 0.0398783 0.0398913 0.0399044 0.0399174 0.0399305 0.0399435 
0.0399566 0.0391735 0.0391867 0.0391998 0.039213 0.0392261 0.0392392 0.0392524 0.0392655 
0.0392787 0.0392918 0.0393049 0.0393181 0.0393312 0.0393443 0.0393575 0.0393706 0.0393837 
0.0393968 0.03941 0.0394231 0.0394362 0.0394493 0.0394625 0.0394756 0.0394887 0.0395018 
0.0395149 0.039528 0.0395411 0.0395543 0.0395674 0.0395805 0.0395936 0.0396067 0.0396198 
0.0396329 0.039646 0.0396591 0.0396722 0.0396853 0.0396984 0.0397115 0.0397246 0.0397377 
0.0397507 0.0397638 0.0397769 0.03979 0.0398031 0.0398162 0.0398292 0.0398423 0.0398554 
0.0398684 0.0398815 0.0398946 0.0399077 0.0399207 0.0399338 0.0399468 0.0399599 0.0399729 
0.039189 0.0392022 0.0392153 0.0392285 0.0392416 0.0392548 0.0392679 0.0392811 0.0392942 
0.0393074 0.0393205 0.0393337 0.0393468 0.03936 0.0393731 0.0393863 0.0393994 0.0394126 
0.0394257 0.0394388 0.039452 0.0394651 0.0394782 0.0394914 0.0395045 0.0395176 0.0395308 
0.0395439 0.039557 0.0395702 0.0395833 0.0395964 0.0396095 0.0396226 0.0396358 0.0396489 
0.039662 0.0396751 0.0396882 0.0397013 0.0397144 0.0397276 0.0397407 0.0397538 0.0397669 
0.03978 0.0397931 0.0398062 0.0398193 0.0398324 0.0398454 0.0398585 0.0398716 0.0398847 
0.0398978 0.0399109 0.039924 0.039937 0.0399501 0.0399632 0.0399763 0.0399893 0.0392045 
0.0392176 0.0392308 0.039244 0.0392572 0.0392703 0.0392835 0.0392967 0.0393098 0.039323 
0.0393362 0.0393493 0.0393625 0.0393756 0.0393888 0.039402 0.0394151 0.0394283 0.0394414 
0.0394546 0.0394677 0.0394809 0.039494 0.0395072 0.0395203 0.0395335 0.0395466 0.0395598 
0.0395729 0.0395861 0.0395992 0.0396123 0.0396255 0.0396386 0.0396517 0.0396649 0.039678 
0.0396911 0.0397043 0.0397174 0.0397305 0.0397436 0.0397568 0.0397699 0.039783 0.0397961 
0.0398092 0.0398223 0.0398354 0.0398486 0.0398617 0.0398748 0.0398879 0.039901 0.0399141 
0.0399272 0.0399403 0.0399534 0.0399664 0.0399795 0.0399926 0.0400057 0.0392199 0.0392331 
0.0392463 0.0392595 0.0392727 0.0392859 0.039299 0.0393122 0.0393254 0.0393386 0.0393518 
0.0393649 0.0393781 0.0393913 0.0394045 0.0394176 0.0394308 0.039444 0.0394572 0.0394703 
0.0394835 0.0394967 0.0395098 0.039523 0.0395362 0.0395493 0.0395625 0.0395756 0.0395888 
0.0396019 0.0396151 0.0396283 0.0396414 0.0396546 0.0396677 0.0396809 0.039694 0.0397071 
0.0397203 0.0397334 0.0397466 0.0397597 0.0397728 0.039786 0.0397991 0.0398122 0.0398254 
0.0398385 0.0398516 0.0398647 0.0398779 0.039891 0.0399041 0.0399172 0.0399303 0.0399435 
0.0399566 0.0399697 0.0399828 0.0399959 0.040009 0.0400221 0.0392354 0.0392486 0.0392618 
0.039275 0.0392882 0.0393014 0.0393146 0.0393278 0.039341 0.0393542 0.0393674 0.0393806 
0.0393938 0.039407 0.0394201 0.0394333 0.0394465 0.0394597 0.0394729 0.0394861 0.0394993 
0.0395124 0.0395256 0.0395388 0.039552 0.0395652 0.0395783 0.0395915 0.0396047 0.0396178 
0.039631 0.0396442 0.0396573 0.0396705 0.0396837 0.0396968 0.03971 0.0397232 0.0397363 
0.0397495 0.0397626 0.0397758 0.0397889 0.0398021 0.0398152 0.0398284 0.0398415 0.0398547 
0.0398678 0.0398809 0.0398941 0.0399072 0.0399204 0.0399335 0.0399466 0.0399597 0.0399729 
0.039986 0.0399991 0.0400122 0.0400254 0.0400385 0.0392509 0.0392641 0.0392773 0.0392905 
0.0393037 0.0393169 0.0393301 0.0393434 0.0393566 0.0393698 0.039383 0.0393962 0.0394094 
0.0394226 0.0394358 0.039449 0.0394622 0.0394754 0.0394886 0.0395018 0.039515 0.0395282 
0.0395414 0.0395546 0.0395678 0.039581 0.0395942 0.0396074 0.0396206 0.0396337 0.0396469 
0.0396601 0.0396733 0.0396865 0.0396996 0.0397128 0.039726 0.0397392 0.0397523 0.0397655 
0.0397787 0.0397919 0.039805 0.0398182 0.0398313 0.0398445 0.0398577 0.0398708 0.039884 
0.0398971 0.0399103 0.0399234 0.0399366 0.0399497 0.0399629 0.039976 0.0399892 0.0400023 
0.0400154 0.0400286 0.0400417 0.0400548 0.0392663 0.0392795 0.0392928 0.039306 0.0393192 
0.0393325 0.0393457 0.0393589 0.0393721 0.0393854 0.0393986 0.0394118 0.039425 0.0394383 
0.0394515 0.0394647 0.0394779 0.0394911 0.0395043 0.0395176 0.0395308 0.039544 0.0395572 
0.0395704 0.0395836 0.0395968 0.03961 0.0396232 0.0396364 0.0396496 0.0396628 0.039676 
0.0396892 0.0397024 0.0397156 0.0397288 0.039742 0.0397552 0.0397684 0.0397816 0.0397947 
0.0398079 0.0398211 0.0398343 0.0398475 0.0398606 0.0398738 0.039887 0.0399002 0.0399133 
0.0399265 0.0399397 0.0399528 0.039966 0.0399792 0.0399923 0.0400055 0.0400186 0.0400318 
0.0400449 0.0400581 0.0400712 0.0392818 0.039295 0.0393083 0.0393215 0.0393348 0.039348 
0.0393612 0.0393745 0.0393877 0.039401 0.0394142 0.0394274 0.0394407 0.0394539 0.0394671 
0.0394804 0.0394936 0.0395068 0.0395201 0.0395333 0.0395465 0.0395598 0.039573 0.0395862 
0.0395994 0.0396126 0.0396259 0.0396391 0.0396523 0.0396655 0.0396787 0.0396919 0.0397052 
0.0397184 0.0397316 0.0397448 0.039758 0.0397712 0.0397844 0.0397976 0.0398108 0.039824 
0.0398372 0.0398504 0.0398636 0.0398768 0.03989 0.0399032 0.0399163 0.0399295 0.0399427 
0.0399559 0.0399691 0.0399822 0.0399954 0.0400086 0.0400218 0.0400349 0.0400481 0.0400613 
0.0400744 0.0400876 0.0392972 0.0393105 0.0393238 0.039337 0.0393503 0.0393635 0.0393768 
0.03939 0.0394033 0.0394166 0.0394298 0.0394431 0.0394563 0.0394696 0.0394828 0.0394961 
0.0395093 0.0395226 0.0395358 0.039549 0.0395623 0.0395755 0.0395888 0.039602 0.0396152 
0.0396285 0.0396417 0.0396549 0.0396682 0.0396814 0.0396946 0.0397079 0.0397211 0.0397343 
0.0397475 0.0397608 0.039774 0.0397872 0.0398004 0.0398136 0.0398269 0.0398401 0.0398533 
0.0398665 0.0398797 0.0398929 0.0399061 0.0399193 0.0399325 0.0399457 0.0399589 0.0399721 
0.0399853 0.0399985 0.0400117 0.0400249 0.0400381 0.0400513 0.0400644 0.0400776 0.0400908 
0.040104 0.0393127 0.039326 0.0393392 0.0393525 0.0393658 0.0393791 0.0393923 0.0394056 
0.0394189 0.0394321 0.0394454 0.0394587 0.0394719 0.0394852 0.0394985 0.0395117 0.039525 
0.0395383 0.0395515 0.0395648 0.039578 0.0395913 0.0396045 0.0396178 0.0396311 0.0396443 
0.0396576 0.0396708 0.039684 0.0396973 0.0397105 0.0397238 0.039737 0.0397503 0.0397635 
0.0397767 0.03979 0.0398032 0.0398164 0.0398297 0.0398429 0.0398561 0.0398694 0.0398826 
0.0398958 0.039909 0.0399223 0.0399355 0.0399487 0.0399619 0.0399751 0.0399883 0.0400015 
0.0400148 0.040028 0.0400412 0.0400544 0.0400676 0.0400808 0.040094 0.0401072 0.0401204 
0.0393281 0.0393414 0.0393547 0.039368 0.0393813 0.0393946 0.0394079 0.0394212 0.0394344 
0.0394477 0.039461 0.0394743 0.0394876 0.0395009 0.0395141 0.0395274 0.0395407 0.039554 
0.0395672 0.0395805 0.0395938 0.0396071 0.0396203 0.0396336 0.0396469 0.0396601 0.0396734 
0.0396867 0.0396999 0.0397132 0.0397264 0.0397397 0.039753 0.0397662 0.0397795 0.0397927 
0.039806 0.0398192 0.0398325 0.0398457 0.039859 0.0398722 0.0398854 0.0398987 0.0399119 
0.0399252 0.0399384 0.0399516 0.0399649 0.0399781 0.0399913 0.0400046 0.0400178 0.040031 
0.0400442 0.0400574 0.0400707 0.0400839 0.0400971 0.0401103 0.0401235 0.0401367 0.0393436 
0.0393569 0.0393702 0.0393835 0.0393968 0.0394101 0.0394234 0.0394367 0.03945 0.0394633 
0.0394766 0.0394899 0.0395032 0.0395165 0.0395298 0.0395431 0.0395564 0.0395697 0.039583 
0.0395962 0.0396095 0.0396228 0.0396361 0.0396494 0.0396627 0.039676 0.0396892 0.0397025 
0.0397158 0.0397291 0.0397423 0.0397556 0.0397689 0.0397822 0.0397954 0.0398087 0.039822 
0.0398352 0.0398485 0.0398618 0.039875 0.0398883 0.0399015 0.0399148 0.039928 0.0399413 
0.0399545 0.0399678 0.039981 0.0399943 0.0400075 0.0400208 0.040034 0.0400473 0.0400605 
0.0400737 0.040087 0.0401002 0.0401134 0.0401266 0.0401399 0.0401531 0.039359 0.0393724 
0.0393857 0.039399 0.0394123 0.0394256 0.039439 0.0394523 0.0394656 0.0394789 0.0394922 
0.0395055 0.0395188 0.0395321 0.0395455 0.0395588 0.0395721 0.0395854 0.0395987 0.039612 
0.0396253 0.0396386 0.0396519 0.0396652 0.0396785 0.0396918 0.0397051 0.0397184 0.0397317 
0.039745 0.0397582 0.0397715 0.0397848 0.0397981 0.0398114 0.0398247 0.039838 0.0398512 
0.0398645 0.0398778 0.0398911 0.0399043 0.0399176 0.0399309 0.0399441 0.0399574 0.0399707 
0.0399839 0.0399972 0.0400105 0.0400237 0.040037 0.0400502 0.0400635 0.0400768 0.04009 
0.0401033 0.0401165 0.0401297 0.040143 0.0401562 0.0401695 0.0393745 0.0393878 0.0394012 
0.0394145 0.0394278 0.0394412 0.0394545 0.0394678 0.0394812 0.0394945 0.0395078 0.0395211 
0.0395345 0.0395478 0.0395611 0.0395744 0.0395878 0.0396011 0.0396144 0.0396277 0.039641 
0.0396543 0.0396677 0.039681 0.0396943 0.0397076 0.0397209 0.0397342 0.0397475 0.0397608 
0.0397741 0.0397874 0.0398007 0.039814 0.0398273 0.0398406 0.0398539 0.0398672 0.0398805 
0.0398938 0.0399071 0.0399204 0.0399337 0.039947 0.0399603 0.0399735 0.0399868 0.0400001 
0.0400134 0.0400267 0.0400399 0.0400532 0.0400665 0.0400797 0.040093 0.0401063 0.0401195 
0.0401328 0.0401461 0.0401593 0.0401726 0.0401858 0.0393899 0.0394033 0.0394166 0.03943 
0.0394433 0.0394567 0.03947 0.0394834 0.0394967 0.0395101 0.0395234 0.0395367 0.0395501 
0.0395634 0.0395768 0.0395901 0.0396034 0.0396168 0.0396301 0.0396434 0.0396568 0.0396701 
0.0396834 0.0396968 0.0397101 0.0397234 0.0397367 0.0397501 0.0397634 0.0397767 0.03979 
0.0398034 0.0398167 0.03983 0.0398433 0.0398566 0.0398699 0.0398832 0.0398965 0.0399099 
0.0399232 0.0399365 0.0399498 0.0399631 0.0399764 0.0399897 0.040003 0.0400163 0.0400295 
0.0400428 0.0400561 0.0400694 0.0400827 0.040096 0.0401093 0.0401226 0.0401358 0.0401491 
0.0401624 0.0401757 0.0401889 0.0402022 0.0394054 0.0394188 0.0394321 0.0394455 0.0394588 
0.0394722 0.0394856 0.0394989 0.0395123 0.0395256 0.039539 0.0395524 0.0395657 0.0395791 
0.0395924 0.0396058 0.0396191 0.0396325 0.0396458 0.0396592 0.0396725 0.0396859 0.0396992 
0.0397126 0.0397259 0.0397392 0.0397526 0.0397659 0.0397793 0.0397926 0.0398059 0.0398193 
0.0398326 0.0398459 0.0398593 0.0398726 0.0398859 0.0398992 0.0399126 0.0399259 0.0399392 
0.0399525 0.0399658 0.0399792 0.0399925 0.0400058 0.0400191 0.0400324 0.0400457 0.040059 
0.0400723 0.0400856 0.0400989 0.0401122 0.0401255 0.0401388 0.0401521 0.0401654 0.0401787 
0.040192 0.0402053 0.0402186 0.0394208 0.0394342 0.0394476 0.039461 0.0394743 0.0394877 
0.0395011 0.0395145 0.0395278 0.0395412 0.0395546 0.039568 0.0395813 0.0395947 0.0396081 
0.0396214 0.0396348 0.0396482 0.0396615 0.0396749 0.0396883 0.0397016 0.039715 0.0397283 
0.0397417 0.0397551 0.0397684 0.0397818 0.0397951 0.0398085 0.0398218 0.0398352 0.0398485 
0.0398619 0.0398752 0.0398886 0.0399019 0.0399152 0.0399286 0.0399419 0.0399552 0.0399686 
0.0399819 0.0399952 0.0400086 0.0400219 0.0400352 0.0400486 0.0400619 0.0400752 0.0400885 
0.0401018 0.0401152 0.0401285 0.0401418 0.0401551 0.0401684 0.0401817 0.040195 0.0402083 
0.0402216 0.0402349 0.0394363 0.0394497 0.0394631 0.0394765 0.0394898 0.0395032 0.0395166 
0.03953 0.0395434 0.0395568 0.0395702 0.0395836 0.039597 0.0396103 0.0396237 0.0396371 
0.0396505 0.0396639 0.0396772 0.0396906 0.039704 0.0397174 0.0397308 0.0397441 0.0397575 
0.0397709 0.0397842 0.0397976 0.039811 0.0398243 0.0398377 0.0398511 0.0398644 0.0398778 
0.0398912 0.0399045 0.0399179 0.0399312 0.0399446 0.0399579 0.0399713 0.0399846 0.039998 
0.0400113 0.0400247 0.040038 0.0400514 0.0400647 0.040078 0.0400914 0.0401047 0.0401181 
0.0401314 0.0401447 0.040158 0.0401714 0.0401847 0.040198 0.0402113 0.0402247 0.040238 
0.0402513 0.0394517 0.0394651 0.0394785 0.0394919 0.0395053 0.0395188 0.0395322 0.0395456 
0.039559 0.0395724 0.0395858 0.0395992 0.0396126 0.039626 0.0396394 0.0396528 0.0396662 
0.0396796 0.039693 0.0397063 0.0397197 0.0397331 0.0397465 0.0397599 0.0397733 0.0397867 
0.0398001 0.0398135 0.0398268 0.0398402 0.0398536 0.039867 0.0398804 0.0398937 0.0399071 
0.0399205 0.0399339 0.0399472 0.0399606 0.039974 0.0399873 0.0400007 0.0400141 0.0400274 
0.0400408 0.0400541 0.0400675 0.0400809 0.0400942 0.0401076 0.0401209 0.0401343 0.0401476 
0.040161 0.0401743 0.0401876 0.040201 0.0402143 0.0402277 0.040241 0.0402543 0.0402677 
0.0394672 0.0394806 0.039494 0.0395074 0.0395208 0.0395343 0.0395477 0.0395611 0.0395745 
0.0395879 0.0396014 0.0396148 0.0396282 0.0396416 0.039655 0.0396684 0.0396818 0.0396953 
0.0397087 0.0397221 0.0397355 0.0397489 0.0397623 0.0397757 0.0397891 0.0398025 0.0398159 
0.0398293 0.0398427 0.0398561 0.0398695 0.0398829 0.0398963 0.0399097 0.0399231 0.0399364 
0.0399498 0.0399632 0.0399766 0.03999 0.0400034 0.0400168 0.0400301 0.0400435 0.0400569 
0.0400703 0.0400836 0.040097 0.0401104 0.0401237 0.0401371 0.0401505 0.0401638 0.0401772 
0.0401906 0.0402039 0.0402173 0.0402306 0.040244 0.0402573 0.0402707 0.040284 0.0394826 
0.039496 0.0395095 0.0395229 0.0395363 0.0395498 0.0395632 0.0395766 0.0395901 0.0396035 
0.0396169 0.0396304 0.0396438 0.0396572 0.0396707 0.0396841 0.0396975 0.0397109 0.0397244 
0.0397378 0.0397512 0.0397646 0.0397781 0.0397915 0.0398049 0.0398183 0.0398317 0.0398451 
0.0398586 0.039872 0.0398854 0.0398988 0.0399122 0.0399256 0.039939 0.0399524 0.0399658 
0.0399792 0.0399926 0.040006 0.0400194 0.0400328 0.0400462 0.0400596 0.040073 0.0400864 
0.0400998 0.0401131 0.0401265 0.0401399 0.0401533 0.0401667 0.0401801 0.0401934 0.0402068 
0.0402202 0.0402335 0.0402469 0.0402603 0.0402737 0.040287 0.0403004 0.039498 0.0395115 
0.0395249 0.0395384 0.0395518 0.0395653 0.0395787 0.0395922 0.0396056 0.0396191 0.0396325 
0.039646 0.0396594 0.0396729 0.0396863 0.0396998 0.0397132 0.0397266 0.0397401 0.0397535 
0.0397669 0.0397804 0.0397938 0.0398073 0.0398207 0.0398341 0.0398475 0.039861 0.0398744 
0.0398878 0.0399013 0.0399147 0.0399281 0.0399415 0.0399549 0.0399684 0.0399818 0.0399952 
0.0400086 0.040022 0.0400354 0.0400489 0.0400623 0.0400757 0.0400891 0.0401025 0.0401159 
0.0401293 0.0401427 0.0401561 0.0401695 0.0401829 0.0401963 0.0402097 0.0402231 0.0402364 
0.0402498 0.0402632 0.0402766 0.04029 0.0403034 0.0403167 0.0395135 0.0395269 0.0395404 
0.0395539 0.0395673 0.0395808 0.0395943 0.0396077 0.0396212 0.0396346 0.0396481 0.0396616 
0.039675 0.0396885 0.0397019 0.0397154 0.0397289 0.0397423 0.0397558 0.0397692 0.0397827 
0.0397961 0.0398096 0.039823 0.0398365 0.0398499 0.0398634 0.0398768 0.0398903 0.0399037 
0.0399171 0.0399306 0.039944 0.0399575 0.0399709 0.0399843 0.0399978 0.0400112 0.0400246 
0.0400381 0.0400515 0.0400649 0.0400783 0.0400918 0.0401052 0.0401186 0.040132 0.0401454 
0.0401588 0.0401723 0.0401857 0.0401991 0.0402125 0.0402259 0.0402393 0.0402527 0.0402661 
0.0402795 0.0402929 0.0403063 0.0403197 0.0403331 0.0395289 0.0395424 0.0395559 0.0395693 
0.0395828 0.0395963 0.0396098 0.0396233 0.0396367 0.0396502 0.0396637 0.0396772 0.0396906 
0.0397041 0.0397176 0.0397311 0.0397445 0.039758 0.0397715 0.0397849 0.0397984 0.0398119 
0.0398253 0.0398388 0.0398523 0.0398657 0.0398792 0.0398927 0.0399061 0.0399196 0.039933 
0.0399465 0.0399599 0.0399734 0.0399868 0.0400003 0.0400137 0.0400272 0.0400406 0.0400541 
0.0400675 0.040081 0.0400944 0.0401078 0.0401213 0.0401347 0.0401481 0.0401616 0.040175 
0.0401884 0.0402019 0.0402153 0.0402287 0.0402421 0.0402555 0.040269 0.0402824 0.0402958 
0.0403092 0.0403226 0.040336 0.0403494 0.0395443 0.0395578 0.0395713 0.0395848 0.0395983 
0.0396118 0.0396253 0.0396388 0.0396523 0.0396658 0.0396793 0.0396928 0.0397063 0.0397197 
0.0397332 0.0397467 0.0397602 0.0397737 0.0397872 0.0398007 0.0398141 0.0398276 0.0398411 
0.0398546 0.0398681 0.0398815 0.039895 0.0399085 0.039922 0.0399354 0.0399489 0.0399624 
0.0399758 0.0399893 0.0400028 0.0400162 0.0400297 0.0400432 0.0400566 0.0400701 0.0400835 
0.040097 0.0401105 0.0401239 0.0401374 0.0401508 0.0401643 0.0401777 0.0401912 0.0402046 
0.040218 0.0402315 0.0402449 0.0402584 0.0402718 0.0402852 0.0402987 0.0403121 0.0403255 
0.0403389 0.0403524 0.0403658 0.0395597 0.0395733 0.0395868 0.0396003 0.0396138 0.0396273 
0.0396408 0.0396543 0.0396678 0.0396813 0.0396948 0.0397084 0.0397219 0.0397354 0.0397489 
0.0397624 0.0397759 0.0397894 0.0398029 0.0398164 0.0398299 0.0398434 0.0398569 0.0398703 
0.0398838 0.0398973 0.0399108 0.0399243 0.0399378 0.0399513 0.0399648 0.0399783 0.0399917 
0.0400052 0.0400187 0.0400322 0.0400457 0.0400591 0.0400726 0.0400861 0.0400996 0.040113 
0.0401265 0.04014 0.0401535 0.0401669 0.0401804 0.0401938 0.0402073 0.0402208 0.0402342 
0.0402477 0.0402611 0.0402746 0.040288 0.0403015 0.0403149 0.0403284 0.0403418 0.0403553 
0.0403687 0.0403822 0.0395752 0.0395887 0.0396022 0.0396158 0.0396293 0.0396428 0.0396563 
0.0396699 0.0396834 0.0396969 0.0397104 0.0397239 0.0397375 0.039751 0.0397645 0.039778 
0.0397915 0.039805 0.0398186 0.0398321 0.0398456 0.0398591 0.0398726 0.0398861 0.0398996 
0.0399131 0.0399266 0.0399401 0.0399537 0.0399672 0.0399807 0.0399942 0.0400077 0.0400212 
0.0400346 0.0400481 0.0400616 0.0400751 0.0400886 0.0401021 0.0401156 0.0401291 0.0401426 
0.0401561 0.0401695 0.040183 0.0401965 0.04021 0.0402235 0.0402369 0.0402504 0.0402639 
0.0402773 0.0402908 0.0403043 0.0403177 0.0403312 0.0403447 0.0403581 0.0403716 0.040385 
0.0403985 0.0395906 0.0396041 0.0396177 0.0396312 0.0396448 0.0396583 0.0396718 0.0396854 
0.0396989 0.0397125 0.039726 0.0397395 0.0397531 0.0397666 0.0397801 0.0397937 0.0398072 
0.0398207 0.0398343 0.0398478 0.0398613 0.0398748 0.0398884 0.0399019 0.0399154 0.0399289 
0.0399425 0.039956 0.0399695 0.039983 0.0399965 0.04001 0.0400236 0.0400371 0.0400506 
0.0400641 0.0400776 0.0400911 0.0401046 0.0401181 0.0401316 0.0401451 0.0401586 0.0401721 
0.0401856 0.0401991 0.0402126 0.0402261 0.0402396 0.0402531 0.0402666 0.0402801 0.0402936 
0.040307 0.0403205 0.040334 0.0403475 0.040361 0.0403744 0.0403879 0.0404014 0.0404148 
0.039606 0.0396196 0.0396331 0.0396467 0.0396602 0.0396738 0.0396874 0.0397009 0.0397145 
0.039728 0.0397416 0.0397551 0.0397687 0.0397822 0.0397958 0.0398093 0.0398229 0.0398364 
0.0398499 0.0398635 0.039877 0.0398906 0.0399041 0.0399177 0.0399312 0.0399447 0.0399583 
0.0399718 0.0399853 0.0399989 0.0400124 0.0400259 0.0400395 0.040053 0.0400665 0.04008 
0.0400936 0.0401071 0.0401206 0.0401341 0.0401476 0.0401612 0.0401747 0.0401882 0.0402017 
0.0402152 0.0402287 0.0402422 0.0402557 0.0402693 0.0402828 0.0402963 0.0403098 0.0403233 
0.0403368 0.0403503 0.0403638 0.0403772 0.0403907 0.0404042 0.0404177 0.0404312 0.0396214 
0.039635 0.0396486 0.0396622 0.0396757 0.0396893 0.0397029 0.0397164 0.03973 0.0397436 
0.0397571 0.0397707 0.0397843 0.0397978 0.0398114 0.039825 0.0398385 0.0398521 0.0398656 
0.0398792 0.0398928 0.0399063 0.0399199 0.0399334 0.039947 0.0399605 0.0399741 0.0399876 
0.0400012 0.0400147 0.0400283 0.0400418 0.0400554 0.0400689 0.0400824 0.040096 0.0401095 
0.0401231 0.0401366 0.0401501 0.0401637 0.0401772 0.0401907 0.0402043 0.0402178 0.0402313 
0.0402448 0.0402584 0.0402719 0.0402854 0.0402989 0.0403125 0.040326 0.0403395 0.040353 
0.0403665 0.04038 0.0403935 0.040407 0.0404205 0.040434 0.0404475 0.0396369 0.0396504 
0.039664 0.0396776 0.0396912 0.0397048 0.0397184 0.039732 0.0397455 0.0397591 0.0397727 
0.0397863 0.0397999 0.0398134 0.039827 0.0398406 0.0398542 0.0398677 0.0398813 0.0398949 
0.0399085 0.039922 0.0399356 0.0399492 0.0399627 0.0399763 0.0399899 0.0400034 0.040017 
0.0400306 0.0400441 0.0400577 0.0400713 0.0400848 0.0400984 0.0401119 0.0401255 0.040139 
0.0401526 0.0401661 0.0401797 0.0401932 0.0402068 0.0402203 0.0402339 0.0402474 0.040261 
0.0402745 0.040288 0.0403016 0.0403151 0.0403286 0.0403422 0.0403557 0.0403692 0.0403828 
0.0403963 0.0404098 0.0404233 0.0404368 0.0404504 0.0404639 0.0396523 0.0396659 0.0396795 
0.0396931 0.0397067 0.0397203 0.0397339 0.0397475 0.0397611 0.0397747 0.0397883 0.0398019 
0.0398155 0.039829 0.0398426 0.0398562 0.0398698 0.0398834 0.039897 0.0399106 0.0399242 
0.0399378 0.0399514 0.0399649 0.0399785 0.0399921 0.0400057 0.0400193 0.0400328 0.0400464 
0.04006 0.0400736 0.0400872 0.0401007 0.0401143 0.0401279 0.0401414 0.040155 0.0401686 
0.0401821 0.0401957 0.0402093 0.0402228 0.0402364 0.04025 0.0402635 0.0402771 0.0402906 
0.0403042 0.0403177 0.0403313 0.0403448 0.0403584 0.0403719 0.0403855 0.040399 0.0404125 
0.0404261 0.0404396 0.0404532 0.0404667 0.0404802 0.0396677 0.0396813 0.0396949 0.0397085 
0.0397221 0.0397358 0.0397494 0.039763 0.0397766 0.0397902 0.0398038 0.0398174 0.039831 
0.0398447 0.0398583 0.0398719 0.0398855 0.0398991 0.0399127 0.0399263 0.0399399 0.0399535 
0.0399671 0.0399807 0.0399943 0.0400079 0.0400215 0.0400351 0.0400487 0.0400623 0.0400759 
0.0400895 0.040103 0.0401166 0.0401302 0.0401438 0.0401574 0.040171 0.0401846 0.0401981 
0.0402117 0.0402253 0.0402389 0.0402525 0.040266 0.0402796 0.0402932 0.0403067 0.0403203 
0.0403339 0.0403474 0.040361 0.0403746 0.0403881 0.0404017 0.0404153 0.0404288 0.0404424 
0.0404559 0.0404695 0.040483 0.0404966 0.0396831 0.0396967 0.0397104 0.039724 0.0397376 
0.0397512 0.0397649 0.0397785 0.0397921 0.0398058 0.0398194 0.039833 0.0398466 0.0398603 
0.0398739 0.0398875 0.0399011 0.0399147 0.0399284 0.039942 0.0399556 0.0399692 0.0399828 
0.0399965 0.0400101 0.0400237 0.0400373 0.0400509 0.0400645 0.0400781 0.0400917 0.0401053 
0.0401189 0.0401325 0.0401461 0.0401598 0.0401734 0.040187 0.0402005 0.0402141 0.0402277 
0.0402413 0.0402549 0.0402685 0.0402821 0.0402957 0.0403093 0.0403229 0.0403365 0.04035 
0.0403636 0.0403772 0.0403908 0.0404044 0.0404179 0.0404315 0.0404451 0.0404586 0.0404722 
0.0404858 0.0404993 0.0405129 0.0396985 0.0397121 0.0397258 0.0397394 0.0397531 0.0397667 
0.0397804 0.039794 0.0398077 0.0398213 0.0398349 0.0398486 0.0398622 0.0398759 0.0398895 
0.0399031 0.0399168 0.0399304 0.039944 0.0399577 0.0399713 0.0399849 0.0399986 0.0400122 
0.0400258 0.0400395 0.0400531 0.0400667 0.0400803 0.040094 0.0401076 0.0401212 0.0401348 
0.0401485 0.0401621 0.0401757 0.0401893 0.0402029 0.0402165 0.0402301 0.0402438 0.0402574 
0.040271 0.0402846 0.0402982 0.0403118 0.0403254 0.040339 0.0403526 0.0403662 0.0403798 
0.0403934 0.040407 0.0404206 0.0404342 0.0404477 0.0404613 0.0404749 0.0404885 0.0405021 
0.0405157 0.0405292 0.0397139 0.0397276 0.0397412 0.0397549 0.0397686 0.0397822 0.0397959 
0.0398095 0.0398232 0.0398368 0.0398505 0.0398642 0.0398778 0.0398915 0.0399051 0.0399188 
0.0399324 0.0399461 0.0399597 0.0399734 0.039987 0.0400007 0.0400143 0.040028 0.0400416 
0.0400552 0.0400689 0.0400825 0.0400962 0.0401098 0.0401234 0.0401371 0.0401507 0.0401644 
0.040178 0.0401916 0.0402053 0.0402189 0.0402325 0.0402461 0.0402598 0.0402734 0.040287 
0.0403006 0.0403143 0.0403279 0.0403415 0.0403551 0.0403687 0.0403823 0.0403959 0.0404096 
0.0404232 0.0404368 0.0404504 0.040464 0.0404776 0.0404912 0.0405048 0.0405184 0.040532 
0.0405456 0.0397293 0.039743 0.0397567 0.0397703 0.039784 0.0397977 0.0398114 0.039825 
0.0398387 0.0398524 0.0398661 0.0398797 0.0398934 0.0399071 0.0399207 0.0399344 0.0399481 
0.0399617 0.0399754 0.0399891 0.0400027 0.0400164 0.04003 0.0400437 0.0400574 0.040071 
0.0400847 0.0400983 0.040112 0.0401257 0.0401393 0.040153 0.0401666 0.0401803 0.0401939 
0.0402076 0.0402212 0.0402348 0.0402485 0.0402621 0.0402758 0.0402894 0.0403031 0.0403167 
0.0403303 0.040344 0.0403576 0.0403712 0.0403849 0.0403985 0.0404121 0.0404257 0.0404394 
0.040453 0.0404666 0.0404802 0.0404938 0.0405075 0.0405211 0.0405347 0.0405483 0.0405619 
0.0397447 0.0397584 0.0397721 0.0397858 0.0397995 0.0398132 0.0398269 0.0398405 0.0398542 
0.0398679 0.0398816 0.0398953 0.039909 0.0399227 0.0399363 0.03995 0.0399637 0.0399774 
0.0399911 0.0400047 0.0400184 0.0400321 0.0400458 0.0400595 0.0400731 0.0400868 0.0401005 
0.0401141 0.0401278 0.0401415 0.0401552 0.0401688 0.0401825 0.0401962 0.0402098 0.0402235 
0.0402371 0.0402508 0.0402645 0.0402781 0.0402918 0.0403054 0.0403191 0.0403327 0.0403464 
0.04036 0.0403737 0.0403873 0.040401 0.0404146 0.0404283 0.0404419 0.0404556 0.0404692 
0.0404828 0.0404965 0.0405101 0.0405237 0.0405374 0.040551 0.0405646 0.0405782 0.0397601 
0.0397738 0.0397875 0.0398012 0.0398149 0.0398286 0.0398423 0.039856 0.0398698 0.0398835 
0.0398972 0.0399109 0.0399246 0.0399383 0.039952 0.0399657 0.0399793 0.039993 0.0400067 
0.0400204 0.0400341 0.0400478 0.0400615 0.0400752 0.0400889 0.0401026 0.0401163 0.04013 
0.0401436 0.0401573 0.040171 0.0401847 0.0401984 0.0402121 0.0402257 0.0402394 0.0402531 
0.0402668 0.0402804 0.0402941 0.0403078 0.0403215 0.0403351 0.0403488 0.0403625 0.0403761 
0.0403898 0.0404034 0.0404171 0.0404308 0.0404444 0.0404581 0.0404717 0.0404854 0.040499 
0.0405127 0.0405263 0.04054 0.0405536 0.0405673 0.0405809 0.0405946 0.0397755 0.0397892 
0.039803 0.0398167 0.0398304 0.0398441 0.0398578 0.0398715 0.0398853 0.039899 0.0399127 
0.0399264 0.0399401 0.0399538 0.0399676 0.0399813 0.039995 0.0400087 0.0400224 0.0400361 
0.0400498 0.0400635 0.0400772 0.0400909 0.0401047 0.0401184 0.0401321 0.0401458 0.0401595 
0.0401732 0.0401869 0.0402006 0.0402143 0.0402279 0.0402416 0.0402553 0.040269 0.0402827 
0.0402964 0.0403101 0.0403238 0.0403375 0.0403512 0.0403648 0.0403785 0.0403922 0.0404059 
0.0404196 0.0404332 0.0404469 0.0404606 0.0404743 0.0404879 0.0405016 0.0405153 0.0405289 
0.0405426 0.0405563 0.0405699 0.0405836 0.0405972 0.0406109 0.0397909 0.0398046 0.0398184 