# vtk DataFile Version 4.0
vtk output
ASCII
DATASET POLYDATA
POINTS 3909 double
3.39651 21.923 1.25 -2.85349 21.923 1.25 3.39651 16.503 1.25 
3.39651 16.503 1.25 -2.85349 21.923 1.25 -2.63232 16.0255 1.25 
3.39651 16.503 1.25 -2.63232 16.0255 1.25 3.39651 11.083 1.25 
3.39651 11.083 1.25 -2.63232 16.0255 1.25 -2.63232 10.128 1.25 
3.39651 11.083 1.25 -2.63232 10.128 1.25 3.6914 10.128 1.25 
3.6914 10.128 1.25 -2.63232 10.128 1.25 3.6914 4.2305 1.25 
3.6914 10.128 1.25 3.6914 4.2305 1.25 8.51446 8.533 1.25 
8.51446 8.533 1.25 3.6914 4.2305 1.25 10.0151 4.2305 1.25 
8.51446 8.533 1.25 10.0151 4.2305 1.25 13.6324 5.983 1.25 
13.6324 5.983 1.25 10.0151 4.2305 1.25 16.3388 4.2305 1.25 
13.6324 5.983 1.25 16.3388 4.2305 1.25 18.7504 3.433 1.25 
18.7504 3.433 1.25 16.3388 4.2305 1.25 14.0215 -1.667 1.25 
18.7504 3.433 1.25 14.0215 -1.667 1.25 19.0098 -1.667 1.25 
-2.63232 16.0255 1.25 -2.85349 21.923 1.25 -8.95605 16.0255 1.25 
-8.95605 16.0255 1.25 -2.85349 21.923 1.25 -9.10349 21.923 1.25 
-8.95605 16.0255 1.25 -9.10349 21.923 1.25 -15.2798 16.0255 1.25 
-15.2798 16.0255 1.25 -9.10349 21.923 1.25 -15.3535 21.923 1.25 
-15.2798 16.0255 1.25 -15.3535 21.923 1.25 -21.6035 16.5597 1.25 
-21.6035 16.5597 1.25 -15.3535 21.923 1.25 -21.6035 21.923 1.25 
-21.6035 16.5597 1.25 -21.6035 11.1963 1.25 -15.2798 16.0255 1.25 
-15.2798 16.0255 1.25 -21.6035 11.1963 1.25 -15.2798 10.128 1.25 
-15.2798 16.0255 1.25 -15.2798 10.128 1.25 -8.95605 10.128 1.25 
-8.95605 10.128 1.25 -15.2798 10.128 1.25 -8.95605 4.2305 1.25 
-8.95605 10.128 1.25 -8.95605 4.2305 1.25 -2.63232 4.2305 1.25 
-2.63232 4.2305 1.25 -8.95605 4.2305 1.25 -3.79099 2.083 1.25 
-2.63232 4.2305 1.25 -3.79099 2.083 1.25 2.14651 0.833002 1.25 
-21.6035 11.1963 1.25 -21.6035 5.833 1.25 -15.2798 10.128 1.25 
-15.2798 10.128 1.25 -21.6035 5.833 1.25 -15.666 4.583 1.25 
-15.2798 10.128 1.25 -15.666 4.583 1.25 -8.95605 4.2305 1.25 
-8.95605 4.2305 1.25 -15.666 4.583 1.25 -9.72849 3.333 1.25 
-8.95605 4.2305 1.25 -9.72849 3.333 1.25 -3.79099 2.083 1.25 
-2.63232 4.2305 1.25 2.14651 0.833002 1.25 3.6914 4.2305 1.25 
3.6914 4.2305 1.25 2.14651 0.833002 1.25 8.08401 -0.416998 1.25 
3.6914 4.2305 1.25 8.08401 -0.416998 1.25 10.0151 4.2305 1.25 
10.0151 4.2305 1.25 8.08401 -0.416998 1.25 14.0215 -1.667 1.25 
10.0151 4.2305 1.25 14.0215 -1.667 1.25 16.3388 4.2305 1.25 
18.7504 3.433 1.25 19.0098 -1.667 1.25 23.8683 0.883002 1.25 
23.8683 0.883002 1.25 19.0098 -1.667 1.25 23.998 -1.667 1.25 
23.8683 0.883002 1.25 23.998 -1.667 1.25 28.9863 -1.667 1.25 
8.51446 8.533 1.25 3.39651 11.083 1.25 3.6914 10.128 1.25 
-2.63232 10.128 1.25 -2.63232 16.0255 1.25 -8.95605 16.0255 1.25 
-2.63232 10.128 1.25 -8.95605 16.0255 1.25 -8.95605 10.128 1.25 
-8.95605 10.128 1.25 -8.95605 16.0255 1.25 -15.2798 16.0255 1.25 
3.6914 4.2305 1.25 -2.63232 10.128 1.25 -2.63232 4.2305 1.25 
-2.63232 4.2305 1.25 -2.63232 10.128 1.25 -8.95605 10.128 1.25 
16.9603 4.32492 1.25 17.8009 3.74698 1.25 17.8553 3.87896 1.25 
15.4225 5.09109 1.25 15.3112 4.89594 1.25 17.0699 3.98874 1.25 
17.4078 4.10194 1.25 16.1914 4.708 1.25 1.36768 10.128 1.25 
1.31842 10.7538 1.25 6.72436 9.42492 1.25 6.6156 9.16096 1.25 
5.18662 10.1911 1.25 5.1535 9.64448 1.25 5.95549 9.808 1.25 
-12.9505 4.44035 1.25 -11.7518 3.75896 1.25 -13.7089 4.17098 1.25 
-10.9533 4.33543 1.25 -14.6674 4.53054 1.25 -14.6874 4.37699 1.25 
-12.7303 3.96497 1.25 -11.9519 4.38789 1.25 -13.809 4.48544 1.25 
-14.1982 4.27399 1.25 -5.81429 2.50896 1.25 -5.63773 2.85083 1.25 
-7.29689 3.54067 1.25 -7.77139 2.92098 1.25 -4.76954 2.28901 1.25 
-4.71436 2.46692 1.25 -6.46731 3.19575 1.25 -6.79284 2.71497 1.25 
-0.308599 4.2305 1.25 -1.00229 3.07163 1.25 1.05284 2.6285 1.25 
5.33642 2.49002 1.25 5.52954 5.87025 1.25 0.168466 19.3024 1.25 
0.461036 13.4895 1.25 6.67632 6.89325 1.25 16.0307 0.499867 1.25 
-18.568 19.1646 1.25 -18.4245 13.624 1.25 -18.2945 8.08041 1.25 
-18.5887 7.8806 1.25 -11.8813 6.95863 1.25 -15.4187 8.13284 1.25 
6.85326 2.81935 1.25 11.7738 1.64173 1.25 20.7207 0.97662 1.25 
0.374549 19.1236 1.25 0.303149 13.619 1.25 0.29297 7.39988 1.25 
3.6914 6.2305 1.25 -5.72983 19.1433 1.25 -6.07971 18.8052 1.25 
-11.9965 19.1606 1.25 -12.3868 18.7879 1.25 -18.389 19.3181 1.25 
-18.4588 13.5978 1.25 -11.8813 12.8561 1.25 -15.2798 14.0255 1.25 
-12.3545 7.39988 1.25 -8.95605 6.2305 1.25 -5.55761 6.95863 1.25 
-8.95605 8.128 1.25 13.177 2.06888 1.25 -6.03075 13.2974 1.25 
-2.63232 12.128 1.25 -5.55761 12.8561 1.25 -8.95605 14.0255 1.25 
-12.3545 13.2974 1.25 -8.95605 12.128 1.25 0.766109 6.95863 1.25 
-2.63232 8.128 1.25 -6.03075 7.39988 1.25 -2.63232 6.2305 1.25 
18.2757 3.58999 1.25 18.3029 3.65598 1.25 -15.1767 4.48 1.25 
-15.1667 4.55677 1.25 14.5275 5.53705 1.25 14.4718 5.43947 1.25 
7.61941 8.97896 1.25 7.56503 8.84698 1.25 -0.656952 10.4409 1.25 
-0.632322 10.128 1.25 0.57211 1.95232 1.25 0.123206 1.25896 1.25 
0.516471 1.99187 1.25 -1.83389 1.67098 1.25 -1.05793 3.11119 1.25 
-2.61122 2.83279 1.25 4.16981 0.407044 1.25 18.513 3.5115 1.25 
18.5266 3.54449 1.25 18.0552 3.71944 1.25 -14.9201 4.48549 1.25 
-15.4214 4.5315 1.25 -15.4163 4.56989 1.25 14.8915 5.1677 1.25 
14.975 5.31407 1.25 14.0521 5.71124 1.25 14.0799 5.76002 1.25 
7.12402 9.10587 1.25 8.06694 8.75598 1.25 8.03975 8.68999 1.25 
0.367678 10.3641 1.25 -1.64464 10.2845 1.25 -1.63232 10.128 1.25 
2.91895 2.53175 1.25 1.16796 1.03901 1.25 -0.270727 2.55153 1.25 
0.645582 1.14899 1.25 0.335835 1.61683 1.25 1.33149 1.41244 1.25 
1.67868 1.03788 1.25 0.860797 1.61328 1.25 1.59968 1.73075 1.25 
-0.855344 1.46497 1.25 -1.05958 2.27541 1.25 -1.78488 2.69473 1.25 
-0.301389 1.86747 1.25 -2.81244 1.87699 1.25 1.6914 4.2305 1.25 
3.48241 2.16022 1.25 -6.63232 4.2305 1.25 6.25574 0.606961 1.25 
-0.308599 4.2305 1.25 1.6914 5.01838 1.25 19.959 -2.917 -0.96875 
19.959 -2.917 0.96875 14.0215 -1.667 -1.25 14.0215 -1.667 -1.25 
19.959 -2.917 0.96875 14.0215 -1.667 1.25 14.0215 -1.667 -1.25 
14.0215 -1.667 1.25 8.08401 -0.416998 -1.25 8.08401 -0.416998 -1.25 
14.0215 -1.667 1.25 8.08401 -0.416998 1.25 8.08401 -0.416998 -1.25 
8.08401 -0.416998 1.25 2.14651 0.833002 -1.25 2.14651 0.833002 -1.25 
8.08401 -0.416998 1.25 2.14651 0.833002 1.25 2.14651 0.833002 -1.25 
2.14651 0.833002 1.25 -3.79099 2.083 -1.25 -3.79099 2.083 -1.25 
2.14651 0.833002 1.25 -3.79099 2.083 1.25 -3.79099 2.083 -1.25 
-3.79099 2.083 1.25 -9.72849 3.333 -1.25 -9.72849 3.333 -1.25 
-3.79099 2.083 1.25 -9.72849 3.333 1.25 -9.72849 3.333 -1.25 
-9.72849 3.333 1.25 -15.666 4.583 -1.25 -15.666 4.583 -1.25 
-9.72849 3.333 1.25 -15.666 4.583 1.25 -15.666 4.583 -1.25 
-15.666 4.583 1.25 -21.6035 5.833 -1.25 -21.6035 5.833 -1.25 
-15.666 4.583 1.25 -21.6035 5.833 1.25 19.959 -2.917 0.96875 
19.959 -2.917 -0.96875 25.8965 -4.167 0.6875 25.8965 -4.167 0.6875 
19.959 -2.917 -0.96875 25.8965 -4.167 -0.6875 25.8965 -4.167 0.6875 
25.8965 -4.167 -0.6875 31.834 -5.417 0.40625 31.834 -5.417 0.40625 
25.8965 -4.167 -0.6875 31.834 -5.417 -0.40625 31.834 -5.417 0.40625 
31.834 -5.417 -0.40625 37.7715 -6.667 0.125 37.7715 -6.667 0.125 
31.834 -5.417 -0.40625 37.7715 -6.667 -0.125 33.8722 -5.8461 -0.223883 
35.744 -6.24016 -0.221039 33.789 -5.82858 -0.313645 35.8219 -6.25655 -0.0494416 
34.7665 -6.03437 -0.267342 34.847 -6.05132 -0.136662 32.8088 -5.62222 -0.319029 
32.8115 -5.62279 -0.359947 34.2778 -5.93147 -0.290493 34.3596 -5.94871 -0.180273 
33.3405 -5.73416 -0.271456 33.3003 -5.72568 -0.336796 33.5446 -5.77713 -0.32522 
33.6064 -5.79013 -0.24767 33.0747 -5.67819 -0.295243 33.0559 -5.67423 -0.348372 
33.1781 -5.69996 -0.342584 32.9418 -5.65021 -0.307136 33.4224 -5.75141 -0.331008 
33.4735 -5.76214 -0.259563 34.0334 -5.88002 -0.302069 33.2076 -5.70618 -0.283349 
32.9337 -5.64851 -0.35416 34.5221 -5.98292 -0.278918 34.1159 -5.8974 -0.202078 
35.2553 -6.13726 -0.244191 35.3345 -6.15393 -0.093052 35.0109 -6.08581 -0.255766 
35.4996 -6.18871 -0.232615 36.7578 -6.45358 -0.17302 36.7967 -6.46177 0.0377792 
34.6033 -6.00001 -0.158468 36.2509 -6.34687 -0.19703 37.2646 -6.56029 -0.14901 
36.3093 -6.35916 -0.00583118 27.9819 -4.60603 -0.30335 29.8065 -4.99016 -0.502289 
29.9079 -5.01151 0.0514499 27.8515 -4.57858 -0.594895 28.829 -4.78437 -0.548592 
26.8595 -4.36974 -0.5101 26.874 -4.37279 -0.641197 28.3403 -4.68147 -0.571743 
27.4207 -4.48788 -0.406725 28.9449 -4.80877 -0.12595 30.8203 -5.20358 -0.45427 
33.8615 -5.84384 0.310211 33.8722 -5.8461 -0.223883 22.1205 -3.37204 -0.365819 
23.869 -3.74016 -0.783539 21.914 -3.32858 -0.876145 22.8915 -3.53437 -0.829842 
20.903 -3.11574 -0.70542 20.9365 -3.12279 -0.922447 24.0085 -3.76952 0.16084 
29.7486 -4.97797 0.0221002 27.924 -4.59384 0.591461 29.879 -5.00542 0.498855 
28.9015 -4.79963 0.545158 30.871 -5.21425 0.22885 30.8565 -5.21121 0.452553 
27.8226 -4.57248 -0.3327 16.2829 -2.14307 -0.404963 17.9315 -2.49016 -1.06479 
21.9865 -3.34384 0.872711 22.1205 -3.37204 -0.365819 15.9765 -2.07858 -1.15739 
14.9405 -1.86048 -0.906572 14.999 -1.87279 -1.2037 32.3214 -5.51961 -0.36264 
32.3228 -5.51989 -0.383099 32.5671 -5.57134 -0.371523 32.5651 -5.57092 -0.340834 
32.687 -5.59657 -0.329932 32.6893 -5.59706 -0.365735 26.3853 -4.26989 -0.664349 
26.378 -4.26837 -0.5988 35.8165 -6.25542 0.217605 35.8219 -6.25655 -0.0494416 
4.46496 0.344907 -0.273809 5.76555 0.0710972 0.273809 -1.47254 1.59491 -0.27381 
-0.171945 1.3211 0.27381 4.16981 0.407044 1.25 3.95603 0.452049 -0.488095 
0.123206 1.25896 -1.25 0.336983 1.21395 0.488095 -1.83389 1.67098 -1.25 
-0.855344 1.46497 -1.07034 -2.88623 1.89253 -0.869048 -0.218938 1.33099 -0.323276 
-2.17939 1.74372 -0.571429 1.13486 1.04598 -1.25 0.48138 1.18355 -0.2198 
1.24175 1.02348 0.869048 2.14651 0.833002 0.25 1.64068 0.939491 -0.5 
1.16777 1.03905 0.101313 -1.76769 1.65704 1.25 -1.98147 1.70205 -0.488095 
0.189407 1.24502 1.25 -1.24067 1.54609 0.299529 -3.79099 2.083 0 
-2.98463 1.91324 -0.625 -2.74061 1.86187 0.559521 32.0777 -5.4683 -0.384445 
32.0784 -5.46844 -0.394674 32.4449 -5.54562 -0.377311 32.4433 -5.54526 -0.351737 
[...]
CELL_DATA 3251
FIELD FieldData 4
electrode_index 1 3251 int
0 0 0 0 0 0 0 0 0 
0 0 0 0 0 0 0 0 0 
0 0 0 0 0 0 0 0 0 
0 0 0 0 0 0 0 0 0 
0 0 0 0 0 0 0 0 0 
0 0 0 0 0 0 0 0 0 
0 0 0 0 0 0 0 0 0 
0 0 0 0 0 0 0 0 0 
0 0 0 0 0 0 0 0 0 
0 0 0 0 0 0 0 0 0 
0 0 0 0 0 0 0 0 0 
0 0 0 0 0 0 0 0 0 
0 0 0 0 0 0 0 0 0 
0 0 0 0 0 0 0 0 0 
0 0 0 0 0 0 0 0 0 
0 0 0 0 0 0 0 0 0 
0 0 0 0 0 0 0 0 0 
0 0 0 0 0 0 0 0 0 
0 0 0 0 0 0 0 0 0 
0 0 0 0 0 0 0 0 0 
0 0 0 0 0 0 0 0 0 
0 0 0 0 0 0 0 0 0 
0 0 0 0 0 0 0 0 0 
0 0 0 0 0 0 0 0 0 
0 0 0 0 0 0 0 0 0 
0 0 0 0 0 0 0 0 0 
0 0 0 0 0 0 0 0 0 
0 0 0 0 0 0 0 0 0 
0 0 0 0 0 0 0 0 0 
0 0 0 0 0 0 0 0 0 
0 0 0 0 0 0 0 0 0 
0 0 0 0 0 0 0 0 0 
0 0 0 0 0 0 0 0 0 
0 0 0 0 0 0 0 0 0 
0 0 0 0 0 0 0 0 0 
0 0 0 0 0 0 0 0 0 
0 0 0 0 0 0 0 0 0 
0 0 0 0 0 0 0 0 0 
0 0 0 0 0 0 0 0 0 
0 0 0 0 0 0 0 0 0 
0 0 0 0 0 0 0 0 0 
0 0 0 0 0 0 0 0 0 
0 0 0 0 0 0 0 0 0 
0 0 0 0 0 0 0 0 0 
0 0 0 0 0 0 0 0 0 
0 0 0 0 0 0 0 0 0 
0 0 0 0 0 0 0 0 0 
0 0 0 0 0 0 0 0 0 
0 0 0 0 0 0 0 0 0 
0 0 0 0 0 0 0 0 0 
0 0 0 0 0 0 0 0 0 
0 0 0 0 0 0 0 0 0 
0 0 0 0 0 0 0 0 0 
0 0 0 0 0 0 0 0 0 
0 0 0 0 0 0 0 0 0 
0 0 0 0 0 0 0 0 0 
0 0 0 0 0 0 0 0 0 
0 0 0 0 0 0 0 0 0 
0 0 0 0 0 0 0 0 0 
0 0 0 0 0 0 0 0 0 
0 0 0 0 0 0 0 0 0 
0 0 0 0 0 0 0 0 0 
0 0 0 0 0 0 0 0 0 
0 0 0 0 0 0 0 0 0 
0 0 0 0 0 0 0 0 0 
0 0 0 0 0 0 0 0 0 
0 0 0 0 0 0 0 0 0 
0 0 0 0 0 0 0 0 0 
0 0 0 0 0 0 0 0 0 
0 0 0 0 0 0 0 0 0 
0 0 0 0 0 0 0 0 0 
0 0 0 0 0 0 0 0 0 
0 0 0 0 0 0 0 0 0 
0 0 0 0 0 0 0 0 0 
0 0 0 0 0 0 0 0 0 
0 0 0 0 0 0 0 0 0 
0 0 0 0 0 0 0 0 0 
0 0 1 1 1 1 1 1 1 
1 1 1 1 1 1 1 1 1 
1 1 1 1 1 1 1 1 1 
1 1 1 1 1 1 1 1 1 
1 1 1 1 1 1 1 1 1 
1 1 1 1 1 1 1 1 1 
1 1 1 1 1 1 1 1 1 
1 1 1 1 1 1 1 1 1 
1 1 1 1 1 1 1 1 1 
1 1 1 1 1 1 1 1 1 
1 1 1 1 1 1 1 1 1 
1 1 1 1 1 1 1 1 1 
1 1 1 1 1 1 1 1 1 
1 1 1 1 1 1 1 1 1 
1 1 1 1 1 1 1 1 1 
1 1 1 1 1 1 1 1 1 
1 1 1 1 1 1 1 1 1 
1 1 1 1 1 1 1 1 1 
1 1 1 1 1 1 1 1 1 
1 1 1 1 1 1 1 1 1 
1 1 1 1 1 1 1 1 1 
1 1 1 1 1 1 1 1 1 
1 1 1 1 1 1 1 1 1 
1 1 1 1 1 1 1 1 1 
1 1 1 1 1 1 1 1 1 
1 1 1 1 1 1 1 1 1 
1 1 1 1 1 1 1 1 1 
1 1 1 1 1 1 1 1 1 
1 1 1 1 1 1 1 1 1 
1 1 1 1 1 1 1 1 1 
1 1 1 1 1 1 1 1 1 
1 1 1 1 1 1 1 1 1 
1 1 1 1 1 1 1 1 1 
1 1 1 1 1 1 1 1 1 
1 1 1 1 1 1 1 1 1 
1 1 1 1 1 1 1 1 1 
1 1 1 1 1 1 1 1 1 
1 1 1 1 1 1 1 1 1 
1 1 1 1 1 1 1 1 1 
1 1 1 1 1 1 1 1 1 
1 1 1 1 1 1 1 1 1 
1 1 1 1 1 1 1 1 1 
1 1 1 1 1 1 1 1 1 
1 1 1 1 1 1 1 1 1 
1 1 1 1 1 1 1 1 1 
1 1 1 1 1 1 1 1 1 
1 1 1 1 1 1 1 1 1 
1 1 1 1 1 1 1 1 1 
1 1 1 1 1 1 1 1 1 
1 1 1 1 1 1 1 1 1 
1 1 1 1 1 1 1 1 1 
1 1 1 1 1 1 1 1 1 
1 1 1 1 1 1 1 1 1 
1 1 1 1 1 1 1 1 1 
1 1 1 1 1 1 1 1 1 
1 1 1 1 1 1 1 1 1 
1 1 1 1 1 1 1 1 1 
1 1 1 1 1 1 1 1 1 
1 1 1 1 1 1 1 1 1 
1 1 1 1 1 1 1 1 1 
1 1 1 1 1 1 1 1 1 
1 1 1 1 1 1 1 1 1 
1 1 1 1 1 1 1 1 1 
1 1 1 1 1 1 1 1 1 
1 1 1 1 1 1 1 1 1 
1 1 1 1 1 1 1 1 1 
1 1 1 1 1 1 1 1 1 
1 1 1 1 1 1 1 1 1 
1 1 1 1 1 1 1 1 1 
1 1 1 1 1 1 1 1 1 
1 1 1 1 1 1 1 1 1 
1 1 1 1 1 1 1 1 1 
1 1 1 1 1 1 1 1 1 
1 1 1 1 1 1 1 1 1 
1 1 1 1 1 1 1 1 1 
1 1 1 1 1 1 1 1 1 
1 1 1 1 1 1 1 1 1 
1 1 1 1 1 1 1 1 1 
1 1 1 1 1 1 1 1 1 
1 1 1 1 1 1 1 1 1 
1 1 1 1 1 1 1 1 1 
1 1 1 1 1 1 1 1 1 
1 1 1 1 1 1 1 1 1 
1 1 1 1 1 1 1 1 1 
1 1 1 1 1 1 1 1 1 
1 1 1 1 1 1 1 1 1 
1 1 1 1 1 1 1 1 1 
1 1 1 1 1 1 1 1 1 
1 1 1 1 1 1 1 1 1 
1 1 1 1 1 1 1 1 1 
1 1 1 1 1 1 1 1 1 
1 1 1 1 1 1 1 1 1 
1 1 1 1 1 1 1 1 1 
1 1 1 1 1 1 1 1 1 
1 1 1 1 1 1 1 1 1 
1 1 1 1 1 1 1 1 1 
1 1 1 1 1 1 1 1 1 
1 1 1 1 1 1 1 1 1 
1 1 1 1 1 1 1 1 1 
1 1 1 1 1 1 1 1 1 
1 1 1 1 1 1 1 1 1 
1 1 1 1 1 1 1 1 1 
1 1 1 1 1 1 1 1 1 
1 1 1 1 1 1 1 1 1 
1 1 1 1 1 1 1 1 1 
1 1 1 1 1 1 1 1 1 
1 1 1 1 1 1 1 1 1 
1 1 1 1 1 1 1 1 1 
1 1 1 1 1 1 1 1 1 
1 1 1 1 1 1 1 1 1 
1 1 1 1 1 1 1 1 1 
1 1 1 1 1 1 1 1 1 
1 1 1 1 1 1 1 1 1 
1 1 1 1 1 1 1 1 1 
1 1 1 1 1 1 1 1 1 
1 1 1 1 1 1 1 1 1 
1 1 1 1 1 2 2 2 2 
2 2 2 2 2 2 2 2 2 
2 2 2 2 2 2 2 2 2 
2 2 2 2 2 2 2 2 2 
2 2 2 2 2 2 2 2 2 
2 2 2 2 2 2 2 2 2 
2 2 2 2 2 2 2 2 2 
2 2 2 2 2 2 2 2 2 
2 2 2 2 2 2 2 2 2 
2 2 2 2 2 2 2 2 2 
2 2 2 2 2 2 2 2 2 
2 2 2 2 2 2 2 2 2 
2 2 2 2 2 2 2 2 2 
2 2 2 2 2 2 2 2 2 
2 2 2 2 2 2 2 2 2 
2 2 2 2 2 2 2 2 2 
2 2 2 2 2 2 2 2 2 
2 2 2 2 2 2 2 2 2 
2 2 2 2 2 2 2 2 2 
2 2 2 2 2 2 2 2 2 
2 2 2 2 2 2 2 2 2 
2 2 2 2 2 2 2 2 2 
2 2 2 2 2 2 2 2 2 
2 2 2 2 2 2 2 2 2 
2 2 2 2 2 2 2 2 2 
2 2 2 2 2 2 2 2 2 
2 2 2 2 2 2 2 2 2 
2 2 2 2 2 2 2 2 2 
2 2 2 2 2 2 2 2 2 
2 2 2 2 2 2 2 2 2 
2 2 2 2 2 2 2 2 2 
2 2 2 2 2 2 2 2 2 
2 2 2 2 2 2 2 2 2 
2 2 2 2 2 2 2 2 2 
2 2 2 2 2 2 2 2 2 
2 2 2 2 2 2 2 2 2 
2 2 2 2 2 2 2 2 2 
2 2 2 2 2 2 2 2 2 
2 2 2 2 2 2 2 2 2 
2 2 2 2 2 2 2 2 2 
2 2 2 2 2 2 2 2 2 
2 2 2 2 2 2 2 2 2 
2 2 2 2 2 2 2 2 2 
2 2 2 2 2 2 2 2 2 
2 2 2 2 2 2 2 2 2 
2 2 2 2 2 2 2 2 2 
2 2 2 2 2 2 2 2 2 
2 2 3 3 3 3 3 3 3 
3 3 3 3 3 3 3 3 3 
3 3 3 3 3 3 3 3 3 
3 3 3 3 3 3 3 3 3 
3 3 3 3 3 3 3 3 3 
3 3 3 3 3 3 3 3 3 
3 3 3 3 3 3 3 3 3 
3 3 3 3 3 3 3 3 3 
3 3 3 3 3 3 3 3 3 
3 3 3 3 3 3 3 3 3 
3 3 3 3 3 3 3 3 3 
3 3 3 3 3 3 3 3 3 
3 3 3 3 3 3 3 3 3 
3 3 3 3 3 3 3 3 3 
3 3 3 3 3 3 3 3 3 
3 3 3 3 3 3 3 3 3 
3 3 3 3 3 3 3 3 3 
3 3 3 3 3 3 3 3 3 
3 3 3 3 3 3 3 3 3 
3 3 3 3 3 3 3 3 3 
3 3 3 3 3 3 3 3 3 
3 3 3 3 3 3 3 3 3 
3 3 3 3 3 3 3 3 3 
3 3 3 3 3 3 3 3 3 
3 3 3 3 3 3 3 3 3 
3 3 3 3 3 3 3 3 3 
3 3 3 3 3 3 3 3 3 
3 3 3 3 3 3 3 3 3 
3 3 3 3 3 4 4 4 4 
4 4 4 4 4 4 4 4 4 
4 4 4 4 4 4 4 4 4 
4 4 4 4 4 4 4 4 4 
4 4 4 4 4 4 4 4 4 
4 4 4 4 4 4 4 4 4 
4 4 4 4 4 4 4 4 4 
4 4 4 4 4 4 4 4 4 
4 4 4 4 4 4 4 4 4 
4 4 4 4 4 4 4 4 4 
4 4 4 4 4 4 4 4 4 
4 4 4 4 4 4 4 4 4 
4 4 4 4 4 4 4 4 4 
4 4 4 4 4 4 4 4 4 
4 4 4 4 4 4 4 4 4 
4 4 4 4 4 4 4 4 4 
4 4 4 4 4 4 4 4 4 
4 4 4 4 4 4 4 4 4 
4 4 4 4 4 4 4 4 4 
4 4 4 4 4 4 4 4 4 
4 4 4 4 4 4 4 4 4 
4 4 4 4 4 4 4 4 4 
4 4 4 4 4 4 4 4 4 
4 4 4 4 4 4 4 4 4 
4 4 4 4 4 4 4 4 4 
4 4 4 4 4 4 4 4 4 
4 4 4 4 4 4 4 4 4 
4 4 4 4 4 4 4 4 4 
4 4 4 4 4 4 4 4 4 
4 4 4 4 4 4 4 4 4 
4 4 4 4 4 4 4 4 4 
4 4 4 4 4 4 4 4 4 
4 4 4 4 4 4 4 4 4 
4 4 4 4 4 4 4 4 4 
4 4 4 4 4 4 4 4 4 
4 4 4 4 4 4 4 4 4 
4 4 4 4 4 4 4 4 4 
4 4 4 4 4 4 4 4 4 
4 4 4 4 4 4 4 4 4 
4 4 4 4 4 4 4 4 4 
4 4 4 4 4 4 4 4 4 
4 4 4 4 4 4 4 4 4 
4 4 4 4 4 4 4 4 4 
4 4 4 4 4 4 4 4 4 
4 4 4 4 4 4 4 4 4 
4 4 4 4 4 4 4 4 4 
4 4 4 4 4 4 4 4 4 
4 4 4 4 4 4 4 4 4 
4 4 4 4 4 4 4 4 4 
4 4 4 4 4 4 4 4 4 
4 4 4 4 4 4 4 4 4 
4 4 4 4 4 4 4 4 4 
4 4 4 4 4 4 4 4 4 
4 4 4 4 4 4 4 4 4 
4 4 4 4 4 4 4 4 4 
4 4 4 4 4 4 4 4 4 
4 4 4 4 4 4 4 4 4 
4 4 4 4 4 4 4 4 4 
4 4 4 4 4 4 4 4 4 
4 4 4 4 4 4 4 4 4 
4 4 4 4 4 4 4 4 4 
4 4 4 4 4 4 4 4 4 
4 4 4 4 4 4 4 4 4 
4 4 4 4 4 4 4 4 4 
4 4 4 4 4 4 4 4 4 
4 4 4 4 4 4 4 4 4 
4 4 4 4 4 4 4 4 4 
4 4 4 4 4 4 4 4 4 
4 4 4 4 4 4 4 4 4 
4 4 4 4 4 4 4 4 4 
4 4 4 4 4 4 4 4 4 
4 4 4 4 4 4 4 4 4 
4 4 4 4 4 4 4 4 4 
4 4 4 4 4 4 4 4 4 
4 4 4 4 4 4 4 4 4 
4 4 4 4 4 4 4 4 4 
4 4 4 4 4 4 4 4 4 
4 4 4 4 4 4 4 4 4 
4 4 4 4 4 4 4 4 4 
4 4 4 4 4 4 4 4 4 
4 4 4 4 4 4 4 4 4 
4 4 4 4 4 4 4 4 4 
4 4 4 4 4 4 4 4 4 
4 4 4 4 4 4 4 4 4 
4 4 4 4 4 4 4 4 4 
4 4 4 4 4 4 4 4 4 
4 4 4 4 4 4 4 4 4 
4 4 4 4 4 4 4 4 4 
4 4 4 4 4 4 4 4 4 
4 4 4 4 4 4 4 4 4 
4 4 4 4 4 4 4 4 4 
4 4 4 4 4 4 4 4 4 
4 4 4 4 4 4 4 4 4 
4 4 
charge 1 3251 double
-0.000416996 -0.000346775 -0.000244644 -0.000221159 -0.000237217 -0.000241693 -0.000244582 -0.000283616 -0.000280933 
-0.00030079 -0.000342324 -0.000366795 -0.000668361 -0.000229413 -0.000849307 -0.000233681 -0.000850294 -0.000346162 
-0.00109073 -0.000329813 -0.000348009 -0.000234056 -0.000247613 -0.000276475 -0.000438069 -0.000433058 -0.000321021 
-0.000593911 -0.000350131 -0.000621768 -0.000807204 -0.000460669 -0.000711073 -0.000304141 -0.000376152 -0.000320011 
-0.000446389 -0.000586254 -0.000630176 -0.000258855 -0.000222281 -0.000218012 -0.000220523 -0.000279427 -0.00024403 
-0.000429732 -0.00052704 -0.000332083 -0.000421166 -0.00035949 -0.000316471 -0.000365122 -0.000371692 -0.000222204 
-0.000232444 -0.000324611 -0.000269392 -0.000308357 -0.000235538 -0.000256426 -0.000850369 -0.00111061 -0.00171653 
-0.00095471 -0.00253776 -0.00267692 -0.00131879 -0.000684157 -0.00114202 -0.00160488 -0.00103726 -0.00132709 
-0.000596799 -0.000942149 -0.00128822 -0.00250081 -0.000636234 -0.000797288 -0.000339631 -0.000353754 -0.000417345 
-0.000328139 -0.000978487 -0.0005238 -0.000262737 -0.00110358 -0.000233079 -0.000252853 -0.000447122 -0.000357746 
-0.000880041 -0.00094861 -0.000311407 -0.000378032 -0.000252398 -0.000389415 -0.000505174 -0.000648904 -0.000427734 
-0.000232856 -0.000242277 -0.000223925 -0.000228536 -0.000266087 -0.000353124 -0.000327511 -0.000355354 -0.000340417 
-0.000379495 -0.000241188 -0.000240897 -0.000231975 -0.000294665 -0.000302638 -0.000366765 -0.000232001 -0.000425191 
-0.000221044 -0.000214674 -0.000227699 -0.000229917 -0.000217551 -0.000273939 -0.000219858 -0.000221912 -0.000232446 
-0.000272385 -0.000674798 -0.000536876 -0.00346629 -0.00427381 -0.00049662 -0.000498069 -0.000400717 -0.000343785 
-0.000213497 -0.000221619 -0.0004213 -0.000554039 -0.000485501 -0.00079612 -0.000419435 -0.000370623 -0.000649725 
-0.000450922 -0.000997423 -0.000602067 -0.000753303 -0.00043399 -0.00393847 -0.00220012 -0.00675116 -0.0100698 
-0.000449382 -0.000383394 -0.00050496 -0.000791212 -0.000281727 -0.00027151 -0.000501142 -0.000580072 -0.000227168 
-0.000226745 -0.000213653 -0.000220504 -0.000316403 -0.000553697 -0.000417451 -0.00117638 -0.000556696 -0.000743996 
-0.000735243 -0.000536035 -0.000996595 -0.00186436 -0.00120864 -0.00101425 -0.000469161 -0.000598149 -0.000752229 
-0.000874294 -0.000370753 -0.000501672 -0.000472243 -0.0010531 -0.000869899 -0.000328504 -0.000349095 -0.000365273 
-0.000427974 -0.00108598 -0.000600375 -0.000256263 -0.000276647 -0.000289964 -0.00122196 -0.000968074 -0.000943729 
-0.00125731 -0.000797908 -0.000605389 -0.000630005 -0.000592493 -0.000789957 -0.000786394 -0.000623289 -0.000646836 
-0.000731294 -0.00105553 -0.001184 -0.00185339 -0.00188787 -0.00297254 -0.00344516 -0.00741188 -0.00730627 
-0.00684444 -0.00727504 -0.0100771 -0.00682611 -0.00757214 -0.00807138 -0.012209 -0.00682824 -0.00683393 
-0.00769998 -0.0125482 -0.00733987 -0.0101166 -0.00849565 -0.0134011 -0.0119026 -0.00900492 -0.011032 
-0.0107346 -0.00968655 -0.0114106 -0.00963784 -0.00976095 -0.00968998 -0.0100394 -0.0102292 -0.00999639 
-0.0101313 -0.00873835 -0.0128353 -0.00985871 -0.0100995 -0.0112313 -0.0111804 -0.00265181 -0.00263388 
-0.00388689 -0.00420467 -0.00363342 -0.00367632 -0.00633284 -0.00401868 -0.00274661 -0.00378476 -0.00431574 
-0.00379956 -0.0067137 -0.0013985 -0.00185441 -0.00298604 -0.00213324 -0.00169997 -0.00325625 -0.0020101 
-0.00256571 -0.00229624 -0.00577015 -0.00305759 -0.00377612 -0.00639521 -0.0023892 -0.00108611 -0.00134609 
-0.00150822 -0.00164299 -0.00187791 -0.00116198 -0.00219401 -0.0190654 -0.0160372 -0.0141984 -0.0150292 
-0.0142843 -0.0103948 -0.00825746 -0.00849353 -0.00758259 -0.00901644 -0.000704281 -0.000596173 -0.000829636 
-0.00105451 -0.000970307 -0.00112458 -0.000992579 -0.000600696 -0.00132162 -0.000830337 -0.00174851 -0.000838834 
-0.000722613 -0.000595827 -0.000726128 -0.000682123 -0.000658244 -0.000664018 -0.000822317 -0.000657402 -0.000634777 
-0.000614577 -0.000615971 -0.000614526 -0.000580267 -0.000628529 -0.000671292 -0.000703772 -0.000602997 -0.000632412 
-0.000765868 -0.000585269 -0.0010801 -0.000576909 -0.050262 -0.0268977 -0.0142157 -0.0175143 -0.021736 
-0.0301744 -0.024011 -0.0156271 -0.0236774 -0.0213566 -0.00470973 -0.00402634 -0.00988288 -0.0176496 
-0.00428683 -0.00434438 -0.00839253 -0.0139789 -0.000592893 -0.000605443 -0.00060135 -0.00109623 -0.000603022 
-0.000619248 -0.000930275 -0.000632873 -0.000658423 -0.000645278 -0.000921917 -0.000944254 -0.000617673 -0.000607235 
-0.00174288 -0.00102115 -0.000622128 -0.000664037 -0.00125792 -0.000632094 -0.000668264 -0.00100575 -0.000887625 
-0.000928216 -0.0021419 -0.00104315 -0.00194949 -0.000706058 -0.00140986 -0.00109204 -0.000770403 -0.000710631 
-0.00109886 -0.00104271 -0.000799451 -0.000758458 -0.000628418 -0.00120665 -0.000599642 -0.000692692 -0.000636366 
-0.000571525 -0.00130218 -0.000616424 -0.000800595 -0.000691368 -0.00104134 -0.00074588 -0.000637375 -0.000918769 
-0.00117043 -0.000653381 -0.000635911 -0.000637778 -0.000852877 -0.0010428 -0.00107647 -0.00106149 -0.000902325 
-0.00069724 -0.000540314 -0.000634029 -0.000598747 -0.000608021 -0.00140367 -0.00100416 -0.00106793 -0.000890557 
-0.00116455 -0.00122348 -0.00217496 -0.00401089 -0.00497746 -0.00127731 -0.00279383 -0.00215067 -0.0029142 
-0.00194896 -0.00121517 -0.00227168 -0.000726241 -0.000905831 -1.09501e-05 -0.00122631 -0.00198148 -0.00212763 
-0.000223418 -0.00116057 -0.000324683 -6.22673e-05 -0.000167939 5.77812e-05 -2.94501e-05 7.78249e-06 -8.45913e-06 
5.58682e-08 3.94849e-06 2.37474e-06 -1.67314e-05 -4.62584e-06 -2.34348e-06 -1.06616e-06 -0.000765307 -0.000886922 
-0.000436439 0.000119316 -0.00232478 0.000129534 -0.00111377 -0.000411201 -0.00133541 -0.000395646 -0.000676589 
-0.000907817 -0.000437754 -0.000899539 -0.000574292 -0.00289667 0.000269552 0.00016337 0.000127846 -0.000189285 
0.000230856 0.000130511 -0.00111565 -0.00193649 -0.000873498 -0.00124227 -5.83185e-05 -5.12855e-06 -0.00206471 
-0.00122424 -0.00120511 -0.000874209 -0.00175825 -0.00237397 -0.0010072 -0.000687121 -0.0013308 -0.00135542 
-0.0150206 -0.0127496 -0.0112981 -0.0168491 -0.010978 -0.0106316 -0.0185571 -0.0111349 -0.0146791 
-0.0142042 -0.00501082 -0.00214143 -0.00122553 -0.00114777 -0.000883085 -0.00105059 -0.00092779 -0.00132583 
-0.00228379 -0.00298956 -0.0022358 -0.00403753 -0.00283077 -0.000993485 -0.00150913 -0.00188674 -0.00108659 
-0.00147749 -0.00172376 -0.00294397 -0.00112665 -0.001332 -0.00058681 -0.000822939 -0.000633121 -0.00130353 
-0.00126617 -0.00201895 -0.0012298 -0.000476311 -0.000826551 -0.00107542 -0.000367923 -0.000886726 -0.000240869 
-0.00101576 -0.00030692 -0.000436475 -0.000659077 -0.000779376 -0.000421086 -0.000765204 -0.000368175 -0.000360078 
-0.000385176 -0.000770763 -0.000422348 -0.000363275 -0.00032445 -0.00030068 -0.000277965 -0.000260038 -0.000254349 
-0.000274723 -0.000239058 -0.000264408 -0.000240405 -0.000228634 -0.000220743 -0.000232979 -0.000331666 -0.000361676 
-0.000347711 -0.000331348 -0.000217718 -0.000224432 -0.000936714 -0.000242038 -0.000232974 -0.000224254 -0.000239635 
-0.000237314 -0.000421215 -0.000449196 -0.000586645 -0.000627556 -0.00041563 -0.000422431 -0.000375944 -0.000770762 
-0.000376579 -0.000539023 -0.000436186 -0.000346202 -0.000223397 -0.000227245 -0.000234278 -0.000218155 -0.000222764 
-0.000209629 -0.000208914 -0.000217941 -0.000227439 -0.000260355 -0.000408201 -0.000310577 -0.000256706 -0.000267594 
-0.00163882 -0.00106546 -0.00122694 -0.000663681 -0.00146913 -0.00080768 -0.000333551 -0.000518997 -0.001121 
-0.000278472 -0.000359111 -0.000330594 -0.000336907 -0.000614263 -0.000300704 -0.000376315 -0.000305392 -0.000407135 
-0.000403897 -0.000246902 -0.00043091 -0.000243982 -0.000608835 -0.000504341 -0.000378691 -0.000354977 -0.000345307 
-0.00031896 -0.000282194 -0.000233169 -0.000238253 -0.000295967 -0.000269332 -0.000220331 -0.00024237 -0.000269192 
-0.000299827 -0.000229352 -0.00023924 -0.000229213 -0.000218973 -0.00022029 -0.000233563 -0.000233636 -0.000925576 
-0.000918176 -0.000228338 -0.000214674 -0.000218708 -0.0002224 -0.000360046 -0.000221082 -0.000589949 -0.000570421 
-0.000215848 -0.000208579 -0.00050865 -0.000450492 -0.000315422 -0.000383139 -0.00137092 -0.00119653 -0.000448154 
-0.000533572 -0.000668311 -0.000500303 -0.000357997 -0.0010582 -0.000959067 -0.000363369 -0.00044952 -0.000213728 
-0.000198207 -0.000194293 -0.000200728 -0.00078328 -0.000506648 -0.000370081 -0.000403348 -0.000278347 -0.000286218 
-0.000380933 -0.000576997 -0.00329362 -0.0024204 -0.000742816 -0.000840207 -0.000362968 -0.0007498 -0.000757853 
-0.00153557 -0.000457915 -0.000887509 -0.000315095 -0.000367247 -0.000343366 -0.000524282 -0.000695433 -0.000430732 
-0.000902571 -0.000255941 0.0537011 0.00758765 0.054771 0.00491351 0.0285558 0.00826623 0.0262344 
0.00651967 0.0296919 0.0275723 0.142281 0.0168424 0.0101961 0.00476376 0.0174938 0.00449225 
0.0165572 0.00676079 0.0214415 0.00641265 0.0066867 0.00439063 0.00449291 0.00492725 0.00734668 
0.00964538 0.00612287 0.010922 0.00628916 0.0104511 0.0138593 0.00968227 0.0066946 0.00680172 
0.00738099 0.0120007 0.0163149 0.0176374 0.0353949 0.0851229 0.00476336 0.00420896 0.00422056 
0.00500878 0.00461655 0.230138 0.344499 0.349041 0.230035 0.178565 0.145319 0.208925 
0.175241 0.00747951 0.0215854 0.266287 0.135294 0.207837 0.0688562 0.102145 0.0146923 
0.0190186 0.0301081 0.0161382 0.0448735 0.0475184 0.022883 0.0116988 0.0199995 0.0283221 
0.0193264 0.0237107 0.0104812 0.0173285 0.0236122 0.0438322 0.0115772 0.0146484 0.00492294 
0.00597169 0.00762954 0.00606508 0.0278464 0.010886 0.0129639 0.0220093 0.0106632 0.00885758 
0.013362 0.00668373 0.0173916 0.0183663 0.00570418 0.00663814 0.0046503 0.0076069 0.0149894 
0.011313 0.0674193 0.00648484 0.01139 0.0074036 0.00425762 0.00575495 0.00791475 0.00649005 
0.00695934 0.00656908 0.00734384 0.00456842 0.00443858 0.00439625 0.00525905 0.00529439 0.00776036 
0.00425793 0.00992391 0.0045859 0.00435439 0.00470841 0.00438273 0.00424218 0.00549507 0.00413301 
0.00435446 0.0046461 0.00481533 0.617882 0.458036 0.0611591 0.0813458 0.359486 0.404499 
0.355 0.361971 2.45477e-05 0.00359165 1.34006 0.804297 0.544044 0.295798 0.0698239 
0.0389957 0.105875 0.178694 0.299317 0.246224 0.590641 0.774904 0.153156 0.148233 
0.430922 0.757382 0.0102554 0.00742525 -0.00265831 0.00211285 0.0522495 0.0266926 0.145487 
0.070115 0.0504315 0.0569501 0.0276358 0.714826 0.716248 0.714691 0.739075 0.727262 
0.694181 0.720233 0.762597 0.766704 0.735305 0.530316 0.795845 0.712669 0.732602 
0.739478 0.805992 0.776045 0.77 0.817121 0.760384 0.927827 0.785217 0.951774 
0.773186 0.783199 0.935282 0.899071 0.8854 0.849575 0.857833 0.862119 0.853747 
0.713369 0.744702 0.941502 0.714441 0.940713 0.993646 0.799268 0.988674 0.838794 
0.733722 0.715138 0.70945 0.727538 0.882602 0.724515 0.830869 0.722188 0.745288 
0.718327 0.725141 0.717255 0.725485 0.718638 0.713785 0.713962 0.718818 0.716262 
0.778335 0.715546 0.719397 0.717936 0.731348 0.71574 0.734976 0.723091 0.728007 
0.817893 0.71604 0.892204 0.720916 0.855591 0.729395 0.713977 0.743431 0.713754 
0.714227 0.714618 0.720827 0.715848 0.71502 0.716557 0.723603 0.741358 0.726608 
0.716168 0.724396 0.716512 0.753071 0.715951 0.714493 0.717657 0.71631 0.724817 
0.716252 0.728371 0.735501 0.715901 0.781396 0.716921 0.753806 0.717277 0.714958 
0.714216 0.731901 0.715551 0.71454 0.714645 0.720169 0.714254 0.7171 0.715813 
0.731739 0.715968 0.722705 0.719017 0.736388 0.786283 0.715675 0.735446 0.719942 
0.714848 0.714005 0.714119 0.716582 0.716847 0.732724 0.713811 0.717299 0.72784 
0.768965 0.716754 0.736864 0.718815 0.734585 0.717565 0.715749 0.721178 0.72162 
0.714315 0.719023 0.717042 0.712864 0.728636 0.720533 0.71749 0.722563 0.717524 
0.71588 0.716275 0.717293 0.71723 0.748702 0.755792 0.714462 0.736583 0.718773 
0.706692 0.729776 0.716666 0.737079 0.717776 0.719291 0.717827 0.724862 0.735521 
0.72535 0.716867 0.739735 0.721829 0.726027 0.716946 0.717425 0.726937 0.716763 
0.71009 0.716364 0.719346 0.715829 0.717292 0.709602 0.719824 0.731098 0.731758 
0.714347 0.715852 0.715421 0.71636 0.714796 0.732585 0.775272 0.715111 0.715447 
0.717439 0.801029 0.774168 0.715106 0.721216 0.716522 0.743617 0.717454 0.71534 
0.722878 0.776499 0.716161 0.721439 0.781656 0.715647 0.721431 0.716608 0.709345 
0.744056 0.714945 0.724772 0.716983 0.714369 0.716144 0.716572 0.715168 0.713283 
0.722479 0.710562 0.713324 0.550156 0.633087 0.715812 0.714623 0.719137 0.732355 
0.714774 0.717742 1.40125 0.935513 0.706496 0.795346 1.15047 1.21699 1.34234 
0.850835 0.983486 0.967236 0.724364 0.77844 0.790611 0.755465 0.698289 0.743765 
0.716772 0.734911 0.723866 0.714288 0.724695 0.715081 0.714184 0.718163 0.714116 
0.71425 0.71376 0.717221 0.719141 0.742891 0.716165 0.830305 0.723257 0.717798 
0.715976 0.810946 0.716334 0.718631 0.73989 0.717208 0.715122 0.713443 0.714395 
0.931744 0.719006 0.718549 0.722007 0.714257 0.716482 0.718638 0.719354 0.716743 