# vtk DataFile Version 4.0
vtk output
ASCII
DATASET STRUCTURED_POINTS
DIMENSIONS 62 62 62
SPACING 0.05 0.05 0.05
ORIGIN -1.525 -0.525 -0.525
POINT_DATA 238328
FIELD FieldData 1
potential 1 238328 double
0.010809 0.0107821 0.0107551 0.010728 0.0107007 0.0106733 0.0106457 0.0106181 0.0105903 
0.0105623 0.0105343 0.010506 0.0104777 0.0104492 0.0104206 0.0103918 0.0103629 0.0103338 
0.0103046 0.0102753 0.0102458 0.0102161 0.0101864 0.0101564 0.0101263 0.0100961 0.0100657 
0.0100352 0.0100044 0.00997358 0.00994256 0.00991138 0.00988003 0.00984853 0.00981687 0.00978504 
0.00975306 0.00972091 0.0096886 0.00965613 0.0096235 0.0095907 0.00955775 0.00952463 0.00949135 
0.00945791 0.00942431 0.00939054 0.00935661 0.00932252 0.00928826 0.00925394 0.00921945 0.00918467 
0.00914977 0.00911464 0.00907932 0.00904381 0.00900809 0.00897217 0.00893603 0.00889966 0.0106188 
0.0105912 0.0105634 0.0105355 0.0105075 0.0104793 0.0104511 0.0104226 0.0103941 0.0103654 
0.0103365 0.0103076 0.0102784 0.0102492 0.0102198 0.0101902 0.0101605 0.0101307 0.0101007 
0.0100705 0.0100402 0.0100098 0.00997918 0.00994842 0.00991751 0.00988644 0.00985521 0.00982382 
0.00979227 0.00976056 0.00972868 0.00969664 0.00966444 0.00963207 0.00959953 0.00956682 0.00953395 
0.00950091 0.00946771 0.00943434 0.0094008 0.00936709 0.00933323 0.00929919 0.009265 0.00923063 
0.00919611 0.00916142 0.00912656 0.00909154 0.00905635 0.00902109 0.00898567 0.00894997 0.00891413 
0.00887807 0.00884181 0.00880536 0.00876871 0.00873185 0.00869477 0.00865746 0.0104262 0.0103979 
0.0103694 0.0103407 0.010312 0.010283 0.010254 0.0102248 0.0101955 0.010166 0.0101364 
0.0101066 0.0100767 0.0100466 0.0100164 0.00998609 0.00995558 0.00992493 0.00989412 0.00986316 
0.00983205 0.00980077 0.00976935 0.00973776 0.00970601 0.00967409 0.00964201 0.00960977 0.00957736 
0.00954478 0.00951203 0.00947911 0.00944602 0.00941276 0.00937933 0.00934572 0.00931194 0.00927799 
0.00924387 0.00920958 0.00917511 0.00914048 0.00910568 0.0090707 0.00903557 0.00900026 0.00896479 
0.00892915 0.00889334 0.00885737 0.00882133 0.00878512 0.00874864 0.00871199 0.0086752 0.00863818 
0.00860098 0.00856357 0.00852597 0.00848816 0.00845012 0.00841186 0.0102313 0.0102022 0.010173 
0.0101436 0.010114 0.0100843 0.0100545 0.0100245 0.00999439 0.00996412 0.00993371 0.00990315 
0.00987243 0.00984157 0.00981056 0.00977939 0.00974806 0.00971659 0.00968495 0.00965316 0.0096212 
0.00958909 0.00955682 0.00952438 0.00949177 0.00945899 0.00942604 0.00939292 0.00935963 0.00932617 
0.00929253 0.00925871 0.00922472 0.00919055 0.0091562 0.00912167 0.00908696 0.00905208 0.00901702 
0.00898178 0.00894637 0.00891078 0.00887502 0.00883908 0.00880298 0.0087667 0.00873026 0.00869365 
0.00865687 0.00861992 0.00858291 0.00854573 0.00850828 0.00847065 0.00843288 0.00839489 0.00835672 
0.00831835 0.00827977 0.00824099 0.00820199 0.00816275 0.010034 0.0100041 0.00997411 0.00994393 
0.00991357 0.0098831 0.00985248 0.0098217 0.00979078 0.0097597 0.00972848 0.0096971 0.00966557 
0.00963388 0.00960204 0.00957004 0.00953788 0.00950556 0.00947308 0.00944044 0.00940763 0.00937466 
0.00934151 0.00930821 0.00927472 0.00924106 0.00920723 0.00917322 0.00913903 0.00910466 0.00907011 
0.00903537 0.00900046 0.00896536 0.00893007 0.0088946 0.00885894 0.0088231 0.00878708 0.00875087 
0.00871448 0.00867792 0.00864117 0.00860425 0.00856715 0.00852988 0.00849245 0.00845484 0.00841705 
0.00837911 0.00834121 0.00830293 0.00826447 0.00822585 0.00818709 0.00814811 0.00810894 0.00806958 
0.00803002 0.00799025 0.00795027 0.00791004 0.00983426 0.00980359 0.00977276 0.00974178 0.00971062 
0.00967934 0.00964791 0.00961632 0.00958458 0.00955268 0.00952062 0.00948841 0.00945604 0.00942352 
0.00939083 0.00935798 0.00932497 0.00929179 0.00925845 0.00922494 0.00919126 0.0091574 0.00912338 
0.00908919 0.00905481 0.00902025 0.00898551 0.00895059 0.00891548 0.00888018 0.0088447 0.00880903 
0.00877317 0.00873711 0.00870087 0.00866443 0.0086278 0.00859098 0.00855396 0.00851676 0.00847938 
0.00844181 0.00840405 0.00836612 0.008328 0.00828971 0.00825125 0.00821262 0.00817381 0.00813495 
0.00809592 0.00805661 0.00801714 0.00797749 0.00793772 0.00789772 0.00785755 0.00781718 0.00777662 
0.00773585 0.00769486 0.00765364 0.00963197 0.0096005 0.00956886 0.00953707 0.00950509 0.00947298 
0.00944072 0.0094083 0.00937572 0.00934298 0.00931008 0.00927702 0.00924379 0.00921041 0.00917686 
0.00914314 0.00910926 0.00907521 0.00904098 0.00900659 0.00897202 0.00893727 0.00890234 0.00886724 
0.00883195 0.00879648 0.00876081 0.00872496 0.00868891 0.00865267 0.00861623 0.0085796 0.00854277 
0.00850574 0.00846851 0.00843108 0.00839345 0.00835563 0.0083176 0.00827938 0.00824097 0.00820237 
0.00816357 0.0081246 0.00808544 0.0080461 0.00800658 0.0079669 0.00792704 0.00788713 0.00784705 
0.00780669 0.00776617 0.00772548 0.00768466 0.00764363 0.00760243 0.00756103 0.00751945 0.00747766 
0.00743565 0.00739342 0.00942711 0.00939481 0.00936235 0.00932972 0.0092969 0.00926395 0.00923084 
0.00919757 0.00916414 0.00913054 0.00909678 0.00906285 0.00902875 0.00899449 0.00896006 0.00892546 
0.00889069 0.00885574 0.00882062 0.00878532 0.00874984 0.00871418 0.00867833 0.0086423 0.00860608 
0.00856967 0.00853306 0.00849625 0.00845925 0.00842204 0.00838463 0.00834702 0.00830919 0.00827117 
0.00823293 0.00819448 0.00815583 0.00811697 0.00807791 0.00803864 0.00799918 0.00795951 0.00791965 
0.0078796 0.00783937 0.00779895 0.00775835 0.00771758 0.00767676 0.00763576 0.00759449 0.00755306 
0.00751146 0.0074697 0.00742782 0.00738573 0.00734347 0.00730103 0.0072584 0.00721558 0.00717254 
0.00712928 0.0092196 0.00918647 0.00915315 0.00911968 0.00908602 0.00905219 0.00901822 0.00898408 
0.00894977 0.00891529 0.00888065 0.00884584 0.00881085 0.00877569 0.00874036 0.00870486 0.00866918 
0.00863332 0.00859728 0.00856106 0.00852465 0.00848805 0.00845127 0.0084143 0.00837712 0.00833975 
0.00830218 0.0082644 0.00822641 0.00818822 0.00814981 0.00811119 0.00807236 0.00803331 0.00799404 
0.00795455 0.00791485 0.00787493 0.0078348 0.00779446 0.00775391 0.00771315 0.00767219 0.00763104 
0.00758969 0.00754817 0.00750646 0.00746457 0.00742263 0.00738052 0.00733814 0.0072956 0.0072529 
0.00721005 0.00716707 0.0071239 0.00708056 0.00703705 0.00699337 0.00694949 0.00690541 0.00686111 
0.00900939 0.00897539 0.00894121 0.00890687 0.00887233 0.00883763 0.00880277 0.00876775 0.00873255 
0.00869717 0.00866163 0.00862591 0.00859002 0.00855395 0.0085177 0.00848127 0.00844466 0.00840787 
0.00837089 0.00833373 0.00829637 0.00825882 0.00822108 0.00818314 0.008145 0.00810665 0.00806809 
0.00802932 0.00799033 0.00795113 0.0079117 0.00787205 0.00783218 0.00779208 0.00775176 0.0077112 
0.00767042 0.00762942 0.00758819 0.00754674 0.00750507 0.00746319 0.0074211 0.00737881 0.00733633 
0.00729365 0.00725079 0.00720776 0.00716478 0.00712141 0.00707788 0.0070342 0.00699037 0.00694639 
0.00690229 0.00685801 0.00681358 0.00676898 0.00672422 0.00667927 0.00663413 0.00658877 0.0087964 
0.00876153 0.00872646 0.00869123 0.0086558 0.0086202 0.00858444 0.0085485 0.00851239 0.0084761 
0.00843964 0.008403 0.00836617 0.00832917 0.00829198 0.00825461 0.00821706 0.00817931 0.00814138 
0.00810325 0.00806493 0.00802641 0.00798769 0.00794877 0.00790963 0.00787028 0.00783071 0.00779093 
0.00775092 0.00771068 0.00767022 0.00762952 0.00758858 0.00754741 0.007506 0.00746435 0.00742247 
0.00738034 0.00733798 0.0072954 0.00725258 0.00720954 0.00716629 0.00712282 0.00707916 0.0070353 
0.00699126 0.00694715 0.00690287 0.00685832 0.00681361 0.00676876 0.00672376 0.00667862 0.00663337 
0.00658795 0.00654239 0.00649668 0.00645082 0.00640478 0.00635857 0.00631215 0.00858057 0.00854479 
0.00850882 0.00847268 0.00843634 0.00839982 0.00836314 0.00832628 0.00828924 0.00825201 0.00821461 
0.00817702 0.00813925 0.00810129 0.00806315 0.00802481 0.00798629 0.00794757 0.00790866 0.00786955 
0.00783024 0.00779073 0.00775101 0.00771107 0.00767093 0.00763056 0.00758997 0.00754915 0.0075081 
0.0074668 0.00742527 0.0073835 0.00734148 0.00729921 0.00725669 0.00721391 0.00717089 0.00712762 
0.0070841 0.00704034 0.00699634 0.00695211 0.00690765 0.00686297 0.00681809 0.00677301 0.00672774 
0.0066824 0.0066369 0.00659112 0.0065452 0.00649913 0.00645293 0.0064066 0.00636017 0.00631358 
0.00626687 0.00622003 0.00617304 0.0061259 0.0060786 0.0060311 0.00836181 0.00832512 0.00828823 
0.00825115 0.00821388 0.00817643 0.0081388 0.00810099 0.008063 0.00802482 0.00798645 0.0079479 
0.00790916 0.00787023 0.0078311 0.00779179 0.00775227 0.00771257 0.00767266 0.00763255 0.00759223 
0.0075517 0.00751096 0.00747 0.00742883 0.00738742 0.00734578 0.0073039 0.00726178 0.00721941 
0.00717679 0.00713391 0.00709078 0.00704738 0.00700372 0.0069598 0.00691561 0.00687116 0.00682644 
0.00678147 0.00673625 0.00669079 0.00664509 0.00659916 0.00655302 0.00650667 0.00646013 0.00641364 
0.00636675 0.00631971 0.00627252 0.0062252 0.00617776 0.0061302 0.00608255 0.00603477 0.00598688 
0.00593888 0.00589075 0.00584249 0.00579407 0.00574549 0.00814007 0.00810243 0.0080646 0.00802657 
0.00798835 0.00794993 0.00791135 0.00787257 0.0078336 0.00779444 0.0077551 0.00771556 0.00767582 
0.0076359 0.00759577 0.00755545 0.00751493 0.00747421 0.00743328 0.00739215 0.0073508 0.00730924 
0.00726746 0.00722545 0.00718322 0.00714075 0.00709804 0.00705508 0.00701187 0.0069684 0.00692467 
0.00688067 0.0068364 0.00679185 0.00674703 0.00670192 0.00665653 0.00661087 0.00656492 0.00651871 
0.00647223 0.00642549 0.00637851 0.00633128 0.00628384 0.00623618 0.00618843 0.00614051 0.0060923 
0.00604395 0.00599546 0.00594684 0.00589811 0.00584929 0.00580038 0.00575137 0.00570227 0.00565308 
0.00560379 0.00555439 0.00550485 0.00545518 0.00791525 0.00787665 0.00783786 0.00779886 0.00775966 
0.00772026 0.00768069 0.00764093 0.00760096 0.00756081 0.00752046 0.00747991 0.00743916 0.00739822 
0.00735707 0.00731573 0.00727417 0.00723241 0.00719045 0.00714827 0.00710587 0.00706325 0.00702041 
0.00697733 0.00693403 0.00689048 0.00684667 0.00680262 0.0067583 0.00671371 0.00666884 0.00662369 
0.00657826 0.00653253 0.00648651 0.00644019 0.00639357 0.00634665 0.00629944 0.00625195 0.00620417 
0.00615611 0.0061078 0.00605924 0.00601044 0.00596141 0.00591231 0.00586301 0.00581344 0.00576372 
0.00571387 0.00566391 0.00561385 0.00556371 0.00551352 0.00546324 0.0054129 0.00536249 0.00531201 
0.00526145 0.00521079 0.00516 0.00768729 0.0076477 0.00760792 0.00756793 0.00752773 0.00748734 
0.00744676 0.00740598 0.007365 0.00732382 0.00728245 0.00724087 0.00719909 0.0071571 0.00711491 
0.00707252 0.00702991 0.00698709 0.00694406 0.00690082 0.00685735 0.00681365 0.00676972 0.00672556 
0.00668116 0.0066365 0.00659159 0.00654641 0.00650096 0.00645522 0.0064092 0.00636288 0.00631625 
0.00626932 0.00622207 0.00617451 0.00612663 0.00607843 0.00602992 0.0059811 0.00593198 0.00588256 
0.00583287 0.00578291 0.00573271 0.00568239 0.00563186 0.00558102 0.00553003 0.00547889 0.00542763 
0.00537627 0.00532483 0.00527334 0.00522181 0.00517022 0.00511861 0.00506696 0.00501527 0.00496353 
0.00491172 0.00485982 0.00745609 0.00741549 0.00737471 0.0073337 0.00729248 0.00725106 0.00720945 
0.00716764 0.00712562 0.0070834 0.00704098 0.00699835 0.00695551 0.00691246 0.0068692 0.00682574 
0.00678205 0.00673816 0.00669404 0.0066497 0.00660514 0.00656034 0.00651531 0.00647004 0.00642452 
0.00637874 0.00633269 0.00628637 0.00623976 0.00619286 0.00614566 0.00609814 0.00605031 0.00600214 
0.00595364 0.0059048 0.00585562 0.00580611 0.00575625 0.00570607 0.00565556 0.00560474 0.00555362 
0.00550222 0.00545055 0.00539876 0.00534675 0.00529443 0.00524195 0.00518933 0.0051366 0.00508379 
0.00503091 0.00497801 0.0049251 0.00487217 0.00481924 0.00476632 0.0047134 0.00466046 0.00460749 
0.00455447 0.00722157 0.00717995 0.00713813 0.00709609 0.00705384 0.00701136 0.00696869 0.00692582 
0.00688275 0.00683946 0.00679596 0.00675225 0.00670833 0.0066642 0.00661985 0.00657529 0.00653051 
0.00648551 0.00644028 0.00639483 0.00634915 0.00630323 0.00625707 0.00621067 0.00616401 0.00611709 
0.00606989 0.0060224 0.00597463 0.00592654 0.00587813 0.0058294 0.00578032 0.0057309 0.00568112 
0.00563098 0.00558047 0.0055296 0.00547837 0.00542677 0.00537483 0.00532256 0.00526996 0.00521705 
0.00516387 0.00511066 0.00505699 0.00500312 0.00494908 0.00489491 0.00484065 0.00478632 0.00473195 
0.00467758 0.00462324 0.00456892 0.00451464 0.00446042 0.00440624 0.00435209 0.00429796 0.00424381 
0.00698365 0.00694097 0.0068981 0.00685499 0.00681168 0.00676813 0.00672439 0.00668044 0.00663627 
0.0065919 0.00654731 0.0065025 0.00645747 0.00641223 0.00636677 0.00632109 0.00627518 0.00622905 
0.00618269 0.00613611 0.00608928 0.00604222 0.00599492 0.00594736 0.00589954 0.00585145 0.00580308 
0.00575442 0.00570545 0.00565615 0.00560653 0.00555655 0.00550622 0.00545552 0.00540443 0.00535295 
0.00530108 0.00524882 0.00519617 0.00514313 0.00508971 0.00503592 0.00498179 0.00492732 0.00487267 
0.00481774 0.00476246 0.00470697 0.00465131 0.00459552 0.00453965 0.00448373 0.0044278 0.0043719 
0.00431607 0.00426032 0.00420466 0.0041491 0.00409364 0.00403826 0.00398295 0.00392768 0.00674222 
0.00669847 0.00665452 0.00661033 0.00656593 0.00652128 0.00647644 0.00643139 0.00638612 0.00634063 
0.00629492 0.00624899 0.00620283 0.00615646 0.00610986 0.00606303 0.00601598 0.00596869 0.00592118 
0.00587343 0.00582544 0.00577721 0.00572874 0.00568 0.005631 0.00558174 0.00553218 0.00548231 
0.00543213 0.00538162 0.00533075 0.00527952 0.00522791 0.0051759 0.00512348 0.00507065 0.00501739 
0.0049637 0.00490959 0.00485505 0.00480011 0.00474476 0.00468903 0.00463295 0.00457665 0.00452005 
0.00446308 0.00440589 0.00434852 0.00429104 0.00423347 0.00417589 0.00411833 0.00406084 0.00400346 
0.00394622 0.00388913 0.00383221 0.00377545 0.00371883 0.00366234 0.00360594 0.00649721 0.00645236 
0.00640729 0.006362 0.00631649 0.00627072 0.00622476 0.00617858 0.00613218 0.00608555 0.0060387 
0.00599163 0.00594432 0.00589679 0.00584902 0.00580103 0.0057528 0.00570434 0.00565564 0.0056067 
0.00555753 0.00550811 0.00545844 0.00540851 0.00535831 0.00530784 0.00525707 0.005206 0.00515459 
0.00510284 0.00505073 0.00499823 0.00494532 0.00489198 0.00483822 0.00478399 0.00472931 0.00467417 
0.00461856 0.00456249 0.00450597 0.00444901 0.00439163 0.00433386 0.00427596 0.0042175 0.00415876 
0.00409979 0.00404063 0.00398135 0.00392201 0.00386268 0.0038034 0.00374425 0.00368526 0.00362648 
0.00356792 0.0035096 0.00345152 0.00339366 0.00333599 0.00327847 0.0062485 0.00620253 0.00615633 
0.00610991 0.00606326 0.00601637 0.00596925 0.00592192 0.00587437 0.00582658 0.00577857 0.00573032 
0.00568184 0.00563313 0.00558417 0.00553498 0.00548555 0.00543589 0.00538598 0.00533583 0.00528544 
0.0052348 0.00518392 0.00513277 0.00508136 0.00502967 0.00497768 0.00492538 0.00487274 0.00481974 
0.00476636 0.00471257 0.00465836 0.00460369 0.00454855 0.00449292 0.0044368 0.00438016 0.00432302 
0.00426538 0.00420723 0.00414861 0.00408953 0.00403012 0.00397032 0.00391004 0.00384945 0.0037886 
0.00372756 0.00366639 0.00360518 0.00354399 0.00348291 0.00342201 0.00336134 0.00330096 0.0032409 
0.00318117 0.00312176 0.00306264 0.00300379 0.00294515 0.00599601 0.00594888 0.00590153 0.00585396 
0.00580615 0.00575809 0.00570981 0.00566131 0.00561258 0.00556362 0.00551442 0.00546498 0.0054153 
0.00536538 0.00531521 0.0052648 0.00521415 0.00516325 0.0051121 0.00506071 0.00500908 0.0049572 
0.00490507 0.00485269 0.00480004 0.00474712 0.00469389 0.00464035 0.00458647 0.00453223 0.00447758 
0.0044225 0.00436697 0.00431096 0.00425444 0.00419739 0.0041398 0.00408165 0.00402294 0.00396369 
0.00390388 0.00384354 0.00378269 0.00372148 0.00365982 0.00359764 0.00353511 0.00347229 0.00340926 
0.00334609 0.00328289 0.00321975 0.00315677 0.00309403 0.00303161 0.00296958 0.00290798 0.0028468 
0.00278605 0.00272569 0.00266566 0.00260593 0.00573962 0.00569132 0.00564278 0.00559404 0.00554504 
0.00549581 0.00544634 0.00539665 0.00534673 0.00529657 0.00524616 0.00519551 0.00514461 0.00509346 
0.00504206 0.0049904 0.00493849 0.00488633 0.00483392 0.00478126 0.00472836 0.00467521 0.00462181 
0.00456817 0.00451426 0.00446009 0.00440562 0.00435084 0.00429572 0.00424022 0.0041843 0.00412794 
0.0040711 0.00401374 0.00395583 0.00389735 0.00383828 0.0037786 0.00371831 0.0036574 0.0035959 
0.0035338 0.00347125 0.00340817 0.00334446 0.0032803 0.00321574 0.00315086 0.00308572 0.00302045 
0.00295513 0.00288991 0.00282491 0.00276023 0.00269599 0.00263225 0.00256907 0.00250645 0.00244436 
0.00238276 0.00232158 0.00226076 0.00547922 0.00542972 0.00537999 0.00533004 0.00527985 0.00522941 
0.00517874 0.00512785 0.00507672 0.00502534 0.00497372 0.00492184 0.00486969 0.00481729 0.00476463 
0.0047117 0.00465851 0.00460505 0.00455135 0.00449739 0.00444318 0.00438873 0.00433404 0.00427911 
0.00422393 0.00416849 0.00411278 0.00405675 0.00400039 0.00394364 0.00388647 0.00382884 0.00377069 
0.00371199 0.0036527 0.00359279 0.00353223 0.00347101 0.00340911 0.00334654 0.00328331 0.00321942 
0.00315502 0.00309001 0.00302431 0.0029581 0.00289142 0.00282436 0.00275701 0.00268949 0.00262193 
0.00255449 0.00248733 0.0024206 0.00235444 0.00228895 0.00222417 0.00216009 0.00209669 0.00203387 
0.00197157 0.00190969 0.00521472 0.005164 0.00511304 0.00506188 0.00501047 0.00495881 0.00490692 
0.00485481 0.00480246 0.00474985 0.00469699 0.00464387 0.00459047 0.0045368 0.00448285 0.00442862 
0.00437412 0.00431935 0.00426431 0.00420901 0.00415347 0.00409768 0.00404167 0.00398543 0.00392895 
0.00387224 0.00381527 0.003758 0.00370041 0.00364243 0.00358403 0.00352514 0.00346572 0.0034057 
0.00334504 0.00328371 0.00322167 0.0031589 0.0030954 0.00303115 0.00296617 0.00290047 0.0028343 
0.00276721 0.00269948 0.00263114 0.00256227 0.00249294 0.00242325 0.00235334 0.00228338 0.00221355 
0.00214408 0.00207518 0.00200701 0.00193971 0.00187332 0.00180782 0.00174312 0.00167914 0.00161573 
0.00155279 0.00494599 0.00489402 0.00484183 0.00478942 0.00473678 0.0046839 0.00463078 0.00457745 
0.00452387 0.00447003 0.00441592 0.00436155 0.00430688 0.00425192 0.00419667 0.00414112 0.00408528 
0.00402915 0.00397274 0.00391607 0.00385914 0.00380199 0.00374461 0.00368703 0.00362924 0.00357124 
0.00351301 0.00345451 0.00339571 0.00333654 0.00327694 0.00321684 0.00315617 0.00309486 0.00303287 
0.00297014 0.00290664 0.00284234 0.00277724 0.00271132 0.00264459 0.00257719 0.002509 0.00243994 
0.00237014 0.00229965 0.00222852 0.00215684 0.0020847 0.00201225 0.0019397 0.0018673 0.00179533 
0.0017241 0.00165382 0.00158468 0.00151669 0.00144979 0.00138386 0.00131872 0.00125423 0.00119024 
0.00467291 0.00461968 0.00456623 0.00451256 0.0044587 0.00440458 0.00435024 0.00429568 0.00424087 
0.0041858 0.00413045 0.00407482 0.00401888 0.00396262 0.00390605 0.00384916 0.00379195 0.00373442 
0.00367661 0.00361851 0.00356016 0.00350158 0.0034428 0.00338383 0.0033247 0.0032654 0.00320592 
0.00314621 0.00308623 0.00302591 0.00296517 0.0029039 0.00284205 0.00277951 0.00271623 0.00265214 
0.00258721 0.00252142 0.00245473 0.00238717 0.00231872 0.00224952 0.00217946 0.00210843 0.00203658 
0.00196393 0.00189052 0.00181643 0.00174174 0.00166662 0.00159129 0.00151608 0.00144137 0.00136762 
0.00129513 0.00122412 0.00115457 0.00108633 0.00101918 0.00095291 0.000887319 0.000822234 0.00439538 
0.00434086 0.00428614 0.00423122 0.00417611 0.00412078 0.0040652 0.00400942 0.0039534 0.00389711 
0.00384053 0.00378364 0.00372643 0.00366888 0.00361098 0.00355272 0.00349412 0.00343517 0.00337589 
0.00331632 0.00325648 0.00319642 0.00313617 0.00307578 0.00301527 0.00295465 0.00289391 0.00283303 
0.00277193 0.00271052 0.0026487 0.00258637 0.00252339 0.0024597 0.00239519 0.00232981 0.0022635 
0.00219625 0.00212804 0.00205887 0.00198875 0.00191792 0.00184592 0.001773 0.00169915 0.0016244 
0.00154876 0.00147227 0.00139501 0.00131711 0.00123881 0.00116051 0.00108276 0.00100623 0.000931419 
0.000858545 0.000787466 0.000717886 0.000649496 0.000582024 0.00051525 0.000448994 0.00411326 0.00405744 
0.00400144 0.00394526 0.00388891 0.00383237 0.00377559 0.00371862 0.00366141 0.00360393 0.00354614 
0.00348803 0.00342956 0.00337072 0.00331148 0.00325185 0.00319182 0.0031314 0.00307062 0.00300951 
0.00294811 0.00288649 0.00282469 0.0027628 0.00270086 0.00263889 0.00257692 0.0025149 0.00245275 
0.00239035 0.00232757 0.00226426 0.00220028 0.00213552 0.00206987 0.00200327 0.00193566 0.00186702 
0.00179735 0.00172665 0.00165505 0.00158245 0.00150874 0.00143403 0.00135833 0.00128162 0.0012039 
0.00112515 0.00104541 0.000964752 0.000883381 0.000801714 0.000720526 0.000640889 0.000563614 0.000488833 
0.000416116 0.000345008 0.000275158 0.000206297 0.000138204 7.06831e-05 0.00382642 0.00376929 0.00371201 
0.00365458 0.00359702 0.00353928 0.00348135 0.00342323 0.00336488 0.00330625 0.0032473 0.00318799 
0.0031283 0.00306819 0.00300763 0.00294661 0.00288514 0.00282321 0.00276086 0.00269813 0.00263508 
0.00257178 0.00250834 0.00244485 0.00238139 0.00231805 0.00225484 0.00219175 0.00212864 0.00206538 
0.00200178 0.00193765 0.0018728 0.0018071 0.00174042 0.00167269 0.00160387 0.00153393 0.00146287 
0.00139073 0.00131765 0.00124352 0.00116826 0.00109197 0.00101464 0.000936229 0.00085671 0.000776036 
0.00069417 0.000611102 0.000526898 0.000441849 0.000356834 0.000273649 0.000193602 0.000116299 4.11195e-05 
-3.21792e-05 -0.000103872 -0.000174296 -0.000238505 -0.000219062 0.00353473 0.00347628 0.00341772 0.00335907 
0.00330032 0.00324145 0.00318243 0.00312322 0.00306379 0.00300408 0.00294404 0.00288361 0.00282274 
0.00276139 0.00269954 0.00263714 0.00257421 0.00251073 0.00244675 0.00238231 0.00231748 0.00225237 
0.00218712 0.00212187 0.00205679 0.00199199 0.00192756 0.00186346 0.00179956 0.00173563 0.00167142 
0.00160666 0.00154112 0.00147462 0.00140703 0.00133829 0.00126835 0.0011972 0.00112486 0.00105138 
0.00097707 0.00090148 0.000824876 0.000747256 0.0006686 0.000588871 0.000508019 0.000425988 0.000342718 
0.00025817 0.00017235 8.53867e-05 -2.32627e-06 -8.91098e-05 -0.000175096 -0.000259725 -0.000267602 -0.000255062 
-0.00024017 -0.000223697 -0.000206143 -0.000187865 0.00323805 0.00317827 0.00311845 0.00305861 0.00299873 
0.00293881 0.00287876 0.00281857 0.00275818 0.0026975 0.00263646 0.00257499 0.00251302 0.00245051 
0.00238739 0.00232364 0.00225924 0.00219419 0.0021285 0.00206223 0.00199547 0.00192835 0.00186106 
0.00179383 0.00172691 0.00166053 0.00159486 0.00152988 0.00146542 0.00140112 0.00133659 0.00127145 
0.00120541 0.00113828 0.00106994 0.00100031 0.000929358 0.000857096 0.000783569 0.000708995 0.00063336 
0.00055662 0.000478929 0.000400286 0.000320676 0.000240071 0.000158437 7.5743e-05 -8.01311e-06 -9.27603e-05 
-0.000178187 -0.000220816 -0.000232866 -0.000244811 -0.000248582 -0.000244903 -0.000236216 -0.000224296 -0.000210221 
-0.000194671 -0.000178112 -0.000160881 0.00293621 0.00287511 0.00281406 0.00275307 0.00269215 0.00263128 
0.00257035 0.00250931 0.0024481 0.00238659 0.0023247 0.00226231 0.00219936 0.00213576 0.00207146 
0.0020064 0.00194055 0.00187389 0.00180644 0.00173822 0.00166933 0.00159992 0.00153025 0.00146066 
0.00139155 0.00132337 0.00125641 0.00119075 0.0011261 0.00106188 0.000997444 0.00093225 0.000865952 
0.00079837 0.000729406 0.000659018 0.00058719 0.000513923 0.000439274 0.000363561 0.000286879 0.000209212 
0.000130706 5.1364e-05 -2.88232e-05 -0.000109866 -0.00016831 -0.000175313 -0.00018315 -0.00019176 -0.000201038 
-0.000210672 -0.000219343 -0.00022423 -0.000223569 -0.000218035 -0.000208968 -0.000197376 -0.000183977 -0.000169289 
-0.000153699 -0.00013751 0.00262903 0.00256661 0.00250437 0.00244233 0.00238049 0.00231881 0.00225718 
0.0021955 0.00213366 0.00207153 0.00200895 0.00194582 0.00188202 0.00181746 0.00175207 0.00168578 
0.00161853 0.00155028 0.00148101 0.00141071 0.00133946 0.0012674 0.00119484 0.00112228 0.00105039 
0.000979936 0.000911574 0.000845552 0.000781422 0.000718061 0.000654309 0.000589432 0.000523101 0.000455215 
0.00038576 0.000314752 0.000242201 0.000168072 9.22677e-05 1.54922e-05 -6.21821e-05 -0.000136 -0.000139264 
-0.000143221 -0.000147867 -0.00015319 -0.000159167 -0.000165749 -0.000172845 -0.000180273 -0.000187666 -0.000194317 
-0.000199087 -0.000200698 -0.000198514 -0.000192713 -0.000184021 -0.000173131 -0.000160609 -0.0001469 -0.000132357 
-0.000117258 0.0023163 0.00225257 0.00218919 0.0021262 0.00206361 0.00200135 0.00193926 0.00187721 
0.00181503 0.00175251 0.00168949 0.00162582 0.00156135 0.001496 0.00142966 0.00136225 0.00129369 
0.00122391 0.00115282 0.00108037 0.00100652 0.00093135 0.000855148 0.000778595 0.000702819 0.000629221 
0.000559119 0.000493315 0.000431165 0.000370076 0.00030779 0.000243552 0.00017732 0.00010921 3.93541e-05 
-3.21435e-05 -0.000105213 -0.000119255 -0.000120581 -0.000122592 -0.000125021 -0.000127963 -0.000131455 -0.000135489 
-0.000140039 -0.000145062 -0.000150488 -0.000156215 -0.000162069 -0.000167779 -0.000172924 -0.000176923 -0.000179074 
-0.000178746 -0.00017565 -0.000169802 -0.0001616 -0.000151494 -0.000139915 -0.000127236 -0.000113776 -9.97954e-05 
0.00199775 0.00193269 0.00186824 0.00180447 0.00174136 0.00167882 0.00161664 0.00155459 0.00149242 
0.00142986 0.00136668 0.0013027 0.00123778 0.00117181 0.00110469 0.00103632 0.000966614 0.000895451 
0.000822686 0.000748137 0.000671589 0.000592832 0.000511869 0.000429488 0.000347783 0.000269418 0.000196642 
0.000131742 7.5451e-05 1.93039e-05 -4.09643e-05 -0.000104584 -0.000128929 -0.000122476 -0.000117879 -0.00011494 
-0.000113509 -0.000113455 -0.000114458 -0.000116285 -0.000118798 -0.000121797 -0.000125243 -0.000129088 -0.000133277 
-0.00013773 -0.000142343 -0.000146977 -0.00015143 -0.000155431 -0.000158636 -0.000160631 -0.000160994 -0.000159379 
-0.000155649 -0.000149766 -0.000141977 -0.000132575 -0.000121878 -0.000110189 -9.77835e-05 -8.49e-05 0.00167302 
0.00160661 0.00154117 0.0014768 0.0014135 0.00135114 0.00128939 0.00122785 0.00116617 0.00110397 
0.00104095 0.000976938 0.000911782 0.000845389 0.000777675 0.000708557 0.000637932 0.00056566 0.000491537 
0.000415267 0.000336367 0.000254039 0.000166973 7.46587e-05 -1.7045e-05 -0.000102301 -0.00017968 -0.000218613 
-0.000181259 -0.000157889 -0.000142639 -0.000131568 -0.00012335 -0.000117346 -0.000113179 -0.000110599 -0.000109409 
-0.000109429 -0.000110207 -0.000112007 -0.000114389 -0.000117221 -0.000120407 -0.000123864 -0.000127503 -0.000131225 
-0.00013491 -0.000138404 -0.00014152 -0.000144031 -0.000145675 -0.000146171 -0.000145258 -0.000142733 -0.000138541 
-0.000132627 -0.000125164 -0.000116354 -0.000106436 -9.565e-05 -8.42291e-05 -7.23856e-05 0.00134163 0.00127379 
0.00120741 0.0011427 0.00107969 0.00101815 0.000957612 0.000897342 0.000836775 0.000775392 0.000712881 
0.000649074 0.000583878 0.000517245 0.000449132 0.000379488 0.000308234 0.000235243 0.000160314 8.31333e-05 
3.14926e-06 -8.06917e-05 -0.000166782 -0.000197171 -0.000209365 -0.000209098 -0.000200563 -0.000185148 -0.000166039 
-0.000149088 -0.000136108 -0.000126328 -0.000119017 -0.0001137 -0.000110053 -0.00010784 -0.000106865 -0.000106819 
-0.000107644 -0.000109275 -0.000111424 -0.000113949 -0.000116734 -0.000119675 -0.000122664 -0.000125592 -0.000128337 
-0.000130752 -0.000132683 -0.000133946 -0.000134351 -0.000133708 -0.000131851 -0.000128661 -0.000124128 -0.000118195 
-0.000110999 -0.000102689 -9.34481e-05 -8.34686e-05 -7.29473e-05 -6.20688e-05 0.00100292 0.000933458 0.000866119 
0.000801333 0.000739281 0.000679669 0.000621587 0.000563695 0.000505006 0.000444905 0.000383159 0.000319721 
0.00025461 0.000187865 0.000119513 4.95621e-05 -2.20172e-05 -9.52906e-05 -0.000113565 -0.000120469 -0.000129581 
-0.000141105 -0.000154655 -0.000167431 -0.000174951 -0.000175923 -0.000171159 -0.000162015 -0.000150586 -0.000139274 
-0.000129527 -0.000121683 -0.000115635 -0.000111184 -0.000108138 -0.000106313 -0.000105546 -0.000105549 -0.000106285 
-0.000107717 -0.000109573 -0.000111717 -0.000114027 -0.000116389 -0.000118693 -0.000120831 -0.000122684 -0.000124131 
-0.000125039 -0.000125271 -0.000124689 -0.000123165 -0.000120596 -0.000116912 -0.000112133 -0.000106203 -9.9239e-05 
-9.13621e-05 -8.27153e-05 -7.34564e-05 -6.37512e-05 -5.37594e-05 0.000656039 0.000584519 0.000515979 0.000451251 
0.000391051 0.000335342 0.000282111 0.000228236 0.000172137 0.000113552 5.2608e-05 -1.04723e-05 -7.54944e-05 
-0.000103041 -0.000101376 -0.000101312 -0.000102808 -0.000105837 -0.000110393 -0.000116444 -0.000123873 -0.00013232 
-0.000140918 -0.000148189 -0.000152609 -0.000153419 -0.000150716 -0.000145227 -0.000138103 -0.000130596 -0.000123659 
-0.000117764 -0.000113062 -0.000109543 -0.000107126 -0.000105698 -0.000105133 -0.00010505 -0.000105809 -0.000107022 
-0.000108557 -0.000110287 -0.000112092 -0.000113864 -0.000115496 -0.000116887 -0.00011793 -0.000118524 -0.000118565 
-0.000117948 -0.000116577 -0.000114369 -0.000111258 -0.000107208 -0.000102238 -9.63599e-05 -8.9615e-05 -8.21268e-05 
-7.40119e-05 -6.54032e-05 -5.64402e-05 -4.72618e-05 0.000299909 0.000225561 0.000155081 8.97695e-05 3.17628e-05 
-1.54408e-05 -5.79028e-05 -0.000106303 -0.000138223 -0.000125558 -0.000115898 -0.000108707 -0.000103624 -0.000100394 
-9.88362e-05 -9.88134e-05 -0.000100212 -0.000102937 -0.000106874 -0.000111861 -0.000117632 -0.000123747 -0.000129553 
-0.00013426 -0.000137157 -0.000137854 -0.000136363 -0.000133062 -0.000128592 -0.000123661 -0.000118889 -0.000114668 
-0.000111207 -0.000108576 -0.000106767 -0.000105718 -0.000105217 -0.000105288 -0.000105937 -0.000106925 -0.000108131 
-0.000109444 -0.000110752 -0.000111955 -0.000112955 -0.000113662 -0.000113987 -0.000113846 -0.000113157 -0.000111846 
-0.000109847 -0.000107105 -0.000103586 -9.92737e-05 -9.42034e-05 -8.83871e-05 -8.18604e-05 -7.47346e-05 -6.71082e-05 
-5.90941e-05 -5.08122e-05 -4.23819e-05 -6.66687e-05 -0.000144887 -0.000218604 -0.000281363 -0.000249346 -0.000208477 
-0.000174246 -0.000151216 -0.000134496 -0.000121963 -0.000112564 -0.00010567 -0.000100868 -9.78661e-05 -9.64472e-05 
-9.64396e-05 -9.76871e-05 -0.000100046 -0.000103347 -0.00010738 -0.000111862 -0.000116423 -0.000120617 -0.000123983 