# vtk DataFile Version 4.0
vtk output
ASCII
DATASET STRUCTURED_POINTS
DIMENSIONS 42 42 42
SPACING 0.05 0.05 0.05
ORIGIN -1.025 -1.025 -1.025
POINT_DATA 74088
FIELD FieldData 1
potential 1 74088 double
0.00430901 0.00457599 0.00486441 0.00516647 0.0054678 0.0057484 0.00599035 0.00618589 0.00634217 
0.00647987 0.00662331 0.00678849 0.0069821 0.00720551 0.00745953 0.00774369 0.00805527 0.00839087 
0.00874667 0.00911989 0.00950931 0.00991615 0.010344 0.0107978 0.0112796 0.0117878 0.0123164 
0.012858 0.0134054 0.0139533 0.0145025 0.0150633 0.0156565 0.0163061 0.0170284 0.0178284 
0.018704 0.0196504 0.0206628 0.0217351 0.0228538 0.0239841 0.00522209 0.00551093 0.00581956 
0.00614257 0.00647072 0.00679182 0.0070934 0.00736792 0.00761706 0.00785114 0.00808535 0.00833337 
0.00860422 0.0089028 0.00923136 0.00959051 0.00997924 0.0103953 0.0108373 0.0113041 0.0117959 
0.0123143 0.0128617 0.0134397 0.0140484 0.0146848 0.0153443 0.0160217 0.0167129 0.0174161 
0.0181357 0.0188823 0.0196719 0.0205206 0.0214382 0.0224278 0.0234869 0.0246092 0.0257855 
0.0270014 0.0282314 0.029433 0.00613199 0.00644778 0.00678331 0.00713471 0.00749614 0.00785962 
0.00821651 0.00856095 0.00889201 0.00921469 0.0095378 0.00987211 0.0102263 0.0106066 0.0110169 
0.011459 0.0119334 0.0124401 0.0129786 0.0135492 0.0141525 0.0147899 0.0154625 0.0161704 
0.0169125 0.0176861 0.0184877 0.0193141 0.0201634 0.0210366 0.021939 0.0228802 0.0238716 
0.0249232 0.026041 0.0272256 0.0284731 0.0297748 0.0311171 0.0324795 0.0338316 0.0351324 
0.00703442 0.00738057 0.00774733 0.0081322 0.00853092 0.00893852 0.00934913 0.00975828 0.0101644 
0.0105693 0.0109788 0.0114004 0.0118418 0.0123093 0.0128077 0.0133402 0.0139086 0.0145141 
0.0151574 0.0158394 0.0165611 0.017323 0.0181259 0.0189694 0.0198519 0.0207714 0.0217256 
0.0227127 0.0237321 0.0247866 0.0258811 0.027023 0.0282203 0.0294786 0.030801 0.0321859 
0.0336272 0.0351138 0.0366291 0.0381492 0.0396441 0.0410775 0.00792357 0.00830262 0.00870365 
0.00912487 0.00956373 0.0100169 0.0104805 0.0109515 0.0114279 0.0119109 0.0124039 0.0129127 
0.0134432 0.0140019 0.0145935 0.0152223 0.0158912 0.0166019 0.0173562 0.0181552 0.019 
0.0198914 0.0208297 0.0218142 0.0228438 0.0239173 0.0250332 0.0261907 0.0273905 0.0286351 
0.0299289 0.031277 0.0326843 0.0341539 0.035686 0.0372769 0.0389189 0.0405987 0.042298 
0.043993 0.0456554 0.0472551 0.00879334 0.00920684 0.00964386 0.0101035 0.0105842 0.011084 
0.0116003 0.0121309 0.0126748 0.0132324 0.0138065 0.0144012 0.0150218 0.0156735 0.0163621 
0.0170914 0.017865 0.0186855 0.0195549 0.020475 0.0214472 0.022472 0.0235499 0.0246808 
0.0258637 0.0270983 0.0283838 0.02972 0.031108 0.03255 0.0340491 0.0356087 0.0372311 
0.0389173 0.0406655 0.0424699 0.0443211 0.046205 0.0481031 0.0499925 0.0518479 0.0536445 
0.00963698 0.0100858 0.0105599 0.0110591 0.0115826 0.0121294 0.0126978 0.0132868 0.0138959 
0.0145257 0.0151784 0.0158576 0.0165676 0.0173135 0.0181003 0.0189322 0.0198131 0.0207461 
0.0217336 0.0227779 0.0238801 0.0250416 0.0262631 0.0275445 0.0288863 0.030288 0.0317495 
0.0332711 0.0348538 0.0364992 0.0382093 0.0399857 0.0418294 0.0437389 0.0457104 0.047737 
0.0498084 0.0519102 0.0540237 0.0561282 0.058201 0.0602216 0.0104481 0.0109326 0.0114442 
0.0119834 0.01255 0.0131436 0.0137636 0.0144098 0.0150822 0.0157819 0.016511 0.0172725 
0.0180707 0.01891 0.0197951 0.0207302 0.0217195 0.0227662 0.0238735 0.0250433 0.0262779 
0.0275785 0.0289465 0.0303825 0.0318874 0.0334609 0.0351036 0.0368159 0.0385987 0.0404531 
0.0423799 0.0443793 0.0464505 0.0485905 0.0507944 0.0530542 0.0553587 0.0576932 0.0600403 
0.0623805 0.0646941 0.0669626 0.0112213 0.0117409 0.01229 0.012869 0.0134784 0.0141182 
0.014789 0.0154911 0.016225 0.0169925 0.0177954 0.0186371 0.0195214 0.0204524 0.0214346 
0.0224722 0.0235697 0.0247303 0.0259574 0.0272538 0.0286217 0.0300634 0.0315802 0.0331737 
0.0348446 0.0365938 0.0384218 0.0403294 0.0423173 0.0443858 0.0465347 0.0487632 0.0510694 
0.0534488 0.0558955 0.0584005 0.0609522 0.0635361 0.0661357 0.0687326 0.0713089 0.0738475 
0.0119514 0.0125057 0.0130914 0.0137095 0.0143608 0.0150462 0.0157666 0.0165229 0.0173167 
0.0181494 0.0190238 0.0199431 0.0209108 0.0219311 0.0230083 0.0241469 0.0253511 0.0266246 
0.0279711 0.0293939 0.0308959 0.0324791 0.0341462 0.0358989 0.0377384 0.0396663 0.0416833 
0.0437902 0.0459875 0.0482749 0.0506518 0.0531166 0.0556658 0.0582944 0.0609954 0.0637593 
0.0665738 0.069425 0.0722964 0.075171 0.0780312 0.0808607 0.0126346 0.0132224 0.0138436 
0.0144995 0.0151917 0.0159213 0.0166899 0.0174988 0.01835 0.0192456 0.0201889 0.0211827 
0.0222308 0.0233375 0.0245071 0.0257442 0.0270531 0.0284378 0.0299025 0.031451 0.0330862 
0.0348114 0.0366294 0.0385423 0.0405524 0.0426613 0.0448701 0.0471798 0.0495908 0.0521024 
0.0547137 0.057422 0.0602234 0.063112 0.0660801 0.0691174 0.0722119 0.0753489 0.0785126 
0.0816859 0.0848516 0.0879931 0.0132678 0.0138873 0.0145426 0.015235 0.0159665 0.0167387 
0.0175535 0.0184128 0.019319 0.0202752 0.021284 0.0223491 0.0234745 0.0246642 0.0259231 
0.0272557 0.0286664 0.0301602 0.0317412 0.0334136 0.0351811 0.0370474 0.0390163 0.0410903 
0.043272 0.0455638 0.0479669 0.0504828 0.0531116 0.0558528 0.0587052 0.0616654 0.064729 
0.0678897 0.0711389 0.0744658 0.0778579 0.0813006 0.0847775 0.0882715 0.0917649 0.09524 
0.013848 0.0144977 0.0151851 0.0159122 0.0166811 0.0174939 0.0183526 0.01926 0.0202189 
0.0212322 0.0223035 0.0234365 0.0246355 0.0259046 0.0272491 0.0286737 0.0301834 0.0317831 
0.0334779 0.0352719 0.0371698 0.0391765 0.0412956 0.0435304 0.0458845 0.0483603 0.0509602 
0.0536854 0.0565365 0.0595133 0.0626139 0.0658351 0.0691719 0.0726174 0.0761625 0.0797963 
0.0835054 0.0872747 0.0910874 0.0949253 0.0987698 0.102602 0.0143732 0.015051 0.0157686 
0.0165283 0.0173324 0.0181833 0.0190835 0.0200363 0.0210446 0.022112 0.0232422 0.0244394 
0.0257077 0.0270526 0.0284787 0.0299916 0.0315964 0.0332987 0.0351037 0.0370167 0.0390431 
0.0411881 0.0434561 0.0458513 0.0483777 0.0510388 0.0538373 0.0567749 0.0598531 0.0630714 
0.066428 0.0699197 0.0735414 0.0772857 0.0811432 0.0851023 0.0891493 0.0932676 0.0974401 
0.101647 0.105869 0.110084 0.0148414 0.0155452 0.0162908 0.0170805 0.0179174 0.0188038 
0.0197427 0.0207376 0.0217921 0.02291 0.0240952 0.0253524 0.0266864 0.0281024 0.0296059 
0.0312026 0.0328985 0.0346992 0.036611 0.0386396 0.0407915 0.0430723 0.0454872 0.0480414 
0.0507401 0.0535869 0.0565856 0.0597391 0.0630487 0.0665145 0.0701353 0.0739081 0.0778272 
0.0818853 0.0860729 0.0903775 0.0947845 0.0992767 0.103835 0.108439 0.113066 0.117692 
0.0152511 0.0159784 0.0167494 0.0175668 0.0184334 0.0193522 0.0203267 0.0213606 0.0224575 
0.023622 0.0248582 0.0261709 0.027566 0.0290485 0.0306248 0.0323006 0.0340826 0.0359774 
0.0379914 0.0401319 0.0424056 0.0448188 0.0473781 0.0500897 0.0529592 0.0559921 0.0591926 
0.0625643 0.0661098 0.0698296 0.0737231 0.0777874 0.0820177 0.086406 0.0909424 0.0956142 
0.100406 0.105298 0.110271 0.115302 0.120365 0.125436 0.0156008 0.016349 0.0171428 
0.0179847 0.0188781 0.0198262 0.0208327 0.0219017 0.0230375 0.0242441 0.0255267 0.0268906 
0.0283416 0.0298858 0.0315293 0.0332791 0.0351421 0.0371257 0.0392373 0.0414849 0.0438757 
0.0464175 0.0491178 0.051984 0.0550229 0.0582411 0.0616439 0.0652364 0.0690217 0.0730018 
0.0771767 0.081544 0.0860992 0.0908351 0.095741 0.100803 0.106005 0.111327 0.116747 
0.122238 0.127774 0.133325 0.0158891 0.0166556 0.0174689 0.0183324 0.0192493 0.0202231 
0.021258 0.0223582 0.0235282 0.0247725 0.0260968 0.0275067 0.0290085 0.0306085 0.0323138 
0.0341316 0.0360699 0.0381364 0.0403399 0.0426888 0.0451917 0.0478571 0.0506943 0.0537115 
0.0569172 0.060319 0.0639243 0.067739 0.0717678 0.0760142 0.0804789 0.0851611 0.090056 
0.0951569 0.100454 0.105932 0.111574 0.117358 0.12326 0.12925 0.135298 0.14137 
0.0161148 0.0168964 0.0177264 0.0186079 0.0195447 0.0205406 0.0216 0.0227272 0.0239265 
0.0252038 0.0265646 0.028015 0.0295617 0.0312115 0.0329723 0.034852 0.0368589 0.039002 
0.0412908 0.0437345 0.0463429 0.0491264 0.0520948 0.0552584 0.0586271 0.0622102 0.0660164 
0.0700541 0.0743294 0.0788474 0.0836101 0.0886177 0.0938677 0.0993533 0.105065 0.110986 
0.1171 0.123382 0.129805 0.136336 0.142941 0.149582 0.0162766 0.0170701 0.0179134 
0.0188097 0.0197626 0.0207765 0.0218559 0.0230054 0.0242295 0.0255345 0.0269261 0.0284111 
0.0299965 0.0316897 0.0334993 0.0354335 0.0375017 0.039714 0.0420805 0.0446115 0.0473184 
0.0502125 0.0533058 0.0566097 0.0601359 0.0638963 0.0679013 0.0721613 0.0766847 0.0814778 
0.086546 0.0918911 0.0975116 0.103402 0.109552 0.115947 0.122567 0.129385 0.136373 
0.143494 0.150707 0.157969 0.0163732 0.0171757 0.0180286 0.0189358 0.0199011 0.0209289 
0.0220238 0.0231903 0.0244341 0.0257611 0.0271776 0.0286909 0.0303081 0.0320378 0.0338884 
0.0358695 0.0379914 0.0402643 0.0426996 0.0453094 0.0481061 0.0511026 0.0543123 0.0577489 
0.0614261 0.0653579 0.0695575 0.0740372 0.0788079 0.08388 0.0892605 0.0949533 0.100959 
0.107274 0.113888 0.120788 0.127951 0.135351 0.142953 0.150716 0.158596 0.166541 
0.0164036 0.0172115 0.0180706 0.0189849 0.0199583 0.0209957 0.0221011 0.0232798 0.0245377 
0.0258806 0.0273157 0.0288504 0.0304923 0.0322506 0.0341342 0.0361538 0.0383198 0.0406439 
0.0431387 0.0458175 0.0486938 0.0517827 0.0550989 0.058659 0.0624785 0.0665738 0.0709608 
0.0756555 0.0806724 0.0860242 0.0917209 0.0977703 0.104175 0.110935 0.11804 0.125478 
0.133226 0.141254 0.149525 0.157993 0.166605 0.175302 0.0163668 0.0171764 0.0180382 
0.0189555 0.0199329 0.020975 0.022086 0.0232715 0.0245374 0.0258902 0.0273371 0.0288857 
0.0305447 0.0323229 0.034231 0.0362792 0.0384796 0.0408446 0.0433881 0.0461243 0.049069 
0.0522383 0.0556496 0.0593211 0.0632714 0.0675197 0.0720856 0.0769885 0.082246 0.0878752 
0.0938906 0.100303 0.107121 0.114344 0.121967 0.129978 0.138355 0.147064 0.156064 
0.165305 0.174724 0.184255 0.0162618 0.0170698 0.0179301 0.0188466 0.0198236 0.0208652 
0.0219766 0.0231633 0.0244311 0.025787 0.0272385 0.0287935 0.030461 0.0322506 0.034173 
0.0362399 0.0384635 0.040858 0.0434378 0.0462191 0.0492186 0.0524546 0.0559473 0.059716 
0.0637832 0.0681715 0.0729042 0.0780038 0.0834934 0.0893948 0.0957272 0.102507 0.109747 
0.117451 0.12562 0.13424 0.14329 0.152738 0.162536 0.172626 0.182939 0.193394 
0.0160879 0.0168906 0.0177456 0.018657 0.0196287 0.020665 0.0217716 0.0229534 0.0242168 
0.025569 0.0270174 0.0285706 0.0302375 0.0320287 0.0339554 0.0360295 0.0382647 0.0406759 
0.0432788 0.0460905 0.0491298 0.0524173 0.0559739 0.0598235 0.0639912 0.0685027 0.0733855 
0.0786672 0.0843761 0.0905396 0.0971833 0.10433 0.111998 0.120199 0.128936 0.138202 
0.147975 0.158223 0.168893 0.17992 0.191222 0.202707 0.0158442 0.0166381 0.0174839 
0.0183857 0.0193474 0.0203738 0.0214697 0.0226406 0.023893 0.0252343 0.0266717 0.0282143 
0.0298713 0.0316538 0.0335732 0.035643 0.0378769 0.0402908 0.0429017 0.0457282 0.0487907 
0.0521108 0.0557133 0.0596244 0.0638719 0.0684859 0.0734982 0.0789423 0.0848525 0.0912626 
0.0982056 0.105713 0.11381 0.122517 0.131844 0.141789 0.152336 0.163448 0.175072 
0.187133 0.199537 0.212173 0.0155308 0.0163118 0.0171446 0.0180323 0.0189794 0.0199904 
0.0210701 0.0222239 0.0234587 0.0247813 0.0261996 0.0277222 0.0293593 0.0311224 0.0330233 
0.0350754 0.0372942 0.0396962 0.0422989 0.0451228 0.048189 0.0515225 0.0551494 0.0590986 
0.0634018 0.0680935 0.0732104 0.0787916 0.0848784 0.091512 0.0987353 0.106589 0.115108 
0.124325 0.134258 0.144914 0.156282 0.168327 0.180993 0.194195 0.207826 0.221752 
0.0151472 0.0159117 0.0167271 0.0175966 0.0185244 0.0195149 0.0205726 0.0217033 0.0229133 
0.0242096 0.0256 0.0270935 0.0287004 0.0304326 0.0323021 0.0343235 0.0365124 0.0388861 
0.0414636 0.0442655 0.0473155 0.0506401 0.0542667 0.0582282 0.0625595 0.0672994 0.07249 
0.0781767 0.0844076 0.0912346 0.0987101 0.106886 0.115812 0.125531 0.136077 0.147467 
0.1597 0.172746 0.186548 0.20101 0.216009 0.231386 0.0146933 0.015438 0.0162317 
0.0170787 0.0179825 0.0189475 0.0199777 0.021079 0.0222572 0.0235192 0.0248729 0.0263276 
0.0278937 0.029583 0.0314085 0.0333848 0.0355285 0.0378573 0.0403907 0.0431508 0.0461624 
0.0494531 0.053053 0.0569977 0.0613254 0.0660792 0.0713067 0.0770597 0.0833958 0.0903762 
0.0980649 0.106528 0.11583 0.126032 0.137183 0.14932 0.162455 0.176567 0.191599 
0.207451 0.223975 0.240984 0.0141702 0.0148908 0.0156593 0.0164797 0.0173552 0.0182892 
0.0192867 0.0203522 0.0214916 0.0227113 0.0240194 0.0254253 0.0269395 0.0285735 0.030342 
0.0322588 0.0343414 0.0366077 0.0390776 0.041775 0.0447246 0.047955 0.0514995 0.055395 
0.0596835 0.0644122 0.0696337 0.0754081 0.0818009 0.088884 0.0967352 0.105435 0.115067 
0.125713 0.137447 0.150326 0.164383 0.179616 0.195972 0.213345 0.231568 0.250417 
0.0135785 0.0142716 0.0150114 0.015801 0.0166436 0.0175423 0.0185013 0.019525 0.0206186 
0.0217883 0.023042 0.0243889 0.0258399 0.0274071 0.0291046 0.0309473 0.0329527 0.0351385 
0.0375259 0.0401383 0.0430012 0.0461442 0.049602 0.0534138 0.0576239 0.0622837 0.0674523 
0.0731948 0.0795869 0.0867113 0.0946586 0.103528 0.113425 0.124456 0.136723 0.150314 
0.165294 0.181682 0.199445 0.218474 0.23858 0.259499 0.01292 0.0135823 0.0142899 
0.015045 0.0158507 0.0167098 0.0176253 0.0186012 0.0196421 0.0207539 0.0219444 0.0232224 
0.0245992 0.0260873 0.0277005 0.0294549 0.0313667 0.0334548 0.0357401 0.0382452 0.0409968 
0.044024 0.0473632 0.0510541 0.0551445 0.0596891 0.0647506 0.0704023 0.0767273 0.0838192 
0.0917836 0.100739 0.110813 0.122141 0.134861 0.149102 0.164967 0.182517 0.201744 
0.22255 0.24473 0.26797 0.0121977 0.0128262 0.0134982 0.0142157 0.0149808 0.0157959 
0.0166632 0.0175857 0.0185673 0.0196136 0.0207321 0.0219315 0.0232236 0.0246206 0.0261371 
0.0277888 0.029592 0.0315654 0.0337297 0.0361064 0.0387216 0.0416051 0.044793 0.0483262 
0.0522536 0.0566325 0.0615306 0.0670265 0.0732098 0.0801856 0.0880738 0.0970109 0.10715 
0.118658 0.131714 0.146495 0.163162 0.18183 0.20254 0.225218 0.24965 0.275473 
0.0114153 0.0120076 0.0126411 0.0133178 0.0140393 0.0148068 0.0156213 0.0164851 0.0174011 
0.0183747 0.0194124 0.0205241 0.0217212 0.0230164 0.0244243 0.0259605 0.0276412 0.0294846 
0.0315095 0.0337375 0.0361936 0.0389065 0.0419117 0.0452503 0.0489711 0.0531342 0.0578094 
0.0630792 0.0690415 0.0758089 0.0835146 0.0923125 0.10238 0.113918 0.127149 0.142309 
0.159629 0.179304 0.201446 0.226034 0.252864 0.281528 0.0105783 0.0111319 0.0117247 
0.0123583 0.0130335 0.01375 0.0145079 0.015308 0.0161524 0.0170458 0.0179948 0.0190099 
0.0201026 0.0212866 0.0225757 0.0239856 0.0255315 0.0272306 0.0291006 0.031162 0.0334374 
0.0359554 0.0387492 0.0418581 0.0453314 0.0492284 0.0536207 0.0585945 0.0642516 0.0707123 
0.0781197 0.086643 0.096481 0.107867 0.121068 0.136385 0.154131 0.174606 0.198031 
0.224476 0.253784 0.285515 0.00969322 0.0102063 0.0107567 0.0113455 0.0119722 0.0126352 
0.013333 0.0140646 0.0148313 0.0156372 0.01649 0.0174006 0.0183811 0.019446 0.0206082 
0.021883 0.0232841 0.0248274 0.0265292 0.0284081 0.0304855 0.0327875 0.0353444 0.0381935 
0.0413813 0.0449656 0.0490183 0.0536261 0.0588939 0.0649466 0.0719354 0.08004 0.0894763 
0.100504 0.113429 0.128615 0.146471 0.167423 0.191846 0.219959 0.251703 0.286653 
0.00876784 0.00923914 0.00974623 0.0102892 0.0108663 0.0114739 0.0121084 0.0127666 0.0134487 
0.0141599 0.0149086 0.0157078 0.0165704 0.017511 0.0185415 0.0196751 0.0209241 0.0223027 
0.0238253 0.0255092 0.0273743 0.0294436 0.031744 0.0343087 0.03718 0.0404116 0.0440728 
0.048249 0.0530457 0.0585919 0.0650425 0.0725838 0.0814416 0.0918887 0.104263 0.118979 
0.136538 0.157513 0.182476 0.211872 0.245831 0.284012 0.00781061 0.00823962 0.00870313 
0.00920044 0.00972799 0.0102791 0.010847 0.0114261 0.0120164 0.0126243 0.0132616 0.0139437 
0.0146851 0.0154992 0.0163965 0.0173862 0.018479 0.0196862 0.0210214 0.0225007 0.0241426 
0.0259671 0.0279978 0.0302616 0.0327939 0.0356423 0.0388685 0.0425549 0.0468065 0.0517542 
0.057555 0.0643971 0.0725059 0.0821575 0.0936975 0.10757 0.12435 0.144756 0.169603 
0.199644 0.23533 0.276534 0.00682961 0.00721714 0.00763815 0.00809138 0.00857067 0.00906505 
0.00956288 0.0100559 0.0105447 0.0110395 0.0115578 0.0121191 0.0127391 0.0134285 0.0141941 
0.0150412 0.0159765 0.0170086 0.01815 0.019417 0.0208278 0.0224008 0.0241543 0.0261088 
0.0282909 0.030736 0.033497 0.0366486 0.0402927 0.0445626 0.0496173 0.055644 0.0628604 
0.0715255 0.0819668 0.0946213 0.110097 0.129232 0.153097 0.182848 0.219412 0.263086 
0.00583237 0.00618042 0.0065618 0.00697475 0.00740927 0.00784729 0.00827036 0.00866729 0.0090417 
0.00941157 0.00980403 0.0102437 0.0107455 0.0113158 0.0119555 0.0126645 0.0134445 0.0143001 
0.0152431 0.0162912 0.0174646 0.0187817 0.0202566 0.0219021 0.0237316 0.0257687 0.0280506 
0.0306394 0.0336328 0.037167 0.0414067 0.0465375 0.0527572 0.0602895 0.0694105 0.0805056 
0.0941554 0.111258 0.133111 0.161319 0.197453 0.24253 0.00482381 0.0051368 0.00548447 
0.00586471 0.00626076 0.00664313 0.00698365 0.00726957 0.00751164 0.00774288 0.00800447 0.008326 
0.00871724 0.00917735 0.00969992 0.0102787 0.0109087 0.0115893 0.0123305 0.0131531 0.0140833 
0.0151425 0.0163413 0.0176823 0.0191672 0.0208029 0.022608 0.0246294 0.0269567 0.0297331 
0.0331354 0.0373401 0.0425117 0.0488164 0.0564555 0.0657151 0.0770745 0.0913906 0.110116 
0.135282 0.169164 0.213827 0.00380427 0.00408998 0.00441553 0.00477769 0.00514611 0.0054712 
0.00571524 0.00586762 0.00595298 0.0060315 0.00616337 0.00637617 0.00666855 0.00702959 0.00744567 
0.0079038 0.00839191 0.00890185 0.00943995 0.0100306 0.0107114 0.0115109 0.0124356 0.0134799 
0.0146319 0.0158793 0.0172221 0.0186873 0.0203646 0.0224184 0.0250314 0.0283485 0.0324801 
0.0375233 0.0435872 0.0508277 0.0595347 0.0703822 0.0848689 0.105405 0.134792 0.17619 
0.0033357 0.00358129 0.00385446 0.00415228 0.00446165 0.00475291 0.00499074 0.00515321 0.00524227 
0.00528718 0.00533163 0.00540498 0.00551412 0.00565823 0.00583709 0.00604876 0.00628744 0.00654701 
0.00682099 0.00710539 0.00739929 0.00770676 0.00803714 0.00839966 0.00879634 0.00922102 0.00966284 
0.0101089 0.0105467 0.0109659 0.0113642 0.0117583 0.0121891 0.0127004 0.0133133 0.0140279 
0.0148377 0.0157365 0.0167231 0.0178009 0.0189674 0.0201817 0.00427849 0.00454537 0.00483613 
0.00514736 0.00547043 0.00578858 0.00607988 0.00632693 0.00652599 0.00668947 0.00684122 0.00700419 
0.00719219 0.00741083 0.00766202 0.00794527 0.00825736 0.00859435 0.00895357 0.00933381 0.00973669 
0.010166 0.0106265 0.0111208 0.0116473 0.0122003 0.0127714 0.0133517 0.0139335 0.0145131 
0.0150966 0.0157029 0.0163609 0.0170956 0.0179203 0.0188367 0.0198411 0.0209271 0.0220877 
0.0233107 0.0245672 0.0257933 0.00521898 0.005512 0.00582769 0.00616298 0.00651193 0.00686426 
0.00720595 0.00752473 0.00781497 0.00808085 0.00833486 0.00859327 0.00886939 0.00917169 0.00950512 
0.00987093 0.0102685 0.0106972 0.0111561 0.0116459 0.0121681 0.0127251 0.0133186 0.0139483 
0.0146117 0.0153035 0.0160179 0.0167494 0.017494 0.0182533 0.0190362 0.0198588 0.0207407 
0.0216972 0.0227361 0.0238587 0.0250607 0.0263335 0.0276627 0.0290241 0.0303763 0.0316566 
0.0061528 0.00647583 0.00682146 0.00718744 0.0075695 0.00796099 0.008353 0.00873687 0.00910719 
0.00946424 0.00981479 0.0101694 0.0105392 0.0109334 0.0113581 0.0118168 0.0123114 0.012843 
0.013412 0.0140197 0.0146674 0.0153561 0.0160861 0.0168564 0.017664 0.0185052 0.019376 
0.0202732 0.0211961 0.0221482 0.0231388 0.0241801 0.0252849 0.0264626 0.027718 0.02905 
0.0304527 0.031914 0.0334139 0.0349217 0.0363945 0.0377797 0.00707406 0.0074299 0.007809 
0.00820976 0.00862939 0.00906353 0.00950637 0.00995188 0.0103954 0.0108363 0.0112782 0.011728 
0.0121944 0.0126858 0.013209 0.013769 0.0143691 0.0150114 0.0156974 0.0164287 0.0172062 
0.0180303 0.0189013 0.0198176 0.0207772 0.0217774 0.0228158 0.0238907 0.0250034 0.0261581 
0.0273622 0.0286246 0.0299533 0.0313541 0.0328287 0.0343742 0.0359818 0.037637 0.0393164 
0.0409889 0.0426147 0.0441519 0.00797555 0.00836603 0.0087808 0.00921912 0.00967913 0.0101581 
0.0106522 0.0111572 0.0116701 0.0121898 0.0127186 0.0132614 0.013825 0.0144165 0.0150429 
0.0157096 0.0164204 0.0171787 0.0179862 0.0188447 0.0197556 0.020719 0.0217351 0.0228031 
0.0239214 0.0250888 0.0263039 0.0275661 0.0288774 0.0302415 0.0316639 0.0331505 0.0347061 
0.0363335 0.038032 0.0397961 0.0416157 0.0434743 0.0453483 0.0472077 0.0490186 0.0507486 
0.0088492 0.00927535 0.0097274 0.0102049 0.010707 0.0112319 0.0117773 0.0123407 0.0129201 
0.0135151 0.0141272 0.0147604 0.0154199 0.0161123 0.0168437 0.0176194 0.018444 0.0193207 
0.0202524 0.0212409 0.0222876 0.0233933 0.0245586 0.0257829 0.027066 0.0284072 0.0298059 
0.0312626 0.0327788 0.0343576 0.0360027 0.0377173 0.0395044 0.0413635 0.043292 0.0452827 
0.0473243 0.0493997 0.0514861 0.0535567 0.0555828 0.0575387 0.00968754 0.0101499 0.0106397 
0.0111572 0.0117021 0.0122733 0.01287 0.0134907 0.0141346 0.0148018 0.0154941 0.0162145 
0.0169681 0.0177599 0.0185959 0.0194809 0.0204198 0.0214162 0.0224732 0.0235929 0.0247773 
0.0260276 0.0273448 0.0287293 0.0301819 0.0317017 0.0332894 0.0349454 0.0366715 0.0384694 
0.0403414 0.0422891 0.0443125 0.04641 0.0485767 0.0508046 0.0530808 0.0553889 0.0577077 
0.0600133 0.0622816 0.0644911 0.0104843 0.0109826 0.0115102 0.0120676 0.0126551 0.0132727 
0.01392 0.0145969 0.0153033 0.0160403 0.0168094 0.0176141 0.0184584 0.0193474 0.0202859 
0.021279 0.0223314 0.023447 0.024629 0.0258803 0.0272032 0.0285996 0.0300709 0.0316187 
0.0332432 0.0349453 0.0367257 0.0385852 0.0405251 0.0425463 0.0446497 0.0468353 0.0491018 
0.0514456 0.0538605 0.0563374 0.0588633 0.0614221 0.0639942 0.0665583 0.0690932 0.0715801 
0.0112343 0.0117677 0.0123324 0.0129291 0.0135588 0.0142219 0.014919 0.0156506 0.0164178 
0.0172217 0.0180648 0.0189503 0.0198821 0.0208646 0.0219028 0.0230015 0.0241655 0.0253986 
0.0267047 0.0280868 0.0295483 0.0310912 0.0327179 0.03443 0.0362289 0.0381158 0.0400921 
0.0421582 0.0443154 0.0465637 0.0489033 0.051333 0.0538499 0.0564493 0.0591239 0.061864 
0.0646561 0.0674847 0.0703315 0.0731769 0.0760015 0.0787876 0.0119336 0.012501 0.0131015 
0.0137365 0.0144072 0.0151147 0.0158603 0.016645 0.0174705 0.0183387 0.0192527 0.0202154 
0.0212307 0.0223032 0.0234376 0.0246388 0.0259114 0.0272597 0.0286879 0.0301999 0.0317989 
0.033488 0.0352702 0.0371474 0.0391221 0.0411959 0.0433701 0.0456457 0.0480235 0.0505034 
0.0530847 0.0557652 0.0585411 0.0614067 0.0643541 0.0673724 0.0704488 0.0735674 0.0767107 
0.0798602 0.082997 0.0861037 0.0125793 0.0131789 0.0138138 0.0144856 0.0151958 0.0159462 
0.0167383 0.017574 0.0184553 0.0193853 0.0203666 0.0214026 0.0224976 0.023656 0.0248828 
0.0261827 0.0275605 0.0290212 0.0305692 0.0322087 0.0339438 0.035778 0.0377151 0.0397579 
0.0419089 0.0441708 0.0465449 0.0490328 0.0516349 0.054351 0.0571802 0.0601193 0.063164 
0.066308 0.0695421 0.0728556 0.076235 0.0796646 0.0831271 0.0866036 0.0900758 0.093525 
0.013169 0.0137991 0.0144665 0.0151732 0.0159211 0.0167123 0.0175487 0.0184328 0.0193676 
0.0203557 0.0214006 0.0225063 0.0236768 0.024917 0.0262319 0.0276263 0.0291059 0.0306754 
0.03234 0.0341044 0.035973 0.0379511 0.0400421 0.0422498 0.0445776 0.0470282 0.0496042 
0.0523069 0.0551373 0.0580952 0.061179 0.0643855 0.0677098 0.0711451 0.0746817 0.0783085 
0.0820111 0.0857739 0.0895789 0.0934071 0.0972389 0.101054 0.013701 0.0143595 0.0150574 
0.0157968 0.0165801 0.0174096 0.0182877 0.0192178 0.0202025 0.0212455 0.0223504 0.0235214 
0.0247631 0.0260807 0.027479 0.0289639 0.0305407 0.0322152 0.0339928 0.0358785 0.0378786 
0.039998 0.0422411 0.0446128 0.0471169 0.0497572 0.0525367 0.0554569 0.0585198 0.0617252 
0.0650711 0.0685547 0.0721706 0.0759115 0.0797676 0.0837268 0.0877747 0.0918946 0.0960674 
0.100273 0.104491 0.1087 0.0141738 0.0148585 0.0155844 0.0163541 0.0171701 0.0180353 
0.0189525 0.0199249 0.0209563 0.0220503 0.0232111 0.0244432 0.0257515 0.0271416 0.0286189 
0.0301892 0.0318589 0.0336336 0.0355199 0.0375237 0.0396517 0.0419095 0.0443025 0.0468366 
0.0495165 0.0523465 0.0553305 0.0584717 0.0617713 0.0652299 0.0688463 0.0726175 0.076538 
0.0806002 0.0847942 0.0891071 0.0935236 0.0980259 0.102594 0.107207 0.111841 0.116471 
0.0145862 0.0152944 0.0160458 0.0168431 0.0176891 0.0185867 0.0195396 0.0205512 0.0216253 
0.0227664 0.0239787 0.0252669 0.0266373 0.0280948 0.0296459 0.0312967 0.0330538 0.0349242 
0.0369144 0.0390319 0.0412837 0.0436762 0.0462164 0.0489106 0.0517648 0.0547846 0.0579745 
0.0613386 0.0648794 0.0685979 0.0724935 0.0765633 0.0808022 0.0852026 0.0897543 0.0944437 
0.0992547 0.104168 0.109162 0.114213 0.119295 0.124381 0.0149369 0.015666 0.0164401 
0.0172619 0.0181347 0.0190617 0.0200465 0.0210933 0.0222064 0.02339 0.0246488 0.0259889 
0.0274156 0.0289354 0.0305545 0.0322802 0.0341193 0.0360796 0.0381688 0.0403948 0.0427653 
0.0452885 0.0479719 0.0508234 0.0538501 0.0570584 0.0604549 0.0640444 0.0678304 0.071815 
0.0759986 0.0803788 0.0849511 0.0897081 0.0946391 0.0997295 0.104962 0.110317 0.115771 
0.121296 0.126864 0.132445 0.0152247 0.015972 0.0167655 0.0176088 0.018505 0.0194576 
0.0204707 0.0215488 0.0226962 0.0239172 0.0252181 0.0266042 0.028082 0.029658 0.0313394 
0.0331335 0.0350486 0.0370927 0.0392746 0.0416031 0.044087 0.0467355 0.0495577 0.0525626 
0.0557586 0.0591542 0.062757 0.0665731 0.0706079 0.074865 0.0793454 0.0840486 0.0889698 
0.094102 0.0994349 0.104954 0.11064 0.116471 0.122422 0.128461 0.134558 0.140676 
0.0154485 0.0162107 0.0170207 0.0178819 0.0187978 0.0197723 0.0208097 0.0219145 0.0230911 
0.0243451 0.0256823 0.0271089 0.0286317 0.0302576 0.0319946 0.0338508 0.0358348 0.0379559 
0.0402237 0.0426476 0.0452382 0.0480058 0.0509609 0.0541141 0.0574756 0.0610555 0.0648629 
0.0689066 0.0731933 0.0777285 0.0825145 0.0875518 0.092838 0.0983667 0.104127 0.110103 
0.116277 0.122623 0.129112 0.135712 0.142384 0.14909 0.0156072 0.0163811 0.0172043 
0.0180798 0.0190116 0.0200038 0.0210611 0.0221877 0.0233887 0.0246702 0.0260379 0.0274988 
0.0290599 0.030729 0.0325146 0.0344252 0.0364708 0.0386608 0.0410063 0.043518 0.0462076 
0.0490867 0.0521678 0.055463 0.0589841 0.0627441 0.066754 0.0710245 0.0755646 0.0803815 
0.0854812 0.0908656 0.0965336 0.10248 0.108693 0.11516 0.121858 0.128761 0.135836 
0.143047 0.150351 0.157702 0.0156995 0.016482 0.0173145 0.0182007 0.0191444 0.0201502 
0.0212224 0.0223657 0.023586 0.0248889 0.026281 0.0277696 0.0293621 0.031067 0.0328931 
0.0348502 0.0369486 0.039199 0.0416133 0.0442037 0.0469831 0.049965 0.0531635 0.0565922 
0.0602663 0.0642002 0.0684078 0.0729021 0.0776952 0.0827982 0.0882186 0.0939611 0.100027 
0.106412 0.113107 0.120098 0.127361 0.134868 0.142584 0.150465 0.158463 0.166524 
0.0157245 0.0165121 0.0173503 0.0182431 0.0191945 0.0202091 0.0212915 0.0224463 0.02368 
0.0249981 0.0264081 0.0279173 0.0295337 0.0312663 0.0331245 0.0351192 0.0372609 0.0395618 
0.0420348 0.0446935 0.0475522 0.0506262 0.0539312 0.057484 0.0613017 0.0654011 0.0697988 
0.0745125 0.0795573 0.0849468 0.0906925 0.096803 0.103282 0.110128 0.117335 0.124886 
0.132759 0.140924 0.149339 0.157957 0.166721 0.17557 0.015681 0.0164699 0.0173103 
0.0182057 0.0191604 0.0201791 0.0212663 0.0224273 0.023668 0.0249951 0.0264159 0.027938 
0.0295702 0.0313216 0.033203 0.0352249 0.0373995 0.0397402 0.0422605 0.0449755 0.0479014 
0.0510551 0.0544546 0.0581191 0.062068 0.0663215 0.0709007 0.0758259 0.0811164 0.0867906 
0.0928643 0.0993504 0.106257 0.113586 0.121332 0.129484 0.138016 0.146896 0.156078 
0.165509 0.175123 0.184847 0.0155681 0.0163548 0.0171932 0.018087 0.0190407 0.0200583 
0.0211449 0.0223061 0.0235477 0.0248769 0.0263011 0.027828 0.0294673 0.0312282 0.0331224 
0.0351611 0.0373572 0.0397253 0.0422801 0.0450382 0.0480172 0.051236 0.0547154 0.0584761 
0.0625415 0.0669357 0.0716829 0.0768078 0.082335 0.0882881 0.0946885 0.101555 0.1089 
0.116732 0.125049 0.13384 0.143083 0.152742 0.162769 0.173099 0.183659 0.194361 
0.0153849 0.0161657 0.0169981 0.0178859 0.0188337 0.0198451 0.020926 0.0220812 0.0233173 
0.0246412 0.0260606 0.0275841 0.0292208 0.0309815 0.0328774 0.0349212 0.0371264 0.0395083 
0.0420836 0.0448695 0.0478856 0.0511533 0.0546943 0.0585339 0.0626982 0.0672147 0.0721123 
0.0774211 0.0831712 0.0893929 0.0961137 0.10336 0.111151 0.119502 0.128417 0.13789 
0.1479 0.158409 0.169364 0.180693 0.192308 0.204107 0.0151305 0.0159016 0.0167242 
0.0176017 0.0185384 0.0195388 0.0206079 0.0217509 0.0229745 0.0242858 0.0256923 0.0272031 
0.0288276 0.0305769 0.0324632 0.0344991 0.0366999 0.0390814 0.041661 0.044458 0.0474935 
0.0507903 0.0543734 0.0582709 0.062512 0.0671287 0.0721549 0.077626 0.0835796 0.0900525 
0.0970812 0.1047 0.112939 0.121822 0.131361 0.141555 0.152388 0.163823 0.175802 
0.188242 0.201041 0.214076 0.0148044 0.015562 0.0163702 0.0172332 0.0181541 0.0191382 
0.0201895 0.0213142 0.0225183 0.023809 0.0251941 0.0266825 0.0282841 0.0300109 0.0318746 
0.0338897 0.0360712 0.0384364 0.0410033 0.043793 0.0468275 0.0501323 0.0537347 0.0576653 
0.0619573 0.0666473 0.0717743 0.077381 0.0835107 0.09021 0.0975256 0.105503 0.114183 
0.123602 0.133783 0.144735 0.15645 0.168891 0.181997 0.195675 0.209805 0.224239 
0.014406 0.0151462 0.0159363 0.0167798 0.0176804 0.0186426 0.0196708 0.0207704 0.0219479 
0.0232101 0.0245645 0.0260206 0.0275887 0.0292806 0.031109 0.0330884 0.0352353 0.0375668 
0.0401029 0.0428645 0.0458763 0.0491654 0.0527607 0.0566963 0.0610091 0.0657404 0.0709351 
0.0766416 0.0829128 0.0898052 0.0973768 0.105686 0.11479 0.124738 0.135571 0.147311 
0.159961 0.173491 0.187837 0.202896 0.218527 0.234551 0.0139349 0.014654 0.0154217 
0.0162416 0.017117 0.0180522 0.0190514 0.0201199 0.0212634 0.0224885 0.0238033 0.0252168 
0.0267399 0.0283842 0.0301634 0.0320924 0.0341879 0.0364681 0.038953 0.0416654 0.044631 
0.0478773 0.0514367 0.0553459 0.0596451 0.0643803 0.0696019 0.0753659 0.081735 0.088776 
0.0965606 0.105163 0.114656 0.125112 0.136591 0.149136 0.162767 0.177467 0.193173 
0.209772 0.227097 0.244933 0.0133917 0.0140858 0.0148269 0.015619 0.0164648 0.0173679 
0.0183326 0.0193633 0.0204656 0.0216455 0.0229111 0.0242714 0.0257375 0.0273211 0.0290371 