# vtk DataFile Version 4.0
vtk output
ASCII
DATASET POLYDATA
POINTS 7621 double
146.8 49.0846 59.0537 153.05 49.0846 59.0537 146.8 44.3907 61.7637 
146.8 44.3907 61.7637 153.05 49.0846 59.0537 152.829 43.9771 62.0024 
146.8 44.3907 61.7637 152.829 43.9771 62.0024 146.8 39.6967 64.4736 
146.8 39.6967 64.4736 152.829 43.9771 62.0024 152.829 38.8697 64.951 
146.8 39.6967 64.4736 152.829 38.8697 64.951 146.505 38.8697 64.951 
146.505 38.8697 64.951 152.829 38.8697 64.951 146.505 33.7622 67.8997 
146.505 38.8697 64.951 146.505 33.7622 67.8997 141.682 37.4884 65.7485 
141.682 37.4884 65.7485 146.505 33.7622 67.8997 140.182 33.7622 67.8997 
141.682 37.4884 65.7485 140.182 33.7622 67.8997 136.564 35.28 67.0235 
136.564 35.28 67.0235 140.182 33.7622 67.8997 133.858 33.7622 67.8997 
136.564 35.28 67.0235 133.858 33.7622 67.8997 131.446 33.0716 68.2984 
131.446 33.0716 68.2984 133.858 33.7622 67.8997 136.175 28.6548 70.8483 
131.446 33.0716 68.2984 136.175 28.6548 70.8483 131.187 28.6548 70.8483 
152.829 43.9771 62.0024 153.05 49.0846 59.0537 159.153 43.9771 62.0024 
159.153 43.9771 62.0024 153.05 49.0846 59.0537 159.3 49.0846 59.0537 
159.153 43.9771 62.0024 159.3 49.0846 59.0537 165.477 43.9771 62.0024 
165.477 43.9771 62.0024 159.3 49.0846 59.0537 165.55 49.0846 59.0537 
165.477 43.9771 62.0024 165.55 49.0846 59.0537 171.8 44.4397 61.7353 
171.8 44.4397 61.7353 165.55 49.0846 59.0537 171.8 49.0846 59.0537 
171.8 44.4397 61.7353 171.8 39.7949 64.4169 165.477 43.9771 62.0024 
165.477 43.9771 62.0024 171.8 39.7949 64.4169 165.477 38.8697 64.951 
165.477 43.9771 62.0024 165.477 38.8697 64.951 159.153 38.8697 64.951 
159.153 38.8697 64.951 165.477 38.8697 64.951 159.153 33.7622 67.8997 
159.153 38.8697 64.951 159.153 33.7622 67.8997 152.829 33.7622 67.8997 
152.829 33.7622 67.8997 159.153 33.7622 67.8997 153.988 31.9024 68.9734 
152.829 33.7622 67.8997 153.988 31.9024 68.9734 148.05 30.8199 69.5984 
171.8 39.7949 64.4169 171.8 35.1501 67.0985 165.477 38.8697 64.951 
165.477 38.8697 64.951 171.8 35.1501 67.0985 165.863 34.0675 67.7235 
165.477 38.8697 64.951 165.863 34.0675 67.7235 159.153 33.7622 67.8997 
159.153 33.7622 67.8997 165.863 34.0675 67.7235 159.925 32.985 68.3484 
159.153 33.7622 67.8997 159.925 32.985 68.3484 153.988 31.9024 68.9734 
152.829 33.7622 67.8997 148.05 30.8199 69.5984 146.505 33.7622 67.8997 
146.505 33.7622 67.8997 148.05 30.8199 69.5984 142.113 29.7373 70.2234 
146.505 33.7622 67.8997 142.113 29.7373 70.2234 140.182 33.7622 67.8997 
140.182 33.7622 67.8997 142.113 29.7373 70.2234 136.175 28.6548 70.8483 
140.182 33.7622 67.8997 136.175 28.6548 70.8483 133.858 33.7622 67.8997 
131.446 33.0716 68.2984 131.187 28.6548 70.8483 126.329 30.8632 69.5734 
126.329 30.8632 69.5734 131.187 28.6548 70.8483 126.199 28.6548 70.8483 
126.329 30.8632 69.5734 126.199 28.6548 70.8483 121.211 28.6548 70.8483 
141.682 37.4884 65.7485 146.8 39.6967 64.4736 146.505 38.8697 64.951 
152.829 38.8697 64.951 152.829 43.9771 62.0024 159.153 43.9771 62.0024 
152.829 38.8697 64.951 159.153 43.9771 62.0024 159.153 38.8697 64.951 
159.153 38.8697 64.951 159.153 43.9771 62.0024 165.477 43.9771 62.0024 
146.505 33.7622 67.8997 152.829 38.8697 64.951 152.829 33.7622 67.8997 
152.829 33.7622 67.8997 152.829 38.8697 64.951 159.153 38.8697 64.951 
130.238 27.5723 71.4733 130.238 27.5723 71.4733 136.175 28.6548 70.8483 
136.175 28.6548 70.8483 130.238 27.5723 71.4733 136.175 28.6548 70.8483 
136.175 28.6548 70.8483 136.175 28.6548 70.8483 142.113 29.7373 70.2234 
142.113 29.7373 70.2234 136.175 28.6548 70.8483 142.113 29.7373 70.2234 
142.113 29.7373 70.2234 142.113 29.7373 70.2234 148.05 30.8199 69.5984 
148.05 30.8199 69.5984 142.113 29.7373 70.2234 148.05 30.8199 69.5984 
148.05 30.8199 69.5984 148.05 30.8199 69.5984 153.988 31.9024 68.9734 
153.988 31.9024 68.9734 148.05 30.8199 69.5984 153.988 31.9024 68.9734 
153.988 31.9024 68.9734 153.988 31.9024 68.9734 159.925 32.985 68.3484 
159.925 32.985 68.3484 153.988 31.9024 68.9734 159.925 32.985 68.3484 
159.925 32.985 68.3484 159.925 32.985 68.3484 165.863 34.0675 67.7235 
165.863 34.0675 67.7235 159.925 32.985 68.3484 165.863 34.0675 67.7235 
165.863 34.0675 67.7235 165.863 34.0675 67.7235 171.8 35.1501 67.0985 
171.8 35.1501 67.0985 165.863 34.0675 67.7235 171.8 35.1501 67.0985 
130.238 27.5723 71.4733 130.238 27.5723 71.4733 124.3 26.4897 72.0983 
124.3 26.4897 72.0983 130.238 27.5723 71.4733 124.3 26.4897 72.0983 
124.3 26.4897 72.0983 124.3 26.4897 72.0983 118.363 25.4072 72.7233 
118.363 25.4072 72.7233 124.3 26.4897 72.0983 118.363 25.4072 72.7233 
118.363 25.4072 72.7233 118.363 25.4072 72.7233 112.425 24.3246 73.3483 
112.425 24.3246 73.3483 118.363 25.4072 72.7233 112.425 24.3246 73.3483 
136.175 28.6548 70.8483 130.238 27.5723 71.4733 131.187 28.6548 70.8483 
131.187 28.6548 70.8483 130.238 27.5723 71.4733 126.199 28.6548 70.8483 
126.199 28.6548 70.8483 130.238 27.5723 71.4733 124.3 26.4897 72.0983 
126.199 28.6548 70.8483 124.3 26.4897 72.0983 121.211 28.6548 70.8483 
121.211 28.6548 70.8483 124.3 26.4897 72.0983 118.363 25.4072 72.7233 
121.211 28.6548 70.8483 118.363 25.4072 72.7233 116.193 26.4897 72.0983 
116.193 26.4897 72.0983 118.363 25.4072 72.7233 112.425 24.3246 73.3483 
116.193 26.4897 72.0983 112.425 24.3246 73.3483 111.175 24.3246 73.3483 
111.175 24.3246 73.3483 111.175 24.3246 73.3483 116.193 26.4897 72.0983 
116.193 26.4897 72.0983 111.175 24.3246 73.3483 116.193 26.4897 72.0983 
116.193 26.4897 72.0983 116.193 26.4897 72.0983 121.211 28.6548 70.8483 
116.193 26.4897 72.0983 121.211 28.6548 70.8483 121.211 28.6548 70.8483 
121.211 28.6548 70.8483 121.211 28.6548 70.8483 126.329 30.8632 69.5734 
121.211 28.6548 70.8483 126.329 30.8632 69.5734 126.329 30.8632 69.5734 
126.329 30.8632 69.5734 126.329 30.8632 69.5734 131.446 33.0716 68.2984 
126.329 30.8632 69.5734 131.446 33.0716 68.2984 131.446 33.0716 68.2984 
131.446 33.0716 68.2984 131.446 33.0716 68.2984 136.564 35.28 67.0235 
131.446 33.0716 68.2984 136.564 35.28 67.0235 136.564 35.28 67.0235 
136.564 35.28 67.0235 136.564 35.28 67.0235 141.682 37.4884 65.7485 
136.564 35.28 67.0235 141.682 37.4884 65.7485 141.682 37.4884 65.7485 
141.682 37.4884 65.7485 141.682 37.4884 65.7485 146.8 39.6967 64.4736 
146.8 39.6967 64.4736 141.682 37.4884 65.7485 146.8 39.6967 64.4736 
111.175 24.3246 73.3483 111.175 24.3246 73.3483 112.425 24.3246 73.3483 
112.425 24.3246 73.3483 111.175 24.3246 73.3483 112.425 24.3246 73.3483 
111.175 24.3246 73.3483 112.425 24.3246 73.3483 116.193 26.4897 72.0983 
116.193 26.4897 72.0983 112.425 24.3246 73.3483 118.363 25.4072 72.7233 
116.193 26.4897 72.0983 118.363 25.4072 72.7233 121.211 28.6548 70.8483 
121.211 28.6548 70.8483 118.363 25.4072 72.7233 124.3 26.4897 72.0983 
121.211 28.6548 70.8483 124.3 26.4897 72.0983 126.199 28.6548 70.8483 
126.199 28.6548 70.8483 124.3 26.4897 72.0983 130.238 27.5723 71.4733 
126.199 28.6548 70.8483 130.238 27.5723 71.4733 131.187 28.6548 70.8483 
131.187 28.6548 70.8483 130.238 27.5723 71.4733 136.175 28.6548 70.8483 
171.8 49.0846 59.0537 165.55 49.0846 59.0537 171.8 44.4397 61.7353 
171.8 44.4397 61.7353 165.55 49.0846 59.0537 165.477 43.9771 62.0024 
171.8 44.4397 61.7353 165.477 43.9771 62.0024 171.8 39.7949 64.4169 
171.8 39.7949 64.4169 165.477 43.9771 62.0024 165.477 38.8697 64.951 
171.8 39.7949 64.4169 165.477 38.8697 64.951 171.8 35.1501 67.0985 
171.8 35.1501 67.0985 165.477 38.8697 64.951 165.863 34.0675 67.7235 
165.863 34.0675 67.7235 165.477 38.8697 64.951 159.153 33.7622 67.8997 
165.863 34.0675 67.7235 159.153 33.7622 67.8997 159.925 32.985 68.3484 
159.925 32.985 68.3484 159.153 33.7622 67.8997 153.988 31.9024 68.9734 
153.988 31.9024 68.9734 159.153 33.7622 67.8997 152.829 33.7622 67.8997 
153.988 31.9024 68.9734 152.829 33.7622 67.8997 148.05 30.8199 69.5984 
148.05 30.8199 69.5984 152.829 33.7622 67.8997 146.505 33.7622 67.8997 
148.05 30.8199 69.5984 146.505 33.7622 67.8997 142.113 29.7373 70.2234 
142.113 29.7373 70.2234 146.505 33.7622 67.8997 140.182 33.7622 67.8997 
142.113 29.7373 70.2234 140.182 33.7622 67.8997 136.175 28.6548 70.8483 
136.175 28.6548 70.8483 140.182 33.7622 67.8997 133.858 33.7622 67.8997 
136.175 28.6548 70.8483 133.858 33.7622 67.8997 131.446 33.0716 68.2984 
131.446 33.0716 68.2984 133.858 33.7622 67.8997 136.564 35.28 67.0235 
136.564 35.28 67.0235 133.858 33.7622 67.8997 140.182 33.7622 67.8997 
136.564 35.28 67.0235 140.182 33.7622 67.8997 141.682 37.4884 65.7485 
141.682 37.4884 65.7485 140.182 33.7622 67.8997 146.505 33.7622 67.8997 
141.682 37.4884 65.7485 146.505 33.7622 67.8997 146.505 38.8697 64.951 
146.505 38.8697 64.951 146.505 33.7622 67.8997 152.829 33.7622 67.8997 
146.505 38.8697 64.951 152.829 33.7622 67.8997 152.829 38.8697 64.951 
152.829 38.8697 64.951 152.829 33.7622 67.8997 159.153 33.7622 67.8997 
152.829 38.8697 64.951 159.153 33.7622 67.8997 159.153 38.8697 64.951 
159.153 38.8697 64.951 159.153 33.7622 67.8997 165.477 38.8697 64.951 
159.153 38.8697 64.951 165.477 38.8697 64.951 159.153 43.9771 62.0024 
159.153 43.9771 62.0024 165.477 38.8697 64.951 165.477 43.9771 62.0024 
159.153 43.9771 62.0024 165.477 43.9771 62.0024 159.3 49.0846 59.0537 
159.3 49.0846 59.0537 165.477 43.9771 62.0024 165.55 49.0846 59.0537 
159.3 49.0846 59.0537 153.05 49.0846 59.0537 159.153 43.9771 62.0024 
159.153 43.9771 62.0024 153.05 49.0846 59.0537 152.829 43.9771 62.0024 
159.153 43.9771 62.0024 152.829 43.9771 62.0024 159.153 38.8697 64.951 
159.153 38.8697 64.951 152.829 43.9771 62.0024 152.829 38.8697 64.951 
146.8 49.0846 59.0537 146.8 44.3907 61.7637 153.05 49.0846 59.0537 
153.05 49.0846 59.0537 146.8 44.3907 61.7637 152.829 43.9771 62.0024 
146.8 44.3907 61.7637 146.8 39.6967 64.4736 152.829 43.9771 62.0024 
152.829 43.9771 62.0024 146.8 39.6967 64.4736 152.829 38.8697 64.951 
152.829 38.8697 64.951 146.8 39.6967 64.4736 146.505 38.8697 64.951 
146.505 38.8697 64.951 146.8 39.6967 64.4736 141.682 37.4884 65.7485 
[...]
CELL_DATA 3238
FIELD FieldData 1
electrode_index 1 3238 int
0 0 0 0 0 0 0 0 0 
0 0 0 0 0 0 0 0 0 
0 0 0 0 0 0 0 0 0 
0 0 0 0 0 0 0 0 0 
0 0 0 0 0 0 0 0 0 
0 0 0 0 0 0 0 0 0 
0 0 0 0 0 0 0 0 0 
0 0 0 0 0 0 0 0 0 
0 0 0 0 0 0 0 0 0 
0 0 0 0 0 0 0 0 0 
0 0 0 0 0 0 0 0 0 
0 0 0 0 0 0 0 0 0 
0 0 0 0 0 0 0 0 0 
0 0 0 0 0 0 0 0 0 
0 0 0 0 0 0 0 0 0 
0 0 0 0 0 0 0 0 0 
0 0 0 0 0 0 0 0 0 
0 0 0 0 0 0 0 0 0 
0 0 0 0 0 0 0 0 0 
0 0 0 0 0 0 0 0 0 
0 0 0 0 0 0 0 0 0 
0 0 0 0 0 0 0 0 0 
0 0 0 0 0 0 0 0 0 
0 0 0 0 0 0 0 1 1 
1 1 1 1 1 1 1 1 1 
1 1 1 1 1 1 1 1 1 
1 1 1 1 1 1 1 1 1 
1 1 1 1 1 1 1 1 1 
1 1 1 1 1 1 1 1 1 
1 1 1 1 1 1 1 1 1 
1 1 1 1 1 1 1 1 1 
1 1 1 1 1 1 1 1 1 
1 1 1 1 1 1 1 1 1 
1 1 1 1 1 1 1 1 1 
1 1 1 1 1 1 1 1 1 
1 1 1 1 1 1 1 1 1 
1 1 1 1 1 1 1 1 1 
1 1 1 1 1 1 1 1 1 
1 1 1 1 1 1 1 1 1 
1 1 1 1 1 1 1 1 1 
1 1 1 1 1 1 1 1 1 
1 1 1 1 1 1 1 1 1 
1 1 1 1 1 1 1 1 1 
1 1 1 1 1 1 1 1 1 
1 1 1 1 1 1 1 1 1 
1 1 1 1 1 1 1 1 1 
1 1 1 1 1 1 1 1 1 
1 1 2 2 2 2 2 2 2 
2 2 2 2 2 2 2 2 2 
2 2 2 2 2 2 2 2 2 
2 2 2 2 2 2 2 2 2 
2 2 2 2 2 2 2 2 2 
2 2 2 2 2 2 2 2 2 
2 2 2 2 2 2 2 2 2 
2 2 2 2 2 2 2 2 2 
2 2 2 2 2 2 2 2 2 
2 2 2 2 2 2 2 2 2 
2 2 2 2 2 2 2 2 2 
2 2 2 2 2 2 2 2 2 
2 2 2 2 3 3 3 3 3 
3 3 3 3 3 3 3 3 3 
3 3 3 3 3 3 3 3 3 
3 3 3 3 3 3 3 3 3 
3 3 3 3 3 3 3 3 3 
3 3 3 3 3 3 3 3 3 
3 3 3 3 3 3 3 3 3 
3 3 3 3 3 3 3 3 3 
3 3 3 3 3 3 3 3 3 
3 3 3 3 3 3 3 3 3 
3 3 3 3 3 3 3 3 3 
3 3 3 3 3 3 3 3 3 
3 3 3 3 3 3 3 3 3 
3 3 3 3 3 4 4 4 4 
4 4 4 4 4 4 4 4 4 
4 4 4 4 4 4 4 4 4 
4 4 4 4 4 4 4 4 4 
4 4 4 4 4 4 4 4 4 
4 4 4 4 4 4 4 4 4 
4 4 4 4 4 4 4 4 4 
4 4 4 4 4 4 4 4 4 
4 4 4 4 4 4 4 4 4 
4 4 4 4 4 4 4 4 4 
4 4 4 4 4 4 4 4 4 
4 4 4 4 4 4 4 4 4 
4 4 4 4 4 4 4 5 5 
5 5 5 5 5 5 5 5 5 
5 5 5 5 5 5 5 5 5 
5 5 5 5 5 5 5 5 5 
5 5 5 5 5 5 5 5 5 
5 5 5 5 5 5 5 5 5 
5 5 5 5 5 5 5 5 5 
5 5 5 5 5 5 5 5 5 
5 5 5 5 5 5 5 5 5 
5 5 5 5 5 5 5 5 5 
5 5 5 5 5 5 5 5 5 
5 5 5 5 5 5 5 5 5 
5 5 5 5 5 5 5 5 5 
5 5 5 5 5 5 5 5 5 
5 5 5 5 5 5 5 5 5 
5 5 5 5 5 5 5 5 5 
5 5 5 5 5 5 5 5 5 
5 5 5 5 5 5 5 5 5 
5 5 5 5 5 5 5 5 5 
5 5 5 5 5 5 5 5 5 
5 5 5 5 5 5 5 5 5 
5 5 5 5 5 5 5 5 5 
5 5 5 5 5 5 5 5 5 
5 5 5 5 5 5 5 5 5 
5 5 5 5 5 5 5 5 5 
5 5 5 5 5 5 5 5 5 
5 5 5 5 5 5 5 5 5 
5 5 5 5 5 5 5 5 5 
5 5 5 5 5 5 5 5 5 
5 5 5 5 5 5 5 5 5 
5 5 5 5 5 5 5 5 5 
5 5 5 5 5 5 5 5 5 
5 5 5 5 5 5 5 5 5 
5 5 5 5 5 5 5 5 5 
5 5 5 5 5 5 5 5 5 
5 5 5 5 5 5 5 5 5 
5 5 5 5 5 5 5 5 5 
5 5 5 5 5 5 5 5 5 
5 5 5 5 5 5 5 5 5 
5 5 5 5 5 5 5 5 5 
5 5 5 5 5 5 5 5 5 
5 5 5 5 5 5 5 5 5 
5 5 5 5 5 5 5 5 5 
5 5 5 5 5 5 5 5 5 
5 5 5 5 5 5 5 5 5 
5 5 5 5 5 5 5 5 5 
5 5 5 5 5 5 5 5 5 
5 5 5 5 5 5 5 5 5 
5 5 5 5 5 5 5 5 5 
5 5 5 5 5 5 5 5 5 
5 5 5 5 5 5 5 5 5 
5 5 5 5 5 5 5 5 5 
5 5 5 5 5 5 5 5 5 
5 5 5 5 5 5 5 5 5 
5 5 5 5 5 5 5 5 5 
5 5 5 5 5 5 5 5 5 
5 5 5 5 5 5 5 5 5 
5 5 5 5 5 5 5 5 5 
5 5 5 5 5 5 5 5 5 
5 5 5 5 5 5 5 5 5 
5 5 5 5 5 5 5 5 5 
5 5 5 5 5 5 5 5 5 
5 5 5 5 5 5 5 5 5 
5 5 5 5 5 5 5 5 5 
5 5 5 5 5 5 5 5 5 
5 5 5 5 5 5 5 5 5 
5 5 5 5 5 5 5 5 5 
5 5 5 5 5 5 5 5 5 
5 5 5 5 5 5 5 5 5 
5 5 5 5 5 5 5 5 5 
5 5 5 5 5 5 5 5 5 
5 5 5 5 5 5 5 5 5 
5 5 5 5 5 5 5 5 5 
5 5 5 5 5 5 5 5 5 
5 5 5 5 5 5 5 5 5 
5 5 5 5 5 5 5 5 5 
5 5 5 5 5 5 5 5 5 
5 5 5 5 5 5 5 5 5 
5 5 5 5 5 5 5 5 5 
5 5 5 5 5 5 5 5 5 
5 5 5 5 5 5 5 5 5 
5 5 5 5 5 5 5 5 5 
5 5 5 5 5 5 5 5 5 
5 5 5 5 5 5 5 5 5 
5 5 5 5 5 5 5 5 5 
5 5 5 5 5 5 5 5 5 
5 5 5 5 5 5 5 5 5 
5 5 5 5 5 5 5 5 5 
5 5 5 5 5 5 5 5 5 
5 5 5 5 5 5 5 5 5 
5 5 5 5 5 5 5 5 5 
5 5 5 5 5 5 5 5 5 
5 5 5 5 5 5 5 5 5 
5 5 5 5 5 5 6 6 6 
6 6 6 6 6 6 6 6 6 
6 6 6 6 6 6 6 6 6 
6 6 6 6 6 6 6 6 6 
6 6 6 6 6 6 6 6 6 
6 6 6 6 6 6 6 6 6 
6 6 6 6 6 6 6 6 6 
6 6 6 6 6 6 6 6 6 
6 6 6 6 6 6 6 6 6 
6 6 6 6 6 6 6 6 6 
6 6 6 6 6 6 6 6 6 
6 6 6 6 6 6 6 6 6 
6 6 6 6 6 6 6 6 6 
6 6 6 6 6 6 6 6 6 
6 6 6 6 6 6 6 6 6 
6 6 6 6 6 6 6 6 6 
6 6 6 6 6 6 6 6 6 
6 6 6 6 6 6 6 6 6 
6 6 6 6 6 6 6 6 6 
6 6 6 6 6 6 6 6 6 
6 6 6 6 6 6 6 6 6 
6 6 6 6 6 6 6 6 6 
6 6 6 6 6 6 6 6 6 
6 6 6 6 6 6 6 6 6 
6 6 6 6 6 7 7 7 7 
7 7 7 7 7 7 7 7 7 
7 7 7 7 7 7 7 7 7 
7 7 7 7 7 7 7 7 7 
7 7 7 7 7 7 7 7 7 
7 7 7 7 7 7 7 7 7 
7 7 7 7 7 7 7 7 7 
7 7 7 7 7 7 7 7 7 
7 7 7 7 7 7 7 7 7 
7 7 7 7 7 7 7 7 7 
7 7 7 7 7 7 7 7 7 
7 7 7 7 7 7 7 7 7 
7 7 7 7 7 7 7 7 7 
7 7 7 7 7 7 7 7 7 
7 7 7 7 7 7 7 7 7 
7 7 7 7 7 7 7 7 7 
7 7 7 7 7 7 7 7 7 
7 7 7 7 7 7 7 7 7 
7 7 7 7 7 7 7 7 7 
7 7 7 7 7 7 7 7 7 
7 7 7 7 7 7 7 7 7 
7 7 7 7 7 7 7 7 7 
7 7 7 7 7 7 7 7 7 
7 7 7 7 7 7 7 7 7 
7 7 7 8 8 8 8 8 8 
8 8 8 8 8 8 8 8 8 
8 8 8 8 8 8 8 8 8 
8 8 8 8 8 8 8 8 8 
8 8 8 8 8 8 8 8 8 
8 8 8 8 8 8 8 8 8 
8 8 8 8 8 8 8 8 8 
8 8 8 8 8 8 8 8 8 
8 8 8 8 8 8 8 8 8 
8 8 8 8 8 8 8 8 8 
8 8 8 8 8 8 8 8 8 
8 8 8 8 8 8 8 8 8 
8 8 8 8 8 9 9 9 9 
9 9 9 9 9 9 9 9 9 
9 9 9 9 9 9 9 9 9 
9 9 9 9 9 9 9 9 9 
9 9 9 9 9 9 9 9 9 
9 9 9 9 9 9 9 9 9 
9 9 9 9 9 9 9 9 9 
9 9 9 9 9 9 9 9 9 
9 9 9 9 9 9 9 9 9 
9 9 9 9 9 9 9 9 9 
9 9 9 9 9 9 9 9 9 
9 9 9 9 9 9 9 9 9 
9 9 9 9 9 9 9 9 9 
9 9 9 9 9 9 10 10 10 
10 10 10 10 10 10 10 10 10 
10 10 10 10 10 10 10 10 10 
10 10 10 10 10 10 10 10 10 
10 10 10 10 10 10 10 10 10 
10 10 10 10 10 10 10 10 10 
10 10 10 10 10 10 10 10 10 
10 10 10 10 10 10 10 10 10 
10 10 10 10 10 10 10 10 10 
10 10 10 10 10 10 10 10 10 
10 10 10 10 10 10 10 10 10 
10 10 10 10 10 10 10 10 10 
10 10 10 10 10 10 10 10 11 
11 11 11 11 11 11 11 11 11 
11 11 11 11 11 11 11 11 11 
11 11 11 11 11 11 11 11 11 
11 11 11 11 11 11 11 11 11 
11 11 11 11 11 11 11 11 11 
11 11 11 11 11 11 11 11 11 
11 11 11 11 11 11 11 11 11 
11 11 11 11 11 11 11 11 11 
11 11 11 11 11 11 11 11 11 
11 11 11 11 11 11 11 11 11 
11 11 11 11 11 11 11 11 11 
11 11 11 11 11 11 11 11 11 
11 11 11 11 11 11 11 11 11 
11 11 11 11 11 11 11 11 11 
11 11 11 11 11 11 11 11 11 
11 11 11 11 11 11 11 11 11 
11 11 11 11 11 11 11 11 11 
11 11 11 11 11 11 11 11 11 
11 11 11 11 11 11 11 11 11 
11 11 11 11 11 11 11 11 11 
11 11 11 11 11 11 11 11 11 
11 11 11 11 11 11 11 11 11 
11 11 11 11 11 11 11 11 11 
11 11 11 11 11 11 11 11 11 
11 11 11 11 11 11 11 11 11 
11 11 11 11 11 11 11 11 11 
11 11 11 11 11 11 11 11 11 
11 11 11 11 11 11 11 11 11 
11 11 11 11 11 11 11 11 11 
11 11 11 11 11 11 11 11 11 
11 11 11 11 11 11 11 11 11 
11 11 11 11 11 11 11 11 11 
11 11 11 11 11 11 11 11 11 
11 11 11 11 11 11 11 11 11 
11 11 11 11 11 11 11 11 11 
11 11 11 11 11 11 11 11 11 
11 11 11 11 11 11 11 11 11 
11 11 11 11 11 11 11 11 11 
11 11 11 11 11 11 11 11 11 
11 11 11 11 11 11 11 11 11 
11 11 11 11 11 11 11 11 11 
11 11 11 11 11 11 11 11 11 
11 11 11 11 11 11 11 11 11 
11 11 11 11 11 11 11 11 11 
11 11 11 11 11 11 11 11 11 
11 11 11 11 11 11 11 11 11 
11 11 11 11 11 11 11 11 11 
11 11 11 11 11 11 11 11 11 
11 11 11 11 11 11 11 11 11 
11 11 11 11 11 11 11 11 11 
11 11 11 11 11 11 11 11 11 
11 11 11 11 11 11 11 11 11 
11 11 11 11 11 11 11 11 11 
11 11 11 11 11 11 11 11 11 
11 11 11 11 11 11 11 11 11 
11 11 11 11 11 11 11 11 11 
11 11 11 11 11 11 11 11 11 
11 11 11 11 11 11 11 11 11 
11 11 11 11 11 11 11 11 11 
11 11 11 11 11 11 11 11 11 
11 11 11 11 11 11 11 11 11 
11 11 11 11 11 11 11 11 11 
11 11 11 11 11 11 11 11 11 
11 11 11 11 11 11 11 11 11 
11 11 11 11 11 11 11 11 11 
11 11 11 11 11 11 11 11 11 
11 11 11 11 11 11 11 11 11 
11 11 11 11 11 11 11 11 11 
11 11 11 11 11 11 11 11 11 
11 11 11 11 11 11 11 11 11 
11 11 11 11 11 11 11 11 11 
11 11 11 11 11 11 11 11 11 
11 11 11 11 11 11 11 11 11 
11 11 11 11 11 11 11 11 11 
11 11 11 11 11 11 11 11 11 
11 11 11 11 11 11 11 11 11 
11 11 11 11 11 11 11 11 11 
11 11 11 11 11 11 11 11 11 
11 11 11 11 11 11 11 11 11 
11 11 11 11 11 11 11 11 11 
11 11 11 11 11 11 11 11 11 
11 11 11 11 11 11 11 11 11 
11 11 11 11 11 11 11 11 11 
11 11 11 11 11 11 11 11 11 
11 11 11 11 11 11 11 11 11 
11 11 11 11 11 11 11 11 11 
11 11 11 11 11 11 11 11 11 
11 11 11 11 11 11 11 11 11 
11 11 11 11 11 11 11 11 11 
11 11 11 11 11 11 11 11 11 
11 11 11 11 11 11 11 11 11 
11 11 11 11 11 11 11 11 11 
11 11 11 11 11 11 11 11 11 
11 11 11 11 11 11 11 11 11 
11 11 11 11 11 11 11 11 11 
11 11 11 11 11 11 11 11 11 
11 11 11 11 11 11 11 
