# vtk DataFile Version 4.0
vtk output
ASCII
DATASET STRUCTURED_POINTS
DIMENSIONS 62 62 62
SPACING 0.05 0.05 0.05
ORIGIN -1.525 -1.525 -1.525
POINT_DATA 238328
FIELD FieldData 1
potential 1 238328 double
0.0100778 0.010079 0.0100803 0.0100815 0.0100827 0.0100839 0.0100851 0.0100863 0.0100875 
0.0100887 0.0100899 0.0100912 0.0100924 0.0100936 0.0100948 0.010096 0.0100972 0.0100985 
0.0100997 0.0101009 0.0101021 0.0101033 0.0101045 0.0101058 0.010107 0.0101082 0.0101094 
0.0101106 0.0101119 0.0101131 0.0101143 0.0101155 0.0101167 0.010118 0.0101192 0.0101204 
0.0101216 0.0101229 0.0101241 0.0101253 0.0101265 0.0101278 0.010129 0.0101302 0.0101315 
0.0101327 0.0101339 0.0101351 0.0101364 0.0101376 0.0101388 0.0101401 0.0101413 0.0101425 
0.0101438 0.010145 0.0101462 0.0101475 0.0101487 0.0101499 0.0101512 0.0101524 0.0100768 
0.0100781 0.0100793 0.0100805 0.0100817 0.0100829 0.0100841 0.0100853 0.0100865 0.0100877 
0.010089 0.0100902 0.0100914 0.0100926 0.0100938 0.010095 0.0100962 0.0100975 0.0100987 
0.0100999 0.0101011 0.0101023 0.0101035 0.0101048 0.010106 0.0101072 0.0101084 0.0101096 
0.0101108 0.0101121 0.0101133 0.0101145 0.0101157 0.010117 0.0101182 0.0101194 0.0101206 
0.0101219 0.0101231 0.0101243 0.0101255 0.0101268 0.010128 0.0101292 0.0101304 0.0101317 
0.0101329 0.0101341 0.0101353 0.0101366 0.0101378 0.010139 0.0101403 0.0101415 0.0101427 
0.010144 0.0101452 0.0101464 0.0101477 0.0101489 0.0101501 0.0101514 0.0100759 0.0100771 
0.0100783 0.0100795 0.0100807 0.0100819 0.0100831 0.0100843 0.0100855 0.0100867 0.010088 
0.0100892 0.0100904 0.0100916 0.0100928 0.010094 0.0100952 0.0100964 0.0100977 0.0100989 
0.0101001 0.0101013 0.0101025 0.0101037 0.010105 0.0101062 0.0101074 0.0101086 0.0101098 
0.0101111 0.0101123 0.0101135 0.0101147 0.0101159 0.0101172 0.0101184 0.0101196 0.0101208 
0.0101221 0.0101233 0.0101245 0.0101257 0.010127 0.0101282 0.0101294 0.0101306 0.0101319 
0.0101331 0.0101343 0.0101355 0.0101368 0.010138 0.0101392 0.0101405 0.0101417 0.0101429 
0.0101442 0.0101454 0.0101466 0.0101479 0.0101491 0.0101503 0.0100749 0.0100761 0.0100773 
0.0100785 0.0100797 0.0100809 0.0100821 0.0100833 0.0100845 0.0100857 0.010087 0.0100882 
0.0100894 0.0100906 0.0100918 0.010093 0.0100942 0.0100954 0.0100967 0.0100979 0.0100991 
0.0101003 0.0101015 0.0101027 0.010104 0.0101052 0.0101064 0.0101076 0.0101088 0.01011 
0.0101113 0.0101125 0.0101137 0.0101149 0.0101161 0.0101174 0.0101186 0.0101198 0.010121 
0.0101223 0.0101235 0.0101247 0.0101259 0.0101272 0.0101284 0.0101296 0.0101308 0.0101321 
0.0101333 0.0101345 0.0101357 0.010137 0.0101382 0.0101394 0.0101407 0.0101419 0.0101431 
0.0101444 0.0101456 0.0101468 0.0101481 0.0101493 0.0100739 0.0100751 0.0100763 0.0100775 
0.0100787 0.0100799 0.0100811 0.0100823 0.0100835 0.0100848 0.010086 0.0100872 0.0100884 
0.0100896 0.0100908 0.010092 0.0100932 0.0100944 0.0100957 0.0100969 0.0100981 0.0100993 
0.0101005 0.0101017 0.0101029 0.0101042 0.0101054 0.0101066 0.0101078 0.010109 0.0101102 
0.0101115 0.0101127 0.0101139 0.0101151 0.0101163 0.0101176 0.0101188 0.01012 0.0101212 
0.0101225 0.0101237 0.0101249 0.0101261 0.0101274 0.0101286 0.0101298 0.010131 0.0101323 
0.0101335 0.0101347 0.0101359 0.0101372 0.0101384 0.0101396 0.0101409 0.0101421 0.0101433 
0.0101446 0.0101458 0.010147 0.0101483 0.0100729 0.0100741 0.0100753 0.0100765 0.0100777 
0.0100789 0.0100801 0.0100813 0.0100825 0.0100838 0.010085 0.0100862 0.0100874 0.0100886 
0.0100898 0.010091 0.0100922 0.0100934 0.0100947 0.0100959 0.0100971 0.0100983 0.0100995 
0.0101007 0.0101019 0.0101032 0.0101044 0.0101056 0.0101068 0.010108 0.0101092 0.0101105 
0.0101117 0.0101129 0.0101141 0.0101153 0.0101166 0.0101178 0.010119 0.0101202 0.0101214 
0.0101227 0.0101239 0.0101251 0.0101263 0.0101276 0.0101288 0.01013 0.0101312 0.0101325 
0.0101337 0.0101349 0.0101361 0.0101374 0.0101386 0.0101398 0.0101411 0.0101423 0.0101435 
0.0101447 0.010146 0.0101472 0.0100719 0.0100731 0.0100743 0.0100755 0.0100767 0.0100779 
0.0100791 0.0100803 0.0100816 0.0100828 0.010084 0.0100852 0.0100864 0.0100876 0.0100888 
0.01009 0.0100912 0.0100924 0.0100936 0.0100949 0.0100961 0.0100973 0.0100985 0.0100997 
0.0101009 0.0101021 0.0101034 0.0101046 0.0101058 0.010107 0.0101082 0.0101094 0.0101107 
0.0101119 0.0101131 0.0101143 0.0101155 0.0101168 0.010118 0.0101192 0.0101204 0.0101216 
0.0101229 0.0101241 0.0101253 0.0101265 0.0101278 0.010129 0.0101302 0.0101314 0.0101327 
0.0101339 0.0101351 0.0101363 0.0101376 0.0101388 0.01014 0.0101413 0.0101425 0.0101437 
0.0101449 0.0101462 0.0100709 0.0100721 0.0100733 0.0100745 0.0100757 0.0100769 0.0100781 
0.0100793 0.0100806 0.0100818 0.010083 0.0100842 0.0100854 0.0100866 0.0100878 0.010089 
0.0100902 0.0100914 0.0100926 0.0100939 0.0100951 0.0100963 0.0100975 0.0100987 0.0100999 
0.0101011 0.0101023 0.0101036 0.0101048 0.010106 0.0101072 0.0101084 0.0101096 0.0101109 
0.0101121 0.0101133 0.0101145 0.0101157 0.010117 0.0101182 0.0101194 0.0101206 0.0101218 
0.0101231 0.0101243 0.0101255 0.0101267 0.010128 0.0101292 0.0101304 0.0101316 0.0101329 
0.0101341 0.0101353 0.0101365 0.0101378 0.010139 0.0101402 0.0101414 0.0101427 0.0101439 
0.0101451 0.0100699 0.0100711 0.0100723 0.0100735 0.0100747 0.0100759 0.0100772 0.0100784 
0.0100796 0.0100808 0.010082 0.0100832 0.0100844 0.0100856 0.0100868 0.010088 0.0100892 
0.0100904 0.0100916 0.0100929 0.0100941 0.0100953 0.0100965 0.0100977 0.0100989 0.0101001 
0.0101013 0.0101026 0.0101038 0.010105 0.0101062 0.0101074 0.0101086 0.0101098 0.0101111 
0.0101123 0.0101135 0.0101147 0.0101159 0.0101172 0.0101184 0.0101196 0.0101208 0.010122 
0.0101233 0.0101245 0.0101257 0.0101269 0.0101281 0.0101294 0.0101306 0.0101318 0.010133 
0.0101343 0.0101355 0.0101367 0.010138 0.0101392 0.0101404 0.0101416 0.0101429 0.0101441 
0.0100689 0.0100701 0.0100713 0.0100725 0.0100738 0.010075 0.0100762 0.0100774 0.0100786 
0.0100798 0.010081 0.0100822 0.0100834 0.0100846 0.0100858 0.010087 0.0100882 0.0100894 
0.0100906 0.0100919 0.0100931 0.0100943 0.0100955 0.0100967 0.0100979 0.0100991 0.0101003 
0.0101015 0.0101028 0.010104 0.0101052 0.0101064 0.0101076 0.0101088 0.01011 0.0101113 
0.0101125 0.0101137 0.0101149 0.0101161 0.0101174 0.0101186 0.0101198 0.010121 0.0101222 
0.0101235 0.0101247 0.0101259 0.0101271 0.0101283 0.0101296 0.0101308 0.010132 0.0101332 
0.0101345 0.0101357 0.0101369 0.0101381 0.0101394 0.0101406 0.0101418 0.0101431 0.010068 
0.0100692 0.0100704 0.0100716 0.0100728 0.010074 0.0100752 0.0100764 0.0100776 0.0100788 
0.01008 0.0100812 0.0100824 0.0100836 0.0100848 0.010086 0.0100872 0.0100884 0.0100896 
0.0100908 0.0100921 0.0100933 0.0100945 0.0100957 0.0100969 0.0100981 0.0100993 0.0101005 
0.0101017 0.010103 0.0101042 0.0101054 0.0101066 0.0101078 0.010109 0.0101102 0.0101115 
0.0101127 0.0101139 0.0101151 0.0101163 0.0101176 0.0101188 0.01012 0.0101212 0.0101224 
0.0101237 0.0101249 0.0101261 0.0101273 0.0101285 0.0101298 0.010131 0.0101322 0.0101334 
0.0101347 0.0101359 0.0101371 0.0101383 0.0101396 0.0101408 0.010142 0.010067 0.0100682 
0.0100694 0.0100706 0.0100718 0.010073 0.0100742 0.0100754 0.0100766 0.0100778 0.010079 
0.0100802 0.0100814 0.0100826 0.0100838 0.010085 0.0100862 0.0100874 0.0100886 0.0100898 
0.0100911 0.0100923 0.0100935 0.0100947 0.0100959 0.0100971 0.0100983 0.0100995 0.0101007 
0.0101019 0.0101032 0.0101044 0.0101056 0.0101068 0.010108 0.0101092 0.0101104 0.0101117 
0.0101129 0.0101141 0.0101153 0.0101165 0.0101177 0.010119 0.0101202 0.0101214 0.0101226 
0.0101238 0.0101251 0.0101263 0.0101275 0.0101287 0.01013 0.0101312 0.0101324 0.0101336 
0.0101349 0.0101361 0.0101373 0.0101385 0.0101398 0.010141 0.010066 0.0100672 0.0100684 
0.0100696 0.0100708 0.010072 0.0100732 0.0100744 0.0100756 0.0100768 0.010078 0.0100792 
0.0100804 0.0100816 0.0100828 0.010084 0.0100852 0.0100864 0.0100876 0.0100888 0.0100901 
0.0100913 0.0100925 0.0100937 0.0100949 0.0100961 0.0100973 0.0100985 0.0100997 0.0101009 
0.0101022 0.0101034 0.0101046 0.0101058 0.010107 0.0101082 0.0101094 0.0101106 0.0101119 
0.0101131 0.0101143 0.0101155 0.0101167 0.0101179 0.0101192 0.0101204 0.0101216 0.0101228 
0.010124 0.0101253 0.0101265 0.0101277 0.0101289 0.0101301 0.0101314 0.0101326 0.0101338 
0.010135 0.0101363 0.0101375 0.0101387 0.0101399 0.010065 0.0100662 0.0100674 0.0100686 
0.0100698 0.010071 0.0100722 0.0100734 0.0100746 0.0100758 0.010077 0.0100782 0.0100794 
0.0100806 0.0100818 0.010083 0.0100842 0.0100854 0.0100866 0.0100878 0.010089 0.0100903 
0.0100915 0.0100927 0.0100939 0.0100951 0.0100963 0.0100975 0.0100987 0.0100999 0.0101011 
0.0101024 0.0101036 0.0101048 0.010106 0.0101072 0.0101084 0.0101096 0.0101108 0.0101121 
0.0101133 0.0101145 0.0101157 0.0101169 0.0101181 0.0101194 0.0101206 0.0101218 0.010123 
0.0101242 0.0101255 0.0101267 0.0101279 0.0101291 0.0101303 0.0101316 0.0101328 0.010134 
0.0101352 0.0101365 0.0101377 0.0101389 0.010064 0.0100652 0.0100664 0.0100676 0.0100688 
0.01007 0.0100712 0.0100724 0.0100736 0.0100748 0.010076 0.0100772 0.0100784 0.0100796 
0.0100808 0.010082 0.0100832 0.0100844 0.0100856 0.0100868 0.010088 0.0100893 0.0100905 
0.0100917 0.0100929 0.0100941 0.0100953 0.0100965 0.0100977 0.0100989 0.0101001 0.0101013 
0.0101026 0.0101038 0.010105 0.0101062 0.0101074 0.0101086 0.0101098 0.010111 0.0101123 
0.0101135 0.0101147 0.0101159 0.0101171 0.0101183 0.0101196 0.0101208 0.010122 0.0101232 
0.0101244 0.0101256 0.0101269 0.0101281 0.0101293 0.0101305 0.0101318 0.010133 0.0101342 
0.0101354 0.0101366 0.0101379 0.010063 0.0100642 0.0100654 0.0100666 0.0100678 0.010069 
0.0100702 0.0100714 0.0100726 0.0100738 0.010075 0.0100762 0.0100774 0.0100786 0.0100798 
0.010081 0.0100822 0.0100834 0.0100846 0.0100858 0.010087 0.0100882 0.0100895 0.0100907 
0.0100919 0.0100931 0.0100943 0.0100955 0.0100967 0.0100979 0.0100991 0.0101003 0.0101015 
0.0101027 0.010104 0.0101052 0.0101064 0.0101076 0.0101088 0.01011 0.0101112 0.0101125 
0.0101137 0.0101149 0.0101161 0.0101173 0.0101185 0.0101197 0.010121 0.0101222 0.0101234 
0.0101246 0.0101258 0.0101271 0.0101283 0.0101295 0.0101307 0.0101319 0.0101332 0.0101344 
0.0101356 0.0101368 0.010062 0.0100632 0.0100644 0.0100656 0.0100668 0.010068 0.0100692 
0.0100704 0.0100716 0.0100728 0.010074 0.0100752 0.0100764 0.0100776 0.0100788 0.01008 
0.0100812 0.0100824 0.0100836 0.0100848 0.010086 0.0100872 0.0100885 0.0100897 0.0100909 
0.0100921 0.0100933 0.0100945 0.0100957 0.0100969 0.0100981 0.0100993 0.0101005 0.0101017 
0.0101029 0.0101042 0.0101054 0.0101066 0.0101078 0.010109 0.0101102 0.0101114 0.0101126 
0.0101139 0.0101151 0.0101163 0.0101175 0.0101187 0.0101199 0.0101212 0.0101224 0.0101236 
0.0101248 0.010126 0.0101272 0.0101285 0.0101297 0.0101309 0.0101321 0.0101334 0.0101346 
0.0101358 0.010061 0.0100622 0.0100634 0.0100646 0.0100658 0.010067 0.0100682 0.0100694 
0.0100706 0.0100718 0.010073 0.0100742 0.0100754 0.0100766 0.0100778 0.010079 0.0100802 
0.0100814 0.0100826 0.0100838 0.010085 0.0100862 0.0100874 0.0100887 0.0100899 0.0100911 
0.0100923 0.0100935 0.0100947 0.0100959 0.0100971 0.0100983 0.0100995 0.0101007 0.0101019 
0.0101031 0.0101044 0.0101056 0.0101068 0.010108 0.0101092 0.0101104 0.0101116 0.0101128 
0.0101141 0.0101153 0.0101165 0.0101177 0.0101189 0.0101201 0.0101213 0.0101226 0.0101238 
0.010125 0.0101262 0.0101274 0.0101287 0.0101299 0.0101311 0.0101323 0.0101335 0.0101348 
0.0100601 0.0100613 0.0100625 0.0100636 0.0100648 0.010066 0.0100672 0.0100684 0.0100696 
0.0100708 0.010072 0.0100732 0.0100744 0.0100756 0.0100768 0.010078 0.0100792 0.0100804 
0.0100816 0.0100828 0.010084 0.0100852 0.0100864 0.0100876 0.0100889 0.0100901 0.0100913 
0.0100925 0.0100937 0.0100949 0.0100961 0.0100973 0.0100985 0.0100997 0.0101009 0.0101021 
0.0101033 0.0101045 0.0101058 0.010107 0.0101082 0.0101094 0.0101106 0.0101118 0.010113 
0.0101142 0.0101155 0.0101167 0.0101179 0.0101191 0.0101203 0.0101215 0.0101228 0.010124 
0.0101252 0.0101264 0.0101276 0.0101288 0.0101301 0.0101313 0.0101325 0.0101337 0.0100591 
0.0100603 0.0100615 0.0100627 0.0100639 0.0100651 0.0100662 0.0100674 0.0100686 0.0100698 
0.010071 0.0100722 0.0100734 0.0100746 0.0100758 0.010077 0.0100782 0.0100794 0.0100806 
0.0100818 0.010083 0.0100842 0.0100854 0.0100866 0.0100878 0.0100891 0.0100903 0.0100915 
0.0100927 0.0100939 0.0100951 0.0100963 0.0100975 0.0100987 0.0100999 0.0101011 0.0101023 
0.0101035 0.0101047 0.010106 0.0101072 0.0101084 0.0101096 0.0101108 0.010112 0.0101132 
0.0101144 0.0101156 0.0101169 0.0101181 0.0101193 0.0101205 0.0101217 0.0101229 0.0101242 
0.0101254 0.0101266 0.0101278 0.010129 0.0101302 0.0101315 0.0101327 0.0100581 0.0100593 
0.0100605 0.0100617 0.0100629 0.0100641 0.0100653 0.0100665 0.0100676 0.0100688 0.01007 
0.0100712 0.0100724 0.0100736 0.0100748 0.010076 0.0100772 0.0100784 0.0100796 0.0100808 
0.010082 0.0100832 0.0100844 0.0100856 0.0100868 0.010088 0.0100892 0.0100905 0.0100917 
0.0100929 0.0100941 0.0100953 0.0100965 0.0100977 0.0100989 0.0101001 0.0101013 0.0101025 
0.0101037 0.0101049 0.0101061 0.0101074 0.0101086 0.0101098 0.010111 0.0101122 0.0101134 
0.0101146 0.0101158 0.0101171 0.0101183 0.0101195 0.0101207 0.0101219 0.0101231 0.0101243 
0.0101256 0.0101268 0.010128 0.0101292 0.0101304 0.0101317 0.0100571 0.0100583 0.0100595 
0.0100607 0.0100619 0.0100631 0.0100643 0.0100655 0.0100667 0.0100679 0.0100691 0.0100702 
0.0100714 0.0100726 0.0100738 0.010075 0.0100762 0.0100774 0.0100786 0.0100798 0.010081 
0.0100822 0.0100834 0.0100846 0.0100858 0.010087 0.0100882 0.0100894 0.0100907 0.0100919 
0.0100931 0.0100943 0.0100955 0.0100967 0.0100979 0.0100991 0.0101003 0.0101015 0.0101027 
0.0101039 0.0101051 0.0101063 0.0101075 0.0101088 0.01011 0.0101112 0.0101124 0.0101136 
0.0101148 0.010116 0.0101172 0.0101185 0.0101197 0.0101209 0.0101221 0.0101233 0.0101245 
0.0101257 0.010127 0.0101282 0.0101294 0.0101306 0.0100561 0.0100573 0.0100585 0.0100597 
0.0100609 0.0100621 0.0100633 0.0100645 0.0100657 0.0100669 0.0100681 0.0100693 0.0100704 
0.0100716 0.0100728 0.010074 0.0100752 0.0100764 0.0100776 0.0100788 0.01008 0.0100812 
0.0100824 0.0100836 0.0100848 0.010086 0.0100872 0.0100884 0.0100896 0.0100908 0.0100921 
0.0100933 0.0100945 0.0100957 0.0100969 0.0100981 0.0100993 0.0101005 0.0101017 0.0101029 
0.0101041 0.0101053 0.0101065 0.0101077 0.0101089 0.0101102 0.0101114 0.0101126 0.0101138 
0.010115 0.0101162 0.0101174 0.0101186 0.0101199 0.0101211 0.0101223 0.0101235 0.0101247 
0.0101259 0.0101271 0.0101284 0.0101296 0.0100551 0.0100563 0.0100575 0.0100587 0.0100599 
0.0100611 0.0100623 0.0100635 0.0100647 0.0100659 0.0100671 0.0100683 0.0100695 0.0100707 
0.0100718 0.010073 0.0100742 0.0100754 0.0100766 0.0100778 0.010079 0.0100802 0.0100814 
0.0100826 0.0100838 0.010085 0.0100862 0.0100874 0.0100886 0.0100898 0.010091 0.0100922 
0.0100934 0.0100947 0.0100959 0.0100971 0.0100983 0.0100995 0.0101007 0.0101019 0.0101031 
0.0101043 0.0101055 0.0101067 0.0101079 0.0101091 0.0101103 0.0101116 0.0101128 0.010114 
0.0101152 0.0101164 0.0101176 0.0101188 0.01012 0.0101213 0.0101225 0.0101237 0.0101249 
0.0101261 0.0101273 0.0101285 0.0100542 0.0100553 0.0100565 0.0100577 0.0100589 0.0100601 
0.0100613 0.0100625 0.0100637 0.0100649 0.0100661 0.0100673 0.0100685 0.0100697 0.0100709 
0.010072 0.0100732 0.0100744 0.0100756 0.0100768 0.010078 0.0100792 0.0100804 0.0100816 
0.0100828 0.010084 0.0100852 0.0100864 0.0100876 0.0100888 0.01009 0.0100912 0.0100924 
0.0100936 0.0100948 0.010096 0.0100973 0.0100985 0.0100997 0.0101009 0.0101021 0.0101033 
0.0101045 0.0101057 0.0101069 0.0101081 0.0101093 0.0101105 0.0101117 0.010113 0.0101142 
0.0101154 0.0101166 0.0101178 0.010119 0.0101202 0.0101214 0.0101227 0.0101239 0.0101251 
0.0101263 0.0101275 0.0100532 0.0100544 0.0100556 0.0100567 0.0100579 0.0100591 0.0100603 
0.0100615 0.0100627 0.0100639 0.0100651 0.0100663 0.0100675 0.0100687 0.0100699 0.0100711 
0.0100722 0.0100734 0.0100746 0.0100758 0.010077 0.0100782 0.0100794 0.0100806 0.0100818 
0.010083 0.0100842 0.0100854 0.0100866 0.0100878 0.010089 0.0100902 0.0100914 0.0100926 
0.0100938 0.010095 0.0100962 0.0100974 0.0100986 0.0100999 0.0101011 0.0101023 0.0101035 
0.0101047 0.0101059 0.0101071 0.0101083 0.0101095 0.0101107 0.0101119 0.0101131 0.0101144 
0.0101156 0.0101168 0.010118 0.0101192 0.0101204 0.0101216 0.0101228 0.010124 0.0101253 
0.0101265 0.0100522 0.0100534 0.0100546 0.0100558 0.0100569 0.0100581 0.0100593 0.0100605 
0.0100617 0.0100629 0.0100641 0.0100653 0.0100665 0.0100677 0.0100689 0.0100701 0.0100713 
0.0100724 0.0100736 0.0100748 0.010076 0.0100772 0.0100784 0.0100796 0.0100808 0.010082 
0.0100832 0.0100844 0.0100856 0.0100868 0.010088 0.0100892 0.0100904 0.0100916 0.0100928 
0.010094 0.0100952 0.0100964 0.0100976 0.0100988 0.0101 0.0101012 0.0101025 0.0101037 
0.0101049 0.0101061 0.0101073 0.0101085 0.0101097 0.0101109 0.0101121 0.0101133 0.0101145 
0.0101157 0.010117 0.0101182 0.0101194 0.0101206 0.0101218 0.010123 0.0101242 0.0101254 
0.0100512 0.0100524 0.0100536 0.0100548 0.010056 0.0100571 0.0100583 0.0100595 0.0100607 
0.0100619 0.0100631 0.0100643 0.0100655 0.0100667 0.0100679 0.0100691 0.0100703 0.0100714 
0.0100726 0.0100738 0.010075 0.0100762 0.0100774 0.0100786 0.0100798 0.010081 0.0100822 
0.0100834 0.0100846 0.0100858 0.010087 0.0100882 0.0100894 0.0100906 0.0100918 0.010093 
0.0100942 0.0100954 0.0100966 0.0100978 0.010099 0.0101002 0.0101014 0.0101026 0.0101038 
0.0101051 0.0101063 0.0101075 0.0101087 0.0101099 0.0101111 0.0101123 0.0101135 0.0101147 
0.0101159 0.0101171 0.0101184 0.0101196 0.0101208 0.010122 0.0101232 0.0101244 0.0100502 
0.0100514 0.0100526 0.0100538 0.010055 0.0100562 0.0100573 0.0100585 0.0100597 0.0100609 
0.0100621 0.0100633 0.0100645 0.0100657 0.0100669 0.0100681 0.0100693 0.0100705 0.0100716 
0.0100728 0.010074 0.0100752 0.0100764 0.0100776 0.0100788 0.01008 0.0100812 0.0100824 
0.0100836 0.0100848 0.010086 0.0100872 0.0100884 0.0100896 0.0100908 0.010092 0.0100932 
0.0100944 0.0100956 0.0100968 0.010098 0.0100992 0.0101004 0.0101016 0.0101028 0.010104 
0.0101052 0.0101064 0.0101077 0.0101089 0.0101101 0.0101113 0.0101125 0.0101137 0.0101149 
0.0101161 0.0101173 0.0101185 0.0101197 0.010121 0.0101222 0.0101234 0.0100492 0.0100504 
0.0100516 0.0100528 0.010054 0.0100552 0.0100564 0.0100576 0.0100587 0.0100599 0.0100611 
0.0100623 0.0100635 0.0100647 0.0100659 0.0100671 0.0100683 0.0100695 0.0100706 0.0100718 
0.010073 0.0100742 0.0100754 0.0100766 0.0100778 0.010079 0.0100802 0.0100814 0.0100826 
0.0100838 0.010085 0.0100862 0.0100874 0.0100886 0.0100898 0.010091 0.0100922 0.0100934 
0.0100946 0.0100958 0.010097 0.0100982 0.0100994 0.0101006 0.0101018 0.010103 0.0101042 
0.0101054 0.0101066 0.0101078 0.010109 0.0101103 0.0101115 0.0101127 0.0101139 0.0101151 
0.0101163 0.0101175 0.0101187 0.0101199 0.0101211 0.0101223 0.0100483 0.0100494 0.0100506 
0.0100518 0.010053 0.0100542 0.0100554 0.0100566 0.0100578 0.0100589 0.0100601 0.0100613 
0.0100625 0.0100637 0.0100649 0.0100661 0.0100673 0.0100685 0.0100697 0.0100708 0.010072 
0.0100732 0.0100744 0.0100756 0.0100768 0.010078 0.0100792 0.0100804 0.0100816 0.0100828 
0.010084 0.0100852 0.0100864 0.0100876 0.0100888 0.01009 0.0100912 0.0100924 0.0100936 
0.0100948 0.010096 0.0100972 0.0100984 0.0100996 0.0101008 0.010102 0.0101032 0.0101044 
0.0101056 0.0101068 0.010108 0.0101092 0.0101104 0.0101116 0.0101128 0.0101141 0.0101153 
0.0101165 0.0101177 0.0101189 0.0101201 0.0101213 0.0100473 0.0100485 0.0100496 0.0100508 
0.010052 0.0100532 0.0100544 0.0100556 0.0100568 0.0100579 0.0100591 0.0100603 0.0100615 
0.0100627 0.0100639 0.0100651 0.0100663 0.0100675 0.0100687 0.0100698 0.010071 0.0100722 
0.0100734 0.0100746 0.0100758 0.010077 0.0100782 0.0100794 0.0100806 0.0100818 0.010083 
0.0100842 0.0100854 0.0100866 0.0100878 0.010089 0.0100902 0.0100914 0.0100926 0.0100938 
0.010095 0.0100962 0.0100974 0.0100986 0.0100998 0.010101 0.0101022 0.0101034 0.0101046 
0.0101058 0.010107 0.0101082 0.0101094 0.0101106 0.0101118 0.010113 0.0101142 0.0101154 
0.0101167 0.0101179 0.0101191 0.0101203 0.0100463 0.0100475 0.0100487 0.0100498 0.010051 
0.0100522 0.0100534 0.0100546 0.0100558 0.010057 0.0100581 0.0100593 0.0100605 0.0100617 
0.0100629 0.0100641 0.0100653 0.0100665 0.0100677 0.0100689 0.01007 0.0100712 0.0100724 
0.0100736 0.0100748 0.010076 0.0100772 0.0100784 0.0100796 0.0100808 0.010082 0.0100832 
0.0100844 0.0100856 0.0100868 0.010088 0.0100892 0.0100904 0.0100916 0.0100928 0.010094 
0.0100952 0.0100964 0.0100976 0.0100988 0.0101 0.0101012 0.0101024 0.0101036 0.0101048 
0.010106 0.0101072 0.0101084 0.0101096 0.0101108 0.010112 0.0101132 0.0101144 0.0101156 
0.0101168 0.010118 0.0101192 0.0100453 0.0100465 0.0100477 0.0100489 0.01005 0.0100512 
0.0100524 0.0100536 0.0100548 0.010056 0.0100572 0.0100583 0.0100595 0.0100607 0.0100619 
0.0100631 0.0100643 0.0100655 0.0100667 0.0100679 0.010069 0.0100702 0.0100714 0.0100726 
0.0100738 0.010075 0.0100762 0.0100774 0.0100786 0.0100798 0.010081 0.0100822 0.0100834 
0.0100846 0.0100858 0.0100869 0.0100881 0.0100893 0.0100905 0.0100917 0.0100929 0.0100941 
0.0100953 0.0100965 0.0100977 0.0100989 0.0101001 0.0101013 0.0101025 0.0101037 0.010105 
0.0101062 0.0101074 0.0101086 0.0101098 0.010111 0.0101122 0.0101134 0.0101146 0.0101158 
0.010117 0.0101182 0.0100443 0.0100455 0.0100467 0.0100479 0.0100491 0.0100502 0.0100514 
0.0100526 0.0100538 0.010055 0.0100562 0.0100574 0.0100585 0.0100597 0.0100609 0.0100621 
0.0100633 0.0100645 0.0100657 0.0100669 0.010068 0.0100692 0.0100704 0.0100716 0.0100728 
0.010074 0.0100752 0.0100764 0.0100776 0.0100788 0.01008 0.0100812 0.0100824 0.0100835 
0.0100847 0.0100859 0.0100871 0.0100883 0.0100895 0.0100907 0.0100919 0.0100931 0.0100943 
0.0100955 0.0100967 0.0100979 0.0100991 0.0101003 0.0101015 0.0101027 0.0101039 0.0101051 
0.0101063 0.0101075 0.0101087 0.0101099 0.0101112 0.0101124 0.0101136 0.0101148 0.010116 
0.0101172 0.0100434 0.0100445 0.0100457 0.0100469 0.0100481 0.0100493 0.0100504 0.0100516 
0.0100528 0.010054 0.0100552 0.0100564 0.0100576 0.0100587 0.0100599 0.0100611 0.0100623 
0.0100635 0.0100647 0.0100659 0.010067 0.0100682 0.0100694 0.0100706 0.0100718 0.010073 
0.0100742 0.0100754 0.0100766 0.0100778 0.010079 0.0100802 0.0100813 0.0100825 0.0100837 
0.0100849 0.0100861 0.0100873 0.0100885 0.0100897 0.0100909 0.0100921 0.0100933 0.0100945 
0.0100957 0.0100969 0.0100981 0.0100993 0.0101005 0.0101017 0.0101029 0.0101041 0.0101053 
0.0101065 0.0101077 0.0101089 0.0101101 0.0101113 0.0101125 0.0101137 0.0101149 0.0101162 
0.0100424 0.0100436 0.0100447 0.0100459 0.0100471 0.0100483 0.0100495 0.0100506 0.0100518 
0.010053 0.0100542 0.0100554 0.0100566 0.0100577 0.0100589 0.0100601 0.0100613 0.0100625 
0.0100637 0.0100649 0.0100661 0.0100672 0.0100684 0.0100696 0.0100708 0.010072 0.0100732 
0.0100744 0.0100756 0.0100768 0.010078 0.0100791 0.0100803 0.0100815 0.0100827 0.0100839 
0.0100851 0.0100863 0.0100875 0.0100887 0.0100899 0.0100911 0.0100923 0.0100935 0.0100947 
0.0100959 0.0100971 0.0100983 0.0100995 0.0101007 0.0101019 0.0101031 0.0101043 0.0101055 
0.0101067 0.0101079 0.0101091 0.0101103 0.0101115 0.0101127 0.0101139 0.0101151 0.0100414 
0.0100426 0.0100437 0.0100449 0.0100461 0.0100473 0.0100485 0.0100497 0.0100508 0.010052 
0.0100532 0.0100544 0.0100556 0.0100568 0.0100579 0.0100591 0.0100603 0.0100615 0.0100627 
0.0100639 0.0100651 0.0100662 0.0100674 0.0100686 0.0100698 0.010071 0.0100722 0.0100734 
0.0100746 0.0100758 0.0100769 0.0100781 0.0100793 0.0100805 0.0100817 0.0100829 0.0100841 
0.0100853 0.0100865 0.0100877 0.0100889 0.0100901 0.0100913 0.0100925 0.0100937 0.0100949 
0.0100961 0.0100973 0.0100985 0.0100997 0.0101009 0.0101021 0.0101033 0.0101045 0.0101057 
0.0101069 0.0101081 0.0101093 0.0101105 0.0101117 0.0101129 0.0101141 0.0100404 0.0100416 
0.0100428 0.0100439 0.0100451 0.0100463 0.0100475 0.0100487 0.0100499 0.010051 0.0100522 
0.0100534 0.0100546 0.0100558 0.0100569 0.0100581 0.0100593 0.0100605 0.0100617 0.0100629 
0.0100641 0.0100652 0.0100664 0.0100676 0.0100688 0.01007 0.0100712 0.0100724 0.0100736 
0.0100748 0.0100759 0.0100771 0.0100783 0.0100795 0.0100807 0.0100819 0.0100831 0.0100843 
0.0100855 0.0100867 0.0100879 0.0100891 0.0100903 0.0100915 0.0100927 0.0100939 0.0100951 
0.0100962 0.0100974 0.0100986 0.0100998 0.010101 0.0101022 0.0101034 0.0101046 0.0101058 
0.010107 0.0101082 0.0101095 0.0101107 0.0101119 0.0101131 0.0100394 0.0100406 0.0100418 
0.010043 0.0100441 0.0100453 0.0100465 0.0100477 0.0100489 0.01005 0.0100512 0.0100524 
0.0100536 0.0100548 0.010056 0.0100571 0.0100583 0.0100595 0.0100607 0.0100619 0.0100631 
0.0100642 0.0100654 0.0100666 0.0100678 0.010069 0.0100702 0.0100714 0.0100726 0.0100738 
0.0100749 0.0100761 0.0100773 0.0100785 0.0100797 0.0100809 0.0100821 0.0100833 0.0100845 
0.0100857 0.0100869 0.0100881 0.0100892 0.0100904 0.0100916 0.0100928 0.010094 0.0100952 
0.0100964 0.0100976 0.0100988 0.0101 0.0101012 0.0101024 0.0101036 0.0101048 0.010106 
0.0101072 0.0101084 0.0101096 0.0101108 0.010112 0.0100385 0.0100396 0.0100408 0.010042 
0.0100432 0.0100443 0.0100455 0.0100467 0.0100479 0.0100491 0.0100502 0.0100514 0.0100526 
0.0100538 0.010055 0.0100561 0.0100573 0.0100585 0.0100597 0.0100609 0.0100621 0.0100633 
0.0100644 0.0100656 0.0100668 0.010068 0.0100692 0.0100704 0.0100716 0.0100727 0.0100739 
0.0100751 0.0100763 0.0100775 0.0100787 0.0100799 0.0100811 0.0100823 0.0100835 0.0100847 
0.0100858 0.010087 0.0100882 0.0100894 0.0100906 0.0100918 0.010093 0.0100942 0.0100954 
0.0100966 0.0100978 0.010099 0.0101002 0.0101014 0.0101026 0.0101038 0.010105 0.0101062 
0.0101074 0.0101086 0.0101098 0.010111 0.0100375 0.0100386 0.0100398 0.010041 0.0100422 
0.0100434 0.0100445 0.0100457 0.0100469 0.0100481 0.0100493 0.0100504 0.0100516 0.0100528 
0.010054 0.0100552 0.0100563 0.0100575 0.0100587 0.0100599 0.0100611 0.0100623 0.0100634 
0.0100646 0.0100658 0.010067 0.0100682 0.0100694 0.0100706 0.0100717 0.0100729 0.0100741 
0.0100753 0.0100765 0.0100777 0.0100789 0.0100801 0.0100813 0.0100825 0.0100836 0.0100848 
0.010086 0.0100872 0.0100884 0.0100896 0.0100908 0.010092 0.0100932 0.0100944 0.0100956 
0.0100968 0.010098 0.0100992 0.0101004 0.0101016 0.0101028 0.010104 0.0101052 0.0101064 
0.0101076 0.0101088 0.01011 0.0100365 0.0100377 0.0100388 0.01004 0.0100412 0.0100424 
0.0100436 0.0100447 0.0100459 0.0100471 0.0100483 0.0100494 0.0100506 0.0100518 0.010053 
0.0100542 0.0100553 0.0100565 0.0100577 0.0100589 0.0100601 0.0100613 0.0100624 0.0100636 
0.0100648 0.010066 0.0100672 0.0100684 0.0100696 0.0100707 0.0100719 0.0100731 0.0100743 
0.0100755 0.0100767 0.0100779 0.0100791 0.0100803 0.0100814 0.0100826 0.0100838 0.010085 
0.0100862 0.0100874 0.0100886 0.0100898 0.010091 0.0100922 0.0100934 0.0100946 0.0100958 
0.010097 0.0100982 0.0100994 0.0101005 0.0101017 0.0101029 0.0101041 0.0101053 0.0101065 
0.0101077 0.0101089 0.0100355 0.0100367 0.0100379 0.010039 0.0100402 0.0100414 0.0100426 
0.0100437 0.0100449 0.0100461 0.0100473 0.0100485 0.0100496 0.0100508 0.010052 0.0100532 
0.0100544 0.0100555 0.0100567 0.0100579 0.0100591 0.0100603 0.0100614 0.0100626 0.0100638 
0.010065 0.0100662 0.0100674 0.0100686 0.0100697 0.0100709 0.0100721 0.0100733 0.0100745 
0.0100757 0.0100769 0.0100781 0.0100792 0.0100804 0.0100816 0.0100828 0.010084 0.0100852 
0.0100864 0.0100876 0.0100888 0.01009 0.0100912 0.0100924 0.0100935 0.0100947 0.0100959 
0.0100971 0.0100983 0.0100995 0.0101007 0.0101019 0.0101031 0.0101043 0.0101055 0.0101067 
0.0101079 0.0100345 0.0100357 0.0100369 0.0100381 0.0100392 0.0100404 0.0100416 0.0100428 
0.0100439 0.0100451 0.0100463 0.0100475 0.0100486 0.0100498 0.010051 0.0100522 0.0100534 
0.0100545 0.0100557 0.0100569 0.0100581 0.0100593 0.0100605 0.0100616 0.0100628 0.010064 
0.0100652 0.0100664 0.0100676 0.0100687 0.0100699 0.0100711 0.0100723 0.0100735 0.0100747 
0.0100759 0.010077 0.0100782 0.0100794 0.0100806 0.0100818 0.010083 0.0100842 0.0100854 
0.0100866 0.0100878 0.0100889 0.0100901 0.0100913 0.0100925 0.0100937 0.0100949 0.0100961 
0.0100973 0.0100985 0.0100997 0.0101009 0.0101021 0.0101033 0.0101045 0.0101057 0.0101069 
0.0100336 0.0100347 0.0100359 0.0100371 0.0100383 0.0100394 0.0100406 0.0100418 0.010043 
0.0100441 0.0100453 0.0100465 0.0100477 0.0100488 0.01005 0.0100512 0.0100524 0.0100536 
0.0100547 0.0100559 0.0100571 0.0100583 0.0100595 0.0100606 0.0100618 0.010063 0.0100642 
0.0100654 0.0100666 0.0100677 0.0100689 0.0100701 0.0100713 0.0100725 0.0100737 0.0100749 
0.010076 0.0100772 0.0100784 0.0100796 0.0100808 0.010082 0.0100832 0.0100844 0.0100856 
0.0100867 0.0100879 0.0100891 0.0100903 0.0100915 0.0100927 0.0100939 0.0100951 0.0100963 
0.0100975 0.0100987 0.0100999 0.0101011 0.0101023 0.0101035 0.0101047 0.0101059 0.0100326 
0.0100338 0.0100349 0.0100361 0.0100373 0.0100384 0.0100396 0.0100408 0.010042 0.0100431 
0.0100443 0.0100455 0.0100467 0.0100478 0.010049 0.0100502 0.0100514 0.0100526 0.0100537 
0.0100549 0.0100561 0.0100573 0.0100585 0.0100596 0.0100608 0.010062 0.0100632 0.0100644 
0.0100656 0.0100667 0.0100679 0.0100691 0.0100703 0.0100715 0.0100727 0.0100738 0.010075 
0.0100762 0.0100774 0.0100786 0.0100798 0.010081 0.0100822 0.0100833 0.0100845 0.0100857 
0.0100869 0.0100881 0.0100893 0.0100905 0.0100917 0.0100929 0.0100941 0.0100953 0.0100965 
0.0100977 0.0100988 0.0101 0.0101012 0.0101024 0.0101036 0.0101048 0.0100316 0.0100328 
0.0100339 0.0100351 0.0100363 0.0100375 0.0100386 0.0100398 0.010041 0.0100422 0.0100433 
0.0100445 0.0100457 0.0100469 0.010048 0.0100492 0.0100504 0.0100516 0.0100527 0.0100539 
0.0100551 0.0100563 0.0100575 0.0100586 0.0100598 0.010061 0.0100622 0.0100634 0.0100646 
0.0100657 0.0100669 0.0100681 0.0100693 0.0100705 0.0100717 0.0100728 0.010074 0.0100752 
0.0100764 0.0100776 0.0100788 0.01008 0.0100811 0.0100823 0.0100835 0.0100847 0.0100859 
0.0100871 0.0100883 0.0100895 0.0100907 0.0100919 0.0100931 0.0100942 0.0100954 0.0100966 
0.0100978 0.010099 0.0101002 0.0101014 0.0101026 0.0101038 0.0100306 0.0100318 0.010033 