# vtk DataFile Version 4.0
vtk output
ASCII
DATASET POLYDATA
POINTS 1542 double
43.7715 -6.667 0.125 45.0215 -6.667 0.125 48.7891 -4.167 0.6875 
48.7891 -4.167 0.6875 45.0215 -6.667 0.125 50.959 -5.417 0.40625 
48.7891 -4.167 0.6875 50.959 -5.417 0.40625 53.8067 -1.667 1.25 
53.8067 -1.667 1.25 50.959 -5.417 0.40625 56.8965 -4.167 0.6875 
53.8067 -1.667 1.25 56.8965 -4.167 0.6875 58.795 -1.667 1.25 
58.795 -1.667 1.25 56.8965 -4.167 0.6875 62.834 -2.917 0.96875 
58.795 -1.667 1.25 62.834 -2.917 0.96875 63.7832 -1.667 1.25 
63.7832 -1.667 1.25 62.834 -2.917 0.96875 68.7715 -1.667 1.25 
104.397 20.7863 6.30199 98.1465 20.7863 6.30199 104.397 15.6814 5.15339 
104.397 15.6814 5.15339 98.1465 20.7863 6.30199 98.0728 15.173 5.03899 
104.397 15.6814 5.15339 98.0728 15.173 5.03899 104.397 10.5765 4.00479 
104.397 10.5765 4.00479 98.0728 15.173 5.03899 98.0728 9.55965 3.776 
104.397 10.5765 4.00479 98.0728 9.55965 3.776 104.397 5.47161 2.85619 
104.397 5.47161 2.85619 98.0728 9.55965 3.776 98.459 4.28184 2.58849 
98.459 4.28184 2.58849 98.0728 9.55965 3.776 91.7491 3.94633 2.513 
98.459 4.28184 2.58849 91.7491 3.94633 2.513 92.5215 3.09207 2.32079 
92.5215 3.09207 2.32079 91.7491 3.94633 2.513 86.584 1.90231 2.05309 
86.584 1.90231 2.05309 91.7491 3.94633 2.513 85.4253 3.94633 2.513 
86.584 1.90231 2.05309 85.4253 3.94633 2.513 80.6465 0.712538 1.7854 
80.6465 0.712538 1.7854 85.4253 3.94633 2.513 79.1016 3.94633 2.513 
80.6465 0.712538 1.7854 79.1016 3.94633 2.513 74.709 -0.47723 1.5177 
74.709 -0.47723 1.5177 79.1016 3.94633 2.513 72.7779 3.94633 2.513 
74.709 -0.47723 1.5177 72.7779 3.94633 2.513 68.7715 -1.667 1.25 
68.7715 -1.667 1.25 72.7779 3.94633 2.513 66.4542 3.94633 2.513 
68.7715 -1.667 1.25 66.4542 3.94633 2.513 64.0426 3.18726 2.34221 
64.0426 3.18726 2.34221 66.4542 3.94633 2.513 69.1606 5.61438 2.88831 
69.1606 5.61438 2.88831 66.4542 3.94633 2.513 72.7779 3.94633 2.513 
69.1606 5.61438 2.88831 72.7779 3.94633 2.513 74.2785 8.04151 3.43441 
74.2785 8.04151 3.43441 72.7779 3.94633 2.513 79.1016 3.94633 2.513 
74.2785 8.04151 3.43441 79.1016 3.94633 2.513 79.1016 9.55965 3.776 
79.1016 9.55965 3.776 79.1016 3.94633 2.513 85.4253 3.94633 2.513 
79.1016 9.55965 3.776 85.4253 3.94633 2.513 85.4253 9.55965 3.776 
85.4253 9.55965 3.776 85.4253 3.94633 2.513 91.7491 3.94633 2.513 
85.4253 9.55965 3.776 91.7491 3.94633 2.513 91.7491 9.55965 3.776 
91.7491 9.55965 3.776 91.7491 3.94633 2.513 98.0728 9.55965 3.776 
91.7491 9.55965 3.776 98.0728 9.55965 3.776 91.7491 15.173 5.03899 
91.7491 15.173 5.03899 98.0728 9.55965 3.776 98.0728 15.173 5.03899 
91.7491 15.173 5.03899 98.0728 15.173 5.03899 91.8965 20.7863 6.30199 
91.8965 20.7863 6.30199 98.0728 15.173 5.03899 98.1465 20.7863 6.30199 
91.8965 20.7863 6.30199 85.6465 20.7863 6.30199 91.7491 15.173 5.03899 
91.7491 15.173 5.03899 85.6465 20.7863 6.30199 85.4253 15.173 5.03899 
91.7491 15.173 5.03899 85.4253 15.173 5.03899 91.7491 9.55965 3.776 
91.7491 9.55965 3.776 85.4253 15.173 5.03899 85.4253 9.55965 3.776 
79.3965 20.7863 6.30199 79.3965 15.6275 5.14126 85.6465 20.7863 6.30199 
85.6465 20.7863 6.30199 79.3965 15.6275 5.14126 85.4253 15.173 5.03899 
79.3965 15.6275 5.14126 79.3965 10.4686 3.98052 85.4253 15.173 5.03899 
85.4253 15.173 5.03899 79.3965 10.4686 3.98052 85.4253 9.55965 3.776 
85.4253 9.55965 3.776 79.3965 10.4686 3.98052 79.1016 9.55965 3.776 
79.1016 9.55965 3.776 79.3965 10.4686 3.98052 74.2785 8.04151 3.43441 
68.7715 -1.667 1.25 64.0426 3.18726 2.34221 63.7832 -1.667 1.25 
63.7832 -1.667 1.25 64.0426 3.18726 2.34221 58.9247 0.760129 1.7961 
63.7832 -1.667 1.25 58.9247 0.760129 1.7961 58.795 -1.667 1.25 
58.795 -1.667 1.25 58.9247 0.760129 1.7961 53.8067 -1.667 1.25 
67.3618 4.76135 2.69638 67.4697 4.57226 2.65383 65.8414 4.04029 2.53414 
64.9943 3.48682 2.40961 64.942 3.61377 2.43817 83.1016 9.55965 3.776 
81.4723 10.1557 3.9101 83.4488 9.85766 3.84305 82.4605 10.0067 3.87657 
84.4253 9.55965 3.776 84.4371 9.70866 3.80952 81.1016 9.55965 3.776 
77.5978 9.6156 3.78859 76.1819 8.64063 3.56922 76.0773 8.89454 3.62635 
94.4642 4.08209 2.54355 94.5408 3.4967 2.41183 90.5022 2.68744 2.22975 
47.0079 -5.05446 0.487822 47.1354 -5.26434 0.440597 45.5527 -5.77954 0.324678 
66.744 -2.09384 1.15396 66.7715 -1.667 1.25 65.2774 -1.667 1.25 
67.794 -1.87279 1.2037 67.7715 -1.667 1.25 64.789 -2.50542 1.06136 
88.4373 2.63574 2.21812 88.5431 2.29488 2.14142 81.4253 3.94633 2.513 
76.3184 1.14348 1.88236 75.9398 5.15281 2.78446 101.214 18.2812 5.73834 
101.28 12.8415 4.51441 101.407 7.40408 3.29099 101.062 7.62718 3.34119 
95.1141 6.93338 3.18509 75.9398 2.64715 2.22068 70.4922 0.743797 1.79243 
77.3672 6.75299 3.1445 82.4502 18.148 5.70838 82.5203 12.9061 4.52895 
66.0159 1.16169 1.88645 62.0409 0.855344 1.81753 101.329 18.1865 5.71704 
101.189 12.908 4.52938 69.616 1.92679 2.0586 82.4667 6.5726 3.10391 
82.0602 6.93338 3.18509 88.7904 6.57259 3.10391 88.384 6.93339 3.18509 
94.7077 6.5726 3.10391 95.1141 12.1859 4.36691 94.7077 12.5467 4.44808 
95.146 17.833 5.6375 94.8233 18.1263 5.70349 88.5569 18.1092 5.69965 
88.8387 17.8501 5.64134 88.384 12.5467 4.44808 88.7904 12.1859 4.36691 
82.5928 18.2657 5.73486 82.3016 12.7355 4.49056 46.0784 -5.96567 0.282799 
90.0932 3.29104 2.36556 76.9053 1.73455 2.01535 75.9398 3.94633 2.513 
70.7747 1.13967 1.8815 75.9398 3.94633 2.513 76.6901 5.99392 2.97371 
76.6901 5.99392 2.97371 61.4837 1.97369 2.06916 65.7242 3.71657 2.4613 
77.6418 9.10014 3.67261 64.5185 3.33704 2.37591 64.4923 3.40051 2.39019 
65.3593 3.6017 2.43546 65.3917 3.82703 2.48616 64.7564 3.41193 2.39276 
64.7172 3.50714 2.41418 65.1768 3.54426 2.42253 65.1668 3.7204 2.46216 
83.7635 9.55965 3.776 83.9429 9.78316 3.82629 84.9312 9.63416 3.79276 
84.9253 9.55965 3.776 84.0944 9.55965 3.776 84.19 9.74591 3.8179 
84.6841 9.67141 3.80114 84.6753 9.55965 3.776 68.3152 5.09332 2.77107 
68.2612 5.18787 2.79234 66.6016 4.40082 2.61526 66.962 4.25929 2.58342 
67.269 -1.98331 1.17883 67.2715 -1.667 1.25 68.2715 -1.667 1.25 
68.2828 -1.76989 1.22685 67.8924 4.83279 2.71245 67.8115 4.97461 2.74436 
66.9817 4.58108 2.65582 67.2158 4.41577 2.61862 67.5315 -1.92805 1.19126 
68.0215 -1.667 1.25 68.0384 -1.82134 1.21527 67.5867 4.86798 2.72037 
67.6811 4.70252 2.68314 75.2302 8.34107 3.50182 75.1779 8.46803 3.53038 
76.9119 8.87039 3.62091 76.8375 9.25507 3.70747 47.8985 -4.61073 0.587661 
47.9622 -4.71567 0.564049 46.6069 -5.61501 0.361698 46.2803 -5.417 0.40625 
75.7061 8.49085 3.53552 75.6276 8.68128 3.57836 76.5469 8.75551 3.59506 
76.4574 9.07481 3.66691 47.4532 -4.83259 0.537741 47.5488 -4.99001 0.502323 
46.6441 -5.23573 0.447036 46.8711 -5.43968 0.401148 89.5227 2.49116 2.18559 
89.2653 2.96339 2.29184 87.5636 2.09859 2.09726 87.5107 2.26903 2.13561 
89.0329 2.39302 2.1635 87.974 2.45238 2.17686 88.0533 2.19673 2.11934 
65.7665 -2.29963 1.10766 66.0244 -1.667 1.25 78.3717 9.3299 3.7243 
45.55 -6.31633 0.203899 45.9165 -5.59827 0.365464 45.8142 -6.141 0.243349 
44.6621 -6.22327 0.224839 44.2715 -6.667 0.125 44.2168 -6.44513 0.17492 
45.1074 -6.0014 0.274759 44.9965 -6.32586 0.201756 45.4121 -6.04727 0.264439 
44.6465 -6.667 0.125 96.4999 3.88927 2.50016 96.4616 4.18197 2.56602 
92.7478 3.99626 2.52423 93.5312 3.29439 2.36631 95.4629 4.13203 2.55478 
95.5203 3.69299 2.456 82.1016 9.55965 3.776 80.4344 10.3122 3.94531 
90.9211 3.61868 2.43928 65.2778 -2.40252 1.08451 78.4971 10.0421 3.88455 
64.5303 -1.667 1.25 75.4843 7.01771 3.20406 77.8958 4.97012 2.74335 
79.1016 6.75299 3.1445 77.593 5.2273 2.80122 77.1016 3.94633 2.513 
75.4843 7.01771 3.20406 63.8115 -2.71121 1.01505 64.2137 -2.21717 1.12621 
63.4293 -2.13309 1.14513 77.5207 3.94633 2.513 77.71 2.54491 2.19768 
74.3588 3.94633 2.513 61.354 -0.453434 1.52305 60.2042 1.36691 1.93263 
69.616 3.94633 2.513 71.635 2.34506 2.15271 75.8072 0.62866 1.76652 
67.6128 1.13967 1.8815 69.7731 -0.263666 1.56575 74.3588 3.94633 2.513 
62.7631 2.58047 2.20568 61.7832 -1.667 1.25 73.6053 6.20418 3.02101 
76.1819 8.64063 3.56922 73.5616 2.15115 2.10908 63.9129 0.760129 1.7961 
59.8148 0.315475 1.69606 60.9635 0.567602 1.75278 60.7014 -2.25699 1.11725 
59.795 -1.667 1.25 59.7482 -1.96199 1.18363 61.7677 -2.58699 1.043 
62.7832 -1.667 1.25 62.4459 -2.30602 1.10622 63.188 -2.45091 1.07362 
63.0125 1.47461 1.95686 79.9465 2.17777 2.11507 83.7819 2.83426 2.26278 
82.2142 1.7734 2.02409 78.6272 0.307909 1.69435 79.8016 2.4811 2.18332 
77.71 2.54491 2.19768 78.7683 2.903 2.27825 78.6356 1.60867 1.98703 
76.6681 -0.0846606 1.60603 77.5637 0.964861 1.84217 75.4048 0.223481 1.67536 
48.9315 -5.84384 0.310211 50.0979 -4.92095 0.51786 49.9815 -5.62279 0.359947 
50.5285 -5.16898 0.462055 50.4703 -5.51989 0.383099 49.4435 -4.54398 0.60268 
49.4565 -5.73331 0.335079 49.7758 -5.2302 0.448279 49.0512 -5.14279 0.467946 
49.4416 -4.96453 0.508055 46.9053 -5.417 0.40625 46.9765 -6.25542 0.217605 
47.8472 -4.792 0.546875 48.9378 -4.65037 0.578741 48.3182 -4.4795 0.617187 
48.4079 -5.10225 0.477067 48.708 -5.44729 0.399434 47.954 -6.04963 0.263908 
48.1895 -5.57984 0.369611 47.6451 -5.61116 0.362564 47.1434 -5.81984 0.315611 
47.3763 -5.1045 0.476562 47.8956 -5.23668 0.446822 45.8484 -6.11832 0.248451 
45.999 -6.46121 0.171303 46.3768 -5.76766 0.327351 46.4878 -6.35831 0.194454 
52.0256 -2.55445 1.05032 52.6161 -3.23482 0.89724 52.9161 -2.11073 1.15016 
53.2114 -2.45091 1.07362 50.5703 -3.27954 0.887178 51.2979 -2.917 0.96875 
51.7876 -4.32591 0.651745 51.2574 -3.71585 0.789008 49.6502 -4.66304 0.57589 
50.9041 -4.53236 0.605293 52.2019 -3.78036 0.774493 49.6797 -3.72327 0.787339 
50.3046 -5.04002 0.49107 50.2347 -4.21017 0.677785 87.7491 3.94633 2.513 
84.5647 1.49768 1.96205 82.2899 1.8246 2.03561 82.6056 1.10511 1.87372 
83.8576 2.88546 2.2743 83.4731 1.83364 2.03764 85.3868 2.59094 2.20804 
66.7983 0.358571 1.70575 67.2771 1.95287 2.06447 65.4204 1.77291 2.02398 
68.0243 0.142936 1.65724 68.0826 -0.959827 1.40911 68.3979 -0.762031 1.45362 
60.795 -1.667 1.25 62.003 -0.77769 1.45009 60.4639 -0.00878048 1.6231 
[...]
CELL_DATA 1747
FIELD FieldData 4
electrode_index 1 1747 int
0 0 0 0 0 0 0 0 0 
0 0 0 0 0 0 0 0 0 
0 0 0 0 0 0 0 0 0 
0 0 0 0 0 0 0 0 0 
0 0 0 0 0 0 0 0 0 
0 0 0 0 0 0 0 0 0 
0 0 0 0 0 0 0 0 0 
0 0 0 0 0 0 0 0 0 
0 0 0 0 0 0 0 0 0 
0 0 0 0 0 0 0 0 0 
0 0 0 0 0 0 0 0 0 
0 0 0 0 0 0 0 0 0 
0 0 0 0 0 0 0 0 0 
0 0 0 0 0 0 0 0 0 
0 0 0 0 0 0 0 0 0 
0 0 0 0 0 0 0 0 0 
0 0 0 0 0 0 0 0 0 
0 0 0 0 0 0 0 0 0 
0 0 0 0 0 0 0 0 0 
0 0 0 0 0 0 0 0 0 
0 0 0 0 0 0 0 0 0 
0 0 0 0 0 0 0 0 0 
0 0 0 0 0 0 0 0 0 
0 0 0 0 0 0 0 0 0 
0 0 0 0 0 0 0 0 0 
0 0 0 0 0 0 0 0 0 
0 0 0 0 0 0 0 0 0 
0 0 0 0 0 0 0 0 0 
0 0 0 0 0 0 0 0 0 
0 0 0 0 0 0 0 0 0 
0 0 0 0 0 0 0 0 0 
0 0 0 0 0 0 0 0 0 
0 0 0 0 0 0 0 0 0 
0 0 0 0 0 0 0 0 0 
0 0 0 0 0 0 0 0 0 
0 0 0 0 0 0 0 0 0 
0 0 0 0 0 0 0 0 0 
0 0 0 0 0 0 0 0 0 
0 0 0 0 0 0 0 0 0 
0 0 0 0 0 0 0 0 0 
0 0 0 0 0 0 0 0 0 
0 0 0 0 0 0 0 0 0 
0 0 0 0 0 0 0 0 0 
0 0 0 0 0 0 0 0 0 
0 0 0 0 0 0 0 0 0 
0 0 0 0 0 0 0 0 0 
0 0 0 0 0 0 0 0 0 
0 0 0 0 0 0 0 0 0 
0 0 0 0 0 0 0 0 0 
0 0 0 0 0 0 0 0 0 
0 0 0 0 0 0 0 0 0 
0 0 0 0 0 0 0 0 0 
0 0 0 0 0 0 0 0 0 
0 0 0 0 0 0 0 0 0 
0 0 0 0 0 0 0 0 0 
0 0 0 0 0 0 0 0 0 
0 0 0 0 0 0 0 0 0 
0 0 0 0 0 0 0 0 0 
0 0 0 0 0 0 0 0 0 
0 0 0 0 0 0 0 0 0 
0 0 0 0 0 0 0 0 0 
0 0 0 0 0 0 0 0 0 
0 0 0 0 0 0 0 0 0 
0 0 0 0 0 0 0 0 0 
0 0 0 0 0 0 0 0 0 
0 0 0 0 0 0 0 0 0 
0 0 0 0 0 0 0 0 0 
0 0 0 0 0 0 0 0 0 
0 0 0 0 0 0 0 0 0 
0 0 0 0 0 0 0 0 0 
0 0 0 0 0 0 0 0 0 
0 0 0 0 0 0 0 0 0 
0 0 0 0 0 0 0 0 0 
0 0 0 0 0 0 0 0 0 
0 0 0 0 0 0 0 0 0 
0 0 0 0 0 0 0 0 0 
0 0 0 0 0 0 0 0 0 
0 0 0 0 0 0 0 0 0 
0 0 0 0 0 0 0 0 0 
0 0 0 0 0 0 0 0 0 
0 0 0 0 0 0 0 0 0 
0 0 0 0 0 0 0 0 0 
0 0 0 0 0 0 0 0 0 
0 0 0 0 0 0 0 0 0 
0 0 0 0 0 0 0 0 0 
0 0 0 0 0 0 0 0 0 
0 0 0 0 0 0 0 0 0 
0 0 0 0 0 0 0 0 0 
0 0 0 0 0 0 0 0 0 
0 0 0 0 0 0 0 0 0 
0 0 0 0 0 0 0 0 0 
0 0 0 0 0 0 0 0 0 
0 0 0 0 0 0 0 0 0 
0 0 0 0 0 0 0 0 0 
0 0 0 0 0 0 0 0 0 
0 0 0 0 0 0 0 0 0 
0 0 0 0 0 0 0 0 0 
0 0 0 0 0 0 0 0 0 
0 0 0 0 0 0 0 0 0 
0 0 0 0 0 0 0 0 0 
0 0 0 0 0 0 0 0 0 
0 0 0 0 0 0 0 0 0 
0 0 0 0 0 0 0 0 0 
0 0 0 0 0 0 0 0 0 
0 0 0 0 0 0 0 0 0 
0 0 0 0 0 0 0 0 0 
0 0 0 0 0 0 0 0 0 
0 0 0 0 0 0 0 0 0 
0 0 0 0 0 0 0 0 0 
0 0 0 0 0 0 0 0 0 
0 0 0 0 0 0 0 0 0 
0 0 0 0 0 0 0 0 0 
0 0 0 0 0 0 0 0 0 
0 0 0 0 0 0 0 0 0 
0 0 0 0 0 0 0 0 0 
0 0 0 0 0 0 0 0 0 
0 0 0 0 0 0 0 0 0 
0 0 0 0 0 0 0 0 0 
0 0 0 0 0 0 0 0 1 
1 1 1 1 1 1 1 1 1 
1 1 1 1 1 1 1 1 1 
1 1 1 1 1 1 1 1 1 
1 1 1 1 1 1 1 1 1 
1 1 1 1 1 1 1 1 1 
1 1 1 1 1 1 1 1 1 
1 1 1 1 1 1 1 1 1 
1 1 1 1 1 1 1 1 1 
1 1 1 1 1 1 1 1 1 
1 1 1 1 1 1 1 1 1 
1 1 1 1 1 1 1 1 1 
1 1 1 1 1 1 1 1 1 
1 1 1 1 1 1 1 1 1 
1 1 1 1 1 1 1 1 1 
1 1 1 1 1 1 1 1 1 
1 1 1 1 1 1 1 1 1 
1 1 1 1 1 1 1 1 1 
1 1 1 1 1 1 1 1 1 
1 1 1 1 1 1 1 1 1 
1 1 1 1 1 1 1 1 1 
1 1 1 1 1 1 1 1 1 
1 1 1 1 1 1 1 1 1 
1 1 1 1 1 1 1 1 1 
1 1 1 1 1 1 1 1 1 
1 1 1 1 1 1 1 1 1 
1 1 1 1 1 1 1 1 1 
1 1 1 1 1 1 1 1 1 
1 1 1 1 1 1 1 1 1 
1 1 1 1 1 1 1 1 1 
1 1 1 1 1 1 1 1 1 
1 1 1 1 1 1 1 1 1 
1 1 1 1 1 1 1 1 1 
1 1 1 1 1 1 1 1 1 
1 1 1 1 1 1 1 1 1 
1 1 1 1 1 1 1 1 1 
1 1 1 1 1 1 1 1 1 
1 1 1 1 1 1 1 1 1 
1 1 1 1 1 1 1 1 1 
1 1 1 1 1 1 1 1 1 
1 1 1 1 1 1 1 1 1 
1 1 1 1 1 1 1 1 1 
1 1 1 1 1 1 1 1 1 
1 1 1 1 1 1 1 1 1 
1 1 1 1 1 1 1 1 1 
1 1 1 1 1 1 1 1 1 
1 1 1 1 1 1 1 1 1 
1 1 1 1 1 1 1 1 1 
1 1 1 1 1 1 1 1 1 
1 1 1 1 1 1 1 1 1 
1 1 1 1 1 1 1 1 1 
1 1 1 1 1 1 1 1 1 
1 1 1 1 1 1 1 1 1 
1 1 1 1 1 1 1 1 1 
1 1 1 1 1 1 1 1 1 
1 1 1 1 1 1 1 1 1 
1 1 1 1 1 1 1 1 1 
1 1 1 1 1 1 1 1 1 
1 1 1 1 1 1 1 1 1 
1 1 1 1 1 1 1 1 1 
1 1 1 1 1 1 1 1 1 
1 1 1 1 1 1 1 1 1 
1 1 1 1 1 1 1 1 1 
1 1 1 1 1 1 1 1 1 
1 1 1 1 1 1 1 1 1 
1 1 1 1 1 1 1 1 1 
1 1 1 1 1 1 1 1 1 
1 1 1 1 1 1 1 1 1 
1 1 1 1 1 1 1 1 1 
1 1 1 1 1 1 1 1 1 
1 1 1 1 1 1 1 1 1 
1 1 1 1 1 1 1 1 1 
1 1 1 1 1 1 1 1 1 
1 1 1 1 1 1 1 1 1 
1 1 1 1 1 1 1 1 1 
1 1 1 1 1 1 1 1 1 
1 
charge 1 1747 double
0.313928 0.283013 0.104431 0.0518957 0.0826632 0.362283 0.288011 0.113474 0.0540308 
0.0117134 0.0157923 0.0125315 0.0548777 0.0301125 0.0153749 0.063981 0.0643535 0.088436 
0.0354085 0.0488998 0.0403143 0.0261591 0.0658767 0.0433512 0.0322082 0.0592026 0.0219114 
0.0384059 0.015173 0.0245743 0.0163707 0.0129566 0.0217141 0.0160161 0.0120646 0.0102766 
0.0104321 0.0101039 0.0324 0.0306378 0.0109929 0.00926409 0.00985638 0.0723516 0.0113067 
0.0159429 0.00956989 0.013331 0.0321809 0.0696328 0.0362672 0.0274579 0.0376797 0.0680631 
0.0889483 0.0766514 0.160468 0.0967992 0.0101884 0.0111031 0.0101783 0.0100142 0.0101512 
0.00980383 0.0197843 0.0399327 0.10494 0.0479836 0.187025 0.0792037 0.13479 0.265122 
0.136807 0.19851 0.121495 0.211403 1.44697 0.151359 1.03502 0.089614 0.163565 
0.133215 0.0141675 0.0236071 0.0634164 0.0157867 0.0214423 0.0195205 0.0143571 0.0425777 
0.0304094 0.0221734 0.0659355 0.0149131 0.083494 0.0135467 0.0176319 0.0266737 0.0118337 
0.03924 0.0244256 0.0179752 0.0149002 0.0149881 0.0229722 0.0156647 0.0112553 0.0193703 
0.0114593 0.013468 0.0113398 0.00959123 0.00927736 0.0104242 0.0140169 0.0386755 0.0102969 
0.00950944 0.0163417 0.00971126 0.146345 0.0744489 0.0326532 0.0181956 0.0244521 0.0156234 
0.0158044 0.0137873 0.0265353 0.127187 0.0658066 0.205238 0.230092 0.0700229 0.117295 
0.122439 0.131013 0.0765336 0.0928346 0.0100601 0.00996117 0.00941828 0.00961388 0.00981789 
0.00990292 0.0101323 0.00972707 0.101081 0.128616 0.0548317 0.0932051 0.237867 0.373753 
1.01973 1.96108 0.184901 0.0703753 0.0541826 0.0626672 0.0616687 0.398316 0.54054 
0.537098 0.111843 0.118997 0.0571354 0.133975 0.0343063 0.0606499 0.232309 0.297759 
0.196235 1.35548 0.0643737 0.0378058 0.0453818 0.225773 0.244897 0.122592 0.131036 
0.0885157 0.192429 0.257229 0.204584 0.240023 0.111105 0.187886 0.196977 0.110567 
0.294188 0.0268943 0.22666 0.155869 0.15265 0.363173 0.410797 0.223973 0.188116 
0.173368 0.17482 0.294954 0.199356 0.31231 0.161104 0.113224 0.130376 0.108195 
0.107405 0.0108075 0.0117762 0.0221164 0.108946 0.253007 0.014222 0.505493 0.0132632 
0.0138138 0.0150828 0.0162135 0.079574 0.015955 0.602804 0.908825 0.291466 0.0208188 
0.0254725 0.0175864 0.0883975 0.0257418 0.0221845 0.0187791 0.0203952 0.0287113 0.0187752 
0.0151212 0.0721164 0.0259342 0.0198631 0.015952 0.0174764 0.0301203 0.0382112 0.064538 
0.0376263 0.0359696 0.0467782 0.0366129 0.0379035 0.0610722 0.238742 0.0703097 0.0551627 
0.0490516 0.0818077 0.257185 0.0229974 0.028258 0.103067 0.0218091 0.0469653 0.0230346 
0.0283209 0.257707 0.0516739 0.229199 0.03917 0.0752917 0.0794824 0.148145 0.686701 
0.555434 0.148752 0.26877 0.573787 0.122676 0.0791367 0.140192 0.07681 0.0790308 
0.105549 0.090574 0.414851 0.196969 0.179451 0.0692638 0.0803171 0.160858 0.110494 
0.10154 0.114709 0.209803 0.111247 0.12048 0.0958223 0.553346 0.099418 0.167149 
1.04264 0.0844563 0.0977909 0.0936875 0.168228 0.216075 0.0684703 0.159633 1.21246 
0.0575865 0.114106 0.1028 0.0505185 0.102772 0.0801849 0.15401 0.0486154 0.109171 
0.0655727 0.0909539 0.0670903 0.0557877 0.0807356 0.130787 0.0600574 0.060989 0.136214 
0.17016 0.112125 0.0913249 0.100367 0.053774 0.0361726 0.187135 0.0216195 0.0249963 
0.0310322 0.0480209 0.0608924 0.107669 0.0363577 0.0304459 0.0910826 0.0358984 0.0383044 
0.0505263 0.0341411 0.0730428 0.0321396 0.0304588 0.0846354 0.0317625 0.0474334 0.0265213 
0.0240782 0.0477735 0.047918 0.0496778 0.0490697 0.0343951 0.0347087 0.038189 0.211238 
0.0364084 0.0410932 0.0357396 0.783975 0.0439079 0.120774 0.12495 0.061755 0.186349 
0.0661408 0.123042 0.167731 0.771074 1.16683 0.0582013 0.842016 0.048392 0.0380946 
0.384371 0.137169 0.0974863 0.0374166 0.0621844 0.0633956 0.6295 0.126846 0.296481 
0.0833977 0.0504539 0.122699 0.0214372 0.0345983 0.0419801 0.0666156 0.0240713 0.578437 
0.111547 0.0296077 0.0184539 0.0419007 0.259338 0.0223801 0.038926 0.0354412 0.0290798 
0.0219141 0.0195138 0.0265748 0.0714578 0.0387081 0.0368234 0.0341496 0.0283986 0.0196534 
0.0472018 0.0202852 0.0164203 0.0413904 0.117646 0.0322839 0.0208883 0.0417554 0.0454672 
0.0482231 0.0656786 0.0438212 0.0275637 0.0210027 0.0193138 0.0115167 0.010292 0.0175972 
0.0301291 0.0132555 0.0334083 0.0259572 0.0209847 0.0193429 0.0376568 0.0219938 0.099388 
0.0116503 0.232611 0.26653 0.0661244 0.115215 0.0504157 0.284588 0.0447082 0.0537686 
0.0398007 0.651221 0.112499 0.0409134 0.0505178 0.0426132 0.106525 0.0519545 0.0470826 
0.0423971 0.0589177 0.111056 0.210873 0.183686 0.122494 0.0895284 0.0624105 0.0981273 
0.0455103 0.0417463 0.0245515 0.0347681 0.0520907 0.0119984 0.023097 0.0126801 0.0143433 
0.0184992 0.0119484 0.0107865 0.018648 0.0266492 0.0146776 0.0153934 0.0227966 0.0492477 
0.0845412 0.0292212 0.0866803 0.0120986 0.0201306 0.0135989 0.0379292 0.489393 0.247206 
0.197267 0.172872 0.209549 0.345209 0.00782104 0.00880096 0.00985794 0.00906489 0.00881247 
0.00918755 0.102511 0.11246 0.00984593 0.00922188 0.274741 0.155185 0.108721 0.08028 
1.57749 3.05318 0.907792 2.23587 0.16759 0.169031 0.0928066 0.0852502 1.15405 
3.00765 0.16133 0.107355 0.106753 0.219707 0.393935 0.352544 0.0959239 0.10631 
0.158322 0.142254 0.0883949 0.122558 0.222332 0.181834 0.132043 0.136408 0.135773 
0.160347 0.282882 0.530426 0.34151 0.288472 0.0434787 0.0563115 0.630411 1.03353 
0.245659 0.3699 0.613977 0.519099 0.926058 0.477049 0.381324 0.191603 0.532125 
0.284506 0.12489 0.405778 0.308095 0.156474 0.0968108 0.040631 0.049143 0.0373906 
0.0360988 0.242629 0.244403 0.196945 0.199999 0.20329 0.163744 0.276147 0.201565 
0.124261 0.198292 0.638133 0.234671 1.77511 0.132699 1.0533 0.852226 0.470519 
0.183642 0.438851 0.228921 1.43666 0.69326 1.27294 0.502126 2.04783 2.16706 
0.422934 0.471645 1.25196 0.131605 0.478461 0.129665 0.566791 0.108851 0.251351 
0.0336528 0.0761733 0.0452191 0.0375455 0.111338 0.550232 1.2024 0.177395 0.192163 
0.410276 2.69961 0.155233 0.191363 0.217123 1.3432 0.142436 1.36676 0.490019 
0.199281 0.277203 0.224887 1.26575 0.448719 0.0729534 0.0889927 0.185368 0.184894 
1.34233 0.11555 0.175393 0.168053 0.5528 1.138 1.13327 0.119899 0.858862 
0.538601 0.157144 0.437672 0.127741 0.435951 0.214634 0.0688514 0.364537 0.0471206 
0.0751801 0.163245 0.122583 0.165674 0.0995558 0.161347 0.113556 1.73064 0.757147 
0.606368 0.336793 0.0877868 0.132986 0.0967585 0.133772 0.100561 0.136015 0.560603 
0.519803 0.124193 1.06655 1.97533 1.94551 0.0797369 0.431956 0.14211 0.464523 
0.662268 0.119465 0.235724 0.126038 0.0490594 0.278072 0.304684 0.0805174 0.087149 
0.0996925 0.106993 0.759639 0.125419 0.115313 0.0790745 0.107411 0.628143 0.2646 
0.6423 0.121867 0.713783 0.71927 0.698525 0.141919 0.295906 0.103815 0.133353 
0.251377 0.3402 0.341271 0.344347 0.151402 0.268169 0.173261 0.10702 0.0894004 
0.197103 0.204945 0.48806 0.0991951 1.31109 0.381006 1.39853 0.448542 0.847928 
0.112675 0.104399 0.2706 0.322336 0.951276 0.866471 1.14717 0.524635 0.344283 
0.158448 0.991218 0.166851 1.14742 0.336405 0.0631724 0.233832 0.132544 0.100198 
0.173284 0.0840614 0.154268 0.0693563 0.572091 0.0932189 1.14437 0.385737 0.130474 
0.0544827 0.0794523 0.0478832 0.0606685 0.0792992 0.0641169 0.0553458 0.0585544 0.0567891 
0.078101 0.286214 0.205823 0.0708128 0.0684577 0.0985514 0.128801 0.0654079 0.0900516 
0.133698 0.0612579 0.23632 0.230221 0.0389339 0.0488839 0.0449288 0.0461907 0.58278 
0.28157 0.22328 0.13528 0.295366 0.144141 0.616387 0.373735 0.088717 0.297149 
0.519442 0.101424 0.679688 0.0984411 0.06976 0.10374 0.114734 0.260747 0.107268 
0.105895 0.0925621 0.0616342 0.650609 0.0645163 0.679866 0.198484 0.114391 0.233852 
0.377397 0.0665106 0.0665237 0.400649 0.679573 0.093579 0.10673 0.245374 0.0849945 
0.143384 0.0460222 0.0683313 0.0410805 0.0457006 0.0991233 0.0380997 0.0436599 0.0499403 
0.0476913 0.103638 0.394193 0.0597611 0.103606 0.0668076 0.105957 0.0634281 0.0592044 
0.0365105 0.0381956 0.0381234 0.12476 0.0666174 0.12079 0.040977 0.0278509 0.0801015 
0.0229687 0.0361207 0.253182 0.0620807 0.156747 0.0767141 0.168824 0.413275 0.171286 
0.0292859 0.0284516 0.0327051 0.0334084 0.0345693 0.0457558 0.0572588 0.158097 0.0871935 
0.0611254 0.125484 0.179141 0.0878359 0.0971623 0.265483 0.362594 0.0377569 0.0270327 
0.0586895 0.128143 0.0529285 0.0500771 0.0339753 0.132263 0.0555087 0.330838 0.0498032 
0.0235115 0.0314106 0.111931 0.106209 0.118386 0.0650285 0.0722686 0.110242 0.0580351 
0.187965 0.202258 0.0926766 0.0594354 0.123911 0.0301332 0.0332114 0.0449531 0.0391878 
0.0493724 0.0762101 0.0919216 0.0564165 0.0960132 0.143997 0.0888628 0.155145 0.139028 
0.0763058 0.324407 0.0315692 0.0512952 0.0549197 0.0460119 0.040773 0.0297039 0.0417337 
0.0699378 0.0828132 0.029362 0.0424905 0.0569287 0.0472074 0.0325325 0.027572 0.0272818 
0.0346826 0.0344082 0.0504102 0.0164037 0.0281418 0.0167342 0.048467 0.0237877 0.0131367 
0.014166 0.0118019 0.0105766 0.0148543 0.0204433 0.0141677 0.0113402 0.0816827 0.0476616 
0.0530692 0.14242 0.0374636 0.0863106 0.0317979 0.113116 0.0414906 0.02621 0.0320007 
0.0197978 0.0500123 0.0228691 0.0277935 0.0357985 0.0880731 0.0205164 0.0400571 0.0232311 
0.0215059 0.0275262 0.0347563 0.0239167 0.0193629 0.017383 0.0287811 0.0217224 0.0114693 
0.0133829 0.00991617 0.0144646 0.0189505 0.0179636 0.0168986 0.0236511 0.0240612 0.024415 
0.0188416 0.0160874 0.0244481 0.0291786 0.0121596 0.0396773 0.013943 0.0110075 0.0156022 
0.0290208 0.0450746 0.011398 0.0126774 0.0261717 0.0399126 0.0214887 0.0236611 0.0511154 
0.0565574 0.0245108 0.0183037 0.0467316 0.013022 0.0180097 0.0317636 0.0240616 0.0161304 
0.030803 0.0764741 0.0396819 0.0335815 0.0395002 0.0108769 0.0118035 0.0153419 0.026914 
0.0186866 0.0296491 0.0532417 0.0180084 0.0238942 0.0416894 0.0166384 0.0416214 0.0213605 
0.0223998 0.0181779 0.0128309 0.025016 0.0117194 0.0401289 0.0196326 0.0205537 0.0102556 
0.0195685 0.0110113 0.0127897 0.0126779 0.0123219 0.0104252 0.0110747 0.0144939 0.0136084 
0.014708 0.0105644 0.0111915 0.0097881 0.0099379 0.0100639 0.0117695 0.0098577 0.0132458 
0.0144084 0.0232259 0.0100032 0.0101793 0.0110121 0.00981637 0.0115744 0.0138358 0.0169684 
0.0121236 0.00941814 0.00929927 0.010829 0.0121617 0.00946221 0.0151055 0.0100943 0.00948655 
0.00942784 0.00993185 0.00926357 0.00920757 0.012555 0.016128 0.0219969 0.00919925 -1.97623 
-0.175657 -0.12742 -0.132262 -0.0868238 -0.101479 -0.0587887 -0.0497648 -0.0522791 -0.0683672 
-0.385495 -0.0840141 -0.0431387 -0.0530898 -0.0426066 -0.0691457 -0.038452 -0.0636841 -0.0388668 
-0.0542253 -0.621543 -1.79392 -1.10007 -1.76501 -1.84753 -0.674988 -1.88144 -0.659306 
-0.254387 -0.291032 -0.309852 -0.143762 -1.3856 -0.335988 -0.302079 -1.07856 -1.4776 
-0.42073 -0.188928 -0.141527 -0.190998 -0.100277 -0.425803 -0.780644 -0.544717 -0.0804651 
-0.133209 -1.19904 -0.624923 -0.491062 -1.60882 -1.67046 -1.43107 -0.56607 -0.755628 
-0.778926 -0.912284 -4.26832 -1.39579 -4.52468 -0.98781 -1.3314 -1.42306 -0.870325 
-2.3509 -2.08229 -0.369703 -0.384343 -0.372037 -0.365027 -0.934599 -1.75884 -0.188874 
-0.995382 -3.27422 -0.57731 -0.30279 -0.941548 -0.721512 -1.79674 -0.307013 -0.742031 
-0.210198 -0.238874 -0.32489 -0.349679 -0.512419 -0.247152 -0.267609 -0.314887 -0.30222 
-0.427083 -0.332475 -0.745226 -0.147931 -0.222787 -0.758579 -0.371647 -0.246195 -0.633535 
-0.153152 -0.276483 -0.438008 -0.147805 -0.312418 -0.157211 -0.624931 -0.166759 -0.131723 
-0.117881 -0.121506 -0.128643 -0.172577 -0.166003 -0.115732 -0.126193 -1.58295 -0.108652 
-0.226115 -0.139471 -0.119374 -0.988741 -0.133732 -0.147048 -0.473344 -0.100737 -0.342535 
-0.116633 -0.0933371 -0.109999 -0.159608 -0.212883 -0.151278 -0.0883912 -0.0732412 -0.152002 
-0.0803935 -0.096363 -0.0919503 -0.0735385 -0.109403 -0.101605 -0.0628182 -0.156935 -0.0705449 
-0.0755203 -1.07064 -0.215437 -1.38529 -0.806913 -0.632498 -0.101976 -0.0898471 -0.0667798 
-0.0708003 -0.0718364 -0.0660489 -0.262017 -0.106757 -0.0759506 -0.141422 -0.108504 -0.0849968 
-0.0489288 -0.0836877 -0.0637498 -0.111089 -0.0816411 -0.0635534 -0.0501566 -0.0989596 -0.0546771 
-0.148875 -0.0792998 -0.0698008 -0.163442 -0.319616 -1.04321 -0.15571 -0.369644 -0.26709 
-0.122377 -0.0454892 -0.0504326 -0.0718636 -0.363192 -0.0515407 -0.0643478 -0.0770239 -0.0549192 
-0.0503006 -0.0904658 -0.0583063 -0.0443782 -0.052536 -0.0539354 -0.117959 -0.162748 -0.30248 
-0.138218 -0.18655 -0.0486627 -0.0517839 -0.0457763 -0.0488069 -0.0552865 -0.057263 -0.0731149 
-0.0930316 -0.0511753 -0.0446746 -0.0892115 -0.0470689 -0.255756 -0.54669 -0.351791 -0.0923622 
-0.0477543 -0.0449239 -0.0420282 -0.0436035 -0.0414915 -0.09691 -0.399799 -0.0654914 -0.0628752 
-0.0653971 -0.0474115 -0.0402813 -0.224439 -0.249499 -0.315588 -0.0452808 -0.0575555 -0.0416086 
-0.040193 -0.0636156 -0.094434 -0.086239 -0.0637698 -0.0572596 -0.0555472 -0.0397535 -0.205546 
-0.557243 -0.285546 -0.0396781 -0.0380692 -0.0560264 -0.0612984 -0.0916284 -1.02236 -0.0638772 
-0.0413719 -0.0479522 -0.124985 -0.1914 -0.280178 -0.283397 -0.0384685 -0.0543217 -0.0679526 
-0.0881673 -0.168328 -0.060196 -0.0530667 -0.044289 -2.23631 -1.13078 -2.24607 -6.58953 
-2.23251 -2.70406 -2.89538 -2.43147 -3.24578 -2.22407 -2.18391 -3.3674 -4.2648 
-3.77452 -3.5573 -3.60347 -2.74323 -1.74485 -2.21022 -1.94006 -1.45822 -1.48595 
-1.39801 -2.48337 -3.84775 -1.65765 -2.54107 -2.40545 -0.853206 -0.987335 -1.79169 
-3.45926 -1.28989 -1.07859 -1.31057 -2.78219 -2.30429 -0.86622 -0.951446 -0.955872 
-2.01628 -1.87809 -1.37906 -0.69356 -1.78534 -0.943193 -2.01471 -2.11429 -0.814435 
-0.837652 -0.768634 -0.707577 -2.11615 -0.936198 -2.27275 -3.62102 -0.563471 -1.05913 
-1.46441 -0.941087 -0.912122 -0.471416 -0.325228 -0.306439 -0.592071 -0.796147 -0.455765 
-0.409497 -0.392082 -0.469874 -0.703968 -0.398623 -0.779483 -0.409479 -0.809447 -0.439076 
-0.684296 -0.626959 -1.67907 -0.654539 -0.662608 -0.655201 -0.450591 -0.302994 -1.79827 
-0.700197 -0.664812 -0.634737 -0.390048 -2.01069 -0.580834 -0.298046 -0.91869 -0.31622 
-0.122438 -0.161998 -0.262035 -0.151978 -0.385195 -0.27497 -0.827745 -1.04592 -0.239013 
-0.338036 -0.4004 -0.249743 -0.470983 -0.156979 -1.15046 -1.64581 -0.33493 -0.575716 
-0.159308 -0.149818 -0.305982 -0.280571 -1.53855 -0.798889 -0.343834 -0.301967 -0.393591 
-0.373323 -0.265092 -0.218297 -0.307115 -0.30032 -0.203617 -0.0815379 -0.0572917 -0.168129 
-0.624696 -0.121513 -0.252118 -0.420716 -0.253062 -0.465842 -0.384158 -0.0872858 -0.159242 
-0.131483 -0.0431798 -0.146333 -0.367771 -0.105625 -0.143582 -0.128115 -0.0416498 -0.142117 
-0.328556 -0.0639652 -0.131355 -0.125786 -0.039747 -0.142946 -0.386013 -0.0593364 -0.138998 
-0.120532 -0.0358908 -0.135808 -0.272986 -0.137618 -0.213052 -0.128069 -0.192356 -0.112641 
-0.0758463 -0.0515825 -0.157569 -0.0958907 -0.0737379 -0.0500775 -0.156008 -0.0899718 -0.0712106 
-0.0484971 -0.141786 -0.0865881 -0.0687491 -0.0455404 -0.139516 -0.83482 -0.438312 -0.146073 
-0.826621 -0.263048 -0.234769 -0.632164 -0.340351 -0.149518 -0.314463 -0.524283 -0.15439 
-0.195198 -0.177061 -0.453404 -0.143241 -0.12489 -0.145929 -0.580675 -0.134408 -0.313075 
-0.448473 -0.19927 -0.125891 -0.241521 -0.485218 -0.212754 -0.589994 -0.372225 -0.227732 
-0.230374 -1.29955 -0.136207 -0.111812 -0.331002 -0.151054 -0.109498 -0.1142 -0.599995 
-0.537468 -0.0960615 -0.245636 -0.243412 -0.0880511 -0.370009 -0.360994 -0.210651 -0.121081 
-0.116555 -0.192601 -0.483409 -0.547843 -0.182839 -0.179044 -0.307534 -0.111872 -0.103931 
-0.182854 -0.100126 -0.2906 -0.183363 -0.247191 -0.326156 -0.352224 -0.558384 -0.323458 
-0.0956616 -0.0813726 -0.166141 -0.286487 -0.156407 -0.144804 -0.0857389 -0.120771 -0.0717817 
-0.0785136 -0.084435 -0.0708928 -0.105757 -0.101497 -0.0954214 -0.107893 -0.132038 -0.085252 
-0.159974 -0.120084 -0.182621 -0.119503 -0.0865615 -0.44392 -0.108282 -0.231384 -0.127726 
-0.282093 -0.566569 -0.111398 -0.113122 -0.286759 -0.0704747 -0.237533 -0.0943344 -0.622484 
-0.108317 -0.226068 -0.101143 -0.837078 -0.288937 -0.0956043 -0.0969186 -0.049589 -0.0429683 
-0.0942521 -0.0526075 -0.341958 -0.075608 -0.159092 -0.342425 -0.065665 -0.334547 -0.0625644 
-0.100677 -0.101278 -0.0658631 -0.0776134 -0.0765498 -0.0887532 -0.0646976 -0.103662 -0.187925 
-0.0741968 -0.340894 -0.0578342 -0.0651355 -0.11795 -0.0632226 -0.0611721 -0.0650496 -0.0852354 