# vtk DataFile Version 4.0
vtk output
ASCII
DATASET POLYDATA
POINTS 3964 double
3.39651 21.923 1.25 -2.85349 21.923 1.25 3.39651 16.503 1.25 
3.39651 16.503 1.25 -2.85349 21.923 1.25 -2.63232 16.0255 1.25 
3.39651 16.503 1.25 -2.63232 16.0255 1.25 3.39651 11.083 1.25 
3.39651 11.083 1.25 -2.63232 16.0255 1.25 -2.63232 10.128 1.25 
3.39651 11.083 1.25 -2.63232 10.128 1.25 3.6914 10.128 1.25 
3.6914 10.128 1.25 -2.63232 10.128 1.25 3.6914 4.2305 1.25 
3.6914 10.128 1.25 3.6914 4.2305 1.25 8.51446 8.533 1.25 
8.51446 8.533 1.25 3.6914 4.2305 1.25 10.0151 4.2305 1.25 
8.51446 8.533 1.25 10.0151 4.2305 1.25 13.6324 5.983 1.25 
13.6324 5.983 1.25 10.0151 4.2305 1.25 16.3388 4.2305 1.25 
13.6324 5.983 1.25 16.3388 4.2305 1.25 18.7504 3.433 1.25 
18.7504 3.433 1.25 16.3388 4.2305 1.25 14.0215 -1.667 1.25 
18.7504 3.433 1.25 14.0215 -1.667 1.25 19.0098 -1.667 1.25 
-2.63232 16.0255 1.25 -2.85349 21.923 1.25 -8.95605 16.0255 1.25 
-8.95605 16.0255 1.25 -2.85349 21.923 1.25 -9.10349 21.923 1.25 
-8.95605 16.0255 1.25 -9.10349 21.923 1.25 -15.2798 16.0255 1.25 
-15.2798 16.0255 1.25 -9.10349 21.923 1.25 -15.3535 21.923 1.25 
-15.2798 16.0255 1.25 -15.3535 21.923 1.25 -21.6035 16.5597 1.25 
-21.6035 16.5597 1.25 -15.3535 21.923 1.25 -21.6035 21.923 1.25 
-21.6035 16.5597 1.25 -21.6035 11.1963 1.25 -15.2798 16.0255 1.25 
-15.2798 16.0255 1.25 -21.6035 11.1963 1.25 -15.2798 10.128 1.25 
-15.2798 16.0255 1.25 -15.2798 10.128 1.25 -8.95605 10.128 1.25 
-8.95605 10.128 1.25 -15.2798 10.128 1.25 -8.95605 4.2305 1.25 
-8.95605 10.128 1.25 -8.95605 4.2305 1.25 -2.63232 4.2305 1.25 
-2.63232 4.2305 1.25 -8.95605 4.2305 1.25 -3.79099 2.083 1.25 
-2.63232 4.2305 1.25 -3.79099 2.083 1.25 2.14651 0.833002 1.25 
-21.6035 11.1963 1.25 -21.6035 5.833 1.25 -15.2798 10.128 1.25 
-15.2798 10.128 1.25 -21.6035 5.833 1.25 -15.666 4.583 1.25 
-15.2798 10.128 1.25 -15.666 4.583 1.25 -8.95605 4.2305 1.25 
-8.95605 4.2305 1.25 -15.666 4.583 1.25 -9.72849 3.333 1.25 
-8.95605 4.2305 1.25 -9.72849 3.333 1.25 -3.79099 2.083 1.25 
-2.63232 4.2305 1.25 2.14651 0.833002 1.25 3.6914 4.2305 1.25 
3.6914 4.2305 1.25 2.14651 0.833002 1.25 8.08401 -0.416998 1.25 
3.6914 4.2305 1.25 8.08401 -0.416998 1.25 10.0151 4.2305 1.25 
10.0151 4.2305 1.25 8.08401 -0.416998 1.25 14.0215 -1.667 1.25 
10.0151 4.2305 1.25 14.0215 -1.667 1.25 16.3388 4.2305 1.25 
18.7504 3.433 1.25 19.0098 -1.667 1.25 23.8683 0.883002 1.25 
23.8683 0.883002 1.25 19.0098 -1.667 1.25 23.998 -1.667 1.25 
23.8683 0.883002 1.25 23.998 -1.667 1.25 28.9863 -1.667 1.25 
8.51446 8.533 1.25 3.39651 11.083 1.25 3.6914 10.128 1.25 
-2.63232 10.128 1.25 -2.63232 16.0255 1.25 -8.95605 16.0255 1.25 
-2.63232 10.128 1.25 -8.95605 16.0255 1.25 -8.95605 10.128 1.25 
-8.95605 10.128 1.25 -8.95605 16.0255 1.25 -15.2798 16.0255 1.25 
3.6914 4.2305 1.25 -2.63232 10.128 1.25 -2.63232 4.2305 1.25 
-2.63232 4.2305 1.25 -2.63232 10.128 1.25 -8.95605 10.128 1.25 
16.9603 4.32492 1.25 17.8009 3.74698 1.25 17.8553 3.87896 1.25 
15.4225 5.09109 1.25 15.3112 4.89594 1.25 17.0699 3.98874 1.25 
17.4078 4.10194 1.25 16.1914 4.708 1.25 1.36768 10.128 1.25 
1.31842 10.7538 1.25 6.72436 9.42492 1.25 6.6156 9.16096 1.25 
5.18662 10.1911 1.25 5.1535 9.64448 1.25 5.95549 9.808 1.25 
-12.9505 4.44035 1.25 -11.7518 3.75896 1.25 -13.7089 4.17098 1.25 
-10.9533 4.33543 1.25 -14.6674 4.53054 1.25 -14.6874 4.37699 1.25 
-12.7303 3.96497 1.25 -11.9519 4.38789 1.25 -13.809 4.48544 1.25 
-14.1982 4.27399 1.25 -5.81429 2.50896 1.25 -5.63773 2.85083 1.25 
-7.29689 3.54067 1.25 -7.77139 2.92098 1.25 -4.76954 2.28901 1.25 
-4.71436 2.46692 1.25 -6.46731 3.19575 1.25 -6.79284 2.71497 1.25 
-0.308599 4.2305 1.25 -1.00229 3.07163 1.25 1.05284 2.6285 1.25 
5.33642 2.49002 1.25 5.52954 5.87025 1.25 0.168466 19.3024 1.25 
0.461036 13.4895 1.25 6.67632 6.89325 1.25 16.0307 0.499867 1.25 
-18.568 19.1646 1.25 -18.4245 13.624 1.25 -18.2945 8.08041 1.25 
-18.5887 7.8806 1.25 -11.8813 6.95863 1.25 -15.4187 8.13284 1.25 
6.85326 2.81935 1.25 11.7738 1.64173 1.25 20.7207 0.97662 1.25 
0.374549 19.1236 1.25 0.303149 13.619 1.25 0.29297 7.39988 1.25 
3.6914 6.2305 1.25 -5.72983 19.1433 1.25 -6.07971 18.8052 1.25 
-11.9965 19.1606 1.25 -12.3868 18.7879 1.25 -18.389 19.3181 1.25 
-18.4588 13.5978 1.25 -11.8813 12.8561 1.25 -15.2798 14.0255 1.25 
-12.3545 7.39988 1.25 -8.95605 6.2305 1.25 -5.55761 6.95863 1.25 
-8.95605 8.128 1.25 13.177 2.06888 1.25 -6.03075 13.2974 1.25 
-2.63232 12.128 1.25 -5.55761 12.8561 1.25 -8.95605 14.0255 1.25 
-12.3545 13.2974 1.25 -8.95605 12.128 1.25 0.766109 6.95863 1.25 
-2.63232 8.128 1.25 -6.03075 7.39988 1.25 -2.63232 6.2305 1.25 
18.2757 3.58999 1.25 18.3029 3.65598 1.25 -15.1767 4.48 1.25 
-15.1667 4.55677 1.25 14.5275 5.53705 1.25 14.4718 5.43947 1.25 
7.61941 8.97896 1.25 7.56503 8.84698 1.25 -0.656952 10.4409 1.25 
-0.632322 10.128 1.25 0.57211 1.95232 1.25 2.91895 2.53175 1.25 
0.123206 1.25896 1.25 0.516471 1.99187 1.25 -1.05793 3.11119 1.25 
-1.83389 1.67098 1.25 -0.740398 2.01096 1.25 -2.39241 2.90105 1.25 
3.39651 13.083 1.25 4.16981 0.407044 1.25 6.25574 0.606961 1.25 
-0.308599 4.2305 1.25 11.8423 6.87492 1.25 18.513 3.5115 1.25 
18.5266 3.54449 1.25 18.0552 3.71944 1.25 -14.9201 4.48549 1.25 
-15.4214 4.5315 1.25 -15.4163 4.56989 1.25 14.8915 5.1677 1.25 
14.975 5.31407 1.25 14.0521 5.71124 1.25 14.0799 5.76002 1.25 
7.12402 9.10587 1.25 8.06694 8.75598 1.25 8.03975 8.68999 1.25 
0.367678 10.3641 1.25 -1.64464 10.2845 1.25 -1.63232 10.128 1.25 
1.20608 2.01058 1.25 0.0252793 2.85007 1.25 1.16796 1.03901 1.25 
-0.270727 2.55153 1.25 0.257571 1.65883 1.25 0.92398 1.70216 1.25 
1.33149 1.41244 1.25 1.67868 1.03788 1.25 -0.855344 1.46497 1.25 
-0.0514367 2.07863 1.25 -0.356657 1.64508 1.25 -1.28715 1.84097 1.25 
-1.18554 2.47843 1.25 0.645582 1.14899 1.25 0.9582 1.33829 1.25 
0.601348 1.51789 1.25 1.35931 1.39266 1.25 2.16894 1.92139 1.25 
1.6914 4.2305 1.25 -1.89579 2.38471 1.25 -2.81244 1.87699 1.25 
1.84983 12.351 1.25 -1.47046 6.17925 1.25 3.48241 2.16022 1.25 
3.25034 1.05788 1.25 4.54457 1.56533 1.25 0.691401 3.74177 1.25 
2.01662 3.17261 1.25 6.6156 9.16096 1.25 4.60052 7.97234 1.25 
-6.63232 4.2305 1.25 -4.63232 4.2305 1.25 2.13744 14.793 1.25 
9.17313 6.64457 1.25 10.5918 5.78551 1.25 14.0151 4.2305 1.25 
1.6914 5.01838 1.25 2.46155 8.17925 1.25 5.8877 1.90675 1.25 
10.1073 -0.842956 1.25 -6.63232 4.2305 1.25 3.39651 18.503 1.25 
2.10696 20.213 1.25 8.11205 5.97969 1.25 19.959 -2.917 -0.96875 
19.959 -2.917 0.96875 14.0215 -1.667 -1.25 14.0215 -1.667 -1.25 
19.959 -2.917 0.96875 14.0215 -1.667 1.25 14.0215 -1.667 -1.25 
14.0215 -1.667 1.25 8.08401 -0.416998 -1.25 8.08401 -0.416998 -1.25 
14.0215 -1.667 1.25 8.08401 -0.416998 1.25 8.08401 -0.416998 -1.25 
8.08401 -0.416998 1.25 2.14651 0.833002 -1.25 2.14651 0.833002 -1.25 
8.08401 -0.416998 1.25 2.14651 0.833002 1.25 2.14651 0.833002 -1.25 
2.14651 0.833002 1.25 -3.79099 2.083 -1.25 -3.79099 2.083 -1.25 
2.14651 0.833002 1.25 -3.79099 2.083 1.25 -3.79099 2.083 -1.25 
-3.79099 2.083 1.25 -9.72849 3.333 -1.25 -9.72849 3.333 -1.25 
-3.79099 2.083 1.25 -9.72849 3.333 1.25 -9.72849 3.333 -1.25 
-9.72849 3.333 1.25 -15.666 4.583 -1.25 -15.666 4.583 -1.25 
-9.72849 3.333 1.25 -15.666 4.583 1.25 -15.666 4.583 -1.25 
-15.666 4.583 1.25 -21.6035 5.833 -1.25 -21.6035 5.833 -1.25 
-15.666 4.583 1.25 -21.6035 5.833 1.25 19.959 -2.917 0.96875 
19.959 -2.917 -0.96875 25.8965 -4.167 0.6875 25.8965 -4.167 0.6875 
19.959 -2.917 -0.96875 25.8965 -4.167 -0.6875 25.8965 -4.167 0.6875 
25.8965 -4.167 -0.6875 31.834 -5.417 0.40625 31.834 -5.417 0.40625 
25.8965 -4.167 -0.6875 31.834 -5.417 -0.40625 31.834 -5.417 0.40625 
31.834 -5.417 -0.40625 37.7715 -6.667 0.125 37.7715 -6.667 0.125 
31.834 -5.417 -0.40625 37.7715 -6.667 -0.125 33.8722 -5.8461 -0.223883 
35.744 -6.24016 -0.221039 33.789 -5.82858 -0.313645 35.8219 -6.25655 -0.0494416 
34.7665 -6.03437 -0.267342 34.847 -6.05132 -0.136662 32.8088 -5.62222 -0.319029 
32.8115 -5.62279 -0.359947 34.2778 -5.93147 -0.290493 34.3596 -5.94871 -0.180273 
33.3405 -5.73416 -0.271456 33.3003 -5.72568 -0.336796 33.5446 -5.77713 -0.32522 
33.6064 -5.79013 -0.24767 33.0747 -5.67819 -0.295243 33.0559 -5.67423 -0.348372 
33.1781 -5.69996 -0.342584 32.9418 -5.65021 -0.307136 33.4224 -5.75141 -0.331008 
33.4735 -5.76214 -0.259563 34.0334 -5.88002 -0.302069 33.2076 -5.70618 -0.283349 
32.9337 -5.64851 -0.35416 34.5221 -5.98292 -0.278918 34.1159 -5.8974 -0.202078 
35.2553 -6.13726 -0.244191 35.3345 -6.15393 -0.093052 35.0109 -6.08581 -0.255766 
35.4996 -6.18871 -0.232615 36.7578 -6.45358 -0.17302 36.7967 -6.46177 0.0377792 
34.6033 -6.00001 -0.158468 36.2509 -6.34687 -0.19703 37.2646 -6.56029 -0.14901 
36.3093 -6.35916 -0.00583118 27.9819 -4.60603 -0.30335 29.8065 -4.99016 -0.502289 
29.9079 -5.01151 0.0514499 27.8515 -4.57858 -0.594895 28.829 -4.78437 -0.548592 
26.8595 -4.36974 -0.5101 26.874 -4.37279 -0.641197 28.3403 -4.68147 -0.571743 
27.4207 -4.48788 -0.406725 28.9449 -4.80877 -0.12595 30.8203 -5.20358 -0.45427 
33.8615 -5.84384 0.310211 33.8722 -5.8461 -0.223883 22.1205 -3.37204 -0.365819 
23.869 -3.74016 -0.783539 21.914 -3.32858 -0.876145 22.8915 -3.53437 -0.829842 
20.903 -3.11574 -0.70542 20.9365 -3.12279 -0.922447 24.0085 -3.76952 0.16084 
29.7486 -4.97797 0.0221002 27.924 -4.59384 0.591461 29.879 -5.00542 0.498855 
28.9015 -4.79963 0.545158 30.871 -5.21425 0.22885 30.8565 -5.21121 0.452553 
27.8226 -4.57248 -0.3327 16.2829 -2.14307 -0.404963 17.9315 -2.49016 -1.06479 
21.9865 -3.34384 0.872711 22.1205 -3.37204 -0.365819 15.9765 -2.07858 -1.15739 
14.9405 -1.86048 -0.906572 14.999 -1.87279 -1.2037 32.3214 -5.51961 -0.36264 
32.3228 -5.51989 -0.383099 32.5671 -5.57134 -0.371523 32.5651 -5.57092 -0.340834 
32.687 -5.59657 -0.329932 32.6893 -5.59706 -0.365735 26.3853 -4.26989 -0.664349 
26.378 -4.26837 -0.5988 35.8165 -6.25542 0.217605 35.8219 -6.25655 -0.0494416 
4.46496 0.344907 -0.273809 5.76555 0.0710972 0.273809 -1.47254 1.59491 -0.27381 
-0.171945 1.3211 0.27381 -7.41004 2.84491 -0.27381 4.16981 0.407044 1.25 
[...]
CELL_DATA 3395
FIELD FieldData 4
electrode_index 1 3395 int
0 0 0 0 0 0 0 0 0 
0 0 0 0 0 0 0 0 0 
0 0 0 0 0 0 0 0 0 
0 0 0 0 0 0 0 0 0 
0 0 0 0 0 0 0 0 0 
0 0 0 0 0 0 0 0 0 
0 0 0 0 0 0 0 0 0 
0 0 0 0 0 0 0 0 0 
0 0 0 0 0 0 0 0 0 
0 0 0 0 0 0 0 0 0 
0 0 0 0 0 0 0 0 0 
0 0 0 0 0 0 0 0 0 
0 0 0 0 0 0 0 0 0 
0 0 0 0 0 0 0 0 0 
0 0 0 0 0 0 0 0 0 
0 0 0 0 0 0 0 0 0 
0 0 0 0 0 0 0 0 0 
0 0 0 0 0 0 0 0 0 
0 0 0 0 0 0 0 0 0 
0 0 0 0 0 0 0 0 0 
0 0 0 0 0 0 0 0 0 
0 0 0 0 0 0 0 0 0 
0 0 0 0 0 0 0 0 0 
0 0 0 0 0 0 0 0 0 
0 0 0 0 0 0 0 0 0 
0 0 0 0 0 0 0 0 0 
0 0 0 0 0 0 0 0 0 
0 0 0 0 0 0 0 0 0 
0 0 0 0 0 0 0 0 0 
0 0 0 0 0 0 0 0 0 
0 0 0 0 0 0 0 0 0 
0 0 0 0 0 0 0 0 0 
0 0 0 0 0 0 0 0 0 
0 0 0 0 0 0 0 0 0 
0 0 0 0 0 0 0 0 0 
0 0 0 0 0 0 0 0 0 
0 0 0 0 0 0 0 0 0 
0 0 0 0 0 0 0 0 0 
0 0 0 0 0 0 0 0 0 
0 0 0 0 0 0 0 0 0 
0 0 0 0 0 0 0 0 0 
0 0 0 0 0 0 0 0 0 
0 0 0 0 0 0 0 0 0 
0 0 0 0 0 0 0 0 0 
0 0 0 0 0 0 0 0 0 
0 0 0 0 0 0 0 0 0 
0 0 0 0 0 0 0 0 0 
0 0 0 0 0 0 0 0 0 
0 0 0 0 0 0 0 0 0 
0 0 0 0 0 0 0 0 0 
0 0 0 0 0 0 0 0 0 
0 0 0 0 0 0 0 0 0 
0 0 0 0 0 0 0 0 0 
0 0 0 0 0 0 0 0 0 
0 0 0 0 0 0 0 0 0 
0 0 0 0 0 0 0 0 0 
0 0 0 0 0 0 0 0 0 
0 0 0 0 0 0 0 0 0 
0 0 0 0 0 0 0 0 0 
0 0 0 0 0 0 0 0 0 
0 0 0 0 0 0 0 0 0 
0 0 0 0 0 0 0 0 0 
0 0 0 0 0 0 0 0 0 
0 0 0 0 0 0 0 0 0 
0 0 0 0 0 0 0 0 0 
0 0 0 0 0 0 0 0 0 
0 0 0 0 0 0 0 0 0 
0 0 0 0 0 0 0 0 0 
0 0 0 0 0 0 0 0 0 
0 0 0 0 0 0 0 0 0 
0 0 0 0 0 0 0 0 0 
0 0 0 0 0 0 0 0 0 
0 0 0 0 0 0 0 0 0 
0 0 0 0 0 0 0 0 0 
0 0 0 0 0 0 0 0 0 
0 0 0 0 0 0 0 0 0 
0 0 0 0 0 0 0 0 0 
0 0 0 0 0 0 0 0 0 
0 0 0 0 0 0 0 0 0 
0 0 0 0 0 0 0 0 0 
0 0 0 0 0 0 0 0 0 
0 0 0 0 0 0 0 0 0 
0 0 0 0 0 0 0 0 0 
0 0 0 0 0 0 0 0 0 
0 0 0 0 0 0 0 0 0 
0 0 0 0 0 0 0 0 0 
0 0 0 0 0 0 0 0 0 
0 0 0 0 0 0 0 0 0 
0 0 0 0 0 0 0 0 0 
0 0 0 0 0 0 0 0 0 
0 0 0 0 0 0 0 0 0 
0 0 0 0 0 0 0 0 0 
0 0 0 0 0 0 0 0 0 
0 0 0 0 0 0 0 0 0 
0 0 0 0 0 0 0 0 0 
0 0 0 0 0 0 0 0 0 
0 0 0 0 0 0 0 0 0 
0 0 0 0 0 0 0 0 0 
0 0 0 0 0 0 0 0 0 
0 0 0 0 0 0 0 0 0 
0 0 0 0 0 0 0 0 0 
0 0 0 0 0 0 0 0 0 
0 0 0 0 0 0 0 0 0 
0 0 0 0 0 0 0 0 0 
0 0 0 0 0 0 0 0 0 
0 0 0 0 0 0 0 0 0 
0 0 0 0 0 0 0 0 0 
0 0 0 0 0 0 0 0 0 
0 0 0 0 0 0 0 0 0 
0 0 0 0 0 0 0 0 0 
0 0 0 0 0 0 0 0 0 
0 0 0 0 0 0 0 0 0 
0 0 0 0 0 0 0 0 0 
0 0 0 0 0 0 0 0 0 
0 0 0 0 0 0 0 0 0 
0 0 0 0 0 0 0 0 0 
0 0 0 0 0 0 0 0 0 
0 0 0 0 0 0 0 0 0 
0 0 0 0 0 0 0 0 0 
0 0 0 0 0 0 0 0 0 
0 0 0 0 0 0 0 0 0 
0 0 0 0 0 0 0 0 0 
0 0 0 0 0 0 0 0 0 
0 0 0 0 0 0 0 0 0 
0 0 0 0 0 0 0 0 0 
0 0 0 0 0 0 0 0 0 
0 0 0 0 0 0 0 0 0 
0 0 0 0 0 0 0 0 0 
0 0 0 0 0 0 0 0 0 
0 0 0 0 0 0 0 0 0 
0 0 0 0 0 0 0 0 0 
0 0 0 0 0 0 0 0 0 
0 0 0 0 0 0 0 0 0 
0 0 0 0 0 0 0 0 0 
0 0 0 0 0 0 0 0 0 
0 0 0 0 0 0 0 0 0 
0 0 0 0 0 0 0 0 0 
0 0 0 0 0 0 0 0 0 
0 0 0 0 0 0 0 0 0 
0 0 0 0 0 0 0 0 0 
0 0 0 0 0 0 0 0 0 
0 0 0 0 0 0 0 0 0 
0 0 0 0 0 0 0 0 0 
0 0 0 0 0 0 0 0 0 
0 0 0 0 0 0 0 0 0 
0 0 0 0 0 0 0 0 0 
0 0 0 0 0 0 0 0 0 
0 0 0 0 0 0 0 0 0 
0 0 0 0 0 0 0 0 0 
0 0 0 0 0 0 0 0 1 
1 1 1 1 1 1 1 1 1 
1 1 1 1 1 1 1 1 1 
1 1 1 1 1 1 1 1 1 
1 1 1 1 1 1 1 1 1 
1 1 1 1 1 1 1 1 1 
1 1 1 1 1 1 1 1 1 
1 1 1 1 1 1 1 1 1 
1 1 1 1 1 1 1 1 1 
1 1 1 1 1 1 1 1 1 
1 1 1 1 1 1 1 1 1 
1 1 1 1 1 1 1 1 1 
1 1 1 1 1 1 1 1 1 
1 1 1 1 1 1 1 1 1 
1 1 1 1 1 1 1 1 1 
1 1 1 1 1 1 1 1 1 
1 1 1 1 1 1 1 1 1 
1 1 1 1 1 1 1 1 1 
1 1 1 1 1 1 1 1 1 
1 1 1 1 1 1 1 1 1 
1 1 1 1 1 1 1 1 1 
1 1 1 1 1 1 1 1 1 
1 1 1 1 1 1 1 1 1 
1 1 1 1 1 1 1 1 1 
1 1 1 1 1 1 1 1 1 
1 1 1 1 1 1 1 1 1 
1 1 1 1 1 1 1 1 1 
1 1 1 1 1 1 1 1 1 
1 1 1 1 1 1 1 1 1 
1 1 1 1 1 1 1 1 1 
1 1 1 1 1 1 1 1 1 
1 1 1 1 1 1 1 1 1 
1 1 1 1 1 1 1 1 1 
1 1 1 1 1 1 1 1 1 
1 1 1 1 1 1 1 1 1 
1 1 1 1 1 1 1 1 1 
1 1 1 1 1 1 1 1 1 
1 1 1 1 1 1 1 1 1 
1 1 1 1 1 1 1 1 1 
1 1 1 1 1 1 1 1 1 
1 1 1 1 1 1 1 1 1 
1 1 1 1 1 1 1 1 1 
1 1 1 1 1 1 1 1 1 
1 1 1 1 1 1 1 1 1 
1 1 1 1 1 1 1 1 1 
1 1 1 1 1 1 1 1 1 
1 1 1 1 1 1 1 1 1 
1 1 1 1 1 1 1 1 1 
1 1 1 1 1 1 1 1 1 
1 1 1 1 1 1 1 1 1 
1 1 1 1 1 1 1 1 1 
1 1 1 1 1 1 1 1 1 
1 1 1 1 1 1 1 1 1 
1 1 1 1 1 1 1 1 1 
1 1 1 1 1 1 1 1 1 
1 1 1 1 1 1 1 1 1 
1 1 1 1 1 1 1 1 1 
1 1 1 1 1 1 1 1 1 
1 1 2 2 2 2 2 2 2 
2 2 2 2 2 2 2 2 2 
2 2 2 2 2 2 2 2 2 
2 2 2 2 2 2 2 2 2 
2 2 2 2 2 2 2 2 2 
2 2 2 2 2 2 2 2 2 
2 2 2 2 2 2 2 2 2 
2 2 2 2 2 2 2 2 2 
2 2 2 2 2 2 2 2 2 
2 2 2 2 2 2 2 2 2 
2 2 2 2 2 2 2 2 2 
2 2 2 2 2 2 2 2 2 
2 2 2 2 2 2 2 2 2 
2 2 2 2 2 2 2 2 2 
2 2 2 2 2 2 2 2 2 
2 2 2 2 2 2 2 2 2 
2 2 2 2 2 2 2 2 2 
2 2 2 2 2 2 2 2 2 
2 2 2 2 2 2 2 2 2 
2 2 2 2 2 2 2 2 2 
2 2 2 2 2 2 2 2 2 
2 2 2 2 2 2 2 2 2 
2 2 2 2 2 2 2 2 2 
2 2 2 2 2 2 2 2 2 
2 2 2 2 2 2 2 2 2 
2 2 2 2 2 2 2 2 2 
2 2 2 2 2 2 2 2 2 
2 2 2 2 2 2 2 2 2 
2 2 2 2 2 2 2 2 2 
2 2 2 2 2 2 2 2 2 
2 2 2 2 2 2 2 2 2 
2 2 2 2 2 2 2 2 2 
2 2 2 2 2 2 2 2 2 
2 2 2 2 2 2 2 2 2 
2 2 2 2 2 2 2 2 2 
2 2 2 2 2 2 2 2 2 
2 2 2 2 2 2 2 2 2 
2 2 2 2 2 2 2 2 2 
2 2 2 2 2 2 2 2 2 
2 2 2 2 2 2 2 2 2 
2 2 2 2 2 2 2 2 2 
2 2 2 2 2 2 2 2 2 
2 2 2 2 2 2 2 2 2 
2 2 2 2 2 2 2 2 2 
2 2 2 2 2 2 2 2 2 
2 2 2 2 2 2 2 2 2 
2 2 2 2 2 2 2 2 2 
2 2 2 2 2 2 2 2 2 
2 2 2 2 2 2 2 2 2 
2 2 2 2 2 2 2 2 2 
2 2 2 2 2 2 2 2 2 
2 2 2 2 2 2 2 2 2 
2 2 2 2 2 2 2 2 2 
2 2 2 2 2 2 2 2 2 
2 2 2 2 2 2 2 2 2 
2 2 2 2 2 2 2 2 2 
2 2 2 2 2 2 2 2 2 
2 2 2 2 2 2 2 2 2 
2 2 2 2 2 2 2 2 2 
2 2 2 2 2 2 2 2 2 
2 2 2 2 2 2 2 2 2 
2 2 2 2 2 2 2 2 2 
2 2 2 2 2 2 2 2 2 
2 2 2 2 2 2 2 2 2 
2 2 2 2 2 2 2 2 2 
2 2 2 2 2 2 2 2 2 
2 2 2 2 2 2 2 2 2 
2 2 2 2 2 2 2 2 2 
2 2 2 2 2 2 2 2 2 
2 2 2 2 2 2 2 2 2 
2 2 2 2 2 2 2 2 2 
2 2 2 2 2 2 2 2 2 
2 2 2 2 2 2 2 2 2 
2 2 2 2 2 2 2 2 2 
2 2 2 2 2 2 2 2 2 
2 2 2 2 2 2 2 2 2 
2 2 2 2 2 2 2 2 2 
2 2 2 2 2 2 2 2 2 
2 2 2 2 2 2 2 2 2 
2 2 2 2 2 2 2 2 2 
2 2 2 2 2 2 2 2 2 
2 2 2 2 2 2 2 2 2 
2 2 2 2 2 2 2 2 2 
2 2 2 2 2 2 2 2 2 
2 2 2 2 2 2 2 2 2 
2 2 2 2 2 2 2 2 2 
2 2 2 2 2 2 2 2 2 
2 2 2 2 2 2 2 2 2 
2 2 2 2 2 2 2 2 2 
2 2 2 2 2 2 2 2 2 
2 2 2 2 2 2 2 2 2 
2 2 2 2 2 2 2 2 2 
2 2 2 2 2 2 2 2 2 
2 2 2 2 2 2 2 2 2 
2 2 2 2 2 2 2 2 2 
2 2 2 2 2 2 2 2 2 
2 2 2 2 2 2 2 2 2 
2 2 2 2 2 2 2 2 2 
2 2 2 2 2 2 2 2 2 
2 2 2 2 2 2 2 2 2 
2 2 2 2 2 2 2 2 2 
2 2 2 2 2 2 2 2 2 
2 2 2 2 2 2 2 2 2 
2 2 2 2 2 2 2 2 2 
2 2 2 2 2 2 2 2 2 
2 2 2 2 2 2 2 2 2 
2 2 2 2 2 2 2 2 2 
2 2 2 2 3 3 3 3 3 
3 3 3 3 3 3 3 3 3 
3 3 3 3 3 3 3 3 3 
3 3 3 3 3 3 3 3 3 
3 3 3 3 3 3 3 3 3 
3 3 3 3 3 3 3 3 3 
3 3 3 3 3 3 3 3 3 
3 3 3 3 3 3 3 3 3 
3 3 3 3 3 3 3 3 3 
3 3 3 3 3 3 3 3 3 
3 3 3 3 3 3 3 3 3 
3 3 3 3 3 3 3 3 3 
3 3 3 3 3 3 3 3 3 
3 3 3 3 3 3 3 3 3 
3 3 3 3 3 3 3 3 3 
3 3 3 3 3 3 3 3 3 
3 3 3 3 3 3 3 3 3 
3 3 3 3 3 3 3 3 3 
3 3 3 3 3 3 3 3 3 
3 3 3 3 3 3 3 3 3 
3 3 3 3 3 3 3 3 3 
3 3 3 3 3 3 3 3 3 
3 3 3 3 3 3 3 3 3 
3 3 3 3 3 3 3 3 3 
3 3 3 3 3 3 3 3 3 
3 3 3 3 3 3 3 3 3 
3 3 3 3 3 3 3 3 3 
3 3 3 3 3 3 3 3 3 
3 3 3 3 3 3 3 4 4 
4 4 4 4 4 4 4 4 4 
4 4 4 4 4 4 4 4 4 
4 4 4 4 4 4 4 4 4 
4 4 4 4 4 4 4 4 4 
4 4 4 4 4 4 4 4 4 
4 4 4 4 4 4 4 4 4 
4 4 4 4 4 4 4 4 4 
4 4 4 4 4 4 4 4 4 
4 4 4 4 4 4 4 4 4 
4 4 4 4 4 4 4 4 4 
4 4 4 4 4 4 4 4 4 
4 4 4 4 4 4 4 4 4 
4 4 4 4 4 4 4 4 4 
4 4 4 4 4 4 4 4 4 
4 4 4 4 4 4 4 4 4 
4 4 4 4 4 4 4 4 4 
4 4 4 4 4 4 4 4 4 
4 4 4 4 4 4 4 4 4 
4 4 4 4 4 4 4 4 4 
4 4 4 4 4 4 4 4 4 
4 4 4 4 4 4 4 4 4 
4 4 4 4 4 4 4 4 4 
4 4 4 4 4 4 4 4 4 
4 4 4 4 4 4 4 4 4 
4 4 4 4 4 4 4 4 4 
4 4 4 4 4 4 4 4 4 
4 4 4 4 4 4 4 4 4 
4 4 4 4 4 4 4 4 4 
4 4 4 4 4 4 4 4 4 
4 4 4 4 4 4 4 4 4 
4 4 4 4 4 4 4 4 4 
4 4 4 4 4 4 4 4 4 
4 4 4 4 4 4 4 4 4 
4 4 4 4 4 4 4 4 4 
4 4 
charge 1 3395 double
0.119882 0.00874099 0.11739 0.00558678 0.0277942 0.0100346 0.0220892 0.00720568 0.0113604 
0.0437979 0.132204 0.0166422 0.0101905 0.00473818 0.0174288 0.00448944 0.0165405 0.00675863 
0.0214318 0.00641035 0.00668365 0.00438804 0.00446453 0.00547035 0.00739147 0.00858017 0.00611954 
0.0109161 0.00628332 0.010413 0.0134439 0.00867119 0.00976403 0.00718413 0.00786887 0.0127224 
0.0168457 0.0176609 0.0426478 0.0899544 0.00470104 0.00420913 0.0042186 0.00499638 0.00460731 
0.229996 0.338105 0.353717 0.226645 0.159062 0.144119 0.208527 0.173039 0.0054166 
0.0183162 0.25875 0.138609 0.202525 0.0661881 0.106128 0.0146708 0.0189858 0.0300756 
0.0160981 0.0448269 0.0474892 0.0228547 0.0116716 0.0199781 0.0282928 0.0171469 0.0213753 
0.00990436 0.0157113 0.0208937 0.0398599 0.010621 0.0130956 0.0058772 0.00617879 0.00741606 
0.00594028 0.0145342 0.0173765 0.0132276 0.0220026 0.00771514 0.0159369 0.0133709 0.00802138 
0.0173863 0.0183608 0.00570093 0.00662899 0.00464738 0.0077296 0.0158502 0.0108129 0.0634389 
0.00553351 0.0110816 0.00856991 0.00425532 0.00602141 0.00782162 0.0064857 0.0069512 0.00656529 
0.00733975 0.00456578 0.00443746 0.00439363 0.00523048 0.00520797 0.0080028 0.00424445 0.00972681 
0.00457138 0.00434889 0.00461877 0.00438013 0.00424724 0.00554879 0.00413091 0.00435135 0.0047883 
0.00491433 0.625689 0.473501 0.0614333 0.0756771 0.376191 0.365026 0.356116 0.295194 
-0.00306497 0.00197977 0.00696157 0.0093983 0.00752154 0.00797028 0.00618838 0.012314 0.00950482 
0.00900966 0.00721967 0.015211 0.00769958 0.0930072 0.00902949 0.00728992 0.00514618 0.0646597 
1.32468 0.801571 0.555085 0.292313 0.0697339 0.0389593 0.11942 0.177365 0.290007 
0.211486 0.436214 0.762222 0.156486 0.134752 0.532177 0.749845 0.00907925 0.00583366 
-0.00681936 -0.000167614 0.0067312 0.00594954 0.0062386 0.00718203 0.00700497 0.0179706 0.012436 
0.0214171 0.0187384 0.0103992 0.0139163 0.0153614 0.0288169 0.0168057 0.00928692 0.00882128 
0.00794001 0.0135947 0.00784219 0.0190761 0.00715321 0.00725723 0.0140493 0.0102345 0.00915369 
0.0125852 0.0108948 0.00827433 0.0086956 0.00636244 0.00593901 0.0133244 0.0122896 0.0495109 
0.00833717 0.00531571 0.00535717 0.00631497 0.00677135 0.0193108 0.0108917 0.0104122 0.00704342 
0.00570744 0.00676431 0.00610216 0.0343994 0.00837196 0.00766227 0.00723813 0.0189711 0.0068946 
0.0167937 0.0135995 0.0581978 0.0251597 0.0211874 0.00576276 0.00580143 0.00781101 0.00672041 
0.00641565 0.0111081 0.00477649 0.0421243 0.0595386 0.0229427 0.0129214 0.00968536 0.0156524 
0.012761 0.0170232 0.0175491 0.0114925 0.00915881 0.00931998 0.00936757 0.00986803 0.0128376 
0.0105802 0.0112577 0.0130739 0.0197404 0.0149974 0.0207327 0.0203989 0.0281706 0.0270754 
0.0860158 0.0796654 0.0664877 0.074206 0.120067 0.0701115 0.0856121 0.0770627 0.0790596 
0.0678344 0.0723939 0.0765258 0.0956675 0.0751447 0.0943354 0.0771774 0.0960761 0.0956767 
0.0770643 0.09619 0.0963807 0.0912326 0.0959023 0.0769266 0.0967105 0.0929573 0.108994 
0.115101 0.104829 0.111372 0.104063 0.134905 0.10073 0.11537 0.136954 0.131124 
0.0282538 0.0281059 0.03032 0.0415325 0.0378082 0.0360854 0.0595154 0.0407438 0.0288411 
0.0393799 0.0399637 0.0385368 0.0768717 0.0174746 0.0228661 0.0390049 0.0274655 0.0218666 
0.043237 0.0238339 0.0274549 0.0251152 0.0549882 0.0317822 0.0391675 0.0525418 0.0250721 
0.0140085 0.0184223 0.0193522 0.0203072 0.0257433 0.0155369 0.028619 0.0948125 0.0963661 
0.095567 0.0811985 0.0929735 0.0768045 0.0763117 0.0780478 0.0808814 0.104822 0.0108138 
0.010715 0.011064 0.00923427 0.0150452 0.00921332 0.00927808 0.00946768 0.00990526 0.0205608 
0.0110144 0.0197096 0.0127929 0.00979925 0.00928699 0.00944257 0.0137915 0.0157057 0.00927214 
0.0208978 0.0100865 0.00939283 0.0102233 0.0101533 0.00978137 0.00941754 0.0113071 0.0112329 
0.00951291 0.0188932 0.0121398 0.0347888 0.0108259 0.00913573 0.00978123 0.00999868 0.0120692 
0.00933052 0.0157813 0.00909851 0.214867 0.125903 0.0830708 0.0918812 0.103282 0.133022 
0.128256 0.0884565 0.116266 0.109282 0.0450594 0.0388153 0.0913823 0.164626 0.0450312 
0.0484658 0.0995552 0.172059 0.0309629 0.0115835 0.00936013 0.00940139 0.00938888 0.00924096 
0.00935954 0.011071 0.0106136 0.00954241 0.00933976 0.00948168 0.0100582 0.010033 0.0094588 
0.0179868 0.0115157 0.0136246 0.014911 0.016344 0.0117141 0.0319586 0.0161248 0.0298083 
0.0154647 0.0243308 0.0133556 0.0216097 0.0107222 0.0167727 0.0121781 0.0156237 0.0117389 
0.0103565 0.0101372 0.0123128 0.0112912 0.0282938 0.0116007 0.010073 0.0125044 0.0182149 
0.0110866 0.00964346 0.0173051 0.0122272 0.0126981 0.010871 0.0103206 0.00939547 0.0193009 
0.0148933 0.0233425 0.00920284 0.00983566 0.00988071 0.0114915 0.00950533 0.0171176 0.00912585 
0.0207244 0.017007 0.0113618 0.0147119 0.0148775 0.0294855 0.00911692 0.00922128 0.0084968 
0.0104394 0.0155668 0.00948163 0.0114064 0.0108757 0.0158261 0.0105112 0.0162335 0.0112759 
0.00927216 0.0123556 0.0117455 0.0157199 0.0157718 0.0144926 0.0130119 0.0103726 0.0138325 
0.0112994 0.00857741 0.0101456 0.0103723 0.0191328 0.0131281 0.0156883 0.0191083 0.0239427 
0.0466483 0.0467184 0.110221 0.165227 0.166697 0.137476 0.238989 0.17957 0.0284513 
0.017514 0.0318238 0.0131578 0.0139296 0.41261 0.276984 0.183636 0.419804 0.719977 
0.359227 0.813481 0.721522 0.781026 0.720812 0.725668 0.724953 0.736423 0.744154 
0.723833 0.716499 0.716779 0.714663 0.714343 0.714051 0.773294 0.763927 0.767964 
0.741683 0.823852 0.74122 0.912361 0.807141 0.926142 0.761395 0.765165 0.942586 
0.889156 0.903353 0.85475 0.873196 0.843955 0.745797 0.719999 0.716036 0.794706 
0.74091 0.910883 1.37801 0.747687 0.921028 0.716453 0.721434 0.719065 0.740557 
0.728965 0.750528 0.731132 0.719427 0.717146 0.728873 0.714005 0.718775 0.724674 
0.735907 0.718429 0.714197 0.734693 0.754133 0.717136 0.721357 0.71387 0.715328 
0.751344 0.743352 0.717309 0.719085 0.717326 0.747807 0.7197 0.718173 0.710673 
0.725458 0.718409 0.722659 0.71831 0.717924 0.740668 0.700393 0.716749 0.715248 
0.720354 0.71919 0.714737 0.715667 0.715858 0.714415 0.715677 0.715628 0.720241 
0.714857 0.729543 0.714984 0.715331 0.714907 0.720306 0.711652 0.704312 0.717215 
0.72001 0.717536 0.772514 0.714309 0.729801 0.71736 0.71754 0.715651 0.715463 
0.719485 0.715902 0.714624 0.71552 0.716046 0.714003 0.939487 0.791139 0.752837 
0.72804 0.72615 0.713797 0.714249 0.713867 0.713918 0.713663 0.833476 0.757321 
0.714388 0.71481 0.714004 0.717868 0.728707 0.713915 0.737878 0.733863 0.716118 
0.71515 0.714913 0.717046 0.720545 0.71413 0.714913 0.714738 0.714062 0.869489 
0.759248 0.781379 0.716627 0.729307 0.713903 0.7141 0.713938 0.713932 0.713979 
0.884761 0.795591 0.777831 0.728314 0.715134 0.714181 0.71472 0.715632 0.723824 
0.714343 0.774672 0.713509 0.714118 0.715873 0.740408 0.713908 0.718089 0.728956 
0.714515 0.714055 0.722153 0.714038 0.722436 0.716028 0.708033 0.714757 0.719133 
0.714311 0.771481 0.716264 0.721323 0.714504 0.714167 0.714786 0.716879 0.720497 
0.715071 0.730065 0.77207 0.7149 0.715194 0.714716 0.717051 0.714719 0.721424 
0.713013 0.71991 0.717535 0.713797 0.731602 0.72618 0.714046 0.712889 0.713011 
0.716748 0.716091 0.715908 0.713706 0.714107 0.741889 0.714039 0.721474 0.720716 
0.726552 0.714301 0.711763 0.713865 0.819337 0.727965 0.713823 0.714223 0.713952 
0.714127 0.383849 0.656382 0.716184 0.818668 0.289937 0.71471 0.733031 0.714338 
0.407357 0.7144 0.714118 0.742427 0.761769 0.729476 0.716638 0.726007 0.720762 
0.728951 0.71941 0.725108 0.722185 0.718641 0.71427 0.737901 0.714006 0.730054 
0.7173 0.71357 0.737903 0.797845 0.718366 1.4199 1.03307 0.992611 0.798931 
1.23758 1.45707 0.897171 0.715191 0.905693 0.931341 0.699097 0.848143 0.837312 
0.785113 0.729303 0.760236 0.698315 0.727744 0.736618 0.719913 0.716901 0.716499 
0.716011 0.715293 0.725461 0.725101 0.714689 0.734946 0.51828 0.719462 0.715742 
0.730609 0.71306 0.721949 0.724047 0.736257 0.71438 0.714559 0.714486 0.714931 
0.71505 0.716201 0.715074 0.714777 0.715082 0.714555 0.714601 0.714259 0.714125 
0.713989 0.714162 0.714164 0.714298 0.71718 0.715459 0.714382 0.714368 0.714166 
0.734565 0.978717 0.726941 0.727753 0.71546 0.782765 0.714214 0.714361 0.72088 
0.7144 0.714128 0.715003 0.71685 0.714705 0.722228 0.719016 0.714285 0.714057 
0.714413 0.736465 0.771716 0.713927 0.696617 0.723876 0.714798 0.715236 0.714082 
0.713685 0.722654 0.713759 0.713967 0.730277 0.715574 0.714037 0.714787 0.713934 
0.803338 0.741552 0.714538 0.714538 0.716274 0.724259 0.715356 0.715345 0.715204 
0.714787 0.715366 0.715405 0.715774 0.708375 0.715603 0.715116 0.714803 0.715049 
0.720037 0.715249 0.715727 0.733148 0.726188 0.716225 0.716095 0.715227 0.716614 
0.713533 0.714272 0.738867 0.715081 0.714376 0.714826 0.714881 0.71442 0.724301 
0.7632 0.714251 0.728448 0.715841 0.715806 0.728893 0.886349 0.730039 0.714569 
0.713731 0.722935 0.736043 0.715598 0.768553 0.966658 0.720803 0.727216 0.715098 
0.820361 0.713412 0.71403 0.715983 0.714878 0.715672 0.714333 0.714147 0.715283 
0.715749 0.714968 0.714274 0.716366 0.714704 0.714202 0.713878 0.724703 0.721368 
0.851434 0.71558 0.73858 0.718336 0.722511 0.714869 0.71414 0.719563 0.720806 
0.714071 0.727181 0.714633 0.741616 0.71697 0.71695 0.733596 0.885495 0.719368 
0.714238 0.718184 0.714132 0.713835 0.776248 0.714159 0.71396 0.713974 0.721669 
0.733097 0.716865 0.716339 0.72922 0.761928 0.715445 0.715681 0.314392 0.763683 
0.715104 0.708349 0.564601 0.719179 0.717715 0.714308 0.715848 0.714723 0.715387 
0.714607 0.713668 0.713882 0.715036 0.71481 0.714806 0.713949 0.713874 0.715015 
0.717008 0.720077 0.717118 0.716608 0.718176 0.716931 0.718191 0.717893 0.725802 
0.723283 0.716446 0.708733 0.715998 0.718974 0.720786 0.719841 0.715012 0.715955 
0.714848 0.71575 0.722058 0.729402 0.715282 0.715035 0.732806 0.715764 0.71575 
0.714802 0.715425 0.844976 0.726067 0.85064 0.732042 0.733797 0.861617 0.717617 
0.713411 0.729305 0.717558 0.718214 0.706794 0.723756 0.729919 0.718134 0.721474 
0.720351 0.727922 0.721816 0.71964 0.721978 0.715059 0.717254 0.715244 0.717441 
0.725199 0.723795 0.716979 0.713986 0.713758 0.760445 0.71366 0.731766 0.701 
0.714227 0.716858 0.713417 0.716709 0.778836 0.717979 0.729018 0.715818 0.719989 
0.717282 0.725767 0.719032 0.720142 0.714444 0.719739 0.726385 0.718868 0.714142 
0.715415 0.734242 0.721169 0.716333 0.717514 0.715876 0.716171 0.723957 0.723393 
0.726085 0.717895 0.715648 0.728219 0.714002 0.718083 0.79977 0.724239 0.719585 
0.718512 0.715334 0.71709 0.717028 0.716862 0.71959 0.717788 0.82929 0.716799 
0.719442 0.716764 0.716901 0.800741 0.722763 0.718 0.528964 0.12583 0.254402 
0.192028 0.172919 0.12957 0.467658 0.202043 0.277925 0.221271 0.174689 0.0469795 
0.0457003 0.0238852 0.0192119 0.0154657 0.0134214 0.0183754 0.522079 0.205193 0.287848 
0.115613 0.151933 0.0127224 0.0218434 0.0249743 0.0152895 0.0213919 0.0245318 0.0383284 
0.0167433 0.0192797 0.0129619 0.0128065 0.0105461 0.781541 0.358618 0.213364 0.172306 
0.935624 0.41019 0.0214207 0.00710506 0.0175198 0.00455651 0.0196759 0.00561869 0.00772931 
0.0111321 0.0130502 0.00695572 0.00733362 0.00892823 0.00668646 0.00772949 0.0115009 0.00980864 
0.0166367 0.149614 0.014827 0.0708975 0.00991986 0.00763603 0.00653912 0.00487865 0.00508943 
0.00439554 0.00423374 0.00416828 0.00439882 0.00647074 0.00697148 0.00689414 0.00731224 0.00426921 
0.00465651 0.042549 0.0106009 0.0187896 0.00872841 0.0300567 0.0637088 0.0152853 0.0163859 
0.0175657 0.0429361 0.227263 0.235471 0.178046 0.54904 0.212981 0.344727 0.238468 
0.1386 0.00570173 0.00931091 0.0203522 0.00105228 0.00355155 0.00137018 -0.00256716 0.00403799 
0.00840677 0.0914951 0.351481 0.213006 0.100839 0.130898 0.0285758 0.0181961 0.0206814 
0.0109662 0.0241435 0.0121073 0.00614974 0.00896104 0.022001 0.00709033 0.00627267 0.00642285 
0.0064413 0.0113902 0.00544732 0.00706144 0.00707931 0.0628933 0.00810501 0.0139069 0.0621162 
0.016242 0.00995526 0.0157777 0.0083289 0.00693062 0.00663267 0.0119835 0.0055418 0.00771058 
0.00949693 0.00539998 0.00504431 0.00436484 0.00459792 0.00479369 0.00519624 0.00426647 0.00441563 
0.00436448 0.00420402 0.00459424 0.00436346 0.00447607 0.017996 0.0188751 0.00470002 0.00432618 
0.00415334 0.00466688 0.00901559 0.00567521 0.562826 0.464581 -0.0069971 -0.00538775 0.374364 
0.295535 0.258036 0.345136 0.0242552 0.0210833 0.00650942 0.00748595 0.00621724 0.00751835 
0.0117112 0.00717022 0.0135188 0.00596196 0.00646335 0.00666873 0.0619878 0.0487598 1.28411 
0.883119 0.352239 0.293289 -0.00065661 0.000562156 -0.00551706 -0.0113182 0.786029 0.459949 
0.182809 0.257463 0.136557 0.156851 0.390832 0.741147 0.0587428 0.0430884 0.0129671 
0.0145251 0.014161 0.0106978 0.0104014 0.011317 0.0243317 0.00963221 0.00736137 0.0123776 