# vtk DataFile Version 4.0
vtk output
ASCII
DATASET STRUCTURED_POINTS
DIMENSIONS 62 62 62
SPACING 0.05 0.05 0.05
ORIGIN -1.525 -1.525 -1.525
POINT_DATA 238328
FIELD FieldData 1
potential 1 238328 double
0.00896672 0.00896991 0.0089731 0.0089763 0.0089795 0.0089827 0.0089859 0.00898911 0.00899232 
0.00899553 0.00899874 0.00900196 0.00900518 0.0090084 0.00901162 0.00901484 0.00901807 0.0090213 
0.00902453 0.00902777 0.009031 0.00903424 0.00903749 0.00904073 0.00904398 0.00904723 0.00905048 
0.00905373 0.00905699 0.00906025 0.00906351 0.00906677 0.00907004 0.00907331 0.00907658 0.00907985 
0.00908313 0.00908641 0.00908969 0.00909297 0.00909626 0.00909954 0.00910284 0.00910613 0.00910942 
0.00911272 0.00911602 0.00911933 0.00912263 0.00912594 0.00912925 0.00913256 0.00913588 0.0091392 
0.00914252 0.00914584 0.00914917 0.0091525 0.00915583 0.00915916 0.0091625 0.00916583 0.00896883 
0.00897202 0.00897522 0.00897841 0.00898162 0.00898482 0.00898802 0.00899123 0.00899444 0.00899766 
0.00900087 0.00900409 0.00900731 0.00901053 0.00901376 0.00901698 0.00902021 0.00902344 0.00902668 
0.00902992 0.00903315 0.0090364 0.00903964 0.00904289 0.00904614 0.00904939 0.00905264 0.0090559 
0.00905915 0.00906242 0.00906568 0.00906895 0.00907221 0.00907548 0.00907876 0.00908203 0.00908531 
0.00908859 0.00909188 0.00909516 0.00909845 0.00910174 0.00910503 0.00910833 0.00911163 0.00911493 
0.00911823 0.00912153 0.00912484 0.00912815 0.00913147 0.00913478 0.0091381 0.00914142 0.00914474 
0.00914807 0.0091514 0.00915473 0.00915806 0.00916139 0.00916473 0.00916807 0.00897093 0.00897413 
0.00897733 0.00898053 0.00898373 0.00898694 0.00899015 0.00899336 0.00899657 0.00899978 0.009003 
0.00900622 0.00900944 0.00901267 0.00901589 0.00901912 0.00902235 0.00902559 0.00902882 0.00903206 
0.0090353 0.00903855 0.00904179 0.00904504 0.00904829 0.00905155 0.0090548 0.00905806 0.00906132 
0.00906459 0.00906785 0.00907112 0.00907439 0.00907766 0.00908094 0.00908422 0.0090875 0.00909078 
0.00909406 0.00909735 0.00910064 0.00910393 0.00910723 0.00911053 0.00911383 0.00911713 0.00912043 
0.00912374 0.00912705 0.00913037 0.00913368 0.009137 0.00914032 0.00914364 0.00914697 0.00915029 
0.00915362 0.00915696 0.00916029 0.00916363 0.00916697 0.00917031 0.00897304 0.00897624 0.00897944 
0.00898264 0.00898585 0.00898906 0.00899227 0.00899548 0.00899869 0.00900191 0.00900513 0.00900835 
0.00901157 0.0090148 0.00901803 0.00902126 0.0090245 0.00902773 0.00903097 0.00903421 0.00903745 
0.0090407 0.00904395 0.0090472 0.00905045 0.00905371 0.00905697 0.00906023 0.00906349 0.00906675 
0.00907002 0.00907329 0.00907656 0.00907984 0.00908312 0.0090864 0.00908968 0.00909296 0.00909625 
0.00909954 0.00910283 0.00910613 0.00910943 0.00911273 0.00911603 0.00911933 0.00912264 0.00912595 
0.00912926 0.00913258 0.00913589 0.00913921 0.00914254 0.00914586 0.00914919 0.00915252 0.00915585 
0.00915919 0.00916252 0.00916586 0.00916921 0.00917255 0.00897515 0.00897835 0.00898155 0.00898476 
0.00898797 0.00899117 0.00899439 0.0089976 0.00900082 0.00900404 0.00900726 0.00901048 0.00901371 
0.00901694 0.00902017 0.0090234 0.00902664 0.00902988 0.00903312 0.00903636 0.0090396 0.00904285 
0.0090461 0.00904936 0.00905261 0.00905587 0.00905913 0.00906239 0.00906566 0.00906892 0.00907219 
0.00907547 0.00907874 0.00908202 0.0090853 0.00908858 0.00909186 0.00909515 0.00909844 0.00910173 
0.00910503 0.00910832 0.00911162 0.00911493 0.00911823 0.00912154 0.00912485 0.00912816 0.00913147 
0.00913479 0.00913811 0.00914143 0.00914476 0.00914808 0.00915141 0.00915474 0.00915808 0.00916142 
0.00916476 0.0091681 0.00917144 0.00917479 0.00897726 0.00898046 0.00898367 0.00898687 0.00899008 
0.00899329 0.00899651 0.00899972 0.00900294 0.00900616 0.00900939 0.00901261 0.00901584 0.00901907 
0.0090223 0.00902554 0.00902878 0.00903202 0.00903526 0.00903851 0.00904175 0.009045 0.00904826 
0.00905151 0.00905477 0.00905803 0.00906129 0.00906456 0.00906782 0.00907109 0.00907436 0.00907764 
0.00908092 0.0090842 0.00908748 0.00909076 0.00909405 0.00909734 0.00910063 0.00910392 0.00910722 
0.00911052 0.00911382 0.00911712 0.00912043 0.00912374 0.00912705 0.00913037 0.00913368 0.009137 
0.00914032 0.00914365 0.00914697 0.0091503 0.00915364 0.00915697 0.00916031 0.00916365 0.00916699 
0.00917033 0.00917368 0.00917703 0.00897937 0.00898257 0.00898578 0.00898899 0.0089922 0.00899541 
0.00899863 0.00900185 0.00900507 0.00900829 0.00901152 0.00901474 0.00901797 0.00902121 0.00902444 
0.00902768 0.00903092 0.00903416 0.00903741 0.00904065 0.0090439 0.00904716 0.00905041 0.00905367 
0.00905693 0.00906019 0.00906345 0.00906672 0.00906999 0.00907326 0.00907654 0.00907981 0.00908309 
0.00908637 0.00908966 0.00909294 0.00909623 0.00909952 0.00910282 0.00910611 0.00910941 0.00911271 
0.00911602 0.00911932 0.00912263 0.00912594 0.00912926 0.00913257 0.00913589 0.00913921 0.00914254 
0.00914586 0.00914919 0.00915252 0.00915586 0.0091592 0.00916253 0.00916588 0.00916922 0.00917257 
0.00917592 0.00917927 0.00898148 0.00898468 0.00898789 0.0089911 0.00899431 0.00899753 0.00900075 
0.00900397 0.00900719 0.00901042 0.00901364 0.00901687 0.00902011 0.00902334 0.00902658 0.00902982 
0.00903306 0.00903631 0.00903955 0.0090428 0.00904605 0.00904931 0.00905256 0.00905582 0.00905909 
0.00906235 0.00906562 0.00906889 0.00907216 0.00907543 0.00907871 0.00908199 0.00908527 0.00908855 
0.00909184 0.00909513 0.00909842 0.00910171 0.00910501 0.0091083 0.00911161 0.00911491 0.00911821 
0.00912152 0.00912483 0.00912815 0.00913146 0.00913478 0.0091381 0.00914143 0.00914475 0.00914808 
0.00915141 0.00915475 0.00915808 0.00916142 0.00916476 0.00916811 0.00917145 0.0091748 0.00917815 
0.00918151 0.00898358 0.00898679 0.00899 0.00899322 0.00899643 0.00899965 0.00900287 0.00900609 
0.00900932 0.00901254 0.00901577 0.00901901 0.00902224 0.00902548 0.00902872 0.00903196 0.0090352 
0.00903845 0.0090417 0.00904495 0.0090482 0.00905146 0.00905472 0.00905798 0.00906124 0.00906451 
0.00906778 0.00907105 0.00907432 0.0090776 0.00908088 0.00908416 0.00908744 0.00909073 0.00909402 
0.00909731 0.0091006 0.0091039 0.00910719 0.00911049 0.0091138 0.0091171 0.00912041 0.00912372 
0.00912704 0.00913035 0.00913367 0.00913699 0.00914031 0.00914364 0.00914697 0.0091503 0.00915363 
0.00915697 0.00916031 0.00916365 0.00916699 0.00917034 0.00917368 0.00917703 0.00918039 0.00918374 
0.00898569 0.0089889 0.00899212 0.00899533 0.00899855 0.00900177 0.00900499 0.00900821 0.00901144 
0.00901467 0.0090179 0.00902114 0.00902437 0.00902761 0.00903085 0.0090341 0.00903734 0.00904059 
0.00904384 0.0090471 0.00905035 0.00905361 0.00905687 0.00906014 0.0090634 0.00906667 0.00906994 
0.00907321 0.00907649 0.00907977 0.00908305 0.00908633 0.00908962 0.00909291 0.0090962 0.00909949 
0.00910278 0.00910608 0.00910938 0.00911269 0.00911599 0.0091193 0.00912261 0.00912592 0.00912924 
0.00913255 0.00913587 0.0091392 0.00914252 0.00914585 0.00914918 0.00915251 0.00915585 0.00915919 
0.00916253 0.00916587 0.00916922 0.00917257 0.00917592 0.00917927 0.00918262 0.00918598 0.0089878 
0.00899101 0.00899423 0.00899744 0.00900066 0.00900389 0.00900711 0.00901034 0.00901357 0.0090168 
0.00902003 0.00902327 0.00902651 0.00902975 0.00903299 0.00903624 0.00903949 0.00904274 0.00904599 
0.00904925 0.0090525 0.00905576 0.00905903 0.00906229 0.00906556 0.00906883 0.0090721 0.00907538 
0.00907866 0.00908194 0.00908522 0.0090885 0.00909179 0.00909508 0.00909838 0.00910167 0.00910497 
0.00910827 0.00911157 0.00911488 0.00911818 0.00912149 0.00912481 0.00912812 0.00913144 0.00913476 
0.00913808 0.00914141 0.00914473 0.00914806 0.0091514 0.00915473 0.00915807 0.00916141 0.00916475 
0.0091681 0.00917144 0.00917479 0.00917815 0.0091815 0.00918486 0.00918822 0.00898991 0.00899312 
0.00899634 0.00899956 0.00900278 0.009006 0.00900923 0.00901246 0.00901569 0.00901892 0.00902216 
0.0090254 0.00902864 0.00903188 0.00903513 0.00903838 0.00904163 0.00904488 0.00904813 0.00905139 
0.00905465 0.00905792 0.00906118 0.00906445 0.00906772 0.00907099 0.00907427 0.00907754 0.00908082 
0.00908411 0.00908739 0.00909068 0.00909397 0.00909726 0.00910055 0.00910385 0.00910715 0.00911045 
0.00911376 0.00911707 0.00912038 0.00912369 0.009127 0.00913032 0.00913364 0.00913696 0.00914029 
0.00914361 0.00914694 0.00915028 0.00915361 0.00915695 0.00916029 0.00916363 0.00916697 0.00917032 
0.00917367 0.00917702 0.00918038 0.00918374 0.0091871 0.00919046 0.00899202 0.00899523 0.00899845 
0.00900167 0.0090049 0.00900812 0.00901135 0.00901458 0.00901781 0.00902105 0.00902429 0.00902753 
0.00903077 0.00903402 0.00903726 0.00904051 0.00904377 0.00904702 0.00905028 0.00905354 0.0090568 
0.00906007 0.00906333 0.0090666 0.00906988 0.00907315 0.00907643 0.00907971 0.00908299 0.00908627 
0.00908956 0.00909285 0.00909614 0.00909944 0.00910273 0.00910603 0.00910934 0.00911264 0.00911595 
0.00911926 0.00912257 0.00912588 0.0091292 0.00913252 0.00913584 0.00913916 0.00914249 0.00914582 
0.00914915 0.00915249 0.00915582 0.00915916 0.00916251 0.00916585 0.0091692 0.00917255 0.0091759 
0.00917925 0.00918261 0.00918597 0.00918933 0.0091927 0.00899412 0.00899734 0.00900056 0.00900379 
0.00900701 0.00901024 0.00901347 0.0090167 0.00901994 0.00902318 0.00902642 0.00902966 0.0090329 
0.00903615 0.0090394 0.00904265 0.00904591 0.00904917 0.00905243 0.00905569 0.00905895 0.00906222 
0.00906549 0.00906876 0.00907203 0.00907531 0.00907859 0.00908187 0.00908516 0.00908844 0.00909173 
0.00909502 0.00909832 0.00910161 0.00910491 0.00910822 0.00911152 0.00911483 0.00911813 0.00912145 
0.00912476 0.00912808 0.0091314 0.00913472 0.00913804 0.00914137 0.0091447 0.00914803 0.00915136 
0.0091547 0.00915804 0.00916138 0.00916472 0.00916807 0.00917142 0.00917477 0.00917813 0.00918148 
0.00918484 0.00918821 0.00919157 0.00919494 0.00899623 0.00899945 0.00900267 0.0090059 0.00900913 
0.00901236 0.00901559 0.00901883 0.00902206 0.0090253 0.00902855 0.00903179 0.00903504 0.00903829 
0.00904154 0.00904479 0.00904805 0.00905131 0.00905457 0.00905783 0.0090611 0.00906437 0.00906764 
0.00907092 0.00907419 0.00907747 0.00908075 0.00908404 0.00908732 0.00909061 0.0090939 0.0090972 
0.00910049 0.00910379 0.00910709 0.0091104 0.0091137 0.00911701 0.00912032 0.00912364 0.00912695 
0.00913027 0.00913359 0.00913692 0.00914024 0.00914357 0.0091469 0.00915024 0.00915357 0.00915691 
0.00916025 0.0091636 0.00916694 0.00917029 0.00917364 0.009177 0.00918035 0.00918371 0.00918708 
0.00919044 0.00919381 0.00919718 0.00899834 0.00900156 0.00900479 0.00900801 0.00901124 0.00901448 
0.00901771 0.00902095 0.00902419 0.00902743 0.00903067 0.00903392 0.00903717 0.00904042 0.00904368 
0.00904693 0.00905019 0.00905345 0.00905672 0.00905998 0.00906325 0.00906652 0.0090698 0.00907307 
0.00907635 0.00907963 0.00908291 0.0090862 0.00908949 0.00909278 0.00909607 0.00909937 0.00910267 
0.00910597 0.00910927 0.00911258 0.00911589 0.0091192 0.00912251 0.00912583 0.00912914 0.00913247 
0.00913579 0.00913912 0.00914244 0.00914577 0.00914911 0.00915244 0.00915578 0.00915912 0.00916247 
0.00916581 0.00916916 0.00917251 0.00917587 0.00917922 0.00918258 0.00918594 0.00918931 0.00919267 
0.00919604 0.00919941 0.00900045 0.00900367 0.0090069 0.00901013 0.00901336 0.00901659 0.00901983 
0.00902307 0.00902631 0.00902956 0.0090328 0.00903605 0.0090393 0.00904256 0.00904581 0.00904907 
0.00905233 0.0090556 0.00905886 0.00906213 0.0090654 0.00906867 0.00907195 0.00907523 0.00907851 
0.00908179 0.00908508 0.00908837 0.00909166 0.00909495 0.00909824 0.00910154 0.00910484 0.00910815 
0.00911145 0.00911476 0.00911807 0.00912138 0.0091247 0.00912802 0.00913134 0.00913466 0.00913799 
0.00914131 0.00914464 0.00914798 0.00915131 0.00915465 0.00915799 0.00916134 0.00916468 0.00916803 
0.00917138 0.00917473 0.00917809 0.00918145 0.00918481 0.00918817 0.00919154 0.00919491 0.00919828 
0.00920165 0.00900255 0.00900578 0.00900901 0.00901224 0.00901548 0.00901871 0.00902195 0.00902519 
0.00902844 0.00903168 0.00903493 0.00903818 0.00904143 0.00904469 0.00904795 0.00905121 0.00905447 
0.00905774 0.00906101 0.00906428 0.00906755 0.00907082 0.0090741 0.00907738 0.00908067 0.00908395 
0.00908724 0.00909053 0.00909382 0.00909712 0.00910041 0.00910372 0.00910702 0.00911032 0.00911363 
0.00911694 0.00912025 0.00912357 0.00912689 0.00913021 0.00913353 0.00913685 0.00914018 0.00914351 
0.00914685 0.00915018 0.00915352 0.00915686 0.0091602 0.00916355 0.0091669 0.00917025 0.0091736 
0.00917695 0.00918031 0.00918367 0.00918704 0.0091904 0.00919377 0.00919714 0.00920052 0.00920389 
0.00900466 0.00900789 0.00901112 0.00901436 0.00901759 0.00902083 0.00902407 0.00902731 0.00903056 
0.00903381 0.00903706 0.00904031 0.00904357 0.00904682 0.00905009 0.00905335 0.00905661 0.00905988 
0.00906315 0.00906642 0.0090697 0.00907298 0.00907626 0.00907954 0.00908282 0.00908611 0.0090894 
0.00909269 0.00909599 0.00909929 0.00910259 0.00910589 0.00910919 0.0091125 0.00911581 0.00911912 
0.00912244 0.00912575 0.00912907 0.0091324 0.00913572 0.00913905 0.00914238 0.00914571 0.00914905 
0.00915238 0.00915572 0.00915907 0.00916241 0.00916576 0.00916911 0.00917246 0.00917582 0.00917917 
0.00918254 0.0091859 0.00918926 0.00919263 0.009196 0.00919938 0.00920275 0.00920613 0.00900677 
0.00901 0.00901323 0.00901647 0.00901971 0.00902295 0.00902619 0.00902944 0.00903268 0.00903593 
0.00903919 0.00904244 0.0090457 0.00904896 0.00905222 0.00905549 0.00905875 0.00906202 0.0090653 
0.00906857 0.00907185 0.00907513 0.00907841 0.00908169 0.00908498 0.00908827 0.00909156 0.00909486 
0.00909815 0.00910145 0.00910476 0.00910806 0.00911137 0.00911468 0.00911799 0.0091213 0.00912462 
0.00912794 0.00913126 0.00913459 0.00913791 0.00914124 0.00914458 0.00914791 0.00915125 0.00915459 
0.00915793 0.00916127 0.00916462 0.00916797 0.00917132 0.00917468 0.00917804 0.0091814 0.00918476 
0.00918812 0.00919149 0.00919486 0.00919823 0.00920161 0.00920499 0.00920837 0.00900888 0.00901211 
0.00901534 0.00901858 0.00902182 0.00902507 0.00902831 0.00903156 0.00903481 0.00903806 0.00904131 
0.00904457 0.00904783 0.00905109 0.00905436 0.00905763 0.00906089 0.00906417 0.00906744 0.00907072 
0.009074 0.00907728 0.00908056 0.00908385 0.00908714 0.00909043 0.00909372 0.00909702 0.00910032 
0.00910362 0.00910693 0.00911023 0.00911354 0.00911685 0.00912017 0.00912348 0.0091268 0.00913013 
0.00913345 0.00913678 0.00914011 0.00914344 0.00914677 0.00915011 0.00915345 0.00915679 0.00916013 
0.00916348 0.00916683 0.00917018 0.00917354 0.00917689 0.00918025 0.00918362 0.00918698 0.00919035 
0.00919372 0.00919709 0.00920047 0.00920384 0.00920722 0.00921061 0.00901098 0.00901422 0.00901746 
0.0090207 0.00902394 0.00902718 0.00903043 0.00903368 0.00903693 0.00904019 0.00904344 0.0090467 
0.00904996 0.00905323 0.00905649 0.00905976 0.00906304 0.00906631 0.00906959 0.00907286 0.00907615 
0.00907943 0.00908272 0.00908601 0.0090893 0.00909259 0.00909589 0.00909919 0.00910249 0.00910579 
0.0091091 0.00911241 0.00911572 0.00911903 0.00912235 0.00912567 0.00912899 0.00913231 0.00913564 
0.00913897 0.0091423 0.00914563 0.00914897 0.00915231 0.00915565 0.00915899 0.00916234 0.00916569 
0.00916904 0.00917239 0.00917575 0.00917911 0.00918247 0.00918584 0.0091892 0.00919257 0.00919595 
0.00919932 0.0092027 0.00920608 0.00920946 0.00921284 0.00901309 0.00901633 0.00901957 0.00902281 
0.00902605 0.0090293 0.00903255 0.0090358 0.00903906 0.00904231 0.00904557 0.00904883 0.0090521 
0.00905536 0.00905863 0.0090619 0.00906518 0.00906845 0.00907173 0.00907501 0.0090783 0.00908158 
0.00908487 0.00908816 0.00909145 0.00909475 0.00909805 0.00910135 0.00910465 0.00910796 0.00911127 
0.00911458 0.00911789 0.00912121 0.00912453 0.00912785 0.00913117 0.0091345 0.00913782 0.00914116 
0.00914449 0.00914783 0.00915116 0.00915451 0.00915785 0.0091612 0.00916454 0.0091679 0.00917125 
0.00917461 0.00917796 0.00918133 0.00918469 0.00918806 0.00919143 0.0091948 0.00919817 0.00920155 
0.00920493 0.00920831 0.0092117 0.00921508 0.0090152 0.00901844 0.00902168 0.00902492 0.00902817 
0.00903142 0.00903467 0.00903792 0.00904118 0.00904444 0.0090477 0.00905096 0.00905423 0.0090575 
0.00906077 0.00906404 0.00906732 0.00907059 0.00907388 0.00907716 0.00908044 0.00908373 0.00908702 
0.00909032 0.00909361 0.00909691 0.00910021 0.00910351 0.00910682 0.00911013 0.00911344 0.00911675 
0.00912007 0.00912338 0.0091267 0.00913003 0.00913335 0.00913668 0.00914001 0.00914335 0.00914668 
0.00915002 0.00915336 0.0091567 0.00916005 0.0091634 0.00916675 0.0091701 0.00917346 0.00917682 
0.00918018 0.00918354 0.00918691 0.00919028 0.00919365 0.00919702 0.0092004 0.00920378 0.00920716 
0.00921054 0.00921393 0.00921732 0.0090173 0.00902055 0.00902379 0.00902704 0.00903028 0.00903354 
0.00903679 0.00904004 0.0090433 0.00904656 0.00904983 0.00905309 0.00905636 0.00905963 0.0090629 
0.00906618 0.00906946 0.00907274 0.00907602 0.00907931 0.00908259 0.00908588 0.00908918 0.00909247 
0.00909577 0.00909907 0.00910237 0.00910568 0.00910898 0.00911229 0.00911561 0.00911892 0.00912224 
0.00912556 0.00912888 0.00913221 0.00913554 0.00913887 0.0091422 0.00914554 0.00914887 0.00915221 
0.00915556 0.0091589 0.00916225 0.0091656 0.00916895 0.00917231 0.00917567 0.00917903 0.00918239 
0.00918576 0.00918913 0.0091925 0.00919587 0.00919925 0.00920263 0.00920601 0.00920939 0.00921278 
0.00921617 0.00921956 0.00901941 0.00902266 0.0090259 0.00902915 0.0090324 0.00903565 0.00903891 
0.00904217 0.00904543 0.00904869 0.00905195 0.00905522 0.00905849 0.00906176 0.00906504 0.00906832 
0.0090716 0.00907488 0.00907816 0.00908145 0.00908474 0.00908803 0.00909133 0.00909463 0.00909793 
0.00910123 0.00910453 0.00910784 0.00911115 0.00911446 0.00911778 0.00912109 0.00912441 0.00912774 
0.00913106 0.00913439 0.00913772 0.00914105 0.00914439 0.00914772 0.00915106 0.00915441 0.00915775 
0.0091611 0.00916445 0.0091678 0.00917116 0.00917452 0.00917788 0.00918124 0.00918461 0.00918797 
0.00919134 0.00919472 0.00919809 0.00920147 0.00920485 0.00920824 0.00921162 0.00921501 0.0092184 
0.0092218 0.00902152 0.00902476 0.00902801 0.00903126 0.00903451 0.00903777 0.00904103 0.00904429 
0.00904755 0.00905081 0.00905408 0.00905735 0.00906062 0.0090639 0.00906718 0.00907045 0.00907374 
0.00907702 0.00908031 0.0090836 0.00908689 0.00909018 0.00909348 0.00909678 0.00910008 0.00910339 
0.00910669 0.00911 0.00911332 0.00911663 0.00911995 0.00912327 0.00912659 0.00912991 0.00913324 
0.00913657 0.0091399 0.00914324 0.00914657 0.00914991 0.00915326 0.0091566 0.00915995 0.0091633 
0.00916665 0.00917001 0.00917336 0.00917672 0.00918009 0.00918345 0.00918682 0.00919019 0.00919356 
0.00919694 0.00920032 0.0092037 0.00920708 0.00921047 0.00921385 0.00921725 0.00922064 0.00922404 
0.00902363 0.00902687 0.00903012 0.00903337 0.00903663 0.00903989 0.00904315 0.00904641 0.00904967 
0.00905294 0.00905621 0.00905948 0.00906276 0.00906603 0.00906931 0.00907259 0.00907588 0.00907916 
0.00908245 0.00908574 0.00908904 0.00909234 0.00909563 0.00909894 0.00910224 0.00910555 0.00910886 
0.00911217 0.00911548 0.0091188 0.00912212 0.00912544 0.00912876 0.00913209 0.00913542 0.00913875 
0.00914209 0.00914542 0.00914876 0.0091521 0.00915545 0.00915879 0.00916214 0.0091655 0.00916885 
0.00917221 0.00917557 0.00917893 0.0091823 0.00918566 0.00918903 0.00919241 0.00919578 0.00919916 
0.00920254 0.00920592 0.00920931 0.00921269 0.00921609 0.00921948 0.00922287 0.00922627 0.00902573 
0.00902898 0.00903223 0.00903549 0.00903874 0.009042 0.00904527 0.00904853 0.0090518 0.00905507 
0.00905834 0.00906161 0.00906489 0.00906817 0.00907145 0.00907473 0.00907802 0.00908131 0.0090846 
0.00908789 0.00909119 0.00909449 0.00909779 0.00910109 0.0091044 0.00910771 0.00911102 0.00911433 
0.00911765 0.00912097 0.00912429 0.00912761 0.00913094 0.00913427 0.0091376 0.00914093 0.00914427 
0.00914761 0.00915095 0.00915429 0.00915764 0.00916099 0.00916434 0.00916769 0.00917105 0.00917441 
0.00917777 0.00918114 0.0091845 0.00918787 0.00919125 0.00919462 0.009198 0.00920138 0.00920476 
0.00920815 0.00921153 0.00921492 0.00921832 0.00922171 0.00922511 0.00922851 0.00902784 0.00903109 
0.00903434 0.0090376 0.00904086 0.00904412 0.00904738 0.00905065 0.00905392 0.00905719 0.00906046 
0.00906374 0.00906702 0.0090703 0.00907358 0.00907687 0.00908016 0.00908345 0.00908674 0.00909004 
0.00909334 0.00909664 0.00909994 0.00910325 0.00910655 0.00910987 0.00911318 0.00911649 0.00911981 
0.00912313 0.00912646 0.00912978 0.00913311 0.00913644 0.00913978 0.00914311 0.00914645 0.00914979 
0.00915314 0.00915648 0.00915983 0.00916318 0.00916654 0.00916989 0.00917325 0.00917661 0.00917998 
0.00918334 0.00918671 0.00919008 0.00919346 0.00919684 0.00920022 0.0092036 0.00920698 0.00921037 
0.00921376 0.00921715 0.00922055 0.00922395 0.00922735 0.00923075 0.00902995 0.0090332 0.00903645 
0.00903971 0.00904297 0.00904624 0.0090495 0.00905277 0.00905604 0.00905932 0.00906259 0.00906587 
0.00906915 0.00907243 0.00907572 0.00907901 0.0090823 0.00908559 0.00908889 0.00909218 0.00909548 
0.00909879 0.00910209 0.0091054 0.00910871 0.00911202 0.00911534 0.00911866 0.00912198 0.0091253 
0.00912863 0.00913196 0.00913529 0.00913862 0.00914195 0.00914529 0.00914863 0.00915198 0.00915532 
0.00915867 0.00916202 0.00916538 0.00916873 0.00917209 0.00917545 0.00917882 0.00918218 0.00918555 
0.00918892 0.0091923 0.00919567 0.00919905 0.00920243 0.00920582 0.0092092 0.00921259 0.00921599 
0.00921938 0.00922278 0.00922618 0.00922958 0.00923299 0.00903205 0.00903531 0.00903857 0.00904183 
0.00904509 0.00904835 0.00905162 0.00905489 0.00905817 0.00906144 0.00906472 0.009068 0.00907128 
0.00907457 0.00907785 0.00908114 0.00908444 0.00908773 0.00909103 0.00909433 0.00909763 0.00910094 
0.00910425 0.00910756 0.00911087 0.00911418 0.0091175 0.00912082 0.00912414 0.00912747 0.0091308 
0.00913413 0.00913746 0.00914079 0.00914413 0.00914747 0.00915082 0.00915416 0.00915751 0.00916086 
0.00916421 0.00916757 0.00917093 0.00917429 0.00917765 0.00918102 0.00918439 0.00918776 0.00919113 
0.00919451 0.00919789 0.00920127 0.00920465 0.00920804 0.00921143 0.00921482 0.00921821 0.00922161 
0.00922501 0.00922841 0.00923182 0.00923522 0.00903416 0.00903742 0.00904068 0.00904394 0.0090472 
0.00905047 0.00905374 0.00905701 0.00906029 0.00906357 0.00906685 0.00907013 0.00907341 0.0090767 
0.00907999 0.00908328 0.00908658 0.00908987 0.00909317 0.00909648 0.00909978 0.00910309 0.0091064 
0.00910971 0.00911302 0.00911634 0.00911966 0.00912298 0.00912631 0.00912964 0.00913297 0.0091363 
0.00913963 0.00914297 0.00914631 0.00914965 0.009153 0.00915635 0.0091597 0.00916305 0.0091664 
0.00916976 0.00917312 0.00917649 0.00917985 0.00918322 0.00918659 0.00918996 0.00919334 0.00919672 
0.0092001 0.00920348 0.00920687 0.00921026 0.00921365 0.00921704 0.00922044 0.00922384 0.00922724 
0.00923064 0.00923405 0.00923746 0.00903626 0.00903952 0.00904279 0.00904605 0.00904932 0.00905259 
0.00905586 0.00905913 0.00906241 0.00906569 0.00906897 0.00907226 0.00907554 0.00907883 0.00908213 
0.00908542 0.00908872 0.00909202 0.00909532 0.00909862 0.00910193 0.00910524 0.00910855 0.00911186 
0.00911518 0.0091185 0.00912182 0.00912515 0.00912847 0.0091318 0.00913514 0.00913847 0.00914181 
0.00914515 0.00914849 0.00915183 0.00915518 0.00915853 0.00916188 0.00916524 0.0091686 0.00917196 
0.00917532 0.00917868 0.00918205 0.00918542 0.00918879 0.00919217 0.00919555 0.00919893 0.00920231 
0.0092057 0.00920909 0.00921248 0.00921587 0.00921927 0.00922267 0.00922607 0.00922947 0.00923288 
0.00923629 0.0092397 0.00903837 0.00904163 0.0090449 0.00904816 0.00905143 0.0090547 0.00905798 
0.00906125 0.00906453 0.00906782 0.0090711 0.00907439 0.00907768 0.00908097 0.00908426 0.00908756 
0.00909086 0.00909416 0.00909746 0.00910077 0.00910408 0.00910739 0.0091107 0.00911402 0.00911734 
0.00912066 0.00912398 0.00912731 0.00913064 0.00913397 0.0091373 0.00914064 0.00914398 0.00914732 
0.00915067 0.00915401 0.00915736 0.00916072 0.00916407 0.00916743 0.00917079 0.00917415 0.00917751 
0.00918088 0.00918425 0.00918762 0.009191 0.00919438 0.00919776 0.00920114 0.00920452 0.00920791 
0.0092113 0.0092147 0.00921809 0.00922149 0.00922489 0.0092283 0.0092317 0.00923511 0.00923852 
0.00924194 0.00904048 0.00904374 0.00904701 0.00905028 0.00905355 0.00905682 0.0090601 0.00906338 
0.00906666 0.00906994 0.00907323 0.00907651 0.00907981 0.0090831 0.0090864 0.00908969 0.009093 
0.0090963 0.00909961 0.00910291 0.00910622 0.00910954 0.00911285 0.00911617 0.00911949 0.00912282 
0.00912614 0.00912947 0.0091328 0.00913614 0.00913947 0.00914281 0.00914615 0.0091495 0.00915284 
0.00915619 0.00915955 0.0091629 0.00916626 0.00916962 0.00917298 0.00917634 0.00917971 0.00918308 
0.00918645 0.00918983 0.0091932 0.00919658 0.00919997 0.00920335 0.00920674 0.00921013 0.00921352 
0.00921692 0.00922031 0.00922371 0.00922712 0.00923052 0.00923393 0.00923734 0.00924076 0.00924417 
0.00904258 0.00904585 0.00904912 0.00905239 0.00905566 0.00905894 0.00906222 0.0090655 0.00906878 
0.00907206 0.00907535 0.00907864 0.00908194 0.00908523 0.00908853 0.00909183 0.00909513 0.00909844 
0.00910175 0.00910506 0.00910837 0.00911169 0.00911501 0.00911833 0.00912165 0.00912498 0.0091283 
0.00913164 0.00913497 0.0091383 0.00914164 0.00914498 0.00914833 0.00915167 0.00915502 0.00915837 
0.00916173 0.00916508 0.00916844 0.0091718 0.00917517 0.00917854 0.0091819 0.00918528 0.00918865 
0.00919203 0.00919541 0.00919879 0.00920217 0.00920556 0.00920895 0.00921234 0.00921574 0.00921914 
0.00922254 0.00922594 0.00922934 0.00923275 0.00923616 0.00923958 0.00924299 0.00924641 0.00904469 
0.00904796 0.00905123 0.0090545 0.00905777 0.00906105 0.00906433 0.00906762 0.0090709 0.00907419 
0.00907748 0.00908077 0.00908407 0.00908737 0.00909067 0.00909397 0.00909727 0.00910058 0.00910389 
0.0091072 0.00911052 0.00911384 0.00911716 0.00912048 0.00912381 0.00912713 0.00913047 0.0091338 
0.00913713 0.00914047 0.00914381 0.00914716 0.0091505 0.00915385 0.0091572 0.00916055 0.00916391 
0.00916727 0.00917063 0.00917399 0.00917736 0.00918073 0.0091841 0.00918747 0.00919085 0.00919423 
0.00919761 0.00920099 0.00920438 0.00920777 0.00921116 0.00921456 0.00921796 0.00922136 0.00922476 
0.00922816 0.00923157 0.00923498 0.00923839 0.00924181 0.00924523 0.00924865 0.00904679 0.00905006 
0.00905334 0.00905661 0.00905989 0.00906317 0.00906645 0.00906974 0.00907302 0.00907631 0.00907961 
0.0090829 0.0090862 0.0090895 0.0090928 0.00909611 0.00909941 0.00910272 0.00910604 0.00910935 
0.00911267 0.00911599 0.00911931 0.00912264 0.00912596 0.00912929 0.00913263 0.00913596 0.0091393 
0.00914264 0.00914598 0.00914933 0.00915267 0.00915603 0.00915938 0.00916273 0.00916609 0.00916945 
0.00917282 0.00917618 0.00917955 0.00918292 0.00918629 0.00918967 0.00919305 0.00919643 0.00919981 
0.0092032 0.00920659 0.00920998 0.00921338 0.00921677 0.00922017 0.00922357 0.00922698 0.00923039 
0.0092338 0.00923721 0.00924062 0.00924404 0.00924746 0.00925089 0.0090489 0.00905217 0.00905545 
0.00905872 0.009062 0.00906529 0.00906857 0.00907186 0.00907515 0.00907844 0.00908173 0.00908503 
0.00908833 0.00909163 0.00909494 0.00909824 0.00910155 0.00910486 0.00910818 0.0091115 0.00911482 
0.00911814 0.00912146 0.00912479 0.00912812 0.00913145 0.00913479 0.00913812 0.00914146 0.00914481 
0.00914815 0.0091515 0.00915485 0.0091582 0.00916156 0.00916491 0.00916827 0.00917164 0.009175 
0.00917837 0.00918174 0.00918511 0.00918849 0.00919187 0.00919525 0.00919863 0.00920202 0.00920541 
0.0092088 0.00921219 0.00921559 0.00921899 0.00922239 0.00922579 0.0092292 0.00923261 0.00923602 
0.00923944 0.00924285 0.00924627 0.0092497 0.00925312 0.009051 0.00905428 0.00905756 0.00906084 
0.00906412 0.0090674 0.00907069 0.00907398 0.00907727 0.00908056 0.00908386 0.00908716 0.00909046 
0.00909376 0.00909707 0.00910038 0.00910369 0.00910701 0.00911032 0.00911364 0.00911696 0.00912029 
0.00912361 0.00912694 0.00913028 0.00913361 0.00913695 0.00914029 0.00914363 0.00914697 0.00915032 
0.00915367 0.00915702 0.00916038 0.00916373 0.00916709 0.00917046 0.00917382 0.00917719 0.00918056 
0.00918393 0.00918731 0.00919068 0.00919406 0.00919745 0.00920083 0.00920422 0.00920761 0.00921101 
0.0092144 0.0092178 0.0092212 0.00922461 0.00922801 0.00923142 0.00923483 0.00923825 0.00924166 
0.00924508 0.00924851 0.00925193 0.00925536 0.00905311 0.00905639 0.00905967 0.00906295 0.00906623 
0.00906952 0.00907281 0.0090761 0.00907939 0.00908269 0.00908599 0.00908929 0.00909259 0.0090959 
0.00909921 0.00910252 0.00910583 0.00910915 0.00911247 0.00911579 0.00911911 0.00912244 0.00912577 
0.0091291 0.00913243 0.00913577 0.00913911 0.00914245 0.00914579 0.00914914 0.00915249 0.00915584 
0.00915919 0.00916255 0.00916591 0.00916927 0.00917264 0.009176 0.00917937 0.00918275 0.00918612 
0.0091895 0.00919288 0.00919626 0.00919965 0.00920303 0.00920643 0.00920982 0.00921321 0.00921661 
0.00922001 0.00922342 0.00922682 0.00923023 0.00923364 0.00923706 0.00924047 0.00924389 0.00924731 
0.00925074 0.00925417 0.0092576 0.00905522 0.00905849 0.00906177 0.00906506 0.00906834 0.00907163 
0.00907492 0.00907822 0.00908151 0.00908481 0.00908811 0.00909141 0.00909472 0.00909803 0.00910134 
0.00910465 0.00910797 0.00911129 0.00911461 0.00911793 0.00912126 0.00912459 0.00912792 0.00913125 
0.00913459 0.00913793 0.00914127 0.00914461 0.00914796 0.00915131 0.00915466 0.00915801 0.00916137 
0.00916473 0.00916809 0.00917145 0.00917482 0.00917819 0.00918156 0.00918493 0.00918831 0.00919169 
0.00919507 0.00919846 0.00920185 0.00920524 0.00920863 0.00921202 0.00921542 0.00921882 0.00922223 
0.00922563 0.00922904 0.00923245 0.00923586 0.00923928 0.0092427 0.00924612 0.00924954 0.00925297 
0.0092564 0.00925983 0.00905732 0.0090606 0.00906388 0.00906717 0.00907046 0.00907375 0.00907704 
0.00908034 0.00908363 0.00908693 0.00909024 0.00909354 0.00909685 0.00910016 0.00910347 0.00910679 
0.00911011 0.00911343 0.00911675 0.00912008 0.0091234 0.00912674 0.00913007 0.0091334 0.00913674 
0.00914008 0.00914343 0.00914677 0.00915012 0.00915347 0.00915683 0.00916018 0.00916354 0.0091669 