# vtk DataFile Version 4.0
vtk output
ASCII
DATASET STRUCTURED_POINTS
DIMENSIONS 42 42 42
SPACING 0.05 0.05 0.05
ORIGIN -1.025 -1.025 -1.025
POINT_DATA 74088
FIELD FieldData 1
potential 1 74088 double
0.00555387 0.00534715 0.00516808 0.00501089 0.00486194 0.00470145 0.00451413 0.00429431 0.0040484 
0.00379248 0.00354518 0.0033187 0.0031172 0.00293796 0.00277504 0.00262352 0.00248111 0.00234723 
0.00222254 0.00210736 0.00200226 0.00190715 0.00182096 0.00174157 0.00166701 0.00159565 0.00152692 
0.00146109 0.00139831 0.00133942 0.00128489 0.00123471 0.00118864 0.00114595 0.00110614 0.00106901 
0.00103484 0.00100417 0.000977575 0.000955685 0.000938411 0.00092476 0.00686575 0.00657531 0.00631184 
0.00607096 0.00584416 0.00561941 0.00538474 0.005134 0.00486821 0.00459515 0.00432622 0.00407078 
0.00383422 0.00361667 0.00341569 0.00322839 0.0030531 0.00288898 0.00273605 0.00259447 0.00246408 
0.00234456 0.00223501 0.00213383 0.00203923 0.00195 0.00186516 0.00178465 0.00170812 0.00163612 
0.00156887 0.00150626 0.00144827 0.00139454 0.00134461 0.00129842 0.001256 0.00121752 0.00118317 
0.00115294 0.00112629 0.00110183 0.00822565 0.0078495 0.00750189 0.00717957 0.00687644 0.00658425 
0.00629476 0.0060015 0.00570322 0.00540272 0.00510635 0.00482081 0.00455039 0.00429702 0.00406013 
0.00383845 0.00363078 0.00343652 0.00325518 0.0030867 0.0029306 0.00278636 0.00265314 0.00252972 
0.0024146 0.00230668 0.00220493 0.0021087 0.00201789 0.0019323 0.00185198 0.001777 0.00170711 
0.00164217 0.00158186 0.00152608 0.00147471 0.00142764 0.0013847 0.00134546 0.0013092 0.0012745 
0.00962521 0.00916129 0.00872888 0.00832517 0.00794562 0.0075842 0.00723458 0.00689095 0.00655094 
0.00621485 0.00588544 0.00556701 0.00526257 0.00497437 0.00470289 0.00444777 0.00420839 0.00398414 
0.00377451 0.00357902 0.00339729 0.00322849 0.00307179 0.00292614 0.00279043 0.00266327 0.00254398 
0.00243161 0.00232593 0.00222627 0.00213272 0.00204517 0.00196334 0.00188709 0.00181625 0.00175046 
0.00168959 0.00163336 0.0015813 0.00153279 0.00148701 0.00144273 0.0110527 0.0104992 0.00998103 
0.0094955 0.00903896 0.00860652 0.00819316 0.00779427 0.00740617 0.00702813 0.00666088 0.00630637 
0.00596708 0.00564427 0.00533891 0.00505109 0.00478054 0.00452666 0.00428903 0.00406688 0.00385977 
0.0036667 0.00348691 0.00331937 0.00316303 0.00301671 0.00287965 0.00275088 0.00262977 0.00251598 
0.00240905 0.00230886 0.00221506 0.00212748 0.00204588 0.00196987 0.00189922 0.00183347 0.00177207 
0.0017143 0.00165925 0.00160607 0.0124941 0.0118498 0.011245 0.0106772 0.0101431 0.00963871 
0.00915962 0.00870195 0.00826174 0.00783735 0.00742842 0.00703551 0.00665984 0.00630221 0.00596332 
0.00564336 0.00534217 0.00505927 0.004794 0.00454569 0.00431352 0.0040968 0.00389439 0.00370544 
0.00352888 0.00336371 0.00320883 0.0030636 0.00292717 0.00279908 0.00267876 0.0025659 0.00246022 
0.00236132 0.00226897 0.00218272 0.00210214 0.0020268 0.00195606 0.00188918 0.00182532 0.00176377 
0.0139347 0.0131986 0.0125068 0.0118566 0.011245 0.0106682 0.0101223 0.00960377 0.00910924 
0.00863588 0.00818273 0.00774953 0.00733626 0.0069436 0.00657144 0.00621979 0.00588856 0.00557717 
0.00528491 0.00501096 0.00475451 0.00451463 0.00429028 0.00408051 0.00388429 0.0037006 0.00352837 
0.00336696 0.00321537 0.00307321 0.00293958 0.00281425 0.0026968 0.00258673 0.00248369 0.00238728 
0.00229691 0.00221212 0.00213225 0.00205659 0.00198438 0.00191503 0.0153596 0.0145317 0.0137529 
0.0130206 0.0123318 0.0116829 0.0110703 0.0104904 0.00994031 0.00941671 0.00891802 0.00844332 
0.00799203 0.00756397 0.00715869 0.00677599 0.00641529 0.0060761 0.00575756 0.00545874 0.00517869 
0.00491639 0.00467091 0.00444108 0.00422589 0.00402432 0.00383542 0.00365816 0.00349191 0.00333578 
0.00318933 0.00305183 0.00292289 0.00280192 0.00268848 0.00258215 0.00248229 0.00238828 0.00229966 
0.00221566 0.00213561 0.00205893 0.0167555 0.0158359 0.0149707 0.0141572 0.0133921 0.012672 
0.0119934 0.0113527 0.0107467 0.0101728 0.0096283 0.0091118 0.0086223 0.0081591 0.00772107 
0.0073078 0.00691853 0.0065523 0.00620829 0.00588546 0.00558273 0.00529897 0.00503315 0.00478409 
0.00455079 0.00433211 0.00412712 0.00393477 0.00375436 0.00358497 0.0034261 0.00327681 0.00313677 
0.00300534 0.00288191 0.00276601 0.00265704 0.00255435 0.00245738 0.00236553 0.00227813 0.00219464 
0.0181101 0.0170996 0.0161493 0.0152558 0.0144159 0.0136262 0.0128828 0.0121825 0.0115218 
0.010898 0.0103081 0.0097502 0.00922294 0.00872481 0.00825488 0.00781185 0.00739477 0.00700249 
0.00663401 0.00628815 0.00596369 0.00565947 0.00537427 0.00510705 0.00485651 0.00462167 0.00440144 
0.00419486 0.00400091 0.00381895 0.00364817 0.00348769 0.00333711 0.0031957 0.00306279 0.00293783 
0.00282026 0.00270942 0.00260465 0.00250547 0.00241124 0.00232145 0.0194131 0.018313 0.017279 
0.0163074 0.0153947 0.0145372 0.0137311 0.0129728 0.0122589 0.0115862 0.0109523 0.010354 
0.00978975 0.00925787 0.00875686 0.00828501 0.00784118 0.00742404 0.00703213 0.00666434 0.00631932 
0.00599576 0.00569232 0.00540788 0.0051412 0.00489112 0.00465661 0.00443658 0.00422998 0.00403618 
0.00385417 0.00368327 0.00352276 0.00337202 0.0032302 0.0030968 0.00297121 0.00285276 0.0027408 
0.00263483 0.00253433 0.00243876 0.0206551 0.0194675 0.0183518 0.0173043 0.0163211 0.0153983 
0.0145317 0.0137177 0.0129526 0.0122332 0.0115564 0.0109193 0.0103194 0.00975499 0.00922388 
0.00872469 0.00825539 0.0078145 0.0074006 0.00701205 0.00664768 0.00630596 0.00598552 0.00568498 
0.00540329 0.00513907 0.00489126 0.00465876 0.00444042 0.00423561 0.00404322 0.00386268 0.0036929 
0.00353344 0.00338344 0.00324223 0.00310926 0.00298382 0.00286534 0.00275315 0.00264689 0.00254602 
0.0218282 0.0205551 0.0193606 0.0182398 0.0171887 0.0162033 0.015279 0.0144119 0.0135982 
0.0128341 0.0121164 0.0114424 0.0108087 0.0102133 0.00965391 0.00912862 0.0086352 0.00817207 
0.00773746 0.00732963 0.00694726 0.00658868 0.00625248 0.0059372 0.00564159 0.00536437 0.00510433 
0.00486039 0.00463141 0.00441639 0.00421456 0.00402505 0.00384684 0.00367938 0.00352193 0.00337365 
0.00323393 0.00310218 0.00297776 0.00286001 0.00274856 0.00264288 0.0229248 0.0215693 0.0202986 
0.0191079 0.0179922 0.016947 0.0159681 0.0150509 0.0141912 0.0133852 0.0126292 0.0119203 
0.0112548 0.0106303 0.0100444 0.00949474 0.00897891 0.0084951 0.00804133 0.00761582 0.00721678 
0.00684277 0.00649215 0.00616342 0.00585513 0.00556613 0.00529503 0.00504068 0.00480201 0.00457785 
0.00436744 0.00416978 0.00398408 0.00380946 0.00364525 0.00349062 0.00334491 0.00320751 0.00307778 
0.00295514 0.002839 0.00272902 0.0239385 0.0225036 0.0211602 0.0199028 0.018726 0.0176248 
0.0165946 0.0156305 0.014728 0.0138829 0.0130914 0.0123498 0.0116552 0.0110038 0.0103934 
0.00982114 0.00928491 0.0087821 0.00831089 0.00786924 0.00745527 0.00706723 0.00670361 0.00636278 
0.00604325 0.00574363 0.00546266 0.00519905 0.00495175 0.00471956 0.00450145 0.00429662 0.00410428 
0.00392328 0.0037531 0.00359286 0.00344189 0.00329952 0.00316513 0.00303815 0.00291795 0.00280422 
0.0248619 0.0233518 0.0219396 0.0206195 0.0193856 0.0182323 0.0171544 0.016147 0.0152051 
0.0143242 0.0135001 0.012729 0.0120074 0.0113317 0.010699 0.0101065 0.00955169 0.00903187 
0.00854498 0.00808893 0.00766163 0.00726123 0.00688613 0.00653465 0.00620516 0.00589627 0.00560667 
0.005335 0.00508015 0.00484091 0.00461619 0.00440521 0.00420697 0.00402051 0.0038452 0.00368011 
0.00352461 0.00337797 0.00323961 0.0031089 0.0029853 0.00286829 0.025689 0.0241079 0.0226315 
0.021253 0.0199663 0.0187652 0.0176437 0.0165969 0.0156192 0.014706 0.0138527 0.0130551 
0.0123093 0.0116121 0.0109596 0.0103491 0.00977783 0.00924327 0.00874262 0.00827397 0.00783512 
0.00742411 0.00703902 0.00667835 0.00634037 0.00602361 0.0057266 0.00544809 0.00518685 0.00494163 
0.00471133 0.00449513 0.00429192 0.00410094 0.00392127 0.0037522 0.00359291 0.00344272 0.00330103 
0.00316723 0.00304077 0.00292109 0.0264129 0.0247661 0.0232303 0.0217984 0.0204636 0.0192193 
0.0180589 0.0169769 0.0159675 0.0150257 0.0141467 0.013326 0.0125593 0.0118433 0.0111737 
0.0105477 0.00996248 0.0094151 0.00890287 0.00842357 0.00797502 0.00755503 0.00716173 0.00679343 
0.00644845 0.00612514 0.00582207 0.00553799 0.00527151 0.00502149 0.00478673 0.00456621 0.00435904 
0.00416437 0.00398126 0.00380895 0.0036466 0.00349361 0.00334928 0.003213 0.00308424 0.00296246 
0.0270271 0.0253201 0.0237306 0.022251 0.0208734 0.0195909 0.0183963 0.0172839 0.0162472 
0.0152809 0.01438 0.0135397 0.0127554 0.0120233 0.0113399 0.0107012 0.0101044 0.00954658 
0.00902493 0.008537 0.0080806 0.00765353 0.00725378 0.00687942 0.0065289 0.00620054 0.00589283 
0.00560437 0.0053339 0.00508018 0.00484198 0.00461824 0.00440816 0.00421071 0.00402493 0.0038502 
0.0036856 0.0035305 0.00338418 0.00324611 0.00311565 0.00299229 0.0275249 0.0257642 0.0241274 
0.0226058 0.0211914 0.0198762 0.018653 0.0175148 0.0164555 0.0154692 0.0145505 0.0136944 
0.0128961 0.0121515 0.0114569 0.0108082 0.0102025 0.00963663 0.00910793 0.00861362 0.00815138 
0.00771904 0.00731456 0.00693589 0.00658142 0.00624948 0.00593847 0.00564699 0.00537378 0.00511751 
0.00487697 0.00465108 0.00443899 0.00423967 0.00405218 0.00387586 0.00370979 0.00355331 0.00340573 
0.00326647 0.0031349 0.00301059 0.0278995 0.0260924 0.0244151 0.0228584 0.0214135 0.0200717 
0.0188254 0.017667 0.0165902 0.0155885 0.0146562 0.0137883 0.0129798 0.0122261 0.0115234 
0.0108679 0.010256 0.00968475 0.00915133 0.0086528 0.00818681 0.00775114 0.00734378 0.00696255 
0.00660571 0.00627167 0.00595881 0.00566567 0.00539093 0.0051333 0.0048916 0.00466466 0.00445146 
0.00425117 0.00406292 0.00388579 0.00371907 0.00356193 0.00341379 0.003274 0.00314194 0.00301718 
0.028144 0.0262985 0.0245889 0.0230045 0.021536 0.0201743 0.0189109 0.017738 0.016649 
0.0156369 0.0146957 0.0138202 0.0130052 0.0122462 0.0115388 0.0108795 0.0102642 0.00969025 
0.00915452 0.00865402 0.00818647 0.00774952 0.00734101 0.00695899 0.00660145 0.00626689 0.00595363 
0.00566021 0.00538519 0.00512742 0.00488566 0.00465868 0.00444548 0.00424529 0.0040571 0.00388001 
0.00371337 0.00355636 0.00340832 0.00326864 0.00313676 0.0030121 0.028252 0.0263774 0.0246437 
0.0230399 0.0215552 0.0201806 0.0189068 0.0177257 0.0166299 0.0156126 0.0146674 0.0137888 
0.0129715 0.0122107 0.0115021 0.0108419 0.0102266 0.00965253 0.00911684 0.00861695 0.00815 
0.00771376 0.00730607 0.00692504 0.00656852 0.00623498 0.00592281 0.00563044 0.00535651 0.00509981 
0.0048591 0.00463317 0.0044211 0.00422179 0.00403457 0.00385841 0.00369266 0.00353651 0.00338929 
0.0032504 0.00311926 0.00299531 0.0282171 0.0263234 0.0245752 0.0229606 0.0214681 0.0200881 
0.0188109 0.017628 0.0165314 0.0155144 0.0145702 0.0136931 0.0128776 0.012119 0.0114129 
0.0107551 0.0101425 0.0095711 0.00903828 0.00854122 0.00807713 0.00764369 0.00723882 0.00686048 
0.00650674 0.00617579 0.00586616 0.0055763 0.00530478 0.00505034 0.00481185 0.00458812 0.00437804 
0.00418072 0.00399527 0.00382097 0.00365695 0.00350238 0.00335671 0.00321927 0.00308949 0.0029668 
0.0280336 0.0261317 0.0243792 0.0227632 0.021272 0.0198944 0.0186213 0.0174433 0.0163522 
0.0153412 0.0144033 0.0135323 0.0127231 0.0119707 0.0112705 0.0106186 0.0100115 0.00944594 
0.0089185 0.00842667 0.00796763 0.00753917 0.00713906 0.00676525 0.00641598 0.0060893 0.00578373 
0.00549773 0.00522995 0.00497903 0.00474393 0.00452341 0.00431641 0.00412201 0.00393942 0.00376768 
0.00360614 0.003454 0.00331056 0.00317524 0.00304741 0.00292661 0.0276963 0.0257984 0.0240528 
0.0224454 0.0209644 0.0195982 0.0183366 0.0171708 0.0160918 0.0150926 0.0141661 0.0133063 
0.0125077 0.0117654 0.0110749 0.0104323 0.00983397 0.00927676 0.00875732 0.00827307 0.00782154 
0.00740015 0.00700674 0.00663938 0.00629624 0.00597551 0.00567546 0.00539481 0.00513204 0.00488595 
0.00465533 0.00443913 0.00423622 0.0040458 0.00386684 0.00369865 0.00354037 0.00339137 0.00325087 
0.00311832 0.00299314 0.00287476 0.0272015 0.0253202 0.023593 0.0220052 0.020544 0.019198 
0.0179563 0.0168099 0.0157499 0.0147683 0.0138588 0.0130151 0.0122315 0.0115034 0.0108262 
0.0101961 0.00960969 0.00906367 0.0085549 0.00808078 0.00763892 0.00722667 0.00684205 0.00648298 
0.00614769 0.00583447 0.00554153 0.00526756 0.00501116 0.00477108 0.00454613 0.00433536 0.00413757 
0.00395201 0.00377765 0.00361382 0.00345966 0.00331457 0.00317776 0.00304864 0.00292669 0.00281131 
0.0265461 0.0246953 0.0229988 0.0214416 0.0200107 0.0186939 0.0174807 0.0163609 0.0153264 
0.0143689 0.0134819 0.0126591 0.0118951 0.0111851 0.0105248 0.00991055 0.00933893 0.00880684 
0.00831151 0.00784993 0.00742002 0.00701905 0.00664517 0.00629628 0.00597057 0.00566636 0.00538208 
0.00511623 0.00486748 0.00463464 0.00441653 0.0042122 0.00402064 0.00384081 0.00367196 0.0035133 
0.00336414 0.00322373 0.00309129 0.00296629 0.00284818 0.00273637 0.0257297 0.0239233 0.0222702 
0.0207553 0.019365 0.0180869 0.0169103 0.0158252 0.014823 0.0138957 0.0130366 0.0122396 
0.0114994 0.0108113 0.0101716 0.00957637 0.00902252 0.00850719 0.00802766 0.00758103 0.00716508 
0.00677771 0.00641649 0.00607961 0.00576523 0.0054717 0.00519752 0.00494111 0.00470132 0.0044769 
0.0042668 0.00406993 0.00388549 0.0037124 0.00355 0.00339742 0.00325394 0.00311894 0.00299162 
0.00287142 0.00275778 0.00265012 0.0247534 0.0230059 0.0214093 0.0199484 0.0186088 0.017379 
0.0162475 0.0152047 0.0142417 0.0133505 0.0125247 0.0117581 0.0110459 0.0103835 0.00976756 
0.0091945 0.00866129 0.00816537 0.00770395 0.0072748 0.00687519 0.00650329 0.00615667 0.00583361 
0.00553224 0.00525095 0.00498821 0.00474269 0.00451309 0.00429824 0.00409719 0.00390887 0.00373249 
0.00356706 0.00341193 0.00326624 0.00312935 0.00300048 0.00287899 0.00276426 0.00265568 0.00255274 
0.0236214 0.0219473 0.0204199 0.0190242 0.0177462 0.0165739 0.015496 0.0145031 0.0135857 
0.0127366 0.011949 0.0112173 0.0105369 0.00990378 0.00931462 0.00876652 0.00825669 0.00778256 
0.00734188 0.00693227 0.00655119 0.00619677 0.00586669 0.00555918 0.00527245 0.00500489 0.00475507 
0.00452166 0.0043034 0.00409926 0.00390827 0.00372948 0.00356208 0.00340518 0.00325815 0.00312015 
0.00299057 0.00286859 0.00275369 0.00264507 0.00254219 0.00244454 0.0223406 0.020754 0.0193084 
0.0179892 0.0167826 0.015677 0.0146608 0.0137248 0.0128595 0.0120579 0.0113131 0.0106204 
0.00997524 0.00937446 0.00881499 0.00829449 0.00781048 0.00736064 0.00694294 0.00655513 0.00619455 
0.00585941 0.00554783 0.00525758 0.00498706 0.00473466 0.00449904 0.0042789 0.00407318 0.00388077 
0.00370079 0.00353247 0.00337486 0.0032274 0.00308919 0.00295963 0.00283805 0.00272378 0.00261611 
0.00251429 0.00241772 0.0023259 0.0209221 0.0194361 0.018084 0.0168517 0.0157263 0.0146957 
0.013749 0.0128766 0.0120691 0.0113198 0.010622 0.00997164 0.00936476 0.00879891 0.00827159 
0.00778102 0.00732514 0.00690184 0.00650927 0.0061451 0.00580724 0.00549341 0.00520188 0.00493049 
0.00467758 0.00444171 0.00422147 0.00401578 0.00382355 0.00364379 0.00347575 0.00331865 0.00317169 
0.00303431 0.00290571 0.00278538 0.00267246 0.00256655 0.00246677 0.00237239 0.00228276 0.00219734 
0.0193808 0.0180071 0.016759 0.0156234 0.0145877 0.01364 0.0127698 0.0119668 0.0112223 
0.0105292 0.00988165 0.00927631 0.00871009 0.0081812 0.00768822 0.00722956 0.00680387 0.00640921 
0.00604368 0.00570528 0.00539186 0.0051011 0.00483125 0.00458013 0.00434623 0.00412799 0.00392426 
0.00373391 0.00355601 0.00338979 0.00323446 0.00308931 0.00295368 0.00282703 0.00270866 0.00259811 
0.00249462 0.00239761 0.00230633 0.00222 0.00213792 0.00205945 0.0177354 0.0164839 0.0153489 
0.0143182 0.0133799 0.0125224 0.0117345 0.011006 0.0103283 0.00969434 0.00909933 0.00854055 
0.00801646 0.00752613 0.0070691 0.00664417 0.00625049 0.00588633 0.00554983 0.00523903 0.00495158 
0.00468565 0.00443874 0.00420933 0.00399552 0.00379592 0.00360956 0.00343541 0.00327264 0.0031206 
0.00297859 0.00284601 0.00272234 0.00260688 0.00249934 0.00239897 0.00230533 0.00221778 0.00213556 
0.00205788 0.00198395 0.00191301 0.016008 0.0148862 0.0138716 0.012953 0.0121188 0.0113572 
0.0106568 0.0100067 0.0093981 0.00882465 0.00828278 0.00777124 0.00729001 0.00683925 0.0064193 
0.00602964 0.0056696 0.00533764 0.00503188 0.00475047 0.00449082 0.00425087 0.00402828 0.00382146 
0.00362859 0.00344837 0.00328006 0.00312268 0.00297565 0.0028383 0.00271018 0.00259066 0.00247931 
0.0023755 0.00227905 0.00218927 0.00210587 0.00202814 0.00195543 0.00188688 0.00182168 0.0017589 
0.0142225 0.0132361 0.0123474 0.0115468 0.0108226 0.010162 0.00955276 0.00898276 0.00844384 
0.00793037 0.00744071 0.00697577 0.00653719 0.00612641 0.00574437 0.00539131 0.00506628 0.00476817 
0.00449483 0.00424421 0.00401381 0.00380114 0.00360381 0.00342033 0.00324889 0.00308858 0.00293872 
0.00279856 0.00266766 0.00254547 0.00243153 0.00232547 0.00222672 0.0021348 0.00204958 0.00197053 
0.00189745 0.00182969 0.00176678 0.00170786 0.00165193 0.00159796 0.0124038 0.0115559 0.0107977 
0.0101201 0.00951081 0.00895547 0.00843926 0.00794923 0.0074778 0.00702153 0.00658159 0.0061613 
0.00576458 0.00539382 0.00505035 0.00473476 0.00444609 0.00418321 0.00394394 0.00372555 0.0035256 
0.00334097 0.00316973 0.00300992 0.00286017 0.00271993 0.0025886 0.00246593 0.00235145 0.00224471 
0.00214524 0.00205282 0.00196676 0.00188686 0.00181274 0.00174432 0.00168148 0.00162369 0.0015707 
0.00152164 0.00147548 0.00143103 0.0105755 0.00986794 0.00924383 0.00869422 0.0082048 0.0077577 
0.00733428 0.00692113 0.00651185 0.00610724 0.00571257 0.00533461 0.00497859 0.00464778 0.0043434 
0.00406593 0.00381466 0.00358822 0.00338422 0.00319965 0.00303124 0.00287548 0.00273042 0.00259409 
0.002466 0.00234563 0.0022328 0.00212764 0.00202976 0.0019387 0.00185389 0.00177507 0.00170165 
0.00163343 0.00157021 0.00151211 0.00145921 0.00141118 0.00136798 0.00132885 0.00129292 0.00125874 
0.00875922 0.00819286 0.00770666 0.00729071 0.0069267 0.00658955 0.00625561 0.00591163 0.00555535 
0.00519445 0.00483992 0.00450177 0.00418591 0.0038951 0.00363008 0.00339121 0.00317781 0.00298874 
0.00282134 0.00267181 0.00253578 0.0024092 0.00228986 0.00217676 0.00206965 0.00196866 0.0018741 
0.00178637 0.00170518 0.00162994 0.0015598 0.00149437 0.00143324 0.00137621 0.00132337 0.00127521 
0.00123169 0.00119314 0.00115933 0.00113004 0.00110451 0.00108139 0.00697513 0.00655015 0.0062067 
0.00593309 0.00570089 0.0054727 0.00521896 0.00493037 0.00461356 0.00428684 0.00396816 0.00366886 
0.00339353 0.00314327 0.00291778 0.00271742 0.00254203 0.00239065 0.00226082 0.00214732 0.00204412 
0.00194631 0.001852 0.00176103 0.00167396 0.00159169 0.00151496 0.00144457 0.00138018 0.00132072 
0.00126493 0.00121228 0.0011627 0.00111616 0.00107321 0.00103421 0.00099971 0.000970144 0.000945424 
0.000925534 0.000910264 0.000898764 0.00524262 0.00495971 0.00476731 0.00464936 0.00455589 0.00442836 
0.00423599 0.00398061 0.0036852 0.00338408 0.00310074 0.0028427 0.00260987 0.00240083 0.00221477 
0.00205226 0.00191409 0.00180034 0.00170845 0.00163127 0.00156039 0.00149011 0.00141939 0.00134922 
0.00128099 0.00121675 0.00115749 0.00110445 0.00105697 0.00101298 0.000970635 0.000929637 0.000890418 
0.000853493 0.00081961 0.000789397 0.000763672 0.000742908 0.000726934 0.000715828 0.000709986 0.000710031 
0.00438686 0.00423612 0.00411857 0.00403449 0.00397086 0.0038968 0.00378111 0.00360875 0.00338479 
0.00313322 0.00288689 0.0026688 0.0024852 0.00232979 0.0021912 0.00206172 0.00193921 0.00182409 
0.00171793 0.00162182 0.00153692 0.00146354 0.00140019 0.0013431 0.00128872 0.00123487 0.00118124 
0.00112859 0.00107786 0.00103024 0.000986789 0.000947895 0.000913352 0.000881935 0.000852677 0.000825364 
0.00080048 0.000778997 0.000762053 0.000750869 0.000746019 0.000746186 0.00574194 0.00550579 0.00530019 
0.00512334 0.00496711 0.00481473 0.00464542 0.00444551 0.00421296 0.00395865 0.00370118 0.00345745 
0.00323663 0.00303832 0.00285764 0.00268989 0.00253303 0.00238661 0.00225101 0.00212702 0.00201477 
0.00191416 0.00182419 0.00174266 0.00166674 0.00159468 0.0015252 0.00145846 0.00139443 0.00133404 
0.00127789 0.00122616 0.00117895 0.00113578 0.00109625 0.00106007 0.00102744 0.000998779 0.000974568 
0.000955224 0.000940097 0.000927065 0.00715648 0.00683071 0.00653607 0.00627042 0.0060277 0.00579767 
0.00556636 0.00532269 0.00506223 0.00478816 0.0045103 0.00424007 0.00398518 0.00374866 0.0035293 
0.00332501 0.00313424 0.00295647 0.00279146 0.00263924 0.00249965 0.00237229 0.00225627 0.00215017 
0.002052 0.00196018 0.00187337 0.00179081 0.00171253 0.00163857 0.00156924 0.00150479 0.00144521 
0.00139042 0.00134014 0.00129425 0.00125278 0.00121567 0.0011829 0.00115409 0.00112812 0.00110297 
0.0086206 0.0082022 0.00781729 0.00746349 0.00713632 0.00682823 0.00653008 0.00623256 0.00593065 
0.00562414 0.00531706 0.00501652 0.00472813 0.00445553 0.00419986 0.00396041 0.00373651 0.00352752 
0.00333307 0.00315271 0.00298616 0.00283265 0.00269138 0.00256119 0.00244076 0.00232841 0.00222315 
0.00212389 0.00203038 0.00194208 0.00185923 0.00178187 0.00170994 0.00164343 0.00158215 0.00152604 
0.00147482 0.00142831 0.00138601 0.00134714 0.00131053 0.00127444 0.0101195 0.00960659 0.00913023 
0.00868835 0.00827692 0.00789043 0.00752188 0.00716441 0.00681229 0.0064638 0.00612022 0.00578504 
0.00546196 0.00515428 0.00486349 0.00459005 0.00433373 0.00409401 0.0038704 0.00366231 0.00346915 
0.00329008 0.00312428 0.00297071 0.00282816 0.00269532 0.00257121 0.00245467 0.00234517 0.00224224 
0.00214557 0.00205515 0.00197082 0.00189254 0.00182013 0.00175331 0.00169183 0.00163532 0.00158303 
0.00153402 0.00148717 0.00144119 0.0116359 0.011027 0.0104586 0.00992843 0.00943303 0.00896777 
0.00852718 0.00810574 0.00769804 0.00730149 0.00691581 0.00654197 0.00618271 0.00583977 0.00551456 
0.00520803 0.00492003 0.0046502 0.00439792 0.00416259 0.00394338 0.00373947 0.00354985 0.00337357 
0.00320954 0.00305661 0.00291359 0.00277973 0.00265408 0.00253621 0.00242561 0.00232203 0.00222537 
0.00213529 0.00205163 0.00197398 0.00190209 0.00183531 0.00177293 0.00171402 0.00165749 0.00160245 
0.0131512 0.0124457 0.011785 0.0111669 0.0105879 0.0100442 0.00953099 0.00904355 0.00857751 
0.0081293 0.00769773 0.00728289 0.00688565 0.00650695 0.00614791 0.00580876 0.00548984 0.00519059 
0.00491039 0.00464843 0.00440389 0.00417583 0.0039632 0.003765 0.00358016 0.00340763 0.00324623 
0.00309527 0.00295369 0.00282107 0.00269658 0.00258001 0.00247108 0.00236931 0.00227445 0.00218614 
0.00210377 0.00202684 0.00195461 0.00188617 0.00182061 0.00175718 0.0146481 0.0138458 0.0130931 
0.0123877 0.0117262 0.0111049 0.0105196 0.00996601 0.00944037 0.0089389 0.00845971 0.008002 
0.00756569 0.00715107 0.00675821 0.00638734 0.00603812 0.00571022 0.00540287 0.00511515 0.00484609 
0.00459471 0.00435997 0.00414073 0.00393596 0.00374459 0.00356562 0.00339796 0.00324097 0.00309372 
0.00295581 0.00282656 0.00270563 0.00259246 0.00248668 0.00238788 0.00229542 0.00220868 0.00212698 
0.00204955 0.00197559 0.00190441 0.0161105 0.0152119 0.0143683 0.0135768 0.0128344 0.0121371 
0.0114811 0.0108623 0.010277 0.00972229 0.00919501 0.00869391 0.00821825 0.00776761 0.00734127 
0.00693916 0.00656057 0.0062049 0.0058713 0.00555874 0.0052662 0.00499247 0.00473657 0.00449728 
0.00427354 0.00406427 0.00386842 0.00368493 0.0035131 0.00335199 0.00320105 0.00305957 0.00292704 
0.00280293 0.00268667 0.00257776 0.00247567 0.00237964 0.00228906 0.00220325 0.00212148 0.00204316 
0.0175255 0.0165317 0.0155986 0.0147229 0.0139014 0.0131302 0.0124054 0.0117232 0.0110799 
0.0104724 0.00989755 0.00935345 0.00883875 0.0083523 0.00789327 0.00746064 0.00705364 0.00667118 
0.00631239 0.00597609 0.00566109 0.00536618 0.0050902 0.00483198 0.00459031 0.00436415 0.00415239 
0.00395394 0.00376809 0.00359382 0.0034306 0.0032774 0.0031339 0.00299937 0.00287318 0.00275477 
0.0026436 0.00253892 0.00244003 0.00234649 0.00225753 0.00217263 0.0188823 0.0177948 0.0167741 
0.0158165 0.0149184 0.0140758 0.0132848 0.0125413 0.0118419 0.0111831 0.0105621 0.00997605 
0.00942314 0.00890189 0.00841101 0.00794887 0.00751447 0.00710647 0.00672363 0.00636477 0.00602855 
0.00571367 0.0054188 0.00514277 0.00488437 0.00464238 0.00441578 0.00420346 0.00400434 0.00381783 
0.00364288 0.00347887 0.00332504 0.00318078 0.0030453 0.00291805 0.00279844 0.00268576 0.00257934 
0.00247866 0.00238313 0.00229223 0.0201718 0.0189929 0.017887 0.0168501 0.0158781 0.014967 
0.0141125 0.0133106 0.0125575 0.0118497 0.0111842 0.0105577 0.00996804 0.00941331 0.00889176 
0.00840134 0.00794079 0.00750855 0.00710312 0.00672293 0.00636682 0.00603323 0.00572083 0.00542822 
0.00515424 0.00489764 0.00465727 0.00443201 0.00422077 0.00402284 0.00383715 0.00366307 0.00349968 
0.0033464 0.00320241 0.00306702 0.00293967 0.00281971 0.00270647 0.00259927 0.00249779 0.0024014 
0.0213863 0.0201186 0.0189305 0.0178172 0.0167744 0.0157981 0.0148832 0.0140259 0.013222 
0.0124677 0.0117596 0.0110949 0.0104704 0.00988372 0.00933292 0.00881603 0.00833079 0.00787578 
0.00744911 0.00704914 0.00667456 0.00632366 0.00599504 0.00568722 0.00539894 0.00512892 0.00487594 
0.00463889 0.00441665 0.00420818 0.00401275 0.00382946 0.0036573 0.00349573 0.00334401 0.00320129 
0.00306696 0.00294041 0.00282099 0.00270801 0.00260115 0.00249982 0.0225191 0.0211657 0.0198985 
0.0187125 0.0176025 0.0165639 0.0155924 0.0146828 0.0138312 0.0130333 0.0122856 0.0115848 
0.0109275 0.010311 0.00973291 0.00919105 0.0086829 0.00820665 0.00776043 0.00734237 0.00695071 
0.006584 0.00624056 0.00591895 0.00561768 0.00533551 0.00507115 0.0048234 0.00459117 0.00437331 
0.00416902 0.00397735 0.00379748 0.00362852 0.00346981 0.00332052 0.00317999 0.00304759 0.00292268 
0.00280466 0.00269295 0.00258721 0.0235639 0.0221282 0.0207857 0.0195305 0.0183573 0.0172605 
0.0162356 0.0152775 0.0143815 0.0135432 0.0127587 0.0120244 0.0113369 0.0106929 0.0100897 
0.00952465 0.00899567 0.00850002 0.00803595 0.00760139 0.00719441 0.00681341 0.0064567 0.00612268 
0.00580986 0.00551684 0.00524234 0.00498509 0.00474398 0.0045179 0.00430571 0.00410666 0.00391989 
0.00374444 0.0035796 0.00342453 0.00327856 0.00314102 0.00301133 0.00288884 0.00277295 0.00266338 
0.0245139 0.0230004 0.0215866 0.0202665 0.0190342 0.0178835 0.0168094 0.0158064 0.0148697 
0.0139944 0.0131764 0.0124116 0.0116966 0.0110274 0.0104015 0.00981575 0.00926779 0.00875481 
0.00827473 0.00782548 0.00740493 0.00701124 0.00664281 0.00629789 0.00597493 0.00567244 0.00538908 
0.00512359 0.00487479 0.00464144 0.0044225 0.00421714 0.00402439 0.00384328 0.00367315 0.0035131 
0.00336249 0.00322057 0.00308679 0.00296049 0.00284114 0.00272818 0.0253635 0.0237764 0.0222962 
0.0209159 0.0196289 0.0184289 0.0173098 0.0162662 0.0152926 0.0143841 0.013536 0.012744 
0.0120041 0.011313 0.0106668 0.0100628 0.00949812 0.00896992 0.00847586 0.00801376 0.00758147 
0.00717691 0.00679836 0.00644409 0.00611245 0.00580192 0.00551103 0.00523854 0.00498318 0.00474377 
0.00451913 0.00430843 0.0041106 0.00392487 0.00375028 0.00358616 0.00343166 0.00328611 0.00314892 
0.00301944 0.00289715 0.00278146 0.0261058 0.0244506 0.0229092 0.0214737 0.0201372 0.0188927 
0.0177334 0.0166537 0.0156475 0.0147096 0.0138352 0.0130195 0.0122582 0.0115479 0.0108843 
0.0102645 0.0096854 0.00914439 0.00863852 0.00816558 0.00772346 0.00730983 0.00692286 0.00656086 
0.00622207 0.0059049 0.0056079 0.00532969 0.00506903 0.00482467 0.00459552 0.00438043 0.00417857 
0.00398906 0.00381097 0.00364354 0.00348592 0.00333751 0.0031976 0.00306563 0.00294101 0.00282321 
0.0267342 0.025017 0.0234201 0.0219354 0.0205548 0.0192711 0.0180768 0.0169658 0.0159316 
0.0149687 0.0140719 0.0132362 0.012457 0.0117303 0.0110525 0.0104197 0.00982897 0.00927738 
0.00876196 0.00828032 0.0078302 0.00740944 0.00701588 0.00664778 0.00630341 0.00598111 0.00567937 
0.00539679 0.00513208 0.00488398 0.00465132 0.00443298 0.00422815 0.00403581 0.00385502 0.00368513 
0.00352523 0.00337468 0.00323277 0.00309894 0.0029726 0.0028532 0.0272421 0.0254696 0.0238239 
0.0222961 0.0208777 0.0195604 0.0183367 0.0171995 0.0161422 0.0151589 0.0142439 0.0133921 
0.0125987 0.0118593 0.0111703 0.0105274 0.00992768 0.00936804 0.00884538 0.00835729 0.00790131 
0.0074753 0.00707701 0.00670453 0.00635617 0.00603027 0.00572522 0.0054396 0.00517211 0.00492146 
0.00468645 0.00446593 0.00425909 0.00406489 0.00388237 0.00371088 0.00354947 0.00339754 0.00325435 
0.00311933 0.00299188 0.00287152 0.0276223 0.025802 0.0241149 0.0225511 0.0211015 0.0197571 
0.0185099 0.017352 0.016277 0.015278 0.0143494 0.0134857 0.0126819 0.0119334 0.0112363 
0.0105866 0.00998064 0.00941547 0.00888825 0.00839598 0.00793627 0.00750692 0.00710575 0.00673071 
0.00638005 0.00605208 0.00574521 0.00545798 0.00518898 0.004937 0.00470078 0.00447928 0.00427135 
0.00407616 0.0038929 0.00372061 0.00355859 0.003406 0.00326226 0.00312669 0.00299879 0.00287798 
0.0278679 0.0260083 0.0242881 0.022696 0.0212223 0.0198578 0.0185933 0.017421 0.0163336 
0.0153243 0.0143867 0.0135155 0.0127054 0.0119516 0.0112498 0.0105964 0.0099872 0.00941939 
0.00888995 0.00839583 0.00793458 0.00750399 0.00710189 0.00672612 0.00637482 0.00604637 0.00573916 
0.00545168 0.00518249 0.00493043 0.00469424 0.0044727 0.00426483 0.00406978 0.00388656 0.00371439 
0.00355249 0.00340005 0.00325645 0.00312104 0.00299329 0.00287263 0.0279719 0.0260825 0.0243379 
0.0227263 0.0212365 0.0198591 0.0185843 0.0174039 0.01631 0.0152957 0.0143543 0.0134803 
0.012668 0.0119127 0.01121 0.0105558 0.00994672 0.00937901 0.00884975 0.00835638 0.00789595 
0.00746622 0.00706502 0.00669039 0.00634022 0.00601293 0.00570689 0.00542059 0.00515258 0.00490166 
0.00466662 0.00444623 0.00423954 0.00404546 0.00386333 0.0036921 0.00353116 0.00337962 0.00323688 
0.00310231 0.00297535 0.00285541 0.0279273 0.0260187 0.0242597 0.0226376 0.0211406 0.019758 
0.0184804 0.0172986 0.0162045 0.015191 0.0142511 0.0133789 0.0125689 0.0118161 0.0111161 
0.0104647 0.00985858 0.0092938 0.00876769 0.00827735 0.00781999 0.00739327 0.00699507 0.00662337 
0.00627611 0.00595161 0.00564827 0.0053646 0.00509915 0.00485063 0.00461792 0.00439977 0.00419524 