# vtk DataFile Version 4.0
vtk output
ASCII
DATASET STRUCTURED_POINTS
DIMENSIONS 62 62 62
SPACING 0.05 0.05 0.05
ORIGIN -1.525 -1.525 -1.525
POINT_DATA 238328
FIELD FieldData 1
potential 1 238328 double
0.00632982 0.0063307 0.00633159 0.00633247 0.00633336 0.00633425 0.00633513 0.00633602 0.00633691 
0.00633779 0.00633868 0.00633957 0.00634045 0.00634134 0.00634223 0.00634312 0.00634401 0.0063449 
0.00634579 0.00634667 0.00634756 0.00634845 0.00634934 0.00635023 0.00635112 0.00635202 0.00635291 
0.0063538 0.00635469 0.00635558 0.00635647 0.00635737 0.00635826 0.00635915 0.00636004 0.00636094 
0.00636183 0.00636273 0.00636362 0.00636451 0.00636541 0.0063663 0.0063672 0.00636809 0.00636899 
0.00636989 0.00637078 0.00637168 0.00637257 0.00637347 0.00637437 0.00637527 0.00637616 0.00637706 
0.00637796 0.00637886 0.00637976 0.00638066 0.00638156 0.00638246 0.00638336 0.00638426 0.00632888 
0.00632976 0.00633065 0.00633153 0.00633242 0.0063333 0.00633419 0.00633507 0.00633596 0.00633685 
0.00633773 0.00633862 0.00633951 0.00634039 0.00634128 0.00634217 0.00634306 0.00634394 0.00634483 
0.00634572 0.00634661 0.0063475 0.00634839 0.00634928 0.00635017 0.00635106 0.00635195 0.00635284 
0.00635373 0.00635462 0.00635551 0.0063564 0.00635729 0.00635819 0.00635908 0.00635997 0.00636086 
0.00636176 0.00636265 0.00636354 0.00636444 0.00636533 0.00636623 0.00636712 0.00636801 0.00636891 
0.00636981 0.0063707 0.0063716 0.00637249 0.00637339 0.00637429 0.00637518 0.00637608 0.00637698 
0.00637788 0.00637877 0.00637967 0.00638057 0.00638147 0.00638237 0.00638327 0.00632794 0.00632882 
0.00632971 0.00633059 0.00633147 0.00633236 0.00633324 0.00633413 0.00633501 0.0063359 0.00633678 
0.00633767 0.00633856 0.00633944 0.00634033 0.00634122 0.0063421 0.00634299 0.00634388 0.00634477 
0.00634565 0.00634654 0.00634743 0.00634832 0.00634921 0.0063501 0.00635099 0.00635188 0.00635277 
0.00635366 0.00635455 0.00635544 0.00635633 0.00635722 0.00635811 0.006359 0.0063599 0.00636079 
0.00636168 0.00636257 0.00636347 0.00636436 0.00636525 0.00636615 0.00636704 0.00636793 0.00636883 
0.00636972 0.00637062 0.00637151 0.00637241 0.00637331 0.0063742 0.0063751 0.00637599 0.00637689 
0.00637779 0.00637869 0.00637958 0.00638048 0.00638138 0.00638228 0.006327 0.00632788 0.00632877 
0.00632965 0.00633053 0.00633142 0.0063323 0.00633318 0.00633407 0.00633495 0.00633584 0.00633672 
0.00633761 0.00633849 0.00633938 0.00634026 0.00634115 0.00634204 0.00634292 0.00634381 0.0063447 
0.00634559 0.00634647 0.00634736 0.00634825 0.00634914 0.00635003 0.00635092 0.0063518 0.00635269 
0.00635358 0.00635447 0.00635536 0.00635625 0.00635714 0.00635804 0.00635893 0.00635982 0.00636071 
0.0063616 0.00636249 0.00636339 0.00636428 0.00636517 0.00636607 0.00636696 0.00636785 0.00636875 
0.00636964 0.00637054 0.00637143 0.00637233 0.00637322 0.00637412 0.00637501 0.00637591 0.0063768 
0.0063777 0.0063786 0.0063795 0.00638039 0.00638129 0.00632606 0.00632694 0.00632782 0.00632871 
0.00632959 0.00633047 0.00633136 0.00633224 0.00633312 0.00633401 0.00633489 0.00633577 0.00633666 
0.00633754 0.00633843 0.00633931 0.0063402 0.00634108 0.00634197 0.00634286 0.00634374 0.00634463 
0.00634552 0.0063464 0.00634729 0.00634818 0.00634907 0.00634995 0.00635084 0.00635173 0.00635262 
0.00635351 0.0063544 0.00635529 0.00635618 0.00635707 0.00635796 0.00635885 0.00635974 0.00636063 
0.00636152 0.00636241 0.00636331 0.0063642 0.00636509 0.00636598 0.00636688 0.00636777 0.00636866 
0.00636956 0.00637045 0.00637134 0.00637224 0.00637313 0.00637403 0.00637492 0.00637582 0.00637672 
0.00637761 0.00637851 0.0063794 0.0063803 0.00632512 0.006326 0.00632688 0.00632777 0.00632865 
0.00632953 0.00633041 0.00633129 0.00633218 0.00633306 0.00633394 0.00633483 0.00633571 0.00633659 
0.00633748 0.00633836 0.00633925 0.00634013 0.00634102 0.0063419 0.00634279 0.00634367 0.00634456 
0.00634545 0.00634633 0.00634722 0.00634811 0.00634899 0.00634988 0.00635077 0.00635166 0.00635255 
0.00635343 0.00635432 0.00635521 0.0063561 0.00635699 0.00635788 0.00635877 0.00635966 0.00636055 
0.00636144 0.00636233 0.00636322 0.00636412 0.00636501 0.0063659 0.00636679 0.00636768 0.00636858 
0.00636947 0.00637036 0.00637126 0.00637215 0.00637305 0.00637394 0.00637484 0.00637573 0.00637663 
0.00637752 0.00637842 0.00637931 0.00632418 0.00632506 0.00632594 0.00632682 0.0063277 0.00632859 
0.00632947 0.00633035 0.00633123 0.00633211 0.006333 0.00633388 0.00633476 0.00633564 0.00633653 
0.00633741 0.00633829 0.00633918 0.00634006 0.00634095 0.00634183 0.00634272 0.0063436 0.00634449 
0.00634537 0.00634626 0.00634715 0.00634803 0.00634892 0.00634981 0.00635069 0.00635158 0.00635247 
0.00635336 0.00635424 0.00635513 0.00635602 0.00635691 0.0063578 0.00635869 0.00635958 0.00636047 
0.00636136 0.00636225 0.00636314 0.00636403 0.00636492 0.00636582 0.00636671 0.0063676 0.00636849 
0.00636938 0.00637028 0.00637117 0.00637206 0.00637296 0.00637385 0.00637474 0.00637564 0.00637653 
0.00637743 0.00637832 0.00632324 0.00632412 0.006325 0.00632588 0.00632676 0.00632764 0.00632852 
0.0063294 0.00633028 0.00633117 0.00633205 0.00633293 0.00633381 0.00633469 0.00633558 0.00633646 
0.00633734 0.00633823 0.00633911 0.00633999 0.00634088 0.00634176 0.00634265 0.00634353 0.00634442 
0.0063453 0.00634619 0.00634707 0.00634796 0.00634884 0.00634973 0.00635062 0.0063515 0.00635239 
0.00635328 0.00635417 0.00635505 0.00635594 0.00635683 0.00635772 0.00635861 0.0063595 0.00636039 
0.00636128 0.00636217 0.00636306 0.00636395 0.00636484 0.00636573 0.00636662 0.00636751 0.0063684 
0.0063693 0.00637019 0.00637108 0.00637197 0.00637287 0.00637376 0.00637465 0.00637555 0.00637644 
0.00637734 0.0063223 0.00632318 0.00632406 0.00632494 0.00632582 0.0063267 0.00632758 0.00632846 
0.00632934 0.00633022 0.0063311 0.00633198 0.00633286 0.00633374 0.00633463 0.00633551 0.00633639 
0.00633727 0.00633816 0.00633904 0.00633992 0.0063408 0.00634169 0.00634257 0.00634346 0.00634434 
0.00634523 0.00634611 0.006347 0.00634788 0.00634877 0.00634965 0.00635054 0.00635143 0.00635231 
0.0063532 0.00635409 0.00635497 0.00635586 0.00635675 0.00635764 0.00635853 0.00635941 0.0063603 
0.00636119 0.00636208 0.00636297 0.00636386 0.00636475 0.00636564 0.00636653 0.00636742 0.00636831 
0.00636921 0.0063701 0.00637099 0.00637188 0.00637277 0.00637367 0.00637456 0.00637545 0.00637635 
0.00632136 0.00632224 0.00632312 0.006324 0.00632488 0.00632576 0.00632663 0.00632751 0.00632839 
0.00632927 0.00633015 0.00633103 0.00633191 0.00633279 0.00633368 0.00633456 0.00633544 0.00633632 
0.0063372 0.00633808 0.00633897 0.00633985 0.00634073 0.00634161 0.0063425 0.00634338 0.00634427 
0.00634515 0.00634603 0.00634692 0.0063478 0.00634869 0.00634957 0.00635046 0.00635135 0.00635223 
0.00635312 0.006354 0.00635489 0.00635578 0.00635667 0.00635755 0.00635844 0.00635933 0.00636022 
0.00636111 0.00636199 0.00636288 0.00636377 0.00636466 0.00636555 0.00636644 0.00636733 0.00636822 
0.00636911 0.00637001 0.0063709 0.00637179 0.00637268 0.00637357 0.00637447 0.00637536 0.00632042 
0.0063213 0.00632218 0.00632306 0.00632393 0.00632481 0.00632569 0.00632657 0.00632745 0.00632833 
0.00632921 0.00633008 0.00633096 0.00633184 0.00633272 0.00633361 0.00633449 0.00633537 0.00633625 
0.00633713 0.00633801 0.00633889 0.00633977 0.00634066 0.00634154 0.00634242 0.00634331 0.00634419 
0.00634507 0.00634596 0.00634684 0.00634772 0.00634861 0.00634949 0.00635038 0.00635126 0.00635215 
0.00635304 0.00635392 0.00635481 0.00635569 0.00635658 0.00635747 0.00635835 0.00635924 0.00636013 
0.00636102 0.00636191 0.00636279 0.00636368 0.00636457 0.00636546 0.00636635 0.00636724 0.00636813 
0.00636902 0.00636991 0.0063708 0.00637169 0.00637259 0.00637348 0.00637437 0.00631948 0.00632036 
0.00632124 0.00632211 0.00632299 0.00632387 0.00632475 0.00632562 0.0063265 0.00632738 0.00632826 
0.00632914 0.00633002 0.00633089 0.00633177 0.00633265 0.00633353 0.00633441 0.00633529 0.00633617 
0.00633706 0.00633794 0.00633882 0.0063397 0.00634058 0.00634146 0.00634235 0.00634323 0.00634411 
0.00634499 0.00634588 0.00634676 0.00634764 0.00634853 0.00634941 0.0063503 0.00635118 0.00635207 
0.00635295 0.00635384 0.00635472 0.00635561 0.00635649 0.00635738 0.00635827 0.00635915 0.00636004 
0.00636093 0.00636182 0.0063627 0.00636359 0.00636448 0.00636537 0.00636626 0.00636715 0.00636804 
0.00636893 0.00636982 0.00637071 0.0063716 0.00637249 0.00637338 0.00631854 0.00631942 0.0063203 
0.00632117 0.00632205 0.00632292 0.0063238 0.00632468 0.00632556 0.00632643 0.00632731 0.00632819 
0.00632907 0.00632995 0.00633082 0.0063317 0.00633258 0.00633346 0.00633434 0.00633522 0.0063361 
0.00633698 0.00633786 0.00633874 0.00633962 0.0063405 0.00634139 0.00634227 0.00634315 0.00634403 
0.00634491 0.0063458 0.00634668 0.00634756 0.00634845 0.00634933 0.00635021 0.0063511 0.00635198 
0.00635287 0.00635375 0.00635464 0.00635552 0.00635641 0.00635729 0.00635818 0.00635907 0.00635995 
0.00636084 0.00636173 0.00636261 0.0063635 0.00636439 0.00636528 0.00636617 0.00636705 0.00636794 
0.00636883 0.00636972 0.00637061 0.0063715 0.00637239 0.00631761 0.00631848 0.00631936 0.00632023 
0.00632111 0.00632198 0.00632286 0.00632373 0.00632461 0.00632549 0.00632636 0.00632724 0.00632812 
0.006329 0.00632987 0.00633075 0.00633163 0.00633251 0.00633339 0.00633427 0.00633514 0.00633602 
0.0063369 0.00633778 0.00633866 0.00633954 0.00634042 0.00634131 0.00634219 0.00634307 0.00634395 
0.00634483 0.00634571 0.0063466 0.00634748 0.00634836 0.00634924 0.00635013 0.00635101 0.0063519 
0.00635278 0.00635366 0.00635455 0.00635543 0.00635632 0.0063572 0.00635809 0.00635897 0.00635986 
0.00636075 0.00636163 0.00636252 0.00636341 0.0063643 0.00636518 0.00636607 0.00636696 0.00636785 
0.00636874 0.00636962 0.00637051 0.0063714 0.00631667 0.00631754 0.00631841 0.00631929 0.00632016 
0.00632104 0.00632191 0.00632279 0.00632366 0.00632454 0.00632542 0.00632629 0.00632717 0.00632805 
0.00632892 0.0063298 0.00633068 0.00633155 0.00633243 0.00633331 0.00633419 0.00633507 0.00633595 
0.00633683 0.00633771 0.00633859 0.00633946 0.00634034 0.00634123 0.00634211 0.00634299 0.00634387 
0.00634475 0.00634563 0.00634651 0.00634739 0.00634828 0.00634916 0.00635004 0.00635092 0.00635181 
0.00635269 0.00635358 0.00635446 0.00635534 0.00635623 0.00635711 0.006358 0.00635888 0.00635977 
0.00636065 0.00636154 0.00636243 0.00636331 0.0063642 0.00636509 0.00636597 0.00636686 0.00636775 
0.00636864 0.00636953 0.00637041 0.00631573 0.0063166 0.00631747 0.00631835 0.00631922 0.00632009 
0.00632097 0.00632184 0.00632272 0.00632359 0.00632447 0.00632534 0.00632622 0.0063271 0.00632797 
0.00632885 0.00632973 0.0063306 0.00633148 0.00633236 0.00633323 0.00633411 0.00633499 0.00633587 
0.00633675 0.00633763 0.0063385 0.00633938 0.00634026 0.00634114 0.00634202 0.0063429 0.00634378 
0.00634466 0.00634555 0.00634643 0.00634731 0.00634819 0.00634907 0.00634995 0.00635084 0.00635172 
0.0063526 0.00635349 0.00635437 0.00635525 0.00635614 0.00635702 0.00635791 0.00635879 0.00635967 
0.00636056 0.00636145 0.00636233 0.00636322 0.0063641 0.00636499 0.00636588 0.00636676 0.00636765 
0.00636854 0.00636943 0.00631479 0.00631566 0.00631653 0.0063174 0.00631828 0.00631915 0.00632002 
0.0063209 0.00632177 0.00632265 0.00632352 0.0063244 0.00632527 0.00632615 0.00632702 0.0063279 
0.00632877 0.00632965 0.00633053 0.0063314 0.00633228 0.00633316 0.00633403 0.00633491 0.00633579 
0.00633667 0.00633754 0.00633842 0.0063393 0.00634018 0.00634106 0.00634194 0.00634282 0.0063437 
0.00634458 0.00634546 0.00634634 0.00634722 0.0063481 0.00634898 0.00634987 0.00635075 0.00635163 
0.00635251 0.00635339 0.00635428 0.00635516 0.00635604 0.00635693 0.00635781 0.0063587 0.00635958 
0.00636046 0.00636135 0.00636223 0.00636312 0.00636401 0.00636489 0.00636578 0.00636666 0.00636755 
0.00636844 0.00631385 0.00631472 0.00631559 0.00631646 0.00631734 0.00631821 0.00631908 0.00631995 
0.00632083 0.0063217 0.00632257 0.00632345 0.00632432 0.0063252 0.00632607 0.00632695 0.00632782 
0.0063287 0.00632957 0.00633045 0.00633132 0.0063322 0.00633308 0.00633395 0.00633483 0.00633571 
0.00633658 0.00633746 0.00633834 0.00633922 0.0063401 0.00634098 0.00634185 0.00634273 0.00634361 
0.00634449 0.00634537 0.00634625 0.00634713 0.00634801 0.00634889 0.00634977 0.00635066 0.00635154 
0.00635242 0.0063533 0.00635418 0.00635507 0.00635595 0.00635683 0.00635772 0.0063586 0.00635948 
0.00636037 0.00636125 0.00636214 0.00636302 0.00636391 0.00636479 0.00636568 0.00636656 0.00636745 
0.00631291 0.00631378 0.00631465 0.00631552 0.00631639 0.00631726 0.00631814 0.00631901 0.00631988 
0.00632075 0.00632163 0.0063225 0.00632337 0.00632425 0.00632512 0.00632599 0.00632687 0.00632774 
0.00632862 0.00632949 0.00633037 0.00633124 0.00633212 0.006333 0.00633387 0.00633475 0.00633562 
0.0063365 0.00633738 0.00633826 0.00633913 0.00634001 0.00634089 0.00634177 0.00634265 0.00634352 
0.0063444 0.00634528 0.00634616 0.00634704 0.00634792 0.0063488 0.00634968 0.00635056 0.00635144 
0.00635233 0.00635321 0.00635409 0.00635497 0.00635585 0.00635674 0.00635762 0.0063585 0.00635939 
0.00636027 0.00636115 0.00636204 0.00636292 0.00636381 0.00636469 0.00636557 0.00636646 0.00631197 
0.00631284 0.00631371 0.00631458 0.00631545 0.00631632 0.00631719 0.00631806 0.00631894 0.00631981 
0.00632068 0.00632155 0.00632242 0.0063233 0.00632417 0.00632504 0.00632592 0.00632679 0.00632766 
0.00632854 0.00632941 0.00633029 0.00633116 0.00633204 0.00633291 0.00633379 0.00633466 0.00633554 
0.00633642 0.00633729 0.00633817 0.00633905 0.00633992 0.0063408 0.00634168 0.00634256 0.00634344 
0.00634431 0.00634519 0.00634607 0.00634695 0.00634783 0.00634871 0.00634959 0.00635047 0.00635135 
0.00635223 0.00635311 0.00635399 0.00635487 0.00635576 0.00635664 0.00635752 0.0063584 0.00635929 
0.00636017 0.00636105 0.00636194 0.00636282 0.0063637 0.00636459 0.00636547 0.00631103 0.0063119 
0.00631277 0.00631364 0.00631451 0.00631538 0.00631625 0.00631712 0.00631799 0.00631886 0.00631973 
0.0063206 0.00632148 0.00632235 0.00632322 0.00632409 0.00632496 0.00632584 0.00632671 0.00632758 
0.00632846 0.00632933 0.00633021 0.00633108 0.00633195 0.00633283 0.0063337 0.00633458 0.00633546 
0.00633633 0.00633721 0.00633808 0.00633896 0.00633984 0.00634071 0.00634159 0.00634247 0.00634335 
0.00634422 0.0063451 0.00634598 0.00634686 0.00634774 0.00634862 0.0063495 0.00635038 0.00635126 
0.00635214 0.00635302 0.0063539 0.00635478 0.00635566 0.00635654 0.00635742 0.0063583 0.00635919 
0.00636007 0.00636095 0.00636183 0.00636272 0.0063636 0.00636448 0.00631009 0.00631096 0.00631183 
0.0063127 0.00631356 0.00631443 0.0063153 0.00631617 0.00631704 0.00631791 0.00631878 0.00631966 
0.00632053 0.0063214 0.00632227 0.00632314 0.00632401 0.00632488 0.00632576 0.00632663 0.0063275 
0.00632838 0.00632925 0.00633012 0.006331 0.00633187 0.00633274 0.00633362 0.00633449 0.00633537 
0.00633624 0.00633712 0.00633799 0.00633887 0.00633975 0.00634062 0.0063415 0.00634238 0.00634325 
0.00634413 0.00634501 0.00634589 0.00634676 0.00634764 0.00634852 0.0063494 0.00635028 0.00635116 
0.00635204 0.00635292 0.0063538 0.00635468 0.00635556 0.00635644 0.00635732 0.0063582 0.00635908 
0.00635996 0.00636085 0.00636173 0.00636261 0.00636349 0.00630915 0.00631002 0.00631089 0.00631175 
0.00631262 0.00631349 0.00631436 0.00631523 0.0063161 0.00631697 0.00631784 0.00631871 0.00631958 
0.00632045 0.00632132 0.00632219 0.00632306 0.00632393 0.0063248 0.00632568 0.00632655 0.00632742 
0.00632829 0.00632916 0.00633004 0.00633091 0.00633178 0.00633266 0.00633353 0.00633441 0.00633528 
0.00633615 0.00633703 0.0063379 0.00633878 0.00633966 0.00634053 0.00634141 0.00634228 0.00634316 
0.00634404 0.00634491 0.00634579 0.00634667 0.00634755 0.00634842 0.0063493 0.00635018 0.00635106 
0.00635194 0.00635282 0.0063537 0.00635458 0.00635546 0.00635634 0.00635722 0.0063581 0.00635898 
0.00635986 0.00636074 0.00636162 0.00636251 0.00630821 0.00630908 0.00630994 0.00631081 0.00631168 
0.00631255 0.00631342 0.00631428 0.00631515 0.00631602 0.00631689 0.00631776 0.00631863 0.0063195 
0.00632037 0.00632124 0.00632211 0.00632298 0.00632385 0.00632472 0.00632559 0.00632646 0.00632734 
0.00632821 0.00632908 0.00632995 0.00633082 0.0063317 0.00633257 0.00633344 0.00633432 0.00633519 
0.00633606 0.00633694 0.00633781 0.00633869 0.00633956 0.00634044 0.00634131 0.00634219 0.00634307 
0.00634394 0.00634482 0.0063457 0.00634657 0.00634745 0.00634833 0.0063492 0.00635008 0.00635096 
0.00635184 0.00635272 0.0063536 0.00635448 0.00635535 0.00635623 0.00635711 0.00635799 0.00635887 
0.00635976 0.00636064 0.00636152 0.00630727 0.00630814 0.006309 0.00630987 0.00631074 0.0063116 
0.00631247 0.00631334 0.00631421 0.00631507 0.00631594 0.00631681 0.00631768 0.00631855 0.00631942 
0.00632029 0.00632116 0.00632203 0.0063229 0.00632377 0.00632464 0.00632551 0.00632638 0.00632725 
0.00632812 0.00632899 0.00632986 0.00633074 0.00633161 0.00633248 0.00633335 0.00633423 0.0063351 
0.00633597 0.00633685 0.00633772 0.0063386 0.00633947 0.00634034 0.00634122 0.00634209 0.00634297 
0.00634385 0.00634472 0.0063456 0.00634647 0.00634735 0.00634823 0.0063491 0.00634998 0.00635086 
0.00635174 0.00635262 0.00635349 0.00635437 0.00635525 0.00635613 0.00635701 0.00635789 0.00635877 
0.00635965 0.00636053 0.00630633 0.0063072 0.00630806 0.00630893 0.00630979 0.00631066 0.00631153 
0.00631239 0.00631326 0.00631413 0.006315 0.00631586 0.00631673 0.0063176 0.00631847 0.00631934 
0.0063202 0.00632107 0.00632194 0.00632281 0.00632368 0.00632455 0.00632542 0.00632629 0.00632716 
0.00632803 0.0063289 0.00632978 0.00633065 0.00633152 0.00633239 0.00633326 0.00633414 0.00633501 
0.00633588 0.00633675 0.00633763 0.0063385 0.00633937 0.00634025 0.00634112 0.006342 0.00634287 
0.00634375 0.00634462 0.0063455 0.00634637 0.00634725 0.00634813 0.006349 0.00634988 0.00635076 
0.00635163 0.00635251 0.00635339 0.00635427 0.00635515 0.00635602 0.0063569 0.00635778 0.00635866 
0.00635954 0.00630539 0.00630626 0.00630712 0.00630799 0.00630885 0.00630972 0.00631058 0.00631145 
0.00631232 0.00631318 0.00631405 0.00631491 0.00631578 0.00631665 0.00631752 0.00631838 0.00631925 
0.00632012 0.00632099 0.00632186 0.00632273 0.0063236 0.00632446 0.00632533 0.0063262 0.00632707 
0.00632794 0.00632881 0.00632969 0.00633056 0.00633143 0.0063323 0.00633317 0.00633404 0.00633491 
0.00633579 0.00633666 0.00633753 0.00633841 0.00633928 0.00634015 0.00634103 0.0063419 0.00634277 
0.00634365 0.00634452 0.0063454 0.00634627 0.00634715 0.00634802 0.0063489 0.00634978 0.00635065 
0.00635153 0.00635241 0.00635328 0.00635416 0.00635504 0.00635592 0.0063568 0.00635767 0.00635855 
0.00630445 0.00630532 0.00630618 0.00630704 0.00630791 0.00630877 0.00630964 0.0063105 0.00631137 
0.00631223 0.0063131 0.00631397 0.00631483 0.0063157 0.00631657 0.00631743 0.0063183 0.00631917 
0.00632004 0.0063209 0.00632177 0.00632264 0.00632351 0.00632438 0.00632525 0.00632611 0.00632698 
0.00632785 0.00632872 0.00632959 0.00633046 0.00633133 0.00633221 0.00633308 0.00633395 0.00633482 
0.00633569 0.00633656 0.00633744 0.00633831 0.00633918 0.00634005 0.00634093 0.0063418 0.00634267 
0.00634355 0.00634442 0.0063453 0.00634617 0.00634705 0.00634792 0.0063488 0.00634967 0.00635055 
0.00635142 0.0063523 0.00635318 0.00635405 0.00635493 0.00635581 0.00635669 0.00635756 0.00630351 
0.00630438 0.00630524 0.0063061 0.00630697 0.00630783 0.00630869 0.00630956 0.00631042 0.00631129 
0.00631215 0.00631302 0.00631388 0.00631475 0.00631562 0.00631648 0.00631735 0.00631821 0.00631908 
0.00631995 0.00632082 0.00632168 0.00632255 0.00632342 0.00632429 0.00632516 0.00632602 0.00632689 
0.00632776 0.00632863 0.0063295 0.00633037 0.00633124 0.00633211 0.00633298 0.00633385 0.00633472 
0.00633559 0.00633647 0.00633734 0.00633821 0.00633908 0.00633995 0.00634083 0.0063417 0.00634257 
0.00634345 0.00634432 0.00634519 0.00634607 0.00634694 0.00634782 0.00634869 0.00634957 0.00635044 
0.00635132 0.00635219 0.00635307 0.00635395 0.00635482 0.0063557 0.00635658 0.00630257 0.00630344 
0.0063043 0.00630516 0.00630602 0.00630689 0.00630775 0.00630861 0.00630948 0.00631034 0.00631121 
0.00631207 0.00631294 0.0063138 0.00631467 0.00631553 0.0063164 0.00631726 0.00631813 0.00631899 
0.00631986 0.00632073 0.00632159 0.00632246 0.00632333 0.0063242 0.00632506 0.00632593 0.0063268 
0.00632767 0.00632854 0.00632941 0.00633028 0.00633115 0.00633202 0.00633289 0.00633376 0.00633463 
0.0063355 0.00633637 0.00633724 0.00633811 0.00633898 0.00633985 0.00634073 0.0063416 0.00634247 
0.00634334 0.00634422 0.00634509 0.00634596 0.00634684 0.00634771 0.00634858 0.00634946 0.00635033 
0.00635121 0.00635208 0.00635296 0.00635384 0.00635471 0.00635559 0.00630163 0.0063025 0.00630336 
0.00630422 0.00630508 0.00630594 0.00630681 0.00630767 0.00630853 0.0063094 0.00631026 0.00631112 
0.00631199 0.00631285 0.00631372 0.00631458 0.00631544 0.00631631 0.00631717 0.00631804 0.00631891 
0.00631977 0.00632064 0.0063215 0.00632237 0.00632324 0.0063241 0.00632497 0.00632584 0.00632671 
0.00632757 0.00632844 0.00632931 0.00633018 0.00633105 0.00633192 0.00633279 0.00633366 0.00633453 
0.0063354 0.00633627 0.00633714 0.00633801 0.00633888 0.00633975 0.00634062 0.00634149 0.00634237 
0.00634324 0.00634411 0.00634498 0.00634586 0.00634673 0.0063476 0.00634848 0.00634935 0.00635022 
0.0063511 0.00635197 0.00635285 0.00635372 0.0063546 0.0063007 0.00630156 0.00630242 0.00630328 
0.00630414 0.006305 0.00630586 0.00630672 0.00630759 0.00630845 0.00630931 0.00631017 0.00631104 
0.0063119 0.00631276 0.00631363 0.00631449 0.00631536 0.00631622 0.00631709 0.00631795 0.00631882 
0.00631968 0.00632055 0.00632141 0.00632228 0.00632314 0.00632401 0.00632488 0.00632574 0.00632661 
0.00632748 0.00632835 0.00632921 0.00633008 0.00633095 0.00633182 0.00633269 0.00633356 0.00633443 
0.0063353 0.00633617 0.00633704 0.00633791 0.00633878 0.00633965 0.00634052 0.00634139 0.00634226 
0.00634313 0.006344 0.00634488 0.00634575 0.00634662 0.00634749 0.00634837 0.00634924 0.00635011 
0.00635099 0.00635186 0.00635274 0.00635361 0.00629976 0.00630062 0.00630148 0.00630234 0.0063032 
0.00630406 0.00630492 0.00630578 0.00630664 0.0063075 0.00630836 0.00630923 0.00631009 0.00631095 
0.00631181 0.00631268 0.00631354 0.0063144 0.00631527 0.00631613 0.006317 0.00631786 0.00631872 
0.00631959 0.00632045 0.00632132 0.00632218 0.00632305 0.00632392 0.00632478 0.00632565 0.00632652 
0.00632738 0.00632825 0.00632912 0.00632998 0.00633085 0.00633172 0.00633259 0.00633346 0.00633433 
0.00633519 0.00633606 0.00633693 0.0063378 0.00633867 0.00633954 0.00634041 0.00634128 0.00634215 
0.00634302 0.0063439 0.00634477 0.00634564 0.00634651 0.00634738 0.00634826 0.00634913 0.00635 
0.00635088 0.00635175 0.00635262 0.00629882 0.00629968 0.00630054 0.00630139 0.00630225 0.00630311 
0.00630397 0.00630484 0.0063057 0.00630656 0.00630742 0.00630828 0.00630914 0.00631 0.00631086 
0.00631173 0.00631259 0.00631345 0.00631431 0.00631518 0.00631604 0.0063169 0.00631777 0.00631863 
0.0063195 0.00632036 0.00632122 0.00632209 0.00632295 0.00632382 0.00632469 0.00632555 0.00632642 
0.00632728 0.00632815 0.00632902 0.00632988 0.00633075 0.00633162 0.00633249 0.00633335 0.00633422 
0.00633509 0.00633596 0.00633683 0.0063377 0.00633857 0.00633944 0.00634031 0.00634118 0.00634205 
0.00634292 0.00634379 0.00634466 0.00634553 0.0063464 0.00634727 0.00634814 0.00634902 0.00634989 
0.00635076 0.00635163 0.00629788 0.00629874 0.00629959 0.00630045 0.00630131 0.00630217 0.00630303 
0.00630389 0.00630475 0.00630561 0.00630647 0.00630733 0.00630819 0.00630905 0.00630991 0.00631078 
0.00631164 0.0063125 0.00631336 0.00631422 0.00631509 0.00631595 0.00631681 0.00631767 0.00631854 
0.0063194 0.00632027 0.00632113 0.00632199 0.00632286 0.00632372 0.00632459 0.00632545 0.00632632 
0.00632718 0.00632805 0.00632892 0.00632978 0.00633065 0.00633152 0.00633238 0.00633325 0.00633412 
0.00633499 0.00633585 0.00633672 0.00633759 0.00633846 0.00633933 0.0063402 0.00634107 0.00634194 
0.00634281 0.00634368 0.00634455 0.00634542 0.00634629 0.00634716 0.00634803 0.0063489 0.00634977 
0.00635065 0.00629694 0.0062978 0.00629865 0.00629951 0.00630037 0.00630123 0.00630209 0.00630295 
0.0063038 0.00630466 0.00630552 0.00630638 0.00630724 0.0063081 0.00630896 0.00630982 0.00631069 
0.00631155 0.00631241 0.00631327 0.00631413 0.00631499 0.00631585 0.00631672 0.00631758 0.00631844 
0.00631931 0.00632017 0.00632103 0.0063219 0.00632276 0.00632362 0.00632449 0.00632535 0.00632622 
0.00632708 0.00632795 0.00632881 0.00632968 0.00633055 0.00633141 0.00633228 0.00633315 0.00633401 
0.00633488 0.00633575 0.00633661 0.00633748 0.00633835 0.00633922 0.00634009 0.00634096 0.00634183 
0.00634269 0.00634356 0.00634443 0.0063453 0.00634617 0.00634705 0.00634792 0.00634879 0.00634966 
0.006296 0.00629686 0.00629771 0.00629857 0.00629943 0.00630029 0.00630114 0.006302 0.00630286 
0.00630372 0.00630458 0.00630544 0.00630629 0.00630715 0.00630801 0.00630887 0.00630973 0.00631059 
0.00631145 0.00631231 0.00631318 0.00631404 0.0063149 0.00631576 0.00631662 0.00631748 0.00631835 
0.00631921 0.00632007 0.00632093 0.0063218 0.00632266 0.00632352 0.00632439 0.00632525 0.00632612 
0.00632698 0.00632785 0.00632871 0.00632958 0.00633044 0.00633131 0.00633217 0.00633304 0.00633391 
0.00633477 0.00633564 0.00633651 0.00633737 0.00633824 0.00633911 0.00633998 0.00634084 0.00634171 
0.00634258 0.00634345 0.00634432 0.00634519 0.00634606 0.00634693 0.0063478 0.00634867 0.00629506 
0.00629592 0.00629677 0.00629763 0.00629849 0.00629934 0.0063002 0.00630106 0.00630191 0.00630277 
0.00630363 0.00630449 0.00630535 0.0063062 0.00630706 0.00630792 0.00630878 0.00630964 0.0063105 
0.00631136 0.00631222 0.00631308 0.00631394 0.0063148 0.00631566 0.00631652 0.00631739 0.00631825 
0.00631911 0.00631997 0.00632083 0.0063217 0.00632256 0.00632342 0.00632429 0.00632515 0.00632601 
0.00632688 0.00632774 0.00632861 0.00632947 0.00633033 0.0063312 0.00633207 0.00633293 0.0063338 
0.00633466 0.00633553 0.0063364 0.00633726 0.00633813 0.006339 0.00633986 0.00634073 0.0063416 
0.00634247 0.00634334 0.00634421 0.00634507 0.00634594 0.00634681 0.00634768 0.00629412 0.00629498 
0.00629583 0.00629669 0.00629754 0.0062984 0.00629926 0.00630011 0.00630097 0.00630183 0.00630268 
0.00630354 0.0063044 0.00630526 0.00630611 0.00630697 0.00630783 0.00630869 0.00630955 0.00631041 
0.00631127 0.00631213 0.00631299 0.00631385 0.00631471 0.00631557 0.00631643 0.00631729 0.00631815 
0.00631901 0.00631987 0.00632073 0.00632159 0.00632246 0.00632332 0.00632418 0.00632505 0.00632591 
0.00632677 0.00632764 0.0063285 0.00632936 0.00633023 0.00633109 0.00633196 0.00633282 0.00633369 
0.00633455 0.00633542 0.00633628 0.00633715 0.00633802 0.00633888 0.00633975 0.00634062 0.00634148 
0.00634235 0.00634322 0.00634409 0.00634496 0.00634583 0.00634669 0.00629318 0.00629404 0.00629489 
0.00629575 0.0062966 0.00629746 0.00629831 0.00629917 0.00630002 0.00630088 0.00630174 0.00630259 
0.00630345 0.00630431 0.00630516 0.00630602 0.00630688 0.00630774 0.00630859 0.00630945 0.00631031 
0.00631117 0.00631203 0.00631289 0.00631375 0.00631461 0.00631547 0.00631633 0.00631719 0.00631805 
0.00631891 0.00631977 0.00632063 0.00632149 0.00632235 0.00632322 0.00632408 0.00632494 0.0063258 
0.00632667 0.00632753 0.00632839 0.00632926 0.00633012 0.00633098 0.00633185 0.00633271 0.00633358 
0.00633444 0.00633531 0.00633617 0.00633704 0.0063379 0.00633877 0.00633964 0.0063405 0.00634137 
0.00634224 0.0063431 0.00634397 0.00634484 0.00634571 0.00629224 0.0062931 0.00629395 0.0062948 
0.00629566 0.00629651 0.00629737 0.00629822 0.00629908 0.00629993 0.00630079 0.00630164 0.0063025 
0.00630336 0.00630421 0.00630507 0.00630593 0.00630678 0.00630764 0.0063085 0.00630936 0.00631021 
0.00631107 0.00631193 0.00631279 0.00631365 0.00631451 0.00631537 0.00631623 0.00631709 0.00631795 
0.00631881 0.00631967 0.00632053 0.00632139 0.00632225 0.00632311 0.00632397 0.00632483 0.0063257 
0.00632656 0.00632742 0.00632828 0.00632915 0.00633001 0.00633087 0.00633174 0.0063326 0.00633346 
0.00633433 0.00633519 0.00633606 0.00633692 0.00633779 0.00633865 0.00633952 0.00634038 0.00634125 
0.00634212 0.00634298 0.00634385 0.00634472 0.0062913 0.00629216 0.00629301 0.00629386 0.00629472 
0.00629557 0.00629642 0.00629728 0.00629813 0.00629899 0.00629984 0.0063007 0.00630155 0.00630241 
0.00630326 0.00630412 0.00630497 0.00630583 0.00630669 0.00630754 0.0063084 0.00630926 0.00631012 
0.00631097 0.00631183 0.00631269 0.00631355 0.00631441 0.00631526 0.00631612 0.00631698 0.00631784 
0.0063187 0.00631956 0.00632042 0.00632128 0.00632214 0.006323 0.00632386 0.00632473 0.00632559 
0.00632645 0.00632731 0.00632817 0.00632903 0.0063299 0.00633076 0.00633162 0.00633249 0.00633335 
0.00633421 0.00633508 0.00633594 0.00633681 0.00633767 0.00633854 0.0063394 0.00634027 0.00634113 
0.006342 0.00634286 0.00634373 0.00629036 0.00629122 0.00629207 0.00629292 0.00629377 0.00629463 
0.00629548 0.00629633 0.00629719 0.00629804 0.00629889 0.00629975 0.0063006 0.00630146 0.00630231 
0.00630317 0.00630402 0.00630488 0.00630573 0.00630659 0.00630745 0.0063083 0.00630916 0.00631002 
0.00631087 0.00631173 0.00631259 0.00631345 0.0063143 0.00631516 0.00631602 0.00631688 0.00631774 
0.0063186 0.00631946 0.00632032 0.00632117 0.00632203 0.0063229 0.00632376 0.00632462 0.00632548 
0.00632634 0.0063272 0.00632806 0.00632892 0.00632978 0.00633065 0.00633151 0.00633237 0.00633323 
0.0063341 0.00633496 0.00633583 0.00633669 0.00633755 0.00633842 0.00633928 0.00634015 0.00634101 
0.00634188 0.00634274 0.00628943 0.00629028 0.00629113 0.00629198 0.00629283 0.00629368 0.00629454 
0.00629539 0.00629624 0.00629709 0.00629795 0.0062988 0.00629965 0.00630051 0.00630136 0.00630222 
0.00630307 0.00630393 0.00630478 0.00630564 0.00630649 0.00630735 0.0063082 0.00630906 0.00630992 
0.00631077 0.00631163 0.00631249 0.00631334 0.0063142 0.00631506 0.00631592 0.00631677 0.00631763 
0.00631849 0.00631935 0.00632021 0.00632107 0.00632193 0.00632279 0.00632365 0.00632451 0.00632537 