# vtk DataFile Version 4.0
vtk output
ASCII
DATASET STRUCTURED_POINTS
DIMENSIONS 42 42 42
SPACING 0.05 0.05 0.05
ORIGIN -1.025 -1.025 -1.025
POINT_DATA 74088
FIELD FieldData 1
potential 1 74088 double
7.87127e-05 8.71387e-05 9.6233e-05 0.000105763 0.000115372 0.00012431 0.000132084 0.000138443 0.00014358 
0.000148108 0.00015284 0.000158195 0.00016445 0.000171651 0.000179951 0.000189524 0.000200243 0.000211954 
0.00022486 0.000238689 0.000253633 0.000269618 0.000287158 0.000306187 0.000326989 0.000349402 0.000373198 
0.000398101 0.000423796 0.000450257 0.000477707 0.000507008 0.000539782 0.000577875 0.000622437 0.000674453 
0.000733663 0.000799786 0.000872502 0.00095129 0.00103531 0.00112208 0.00010911 0.000118378 0.000128247 
0.000138692 0.000149387 0.00015986 0.000169779 0.000178919 0.000187287 0.000195171 0.000203096 0.000211395 
0.00022049 0.000230507 0.000241678 0.00025405 0.000267711 0.000282598 0.000298904 0.000316522 0.000335712 
0.000356425 0.000379102 0.000403588 0.000430057 0.000458436 0.00048848 0.0005201 0.000553186 0.000587977 
0.000624922 0.000664979 0.000709534 0.000759807 0.000816877 0.000881039 0.000952597 0.00103123 0.00111621 
0.00120691 0.00130182 0.00139833 0.000140134 0.000150369 0.000161271 0.00017283 0.00018478 0.000196855 
0.000208805 0.000220445 0.000231712 0.000242741 0.000253773 0.00026526 0.000277425 0.000290536 0.000304805 
0.000320378 0.00033739 0.000355865 0.00037597 0.000397917 0.000421689 0.000447537 0.000475599 0.000505774 
0.000538229 0.000572926 0.000609736 0.000648705 0.00068993 0.000733714 0.000780768 0.00083198 0.000888386 
0.000951003 0.00102057 0.00109734 0.00118162 0.00127304 0.0013707 0.00147378 0.00158068 0.00168908 
0.00017155 0.000182821 0.000194925 0.000207732 0.0002211 0.000234853 0.000248731 0.000262719 0.000276662 
0.000290668 0.000304832 0.00031952 0.000334904 0.0003513 0.000368952 0.000387987 0.000408732 0.00043114 
0.000455512 0.000482003 0.000510705 0.000541805 0.000575322 0.000611507 0.000650223 0.000691591 0.000735584 
0.000782374 0.000832198 0.000885461 0.0009429 0.00100532 0.00107359 0.00114854 0.00123061 0.00132014 
0.00141736 0.00152185 0.00163266 0.00174895 0.00186924 0.00199177 0.000203069 0.000215456 0.000228852 
0.000243007 0.000257847 0.000273281 0.000289098 0.000305336 0.000321834 0.000338662 0.000355874 0.000373698 
0.000392473 0.000412302 0.000433521 0.000456309 0.000480979 0.000507572 0.000536408 0.000567688 0.000601446 
0.000637938 0.000677168 0.000719412 0.000764569 0.000812879 0.000864351 0.000919274 0.000977989 0.00104092 
0.00110882 0.0011824 0.00126241 0.00134949 0.00144404 0.00154656 0.00165665 0.00177444 0.00189888 
0.00202926 0.0021643 0.00230288 0.000234313 0.000248039 0.000262658 0.000278197 0.000294564 0.000311673 
0.000329419 0.000347816 0.000366765 0.000386306 0.000406471 0.000427472 0.000449558 0.000472928 0.000497802 
0.000524488 0.000553243 0.000584201 0.000617566 0.000653694 0.000692525 0.00073457 0.000779566 0.000827964 
0.0008797 0.000935072 0.000994177 0.00105738 0.00112506 0.00119768 0.00127595 0.00136049 0.00145202 
0.00155102 0.00165798 0.00177311 0.00189625 0.0020275 0.00216604 0.00231124 0.00246221 0.0026183 
0.000264982 0.000279955 0.000295911 0.00031287 0.000330768 0.000349561 0.000369205 0.000389677 0.000410975 
0.000433125 0.000456149 0.00048024 0.000505656 0.000532515 0.000561089 0.000591679 0.000624544 0.000659859 
0.000697795 0.000738727 0.000782815 0.000830242 0.000881023 0.000935563 0.000993907 0.00105636 0.00112311 
0.00119455 0.0012711 0.00135329 0.00144166 0.00153689 0.0016396 0.00175026 0.00186927 0.00199687 
0.00213298 0.00227774 0.00243067 0.00259112 0.00275878 0.0029333 0.000294531 0.000310896 0.000328146 
0.000346571 0.000365991 0.000386443 0.000407932 0.000430413 0.000453962 0.000478586 0.000504386 0.000531456 
0.000560031 0.000590344 0.000622587 0.000657025 0.000693944 0.000733557 0.000776 0.000821696 0.000870839 
0.000923623 0.000980105 0.00104073 0.00110554 0.00117495 0.00124921 0.00132872 0.00141391 0.00150532 
0.00160345 0.00170902 0.00182247 0.00194437 0.00207509 0.00221487 0.00236388 0.0025219 0.00268914 
0.00286507 0.00304971 0.00324295 0.000322911 0.000340531 0.000359102 0.000378898 0.000399802 0.000421871 
0.000445113 0.00046955 0.000495244 0.000522252 0.000550662 0.000580592 0.00061222 0.000645853 0.000681582 
0.000719728 0.00076057 0.000804325 0.000851157 0.000901463 0.000955549 0.0010134 0.00107547 0.00114188 
0.00121308 0.00128924 0.00137072 0.00145797 0.00155143 0.00165165 0.00175909 0.00187445 0.00199818 
0.0021308 0.00227272 0.00242427 0.00258559 0.00275676 0.00293809 0.00312933 0.00333077 0.00354254 
0.000349718 0.000368531 0.000388323 0.000409479 0.000431832 0.000455447 0.000480401 0.000506676 0.000534395 
0.000563642 0.000594528 0.000627124 0.000661656 0.000698339 0.000737446 0.00077914 0.000823685 0.000871378 
0.00092236 0.000977093 0.00103574 0.00109862 0.00116599 0.001238 0.00131519 0.00139775 0.00148609 
0.00158066 0.00168192 0.00179041 0.00190668 0.00203118 0.00216456 0.00230731 0.00245985 0.00262259 
0.00279575 0.00297971 0.00317443 0.00338047 0.0035981 0.00382775 0.000374688 0.000394631 0.000415696 
0.000437987 0.000461728 0.000486831 0.000513375 0.000541408 0.000571025 0.000602365 0.000635534 0.00067062 
0.00070783 0.000747441 0.000789658 0.000834622 0.000882647 0.000934045 0.000989004 0.00104778 0.00111081 
0.00117826 0.00125064 0.00132792 0.00141074 0.00149927 0.00159399 0.00169539 0.00180391 0.00192008 
0.00204445 0.00217748 0.00231984 0.00247201 0.00263448 0.00280764 0.00299202 0.00318786 0.00339547 
0.00361548 0.00384843 0.00409485 0.000397626 0.000418621 0.000440793 0.000464279 0.000489285 0.000515754 
0.000543779 0.000573426 0.00060483 0.00063808 0.000673326 0.00071073 0.00075041 0.000792673 0.000837679 
0.000885714 0.00093695 0.000991754 0.00105031 0.0011129 0.00117996 0.00125175 0.00132865 0.00141081 
0.00149878 0.00159281 0.00169342 0.00180106 0.0019162 0.00203939 0.00217115 0.00231204 0.00246256 
0.00262338 0.00279497 0.00297782 0.0031725 0.00337939 0.00359905 0.00383191 0.00407887 0.00434072 
0.000418375 0.000440323 0.000463529 0.000488073 0.000514253 0.000541984 0.000571364 0.000602488 0.000635502 
0.000670516 0.000707645 0.000747123 0.000789034 0.000833666 0.000881266 0.00093203 0.000986175 0.00104405 
0.00110588 0.00117192 0.00124266 0.00131842 0.00139931 0.00148595 0.0015785 0.0016776 0.00178348 
0.00189674 0.00201784 0.00214733 0.00228574 0.00243363 0.00259155 0.00276018 0.00293997 0.00313158 
0.00333558 0.00355248 0.00378292 0.00402744 0.00428712 0.00456271 0.000436794 0.000459495 0.000483738 
0.000509249 0.000536429 0.000565349 0.000595945 0.000628383 0.000662848 0.000699412 0.000738236 0.000779518 
0.000823443 0.000870209 0.000920069 0.00097322 0.00102999 0.00109059 0.00115536 0.00122444 0.00129844 
0.00137757 0.00146223 0.00155277 0.00164947 0.00175297 0.00186354 0.00198172 0.00210811 0.00224313 
0.00238739 0.00254146 0.00270589 0.00288137 0.00306848 0.00326781 0.00348003 0.00370579 0.00394577 
0.00420051 0.00447131 0.00475893 0.000452802 0.000476271 0.000501305 0.000527765 0.000555755 0.000585693 
0.000617356 0.000650974 0.000686668 0.000724594 0.000764913 0.00080777 0.000853411 0.000902021 0.000953851 
0.00100911 0.00106813 0.00113109 0.00119837 0.00127022 0.00134696 0.0014291 0.00151691 0.00161086 
0.00171116 0.00181846 0.00193307 0.0020555 0.00218641 0.00232619 0.00247548 0.00263485 0.00280493 
0.00298624 0.00317961 0.00338558 0.0036049 0.00383821 0.00408637 0.00435001 0.00463009 0.0049278 
0.000466318 0.000490439 0.000516157 0.000543325 0.000572118 0.000602865 0.00063547 0.000670079 0.000706825 
0.000745889 0.000787477 0.000831653 0.000878764 0.000928931 0.000982415 0.00103945 0.0011003 0.00116531 
0.00123471 0.00130882 0.00138793 0.00147262 0.0015631 0.00165981 0.00176322 0.00187368 0.00199165 
0.00211766 0.00225228 0.00239606 0.00254952 0.0027133 0.00288801 0.00307421 0.00327275 0.0034842 
0.00370936 0.00394891 0.00420373 0.00447457 0.00476224 0.00506819 0.000477277 0.000501918 0.000528213 
0.000555963 0.000585403 0.000616765 0.000650189 0.0006856 0.000723206 0.000763231 0.000805784 0.000851101 
0.000899366 0.000950796 0.00100563 0.00106409 0.00112646 0.00119309 0.0012642 0.00134013 0.00142118 
0.00150789 0.00160042 0.00169956 0.00180533 0.00191825 0.00203901 0.00216787 0.00230546 0.00245239 
0.00260916 0.00277641 0.00295478 0.0031449 0.00334742 0.00356317 0.00379285 0.00403728 0.00429726 
0.00457367 0.00486738 0.00517935 0.00048563 0.00051068 0.000537407 0.000565622 0.000595548 0.000627447 
0.000661434 0.000697464 0.000735741 0.000776472 0.000819782 0.000865948 0.000915132 0.000967496 0.00102333 
0.0010829 0.00114644 0.00121431 0.0012867 0.00136404 0.00144651 0.00153474 0.00162901 0.00172977 
0.00183727 0.00195217 0.00207495 0.00220594 0.0023457 0.00249491 0.00265415 0.00282394 0.00300495 
0.00319787 0.00340331 0.00362215 0.00385508 0.00410295 0.00436652 0.00464676 0.00494456 0.00526087 
0.000491341 0.000516689 0.000543698 0.000572259 0.000602584 0.000634773 0.000669129 0.000705609 0.000744371 
0.000785566 0.000829402 0.000876151 0.000925919 0.000978947 0.00103549 0.00109581 0.00116013 0.00122877 
0.00130211 0.00138038 0.00146393 0.0015531 0.00164845 0.00175017 0.00185905 0.00197524 0.00209932 
0.00223167 0.00237285 0.00252355 0.00268432 0.00285572 0.00303839 0.00323302 0.00344032 0.00366093 
0.00389579 0.00414566 0.00441127 0.0046937 0.00499378 0.00531251 0.000494408 0.000519898 0.000546965 
0.000575816 0.000606341 0.000638705 0.00067329 0.000709994 0.000748996 0.000790474 0.000834609 0.000881633 
0.000931739 0.000985136 0.00104203 0.00110274 0.00116748 0.00123656 0.00131037 0.00138912 0.00147317 
0.00156287 0.00165875 0.00176107 0.00187056 0.00198733 0.0021119 0.00224502 0.00238691 0.00253819 
0.00269959 0.00287168 0.00305501 0.00325029 0.00345822 0.00367946 0.00391491 0.00416535 0.00443153 
0.00471441 0.00501496 0.00533411 0.000494809 0.000520309 0.000547385 0.000576292 0.000606853 0.000639249 
0.000673804 0.000710572 0.000749643 0.000791133 0.000835335 0.000882395 0.000932555 0.000985991 0.00104295 
0.00110369 0.00116847 0.00123761 0.00131139 0.00139022 0.00147431 0.00156401 0.00165994 0.00176223 
0.0018717 0.00198836 0.00211296 0.00224597 0.00238773 0.00253886 0.00270003 0.0028718 0.00305484 
0.00324972 0.00345716 0.00367788 0.00391254 0.00416208 0.00442734 0.00470908 0.00500832 0.00532595 
0.00049252 0.00051793 0.000544897 0.000573673 0.000604137 0.000636387 0.000670761 0.000707401 0.000746291 
0.000787601 0.000831603 0.000878432 0.000928342 0.00098153 0.00103821 0.00109862 0.00116311 0.00123189 
0.0013053 0.00138372 0.00146739 0.00155668 0.00165196 0.00175378 0.00186238 0.00197857 0.0021024 
0.00223458 0.00237546 0.0025256 0.0026857 0.00285627 0.003038 0.00323142 0.00343725 0.00365619 
0.00388894 0.00413618 0.00439898 0.00467802 0.00497419 0.00528847 0.000487579 0.000512758 0.00053947 
0.000567997 0.000598167 0.000630216 0.000664186 0.000700452 0.000738943 0.00077988 0.000823419 0.000869788 
0.000919141 0.000971761 0.00102784 0.00108764 0.00115142 0.00121945 0.00129208 0.00136958 0.00145238 
0.00154069 0.00163491 0.00173562 0.00184301 0.00195789 0.00208031 0.00221097 0.0023502 0.00249863 
0.00265674 0.00282523 0.00300464 0.00319564 0.00339877 0.00361475 0.00384426 0.00408798 0.00434688 
0.00462165 0.00491311 0.00522224 0.000480001 0.000504826 0.000531147 0.000559275 0.000589 0.000620578 
0.000654041 0.000689707 0.000727679 0.00076797 0.00081083 0.000856453 0.000905 0.000956756 0.00101192 
0.00107073 0.00113347 0.00120037 0.00127178 0.001348 0.00142942 0.00151625 0.0016089 0.00170793 
0.00181352 0.00192646 0.00204679 0.00217517 0.00231214 0.00245801 0.00261337 0.00277891 0.00295513 
0.00314262 0.00334206 0.00355397 0.00377906 0.00401803 0.00427154 0.00454058 0.0048258 0.00512807 
0.000469804 0.00049415 0.00051996 0.00054741 0.00057668 0.000607631 0.000640417 0.00067535 0.000712522 
0.00075195 0.000793892 0.000838517 0.000885999 0.00093659 0.000990525 0.00104801 0.00110933 0.00117473 
0.00124452 0.00131901 0.00139856 0.00148354 0.00157417 0.00167086 0.0017741 0.00188435 0.00200215 
0.00212763 0.0022615 0.00240408 0.00255597 0.00271764 0.00288979 0.00307289 0.00326757 0.00347433 
0.00369386 0.00392678 0.00417379 0.00443559 0.004713 0.00500682 0.000457035 0.000480746 0.000505948 
0.000532703 0.000561241 0.000591413 0.000623446 0.000657379 0.000693532 0.000731914 0.00077273 0.000816071 
0.000862232 0.000911372 0.000963731 0.00101957 0.00107912 0.00114268 0.00121046 0.00128282 0.00136008 
0.00144265 0.00153069 0.00162464 0.00172504 0.0018321 0.00194657 0.00206844 0.00219863 0.00233717 
0.00248476 0.00264182 0.00280904 0.00298686 0.0031758 0.00337646 0.00358935 0.00381507 0.00405428 
0.00430756 0.00457575 0.00485954 0.000441739 0.000464731 0.000489172 0.000515109 0.000542784 0.000572019 
0.000603048 0.000635878 0.000670811 0.000707954 0.000747375 0.000789241 0.000833796 0.000881197 0.000931728 
0.000985595 0.00104303 0.00110435 0.00116977 0.00123957 0.00131413 0.00139377 0.00147886 0.00156951 
0.00166645 0.00176983 0.00188024 0.00199811 0.00212373 0.00225767 0.00240023 0.00255202 0.00271343 
0.00288513 0.00306749 0.00326102 0.0034663 0.00368377 0.003914 0.00415761 0.00441518 0.00468753 
0.000423983 0.000446139 0.000469709 0.000494716 0.000521372 0.000549545 0.000579399 0.000610986 0.000644563 
0.000680238 0.000718031 0.000758189 0.000800867 0.000846271 0.000894657 0.000946251 0.00100124 0.00105997 
0.00112264 0.00118952 0.00126096 0.00133731 0.00141889 0.0015058 0.00159875 0.0016979 0.0018038 
0.00191694 0.00203742 0.00216608 0.00230293 0.00244864 0.00260357 0.00276836 0.00294333 0.00312893 
0.00332565 0.00353388 0.0037541 0.00398684 0.00423273 0.00449221 0.000403843 0.000425069 0.000447655 
0.000471616 0.000497158 0.000524118 0.000552662 0.000582917 0.000614886 0.000648835 0.00068488 0.000723065 
0.000763644 0.000806796 0.000852732 0.000901751 0.000954006 0.00100978 0.00106937 0.00113301 0.00120093 
0.00127353 0.00135111 0.00143403 0.00152237 0.00161678 0.00171764 0.00182546 0.00194029 0.00206295 
0.00219344 0.00233241 0.00248029 0.00263736 0.00280421 0.00298111 0.00316842 0.00336659 0.00357586 
0.00379673 0.00402973 0.00427534 0.000381437 0.000401635 0.000423131 0.000445941 0.000470251 0.000495886 
0.000522999 0.000551704 0.000581957 0.000614081 0.000648114 0.000684124 0.00072235 0.00076299 0.000806233 
0.000852363 0.000901606 0.000954153 0.00101032 0.00107032 0.00113442 0.00120289 0.00127611 0.0013544 
0.00143782 0.00152708 0.00162231 0.00172411 0.0018329 0.00194877 0.00207257 0.00220419 0.00234428 
0.00249308 0.00265115 0.00281867 0.00299592 0.00318318 0.00338077 0.00358891 0.00380802 0.00403863 
0.000356962 0.000375973 0.000396287 0.000417848 0.000440712 0.000465029 0.000490609 0.000517631 0.000546026 
0.000576143 0.000607999 0.00064164 0.000677265 0.000715161 0.000755474 0.000798465 0.000844406 0.000893451 
0.000945899 0.00100195 0.0010619 0.00112592 0.00119438 0.00126759 0.00134572 0.00142929 0.00151852 
0.00161394 0.00171601 0.00182483 0.00194111 0.00206488 0.00219662 0.00233661 0.00248534 0.00264291 
0.00280952 0.00298533 0.00317049 0.00336524 0.00356971 0.0037844 0.000330403 0.00034826 0.000367308 
0.000387553 0.000409003 0.000431811 0.000455749 0.000480967 0.000507485 0.000535351 0.000564774 0.000595917 
0.000628805 0.000663687 0.000700839 0.000740472 0.000782861 0.000828154 0.000876618 0.00092847 0.00098395 
0.00104325 0.00110662 0.00117445 0.001247 0.00132434 0.00140712 0.00149573 0.00159044 0.00169188 
0.00179999 0.0019156 0.00203855 0.00216937 0.00230817 0.00245534 0.00261085 0.00277475 0.00294707 
0.00312781 0.00331713 0.00351517 0.000302117 0.000318702 0.000336434 0.000355295 0.000375266 0.000396482 
0.000418695 0.00044203 0.000466472 0.000492034 0.000518953 0.000547345 0.000577285 0.000609005 0.000642815 
0.000678869 0.000717469 0.00075886 0.000803139 0.000850588 0.000901355 0.000955647 0.00101372 0.00107582 
0.00114227 0.00121326 0.00128918 0.00137058 0.00145772 0.00155115 0.00165093 0.00175772 0.00187151 
0.00199264 0.00212128 0.00225771 0.00240181 0.00255351 0.00271267 0.00287916 0.00305289 0.00323399 
0.000272326 0.000287588 0.000303943 0.000321374 0.000339823 0.000359397 0.000379827 0.000401176 0.000423463 
0.0004466 0.000470898 0.000496402 0.00052323 0.000551679 0.000581937 0.000614301 0.000648997 0.000686264 
0.000726229 0.000769099 0.000815 0.000864133 0.000916663 0.000972835 0.00103295 0.00109734 0.00116609 
0.00123985 0.00131905 0.00140399 0.00149522 0.00159286 0.00169716 0.0018084 0.00192668 0.00205202 
0.00218451 0.00232388 0.00246982 0.00262198 0.00278012 0.00294407 0.000241318 0.000255229 0.000270191 
0.000286145 0.000303054 0.000320972 0.000339573 0.000358878 0.000378918 0.000399639 0.000421078 0.000443531 
0.0004672 0.000492219 0.000518872 0.000547476 0.000578165 0.000611228 0.000646774 0.000684968 0.000725928 
0.000769778 0.000816641 0.00086675 0.000920335 0.000977733 0.0010392 0.0011051 0.00117609 0.00125244 
0.00133467 0.00142283 0.00151756 0.00161859 0.00172629 0.00184051 0.00196136 0.00208839 0.0022212 
0.00235926 0.00250206 0.00264921 0.000209474 0.000222075 0.000235556 0.000250043 0.000265404 0.000281531 
0.000298399 0.000315634 0.000333324 0.000351438 0.000370021 0.000389394 0.000409786 0.000431348 0.000454391 
0.000479142 0.000505853 0.000534678 0.000565806 0.000599306 0.000635305 0.000673857 0.000715053 0.000759048 
0.000806036 0.00085636 0.00091028 0.000968185 0.00103077 0.00109831 0.00117122 0.00125001 0.00133478 
0.00142563 0.00152263 0.00162582 0.00173488 0.00184973 0.00196969 0.00209408 0.00222214 0.00235321 
0.000177159 0.00018839 0.000200466 0.000213506 0.000227348 0.000241821 0.000256828 0.000271944 0.000287183 
0.000302611 0.00031825 0.000334496 0.000351608 0.000369744 0.000389225 0.00041023 0.000432975 0.000457671 
0.000484407 0.000513275 0.000544338 0.000577693 0.000613292 0.000651215 0.000691665 0.00073493 0.000781326 
0.000831198 0.00088512 0.000943721 0.00100737 0.00107655 0.00115134 0.00123189 0.0013182 0.00141025 
0.00150776 0.00161062 0.00171813 0.00182949 0.00194376 0.0020599 0.000144772 0.000154662 0.000165365 
0.000177023 0.000189411 0.000202261 0.000215418 0.000228327 0.000241036 0.000253647 0.000266336 0.000279366 
0.000293212 0.000308114 0.000324177 0.000341599 0.000360569 0.000381174 0.000403653 0.000427998 0.000454301 
0.000482574 0.000512762 0.000544868 0.000578902 0.000615245 0.000654145 0.000695942 0.00074131 0.000790937 
0.00084524 0.000904795 0.000969493 0.00103978 0.00111551 0.00119653 0.00128272 0.00137371 0.00146921 
0.00156832 0.00166996 0.00177276 0.000112695 0.000121301 0.00013071 0.000141074 0.000152102 0.000163409 
0.000174681 0.000185306 0.000195337 0.000204949 0.000214562 0.000224495 0.000235272 0.000247115 0.000260012 
0.000274103 0.000289471 0.000306231 0.00032455 0.000344568 0.000366274 0.000389711 0.000414729 0.000441304 
0.000469337 0.00049902 0.000530643 0.000564489 0.000601434 0.000642102 0.000687117 0.000736912 0.000791893 
0.000851938 0.000917066 0.000987117 0.00106206 0.00114158 0.00122533 0.00131294 0.00140325 0.00149462 
8.12578e-05 8.86638e-05 9.69092e-05 0.000106131 0.000115966 0.000125805 0.000135158 0.000143304 0.00015044 
0.00015688 0.000163348 0.000170301 0.000178263 0.000187346 0.000197432 0.000208511 0.000220587 0.000233739 
0.000248116 0.000263944 0.000281266 0.000300089 0.000320286 0.000341695 0.000364191 0.000387697 0.00041249 
0.000438918 0.000467592 0.000499402 0.000535229 0.000575561 0.000620776 0.000670563 0.000725231 0.000784475 
0.000848149 0.000916291 0.000988554 0.00106521 0.00114535 0.00122734 5.07045e-05 5.70898e-05 6.44361e-05 
7.26872e-05 8.15294e-05 9.00071e-05 9.71913e-05 0.000102736 0.000106595 0.000109648 0.000112968 0.000117264 
0.000122688 0.000129353 0.000137069 0.000145548 0.00015472 0.000164557 0.000175226 0.000187005 0.000200088 
0.000214555 0.000230245 0.000246914 0.000264354 0.000282355 0.000300949 0.000320381 0.000341315 0.000364794 
0.000391845 0.000423007 0.00045851 0.00049853 0.000542737 0.000590993 0.000643445 0.000699996 0.000760996 
0.000826564 0.000897202 0.000971678 2.11648e-05 2.67906e-05 3.35265e-05 4.12676e-05 4.9436e-05 5.65362e-05 
6.14191e-05 6.37732e-05 6.39196e-05 6.34205e-05 6.37837e-05 6.57142e-05 6.91086e-05 7.38281e-05 7.95196e-05 
8.58048e-05 9.24781e-05 9.93791e-05 0.000106597 0.000114518 0.000123461 0.000133684 0.000145115 0.000157449 
0.000170333 0.000183418 0.000196539 0.000209812 0.000223915 0.000239879 0.000259048 0.000281834 0.000308367 
0.000338724 0.000372487 0.000409852 0.000450694 0.000495212 0.000544118 0.000598259 0.000659243 0.000727133 
5.05621e-05 5.85493e-05 6.73333e-05 7.69153e-05 8.68999e-05 9.62895e-05 0.000104047 0.000109416 0.000112446 
0.000114036 0.000115482 0.000117739 0.000120978 0.000125232 0.000130669 0.000137436 0.000145255 0.000154057 
0.000163681 0.000173937 0.000185009 0.000196982 0.00021066 0.000226146 0.000243609 0.000262608 0.000282626 
0.000303095 0.000323357 0.000343076 0.000362202 0.00038207 0.000405494 0.000435689 0.000474164 0.000521631 
0.000577456 0.00064116 0.000712446 0.000791207 0.000876828 0.000966569 8.236e-05 9.12486e-05 0.000100807 
0.000111087 0.000121822 0.000132396 0.000142174 0.000150585 0.000157476 0.000163146 0.000168404 0.00017389 
0.000180098 0.000187253 0.000195522 0.000205073 0.000215829 0.000227631 0.000240706 0.000254943 0.00027066 
0.000287918 0.000307328 0.000328684 0.000352092 0.000377143 0.000403529 0.000430841 0.000458756 0.000487382 
0.000517318 0.000549998 0.000587578 0.000632036 0.000684373 0.000745363 0.000814677 0.000891964 0.000976658 
0.0010679 0.00116386 0.00126044 0.000115148 0.000124891 0.000135471 0.000146788 0.000158617 0.000170614 
0.000182318 0.000193384 0.000203562 0.000212892 0.000221839 0.000230799 0.000240326 0.000250721 0.000262252 
0.000275009 0.000289243 0.000304802 0.000322021 0.000340903 0.000361781 0.000384614 0.000409891 0.000437317 
0.000466997 0.000498626 0.000532051 0.00056707 0.00060366 0.000642252 0.00068369 0.00072929 0.000780685 
0.000839128 0.000905577 0.000980246 0.00106344 0.00115458 0.00125277 0.00135666 0.00146386 0.00157052 
0.000148481 0.000159292 0.000171024 0.000183547 0.000196701 0.000210255 0.000223902 0.000237402 0.000250525 
0.000263191 0.000275616 0.000288203 0.000301292 0.000315237 0.000330357 0.000346864 0.000365025 0.000384855 
0.000406661 0.000430627 0.00045683 0.000485489 0.000516771 0.000550486 0.000586785 0.000625468 0.000666512 
0.000709929 0.000755908 0.000805052 0.000858247 0.000916659 0.000981445 0.00105365 0.00113397 0.00122262 
0.00131985 0.0014251 0.00153708 0.00165445 0.00177478 0.00189502 0.00018207 0.000194036 0.000207077 
0.000220922 0.000235539 0.000250724 0.000266312 0.000282128 0.000297954 0.000313755 0.000329575 0.000345757 
0.000362515 0.00038025 0.000399247 0.000419838 0.000442317 0.000466708 0.000493429 0.000522628 0.000554386 
0.000588905 0.000626314 0.000666551 0.000709721 0.000755841 0.000804946 0.000857226 0.00091304 0.00097296 
0.0010379 0.00110884 0.00118679 0.00127245 0.00136644 0.00146903 0.00158036 0.00169984 0.00182615 
0.00195807 0.00209351 0.00223051 0.000215496 0.000228756 0.000243115 0.000258381 0.000274523 0.000291404 
0.000308929 0.000326974 0.000345383 0.000364125 0.000383209 0.000402851 0.000423391 0.000445017 0.000468097 
0.000492973 0.000519926 0.000549071 0.000580812 0.000615346 0.0006527 0.000693156 0.000736703 0.000783658 
0.000833919 0.000887679 0.000945092 0.00100645 0.00107219 0.0011429 0.00121943 0.00130262 0.00139332 
0.00149214 0.0015996 0.00171613 0.0018413 0.00197507 0.00211629 0.00226377 0.00241608 0.00257189 
0.000248308 0.000262908 0.000278653 0.000295371 0.000313076 0.000331687 0.000351125 0.000371315 0.000392197 
0.000413747 0.000435952 0.00045901 0.000483226 0.000508718 0.000535939 0.00056513 0.000596634 0.000630631 
0.00066732 0.00070718 0.000750034 0.000796478 0.000846275 0.000899896 0.000957283 0.00101877 0.00108452 
0.00115495 0.00123053 0.00131182 0.00139962 0.00149468 0.0015977 0.00170929 0.00182991 0.00195986 
0.00209894 0.00224711 0.00240352 0.0025673 0.00273756 0.00291361 0.00028011 0.000296108 0.000313164 
0.000331347 0.00035062 0.000370925 0.000392234 0.000414533 0.000437776 0.000461996 0.000487186 0.00051352 
0.000541244 0.000570582 0.000601836 0.000635277 0.000671243 0.000709952 0.000751571 0.000796544 0.000844986 
0.000897238 0.000953208 0.0010134 0.00107785 0.00114694 0.00122089 0.00130019 0.0013853 0.00147684 
0.00157542 0.00168181 0.00179667 0.00192051 0.00205379 0.00219687 0.00234975 0.00251209 0.00268378 
0.00286422 0.00305295 0.00324975 0.000310342 0.000327752 0.000346137 0.000365821 0.000386625 0.000408602 
0.000431753 0.000456054 0.00048156 0.000508285 0.00053632 0.000565765 0.000596835 0.000629829 0.000664944 
0.000702473 0.000742731 0.000785999 0.000832386 0.000882364 0.00093619 0.000993993 0.00105595 0.00112252 
0.0011938 0.00127023 0.00135208 0.00143987 0.00153408 0.00163531 0.00174414 0.00186127 0.00198731 
0.00212284 0.00226825 0.00242396 0.00259004 0.00276641 0.00295329 0.00315019 0.0033573 0.00357465 
0.000338905 0.000357596 0.000377301 0.00039837 0.000420647 0.000444262 0.000469158 0.000495428 0.000523042 
0.000552158 0.000582838 0.000615179 0.000649389 0.000685838 0.000724569 0.00076598 0.000810288 0.000857835 
0.000908751 0.000963504 0.0010224 0.00108546 0.00115322 0.00122575 0.00130362 0.00138699 0.00147634 
0.00157212 0.00167487 0.00178515 0.00190354 0.00203074 0.00216726 0.00231376 0.00247062 0.00263832 
0.00281707 0.00300697 0.00320842 0.00342142 0.00364628 0.00388337 0.000365461 0.000385337 0.000406286 
0.0004287 0.000452392 0.000477524 0.000504104 0.000532176 0.000561801 0.000593142 0.000626272 0.000661304 
0.000698435 0.000737977 0.000780139 0.000825122 0.000873218 0.000924766 0.000979914 0.00103913 0.00110265 
0.00117076 0.00124391 0.00132215 0.00140608 0.00149595 0.00159224 0.00169543 0.00180607 0.00192472 
0.00205197 0.00218836 0.00233461 0.00249127 0.00265884 0.00283778 0.00302847 0.00323131 0.00344648 
0.0036746 0.0039162 0.00417179 0.000389781 0.000410774 0.000432965 0.000456489 0.000481566 0.000508112 
0.000536246 0.00056601 0.000597521 0.000630885 0.000666262 0.000703718 0.000743549 0.000785963 0.000831208 
0.000879435 0.000931016 0.000986233 0.00104533 0.00110859 0.00117646 0.0012492 0.00132726 0.00141073 
0.00150025 0.00159606 0.00169867 0.00180865 0.00192646 0.00205271 0.00218796 0.00233278 0.0024879 
0.00265385 0.00283119 0.00302047 0.00322224 0.00343691 0.0036649 0.00390707 0.00416405 0.00443653 
0.00041173 0.000433724 0.000456994 0.000481637 0.000507942 0.000535811 0.000565361 0.000596663 0.000629898 
0.000665094 0.000702467 0.000742169 0.000784399 0.000829389 0.000877347 0.000928574 0.000983273 0.00104181 
0.00110441 0.00117138 0.00124319 0.00132014 0.00140261 0.00149083 0.00158537 0.00168652 0.00179485 
0.00191088 0.00203513 0.00216815 0.00231057 0.00246299 0.00262599 0.0028003 0.00298646 0.0031851 
0.00339687 0.00362227 0.00386205 0.00411674 0.0043874 0.00467498 0.000431182 0.000454095 0.00047832 
0.000503971 0.000531368 0.000560433 0.000591251 0.000623948 0.000658695 0.000695554 0.000734719 0.000776377 
0.000820723 0.000867987 0.000918392 0.000972217 0.00102968 0.00109114 0.00115685 0.00122713 0.00130243 
0.00138299 0.00146944 0.0015619 0.00166079 0.00176677 0.00188011 0.00200148 0.00213135 0.00227034 
0.00241904 0.00257808 0.00274805 0.00292971 0.00312366 0.00333054 0.00355114 0.00378605 0.00403601 
0.00430171 0.00458444 0.0048851 0.000448048 0.000471637 0.000496825 0.00052335 0.000551666 0.000581838 
0.000613784 0.00064772 0.000683751 0.000722051 0.000762775 0.00080614 0.000852322 0.000901533 0.000954048 
0.00101009 0.00107001 0.00113399 0.00120243 0.00127551 0.00135385 0.00143769 0.00152749 0.00162357 
0.00172628 0.00183634 0.001954 0.00207991 0.00221465 0.00235873 0.00251281 0.00267752 0.00285345 
0.00304141 0.00324202 0.003456 0.00368414 0.00392715 0.00418585 0.00446114 0.00475384 0.00506549 
0.000462271 0.000486544 0.000512446 0.000539813 0.00056887 0.000599911 0.000632827 0.00066779 0.000704942 
0.000744462 0.000786508 0.000831274 0.000879015 0.000929894 0.00098417 0.00104211 0.00110403 0.00117015 
0.00124085 0.00131643 0.00139722 0.00148376 0.00157636 0.0016755 0.00178147 0.0018949 0.00201618 
0.00214587 0.00228462 0.00243293 0.00259146 0.00276086 0.00294179 0.00313488 0.00334101 0.00356081 
0.00379518 0.00404484 0.00431072 0.00459362 0.00489463 0.00521508 0.000473793 0.000498616 0.000525107 
0.000553114 0.000582831 0.000614596 0.000648289 0.000684103 0.000722154 0.000762686 0.000805788 0.000851725 
0.000900699 0.000952915 0.00100863 0.00106808 0.00113157 0.00119946 0.00127199 0.00134951 0.00143236 
0.00152106 0.00161585 0.00171746 0.00182605 0.00194221 0.00206634 0.00219905 0.00234095 0.00249264 
0.00265469 0.00282779 0.0030126 0.00320978 0.00342022 0.0036446 0.00388381 0.0041386 0.00440996 
0.00469883 0.00500601 0.00533319 0.000482579 0.00050782 0.000534773 0.000563264 0.000593487 0.000625722 
0.000660099 0.000696559 0.000735304 0.000776589 0.000820516 0.000867342 0.00091726 0.000970475 0.00102728 
0.00108789 0.00115261 0.00122181 0.00129573 0.00137472 0.0014591 0.00154944 0.00164596 0.00174941 
0.00185989 0.00197798 0.00210437 0.00223933 0.00238355 0.00253769 0.00270232 0.00287811 0.00306573 
0.00326593 0.00347939 0.00370704 0.00394962 0.00420807 0.00448326 0.00477623 0.00508795 0.0054194 
0.000488586 0.000514134 0.000541398 0.000570229 0.000600803 0.000633424 0.000668201 0.000705117 0.000744375 
0.000786113 0.000830627 0.000878061 0.000928647 0.000982539 0.00104009 0.00110148 0.00116705 0.00123709 
0.00131198 0.00139199 0.00147747 0.00156881 0.00166656 0.00177116 0.00188287 0.00200234 0.00213012 
0.00226654 0.00241223 0.00256793 0.00273422 0.00291168 0.00310105 0.00330306 0.00351839 0.00374797 
0.00399258 0.0042531 0.00453047 0.0048257 0.00513979 0.00547363 0.000491811 0.000517515 0.000544939 
0.000573976 0.000604827 0.00063757 0.00067256 0.000709735 0.000749255 0.000791285 0.0008361 0.00088386 