# vtk DataFile Version 4.0
vtk output
ASCII
DATASET POLYDATA
POINTS 1552 double
43.7715 -6.667 0.125 45.0215 -6.667 0.125 48.7891 -4.167 0.6875 
48.7891 -4.167 0.6875 45.0215 -6.667 0.125 50.959 -5.417 0.40625 
48.7891 -4.167 0.6875 50.959 -5.417 0.40625 53.8067 -1.667 1.25 
53.8067 -1.667 1.25 50.959 -5.417 0.40625 56.8965 -4.167 0.6875 
53.8067 -1.667 1.25 56.8965 -4.167 0.6875 58.795 -1.667 1.25 
58.795 -1.667 1.25 56.8965 -4.167 0.6875 62.834 -2.917 0.96875 
58.795 -1.667 1.25 62.834 -2.917 0.96875 63.7832 -1.667 1.25 
63.7832 -1.667 1.25 62.834 -2.917 0.96875 68.7715 -1.667 1.25 
104.397 20.7863 6.30199 98.1465 20.7863 6.30199 104.397 15.6814 5.15339 
104.397 15.6814 5.15339 98.1465 20.7863 6.30199 98.0728 15.173 5.03899 
104.397 15.6814 5.15339 98.0728 15.173 5.03899 104.397 10.5765 4.00479 
104.397 10.5765 4.00479 98.0728 15.173 5.03899 98.0728 9.55965 3.776 
104.397 10.5765 4.00479 98.0728 9.55965 3.776 104.397 5.47161 2.85619 
104.397 5.47161 2.85619 98.0728 9.55965 3.776 98.459 4.28184 2.58849 
98.459 4.28184 2.58849 98.0728 9.55965 3.776 91.7491 3.94633 2.513 
98.459 4.28184 2.58849 91.7491 3.94633 2.513 92.5215 3.09207 2.32079 
92.5215 3.09207 2.32079 91.7491 3.94633 2.513 86.584 1.90231 2.05309 
86.584 1.90231 2.05309 91.7491 3.94633 2.513 85.4253 3.94633 2.513 
86.584 1.90231 2.05309 85.4253 3.94633 2.513 80.6465 0.712538 1.7854 
80.6465 0.712538 1.7854 85.4253 3.94633 2.513 79.1016 3.94633 2.513 
80.6465 0.712538 1.7854 79.1016 3.94633 2.513 74.709 -0.47723 1.5177 
74.709 -0.47723 1.5177 79.1016 3.94633 2.513 72.7779 3.94633 2.513 
74.709 -0.47723 1.5177 72.7779 3.94633 2.513 68.7715 -1.667 1.25 
68.7715 -1.667 1.25 72.7779 3.94633 2.513 66.4542 3.94633 2.513 
68.7715 -1.667 1.25 66.4542 3.94633 2.513 64.0426 3.18726 2.34221 
64.0426 3.18726 2.34221 66.4542 3.94633 2.513 69.1606 5.61438 2.88831 
69.1606 5.61438 2.88831 66.4542 3.94633 2.513 72.7779 3.94633 2.513 
69.1606 5.61438 2.88831 72.7779 3.94633 2.513 74.2785 8.04151 3.43441 
74.2785 8.04151 3.43441 72.7779 3.94633 2.513 79.1016 3.94633 2.513 
74.2785 8.04151 3.43441 79.1016 3.94633 2.513 79.1016 9.55965 3.776 
79.1016 9.55965 3.776 79.1016 3.94633 2.513 85.4253 3.94633 2.513 
79.1016 9.55965 3.776 85.4253 3.94633 2.513 85.4253 9.55965 3.776 
85.4253 9.55965 3.776 85.4253 3.94633 2.513 91.7491 3.94633 2.513 
85.4253 9.55965 3.776 91.7491 3.94633 2.513 91.7491 9.55965 3.776 
91.7491 9.55965 3.776 91.7491 3.94633 2.513 98.0728 9.55965 3.776 
91.7491 9.55965 3.776 98.0728 9.55965 3.776 91.7491 15.173 5.03899 
91.7491 15.173 5.03899 98.0728 9.55965 3.776 98.0728 15.173 5.03899 
91.7491 15.173 5.03899 98.0728 15.173 5.03899 91.8965 20.7863 6.30199 
91.8965 20.7863 6.30199 98.0728 15.173 5.03899 98.1465 20.7863 6.30199 
91.8965 20.7863 6.30199 85.6465 20.7863 6.30199 91.7491 15.173 5.03899 
91.7491 15.173 5.03899 85.6465 20.7863 6.30199 85.4253 15.173 5.03899 
91.7491 15.173 5.03899 85.4253 15.173 5.03899 91.7491 9.55965 3.776 
91.7491 9.55965 3.776 85.4253 15.173 5.03899 85.4253 9.55965 3.776 
79.3965 20.7863 6.30199 79.3965 15.6275 5.14126 85.6465 20.7863 6.30199 
85.6465 20.7863 6.30199 79.3965 15.6275 5.14126 85.4253 15.173 5.03899 
79.3965 15.6275 5.14126 79.3965 10.4686 3.98052 85.4253 15.173 5.03899 
85.4253 15.173 5.03899 79.3965 10.4686 3.98052 85.4253 9.55965 3.776 
85.4253 9.55965 3.776 79.3965 10.4686 3.98052 79.1016 9.55965 3.776 
79.1016 9.55965 3.776 79.3965 10.4686 3.98052 74.2785 8.04151 3.43441 
68.7715 -1.667 1.25 64.0426 3.18726 2.34221 63.7832 -1.667 1.25 
63.7832 -1.667 1.25 64.0426 3.18726 2.34221 58.9247 0.760129 1.7961 
63.7832 -1.667 1.25 58.9247 0.760129 1.7961 58.795 -1.667 1.25 
58.795 -1.667 1.25 58.9247 0.760129 1.7961 53.8067 -1.667 1.25 
67.3618 4.76135 2.69638 67.4697 4.57226 2.65383 65.8414 4.04029 2.53414 
64.9943 3.48682 2.40961 64.942 3.61377 2.43817 83.1016 9.55965 3.776 
81.4723 10.1557 3.9101 83.4488 9.85766 3.84305 82.4605 10.0067 3.87657 
84.4253 9.55965 3.776 84.4371 9.70866 3.80952 81.1016 9.55965 3.776 
77.5978 9.6156 3.78859 76.1819 8.64063 3.56922 76.0773 8.89454 3.62635 
94.4642 4.08209 2.54355 94.5408 3.4967 2.41183 90.5022 2.68744 2.22975 
47.0079 -5.05446 0.487822 47.1354 -5.26434 0.440597 45.5527 -5.77954 0.324678 
66.744 -2.09384 1.15396 66.7715 -1.667 1.25 65.2774 -1.667 1.25 
67.794 -1.87279 1.2037 67.7715 -1.667 1.25 64.789 -2.50542 1.06136 
88.4373 2.63574 2.21812 88.5431 2.29488 2.14142 81.4253 3.94633 2.513 
76.3184 1.14348 1.88236 75.9398 5.15281 2.78446 101.214 18.2812 5.73834 
101.28 12.8415 4.51441 101.407 7.40408 3.29099 101.062 7.62718 3.34119 
95.1141 6.93338 3.18509 75.9398 2.64715 2.22068 70.4922 0.743797 1.79243 
77.3672 6.75299 3.1445 82.4502 18.148 5.70838 82.5203 12.9061 4.52895 
66.0159 1.16169 1.88645 62.0409 0.855344 1.81753 101.329 18.1865 5.71704 
101.189 12.908 4.52938 69.616 1.92679 2.0586 82.4667 6.5726 3.10391 
82.0602 6.93338 3.18509 88.7904 6.57259 3.10391 88.384 6.93339 3.18509 
94.7077 6.5726 3.10391 95.1141 12.1859 4.36691 94.7077 12.5467 4.44808 
95.146 17.833 5.6375 94.8233 18.1263 5.70349 88.5569 18.1092 5.69965 
88.8387 17.8501 5.64134 88.384 12.5467 4.44808 88.7904 12.1859 4.36691 
82.5928 18.2657 5.73486 82.3016 12.7355 4.49056 46.0784 -5.96567 0.282799 
90.0932 3.29104 2.36556 76.9053 1.73455 2.01535 75.9398 3.94633 2.513 
70.7747 1.13967 1.8815 75.9398 3.94633 2.513 76.6901 5.99392 2.97371 
76.6901 5.99392 2.97371 61.4837 1.97369 2.06916 65.7242 3.71657 2.4613 
77.6418 9.10014 3.67261 64.5185 3.33704 2.37591 64.4923 3.40051 2.39019 
65.3593 3.6017 2.43546 65.3917 3.82703 2.48616 64.7564 3.41193 2.39276 
64.7172 3.50714 2.41418 65.1768 3.54426 2.42253 65.1668 3.7204 2.46216 
83.7635 9.55965 3.776 83.9429 9.78316 3.82629 84.9312 9.63416 3.79276 
84.9253 9.55965 3.776 84.0944 9.55965 3.776 84.19 9.74591 3.8179 
84.6841 9.67141 3.80114 84.6753 9.55965 3.776 68.3152 5.09332 2.77107 
68.2612 5.18787 2.79234 66.6016 4.40082 2.61526 66.962 4.25929 2.58342 
67.269 -1.98331 1.17883 67.2715 -1.667 1.25 68.2715 -1.667 1.25 
68.2828 -1.76989 1.22685 67.8924 4.83279 2.71245 67.8115 4.97461 2.74436 
66.9817 4.58108 2.65582 67.2158 4.41577 2.61862 67.5315 -1.92805 1.19126 
68.0215 -1.667 1.25 68.0384 -1.82134 1.21527 67.5867 4.86798 2.72037 
67.6811 4.70252 2.68314 75.2302 8.34107 3.50182 75.1779 8.46803 3.53038 
76.9119 8.87039 3.62091 76.8375 9.25507 3.70747 47.8985 -4.61073 0.587661 
47.9622 -4.71567 0.564049 46.6069 -5.61501 0.361698 46.2803 -5.417 0.40625 
75.7061 8.49085 3.53552 75.6276 8.68128 3.57836 76.5469 8.75551 3.59506 
76.4574 9.07481 3.66691 47.4532 -4.83259 0.537741 47.5488 -4.99001 0.502323 
46.6441 -5.23573 0.447036 46.8711 -5.43968 0.401148 89.5227 2.49116 2.18559 
89.2653 2.96339 2.29184 87.5636 2.09859 2.09726 87.5107 2.26903 2.13561 
89.0329 2.39302 2.1635 87.974 2.45238 2.17686 88.0533 2.19673 2.11934 
65.7665 -2.29963 1.10766 66.0244 -1.667 1.25 78.3717 9.3299 3.7243 
45.55 -6.31633 0.203899 96.4616 4.18197 2.56602 96.4999 3.88927 2.50016 
92.7478 3.99626 2.52423 93.5312 3.29439 2.36631 95.4629 4.13203 2.55478 
95.5203 3.69299 2.456 82.1016 9.55965 3.776 80.4344 10.3122 3.94531 
90.9211 3.61868 2.43928 65.2778 -2.40252 1.08451 78.4971 10.0421 3.88455 
64.5303 -1.667 1.25 44.6621 -6.22327 0.224839 44.2715 -6.667 0.125 
44.2168 -6.44513 0.17492 45.1074 -6.0014 0.274759 75.4843 7.01771 3.20406 
79.1016 6.75299 3.1445 77.593 5.2273 2.80122 77.593 5.2273 2.80122 
77.1016 3.94633 2.513 75.4843 7.01771 3.20406 63.8115 -2.71121 1.01505 
64.1568 -2.17984 1.13461 63.4293 -2.13309 1.14513 77.5207 3.94633 2.513 
77.71 2.54491 2.19768 74.3588 3.94633 2.513 61.354 -0.453434 1.52305 
60.2042 1.36691 1.93263 69.616 3.94633 2.513 71.635 2.34506 2.15271 
75.8072 0.62866 1.76652 67.6128 1.13967 1.8815 69.7731 -0.263666 1.56575 
74.3588 3.94633 2.513 62.7631 2.58047 2.20568 61.7832 -1.667 1.25 
73.6053 6.20418 3.02101 76.1819 8.64063 3.56922 73.5616 2.15115 2.10908 
63.9129 0.760129 1.7961 60.7014 -2.25699 1.11725 59.795 -1.667 1.25 
59.7482 -1.96199 1.18363 60.7891 -1.667 1.25 61.7677 -2.58699 1.043 
62.7832 -1.667 1.25 62.4459 -2.30602 1.10622 63.188 -2.45091 1.07362 
79.9465 2.17777 2.11507 83.7819 2.83426 2.26278 82.2142 1.7734 2.02409 
78.6272 0.307909 1.69435 79.8016 2.4811 2.18332 77.71 2.54491 2.19768 
78.7683 2.903 2.27825 78.6356 1.60867 1.98703 76.6681 -0.0846606 1.60603 
77.5637 0.964861 1.84217 75.4048 0.223481 1.67536 48.9315 -5.84384 0.310211 
50.0979 -4.92095 0.51786 49.9815 -5.62279 0.359947 50.5285 -5.16898 0.462055 
50.4703 -5.51989 0.383099 49.4435 -4.54398 0.60268 49.4565 -5.73331 0.335079 
49.7758 -5.2302 0.448279 49.0512 -5.14279 0.467946 49.4416 -4.96453 0.508055 
46.9053 -5.417 0.40625 46.9765 -6.25542 0.217605 47.8472 -4.792 0.546875 
48.9378 -4.65037 0.578741 48.3182 -4.4795 0.617187 48.4079 -5.10225 0.477067 
48.708 -5.44729 0.399434 47.954 -6.04963 0.263908 47.8498 -5.42492 0.404467 
48.2723 -5.67846 0.34742 47.3763 -5.1045 0.476562 47.3913 -5.81835 0.315947 
45.8484 -6.11832 0.248451 45.999 -6.46121 0.171303 46.3768 -5.76766 0.327351 
46.4878 -6.35831 0.194454 46.818 -5.84614 0.309693 52.0256 -2.55445 1.05032 
52.6161 -3.23482 0.89724 52.9161 -2.11073 1.15016 53.2114 -2.45091 1.07362 
50.5703 -3.27954 0.887178 49.6502 -4.66304 0.57589 49.6797 -3.72327 0.787339 
51.7876 -4.32591 0.651745 50.7008 -4.38539 0.638363 51.5478 -3.3943 0.861356 
87.7491 3.94633 2.513 84.5647 1.49768 1.96205 82.2899 1.8246 2.03561 
82.6056 1.10511 1.87372 83.8576 2.88546 2.2743 83.4731 1.83364 2.03764 
85.1784 2.66065 2.22372 66.7983 0.358571 1.70575 67.2771 1.95287 2.06447 
68.0243 0.142936 1.65724 68.0826 -0.959827 1.40911 68.3979 -0.762031 1.45362 
60.795 -1.667 1.25 62.003 -0.77769 1.45009 57.1259 -0.0929044 1.60417 
55.8067 -1.667 1.25 55.6055 -0.813964 1.44193 89.8957 3.21289 2.34797 
89.7491 3.94633 2.513 88.2399 2.5576 2.20053 56.795 -1.667 1.25 
57.6044 -3.23482 0.89724 55.3462 -2.9126 0.96974 56.4662 -3.13408 0.919907 
57.795 -2.15839 1.13944 54.8067 -1.667 1.25 55.8008 -1.667 1.25 
[...]
CELL_DATA 1797
FIELD FieldData 4
electrode_index 1 1797 int
0 0 0 0 0 0 0 0 0 
0 0 0 0 0 0 0 0 0 
0 0 0 0 0 0 0 0 0 
0 0 0 0 0 0 0 0 0 
0 0 0 0 0 0 0 0 0 
0 0 0 0 0 0 0 0 0 
0 0 0 0 0 0 0 0 0 
0 0 0 0 0 0 0 0 0 
0 0 0 0 0 0 0 0 0 
0 0 0 0 0 0 0 0 0 
0 0 0 0 0 0 0 0 0 
0 0 0 0 0 0 0 0 0 
0 0 0 0 0 0 0 0 0 
0 0 0 0 0 0 0 0 0 
0 0 0 0 0 0 0 0 0 
0 0 0 0 0 0 0 0 0 
0 0 0 0 0 0 0 0 0 
0 0 0 0 0 0 0 0 0 
0 0 0 0 0 0 0 0 0 
0 0 0 0 0 0 0 0 0 
0 0 0 0 0 0 0 0 0 
0 0 0 0 0 0 0 0 0 
0 0 0 0 0 0 0 0 0 
0 0 0 0 0 0 0 0 0 
0 0 0 0 0 0 0 0 0 
0 0 0 0 0 0 0 0 0 
0 0 0 0 0 0 0 0 0 
0 0 0 0 0 0 0 0 0 
0 0 0 0 0 0 0 0 0 
0 0 0 0 0 0 0 0 0 
0 0 0 0 0 0 0 0 0 
0 0 0 0 0 0 0 0 0 
0 0 0 0 0 0 0 0 0 
0 0 0 0 0 0 0 0 0 
0 0 0 0 0 0 0 0 0 
0 0 0 0 0 0 0 0 0 
0 0 0 0 0 0 0 0 0 
0 0 0 0 0 0 0 0 0 
0 0 0 0 0 0 0 0 0 
0 0 0 0 0 0 0 0 0 
0 0 0 0 0 0 0 0 0 
0 0 0 0 0 0 0 0 0 
0 0 0 0 0 0 0 0 0 
0 0 0 0 0 0 0 0 0 
0 0 0 0 0 0 0 0 0 
0 0 0 0 0 0 0 0 0 
0 0 0 0 0 0 0 0 0 
0 0 0 0 0 0 0 0 0 
0 0 0 0 0 0 0 0 0 
0 0 0 0 0 0 0 0 0 
0 0 0 0 0 0 0 0 0 
0 0 0 0 0 0 0 0 0 
0 0 0 0 0 0 0 0 0 
0 0 0 0 0 0 0 0 0 
0 0 0 0 0 0 0 0 0 
0 0 0 0 0 0 0 0 0 
0 0 0 0 0 0 0 0 0 
0 0 0 0 0 0 0 0 0 
0 0 0 0 0 0 0 0 0 
0 0 0 0 0 0 0 0 0 
0 0 0 0 0 0 0 0 0 
0 0 0 0 0 0 0 0 0 
0 0 0 0 0 0 0 0 0 
0 0 0 0 0 0 0 0 0 
0 0 0 0 0 0 0 0 0 
0 0 0 0 0 0 0 0 0 
0 0 0 0 0 0 0 0 0 
0 0 0 0 0 0 0 0 0 
0 0 0 0 0 0 0 0 0 
0 0 0 0 0 0 0 0 0 
0 0 0 0 0 0 0 0 0 
0 0 0 0 0 0 0 0 0 
0 0 0 0 0 0 0 0 0 
0 0 0 0 0 0 0 0 0 
0 0 0 0 0 0 0 0 0 
0 0 0 0 0 0 0 0 0 
0 0 0 0 0 0 0 0 0 
0 0 0 0 0 0 0 0 0 
0 0 0 0 0 0 0 0 0 
0 0 0 0 0 0 0 0 0 
0 0 0 0 0 0 0 0 0 
0 0 0 0 0 0 0 0 0 
0 0 0 0 0 0 0 0 0 
0 0 0 0 0 0 0 0 0 
0 0 0 0 0 0 0 0 0 
0 0 0 0 0 0 0 0 0 
0 0 0 0 0 0 0 0 0 
0 0 0 0 0 0 0 0 0 
0 0 0 0 0 0 0 0 0 
0 0 0 0 0 0 0 0 0 
0 0 0 0 0 0 0 0 0 
0 0 0 0 0 0 0 0 0 
0 0 0 0 0 0 0 0 0 
0 0 0 0 0 0 0 0 0 
0 0 0 0 0 0 0 0 0 
0 0 0 0 0 0 0 0 0 
0 0 0 0 0 0 0 0 0 
0 0 0 0 0 0 0 0 0 
1 1 1 1 1 1 1 1 1 
1 1 1 1 1 1 1 1 1 
1 1 1 1 1 1 1 1 1 
1 1 1 1 1 1 1 1 1 
1 1 1 1 1 1 1 1 1 
1 1 1 1 1 1 1 1 1 
1 1 1 1 1 1 1 1 1 
1 1 1 1 1 1 1 1 1 
1 1 1 1 1 1 1 1 1 
1 1 1 1 1 1 1 1 1 
1 1 1 1 1 1 1 1 1 
1 1 1 1 1 1 1 1 1 
1 1 1 1 1 1 1 1 1 
1 1 1 1 1 1 1 1 1 
1 1 1 1 1 1 1 1 1 
1 1 1 1 1 1 1 1 1 
1 1 1 1 1 1 1 1 1 
1 1 1 1 1 1 1 1 1 
1 1 1 1 1 1 1 1 1 
1 1 1 1 1 1 1 1 1 
1 1 1 1 1 1 1 1 1 
1 1 1 1 1 1 1 1 1 
1 1 1 1 1 1 1 1 1 
1 1 1 1 1 1 1 1 1 
1 1 1 1 1 1 1 1 1 
1 1 1 1 1 1 1 1 1 
1 1 1 1 1 1 1 1 1 
1 1 1 1 1 1 1 1 1 
1 1 1 1 1 1 1 1 1 
1 1 1 1 1 1 1 1 1 
1 1 1 1 1 1 1 1 1 
1 1 1 1 1 1 1 1 1 
1 1 1 1 1 1 1 1 1 
1 1 1 1 1 1 1 1 1 
1 1 1 1 1 1 1 1 1 
1 1 1 1 1 1 1 1 1 
1 1 1 1 1 1 1 1 1 
1 1 1 1 1 1 1 1 1 
1 1 1 1 1 1 1 1 1 
1 1 1 1 1 1 1 1 1 
1 1 1 1 1 1 1 1 1 
1 1 1 1 1 1 1 1 1 
1 1 1 1 1 1 1 1 1 
1 1 1 1 1 1 1 1 1 
1 1 1 1 1 1 1 1 1 
1 1 1 1 1 1 1 1 1 
1 1 1 1 1 1 1 1 1 
1 1 1 1 1 1 1 1 1 
1 1 1 1 1 1 1 1 1 
1 1 1 1 1 1 1 1 1 
1 1 1 1 1 1 1 1 1 
1 1 1 1 1 1 1 1 1 
1 1 1 1 1 1 1 1 1 
1 1 1 1 1 1 1 1 1 
1 1 1 1 1 1 1 1 1 
1 1 1 1 1 1 1 1 1 
1 1 1 1 1 1 1 1 1 
1 1 1 1 1 1 1 1 1 
1 1 1 1 1 1 1 1 1 
1 1 1 1 1 1 1 1 1 
1 1 1 1 1 1 1 1 1 
1 1 1 1 1 1 1 1 1 
1 1 1 1 1 1 1 1 1 
1 1 1 1 1 1 1 1 1 
1 1 1 1 1 1 1 1 1 
1 1 1 1 1 1 1 1 1 
1 1 1 1 1 1 1 1 1 
1 1 1 1 1 1 1 1 1 
1 1 1 1 1 1 1 1 1 
1 1 1 1 1 1 1 1 1 
1 1 1 1 1 1 1 1 1 
1 1 1 1 1 1 1 1 1 
1 1 1 1 1 1 1 1 1 
1 1 1 1 1 1 1 1 1 
1 1 1 1 1 1 1 1 1 
1 1 1 1 1 1 1 1 1 
1 1 1 1 1 1 1 1 1 
1 1 1 1 1 1 1 1 1 
1 1 1 1 1 1 1 1 1 
1 1 1 1 1 1 1 1 1 
1 1 1 1 1 1 1 1 1 
1 1 1 1 1 1 1 1 1 
1 1 1 1 1 1 1 1 1 
1 1 1 1 1 1 1 1 1 
1 1 1 1 1 1 1 1 1 
1 1 1 1 1 1 1 1 1 
1 1 1 1 1 1 1 1 1 
1 1 1 1 1 1 1 1 1 
1 1 1 1 1 1 1 1 1 
1 1 1 1 1 1 1 1 1 
1 1 1 1 1 1 1 1 1 
1 1 1 1 1 1 1 1 1 
1 1 1 1 1 1 1 1 1 
1 1 1 1 1 1 1 1 1 
1 1 1 1 1 1 1 1 1 
1 1 1 1 1 1 1 1 1 
1 1 1 1 1 1 1 1 1 
1 1 1 1 1 1 1 1 1 
1 1 1 1 1 1 1 1 1 
1 1 1 1 1 1 1 1 1 
1 1 1 1 1 1 1 1 1 
1 1 1 1 1 1 
charge 1 1797 double
-0.133161 -0.255809 -0.0294119 -0.0336019 -0.054646 -0.367635 -0.267788 -0.243358 -0.00381973 
-0.00183247 -0.00564571 -0.00305545 -0.00786003 -0.0583505 -0.00779994 -0.0539583 -0.0540649 -0.0773916 
-0.0269455 -0.0417165 -0.0326712 -0.0177141 -0.0627225 -0.0456445 -0.00839219 -0.0166022 -0.00597983 
-0.0059629 -0.00603707 -0.00611402 -0.00792069 -0.00513785 -0.0156189 -0.0047633 -0.00533928 -0.00267483 
-0.00296086 -0.0016496 -0.00175848 -0.00164259 -0.00163367 -0.00245649 -0.00229955 -0.00311964 -0.0018575 
-0.00198464 -0.00269231 -0.00343134 -0.00734952 -0.0475376 -0.0114362 -0.0136809 -0.0147656 -0.0187388 
-0.0236451 -0.0204953 -0.0473205 -0.0264111 -0.00296864 -0.0029937 -0.00350433 -0.00324898 -0.00374793 
-0.00357039 -0.00493438 -0.00893818 -0.0232608 -0.0107133 -0.150419 -0.0661007 -0.110976 -0.098567 
-0.067206 -0.0799175 -0.161192 -0.191977 -1.423 -0.120122 -1.03266 -0.0672189 -0.135547 
-0.113369 -0.0059493 -0.0167665 -0.0553163 -0.0063845 -0.00326382 -0.0121052 -0.00251259 -0.0113092 
-0.0617958 -0.0150463 -0.0576052 -0.00666198 -0.0747124 -0.0039298 -0.00351046 -0.0135704 -0.00360646 
-0.0234569 -0.0185169 -0.00799497 -0.00219512 -0.00437023 -0.0080803 -0.00897877 -0.00375284 -0.0190699 
-0.00560374 -0.0178941 -0.00403295 -0.00201974 -0.00182334 -0.00169423 -0.00271141 -0.00266804 -0.0015806 
-0.00321891 -0.00169581 -0.0021743 -0.0925461 -0.0619643 -0.024935 -0.0104474 -0.0153432 -0.00749514 
-0.00784777 -0.00483066 -0.014642 -0.0349836 -0.0146113 -0.0565176 -0.0655144 -0.0200469 -0.0320828 
-0.0349475 -0.0386676 -0.0219502 -0.0264148 -0.00392072 -0.00301616 -0.00300707 -0.00437335 -0.00306252 
-0.00299834 -0.00472173 -0.00413738 -0.0287957 -0.0335712 -0.015124 -0.0247184 -0.229724 -0.32127 
-1.11385 -1.94499 -0.0480282 -0.0193125 -0.015284 -0.0174687 -0.0137501 -0.383015 -0.576141 
-0.611762 -0.0293296 -0.0311213 -0.0126882 -0.0302264 -0.00786465 -0.0134767 -0.0892121 -0.109205 
-0.081288 -0.0859507 -0.0143401 -0.00856391 -0.0100557 -0.0876977 -0.0924063 -0.0569703 -0.0571053 
-0.0740493 -0.160697 -0.217685 -0.175735 -0.202366 -0.0934892 -0.15806 -0.156644 -0.101438 
-0.0901038 -0.00621705 -0.0793351 -0.127008 -0.0934606 -0.106563 -0.088108 -0.0867447 -0.00315233 
-0.00332604 -0.00509478 -0.0903142 -0.246911 -0.0959474 -0.535628 -0.163511 -0.154994 -0.00529565 
-0.0949551 -0.00501291 -0.00552418 -0.00715345 -0.00871564 -0.0814366 -0.00439907 -0.310962 -0.796869 
-0.125664 -0.0132263 -0.0178666 -0.00957939 -0.0152422 -0.0107903 -0.0131408 -0.00907346 -0.0121865 
-0.0172454 -0.00788545 -0.00505491 -0.0608946 -0.00981731 -0.00556442 -0.00463133 -0.00897251 -0.0126928 
-0.0347676 -0.0264687 -0.0243113 -0.0375578 -0.0495598 -0.213053 -0.0600468 -0.0439482 -0.233344 
-0.0707316 -0.0161221 -0.0212717 -0.092877 -0.0144774 -0.0392242 -0.015751 -0.020869 -0.230435 
-0.0439987 -0.215953 -0.0315346 -0.0669868 -0.0479511 -0.135133 -0.651973 -0.540084 -0.129776 
-0.306457 -0.539027 -0.0791968 -0.0355561 -0.112686 -0.0504698 -0.0385634 -0.0796781 -0.040855 
-0.363873 -0.789944 -0.815353 -0.040238 -0.0499306 -0.144169 -0.0432836 -0.0725586 -0.087874 
-0.299178 -0.0481656 -0.107185 -0.164599 -1.35576 -0.102836 -0.0758844 -0.046451 -0.0898325 
-0.118092 -0.368752 -0.323461 -0.0943452 -1.17807 -0.0667858 -0.0247855 -0.0356269 -0.0399695 
-0.0353649 -0.0565379 -0.106241 -0.0317489 -0.0235141 -0.0462166 -0.0388709 -0.0283549 -0.0275723 
-0.0515109 -0.0380743 -0.147842 -0.101983 -0.0802002 -0.0897323 -0.0460628 -0.116494 -0.0387934 
-0.00963982 -0.015778 -0.038147 -0.0484374 -0.0511047 -0.0242531 -0.0205649 -0.019788 -0.0232616 
-0.123768 -0.0394196 -0.0395843 -0.0417806 -0.051779 -0.0195824 -0.0325299 -0.0181447 -0.129476 
-0.0269375 -0.0269346 -0.0172315 -0.670596 -0.0293838 -0.334978 -0.112773 -0.0489133 -0.139422 
-0.0536943 -0.18044 -0.102416 -0.690346 -1.16546 -0.0445718 -0.812292 -0.0356879 -0.0249532 
-0.356853 -0.12152 -0.0853047 -0.0241686 -0.0500208 -0.0502957 -0.584717 -0.0989913 -0.153669 
-0.0744615 -0.040312 -0.114101 -0.022427 -0.0408681 -0.0339834 -0.0577582 -0.0147694 -0.633643 
-0.105271 -0.0190033 -0.00952 -0.0333165 -0.244064 -0.00903153 -0.0134638 -0.0526207 -0.0540397 
-0.0707772 -0.0103141 -0.0904535 -0.108679 -0.141279 -0.0679862 -0.108223 -0.0194131 -0.102773 
-0.0235093 -0.0346994 -0.020121 -0.0775982 -0.0825965 -0.0240188 -0.0208171 -0.0201185 -0.0768855 
-0.0347305 -0.0248121 -0.0228903 -0.038979 -0.0941888 -0.230169 -0.613786 -0.103131 -0.0711652 
-0.0489649 -0.0481691 -0.0371896 -0.0200094 -0.0271482 -0.034828 -0.0377023 -0.14258 -0.072065 
-0.055776 -0.0486202 -0.0615565 -0.0989838 -0.00376554 -0.00328493 -0.00429021 -0.00283684 -0.00294965 
-0.00479048 -0.0305966 -0.0314097 -0.00332525 -0.00241609 -0.0780316 -0.0454074 -0.029366 -0.0217021 
-1.90929 -4.39753 -0.947164 -2.21268 -0.0460152 -0.0455402 -0.0246179 -0.0245129 -1.33129 
-3.89588 -0.0428238 -0.0312148 -0.0239564 -0.0503012 -0.139826 -0.126814 -0.0213992 -0.0237856 
-0.0591105 -0.0559632 -0.0197885 -0.027603 -0.0799122 -0.0676181 -0.0539783 -0.0573163 -0.115486 
-0.136755 -0.245712 -0.471388 -0.292874 -0.245338 -0.00944057 -0.0124985 -0.271079 -0.0998376 
-0.912692 -0.464095 -0.367266 -0.0994044 -0.234927 -0.129142 -0.124863 -0.0298502 -0.0256926 
-0.0240037 -0.0223145 -0.159017 -0.638632 -1.50604 -0.217845 -1.77185 -0.110152 -1.03341 
-0.800042 -0.446413 -0.129189 -0.176483 -1.2121 -0.168072 -2.14018 -1.19498 -1.36443 
-2.30121 -0.662666 -0.453668 -0.419261 -0.389008 -0.0854938 -0.286108 -0.137424 -0.0785885 
-0.0237021 -0.322954 -0.0348208 -0.0283714 -0.094834 -0.520004 -1.18272 -0.152828 -0.164427 
-0.378813 -2.64977 -0.148563 -0.164673 -0.190712 -1.29808 -0.116425 -1.3302 -0.46359 
-0.172409 -0.473394 -0.408588 -1.24429 -0.433888 -0.134094 -0.107288 -0.0609065 -0.332607 
-0.0732776 -0.0994143 -0.0930601 -0.0542867 -0.393257 -0.0504626 -0.0632599 -0.143713 -1.2656 
-0.375231 -0.138063 -0.874429 -0.437782 -1.22259 -0.0720467 -0.231159 -0.0651183 -0.0916637 
-0.0230431 -0.277921 -0.019324 -0.0993937 -0.140365 -0.0991166 -0.143468 -0.818179 -0.666296 
-0.083031 -0.355034 -0.0786009 -0.106832 -0.0870424 -0.128739 -0.122814 -0.5785 -0.664085 
-0.268435 -0.281128 -1.96216 -1.91832 -0.721661 -0.0679764 -0.314346 -0.144499 -1.04526 
-0.10773 -0.139332 -0.161445 -0.0955551 -0.0773665 -0.339123 -0.223353 -0.973654 -0.147964 
-0.105822 -0.122877 -0.112574 -0.035882 -0.28313 -0.293949 -0.0668814 -0.0713692 -0.0838846 
-0.0882323 -0.60705 -0.0670234 -0.0960901 -0.0983984 -0.714498 -0.123085 -0.735744 -1.03178 
-1.04516 -0.343691 -0.283872 -0.13332 -0.579048 -0.0903428 -0.210704 -0.28841 -0.721099 
-0.0988075 -0.183253 -0.190963 -0.486449 -0.0864346 -1.15795 -0.348716 -1.182 -0.404508 
-0.782277 -0.250683 -0.0894834 -0.0972088 -0.287432 -0.230865 -0.599137 -1.0733 -1.43735 
-0.849428 -0.24014 -0.98373 -0.154968 -0.877079 -0.107056 -0.30942 -0.986366 -1.40929 
-0.565987 -0.210373 -0.155299 -1.03482 -0.148917 -0.170156 -0.313596 -0.0443088 -0.255214 
-0.114135 -0.0771312 -0.110702 -0.0906888 -0.795973 -0.190493 -0.0485499 -0.0623542 -0.232826 
-0.455885 -1.3005 -0.376193 -0.220271 -0.0815604 -0.079156 -0.618824 -0.243433 -0.369808 
-0.803763 -0.093498 -0.111123 -0.0489998 -0.0835338 -0.682127 -0.0825229 -0.102736 -0.258928 
-0.289628 -1.35924 -0.35196 -0.079213 -0.137802 -0.139973 -0.0746902 -0.0460707 -0.0466171 
-0.140199 -0.361558 -0.924159 -0.195609 -1.14442 -0.326692 -0.122869 -0.0935205 -0.0765891 
-0.0445971 -0.348695 -0.0449913 -1.4786 -0.344886 -0.426231 -0.154268 -0.072058 -1.97092 
-0.423444 -0.112657 -0.213782 -0.206731 -0.0314108 -0.0407129 -0.0369171 -0.0388433 -0.644571 
-0.27608 -0.22354 -0.118953 -0.295878 -0.137485 -0.0778481 -0.371117 -0.131048 -0.0343744 
-0.0568975 -0.0367675 -0.0579174 -0.033261 -0.0275227 -0.0333863 -0.0336077 -0.0245867 -0.0142181 
-0.0142238 -0.387194 -0.0509955 -0.125567 -0.0569699 -0.0394049 -0.0417566 -0.019781 -0.0169875 
-0.0200828 -0.099635 -0.229516 -0.146446 -0.067928 -0.152753 -0.380193 -0.149955 -0.114108 
-0.0381807 -0.148988 -0.0504693 -0.0470946 -0.168449 -0.320603 -0.051703 -0.035365 -0.0200628 
-0.103174 -0.0954166 -0.108598 -0.0575775 -0.0643538 -0.0984721 -0.050049 -0.168432 -0.181086 
-0.0830097 -0.0514272 -0.11175 -0.0227523 -0.0257575 -0.0423054 -0.0316902 -0.122976 -0.134828 
-0.0593205 -0.0748964 -0.148593 -0.128317 -0.0676443 -0.31133 -0.0386366 -0.0336616 -0.022625 
-0.0344231 -0.0626331 -0.0736357 -0.0317725 -0.0169979 -0.0488268 -0.0391089 -0.0254572 -0.0266425 
-0.0456919 -0.0184122 -0.0134328 -0.0894169 -0.0567156 -0.0255839 -0.0169241 -0.0296045 -0.103602 
-0.0335062 -0.0183884 -0.024033 -0.0118315 -0.0323633 -0.00790178 -0.0108875 -0.0207226 -0.0294682 
-0.0463788 -0.1078 -0.0222034 -0.0229021 -0.015966 -0.0146628 -0.0206016 -0.0826839 -0.0559295 
-0.016634 -0.0431075 -0.0236004 -0.181377 -0.0353728 -0.110756 -0.0368948 -0.0242698 -0.0378042 
-0.0312481 -0.0164351 -0.0123229 -0.0125832 -0.0192969 -0.0326929 -0.0161311 -0.0163716 -0.014027 
-0.00567778 -0.00400287 -0.0327679 -0.0368336 -0.0222769 -0.0216169 -0.0117148 -0.0219157 -0.042505 
-0.010556 -0.0163902 -0.0334501 -0.0213004 -0.0145262 -0.0111395 -0.00764996 -0.0114605 -0.00720141 
-0.0127274 -0.0261771 -0.00716688 -0.021991 -0.00899164 -0.0146958 -0.00728013 -0.0272038 -0.0111213 
-0.00689341 -0.0106521 -0.00633974 -0.00732155 -0.00852508 -0.00397261 -0.00893182 -0.00362216 -0.007537 
-0.0115703 -0.0068292 -0.0204388 -0.00436884 -0.0113821 -0.00879467 -0.0063585 -0.0128072 -0.0136096 
2.055 0.348612 1.12642 0.796921 0.106864 0.16928 0.102223 0.126895 0.188552 
0.0595457 0.0745943 0.110935 0.0655095 0.109491 0.277121 0.0965946 0.053224 0.0585888 
0.0526185 0.0655244 1.40862 1.68284 0.663219 1.82061 1.84153 0.732738 0.500292 
2.43865 0.565461 0.558913 0.341538 0.182472 0.185496 0.398791 0.252053 1.22019 
2.04059 0.379898 0.120833 0.160329 0.181333 0.170177 0.295096 0.767408 0.959396 
0.136521 0.832622 1.34459 0.68442 0.534133 2.14319 2.46744 1.99641 0.606117 
0.762991 0.827909 2.01579 4.34909 1.43214 4.46567 1.96235 2.2171 2.20142 
2.42769 2.10225 0.885846 0.858184 0.915395 1.05912 0.806252 0.422294 0.429097 
0.931052 1.28492 0.233754 0.526015 1.37865 0.518074 0.446027 0.958497 0.838321 
1.54311 0.524789 0.418931 0.244939 0.245503 0.283984 0.41769 0.693356 0.469204 
0.311605 0.414181 0.410555 0.363391 0.322268 0.362775 0.373471 0.372556 0.364963 
0.461907 0.289481 0.44701 0.288134 0.372817 0.394096 0.166139 0.276489 0.450011 
0.352421 0.404149 0.413574 0.172804 0.337664 0.166629 0.485312 1.20628 0.902654 
0.274001 0.311547 0.332905 0.431082 0.457854 0.186088 0.17044 0.193665 0.308344 
0.684687 0.196941 1.04569 0.31415 0.22919 0.23501 0.239697 0.187086 0.248532 
0.229414 0.137728 0.275621 0.169895 0.148334 0.290122 0.159809 0.115449 0.146964 
0.140848 0.394441 0.158979 0.361945 0.173836 0.106294 0.338301 0.120548 0.103219 
0.247318 0.10805 0.148849 0.442645 0.109627 0.238904 0.223682 0.21109 0.235854 
0.140759 0.116377 0.126269 0.190386 0.112946 0.12832 0.078414 0.178592 0.146846 
0.100542 0.0907536 0.108074 0.224215 0.207095 0.155721 0.0945364 0.259396 0.109914 
0.159735 0.233821 0.162382 0.0930652 0.120968 0.0855143 0.0976427 0.0946199 0.22241 
0.234081 0.105175 1.08827 0.862131 1.40554 1.53485 0.156476 0.270744 0.0821673 
0.296907 0.429213 0.0970683 0.182159 0.103896 0.086678 0.0852254 0.149507 1.01923 
0.0802977 0.673363 0.298252 0.189564 0.0885237 0.0817918 0.0745013 0.11261 0.0735246 
0.063492 0.0881244 0.0750361 0.0697702 0.0984889 0.0703737 0.109931 0.160995 0.0662638 
0.0766458 0.0783807 0.125594 0.0650794 0.065667 0.0641076 0.260931 0.0773061 0.0821998 
0.178196 0.0991482 0.104757 0.0882539 0.0836147 0.123331 0.319571 0.342352 0.091199 
0.289352 0.0886677 0.173325 0.063408 0.0618578 0.380939 0.066118 0.116543 0.12239 
0.0609543 0.407021 0.0725064 0.0591516 0.0707628 0.156975 0.152818 0.651796 0.0663342 
0.142241 0.0597326 0.0680136 0.0828286 0.17349 0.0777766 0.0806651 0.0767025 0.0826179 
0.263014 0.160837 0.139353 0.434673 0.0838557 0.161544 0.059024 0.0577776 0.334895 
0.0658164 0.0829377 0.0608099 0.0679057 0.0532692 0.0684021 0.147896 0.927055 0.136885 
0.0701418 0.055397 0.0752807 0.145431 0.0557823 0.101444 0.0621506 0.319475 0.27072 
0.168668 0.0904335 0.371288 0.0623536 0.0982084 0.0567061 0.064307 0.0760808 0.0574161 
0.109146 0.0604318 0.146629 0.151418 0.0986446 0.0627751 0.0555738 0.0690199 0.0531901 
0.0537551 0.0906238 0.132132 0.244789 0.175155 0.339112 0.0544971 0.0556451 0.0544193 
0.0650476 0.0589419 0.090277 0.0668759 0.109651 0.137162 0.0827171 0.0568828 0.0516788 
0.069879 0.069908 0.170772 0.0505632 0.22771 0.110278 0.147546 0.0544065 0.0563326 
0.158597 0.0541034 0.0536229 0.056051 0.145822 0.164638 0.198694 0.100993 0.0853141 
0.050756 0.0985284 0.156307 0.107266 0.130231 0.052466 0.056587 0.0883953 0.0643554 
0.15079 0.209514 0.100375 0.141875 0.0582305 0.162062 2.29678 1.32391 2.08504 
6.45948 2.28393 2.80613 2.89193 2.29453 3.34221 2.31506 2.10687 3.39306 
4.33723 3.83099 3.57018 3.59238 2.84479 1.85243 2.31701 2.05992 1.60975 
1.6278 1.49199 2.53267 3.94546 1.75373 2.61205 2.50055 1.09854 1.21721 
2.3242 5.00195 1.30308 1.1275 1.80428 4.46884 0.846235 2.09638 1.04081 
1.03471 1.71224 0.841538 1.65438 0.989339 1.74232 1.92328 0.79438 0.824767 
1.04453 0.93122 0.872779 3.5679 1.89819 0.851374 0.593296 1.04537 2.26446 
3.26277 0.913983 0.493891 0.807536 1.08795 0.612779 0.547265 0.539452 1.04389 
0.559064 0.946671 0.535947 0.647881 0.761607 0.451831 0.822353 0.448222 0.821111 
0.487291 1.87329 0.68793 1.76056 0.715595 0.435437 0.922668 2.87356 1.93749 
0.468757 0.486282 0.611863 0.418751 0.606636 0.407807 1.65689 1.5233 0.739404 
0.485879 1.3492 0.610635 0.784339 0.213993 0.58342 0.647803 0.455879 0.160043 
0.202125 0.455064 1.53589 1.95966 1.26061 0.368054 1.88437 0.432813 0.370731 
0.197622 0.325971 0.336164 0.350713 0.415977 0.999599 0.431815 0.345531 0.529824 
0.377063 0.356237 0.303681 0.895027 0.299772 1.57655 0.691057 0.271587 0.300292 
0.300464 0.367447 0.474358 0.308502 0.311182 0.261113 0.377033 0.119791 0.0973396 
0.167356 0.30529 1.1269 0.502595 2.88502 3.21753 1.00654 0.490427 0.614483 
0.433324 0.262576 0.262873 0.236064 0.248871 0.202624 0.999654 0.243344 0.176629 
0.217971 0.180486 0.20282 0.251245 1.27143 0.52183 0.863172 0.243915 1.5269 
0.23214 0.232385 0.662315 0.864961 0.61725 0.377059 0.837761 0.905617 0.154953 
0.420643 0.171091 0.247205 0.375257 0.94991 1.19365 0.503315 0.202043 0.379278 
0.278817 0.459464 0.376684 0.393732 0.24488 0.439427 0.223547 0.495746 0.247708 
0.187337 0.170273 0.185524 1.02762 0.172337 0.193723 1.05368 0.21906 0.209914 
0.215778 0.366715 0.217949 0.17503 0.47163 0.0894241 0.122782 0.25663 0.476466 
0.19336 0.59635 0.349526 0.106936 0.0701672 0.231443 0.44861 0.113999 0.209829 
0.102861 0.0670576 0.219771 0.410048 0.0995677 0.172047 0.199842 0.0781894 0.219336 
0.385898 0.0900879 0.157256 0.313336 0.110872 0.353968 0.22246 0.0588312 0.0974391 
0.205057 0.0609066 0.229743 0.172864 0.64954 0.115101 0.0802437 0.228069 0.144329 
0.116659 0.077372 0.194067 0.121295 0.107263 0.075029 0.186444 0.11347 0.161303 
0.105995 0.112784 0.0744776 0.117936 0.0769782 0.20457 0.209297 0.216615 0.458685 
0.231135 1.03141 0.345789 0.280284 0.20612 0.384993 0.232798 0.343476 0.245117 
0.179488 0.462599 0.825512 0.226781 0.144771 0.148916 0.183702 0.141648 0.901993 
0.91885 0.761396 1.03468 0.104888 0.1823 0.121715 0.169702 0.133908 0.156763 
0.120624 0.118714 0.476635 0.250351 0.313009 0.607898 0.136874 0.278458 0.116247 
0.14953 0.897564 0.311455 0.174481 0.282476 0.426414 0.374905 0.241137 1.52214 
0.468288 1.14824 0.123278 0.145187 0.580521 0.83099 0.208672 0.116464 0.185319 
0.118381 0.108074 0.111341 0.156202 0.160232 0.114636 0.135361 0.156849 0.138617 
0.786373 0.120122 0.910116 0.116054 0.696987 0.8299 0.313493 0.155081 0.166579 
0.408862 0.52902 0.108572 0.285011 0.774562 0.419744 0.099574 0.13742 0.169299 
0.384713 0.376428 0.223948 0.130708 0.235974 0.208261 0.163251 0.325406 0.162616 
0.128098 0.104224 0.162329 0.124564 0.162206 0.122176 0.147933 0.135961 0.155775 