# vtk DataFile Version 4.0
vtk output
ASCII
DATASET STRUCTURED_POINTS
DIMENSIONS 62 62 62
SPACING 0.05 0.05 0.05
ORIGIN -1.525 -1.525 -1.525
POINT_DATA 238328
FIELD FieldData 1
potential 1 238328 double
0.0119998 0.0120024 0.012005 0.0120077 0.0120103 0.012013 0.0120156 0.0120183 0.0120209 
0.0120235 0.0120262 0.0120289 0.0120315 0.0120342 0.0120368 0.0120395 0.0120421 0.0120448 
0.0120475 0.0120501 0.0120528 0.0120555 0.0120581 0.0120608 0.0120635 0.0120662 0.0120689 
0.0120715 0.0120742 0.0120769 0.0120796 0.0120823 0.012085 0.0120877 0.0120904 0.0120931 
0.0120957 0.0120984 0.0121012 0.0121039 0.0121066 0.0121093 0.012112 0.0121147 0.0121174 
0.0121201 0.0121228 0.0121255 0.0121283 0.012131 0.0121337 0.0121364 0.0121392 0.0121419 
0.0121446 0.0121474 0.0121501 0.0121528 0.0121556 0.0121583 0.0121611 0.0121638 0.0120007 
0.0120034 0.012006 0.0120086 0.0120113 0.0120139 0.0120166 0.0120192 0.0120219 0.0120245 
0.0120272 0.0120298 0.0120325 0.0120351 0.0120378 0.0120404 0.0120431 0.0120458 0.0120484 
0.0120511 0.0120538 0.0120564 0.0120591 0.0120618 0.0120645 0.0120672 0.0120698 0.0120725 
0.0120752 0.0120779 0.0120806 0.0120833 0.012086 0.0120886 0.0120913 0.012094 0.0120967 
0.0120994 0.0121021 0.0121048 0.0121075 0.0121103 0.012113 0.0121157 0.0121184 0.0121211 
0.0121238 0.0121265 0.0121293 0.012132 0.0121347 0.0121374 0.0121402 0.0121429 0.0121456 
0.0121484 0.0121511 0.0121538 0.0121566 0.0121593 0.0121621 0.0121648 0.0120017 0.0120043 
0.012007 0.0120096 0.0120122 0.0120149 0.0120175 0.0120202 0.0120228 0.0120255 0.0120281 
0.0120308 0.0120334 0.0120361 0.0120388 0.0120414 0.0120441 0.0120467 0.0120494 0.0120521 
0.0120548 0.0120574 0.0120601 0.0120628 0.0120654 0.0120681 0.0120708 0.0120735 0.0120762 
0.0120789 0.0120816 0.0120842 0.0120869 0.0120896 0.0120923 0.012095 0.0120977 0.0121004 
0.0121031 0.0121058 0.0121085 0.0121112 0.012114 0.0121167 0.0121194 0.0121221 0.0121248 
0.0121275 0.0121303 0.012133 0.0121357 0.0121384 0.0121412 0.0121439 0.0121466 0.0121494 
0.0121521 0.0121548 0.0121576 0.0121603 0.0121631 0.0121658 0.0120027 0.0120053 0.0120079 
0.0120106 0.0120132 0.0120159 0.0120185 0.0120211 0.0120238 0.0120264 0.0120291 0.0120318 
0.0120344 0.0120371 0.0120397 0.0120424 0.0120451 0.0120477 0.0120504 0.0120531 0.0120557 
0.0120584 0.0120611 0.0120637 0.0120664 0.0120691 0.0120718 0.0120745 0.0120772 0.0120798 
0.0120825 0.0120852 0.0120879 0.0120906 0.0120933 0.012096 0.0120987 0.0121014 0.0121041 
0.0121068 0.0121095 0.0121122 0.0121149 0.0121177 0.0121204 0.0121231 0.0121258 0.0121285 
0.0121312 0.012134 0.0121367 0.0121394 0.0121422 0.0121449 0.0121476 0.0121504 0.0121531 
0.0121558 0.0121586 0.0121613 0.0121641 0.0121668 0.0120036 0.0120062 0.0120089 0.0120115 
0.0120142 0.0120168 0.0120195 0.0120221 0.0120248 0.0120274 0.0120301 0.0120327 0.0120354 
0.012038 0.0120407 0.0120434 0.012046 0.0120487 0.0120514 0.012054 0.0120567 0.0120594 
0.012062 0.0120647 0.0120674 0.0120701 0.0120728 0.0120754 0.0120781 0.0120808 0.0120835 
0.0120862 0.0120889 0.0120916 0.0120943 0.012097 0.0120997 0.0121024 0.0121051 0.0121078 
0.0121105 0.0121132 0.0121159 0.0121186 0.0121214 0.0121241 0.0121268 0.0121295 0.0121322 
0.012135 0.0121377 0.0121404 0.0121431 0.0121459 0.0121486 0.0121514 0.0121541 0.0121568 
0.0121596 0.0121623 0.0121651 0.0121678 0.0120046 0.0120072 0.0120099 0.0120125 0.0120151 
0.0120178 0.0120204 0.0120231 0.0120257 0.0120284 0.012031 0.0120337 0.0120363 0.012039 
0.0120417 0.0120443 0.012047 0.0120497 0.0120523 0.012055 0.0120577 0.0120603 0.012063 
0.0120657 0.0120684 0.0120711 0.0120737 0.0120764 0.0120791 0.0120818 0.0120845 0.0120872 
0.0120899 0.0120926 0.0120953 0.012098 0.0121007 0.0121034 0.0121061 0.0121088 0.0121115 
0.0121142 0.0121169 0.0121196 0.0121223 0.0121251 0.0121278 0.0121305 0.0121332 0.012136 
0.0121387 0.0121414 0.0121441 0.0121469 0.0121496 0.0121523 0.0121551 0.0121578 0.0121606 
0.0121633 0.0121661 0.0121688 0.0120055 0.0120082 0.0120108 0.0120135 0.0120161 0.0120187 
0.0120214 0.012024 0.0120267 0.0120293 0.012032 0.0120347 0.0120373 0.01204 0.0120426 
0.0120453 0.012048 0.0120506 0.0120533 0.012056 0.0120586 0.0120613 0.012064 0.0120667 
0.0120694 0.012072 0.0120747 0.0120774 0.0120801 0.0120828 0.0120855 0.0120882 0.0120909 
0.0120936 0.0120963 0.012099 0.0121017 0.0121044 0.0121071 0.0121098 0.0121125 0.0121152 
0.0121179 0.0121206 0.0121233 0.0121261 0.0121288 0.0121315 0.0121342 0.012137 0.0121397 
0.0121424 0.0121451 0.0121479 0.0121506 0.0121533 0.0121561 0.0121588 0.0121616 0.0121643 
0.0121671 0.0121698 0.0120065 0.0120091 0.0120118 0.0120144 0.0120171 0.0120197 0.0120224 
0.012025 0.0120277 0.0120303 0.012033 0.0120356 0.0120383 0.0120409 0.0120436 0.0120463 
0.0120489 0.0120516 0.0120543 0.0120569 0.0120596 0.0120623 0.012065 0.0120677 0.0120703 
0.012073 0.0120757 0.0120784 0.0120811 0.0120838 0.0120865 0.0120891 0.0120918 0.0120945 
0.0120972 0.0120999 0.0121026 0.0121053 0.0121081 0.0121108 0.0121135 0.0121162 0.0121189 
0.0121216 0.0121243 0.012127 0.0121298 0.0121325 0.0121352 0.0121379 0.0121407 0.0121434 
0.0121461 0.0121489 0.0121516 0.0121543 0.0121571 0.0121598 0.0121626 0.0121653 0.0121681 
0.0121708 0.0120075 0.0120101 0.0120127 0.0120154 0.012018 0.0120207 0.0120233 0.012026 
0.0120286 0.0120313 0.0120339 0.0120366 0.0120393 0.0120419 0.0120446 0.0120472 0.0120499 
0.0120526 0.0120552 0.0120579 0.0120606 0.0120633 0.0120659 0.0120686 0.0120713 0.012074 
0.0120767 0.0120794 0.0120821 0.0120847 0.0120874 0.0120901 0.0120928 0.0120955 0.0120982 
0.0121009 0.0121036 0.0121063 0.012109 0.0121117 0.0121145 0.0121172 0.0121199 0.0121226 
0.0121253 0.012128 0.0121308 0.0121335 0.0121362 0.0121389 0.0121417 0.0121444 0.0121471 
0.0121499 0.0121526 0.0121553 0.0121581 0.0121608 0.0121636 0.0121663 0.0121691 0.0121718 
0.0120084 0.0120111 0.0120137 0.0120163 0.012019 0.0120216 0.0120243 0.0120269 0.0120296 
0.0120322 0.0120349 0.0120376 0.0120402 0.0120429 0.0120455 0.0120482 0.0120509 0.0120536 
0.0120562 0.0120589 0.0120616 0.0120642 0.0120669 0.0120696 0.0120723 0.012075 0.0120777 
0.0120803 0.012083 0.0120857 0.0120884 0.0120911 0.0120938 0.0120965 0.0120992 0.0121019 
0.0121046 0.0121073 0.01211 0.0121127 0.0121154 0.0121182 0.0121209 0.0121236 0.0121263 
0.012129 0.0121318 0.0121345 0.0121372 0.0121399 0.0121427 0.0121454 0.0121481 0.0121509 
0.0121536 0.0121563 0.0121591 0.0121618 0.0121646 0.0121673 0.0121701 0.0121728 0.0120094 
0.012012 0.0120147 0.0120173 0.01202 0.0120226 0.0120253 0.0120279 0.0120306 0.0120332 
0.0120359 0.0120385 0.0120412 0.0120439 0.0120465 0.0120492 0.0120519 0.0120545 0.0120572 
0.0120599 0.0120625 0.0120652 0.0120679 0.0120706 0.0120733 0.0120759 0.0120786 0.0120813 
0.012084 0.0120867 0.0120894 0.0120921 0.0120948 0.0120975 0.0121002 0.0121029 0.0121056 
0.0121083 0.012111 0.0121137 0.0121164 0.0121191 0.0121219 0.0121246 0.0121273 0.01213 
0.0121327 0.0121355 0.0121382 0.0121409 0.0121437 0.0121464 0.0121491 0.0121519 0.0121546 
0.0121573 0.0121601 0.0121628 0.0121656 0.0121683 0.0121711 0.0121738 0.0120103 0.012013 
0.0120156 0.0120183 0.0120209 0.0120236 0.0120262 0.0120289 0.0120315 0.0120342 0.0120368 
0.0120395 0.0120422 0.0120448 0.0120475 0.0120502 0.0120528 0.0120555 0.0120582 0.0120608 
0.0120635 0.0120662 0.0120689 0.0120716 0.0120742 0.0120769 0.0120796 0.0120823 0.012085 
0.0120877 0.0120904 0.0120931 0.0120958 0.0120985 0.0121012 0.0121039 0.0121066 0.0121093 
0.012112 0.0121147 0.0121174 0.0121201 0.0121229 0.0121256 0.0121283 0.012131 0.0121337 
0.0121365 0.0121392 0.0121419 0.0121447 0.0121474 0.0121501 0.0121529 0.0121556 0.0121583 
0.0121611 0.0121638 0.0121666 0.0121693 0.0121721 0.0121748 0.0120113 0.0120139 0.0120166 
0.0120192 0.0120219 0.0120245 0.0120272 0.0120298 0.0120325 0.0120352 0.0120378 0.0120405 
0.0120431 0.0120458 0.0120485 0.0120511 0.0120538 0.0120565 0.0120591 0.0120618 0.0120645 
0.0120672 0.0120699 0.0120725 0.0120752 0.0120779 0.0120806 0.0120833 0.012086 0.0120887 
0.0120914 0.0120941 0.0120968 0.0120995 0.0121022 0.0121049 0.0121076 0.0121103 0.012113 
0.0121157 0.0121184 0.0121211 0.0121238 0.0121266 0.0121293 0.012132 0.0121347 0.0121375 
0.0121402 0.0121429 0.0121456 0.0121484 0.0121511 0.0121539 0.0121566 0.0121593 0.0121621 
0.0121648 0.0121676 0.0121703 0.0121731 0.0121758 0.0120123 0.0120149 0.0120176 0.0120202 
0.0120228 0.0120255 0.0120282 0.0120308 0.0120335 0.0120361 0.0120388 0.0120414 0.0120441 
0.0120468 0.0120494 0.0120521 0.0120548 0.0120574 0.0120601 0.0120628 0.0120655 0.0120681 
0.0120708 0.0120735 0.0120762 0.0120789 0.0120816 0.0120843 0.012087 0.0120896 0.0120923 
0.012095 0.0120977 0.0121004 0.0121031 0.0121058 0.0121086 0.0121113 0.012114 0.0121167 
0.0121194 0.0121221 0.0121248 0.0121276 0.0121303 0.012133 0.0121357 0.0121385 0.0121412 
0.0121439 0.0121466 0.0121494 0.0121521 0.0121549 0.0121576 0.0121603 0.0121631 0.0121658 
0.0121686 0.0121713 0.0121741 0.0121768 0.0120132 0.0120159 0.0120185 0.0120212 0.0120238 
0.0120265 0.0120291 0.0120318 0.0120344 0.0120371 0.0120397 0.0120424 0.0120451 0.0120477 
0.0120504 0.0120531 0.0120557 0.0120584 0.0120611 0.0120638 0.0120664 0.0120691 0.0120718 
0.0120745 0.0120772 0.0120799 0.0120826 0.0120852 0.0120879 0.0120906 0.0120933 0.012096 
0.0120987 0.0121014 0.0121041 0.0121068 0.0121095 0.0121122 0.012115 0.0121177 0.0121204 
0.0121231 0.0121258 0.0121285 0.0121313 0.012134 0.0121367 0.0121394 0.0121422 0.0121449 
0.0121476 0.0121504 0.0121531 0.0121559 0.0121586 0.0121613 0.0121641 0.0121668 0.0121696 
0.0121723 0.0121751 0.0121778 0.0120142 0.0120168 0.0120195 0.0120221 0.0120248 0.0120274 
0.0120301 0.0120327 0.0120354 0.0120381 0.0120407 0.0120434 0.012046 0.0120487 0.0120514 
0.012054 0.0120567 0.0120594 0.0120621 0.0120647 0.0120674 0.0120701 0.0120728 0.0120755 
0.0120782 0.0120808 0.0120835 0.0120862 0.0120889 0.0120916 0.0120943 0.012097 0.0120997 
0.0121024 0.0121051 0.0121078 0.0121105 0.0121132 0.0121159 0.0121187 0.0121214 0.0121241 
0.0121268 0.0121295 0.0121323 0.012135 0.0121377 0.0121404 0.0121432 0.0121459 0.0121486 
0.0121514 0.0121541 0.0121568 0.0121596 0.0121623 0.0121651 0.0121678 0.0121706 0.0121733 
0.0121761 0.0121788 0.0120152 0.0120178 0.0120204 0.0120231 0.0120257 0.0120284 0.012031 
0.0120337 0.0120364 0.012039 0.0120417 0.0120443 0.012047 0.0120497 0.0120523 0.012055 
0.0120577 0.0120604 0.012063 0.0120657 0.0120684 0.0120711 0.0120738 0.0120764 0.0120791 
0.0120818 0.0120845 0.0120872 0.0120899 0.0120926 0.0120953 0.012098 0.0121007 0.0121034 
0.0121061 0.0121088 0.0121115 0.0121142 0.0121169 0.0121197 0.0121224 0.0121251 0.0121278 
0.0121305 0.0121332 0.012136 0.0121387 0.0121414 0.0121442 0.0121469 0.0121496 0.0121524 
0.0121551 0.0121578 0.0121606 0.0121633 0.0121661 0.0121688 0.0121716 0.0121743 0.0121771 
0.0121798 0.0120161 0.0120188 0.0120214 0.0120241 0.0120267 0.0120294 0.012032 0.0120347 
0.0120373 0.01204 0.0120427 0.0120453 0.012048 0.0120506 0.0120533 0.012056 0.0120587 
0.0120613 0.012064 0.0120667 0.0120694 0.0120721 0.0120747 0.0120774 0.0120801 0.0120828 
0.0120855 0.0120882 0.0120909 0.0120936 0.0120963 0.012099 0.0121017 0.0121044 0.0121071 
0.0121098 0.0121125 0.0121152 0.0121179 0.0121206 0.0121234 0.0121261 0.0121288 0.0121315 
0.0121342 0.012137 0.0121397 0.0121424 0.0121452 0.0121479 0.0121506 0.0121534 0.0121561 
0.0121588 0.0121616 0.0121643 0.0121671 0.0121698 0.0121726 0.0121753 0.0121781 0.0121808 
0.0120171 0.0120197 0.0120224 0.012025 0.0120277 0.0120303 0.012033 0.0120356 0.0120383 
0.012041 0.0120436 0.0120463 0.012049 0.0120516 0.0120543 0.012057 0.0120596 0.0120623 
0.012065 0.0120677 0.0120703 0.012073 0.0120757 0.0120784 0.0120811 0.0120838 0.0120865 
0.0120892 0.0120919 0.0120946 0.0120973 0.0121 0.0121027 0.0121054 0.0121081 0.0121108 
0.0121135 0.0121162 0.0121189 0.0121216 0.0121243 0.0121271 0.0121298 0.0121325 0.0121352 
0.012138 0.0121407 0.0121434 0.0121462 0.0121489 0.0121516 0.0121544 0.0121571 0.0121598 
0.0121626 0.0121653 0.0121681 0.0121708 0.0121736 0.0121763 0.0121791 0.0121818 0.012018 
0.0120207 0.0120233 0.012026 0.0120286 0.0120313 0.0120339 0.0120366 0.0120393 0.0120419 
0.0120446 0.0120473 0.0120499 0.0120526 0.0120553 0.0120579 0.0120606 0.0120633 0.012066 
0.0120686 0.0120713 0.012074 0.0120767 0.0120794 0.0120821 0.0120848 0.0120874 0.0120901 
0.0120928 0.0120955 0.0120982 0.0121009 0.0121036 0.0121063 0.0121091 0.0121118 0.0121145 
0.0121172 0.0121199 0.0121226 0.0121253 0.0121281 0.0121308 0.0121335 0.0121362 0.012139 
0.0121417 0.0121444 0.0121471 0.0121499 0.0121526 0.0121554 0.0121581 0.0121608 0.0121636 
0.0121663 0.0121691 0.0121718 0.0121746 0.0121773 0.0121801 0.0121829 0.012019 0.0120216 
0.0120243 0.012027 0.0120296 0.0120323 0.0120349 0.0120376 0.0120402 0.0120429 0.0120456 
0.0120482 0.0120509 0.0120536 0.0120562 0.0120589 0.0120616 0.0120643 0.0120669 0.0120696 
0.0120723 0.012075 0.0120777 0.0120804 0.012083 0.0120857 0.0120884 0.0120911 0.0120938 
0.0120965 0.0120992 0.0121019 0.0121046 0.0121073 0.01211 0.0121127 0.0121155 0.0121182 
0.0121209 0.0121236 0.0121263 0.012129 0.0121318 0.0121345 0.0121372 0.0121399 0.0121427 
0.0121454 0.0121481 0.0121509 0.0121536 0.0121564 0.0121591 0.0121618 0.0121646 0.0121673 
0.0121701 0.0121728 0.0121756 0.0121783 0.0121811 0.0121839 0.01202 0.0120226 0.0120253 
0.0120279 0.0120306 0.0120332 0.0120359 0.0120385 0.0120412 0.0120439 0.0120465 0.0120492 
0.0120519 0.0120545 0.0120572 0.0120599 0.0120626 0.0120652 0.0120679 0.0120706 0.0120733 
0.012076 0.0120786 0.0120813 0.012084 0.0120867 0.0120894 0.0120921 0.0120948 0.0120975 
0.0121002 0.0121029 0.0121056 0.0121083 0.012111 0.0121137 0.0121164 0.0121192 0.0121219 
0.0121246 0.0121273 0.01213 0.0121328 0.0121355 0.0121382 0.0121409 0.0121437 0.0121464 
0.0121491 0.0121519 0.0121546 0.0121574 0.0121601 0.0121628 0.0121656 0.0121683 0.0121711 
0.0121738 0.0121766 0.0121793 0.0121821 0.0121849 0.0120209 0.0120236 0.0120262 0.0120289 
0.0120315 0.0120342 0.0120368 0.0120395 0.0120422 0.0120448 0.0120475 0.0120502 0.0120528 
0.0120555 0.0120582 0.0120609 0.0120635 0.0120662 0.0120689 0.0120716 0.0120743 0.0120769 
0.0120796 0.0120823 0.012085 0.0120877 0.0120904 0.0120931 0.0120958 0.0120985 0.0121012 
0.0121039 0.0121066 0.0121093 0.012112 0.0121147 0.0121174 0.0121201 0.0121229 0.0121256 
0.0121283 0.012131 0.0121337 0.0121365 0.0121392 0.0121419 0.0121447 0.0121474 0.0121501 
0.0121529 0.0121556 0.0121583 0.0121611 0.0121638 0.0121666 0.0121693 0.0121721 0.0121748 
0.0121776 0.0121803 0.0121831 0.0121859 0.0120219 0.0120245 0.0120272 0.0120298 0.0120325 
0.0120352 0.0120378 0.0120405 0.0120431 0.0120458 0.0120485 0.0120511 0.0120538 0.0120565 
0.0120592 0.0120618 0.0120645 0.0120672 0.0120699 0.0120725 0.0120752 0.0120779 0.0120806 
0.0120833 0.012086 0.0120887 0.0120914 0.0120941 0.0120968 0.0120995 0.0121022 0.0121049 
0.0121076 0.0121103 0.012113 0.0121157 0.0121184 0.0121211 0.0121239 0.0121266 0.0121293 
0.012132 0.0121347 0.0121375 0.0121402 0.0121429 0.0121457 0.0121484 0.0121511 0.0121539 
0.0121566 0.0121593 0.0121621 0.0121648 0.0121676 0.0121703 0.0121731 0.0121758 0.0121786 
0.0121813 0.0121841 0.0121869 0.0120229 0.0120255 0.0120282 0.0120308 0.0120335 0.0120361 
0.0120388 0.0120414 0.0120441 0.0120468 0.0120494 0.0120521 0.0120548 0.0120575 0.0120601 
0.0120628 0.0120655 0.0120682 0.0120708 0.0120735 0.0120762 0.0120789 0.0120816 0.0120843 
0.012087 0.0120897 0.0120924 0.012095 0.0120977 0.0121004 0.0121032 0.0121059 0.0121086 
0.0121113 0.012114 0.0121167 0.0121194 0.0121221 0.0121248 0.0121276 0.0121303 0.012133 
0.0121357 0.0121385 0.0121412 0.0121439 0.0121467 0.0121494 0.0121521 0.0121549 0.0121576 
0.0121603 0.0121631 0.0121658 0.0121686 0.0121713 0.0121741 0.0121768 0.0121796 0.0121824 
0.0121851 0.0121879 0.0120238 0.0120265 0.0120291 0.0120318 0.0120344 0.0120371 0.0120398 
0.0120424 0.0120451 0.0120477 0.0120504 0.0120531 0.0120557 0.0120584 0.0120611 0.0120638 
0.0120665 0.0120691 0.0120718 0.0120745 0.0120772 0.0120799 0.0120826 0.0120852 0.0120879 
0.0120906 0.0120933 0.012096 0.0120987 0.0121014 0.0121041 0.0121068 0.0121095 0.0121123 
0.012115 0.0121177 0.0121204 0.0121231 0.0121258 0.0121286 0.0121313 0.012134 0.0121367 
0.0121395 0.0121422 0.0121449 0.0121476 0.0121504 0.0121531 0.0121559 0.0121586 0.0121613 
0.0121641 0.0121668 0.0121696 0.0121723 0.0121751 0.0121778 0.0121806 0.0121834 0.0121861 
0.0121889 0.0120248 0.0120274 0.0120301 0.0120327 0.0120354 0.0120381 0.0120407 0.0120434 
0.012046 0.0120487 0.0120514 0.012054 0.0120567 0.0120594 0.0120621 0.0120647 0.0120674 
0.0120701 0.0120728 0.0120755 0.0120782 0.0120808 0.0120835 0.0120862 0.0120889 0.0120916 
0.0120943 0.012097 0.0120997 0.0121024 0.0121051 0.0121078 0.0121105 0.0121132 0.012116 
0.0121187 0.0121214 0.0121241 0.0121268 0.0121295 0.0121323 0.012135 0.0121377 0.0121404 
0.0121432 0.0121459 0.0121486 0.0121514 0.0121541 0.0121569 0.0121596 0.0121623 0.0121651 
0.0121678 0.0121706 0.0121733 0.0121761 0.0121788 0.0121816 0.0121844 0.0121871 0.0121899 
0.0120257 0.0120284 0.0120311 0.0120337 0.0120364 0.012039 0.0120417 0.0120443 0.012047 
0.0120497 0.0120524 0.012055 0.0120577 0.0120604 0.012063 0.0120657 0.0120684 0.0120711 
0.0120738 0.0120764 0.0120791 0.0120818 0.0120845 0.0120872 0.0120899 0.0120926 0.0120953 
0.012098 0.0121007 0.0121034 0.0121061 0.0121088 0.0121115 0.0121142 0.0121169 0.0121197 
0.0121224 0.0121251 0.0121278 0.0121305 0.0121333 0.012136 0.0121387 0.0121414 0.0121442 
0.0121469 0.0121496 0.0121524 0.0121551 0.0121579 0.0121606 0.0121633 0.0121661 0.0121688 
0.0121716 0.0121743 0.0121771 0.0121798 0.0121826 0.0121854 0.0121881 0.0121909 0.0120267 
0.0120294 0.012032 0.0120347 0.0120373 0.01204 0.0120427 0.0120453 0.012048 0.0120507 
0.0120533 0.012056 0.0120587 0.0120613 0.012064 0.0120667 0.0120694 0.0120721 0.0120747 
0.0120774 0.0120801 0.0120828 0.0120855 0.0120882 0.0120909 0.0120936 0.0120963 0.012099 
0.0121017 0.0121044 0.0121071 0.0121098 0.0121125 0.0121152 0.0121179 0.0121206 0.0121234 
0.0121261 0.0121288 0.0121315 0.0121342 0.012137 0.0121397 0.0121424 0.0121452 0.0121479 
0.0121506 0.0121534 0.0121561 0.0121588 0.0121616 0.0121643 0.0121671 0.0121698 0.0121726 
0.0121753 0.0121781 0.0121808 0.0121836 0.0121864 0.0121891 0.0121919 0.0120277 0.0120303 
0.012033 0.0120356 0.0120383 0.012041 0.0120436 0.0120463 0.012049 0.0120516 0.0120543 
0.012057 0.0120596 0.0120623 0.012065 0.0120677 0.0120703 0.012073 0.0120757 0.0120784 
0.0120811 0.0120838 0.0120865 0.0120892 0.0120919 0.0120946 0.0120973 0.0121 0.0121027 
0.0121054 0.0121081 0.0121108 0.0121135 0.0121162 0.0121189 0.0121216 0.0121243 0.0121271 
0.0121298 0.0121325 0.0121352 0.012138 0.0121407 0.0121434 0.0121462 0.0121489 0.0121516 
0.0121544 0.0121571 0.0121598 0.0121626 0.0121653 0.0121681 0.0121708 0.0121736 0.0121763 
0.0121791 0.0121819 0.0121846 0.0121874 0.0121901 0.0121929 0.0120286 0.0120313 0.0120339 
0.0120366 0.0120393 0.0120419 0.0120446 0.0120473 0.0120499 0.0120526 0.0120553 0.0120579 
0.0120606 0.0120633 0.012066 0.0120686 0.0120713 0.012074 0.0120767 0.0120794 0.0120821 
0.0120848 0.0120875 0.0120901 0.0120928 0.0120955 0.0120982 0.0121009 0.0121036 0.0121063 
0.0121091 0.0121118 0.0121145 0.0121172 0.0121199 0.0121226 0.0121253 0.0121281 0.0121308 
0.0121335 0.0121362 0.012139 0.0121417 0.0121444 0.0121471 0.0121499 0.0121526 0.0121554 
0.0121581 0.0121608 0.0121636 0.0121663 0.0121691 0.0121718 0.0121746 0.0121773 0.0121801 
0.0121829 0.0121856 0.0121884 0.0121911 0.0121939 0.0120296 0.0120323 0.0120349 0.0120376 
0.0120402 0.0120429 0.0120456 0.0120482 0.0120509 0.0120536 0.0120562 0.0120589 0.0120616 
0.0120643 0.0120669 0.0120696 0.0120723 0.012075 0.0120777 0.0120804 0.012083 0.0120857 
0.0120884 0.0120911 0.0120938 0.0120965 0.0120992 0.0121019 0.0121046 0.0121073 0.01211 
0.0121127 0.0121155 0.0121182 0.0121209 0.0121236 0.0121263 0.012129 0.0121318 0.0121345 
0.0121372 0.0121399 0.0121427 0.0121454 0.0121481 0.0121509 0.0121536 0.0121564 0.0121591 
0.0121618 0.0121646 0.0121673 0.0121701 0.0121728 0.0121756 0.0121783 0.0121811 0.0121839 
0.0121866 0.0121894 0.0121921 0.0121949 0.0120306 0.0120332 0.0120359 0.0120385 0.0120412 
0.0120439 0.0120465 0.0120492 0.0120519 0.0120545 0.0120572 0.0120599 0.0120626 0.0120652 
0.0120679 0.0120706 0.0120733 0.012076 0.0120786 0.0120813 0.012084 0.0120867 0.0120894 
0.0120921 0.0120948 0.0120975 0.0121002 0.0121029 0.0121056 0.0121083 0.012111 0.0121137 
0.0121164 0.0121192 0.0121219 0.0121246 0.0121273 0.01213 0.0121328 0.0121355 0.0121382 
0.0121409 0.0121437 0.0121464 0.0121491 0.0121519 0.0121546 0.0121574 0.0121601 0.0121628 
0.0121656 0.0121683 0.0121711 0.0121738 0.0121766 0.0121793 0.0121821 0.0121849 0.0121876 
0.0121904 0.0121931 0.0121959 0.0120315 0.0120342 0.0120368 0.0120395 0.0120422 0.0120448 
0.0120475 0.0120502 0.0120528 0.0120555 0.0120582 0.0120608 0.0120635 0.0120662 0.0120689 
0.0120716 0.0120742 0.0120769 0.0120796 0.0120823 0.012085 0.0120877 0.0120904 0.0120931 
0.0120958 0.0120985 0.0121012 0.0121039 0.0121066 0.0121093 0.012112 0.0121147 0.0121174 
0.0121201 0.0121229 0.0121256 0.0121283 0.012131 0.0121337 0.0121365 0.0121392 0.0121419 
0.0121447 0.0121474 0.0121501 0.0121529 0.0121556 0.0121583 0.0121611 0.0121638 0.0121666 
0.0121693 0.0121721 0.0121748 0.0121776 0.0121803 0.0121831 0.0121859 0.0121886 0.0121914 
0.0121942 0.0121969 0.0120325 0.0120352 0.0120378 0.0120405 0.0120431 0.0120458 0.0120485 
0.0120511 0.0120538 0.0120565 0.0120591 0.0120618 0.0120645 0.0120672 0.0120699 0.0120725 
0.0120752 0.0120779 0.0120806 0.0120833 0.012086 0.0120887 0.0120914 0.0120941 0.0120968 
0.0120995 0.0121022 0.0121049 0.0121076 0.0121103 0.012113 0.0121157 0.0121184 0.0121211 
0.0121239 0.0121266 0.0121293 0.012132 0.0121347 0.0121375 0.0121402 0.0121429 0.0121457 
0.0121484 0.0121511 0.0121539 0.0121566 0.0121593 0.0121621 0.0121648 0.0121676 0.0121703 
0.0121731 0.0121758 0.0121786 0.0121813 0.0121841 0.0121869 0.0121896 0.0121924 0.0121952 
0.0121979 0.0120335 0.0120361 0.0120388 0.0120414 0.0120441 0.0120468 0.0120494 0.0120521 
0.0120548 0.0120574 0.0120601 0.0120628 0.0120655 0.0120682 0.0120708 0.0120735 0.0120762 
0.0120789 0.0120816 0.0120843 0.012087 0.0120897 0.0120923 0.012095 0.0120977 0.0121004 
0.0121031 0.0121059 0.0121086 0.0121113 0.012114 0.0121167 0.0121194 0.0121221 0.0121248 
0.0121276 0.0121303 0.012133 0.0121357 0.0121385 0.0121412 0.0121439 0.0121466 0.0121494 
0.0121521 0.0121549 0.0121576 0.0121603 0.0121631 0.0121658 0.0121686 0.0121713 0.0121741 
0.0121768 0.0121796 0.0121823 0.0121851 0.0121879 0.0121906 0.0121934 0.0121962 0.0121989 
0.0120344 0.0120371 0.0120397 0.0120424 0.0120451 0.0120477 0.0120504 0.0120531 0.0120557 
0.0120584 0.0120611 0.0120638 0.0120664 0.0120691 0.0120718 0.0120745 0.0120772 0.0120799 
0.0120826 0.0120852 0.0120879 0.0120906 0.0120933 0.012096 0.0120987 0.0121014 0.0121041 
0.0121068 0.0121095 0.0121123 0.012115 0.0121177 0.0121204 0.0121231 0.0121258 0.0121285 
0.0121313 0.012134 0.0121367 0.0121394 0.0121422 0.0121449 0.0121476 0.0121504 0.0121531 
0.0121559 0.0121586 0.0121613 0.0121641 0.0121668 0.0121696 0.0121723 0.0121751 0.0121778 
0.0121806 0.0121834 0.0121861 0.0121889 0.0121916 0.0121944 0.0121972 0.0121999 0.0120354 
0.012038 0.0120407 0.0120434 0.012046 0.0120487 0.0120514 0.012054 0.0120567 0.0120594 
0.0120621 0.0120647 0.0120674 0.0120701 0.0120728 0.0120755 0.0120782 0.0120808 0.0120835 
0.0120862 0.0120889 0.0120916 0.0120943 0.012097 0.0120997 0.0121024 0.0121051 0.0121078 
0.0121105 0.0121132 0.0121159 0.0121187 0.0121214 0.0121241 0.0121268 0.0121295 0.0121323 
0.012135 0.0121377 0.0121404 0.0121432 0.0121459 0.0121486 0.0121514 0.0121541 0.0121568 
0.0121596 0.0121623 0.0121651 0.0121678 0.0121706 0.0121733 0.0121761 0.0121788 0.0121816 
0.0121844 0.0121871 0.0121899 0.0121926 0.0121954 0.0121982 0.0122009 0.0120364 0.012039 
0.0120417 0.0120443 0.012047 0.0120497 0.0120523 0.012055 0.0120577 0.0120604 0.012063 
0.0120657 0.0120684 0.0120711 0.0120738 0.0120764 0.0120791 0.0120818 0.0120845 0.0120872 
0.0120899 0.0120926 0.0120953 0.012098 0.0121007 0.0121034 0.0121061 0.0121088 0.0121115 
0.0121142 0.0121169 0.0121196 0.0121224 0.0121251 0.0121278 0.0121305 0.0121332 0.012136 
0.0121387 0.0121414 0.0121442 0.0121469 0.0121496 0.0121524 0.0121551 0.0121578 0.0121606 
0.0121633 0.0121661 0.0121688 0.0121716 0.0121743 0.0121771 0.0121798 0.0121826 0.0121854 
0.0121881 0.0121909 0.0121936 0.0121964 0.0121992 0.012202 0.0120373 0.01204 0.0120426 
0.0120453 0.012048 0.0120506 0.0120533 0.012056 0.0120587 0.0120613 0.012064 0.0120667 
0.0120694 0.012072 0.0120747 0.0120774 0.0120801 0.0120828 0.0120855 0.0120882 0.0120909 
0.0120936 0.0120963 0.012099 0.0121017 0.0121044 0.0121071 0.0121098 0.0121125 0.0121152 
0.0121179 0.0121206 0.0121234 0.0121261 0.0121288 0.0121315 0.0121342 0.012137 0.0121397 
0.0121424 0.0121452 0.0121479 0.0121506 0.0121534 0.0121561 0.0121588 0.0121616 0.0121643 
0.0121671 0.0121698 0.0121726 0.0121753 0.0121781 0.0121808 0.0121836 0.0121864 0.0121891 
0.0121919 0.0121947 0.0121974 0.0122002 0.012203 0.0120383 0.0120409 0.0120436 0.0120463 
0.0120489 0.0120516 0.0120543 0.012057 0.0120596 0.0120623 0.012065 0.0120677 0.0120703 
0.012073 0.0120757 0.0120784 0.0120811 0.0120838 0.0120865 0.0120892 0.0120918 0.0120945 
0.0120972 0.0120999 0.0121026 0.0121054 0.0121081 0.0121108 0.0121135 0.0121162 0.0121189 
0.0121216 0.0121243 0.0121271 0.0121298 0.0121325 0.0121352 0.012138 0.0121407 0.0121434 
0.0121461 0.0121489 0.0121516 0.0121544 0.0121571 0.0121598 0.0121626 0.0121653 0.0121681 
0.0121708 0.0121736 0.0121763 0.0121791 0.0121818 0.0121846 0.0121874 0.0121901 0.0121929 
0.0121957 0.0121984 0.0122012 0.012204 0.0120393 0.0120419 0.0120446 0.0120472 0.0120499 
0.0120526 0.0120552 0.0120579 0.0120606 0.0120633 0.012066 0.0120686 0.0120713 0.012074 
0.0120767 0.0120794 0.0120821 0.0120847 0.0120874 0.0120901 0.0120928 0.0120955 0.0120982 
0.0121009 0.0121036 0.0121063 0.012109 0.0121118 0.0121145 0.0121172 0.0121199 0.0121226 
0.0121253 0.012128 0.0121308 0.0121335 0.0121362 0.0121389 0.0121417 0.0121444 0.0121471 
0.0121499 0.0121526 0.0121553 0.0121581 0.0121608 0.0121636 0.0121663 0.0121691 0.0121718 
0.0121746 0.0121773 0.0121801 0.0121828 0.0121856 0.0121884 0.0121911 0.0121939 0.0121967 
0.0121994 0.0122022 0.012205 0.0120402 0.0120429 0.0120455 0.0120482 0.0120509 0.0120535 
0.0120562 0.0120589 0.0120616 0.0120642 0.0120669 0.0120696 0.0120723 0.012075 0.0120777 
0.0120803 0.012083 0.0120857 0.0120884 0.0120911 0.0120938 0.0120965 0.0120992 0.0121019 
0.0121046 0.0121073 0.01211 0.0121127 0.0121154 0.0121182 0.0121209 0.0121236 0.0121263 
0.012129 0.0121318 0.0121345 0.0121372 0.0121399 0.0121427 0.0121454 0.0121481 0.0121509 
0.0121536 0.0121563 0.0121591 0.0121618 0.0121646 0.0121673 0.0121701 0.0121728 0.0121756 
0.0121783 0.0121811 0.0121838 0.0121866 0.0121894 0.0121921 0.0121949 0.0121977 0.0122004 
0.0122032 0.012206 0.0120412 0.0120438 0.0120465 0.0120492 0.0120518 0.0120545 0.0120572 
0.0120599 0.0120625 0.0120652 0.0120679 0.0120706 0.0120733 0.0120759 0.0120786 0.0120813 
0.012084 0.0120867 0.0120894 0.0120921 0.0120948 0.0120975 0.0121002 0.0121029 0.0121056 
0.0121083 0.012111 0.0121137 0.0121164 0.0121191 0.0121219 0.0121246 0.0121273 0.01213 
0.0121327 0.0121355 0.0121382 0.0121409 0.0121437 0.0121464 0.0121491 0.0121519 0.0121546 
0.0121573 0.0121601 0.0121628 0.0121656 0.0121683 0.0121711 0.0121738 0.0121766 0.0121793 
0.0121821 0.0121848 0.0121876 0.0121904 0.0121931 0.0121959 0.0121987 0.0122014 0.0122042 
0.012207 0.0120422 0.0120448 0.0120475 0.0120501 0.0120528 0.0120555 0.0120582 0.0120608 
0.0120635 0.0120662 0.0120689 0.0120715 0.0120742 0.0120769 0.0120796 0.0120823 0.012085 
0.0120877 0.0120904 0.0120931 0.0120958 0.0120985 0.0121012 0.0121039 0.0121066 0.0121093 
0.012112 0.0121147 0.0121174 0.0121201 0.0121228 0.0121256 0.0121283 0.012131 0.0121337 
0.0121365 0.0121392 0.0121419 0.0121446 0.0121474 0.0121501 0.0121529 0.0121556 0.0121583 
0.0121611 0.0121638 0.0121666 0.0121693 0.0121721 0.0121748 0.0121776 0.0121803 0.0121831 
0.0121858 0.0121886 0.0121914 0.0121941 0.0121969 0.0121997 0.0122025 0.0122052 0.012208 
0.0120431 0.0120458 0.0120484 0.0120511 0.0120538 0.0120565 0.0120591 0.0120618 0.0120645 
0.0120672 0.0120698 0.0120725 0.0120752 0.0120779 0.0120806 0.0120833 0.012086 0.0120887 
0.0120914 0.012094 0.0120967 0.0120994 0.0121021 0.0121049 0.0121076 0.0121103 0.012113 
0.0121157 0.0121184 0.0121211 0.0121238 0.0121266 0.0121293 0.012132 0.0121347 0.0121374 
0.0121402 0.0121429 0.0121456 0.0121484 0.0121511 0.0121538 0.0121566 0.0121593 0.0121621 
0.0121648 0.0121676 0.0121703 0.0121731 0.0121758 0.0121786 0.0121813 0.0121841 0.0121869 
0.0121896 0.0121924 0.0121951 0.0121979 0.0122007 0.0122035 0.0122062 0.012209 0.0120441 
0.0120467 0.0120494 0.0120521 0.0120548 0.0120574 0.0120601 0.0120628 0.0120655 0.0120681 
0.0120708 0.0120735 0.0120762 0.0120789 0.0120816 0.0120842 0.0120869 0.0120896 0.0120923 
0.012095 0.0120977 0.0121004 0.0121031 0.0121058 0.0121085 0.0121113 0.012114 0.0121167 
0.0121194 0.0121221 0.0121248 0.0121275 0.0121303 0.012133 0.0121357 0.0121384 0.0121412 
0.0121439 0.0121466 0.0121494 0.0121521 0.0121548 0.0121576 0.0121603 0.0121631 0.0121658 
0.0121686 0.0121713 0.0121741 0.0121768 0.0121796 0.0121823 0.0121851 0.0121879 0.0121906 
0.0121934 0.0121962 0.0121989 0.0122017 0.0122045 0.0122072 0.01221 0.012045 0.0120477 
0.0120504 0.0120531 0.0120557 0.0120584 0.0120611 0.0120637 0.0120664 0.0120691 0.0120718 
0.0120745 0.0120772 0.0120798 0.0120825 0.0120852 0.0120879 0.0120906 0.0120933 0.012096 
0.0120987 0.0121014 0.0121041 0.0121068 0.0121095 0.0121122 0.0121149 0.0121177 0.0121204 
0.0121231 0.0121258 0.0121285 0.0121313 0.012134 0.0121367 0.0121394 0.0121422 0.0121449 
0.0121476 0.0121504 0.0121531 0.0121558 0.0121586 0.0121613 0.0121641 0.0121668 0.0121696 
0.0121723 0.0121751 0.0121778 0.0121806 0.0121833 0.0121861 0.0121889 0.0121916 0.0121944 