# vtk DataFile Version 4.0
vtk output
ASCII
DATASET STRUCTURED_POINTS
DIMENSIONS 62 62 62
SPACING 0.05 0.05 0.05
ORIGIN -1.525 -0.525 -0.525
POINT_DATA 238328
FIELD FieldData 1
potential 1 238328 double
0.107655 0.107726 0.107797 0.107869 0.10794 0.108012 0.108083 0.108155 0.108227 
0.108299 0.108371 0.108443 0.108515 0.108588 0.10866 0.108733 0.108806 0.108878 
0.108951 0.109024 0.109097 0.10917 0.109244 0.109317 0.109391 0.109464 0.109538 
0.109612 0.109686 0.10976 0.109834 0.109908 0.109983 0.110057 0.110132 0.110206 
0.110281 0.110356 0.110431 0.110506 0.110581 0.110657 0.110732 0.110808 0.110883 
0.110959 0.111035 0.111111 0.111187 0.111263 0.11134 0.111416 0.111493 0.111569 
0.111646 0.111723 0.1118 0.111877 0.111954 0.112032 0.112109 0.112187 0.107661 
0.107732 0.107804 0.107875 0.107946 0.108018 0.10809 0.108161 0.108233 0.108305 
0.108377 0.108449 0.108522 0.108594 0.108667 0.108739 0.108812 0.108885 0.108957 
0.10903 0.109104 0.109177 0.10925 0.109323 0.109397 0.109471 0.109544 0.109618 
0.109692 0.109766 0.10984 0.109915 0.109989 0.110063 0.110138 0.110213 0.110287 
0.110362 0.110437 0.110513 0.110588 0.110663 0.110739 0.110814 0.11089 0.110966 
0.111041 0.111117 0.111194 0.11127 0.111346 0.111423 0.111499 0.111576 0.111653 
0.11173 0.111807 0.111884 0.111961 0.112038 0.112116 0.112193 0.107667 0.107738 
0.10781 0.107881 0.107953 0.108024 0.108096 0.108168 0.108239 0.108311 0.108383 
0.108456 0.108528 0.1086 0.108673 0.108745 0.108818 0.108891 0.108964 0.109037 
0.10911 0.109183 0.109256 0.10933 0.109403 0.109477 0.109551 0.109624 0.109698 
0.109772 0.109847 0.109921 0.109995 0.11007 0.110144 0.110219 0.110294 0.110369 
0.110444 0.110519 0.110594 0.11067 0.110745 0.110821 0.110896 0.110972 0.111048 
0.111124 0.1112 0.111276 0.111353 0.111429 0.111506 0.111582 0.111659 0.111736 
0.111813 0.11189 0.111968 0.112045 0.112122 0.1122 0.107673 0.107744 0.107816 
0.107887 0.107959 0.10803 0.108102 0.108174 0.108245 0.108317 0.10839 0.108462 
0.108534 0.108606 0.108679 0.108751 0.108824 0.108897 0.10897 0.109043 0.109116 
0.109189 0.109263 0.109336 0.109409 0.109483 0.109557 0.109631 0.109705 0.109779 
0.109853 0.109927 0.110002 0.110076 0.110151 0.110225 0.1103 0.110375 0.11045 
0.110525 0.110601 0.110676 0.110751 0.110827 0.110903 0.110978 0.111054 0.11113 
0.111207 0.111283 0.111359 0.111436 0.111512 0.111589 0.111666 0.111743 0.11182 
0.111897 0.111974 0.112052 0.112129 0.112207 0.107679 0.10775 0.107822 0.107893 
0.107965 0.108036 0.108108 0.10818 0.108251 0.108323 0.108396 0.108468 0.10854 
0.108612 0.108685 0.108758 0.10883 0.108903 0.108976 0.109049 0.109122 0.109195 
0.109269 0.109342 0.109416 0.109489 0.109563 0.109637 0.109711 0.109785 0.109859 
0.109933 0.110008 0.110082 0.110157 0.110232 0.110306 0.110381 0.110456 0.110532 
0.110607 0.110682 0.110758 0.110833 0.110909 0.110985 0.111061 0.111137 0.111213 
0.111289 0.111366 0.111442 0.111519 0.111595 0.111672 0.111749 0.111826 0.111903 
0.111981 0.112058 0.112136 0.112213 0.107685 0.107756 0.107828 0.107899 0.107971 
0.108042 0.108114 0.108186 0.108257 0.108329 0.108402 0.108474 0.108546 0.108618 
0.108691 0.108764 0.108836 0.108909 0.108982 0.109055 0.109128 0.109201 0.109275 
0.109348 0.109422 0.109495 0.109569 0.109643 0.109717 0.109791 0.109865 0.10994 
0.110014 0.110089 0.110163 0.110238 0.110313 0.110388 0.110463 0.110538 0.110613 
0.110689 0.110764 0.11084 0.110915 0.110991 0.111067 0.111143 0.111219 0.111296 
0.111372 0.111448 0.111525 0.111602 0.111679 0.111756 0.111833 0.11191 0.111987 
0.112064 0.112142 0.11222 0.107691 0.107762 0.107834 0.107905 0.107976 0.108048 
0.10812 0.108191 0.108263 0.108335 0.108408 0.10848 0.108552 0.108624 0.108697 
0.10877 0.108842 0.108915 0.108988 0.109061 0.109134 0.109207 0.109281 0.109354 
0.109428 0.109501 0.109575 0.109649 0.109723 0.109797 0.109871 0.109946 0.11002 
0.110095 0.110169 0.110244 0.110319 0.110394 0.110469 0.110544 0.110619 0.110695 
0.11077 0.110846 0.110922 0.110997 0.111073 0.111149 0.111226 0.111302 0.111378 
0.111455 0.111531 0.111608 0.111685 0.111762 0.111839 0.111916 0.111993 0.112071 
0.112148 0.112226 0.107697 0.107768 0.107839 0.107911 0.107982 0.108054 0.108126 
0.108197 0.108269 0.108341 0.108413 0.108486 0.108558 0.10863 0.108703 0.108776 
0.108848 0.108921 0.108994 0.109067 0.10914 0.109213 0.109287 0.10936 0.109434 
0.109508 0.109581 0.109655 0.109729 0.109803 0.109877 0.109952 0.110026 0.110101 
0.110175 0.11025 0.110325 0.1104 0.110475 0.11055 0.110626 0.110701 0.110776 
0.110852 0.110928 0.111004 0.11108 0.111156 0.111232 0.111308 0.111385 0.111461 
0.111538 0.111614 0.111691 0.111768 0.111845 0.111922 0.112 0.112077 0.112155 
0.112232 0.107703 0.107774 0.107845 0.107917 0.107988 0.10806 0.108131 0.108203 
0.108275 0.108347 0.108419 0.108491 0.108564 0.108636 0.108709 0.108781 0.108854 
0.108927 0.109 0.109073 0.109146 0.109219 0.109293 0.109366 0.10944 0.109513 
0.109587 0.109661 0.109735 0.109809 0.109884 0.109958 0.110032 0.110107 0.110181 
0.110256 0.110331 0.110406 0.110481 0.110556 0.110632 0.110707 0.110783 0.110858 
0.110934 0.11101 0.111086 0.111162 0.111238 0.111314 0.111391 0.111467 0.111544 
0.111621 0.111697 0.111774 0.111852 0.111929 0.112006 0.112083 0.112161 0.112239 
0.107708 0.10778 0.107851 0.107922 0.107994 0.108065 0.108137 0.108209 0.108281 
0.108353 0.108425 0.108497 0.10857 0.108642 0.108715 0.108787 0.10886 0.108933 
0.109006 0.109079 0.109152 0.109225 0.109299 0.109372 0.109446 0.109519 0.109593 
0.109667 0.109741 0.109815 0.109889 0.109964 0.110038 0.110113 0.110187 0.110262 
0.110337 0.110412 0.110487 0.110562 0.110638 0.110713 0.110789 0.110864 0.11094 
0.111016 0.111092 0.111168 0.111244 0.11132 0.111397 0.111473 0.11155 0.111627 
0.111704 0.111781 0.111858 0.111935 0.112012 0.11209 0.112167 0.112245 0.107714 
0.107785 0.107857 0.107928 0.107999 0.108071 0.108143 0.108215 0.108287 0.108359 
0.108431 0.108503 0.108575 0.108648 0.10872 0.108793 0.108866 0.108939 0.109012 
0.109085 0.109158 0.109231 0.109305 0.109378 0.109452 0.109525 0.109599 0.109673 
0.109747 0.109821 0.109895 0.10997 0.110044 0.110119 0.110193 0.110268 0.110343 
0.110418 0.110493 0.110568 0.110644 0.110719 0.110795 0.11087 0.110946 0.111022 
0.111098 0.111174 0.11125 0.111326 0.111403 0.111479 0.111556 0.111633 0.11171 
0.111787 0.111864 0.111941 0.112018 0.112096 0.112173 0.112251 0.10772 0.107791 
0.107862 0.107934 0.108005 0.108077 0.108149 0.10822 0.108292 0.108364 0.108436 
0.108509 0.108581 0.108654 0.108726 0.108799 0.108872 0.108944 0.109017 0.10909 
0.109164 0.109237 0.10931 0.109384 0.109457 0.109531 0.109605 0.109679 0.109753 
0.109827 0.109901 0.109976 0.11005 0.110125 0.110199 0.110274 0.110349 0.110424 
0.110499 0.110574 0.11065 0.110725 0.110801 0.110876 0.110952 0.111028 0.111104 
0.11118 0.111256 0.111333 0.111409 0.111485 0.111562 0.111639 0.111716 0.111793 
0.11187 0.111947 0.112025 0.112102 0.11218 0.112257 0.107725 0.107796 0.107868 
0.107939 0.108011 0.108082 0.108154 0.108226 0.108298 0.10837 0.108442 0.108514 
0.108587 0.108659 0.108732 0.108804 0.108877 0.10895 0.109023 0.109096 0.109169 
0.109243 0.109316 0.10939 0.109463 0.109537 0.109611 0.109685 0.109759 0.109833 
0.109907 0.109981 0.110056 0.11013 0.110205 0.11028 0.110355 0.11043 0.110505 
0.11058 0.110655 0.110731 0.110806 0.110882 0.110958 0.111034 0.11111 0.111186 
0.111262 0.111338 0.111415 0.111491 0.111568 0.111645 0.111722 0.111799 0.111876 
0.111953 0.112031 0.112108 0.112186 0.112263 0.107731 0.107802 0.107873 0.107945 
0.108016 0.108088 0.10816 0.108232 0.108303 0.108376 0.108448 0.10852 0.108592 
0.108665 0.108737 0.10881 0.108883 0.108956 0.109029 0.109102 0.109175 0.109248 
0.109322 0.109395 0.109469 0.109543 0.109616 0.10969 0.109764 0.109839 0.109913 
0.109987 0.110062 0.110136 0.110211 0.110286 0.110361 0.110436 0.110511 0.110586 
0.110661 0.110737 0.110812 0.110888 0.110964 0.11104 0.111116 0.111192 0.111268 
0.111344 0.111421 0.111497 0.111574 0.111651 0.111728 0.111805 0.111882 0.111959 
0.112037 0.112114 0.112192 0.112269 0.107736 0.107807 0.107879 0.10795 0.108022 
0.108093 0.108165 0.108237 0.108309 0.108381 0.108453 0.108526 0.108598 0.10867 
0.108743 0.108816 0.108888 0.108961 0.109034 0.109107 0.109181 0.109254 0.109327 
0.109401 0.109475 0.109548 0.109622 0.109696 0.10977 0.109844 0.109919 0.109993 
0.110067 0.110142 0.110217 0.110291 0.110366 0.110441 0.110517 0.110592 0.110667 
0.110743 0.110818 0.110894 0.11097 0.111046 0.111122 0.111198 0.111274 0.11135 
0.111427 0.111503 0.11158 0.111657 0.111734 0.111811 0.111888 0.111965 0.112042 
0.11212 0.112198 0.112275 0.107742 0.107813 0.107884 0.107956 0.108027 0.108099 
0.108171 0.108243 0.108314 0.108387 0.108459 0.108531 0.108603 0.108676 0.108748 
0.108821 0.108894 0.108967 0.10904 0.109113 0.109186 0.10926 0.109333 0.109406 
0.10948 0.109554 0.109628 0.109702 0.109776 0.10985 0.109924 0.109999 0.110073 
0.110148 0.110222 0.110297 0.110372 0.110447 0.110522 0.110597 0.110673 0.110748 
0.110824 0.1109 0.110975 0.111051 0.111127 0.111203 0.11128 0.111356 0.111433 
0.111509 0.111586 0.111663 0.11174 0.111817 0.111894 0.111971 0.112048 0.112126 
0.112203 0.112281 0.107747 0.107818 0.10789 0.107961 0.108033 0.108104 0.108176 
0.108248 0.10832 0.108392 0.108464 0.108536 0.108609 0.108681 0.108754 0.108827 
0.108899 0.108972 0.109045 0.109119 0.109192 0.109265 0.109338 0.109412 0.109486 
0.109559 0.109633 0.109707 0.109781 0.109855 0.10993 0.110004 0.110079 0.110153 
0.110228 0.110303 0.110378 0.110453 0.110528 0.110603 0.110679 0.110754 0.11083 
0.110905 0.110981 0.111057 0.111133 0.111209 0.111285 0.111362 0.111438 0.111515 
0.111592 0.111668 0.111745 0.111822 0.111899 0.111977 0.112054 0.112132 0.112209 
0.112287 0.107752 0.107824 0.107895 0.107966 0.108038 0.10811 0.108181 0.108253 
0.108325 0.108397 0.10847 0.108542 0.108614 0.108687 0.108759 0.108832 0.108905 
0.108978 0.109051 0.109124 0.109197 0.109271 0.109344 0.109418 0.109491 0.109565 
0.109639 0.109713 0.109787 0.109861 0.109935 0.11001 0.110084 0.110159 0.110234 
0.110308 0.110383 0.110458 0.110533 0.110609 0.110684 0.11076 0.110835 0.110911 
0.110987 0.111063 0.111139 0.111215 0.111291 0.111367 0.111444 0.111521 0.111597 
0.111674 0.111751 0.111828 0.111905 0.111983 0.11206 0.112137 0.112215 0.112293 
0.107757 0.107829 0.1079 0.107972 0.108043 0.108115 0.108187 0.108259 0.108331 
0.108403 0.108475 0.108547 0.10862 0.108692 0.108765 0.108837 0.10891 0.108983 
0.109056 0.109129 0.109203 0.109276 0.109349 0.109423 0.109497 0.10957 0.109644 
0.109718 0.109792 0.109866 0.109941 0.110015 0.11009 0.110164 0.110239 0.110314 
0.110389 0.110464 0.110539 0.110614 0.11069 0.110765 0.110841 0.110916 0.110992 
0.111068 0.111144 0.11122 0.111297 0.111373 0.11145 0.111526 0.111603 0.11168 
0.111757 0.111834 0.111911 0.111988 0.112066 0.112143 0.112221 0.112298 0.107763 
0.107834 0.107905 0.107977 0.108048 0.10812 0.108192 0.108264 0.108336 0.108408 
0.10848 0.108553 0.108625 0.108697 0.10877 0.108843 0.108916 0.108989 0.109062 
0.109135 0.109208 0.109281 0.109355 0.109428 0.109502 0.109576 0.10965 0.109724 
0.109798 0.109872 0.109946 0.110021 0.110095 0.11017 0.110244 0.110319 0.110394 
0.110469 0.110545 0.11062 0.110695 0.110771 0.110846 0.110922 0.110998 0.111074 
0.11115 0.111226 0.111302 0.111379 0.111455 0.111532 0.111609 0.111685 0.111762 
0.111839 0.111917 0.111994 0.112071 0.112149 0.112226 0.112304 0.107768 0.107839 
0.107911 0.107982 0.108054 0.108125 0.108197 0.108269 0.108341 0.108413 0.108485 
0.108558 0.10863 0.108703 0.108775 0.108848 0.108921 0.108994 0.109067 0.10914 
0.109213 0.109287 0.10936 0.109434 0.109507 0.109581 0.109655 0.109729 0.109803 
0.109877 0.109952 0.110026 0.110101 0.110175 0.11025 0.110325 0.1104 0.110475 
0.11055 0.110625 0.110701 0.110776 0.110852 0.110927 0.111003 0.111079 0.111155 
0.111232 0.111308 0.111384 0.111461 0.111537 0.111614 0.111691 0.111768 0.111845 
0.111922 0.111999 0.112077 0.112154 0.112232 0.11231 0.107773 0.107844 0.107916 
0.107987 0.108059 0.108131 0.108202 0.108274 0.108346 0.108418 0.108491 0.108563 
0.108635 0.108708 0.108781 0.108853 0.108926 0.108999 0.109072 0.109145 0.109219 
0.109292 0.109365 0.109439 0.109513 0.109586 0.10966 0.109734 0.109808 0.109883 
0.109957 0.110031 0.110106 0.110181 0.110255 0.11033 0.110405 0.11048 0.110555 
0.110631 0.110706 0.110782 0.110857 0.110933 0.111009 0.111085 0.111161 0.111237 
0.111313 0.11139 0.111466 0.111543 0.11162 0.111696 0.111773 0.11185 0.111928 
0.112005 0.112082 0.11216 0.112238 0.112315 0.107778 0.107849 0.107921 0.107992 
0.108064 0.108136 0.108207 0.108279 0.108351 0.108424 0.108496 0.108568 0.108641 
0.108713 0.108786 0.108858 0.108931 0.109004 0.109077 0.10915 0.109224 0.109297 
0.109371 0.109444 0.109518 0.109592 0.109666 0.10974 0.109814 0.109888 0.109962 
0.110037 0.110111 0.110186 0.110261 0.110335 0.11041 0.110485 0.110561 0.110636 
0.110711 0.110787 0.110863 0.110938 0.111014 0.11109 0.111166 0.111242 0.111319 
0.111395 0.111472 0.111548 0.111625 0.111702 0.111779 0.111856 0.111933 0.11201 
0.112088 0.112165 0.112243 0.112321 0.107783 0.107854 0.107926 0.107997 0.108069 
0.108141 0.108213 0.108284 0.108356 0.108429 0.108501 0.108573 0.108646 0.108718 
0.108791 0.108864 0.108936 0.109009 0.109082 0.109156 0.109229 0.109302 0.109376 
0.109449 0.109523 0.109597 0.109671 0.109745 0.109819 0.109893 0.109967 0.110042 
0.110116 0.110191 0.110266 0.110341 0.110416 0.110491 0.110566 0.110641 0.110717 
0.110792 0.110868 0.110944 0.111019 0.111095 0.111172 0.111248 0.111324 0.1114 
0.111477 0.111554 0.11163 0.111707 0.111784 0.111861 0.111938 0.112016 0.112093 
0.112171 0.112248 0.112326 0.107788 0.107859 0.107931 0.108002 0.108074 0.108146 
0.108218 0.108289 0.108362 0.108434 0.108506 0.108578 0.108651 0.108723 0.108796 
0.108869 0.108942 0.109014 0.109088 0.109161 0.109234 0.109307 0.109381 0.109454 
0.109528 0.109602 0.109676 0.10975 0.109824 0.109898 0.109973 0.110047 0.110122 
0.110196 0.110271 0.110346 0.110421 0.110496 0.110571 0.110646 0.110722 0.110797 
0.110873 0.110949 0.111025 0.111101 0.111177 0.111253 0.111329 0.111406 0.111482 
0.111559 0.111636 0.111713 0.11179 0.111867 0.111944 0.112021 0.112099 0.112176 
0.112254 0.112332 0.107793 0.107864 0.107936 0.108007 0.108079 0.108151 0.108223 
0.108294 0.108366 0.108439 0.108511 0.108583 0.108656 0.108728 0.108801 0.108874 
0.108947 0.10902 0.109093 0.109166 0.109239 0.109312 0.109386 0.10946 0.109533 
0.109607 0.109681 0.109755 0.109829 0.109903 0.109978 0.110052 0.110127 0.110201 
0.110276 0.110351 0.110426 0.110501 0.110576 0.110652 0.110727 0.110803 0.110878 
0.110954 0.11103 0.111106 0.111182 0.111258 0.111335 0.111411 0.111488 0.111564 
0.111641 0.111718 0.111795 0.111872 0.111949 0.112026 0.112104 0.112181 0.112259 
0.112337 0.107798 0.107869 0.107941 0.108012 0.108084 0.108156 0.108227 0.108299 
0.108371 0.108444 0.108516 0.108588 0.108661 0.108733 0.108806 0.108879 0.108952 
0.109024 0.109098 0.109171 0.109244 0.109317 0.109391 0.109465 0.109538 0.109612 
0.109686 0.10976 0.109834 0.109908 0.109983 0.110057 0.110132 0.110206 0.110281 
0.110356 0.110431 0.110506 0.110581 0.110657 0.110732 0.110808 0.110883 0.110959 
0.111035 0.111111 0.111187 0.111263 0.11134 0.111416 0.111493 0.111569 0.111646 
0.111723 0.1118 0.111877 0.111954 0.112032 0.112109 0.112187 0.112264 0.112342 
0.107803 0.107874 0.107945 0.108017 0.108089 0.10816 0.108232 0.108304 0.108376 
0.108448 0.108521 0.108593 0.108666 0.108738 0.108811 0.108884 0.108956 0.109029 
0.109103 0.109176 0.109249 0.109322 0.109396 0.10947 0.109543 0.109617 0.109691 
0.109765 0.109839 0.109913 0.109988 0.110062 0.110137 0.110211 0.110286 0.110361 
0.110436 0.110511 0.110587 0.110662 0.110737 0.110813 0.110889 0.110964 0.11104 
0.111116 0.111192 0.111269 0.111345 0.111421 0.111498 0.111575 0.111651 0.111728 
0.111805 0.111882 0.11196 0.112037 0.112114 0.112192 0.11227 0.112347 0.107807 
0.107879 0.10795 0.108022 0.108093 0.108165 0.108237 0.108309 0.108381 0.108453 
0.108526 0.108598 0.10867 0.108743 0.108816 0.108888 0.108961 0.109034 0.109107 
0.109181 0.109254 0.109327 0.109401 0.109474 0.109548 0.109622 0.109696 0.10977 
0.109844 0.109918 0.109993 0.110067 0.110142 0.110216 0.110291 0.110366 0.110441 
0.110516 0.110592 0.110667 0.110742 0.110818 0.110894 0.110969 0.111045 0.111121 
0.111197 0.111274 0.11135 0.111426 0.111503 0.11158 0.111656 0.111733 0.11181 
0.111887 0.111965 0.112042 0.112119 0.112197 0.112275 0.112353 0.107812 0.107884 
0.107955 0.108027 0.108098 0.10817 0.108242 0.108314 0.108386 0.108458 0.10853 
0.108603 0.108675 0.108748 0.10882 0.108893 0.108966 0.109039 0.109112 0.109185 
0.109259 0.109332 0.109406 0.109479 0.109553 0.109627 0.109701 0.109775 0.109849 
0.109923 0.109998 0.110072 0.110147 0.110221 0.110296 0.110371 0.110446 0.110521 
0.110596 0.110672 0.110747 0.110823 0.110899 0.110974 0.11105 0.111126 0.111202 
0.111279 0.111355 0.111431 0.111508 0.111585 0.111661 0.111738 0.111815 0.111892 
0.11197 0.112047 0.112125 0.112202 0.11228 0.112358 0.107817 0.107888 0.10796 
0.108031 0.108103 0.108175 0.108247 0.108319 0.108391 0.108463 0.108535 0.108607 
0.10868 0.108753 0.108825 0.108898 0.108971 0.109044 0.109117 0.10919 0.109264 
0.109337 0.10941 0.109484 0.109558 0.109632 0.109706 0.10978 0.109854 0.109928 
0.110002 0.110077 0.110152 0.110226 0.110301 0.110376 0.110451 0.110526 0.110601 
0.110677 0.110752 0.110828 0.110903 0.110979 0.111055 0.111131 0.111207 0.111284 
0.11136 0.111436 0.111513 0.11159 0.111666 0.111743 0.11182 0.111897 0.111975 
0.112052 0.11213 0.112207 0.112285 0.112363 0.107821 0.107893 0.107964 0.108036 
0.108108 0.108179 0.108251 0.108323 0.108395 0.108467 0.10854 0.108612 0.108685 
0.108757 0.10883 0.108903 0.108976 0.109049 0.109122 0.109195 0.109268 0.109342 
0.109415 0.109489 0.109563 0.109636 0.10971 0.109784 0.109859 0.109933 0.110007 
0.110082 0.110156 0.110231 0.110306 0.110381 0.110456 0.110531 0.110606 0.110682 
0.110757 0.110833 0.110908 0.110984 0.11106 0.111136 0.111212 0.111288 0.111365 
0.111441 0.111518 0.111595 0.111671 0.111748 0.111825 0.111902 0.11198 0.112057 
0.112135 0.112212 0.11229 0.112368 0.107826 0.107897 0.107969 0.10804 0.108112 
0.108184 0.108256 0.108328 0.1084 0.108472 0.108544 0.108617 0.108689 0.108762 
0.108835 0.108907 0.10898 0.109053 0.109126 0.1092 0.109273 0.109346 0.10942 
0.109494 0.109567 0.109641 0.109715 0.109789 0.109863 0.109938 0.110012 0.110087 
0.110161 0.110236 0.110311 0.110386 0.110461 0.110536 0.110611 0.110686 0.110762 
0.110837 0.110913 0.110989 0.111065 0.111141 0.111217 0.111293 0.11137 0.111446 
0.111523 0.111599 0.111676 0.111753 0.11183 0.111907 0.111985 0.112062 0.112139 
0.112217 0.112295 0.112373 0.107831 0.107902 0.107973 0.108045 0.108117 0.108188 
0.10826 0.108332 0.108404 0.108477 0.108549 0.108621 0.108694 0.108766 0.108839 
0.108912 0.108985 0.109058 0.109131 0.109204 0.109278 0.109351 0.109425 0.109498 
0.109572 0.109646 0.10972 0.109794 0.109868 0.109942 0.110017 0.110091 0.110166 
0.110241 0.110315 0.11039 0.110465 0.110541 0.110616 0.110691 0.110767 0.110842 
0.110918 0.110994 0.11107 0.111146 0.111222 0.111298 0.111374 0.111451 0.111528 
0.111604 0.111681 0.111758 0.111835 0.111912 0.111989 0.112067 0.112144 0.112222 
0.1123 0.112377 0.107835 0.107906 0.107978 0.10805 0.108121 0.108193 0.108265 
0.108337 0.108409 0.108481 0.108553 0.108626 0.108698 0.108771 0.108844 0.108917 
0.108989 0.109062 0.109136 0.109209 0.109282 0.109356 0.109429 0.109503 0.109577 
0.10965 0.109724 0.109798 0.109873 0.109947 0.110021 0.110096 0.11017 0.110245 
0.11032 0.110395 0.11047 0.110545 0.11062 0.110696 0.110771 0.110847 0.110923 
0.110998 0.111074 0.11115 0.111227 0.111303 0.111379 0.111456 0.111532 0.111609 
0.111686 0.111763 0.11184 0.111917 0.111994 0.112072 0.112149 0.112227 0.112304 
0.112382 0.107839 0.107911 0.107982 0.108054 0.108126 0.108197 0.108269 0.108341 
0.108413 0.108486 0.108558 0.10863 0.108703 0.108775 0.108848 0.108921 0.108994 
0.109067 0.10914 0.109213 0.109287 0.10936 0.109434 0.109507 0.109581 0.109655 
0.109729 0.109803 0.109877 0.109952 0.110026 0.1101 0.110175 0.11025 0.110325 
0.1104 0.110475 0.11055 0.110625 0.1107 0.110776 0.110852 0.110927 0.111003 
0.111079 0.111155 0.111231 0.111307 0.111384 0.11146 0.111537 0.111614 0.11169 
0.111767 0.111844 0.111922 0.111999 0.112076 0.112154 0.112231 0.112309 0.112387 
0.107844 0.107915 0.107987 0.108058 0.10813 0.108202 0.108274 0.108346 0.108418 
0.10849 0.108562 0.108635 0.108707 0.10878 0.108853 0.108925 0.108998 0.109071 
0.109145 0.109218 0.109291 0.109365 0.109438 0.109512 0.109586 0.10966 0.109733 
0.109808 0.109882 0.109956 0.11003 0.110105 0.11018 0.110254 0.110329 0.110404 
0.110479 0.110554 0.11063 0.110705 0.110781 0.110856 0.110932 0.111008 0.111084 
0.11116 0.111236 0.111312 0.111388 0.111465 0.111542 0.111618 0.111695 0.111772 
0.111849 0.111926 0.112004 0.112081 0.112159 0.112236 0.112314 0.112392 0.107848 
0.10792 0.107991 0.108063 0.108134 0.108206 0.108278 0.10835 0.108422 0.108494 
0.108567 0.108639 0.108712 0.108784 0.108857 0.10893 0.109003 0.109076 0.109149 
0.109222 0.109296 0.109369 0.109443 0.109516 0.10959 0.109664 0.109738 0.109812 
0.109886 0.109961 0.110035 0.110109 0.110184 0.110259 0.110334 0.110409 0.110484 
0.110559 0.110634 0.11071 0.110785 0.110861 0.110936 0.111012 0.111088 0.111164 
0.11124 0.111317 0.111393 0.11147 0.111546 0.111623 0.1117 0.111777 0.111854 
0.111931 0.112008 0.112086 0.112163 0.112241 0.112319 0.112396 0.107852 0.107924 
0.107995 0.108067 0.108139 0.108211 0.108282 0.108354 0.108427 0.108499 0.108571 
0.108644 0.108716 0.108789 0.108861 0.108934 0.109007 0.10908 0.109153 0.109227 
0.1093 0.109373 0.109447 0.109521 0.109594 0.109668 0.109742 0.109816 0.109891 
0.109965 0.110039 0.110114 0.110189 0.110263 0.110338 0.110413 0.110488 0.110563 
0.110639 0.110714 0.11079 0.110865 0.110941 0.111017 0.111093 0.111169 0.111245 
0.111321 0.111398 0.111474 0.111551 0.111627 0.111704 0.111781 0.111858 0.111935 
0.112013 0.11209 0.112168 0.112245 0.112323 0.112401 0.107857 0.107928 0.108 
0.108071 0.108143 0.108215 0.108287 0.108359 0.108431 0.108503 0.108575 0.108648 
0.10872 0.108793 0.108866 0.108939 0.109011 0.109085 0.109158 0.109231 0.109304 
0.109378 0.109451 0.109525 0.109599 0.109673 0.109747 0.109821 0.109895 0.109969 
0.110044 0.110118 0.110193 0.110268 0.110343 0.110418 0.110493 0.110568 0.110643 
0.110718 0.110794 0.11087 0.110945 0.111021 0.111097 0.111173 0.111249 0.111326 
0.111402 0.111479 0.111555 0.111632 0.111709 0.111786 0.111863 0.11194 0.112017 
0.112095 0.112172 0.11225 0.112328 0.112406 0.107861 0.107932 0.108004 0.108075 
0.108147 0.108219 0.108291 0.108363 0.108435 0.108507 0.10858 0.108652 0.108725 
0.108797 0.10887 0.108943 0.109016 0.109089 0.109162 0.109235 0.109309 0.109382 
0.109456 0.109529 0.109603 0.109677 0.109751 0.109825 0.109899 0.109974 0.110048 
0.110123 0.110197 0.110272 0.110347 0.110422 0.110497 0.110572 0.110647 0.110723 
0.110798 0.110874 0.11095 0.111026 0.111102 0.111178 0.111254 0.11133 0.111406 
0.111483 0.11156 0.111636 0.111713 0.11179 0.111867 0.111944 0.112022 0.112099 
0.112177 0.112254 0.112332 0.11241 0.107865 0.107936 0.108008 0.10808 0.108151 
0.108223 0.108295 0.108367 0.108439 0.108511 0.108584 0.108656 0.108729 0.108801 
0.108874 0.108947 0.10902 0.109093 0.109166 0.109239 0.109313 0.109386 0.10946 
0.109534 0.109607 0.109681 0.109755 0.109829 0.109904 0.109978 0.110052 0.110127 
0.110202 0.110276 0.110351 0.110426 0.110501 0.110576 0.110652 0.110727 0.110803 
0.110878 0.110954 0.11103 0.111106 0.111182 0.111258 0.111334 0.111411 0.111487 
0.111564 0.111641 0.111718 0.111795 0.111872 0.111949 0.112026 0.112104 0.112181 
0.112259 0.112337 0.112414 0.107869 0.107941 0.108012 0.108084 0.108155 0.108227 
0.108299 0.108371 0.108443 0.108516 0.108588 0.10866 0.108733 0.108806 0.108878 
0.108951 0.109024 0.109097 0.10917 0.109244 0.109317 0.10939 0.109464 0.109538 
0.109612 0.109685 0.109759 0.109834 0.109908 0.109982 0.110057 0.110131 0.110206 
0.110281 0.110355 0.11043 0.110505 0.110581 0.110656 0.110731 0.110807 0.110883 
0.110958 0.111034 0.11111 0.111186 0.111262 0.111339 0.111415 0.111492 0.111568 
0.111645 0.111722 0.111799 0.111876 0.111953 0.11203 0.112108 0.112185 0.112263 
0.112341 0.112419 0.107873 0.107945 0.108016 0.108088 0.108159 0.108231 0.108303 
0.108375 0.108447 0.10852 0.108592 0.108664 0.108737 0.10881 0.108882 0.108955 
0.109028 0.109101 0.109174 0.109248 0.109321 0.109395 0.109468 0.109542 0.109616 
0.10969 0.109764 0.109838 0.109912 0.109986 0.110061 0.110135 0.11021 0.110285 
0.11036 0.110435 0.11051 0.110585 0.11066 0.110736 0.110811 0.110887 0.110963 
0.111038 0.111114 0.11119 0.111267 0.111343 0.111419 0.111496 0.111573 0.111649 
0.111726 0.111803 0.11188 0.111957 0.112035 0.112112 0.11219 0.112267 0.112345 
0.112423 0.107877 0.107949 0.10802 0.108092 0.108163 0.108235 0.108307 0.108379 
0.108451 0.108524 0.108596 0.108668 0.108741 0.108814 0.108886 0.108959 0.109032 
0.109105 0.109179 0.109252 0.109325 0.109399 0.109472 0.109546 0.10962 0.109694 
0.109768 0.109842 0.109916 0.10999 0.110065 0.110139 0.110214 0.110289 0.110364 
0.110439 0.110514 0.110589 0.110664 0.11074 0.110815 0.110891 0.110967 0.111043 
0.111119 0.111195 0.111271 0.111347 0.111424 0.1115 0.111577 0.111653 0.11173 
0.111807 0.111884 0.111962 0.112039 0.112116 0.112194 0.112272 0.112349 0.112427 
0.107881 0.107952 0.108024 0.108096 0.108167 0.108239 0.108311 0.108383 0.108455 
0.108528 0.1086 0.108672 0.108745 0.108818 0.10889 0.108963 0.109036 0.109109 
0.109183 0.109256 0.109329 0.109403 0.109476 0.10955 0.109624 0.109698 0.109772 
0.109846 0.10992 0.109994 0.110069 0.110143 0.110218 0.110293 0.110368 0.110443 
0.110518 0.110593 0.110668 0.110744 0.110819 0.110895 0.110971 0.111047 0.111123 
0.111199 0.111275 0.111351 0.111428 0.111504 0.111581 0.111658 0.111734 0.111811 
0.111889 0.111966 0.112043 0.112121 0.112198 0.112276 0.112354 0.112431 0.107885 
0.107956 0.108028 0.1081 0.108171 0.108243 0.108315 0.108387 0.108459 0.108532 
0.108604 0.108676 0.108749 0.108822 0.108894 0.108967 0.10904 0.109113 0.109186 
0.10926 0.109333 0.109407 0.10948 0.109554 0.109628 0.109702 0.109776 0.10985 
0.109924 0.109998 0.110073 0.110147 0.110222 0.110297 0.110372 0.110447 0.110522 
0.110597 0.110672 0.110748 0.110823 0.110899 0.110975 0.111051 0.111127 0.111203 
0.111279 0.111355 0.111432 0.111508 0.111585 0.111662 0.111739 0.111816 0.111893 
0.11197 0.112047 0.112125 0.112202 0.11228 0.112358 0.112436 0.107889 0.10796 
0.108032 0.108103 0.108175 0.108247 0.108319 0.108391 0.108463 0.108535 0.108608 
0.10868 0.108753 0.108825 0.108898 0.108971 0.109044 0.109117 0.10919 0.109264 
0.109337 0.109411 0.109484 0.109558 0.109632 0.109706 0.10978 0.109854 0.109928 
0.110002 0.110077 0.110151 0.110226 0.110301 0.110376 0.110451 0.110526 0.110601 
0.110676 0.110752 0.110827 0.110903 0.110979 0.111055 0.111131 0.111207 0.111283 
0.111359 0.111436 0.111512 0.111589 0.111666 0.111743 0.11182 0.111897 0.111974 
0.112051 0.112129 0.112206 0.112284 0.112362 0.11244 0.107893 0.107964 0.108036 
0.108107 0.108179 0.108251 0.108323 0.108395 0.108467 0.108539 0.108612 0.108684 
0.108757 0.108829 0.108902 0.108975 0.109048 0.109121 0.109194 0.109268 0.109341 
0.109414 0.109488 0.109562 0.109636 0.10971 0.109784 0.109858 0.109932 0.110006 
0.110081 0.110155 0.11023 0.110305 0.11038 0.110455 0.11053 0.110605 0.11068 
0.110756 0.110831 0.110907 0.110983 0.111059 0.111135 0.111211 0.111287 0.111363 
0.11144 0.111516 0.111593 0.11167 0.111747 0.111824 0.111901 0.111978 0.112055 
0.112133 0.11221 0.112288 0.112366 0.112444 0.107896 0.107968 0.108039 0.108111 
0.108183 0.108255 0.108326 0.108399 0.108471 0.108543 0.108615 0.108688 0.10876 
0.108833 0.108906 0.108979 0.109052 0.109125 0.109198 0.109271 0.109345 0.109418 
0.109492 0.109566 0.109639 0.109713 0.109787 0.109862 0.109936 0.11001 0.110085 
0.110159 0.110234 0.110309 0.110384 0.110459 0.110534 0.110609 0.110684 0.11076 
0.110835 0.110911 0.110987 0.111063 0.111139 0.111215 0.111291 0.111367 0.111444 
0.11152 0.111597 0.111674 0.111751 0.111828 0.111905 0.111982 0.112059 0.112137 
0.112214 0.112292 0.11237 0.112448 0.1079 0.107971 0.108043 0.108115 0.108186 
0.108258 0.10833 0.108402 0.108474 0.108547 0.108619 0.108692 0.108764 0.108837 
0.10891 0.108982 0.109055 0.109129 0.109202 0.109275 0.109348 0.109422 0.109496 
0.109569 0.109643 0.109717 0.109791 0.109865 0.10994 0.110014 0.110088 0.110163 
0.110238 0.110312 0.110387 0.110462 0.110537 0.110613 0.110688 0.110763 0.110839 
0.110915 0.11099 0.111066 0.111142 0.111218 0.111295 0.111371 0.111447 0.111524 
0.111601 0.111677 0.111754 0.111831 0.111909 0.111986 0.112063 0.112141 0.112218 
0.112296 0.112374 0.112452 0.107904 0.107975 0.108047 0.108118 0.10819 0.108262 
0.108334 0.108406 0.108478 0.10855 0.108623 0.108695 0.108768 0.10884 0.108913 
0.108986 0.109059 0.109132 0.109205 0.109279 0.109352 0.109426 0.109499 0.109573 
0.109647 0.109721 0.109795 0.109869 0.109943 0.110018 0.110092 0.110167 0.110241 
0.110316 0.110391 0.110466 0.110541 0.110616 0.110692 0.110767 0.110843 0.110918 
0.110994 0.11107 0.111146 0.111222 0.111299 0.111375 0.111451 0.111528 0.111605 
0.111681 0.111758 0.111835 0.111912 0.11199 0.112067 0.112144 0.112222 0.1123 
0.112377 0.112455 0.107907 0.107979 0.10805 0.108122 0.108194 0.108265 0.108337 
0.10841 0.108482 0.108554 0.108626 0.108699 0.108771 0.108844 0.108917 0.10899 
0.109063 0.109136 0.109209 0.109282 0.109356 0.109429 0.109503 0.109577 0.109651 
0.109724 0.109799 0.109873 0.109947 0.110021 0.110096 0.11017 0.110245 0.11032 
0.110395 0.11047 0.110545 0.11062 0.110696 0.110771 0.110847 0.110922 0.110998 
0.111074 0.11115 0.111226 0.111302 0.111379 0.111455 0.111532 0.111608 0.111685 
0.111762 0.111839 0.111916 0.111993 0.112071 0.112148 0.112226 0.112303 0.112381 
0.112459 0.107911 0.107982 0.108054 0.108125 0.108197 0.108269 0.108341 0.108413 
0.108485 0.108558 0.10863 0.108702 0.108775 0.108848 0.10892 0.108993 0.109066 