# vtk DataFile Version 4.0
vtk output
ASCII
DATASET STRUCTURED_POINTS
DIMENSIONS 62 62 62
SPACING 0.05 0.05 0.05
ORIGIN -1.525 -1.525 -1.525
POINT_DATA 238328
FIELD FieldData 1
potential 1 238328 double
0.0282477 0.0282515 0.0282553 0.028259 0.0282628 0.0282666 0.0282703 0.0282741 0.0282778 
0.0282816 0.0282853 0.028289 0.0282927 0.0282964 0.0283001 0.0283038 0.0283075 0.0283112 
0.0283149 0.0283186 0.0283222 0.0283259 0.0283295 0.0283332 0.0283368 0.0283404 0.0283441 
0.0283477 0.0283513 0.0283549 0.0283585 0.0283621 0.0283657 0.0283692 0.0283728 0.0283764 
0.0283799 0.0283835 0.028387 0.0283905 0.0283941 0.0283976 0.0284011 0.0284046 0.0284081 
0.0284116 0.0284151 0.0284186 0.028422 0.0284255 0.028429 0.0284324 0.0284359 0.0284393 
0.0284427 0.0284462 0.0284496 0.028453 0.0284564 0.0284598 0.0284632 0.0284665 0.028246 
0.0282497 0.0282535 0.0282573 0.0282611 0.0282648 0.0282686 0.0282723 0.0282761 0.0282798 
0.0282835 0.0282873 0.028291 0.0282947 0.0282984 0.0283021 0.0283058 0.0283094 0.0283131 
0.0283168 0.0283204 0.0283241 0.0283278 0.0283314 0.028335 0.0283387 0.0283423 0.0283459 
0.0283495 0.0283531 0.0283567 0.0283603 0.0283639 0.0283674 0.028371 0.0283746 0.0283781 
0.0283817 0.0283852 0.0283887 0.0283923 0.0283958 0.0283993 0.0284028 0.0284063 0.0284098 
0.0284133 0.0284167 0.0284202 0.0284237 0.0284271 0.0284306 0.028434 0.0284375 0.0284409 
0.0284443 0.0284477 0.0284511 0.0284545 0.0284579 0.0284613 0.0284647 0.0282442 0.028248 
0.0282518 0.0282555 0.0282593 0.0282631 0.0282668 0.0282706 0.0282743 0.028278 0.0282818 
0.0282855 0.0282892 0.0282929 0.0282966 0.0283003 0.028304 0.0283077 0.0283113 0.028315 
0.0283187 0.0283223 0.028326 0.0283296 0.0283332 0.0283369 0.0283405 0.0283441 0.0283477 
0.0283513 0.0283549 0.0283585 0.0283621 0.0283656 0.0283692 0.0283727 0.0283763 0.0283798 
0.0283834 0.0283869 0.0283904 0.028394 0.0283975 0.028401 0.0284045 0.028408 0.0284114 
0.0284149 0.0284184 0.0284218 0.0284253 0.0284287 0.0284322 0.0284356 0.028439 0.0284425 
0.0284459 0.0284493 0.0284527 0.0284561 0.0284594 0.0284628 0.0282425 0.0282462 0.02825 
0.0282538 0.0282575 0.0282613 0.0282651 0.0282688 0.0282725 0.0282763 0.02828 0.0282837 
0.0282874 0.0282911 0.0282948 0.0282985 0.0283022 0.0283059 0.0283095 0.0283132 0.0283169 
0.0283205 0.0283242 0.0283278 0.0283314 0.0283351 0.0283387 0.0283423 0.0283459 0.0283495 
0.0283531 0.0283567 0.0283602 0.0283638 0.0283674 0.0283709 0.0283745 0.028378 0.0283816 
0.0283851 0.0283886 0.0283921 0.0283956 0.0283991 0.0284026 0.0284061 0.0284096 0.0284131 
0.0284165 0.02842 0.0284234 0.0284269 0.0284303 0.0284338 0.0284372 0.0284406 0.028444 
0.0284474 0.0284508 0.0284542 0.0284576 0.0284609 0.0282407 0.0282445 0.0282482 0.028252 
0.0282558 0.0282595 0.0282633 0.028267 0.0282708 0.0282745 0.0282782 0.0282819 0.0282856 
0.0282893 0.028293 0.0282967 0.0283004 0.0283041 0.0283078 0.0283114 0.0283151 0.0283187 
0.0283224 0.028326 0.0283296 0.0283332 0.0283369 0.0283405 0.0283441 0.0283477 0.0283513 
0.0283548 0.0283584 0.028362 0.0283655 0.0283691 0.0283726 0.0283762 0.0283797 0.0283832 
0.0283868 0.0283903 0.0283938 0.0283973 0.0284008 0.0284043 0.0284077 0.0284112 0.0284147 
0.0284181 0.0284216 0.028425 0.0284285 0.0284319 0.0284353 0.0284387 0.0284421 0.0284455 
0.0284489 0.0284523 0.0284557 0.0284591 0.0282389 0.0282427 0.0282465 0.0282502 0.028254 
0.0282578 0.0282615 0.0282652 0.028269 0.0282727 0.0282764 0.0282801 0.0282838 0.0282875 
0.0282912 0.0282949 0.0282986 0.0283023 0.0283059 0.0283096 0.0283133 0.0283169 0.0283206 
0.0283242 0.0283278 0.0283314 0.028335 0.0283387 0.0283423 0.0283458 0.0283494 0.028353 
0.0283566 0.0283602 0.0283637 0.0283673 0.0283708 0.0283743 0.0283779 0.0283814 0.0283849 
0.0283884 0.0283919 0.0283954 0.0283989 0.0284024 0.0284059 0.0284094 0.0284128 0.0284163 
0.0284197 0.0284232 0.0284266 0.02843 0.0284334 0.0284369 0.0284403 0.0284437 0.0284471 
0.0284504 0.0284538 0.0284572 0.0282371 0.0282409 0.0282447 0.0282485 0.0282522 0.028256 
0.0282597 0.0282635 0.0282672 0.0282709 0.0282746 0.0282783 0.028282 0.0282857 0.0282894 
0.0282931 0.0282968 0.0283005 0.0283041 0.0283078 0.0283114 0.0283151 0.0283187 0.0283224 
0.028326 0.0283296 0.0283332 0.0283368 0.0283404 0.028344 0.0283476 0.0283512 0.0283548 
0.0283583 0.0283619 0.0283654 0.028369 0.0283725 0.028376 0.0283796 0.0283831 0.0283866 
0.0283901 0.0283936 0.0283971 0.0284005 0.028404 0.0284075 0.028411 0.0284144 0.0284179 
0.0284213 0.0284247 0.0284281 0.0284316 0.028435 0.0284384 0.0284418 0.0284452 0.0284485 
0.0284519 0.0284553 0.0282354 0.0282391 0.0282429 0.0282467 0.0282504 0.0282542 0.0282579 
0.0282617 0.0282654 0.0282691 0.0282728 0.0282765 0.0282802 0.0282839 0.0282876 0.0282913 
0.028295 0.0282987 0.0283023 0.028306 0.0283096 0.0283133 0.0283169 0.0283205 0.0283242 
0.0283278 0.0283314 0.028335 0.0283386 0.0283422 0.0283458 0.0283493 0.0283529 0.0283565 
0.02836 0.0283636 0.0283671 0.0283707 0.0283742 0.0283777 0.0283812 0.0283847 0.0283882 
0.0283917 0.0283952 0.0283987 0.0284022 0.0284056 0.0284091 0.0284125 0.028416 0.0284194 
0.0284228 0.0284263 0.0284297 0.0284331 0.0284365 0.0284399 0.0284433 0.0284467 0.02845 
0.0284534 0.0282336 0.0282373 0.0282411 0.0282449 0.0282486 0.0282524 0.0282561 0.0282599 
0.0282636 0.0282673 0.028271 0.0282747 0.0282784 0.0282821 0.0282858 0.0282895 0.0282932 
0.0282968 0.0283005 0.0283042 0.0283078 0.0283114 0.0283151 0.0283187 0.0283223 0.0283259 
0.0283295 0.0283332 0.0283367 0.0283403 0.0283439 0.0283475 0.0283511 0.0283546 0.0283582 
0.0283617 0.0283653 0.0283688 0.0283723 0.0283758 0.0283793 0.0283829 0.0283864 0.0283898 
0.0283933 0.0283968 0.0284003 0.0284037 0.0284072 0.0284106 0.0284141 0.0284175 0.028421 
0.0284244 0.0284278 0.0284312 0.0284346 0.028438 0.0284414 0.0284448 0.0284481 0.0284515 
0.0282318 0.0282355 0.0282393 0.0282431 0.0282468 0.0282506 0.0282543 0.028258 0.0282618 
0.0282655 0.0282692 0.0282729 0.0282766 0.0282803 0.028284 0.0282877 0.0282913 0.028295 
0.0282987 0.0283023 0.028306 0.0283096 0.0283132 0.0283169 0.0283205 0.0283241 0.0283277 
0.0283313 0.0283349 0.0283385 0.0283421 0.0283456 0.0283492 0.0283528 0.0283563 0.0283599 
0.0283634 0.0283669 0.0283704 0.028374 0.0283775 0.028381 0.0283845 0.028388 0.0283914 
0.0283949 0.0283984 0.0284019 0.0284053 0.0284088 0.0284122 0.0284156 0.0284191 0.0284225 
0.0284259 0.0284293 0.0284327 0.0284361 0.0284395 0.0284428 0.0284462 0.0284496 0.02823 
0.0282337 0.0282375 0.0282413 0.028245 0.0282488 0.0282525 0.0282562 0.0282599 0.0282637 
0.0282674 0.0282711 0.0282748 0.0282785 0.0282822 0.0282858 0.0282895 0.0282932 0.0282968 
0.0283005 0.0283041 0.0283078 0.0283114 0.028315 0.0283186 0.0283222 0.0283258 0.0283294 
0.028333 0.0283366 0.0283402 0.0283438 0.0283473 0.0283509 0.0283544 0.028358 0.0283615 
0.028365 0.0283686 0.0283721 0.0283756 0.0283791 0.0283826 0.0283861 0.0283896 0.028393 
0.0283965 0.0284 0.0284034 0.0284069 0.0284103 0.0284137 0.0284171 0.0284206 0.028424 
0.0284274 0.0284308 0.0284342 0.0284375 0.0284409 0.0284443 0.0284476 0.0282282 0.0282319 
0.0282357 0.0282394 0.0282432 0.0282469 0.0282507 0.0282544 0.0282581 0.0282618 0.0282655 
0.0282692 0.0282729 0.0282766 0.0282803 0.028284 0.0282877 0.0282913 0.028295 0.0282986 
0.0283023 0.0283059 0.0283095 0.0283132 0.0283168 0.0283204 0.028324 0.0283276 0.0283312 
0.0283348 0.0283383 0.0283419 0.0283455 0.028349 0.0283526 0.0283561 0.0283596 0.0283632 
0.0283667 0.0283702 0.0283737 0.0283772 0.0283807 0.0283842 0.0283877 0.0283911 0.0283946 
0.0283981 0.0284015 0.0284049 0.0284084 0.0284118 0.0284152 0.0284187 0.0284221 0.0284255 
0.0284289 0.0284322 0.0284356 0.028439 0.0284424 0.0284457 0.0282263 0.0282301 0.0282339 
0.0282376 0.0282414 0.0282451 0.0282488 0.0282526 0.0282563 0.02826 0.0282637 0.0282674 
0.0282711 0.0282748 0.0282785 0.0282821 0.0282858 0.0282895 0.0282931 0.0282968 0.0283004 
0.028304 0.0283077 0.0283113 0.0283149 0.0283185 0.0283221 0.0283257 0.0283293 0.0283329 
0.0283365 0.02834 0.0283436 0.0283471 0.0283507 0.0283542 0.0283577 0.0283613 0.0283648 
0.0283683 0.0283718 0.0283753 0.0283788 0.0283823 0.0283858 0.0283892 0.0283927 0.0283961 
0.0283996 0.028403 0.0284065 0.0284099 0.0284133 0.0284167 0.0284201 0.0284235 0.0284269 
0.0284303 0.0284337 0.0284371 0.0284404 0.0284438 0.0282245 0.0282283 0.028232 0.0282358 
0.0282395 0.0282433 0.028247 0.0282507 0.0282544 0.0282582 0.0282619 0.0282656 0.0282692 
0.0282729 0.0282766 0.0282803 0.028284 0.0282876 0.0282913 0.0282949 0.0282985 0.0283022 
0.0283058 0.0283094 0.028313 0.0283166 0.0283202 0.0283238 0.0283274 0.028331 0.0283346 
0.0283381 0.0283417 0.0283452 0.0283488 0.0283523 0.0283559 0.0283594 0.0283629 0.0283664 
0.0283699 0.0283734 0.0283769 0.0283804 0.0283838 0.0283873 0.0283908 0.0283942 0.0283977 
0.0284011 0.0284045 0.028408 0.0284114 0.0284148 0.0284182 0.0284216 0.028425 0.0284284 
0.0284318 0.0284351 0.0284385 0.0284418 0.0282227 0.0282264 0.0282302 0.0282339 0.0282377 
0.0282414 0.0282452 0.0282489 0.0282526 0.0282563 0.02826 0.0282637 0.0282674 0.0282711 
0.0282748 0.0282784 0.0282821 0.0282857 0.0282894 0.028293 0.0282967 0.0283003 0.0283039 
0.0283075 0.0283112 0.0283148 0.0283184 0.0283219 0.0283255 0.0283291 0.0283327 0.0283362 
0.0283398 0.0283433 0.0283469 0.0283504 0.028354 0.0283575 0.028361 0.0283645 0.028368 
0.0283715 0.028375 0.0283785 0.0283819 0.0283854 0.0283889 0.0283923 0.0283958 0.0283992 
0.0284026 0.028406 0.0284095 0.0284129 0.0284163 0.0284197 0.0284231 0.0284264 0.0284298 
0.0284332 0.0284365 0.0284399 0.0282208 0.0282246 0.0282283 0.0282321 0.0282358 0.0282396 
0.0282433 0.028247 0.0282507 0.0282544 0.0282581 0.0282618 0.0282655 0.0282692 0.0282729 
0.0282766 0.0282802 0.0282839 0.0282875 0.0282912 0.0282948 0.0282984 0.028302 0.0283057 
0.0283093 0.0283129 0.0283165 0.0283201 0.0283236 0.0283272 0.0283308 0.0283343 0.0283379 
0.0283414 0.028345 0.0283485 0.028352 0.0283556 0.0283591 0.0283626 0.0283661 0.0283696 
0.0283731 0.0283765 0.02838 0.0283835 0.0283869 0.0283904 0.0283938 0.0283973 0.0284007 
0.0284041 0.0284075 0.0284109 0.0284143 0.0284177 0.0284211 0.0284245 0.0284279 0.0284312 
0.0284346 0.0284379 0.028219 0.0282227 0.0282265 0.0282302 0.028234 0.0282377 0.0282414 
0.0282452 0.0282489 0.0282526 0.0282563 0.02826 0.0282637 0.0282673 0.028271 0.0282747 
0.0282783 0.028282 0.0282856 0.0282893 0.0282929 0.0282965 0.0283002 0.0283038 0.0283074 
0.028311 0.0283146 0.0283182 0.0283217 0.0283253 0.0283289 0.0283324 0.028336 0.0283395 
0.0283431 0.0283466 0.0283501 0.0283536 0.0283572 0.0283607 0.0283642 0.0283676 0.0283711 
0.0283746 0.0283781 0.0283815 0.028385 0.0283884 0.0283919 0.0283953 0.0283987 0.0284022 
0.0284056 0.028409 0.0284124 0.0284158 0.0284192 0.0284225 0.0284259 0.0284293 0.0284326 
0.028436 0.0282171 0.0282209 0.0282246 0.0282284 0.0282321 0.0282358 0.0282396 0.0282433 
0.028247 0.0282507 0.0282544 0.0282581 0.0282618 0.0282655 0.0282691 0.0282728 0.0282765 
0.0282801 0.0282837 0.0282874 0.028291 0.0282946 0.0282983 0.0283019 0.0283055 0.0283091 
0.0283127 0.0283163 0.0283198 0.0283234 0.028327 0.0283305 0.0283341 0.0283376 0.0283412 
0.0283447 0.0283482 0.0283517 0.0283552 0.0283587 0.0283622 0.0283657 0.0283692 0.0283727 
0.0283761 0.0283796 0.028383 0.0283865 0.0283899 0.0283934 0.0283968 0.0284002 0.0284036 
0.028407 0.0284104 0.0284138 0.0284172 0.0284206 0.0284239 0.0284273 0.0284306 0.028434 
0.0282153 0.028219 0.0282228 0.0282265 0.0282302 0.028234 0.0282377 0.0282414 0.0282451 
0.0282488 0.0282525 0.0282562 0.0282599 0.0282636 0.0282672 0.0282709 0.0282746 0.0282782 
0.0282819 0.0282855 0.0282891 0.0282927 0.0282964 0.0283 0.0283036 0.0283072 0.0283108 
0.0283143 0.0283179 0.0283215 0.028325 0.0283286 0.0283321 0.0283357 0.0283392 0.0283428 
0.0283463 0.0283498 0.0283533 0.0283568 0.0283603 0.0283638 0.0283673 0.0283707 0.0283742 
0.0283776 0.0283811 0.0283845 0.028388 0.0283914 0.0283948 0.0283982 0.0284017 0.0284051 
0.0284085 0.0284118 0.0284152 0.0284186 0.028422 0.0284253 0.0284287 0.028432 0.0282134 
0.0282172 0.0282209 0.0282246 0.0282284 0.0282321 0.0282358 0.0282395 0.0282432 0.0282469 
0.0282506 0.0282543 0.028258 0.0282617 0.0282653 0.028269 0.0282727 0.0282763 0.0282799 
0.0282836 0.0282872 0.0282908 0.0282944 0.0282981 0.0283017 0.0283052 0.0283088 0.0283124 
0.028316 0.0283196 0.0283231 0.0283267 0.0283302 0.0283338 0.0283373 0.0283408 0.0283443 
0.0283478 0.0283513 0.0283548 0.0283583 0.0283618 0.0283653 0.0283688 0.0283722 0.0283757 
0.0283791 0.0283826 0.028386 0.0283894 0.0283929 0.0283963 0.0283997 0.0284031 0.0284065 
0.0284099 0.0284132 0.0284166 0.02842 0.0284233 0.0284267 0.02843 0.0282115 0.0282153 
0.028219 0.0282228 0.0282265 0.0282302 0.0282339 0.0282376 0.0282413 0.028245 0.0282487 
0.0282524 0.0282561 0.0282598 0.0282634 0.0282671 0.0282708 0.0282744 0.028278 0.0282817 
0.0282853 0.0282889 0.0282925 0.0282961 0.0282997 0.0283033 0.0283069 0.0283105 0.0283141 
0.0283176 0.0283212 0.0283247 0.0283283 0.0283318 0.0283353 0.0283389 0.0283424 0.0283459 
0.0283494 0.0283529 0.0283564 0.0283599 0.0283633 0.0283668 0.0283703 0.0283737 0.0283772 
0.0283806 0.028384 0.0283875 0.0283909 0.0283943 0.0283977 0.0284011 0.0284045 0.0284079 
0.0284113 0.0284146 0.028418 0.0284213 0.0284247 0.028428 0.0282096 0.0282134 0.0282171 
0.0282209 0.0282246 0.0282283 0.028232 0.0282357 0.0282394 0.0282431 0.0282468 0.0282505 
0.0282542 0.0282579 0.0282615 0.0282652 0.0282688 0.0282725 0.0282761 0.0282798 0.0282834 
0.028287 0.0282906 0.0282942 0.0282978 0.0283014 0.028305 0.0283086 0.0283121 0.0283157 
0.0283192 0.0283228 0.0283263 0.0283299 0.0283334 0.0283369 0.0283404 0.0283439 0.0283474 
0.0283509 0.0283544 0.0283579 0.0283614 0.0283648 0.0283683 0.0283718 0.0283752 0.0283786 
0.0283821 0.0283855 0.0283889 0.0283923 0.0283957 0.0283991 0.0284025 0.0284059 0.0284093 
0.0284126 0.028416 0.0284193 0.0284227 0.028426 0.0282077 0.0282115 0.0282152 0.028219 
0.0282227 0.0282264 0.0282301 0.0282338 0.0282375 0.0282412 0.0282449 0.0282486 0.0282523 
0.028256 0.0282596 0.0282633 0.0282669 0.0282706 0.0282742 0.0282778 0.0282814 0.0282851 
0.0282887 0.0282923 0.0282959 0.0282995 0.028303 0.0283066 0.0283102 0.0283137 0.0283173 
0.0283208 0.0283244 0.0283279 0.0283314 0.028335 0.0283385 0.028342 0.0283455 0.028349 
0.0283525 0.0283559 0.0283594 0.0283629 0.0283663 0.0283698 0.0283732 0.0283767 0.0283801 
0.0283835 0.0283869 0.0283903 0.0283937 0.0283971 0.0284005 0.0284039 0.0284073 0.0284106 
0.028414 0.0284173 0.0284207 0.028424 0.0282058 0.0282096 0.0282133 0.0282171 0.0282208 
0.0282245 0.0282282 0.0282319 0.0282356 0.0282393 0.028243 0.0282467 0.0282504 0.028254 
0.0282577 0.0282613 0.028265 0.0282686 0.0282723 0.0282759 0.0282795 0.0282831 0.0282867 
0.0282903 0.0282939 0.0282975 0.0283011 0.0283047 0.0283082 0.0283118 0.0283153 0.0283189 
0.0283224 0.028326 0.0283295 0.028333 0.0283365 0.02834 0.0283435 0.028347 0.0283505 
0.028354 0.0283574 0.0283609 0.0283643 0.0283678 0.0283712 0.0283747 0.0283781 0.0283815 
0.0283849 0.0283883 0.0283917 0.0283951 0.0283985 0.0284019 0.0284053 0.0284086 0.028412 
0.0284153 0.0284187 0.028422 0.0282039 0.0282077 0.0282114 0.0282152 0.0282189 0.0282226 
0.0282263 0.02823 0.0282337 0.0282374 0.0282411 0.0282448 0.0282484 0.0282521 0.0282558 
0.0282594 0.0282631 0.0282667 0.0282703 0.0282739 0.0282776 0.0282812 0.0282848 0.0282884 
0.028292 0.0282956 0.0282991 0.0283027 0.0283063 0.0283098 0.0283134 0.0283169 0.0283205 
0.028324 0.0283275 0.028331 0.0283345 0.028338 0.0283415 0.028345 0.0283485 0.028352 
0.0283554 0.0283589 0.0283624 0.0283658 0.0283692 0.0283727 0.0283761 0.0283795 0.0283829 
0.0283863 0.0283897 0.0283931 0.0283965 0.0283999 0.0284032 0.0284066 0.02841 0.0284133 
0.0284166 0.02842 0.028202 0.0282058 0.0282095 0.0282132 0.028217 0.0282207 0.0282244 
0.0282281 0.0282318 0.0282355 0.0282392 0.0282428 0.0282465 0.0282502 0.0282538 0.0282575 
0.0282611 0.0282647 0.0282684 0.028272 0.0282756 0.0282792 0.0282828 0.0282864 0.02829 
0.0282936 0.0282972 0.0283007 0.0283043 0.0283079 0.0283114 0.0283149 0.0283185 0.028322 
0.0283255 0.028329 0.0283326 0.0283361 0.0283395 0.028343 0.0283465 0.02835 0.0283534 
0.0283569 0.0283604 0.0283638 0.0283672 0.0283707 0.0283741 0.0283775 0.0283809 0.0283843 
0.0283877 0.0283911 0.0283945 0.0283979 0.0284012 0.0284046 0.0284079 0.0284113 0.0284146 
0.0284179 0.0282001 0.0282039 0.0282076 0.0282113 0.028215 0.0282187 0.0282225 0.0282262 
0.0282298 0.0282335 0.0282372 0.0282409 0.0282446 0.0282482 0.0282519 0.0282555 0.0282592 
0.0282628 0.0282664 0.02827 0.0282737 0.0282773 0.0282809 0.0282845 0.028288 0.0282916 
0.0282952 0.0282988 0.0283023 0.0283059 0.0283094 0.028313 0.0283165 0.02832 0.0283235 
0.0283271 0.0283306 0.0283341 0.0283376 0.028341 0.0283445 0.028348 0.0283514 0.0283549 
0.0283584 0.0283618 0.0283652 0.0283687 0.0283721 0.0283755 0.0283789 0.0283823 0.0283857 
0.0283891 0.0283925 0.0283958 0.0283992 0.0284026 0.0284059 0.0284092 0.0284126 0.0284159 
0.0281982 0.0282019 0.0282057 0.0282094 0.0282131 0.0282168 0.0282205 0.0282242 0.0282279 
0.0282316 0.0282353 0.0282389 0.0282426 0.0282463 0.0282499 0.0282536 0.0282572 0.0282608 
0.0282645 0.0282681 0.0282717 0.0282753 0.0282789 0.0282825 0.0282861 0.0282897 0.0282932 
0.0282968 0.0283003 0.0283039 0.0283074 0.028311 0.0283145 0.028318 0.0283216 0.0283251 
0.0283286 0.0283321 0.0283356 0.028339 0.0283425 0.028346 0.0283494 0.0283529 0.0283563 
0.0283598 0.0283632 0.0283666 0.0283701 0.0283735 0.0283769 0.0283803 0.0283837 0.0283871 
0.0283904 0.0283938 0.0283972 0.0284005 0.0284039 0.0284072 0.0284105 0.0284139 0.0281963 
0.0282 0.0282037 0.0282074 0.0282112 0.0282149 0.0282186 0.0282223 0.028226 0.0282296 
0.0282333 0.028237 0.0282407 0.0282443 0.028248 0.0282516 0.0282552 0.0282589 0.0282625 
0.0282661 0.0282697 0.0282733 0.0282769 0.0282805 0.0282841 0.0282877 0.0282912 0.0282948 
0.0282984 0.0283019 0.0283055 0.028309 0.0283125 0.028316 0.0283196 0.0283231 0.0283266 
0.0283301 0.0283335 0.028337 0.0283405 0.028344 0.0283474 0.0283509 0.0283543 0.0283578 
0.0283612 0.0283646 0.028368 0.0283714 0.0283748 0.0283782 0.0283816 0.028385 0.0283884 
0.0283918 0.0283951 0.0283985 0.0284018 0.0284052 0.0284085 0.0284118 0.0281943 0.028198 
0.0282018 0.0282055 0.0282092 0.0282129 0.0282166 0.0282203 0.028224 0.0282277 0.0282314 
0.028235 0.0282387 0.0282423 0.028246 0.0282496 0.0282533 0.0282569 0.0282605 0.0282641 
0.0282677 0.0282713 0.0282749 0.0282785 0.0282821 0.0282857 0.0282893 0.0282928 0.0282964 
0.0282999 0.0283035 0.028307 0.0283105 0.028314 0.0283175 0.0283211 0.0283246 0.028328 
0.0283315 0.028335 0.0283385 0.0283419 0.0283454 0.0283489 0.0283523 0.0283557 0.0283592 
0.0283626 0.028366 0.0283694 0.0283728 0.0283762 0.0283796 0.028383 0.0283863 0.0283897 
0.0283931 0.0283964 0.0283998 0.0284031 0.0284064 0.0284098 0.0281924 0.0281961 0.0281998 
0.0282035 0.0282073 0.028211 0.0282147 0.0282184 0.028222 0.0282257 0.0282294 0.0282331 
0.0282367 0.0282404 0.028244 0.0282477 0.0282513 0.0282549 0.0282585 0.0282622 0.0282658 
0.0282694 0.028273 0.0282765 0.0282801 0.0282837 0.0282873 0.0282908 0.0282944 0.0282979 
0.0283014 0.028305 0.0283085 0.028312 0.0283155 0.028319 0.0283225 0.028326 0.0283295 
0.028333 0.0283365 0.0283399 0.0283434 0.0283468 0.0283503 0.0283537 0.0283571 0.0283605 
0.028364 0.0283674 0.0283708 0.0283742 0.0283775 0.0283809 0.0283843 0.0283877 0.028391 
0.0283944 0.0283977 0.028401 0.0284044 0.0284077 0.0281904 0.0281941 0.0281979 0.0282016 
0.0282053 0.028209 0.0282127 0.0282164 0.0282201 0.0282237 0.0282274 0.0282311 0.0282347 
0.0282384 0.028242 0.0282457 0.0282493 0.0282529 0.0282565 0.0282602 0.0282638 0.0282674 
0.028271 0.0282745 0.0282781 0.0282817 0.0282852 0.0282888 0.0282924 0.0282959 0.0282994 
0.028303 0.0283065 0.02831 0.0283135 0.028317 0.0283205 0.028324 0.0283275 0.028331 
0.0283344 0.0283379 0.0283413 0.0283448 0.0283482 0.0283517 0.0283551 0.0283585 0.0283619 
0.0283653 0.0283687 0.0283721 0.0283755 0.0283789 0.0283822 0.0283856 0.0283889 0.0283923 
0.0283956 0.028399 0.0284023 0.0284056 0.0281884 0.0281922 0.0281959 0.0281996 0.0282033 
0.028207 0.0282107 0.0282144 0.0282181 0.0282218 0.0282254 0.0282291 0.0282328 0.0282364 
0.02824 0.0282437 0.0282473 0.0282509 0.0282546 0.0282582 0.0282618 0.0282654 0.0282689 
0.0282725 0.0282761 0.0282797 0.0282832 0.0282868 0.0282903 0.0282939 0.0282974 0.0283009 
0.0283045 0.028308 0.0283115 0.028315 0.0283185 0.028322 0.0283254 0.0283289 0.0283324 
0.0283358 0.0283393 0.0283427 0.0283462 0.0283496 0.028353 0.0283564 0.0283599 0.0283633 
0.0283667 0.02837 0.0283734 0.0283768 0.0283802 0.0283835 0.0283869 0.0283902 0.0283936 
0.0283969 0.0284002 0.0284035 0.0281865 0.0281902 0.0281939 0.0281976 0.0282013 0.028205 
0.0282087 0.0282124 0.0282161 0.0282198 0.0282234 0.0282271 0.0282308 0.0282344 0.0282381 
0.0282417 0.0282453 0.0282489 0.0282525 0.0282562 0.0282598 0.0282634 0.0282669 0.0282705 
0.0282741 0.0282777 0.0282812 0.0282848 0.0282883 0.0282919 0.0282954 0.0282989 0.0283024 
0.0283059 0.0283095 0.0283129 0.0283164 0.0283199 0.0283234 0.0283269 0.0283303 0.0283338 
0.0283372 0.0283407 0.0283441 0.0283475 0.028351 0.0283544 0.0283578 0.0283612 0.0283646 
0.028368 0.0283713 0.0283747 0.0283781 0.0283814 0.0283848 0.0283881 0.0283915 0.0283948 
0.0283981 0.0284014 0.0281845 0.0281882 0.0281919 0.0281957 0.0281994 0.0282031 0.0282068 
0.0282104 0.0282141 0.0282178 0.0282215 0.0282251 0.0282288 0.0282324 0.028236 0.0282397 
0.0282433 0.0282469 0.0282505 0.0282541 0.0282577 0.0282613 0.0282649 0.0282685 0.0282721 
0.0282756 0.0282792 0.0282827 0.0282863 0.0282898 0.0282934 0.0282969 0.0283004 0.0283039 
0.0283074 0.0283109 0.0283144 0.0283179 0.0283214 0.0283248 0.0283283 0.0283317 0.0283352 
0.0283386 0.0283421 0.0283455 0.0283489 0.0283523 0.0283557 0.0283591 0.0283625 0.0283659 
0.0283693 0.0283726 0.028376 0.0283794 0.0283827 0.028386 0.0283894 0.0283927 0.028396 
0.0283993 0.0281825 0.0281862 0.02819 0.0281937 0.0281974 0.0282011 0.0282048 0.0282084 
0.0282121 0.0282158 0.0282195 0.0282231 0.0282268 0.0282304 0.028234 0.0282377 0.0282413 
0.0282449 0.0282485 0.0282521 0.0282557 0.0282593 0.0282629 0.0282665 0.02827 0.0282736 
0.0282772 0.0282807 0.0282842 0.0282878 0.0282913 0.0282948 0.0282984 0.0283019 0.0283054 
0.0283089 0.0283123 0.0283158 0.0283193 0.0283228 0.0283262 0.0283297 0.0283331 0.0283366 
0.02834 0.0283434 0.0283468 0.0283502 0.0283536 0.028357 0.0283604 0.0283638 0.0283672 
0.0283706 0.0283739 0.0283773 0.0283806 0.028384 0.0283873 0.0283906 0.0283939 0.0283972 
0.0281805 0.0281843 0.028188 0.0281917 0.0281954 0.0281991 0.0282028 0.0282064 0.0282101 
0.0282138 0.0282174 0.0282211 0.0282247 0.0282284 0.028232 0.0282357 0.0282393 0.0282429 
0.0282465 0.0282501 0.0282537 0.0282573 0.0282609 0.0282644 0.028268 0.0282716 0.0282751 
0.0282787 0.0282822 0.0282857 0.0282893 0.0282928 0.0282963 0.0282998 0.0283033 0.0283068 
0.0283103 0.0283138 0.0283172 0.0283207 0.0283242 0.0283276 0.028331 0.0283345 0.0283379 
0.0283413 0.0283447 0.0283482 0.0283516 0.028355 0.0283583 0.0283617 0.0283651 0.0283685 
0.0283718 0.0283752 0.0283785 0.0283819 0.0283852 0.0283885 0.0283918 0.0283951 0.0281785 
0.0281823 0.028186 0.0281897 0.0281934 0.0281971 0.0282007 0.0282044 0.0282081 0.0282118 
0.0282154 0.0282191 0.0282227 0.0282264 0.02823 0.0282336 0.0282372 0.0282409 0.0282445 
0.0282481 0.0282517 0.0282552 0.0282588 0.0282624 0.028266 0.0282695 0.0282731 0.0282766 
0.0282802 0.0282837 0.0282872 0.0282907 0.0282942 0.0282977 0.0283012 0.0283047 0.0283082 
0.0283117 0.0283152 0.0283186 0.0283221 0.0283255 0.028329 0.0283324 0.0283358 0.0283392 
0.0283427 0.0283461 0.0283495 0.0283529 0.0283562 0.0283596 0.028363 0.0283664 0.0283697 
0.0283731 0.0283764 0.0283797 0.0283831 0.0283864 0.0283897 0.028393 0.0281765 0.0281802 
0.028184 0.0281877 0.0281914 0.028195 0.0281987 0.0282024 0.0282061 0.0282097 0.0282134 
0.0282171 0.0282207 0.0282243 0.028228 0.0282316 0.0282352 0.0282388 0.0282424 0.028246 
0.0282496 0.0282532 0.0282568 0.0282603 0.0282639 0.0282675 0.028271 0.0282746 0.0282781 
0.0282816 0.0282851 0.0282887 0.0282922 0.0282957 0.0282992 0.0283027 0.0283061 0.0283096 
0.0283131 0.0283165 0.02832 0.0283234 0.0283269 0.0283303 0.0283337 0.0283372 0.0283406 
0.028344 0.0283474 0.0283508 0.0283541 0.0283575 0.0283609 0.0283642 0.0283676 0.0283709 
0.0283743 0.0283776 0.0283809 0.0283843 0.0283876 0.0283909 0.0281745 0.0281782 0.0281819 
0.0281856 0.0281893 0.028193 0.0281967 0.0282004 0.0282041 0.0282077 0.0282114 0.028215 
0.0282187 0.0282223 0.0282259 0.0282296 0.0282332 0.0282368 0.0282404 0.028244 0.0282476 
0.0282511 0.0282547 0.0282583 0.0282618 0.0282654 0.028269 0.0282725 0.028276 0.0282796 
0.0282831 0.0282866 0.0282901 0.0282936 0.0282971 0.0283006 0.0283041 0.0283075 0.028311 
0.0283145 0.0283179 0.0283213 0.0283248 0.0283282 0.0283316 0.0283351 0.0283385 0.0283419 
0.0283453 0.0283487 0.028352 0.0283554 0.0283588 0.0283621 0.0283655 0.0283688 0.0283722 
0.0283755 0.0283788 0.0283821 0.0283854 0.0283887 0.0281725 0.0281762 0.0281799 0.0281836 
0.0281873 0.028191 0.0281947 0.0281984 0.028202 0.0282057 0.0282093 0.028213 0.0282166 
0.0282203 0.0282239 0.0282275 0.0282311 0.0282347 0.0282383 0.0282419 0.0282455 0.0282491 
0.0282527 0.0282562 0.0282598 0.0282633 0.0282669 0.0282704 0.028274 0.0282775 0.028281 
0.0282845 0.028288 0.0282915 0.028295 0.0282985 0.028302 0.0283054 0.0283089 0.0283124 
0.0283158 0.0283192 0.0283227 0.0283261 0.0283295 0.0283329 0.0283364 0.0283398 0.0283431 
0.0283465 0.0283499 0.0283533 0.0283566 0.02836 0.0283634 0.0283667 0.02837 0.0283734 
0.0283767 0.02838 0.0283833 0.0283866 0.0281705 0.0281742 0.0281779 0.0281816 0.0281853 
0.028189 0.0281926 0.0281963 0.0282 0.0282036 0.0282073 0.0282109 0.0282146 0.0282182 
0.0282218 0.0282254 0.0282291 0.0282327 0.0282363 0.0282399 0.0282434 0.028247 0.0282506 
0.0282542 0.0282577 0.0282613 0.0282648 0.0282683 0.0282719 0.0282754 0.0282789 0.0282824 
0.0282859 0.0282894 0.0282929 0.0282964 0.0282999 0.0283033 0.0283068 0.0283103 0.0283137 
0.0283171 0.0283206 0.028324 0.0283274 0.0283308 0.0283342 0.0283376 0.028341 0.0283444 
0.0283478 0.0283512 0.0283545 0.0283579 0.0283612 0.0283646 0.0283679 0.0283712 0.0283745 
0.0283779 0.0283812 0.0283845 0.0281684 0.0281722 0.0281759 0.0281796 0.0281832 0.0281869 
0.0281906 0.0281943 0.0281979 0.0282016 0.0282052 0.0282089 0.0282125 0.0282161 0.0282198 
0.0282234 0.028227 0.0282306 0.0282342 0.0282378 0.0282414 0.0282449 0.0282485 0.0282521 
0.0282556 0.0282592 0.0282627 0.0282663 0.0282698 0.0282733 0.0282768 0.0282803 0.0282838 
0.0282873 0.0282908 0.0282943 0.0282978 0.0283012 0.0283047 0.0283081 0.0283116 0.028315 
0.0283185 0.0283219 0.0283253 0.0283287 0.0283321 0.0283355 0.0283389 0.0283423 0.0283457 
0.028349 0.0283524 0.0283557 0.0283591 0.0283624 0.0283658 0.0283691 0.0283724 0.0283757 
0.028379 0.0283823 0.0281664 0.0281701 0.0281738 0.0281775 0.0281812 0.0281849 0.0281885 
0.0281922 0.0281959 0.0281995 0.0282032 0.0282068 0.0282105 0.0282141 0.0282177 0.0282213 
0.0282249 0.0282285 0.0282321 0.0282357 0.0282393 0.0282429 0.0282464 0.02825 0.0282535 
0.0282571 0.0282606 0.0282642 0.0282677 0.0282712 0.0282747 0.0282782 0.0282817 0.0282852 
0.0282887 0.0282922 0.0282957 0.0282991 0.0283026 0.028306 0.0283095 0.0283129 0.0283163 
0.0283198 0.0283232 0.0283266 0.02833 0.0283334 0.0283368 0.0283401 0.0283435 0.0283469 
0.0283502 0.0283536 0.0283569 0.0283603 0.0283636 0.0283669 0.0283702 0.0283736 0.0283769 
0.0283801 0.0281644 0.0281681 0.0281718 0.0281755 0.0281791 0.0281828 0.0281865 0.0281902 
0.0281938 0.0281975 0.0282011 0.0282048 0.0282084 0.028212 0.0282156 0.0282192 0.0282228 
0.0282264 0.02823 0.0282336 0.0282372 0.0282408 0.0282443 0.0282479 0.0282515 0.028255 
0.0282585 0.0282621 0.0282656 0.0282691 0.0282726 0.0282761 0.0282796 0.0282831 0.0282866 
0.0282901 0.0282935 0.028297 0.0283005 0.0283039 0.0283073 0.0283108 0.0283142 0.0283176 
0.028321 0.0283244 0.0283278 0.0283312 0.0283346 0.028338 0.0283414 0.0283447 0.0283481 
0.0283514 0.0283548 0.0283581 0.0283614 0.0283648 0.0283681 0.0283714 0.0283747 0.028378 
0.0281623 0.028166 0.0281697 0.0281734 0.0281771 0.0281808 0.0281844 0.0281881 0.0281917 
0.0281954 0.028199 0.0282027 0.0282063 0.0282099 0.0282135 0.0282172 0.0282208 0.0282244 
0.028228 0.0282315 0.0282351 0.0282387 0.0282422 0.0282458 0.0282494 0.0282529 0.0282564 
0.02826 0.0282635 0.028267 0.0282705 0.028274 0.0282775 0.028281 0.0282845 0.0282879 
0.0282914 0.0282949 0.0282983 0.0283018 0.0283052 0.0283086 0.0283121 0.0283155 0.0283189 
0.0283223 0.0283257 0.0283291 0.0283325 0.0283358 0.0283392 0.0283426 0.0283459 0.0283493 
0.0283526 0.028356 0.0283593 0.0283626 0.0283659 0.0283692 0.0283725 0.0283758 0.0281602 
0.0281639 0.0281676 0.0281713 0.028175 0.0281787 0.0281824 0.028186 0.0281897 0.0281933 
0.028197 0.0282006 0.0282042 0.0282078 0.0282115 0.0282151 0.0282187 0.0282223 0.0282259 
0.0282294 0.028233 0.0282366 0.0282401 0.0282437 0.0282472 0.0282508 0.0282543 0.0282578 
0.0282614 0.0282649 0.0282684 0.0282719 0.0282754 0.0282789 0.0282823 0.0282858 0.0282893 
0.0282927 0.0282962 0.0282996 0.0283031 0.0283065 0.0283099 0.0283133 0.0283168 0.0283202 
0.0283235 0.0283269 0.0283303 0.0283337 0.0283371 0.0283404 0.0283438 0.0283471 0.0283505 
0.0283538 0.0283571 0.0283604 0.0283637 0.028367 0.0283703 0.0283736 0.0281582 0.0281619 
0.0281656 0.0281693 0.0281729 0.0281766 0.0281803 0.0281839 0.0281876 0.0281912 0.0281949 
0.0281985 0.0282021 0.0282058 0.0282094 0.028213 0.0282166 0.0282202 0.0282238 0.0282273 
0.0282309 0.0282345 0.028238 0.0282416 0.0282451 0.0282487 0.0282522 0.0282557 0.0282592 
0.0282628 0.0282663 0.0282698 0.0282732 0.0282767 0.0282802 0.0282837 0.0282871 0.0282906 
0.028294 0.0282975 0.0283009 0.0283044 0.0283078 0.0283112 0.0283146 0.028318 0.0283214 
0.0283248 0.0283282 0.0283315 0.0283349 0.0283382 0.0283416 0.0283449 0.0283483 0.0283516 
0.0283549 0.0283582 0.0283615 0.0283648 0.0283681 0.0283714 0.0281561 0.0281598 0.0281635 