# vtk DataFile Version 4.0
vtk output
ASCII
DATASET STRUCTURED_POINTS
DIMENSIONS 42 42 42
SPACING 0.05 0.05 0.05
ORIGIN -1.025 -1.025 -1.025
POINT_DATA 74088
FIELD FieldData 1
potential 1 74088 double
0.00173588 0.00166853 0.00160929 0.00155638 0.00150564 0.00145158 0.00138939 0.00131722 0.00123676 
0.00115292 0.0010713 0.000994947 0.00092549 0.000861958 0.000803217 0.000748628 0.000697627 0.000650392 
0.000606786 0.000567036 0.000531434 0.000499886 0.000471944 0.000446798 0.000423536 0.000401419 0.000380119 
0.000359598 0.000339921 0.000321278 0.000304121 0.000288403 0.000274237 0.000261558 0.00025041 0.000240513 
0.000232014 0.000224991 0.000219434 0.000215442 0.000212801 0.000211033 0.00221621 0.00211625 0.00202536 
0.001942 0.0018633 0.00178562 0.00170526 0.00162004 0.00152993 0.00143726 0.00134552 0.00125719 
0.00117371 0.00109567 0.00102243 0.000954141 0.000890441 0.000831003 0.000776135 0.0007258 0.000680211 
0.000639158 0.00060226 0.000568853 0.00053818 0.000509454 0.000482273 0.000456345 0.000431828 0.000408568 
0.000387012 0.000367123 0.000349007 0.000332656 0.000318125 0.000305183 0.000293903 0.000284068 0.000275737 
0.000268783 0.000262892 0.000257515 0.00273359 0.00259843 0.00247411 0.00235905 0.00225111 0.00214756 
0.00204551 0.00194267 0.00183829 0.00173315 0.00162899 0.00152753 0.00143017 0.00133782 0.00125053 
0.00116863 0.00109209 0.00102059 0.000954268 0.000893174 0.000837311 0.000786411 0.000740182 0.000698032 
0.000659349 0.000623389 0.000589685 0.000557911 0.000528021 0.000499792 0.000473479 0.000449271 0.000426993 
0.000406691 0.000388482 0.000372097 0.000357605 0.000344615 0.000333147 0.000322955 0.00031365 0.000304745 
0.00328216 0.00310989 0.00295049 0.00280233 0.00266369 0.0025324 0.00240587 0.00228211 0.00215984 
0.00203917 0.00192019 0.00180441 0.00169271 0.00158598 0.00148472 0.00138931 0.00129995 0.00121631 
0.00113851 0.0010665 0.00100023 0.000939414 0.000883697 0.000832589 0.000785581 0.000741974 0.000701306 
0.000663215 0.00062744 0.000594015 0.000562746 0.000533888 0.000507183 0.000482762 0.000460616 0.000440528 
0.000422452 0.000406023 0.00039115 0.00037754 0.000364792 0.00035248 0.00385321 0.00364286 0.00344727 
0.00326498 0.00309453 0.00293394 0.00278107 0.00263396 0.00249118 0.00235237 0.00221691 0.00208541 
0.00195868 0.00183738 0.00172218 0.00161353 0.00151122 0.0014154 0.00132616 0.00124327 0.00116657 
0.00109581 0.0010306 0.000970508 0.000915021 0.00086357 0.000815675 0.000770969 0.000729134 0.00069011 
0.000653666 0.000619965 0.000588675 0.000559897 0.000533642 0.000509617 0.000487746 0.000467676 0.000449238 
0.000432104 0.000415962 0.000400343 0.00443665 0.0041878 0.00395562 0.00373874 0.00353591 0.00334518 
0.00316475 0.00299276 0.00282777 0.002669 0.00251553 0.00236744 0.00222513 0.00208908 0.00195991 
0.00183797 0.00172298 0.00161516 0.00151457 0.0014208 0.00133378 0.00125317 0.00117856 0.00110958 
0.00104564 0.000986314 0.000931093 0.000879639 0.000831545 0.000786833 0.000745027 0.000706354 0.000670343 
0.000637187 0.000606639 0.000578527 0.00055271 0.000528912 0.000506832 0.000486187 0.000466671 0.00044786 
0.00502134 0.0047343 0.00446576 0.00421453 0.00397935 0.0037584 0.00355001 0.00335248 0.00316445 
0.00298471 0.00281239 0.00264704 0.00248874 0.00233794 0.00219483 0.00205975 0.00193232 0.00181269 
0.00170093 0.00159648 0.00149935 0.00140908 0.00132527 0.00124756 0.00117535 0.00110824 0.00104573 
0.000987577 0.000933242 0.000882743 0.00083556 0.00079178 0.000751081 0.00071343 0.000678617 0.000646429 
0.000616638 0.00058905 0.000563348 0.000539253 0.000516449 0.00049461 0.00559605 0.00527183 0.00496797 
0.00468324 0.00441642 0.00416582 0.00392986 0.00370689 0.00349567 0.00329494 0.00310333 0.00292052 
0.00274634 0.00258074 0.00242413 0.00227593 0.00213636 0.00200534 0.00188261 0.00176784 0.00166086 
0.00156124 0.00146857 0.00138237 0.00130216 0.00122752 0.00115794 0.0010932 0.00103272 0.000976482 
0.000924041 0.000875195 0.000829787 0.000787741 0.000748635 0.000712392 0.000678711 0.000647381 0.000618139 
0.000590714 0.000564734 0.000540025 0.00615038 0.00579072 0.00545313 0.00513652 0.00483937 0.00456026 
0.00429767 0.00405009 0.00381627 0.00359475 0.00338424 0.00318428 0.00299441 0.00281439 0.00264439 
0.00248374 0.00233247 0.00219043 0.0020572 0.00193254 0.00181614 0.00170757 0.00160639 0.00151214 
0.00142428 0.00134243 0.00126608 0.00119489 0.00112859 0.00106678 0.00100921 0.000955453 0.00090546 
0.00085908 0.000815852 0.000775661 0.000738236 0.00070332 0.000670701 0.000640058 0.000611044 0.000583642 
0.00667531 0.00628245 0.00591328 0.00556671 0.00524119 0.00493533 0.00464764 0.0043768 0.00412139 
0.00388003 0.00365141 0.00343484 0.00322992 0.00303635 0.0028533 0.00268072 0.00251827 0.00236577 
0.00222263 0.00208858 0.0019633 0.00184629 0.00173711 0.00163521 0.00154015 0.00145151 0.00136876 
0.00129154 0.00121964 0.00115254 0.00109001 0.00103159 0.000977233 0.000926712 0.000879565 0.000835589 
0.000794574 0.000756267 0.000720462 0.000686737 0.000654976 0.000624997 0.00716322 0.00673995 0.00634191 
0.00596779 0.00561618 0.00528567 0.00497491 0.00468249 0.00440723 0.00414713 0.00390153 0.0036694 
0.00345027 0.00324366 0.00304854 0.00286473 0.00269186 0.00252946 0.00237708 0.00223429 0.00210072 
0.00197584 0.00185921 0.00175024 0.00164849 0.00155353 0.00146484 0.00138202 0.00130483 0.00123272 
0.00116554 0.00110282 0.00104442 0.000989905 0.00093905 0.000891567 0.000847213 0.000805755 0.000766914 
0.000730435 0.000696071 0.000663714 0.00760802 0.00715754 0.00673365 0.00633477 0.00595972 0.00560703 
0.00527536 0.00496337 0.00466987 0.00439294 0.0041317 0.00388546 0.00365339 0.00343446 0.00322818 
0.00303406 0.00285148 0.00268003 0.00251912 0.0023683 0.00222711 0.00209505 0.00197158 0.00185613 
0.00174827 0.00164745 0.00155336 0.00146543 0.00138337 0.00130674 0.00123521 0.00116849 0.00110627 
0.00104813 0.000993857 0.000943125 0.000895703 0.00085133 0.000809713 0.000770729 0.000733987 0.000699425 
0.00800515 0.00753102 0.00708432 0.00666396 0.00626817 0.00589603 0.00554595 0.00521671 0.0049069 
0.00461491 0.00433977 0.00408068 0.00383683 0.00360699 0.00339063 0.00318712 0.00299579 0.00281618 
0.00264754 0.0024895 0.00234149 0.0022029 0.00207328 0.00195201 0.00183864 0.00173263 0.0016335 
0.00154105 0.0014546 0.00137392 0.00129843 0.00122802 0.00116234 0.00110093 0.00104355 0.000989879 
0.000939697 0.000892685 0.000848612 0.000807305 0.000768425 0.000731866 0.00835132 0.00785707 0.00739106 
0.0069521 0.00653885 0.00614997 0.00578415 0.00544016 0.00511613 0.00481099 0.00452384 0.00425356 
0.00399932 0.00375986 0.00353461 0.00332279 0.00312375 0.0029369 0.00276146 0.00259702 0.00244296 
0.00229871 0.00216362 0.0020372 0.00191896 0.00180834 0.0017049 0.00160829 0.00151801 0.00143355 
0.00135471 0.00128104 0.00121232 0.00114798 0.0010878 0.00103151 0.000978857 0.000929483 0.00088327 
0.000839846 0.000799127 0.000760769 0.008644 0.00813341 0.00765165 0.00719755 0.00676986 0.00636717 
0.00598812 0.00563165 0.00529594 0.0049798 0.00468249 0.00440285 0.00413959 0.00389196 0.00365912 
0.00344015 0.00323454 0.0030414 0.00286014 0.00269022 0.00253092 0.00238175 0.00224199 0.00211115 
0.00198876 0.00187415 0.00176697 0.0016668 0.00157319 0.00148558 0.00140372 0.00132731 0.0012558 
0.00118893 0.00112635 0.00106783 0.001013 0.000961619 0.00091349 0.0008683 0.00082592 0.000786016 
0.00888193 0.00835867 0.00786479 0.00739886 0.00695973 0.00654616 0.00615675 0.00579027 0.00544503 
0.00512017 0.00481458 0.00452723 0.00425675 0.00400238 0.00376321 0.00353845 0.00332737 0.00312907 
0.00294302 0.0027685 0.00260488 0.00245162 0.00230798 0.00217349 0.00204752 0.0019297 0.00181938 
0.00171625 0.00161975 0.00152954 0.00144517 0.00136637 0.00129262 0.00122359 0.00115899 0.00109854 
0.00104186 0.000988848 0.000939113 0.000892417 0.000848631 0.000807426 0.00906421 0.00853206 0.00802941 
0.00755511 0.00710773 0.0066861 0.00628916 0.00591509 0.00556275 0.00523129 0.00491961 0.00462612 
0.0043501 0.00409053 0.00384649 0.00361717 0.00340179 0.00319949 0.00300962 0.00283151 0.00266457 
0.00250799 0.00236129 0.00222387 0.00209513 0.00197458 0.00186185 0.00175637 0.00165751 0.00156524 
0.00147887 0.00139812 0.00132258 0.00125179 0.00118557 0.00112356 0.00106545 0.00101102 0.000959991 
0.000912066 0.000867077 0.000824875 0.00919076 0.00865349 0.00814564 0.00766596 0.00721343 0.00678657 
0.0063846 0.00600553 0.00564862 0.00531273 0.00499666 0.00469909 0.00441921 0.00415597 0.00390851 
0.00367594 0.0034575 0.00325229 0.00305969 0.00287897 0.00270954 0.00255061 0.00240166 0.00226212 
0.00213133 0.0020088 0.00189422 0.00178697 0.00168649 0.00159254 0.00150464 0.00142244 0.00134551 
0.00127343 0.00120594 0.0011427 0.00108352 0.00102804 0.000975982 0.000927152 0.000881294 0.000838271 
0.00926184 0.0087231 0.00821324 0.00773159 0.00727675 0.00684768 0.00644326 0.00606172 0.00570237 
0.00536424 0.00504568 0.00474589 0.00446381 0.00419848 0.00394902 0.00371461 0.00349428 0.00328733 
0.00309305 0.00291073 0.00273976 0.00257935 0.00242895 0.00228799 0.00215597 0.00203217 0.00191636 
0.00180791 0.00170636 0.00161136 0.00152249 0.00143927 0.00136134 0.00128839 0.00122005 0.00115602 
0.00109604 0.00103985 0.00098708 0.000937611 0.000891132 0.000847535 0.00927846 0.00874128 0.00823286 
0.00775219 0.00729804 0.00686958 0.00646499 0.00608354 0.00572415 0.00538566 0.00506669 0.00476643 
0.00448385 0.00421798 0.00396796 0.00373297 0.00351208 0.0033045 0.00310962 0.00292679 0.00275513 
0.00259411 0.00244317 0.00230159 0.00216884 0.00204461 0.00192822 0.00181908 0.00171709 0.00162156 
0.00153218 0.00144849 0.00137004 0.00129661 0.00122777 0.00116335 0.00110299 0.00104637 0.000993219 
0.000943354 0.000896567 0.000852649 0.00924137 0.00870921 0.00820534 0.00772855 0.00727786 0.00685248 
0.00645052 0.00607142 0.0057142 0.00537727 0.00505981 0.00476087 0.00447943 0.00421456 0.00396539 
0.00373114 0.00351086 0.00330383 0.00310943 0.00292698 0.00275565 0.00259489 0.00244418 0.0023028 
0.0021702 0.00204605 0.00192978 0.00182066 0.00171873 0.00162317 0.00153381 0.00145006 0.00137159 
0.00129811 0.00122922 0.00116472 0.00110429 0.00104759 0.000994372 0.00094443 0.000897565 0.000853557 
0.00915197 0.00862798 0.00813156 0.00766159 0.00721712 0.00679713 0.00640031 0.00602581 0.00567271 
0.00533947 0.00502543 0.00472952 0.00445081 0.00418843 0.00394152 0.00370925 0.00349075 0.00328546 
0.00309256 0.00291148 0.00274141 0.00258179 0.00243209 0.00229167 0.00215997 0.00203662 0.00192086 
0.00181259 0.00171121 0.00161631 0.00152739 0.00144403 0.00136597 0.0012928 0.00122433 0.00116013 
0.00109996 0.00104348 0.000990532 0.000940799 0.000894119 0.000850293 0.00901185 0.00849921 0.00801295 
0.00755241 0.00711678 0.00670472 0.00631524 0.00594771 0.00560047 0.00527292 0.00496396 0.0046728 
0.00439838 0.00413992 0.00389664 0.0036676 0.0034521 0.00324957 0.0030593 0.00288048 0.00271255 
0.002555 0.00240708 0.00226837 0.00213823 0.00201635 0.00190192 0.00179498 0.00169469 0.00160085 
0.0015129 0.00143048 0.00135326 0.00128088 0.00121312 0.00114962 0.00109005 0.00103415 0.000981703 
0.000932497 0.000886283 0.000842864 0.00882297 0.0083242 0.00785094 0.00740249 0.00697795 0.00657612 
0.00619625 0.00583749 0.00549842 0.00517828 0.00487623 0.00459132 0.00432268 0.00406955 0.00383111 
0.00360655 0.00339523 0.00319649 0.00300976 0.00283418 0.00266931 0.0025146 0.00236928 0.00223293 
0.00210518 0.00198538 0.00187294 0.0017678 0.00166921 0.00157696 0.00149048 0.00140943 0.00133345 
0.00126234 0.00119569 0.00113321 0.00107461 0.00101961 0.000967995 0.000919551 0.000874067 0.000831305 
0.00858745 0.00810504 0.00764722 0.00721336 0.00680213 0.0064128 0.00604476 0.00569647 0.00536738 
0.00505649 0.0047629 0.00448582 0.0042244 0.00397787 0.00374551 0.00352656 0.00332051 0.0031266 
0.00294437 0.00277297 0.00261205 0.00246082 0.00231898 0.00218577 0.00206096 0.00194375 0.00183405 
0.00173131 0.00163498 0.00154486 0.00146029 0.00138105 0.00130681 0.00123728 0.00117211 0.00111102 
0.00105368 0.000999936 0.000949447 0.000902066 0.000857547 0.00081568 0.00830716 0.00784375 0.00740364 
0.00698649 0.00659086 0.00621607 0.00586164 0.00552602 0.00520857 0.00490855 0.00462499 0.00435716 
0.00410428 0.00386563 0.00364054 0.00342834 0.0032285 0.0030405 0.00286354 0.00269718 0.00254099 
0.00239419 0.00225646 0.00212708 0.00200587 0.00189208 0.00178551 0.00168574 0.00159226 0.00150461 
0.00142246 0.00134545 0.00127336 0.00120582 0.00114251 0.00108316 0.00102746 0.000975204 0.000926166 
0.000880105 0.000836806 0.000796067 0.00798477 0.00754259 0.00712248 0.00672405 0.00634602 0.00598801 
0.00564869 0.0053274 0.00502338 0.0047357 0.00446365 0.00420638 0.00396327 0.00373367 0.00351694 
0.00331248 0.00311984 0.00293853 0.00276784 0.00260744 0.00245664 0.00231498 0.00218196 0.00205725 
0.00194016 0.00183043 0.00172767 0.00163131 0.00154114 0.00145652 0.00137715 0.00130291 0.00123336 
0.00116816 0.00110706 0.00104979 0.000996044 0.000945613 0.000898274 0.000853795 0.000811954 0.000772548 
0.00762297 0.00720401 0.00680618 0.00642815 0.00606956 0.00572986 0.00540762 0.00510238 0.00481322 
0.00453941 0.00428012 0.00403467 0.00380254 0.00358299 0.00337557 0.00317983 0.00299526 0.00282151 
0.00265788 0.00250412 0.00235951 0.00222375 0.00209621 0.00197667 0.00186438 0.00175924 0.00166077 
0.00156837 0.00148196 0.00140083 0.00132478 0.00125362 0.00118697 0.0011245 0.00106596 0.00101106 
0.000959613 0.000911299 0.000865935 0.000823282 0.00078317 0.000745325 0.00722478 0.00683092 0.00645677 
0.00610125 0.00576408 0.005444 0.00514052 0.00485273 0.0045799 0.0043212 0.00407592 0.00384344 
0.00362323 0.00341477 0.00321757 0.00303135 0.00285576 0.00269022 0.0025344 0.00238797 0.00225028 
0.00212105 0.00199964 0.00188589 0.00177901 0.00167897 0.00158526 0.00149746 0.00141511 0.00133784 
0.00126559 0.00119789 0.00113448 0.00107509 0.00101944 0.000967264 0.000918346 0.000872449 0.000829328 
0.000788784 0.000750595 0.000714533 0.00679361 0.0064267 0.00607763 0.00574611 0.00543152 0.00513285 
0.00484953 0.00458063 0.00432536 0.00408298 0.00385279 0.00363428 0.00342687 0.00323025 0.0030441 
0.0028681 0.00270213 0.0025456 0.00239835 0.0022598 0.00212973 0.00200749 0.00189297 0.00178536 
0.0016846 0.00159026 0.00150168 0.00141884 0.00134106 0.00126815 0.00119994 0.00113607 0.00107626 
0.00102026 0.000967781 0.000918657 0.000872579 0.000829335 0.000788721 0.000750498 0.000714407 0.000680372 
0.0063332 0.00599434 0.00567195 0.00536594 0.0050752 0.00479929 0.00453735 0.00428851 0.00405194 
0.00382689 0.00361274 0.00340896 0.00321518 0.00303107 0.00285655 0.00269157 0.00253568 0.00238873 
0.00225058 0.00212066 0.00199873 0.00188421 0.00177694 0.0016762 0.00158191 0.00149358 0.00141068 
0.00133317 0.0012603 0.00119218 0.00112837 0.00106862 0.0010127 0.000960387 0.000911401 0.000865557 
0.000822564 0.000782261 0.000744397 0.000708696 0.000674958 0.000643087 0.00584838 0.0055383 0.00524364 
0.00496406 0.00469846 0.0044464 0.00420695 0.00397924 0.00376234 0.00355547 0.00335809 0.00316968 
0.00299002 0.00281895 0.00265659 0.002503 0.00235777 0.00222108 0.00209246 0.00197165 0.00185825 
0.00175212 0.00165245 0.00155922 0.00147181 0.00138992 0.00131326 0.00124122 0.0011737 0.00111053 
0.0010514 0.000996064 0.000944324 0.000895956 0.000850696 0.000808358 0.000768742 0.000731593 0.000696665 
0.000663719 0.000632518 0.000602975 0.00534366 0.00506338 0.00479739 0.00454486 0.00430528 0.00407796 
0.00386194 0.00365618 0.00345968 0.0032716 0.00309143 0.00291882 0.0027536 0.00259599 0.00244614 
0.00230424 0.00217012 0.00204398 0.00192539 0.0018142 0.00171 0.0016125 0.00152105 0.00143554 
0.00135537 0.00128031 0.00120998 0.00114382 0.00108194 0.001024 0.000969794 0.000919096 0.000871755 
0.0008275 0.000786235 0.00074763 0.000711544 0.00067775 0.00064596 0.000615897 0.000587439 0.000560431 
0.00482514 0.00457495 0.00433797 0.00411312 0.00390023 0.00369837 0.00350642 0.00332318 0.00314752 
0.00297858 0.00281588 0.00265914 0.00250856 0.00236452 0.00222744 0.00209738 0.00197477 0.00185945 
0.00175123 0.00165008 0.00155535 0.00146676 0.00138405 0.00130659 0.00123404 0.0011661 0.00110218 
0.0010422 0.000986076 0.000933541 0.000884406 0.000838521 0.000795716 0.000755812 0.000718632 0.000683918 
0.000651552 0.00062124 0.000592745 0.000565752 0.000540178 0.000515796 0.00429958 0.00407961 0.00387128 
0.00367446 0.0034886 0.00331261 0.00314512 0.00298465 0.00282995 0.00268013 0.00253469 0.00239371 
0.00225768 0.00212712 0.00200273 0.00188477 0.00177377 0.00166947 0.00157206 0.00148103 0.00139627 
0.00131705 0.00124316 0.00117396 0.00110919 0.0010484 0.000991118 0.000937488 0.000887213 0.000840197 
0.000796253 0.000755267 0.00071712 0.000681645 0.000648636 0.000617951 0.000589366 0.000562657 0.000537552 
0.000513783 0.000491184 0.000469547 0.00377392 0.00358344 0.00340377 0.00323497 0.00307626 0.00292627 
0.0027833 0.0026455 0.00251147 0.00238019 0.00225154 0.00212585 0.00200391 0.00188673 0.00177484 
0.00166913 0.00156967 0.00147668 0.00139015 0.00130963 0.00123494 0.00116523 0.00110033 0.00103951 
0.000982558 0.000928979 0.000878468 0.0008311 0.000786716 0.000745199 0.000706469 0.000670454 0.000636991 
0.000605962 0.000577154 0.000550495 0.000525704 0.000502622 0.000480939 0.000460489 0.000441 0.00042218 
0.00325594 0.00309376 0.00294222 0.00280112 0.00266944 0.00254537 0.00242664 0.00231092 0.00219663 
0.00208296 0.00197002 0.00185878 0.00175034 0.00164606 0.0015466 0.00145292 0.00136507 0.00128353 
0.00120801 0.00113815 0.00107346 0.00101357 0.000957649 0.000905326 0.000856079 0.000809495 0.000765648 
0.000724472 0.000685906 0.000649864 0.000616344 0.000585222 0.000556412 0.000529772 0.000505127 0.000482368 
0.000461335 0.000441822 0.000423576 0.000406426 0.000390061 0.000374148 0.00275222 0.00261748 0.00249326 
0.00237942 0.00227457 0.00217611 0.00208091 0.00198621 0.00189012 0.00179231 0.00169366 0.00159569 
0.00150015 0.00140814 0.00132092 0.00123901 0.00116284 0.00109263 0.00102809 0.000969044 0.000914581 
0.000864264 0.000817257 0.000773103 0.000731301 0.000691685 0.000654268 0.000619153 0.000586221 0.00055557 
0.000527138 0.000500805 0.000476511 0.000454065 0.000433423 0.00041443 0.000396977 0.000380909 0.000366001 
0.000352113 0.000338856 0.000325958 0.00226958 0.002161 0.00206325 0.00197628 0.001898 0.00182465 
0.00175192 0.00167619 0.00159601 0.0015118 0.00142553 0.00133952 0.00125588 0.00117575 0.00110045 
0.00103013 0.00096551 0.000906615 0.000853128 0.000804599 0.000760433 0.000719525 0.00068116 0.000644778 
0.000610128 0.000577087 0.000545842 0.000516472 0.000489045 0.00046361 0.000440092 0.000418364 0.000398348 
0.000379876 0.000362923 0.000347408 0.000333272 0.000320389 0.000308684 0.000297925 0.000287761 0.000277963 
0.0018138 0.0017301 0.00165813 0.00159782 0.00154606 0.00149704 0.00144467 0.0013851 0.00131757 
0.00124418 0.00116822 0.0010929 0.00102042 0.000951975 0.000887995 0.000829113 0.000775755 0.000727855 
0.000685451 0.000647516 0.00061326 0.000581424 0.000551194 0.00052204 0.000493968 0.000467078 0.000441652 
0.000417773 0.000395615 0.000375178 0.000356319 0.000338917 0.000322828 0.000307934 0.000294293 0.000281889 
0.000270758 0.000260813 0.000252043 0.000244242 0.000237091 0.000230396 0.00138994 0.0013302 0.00128373 
0.00125033 0.00122503 0.00119873 0.00116353 0.00111593 0.00105708 0.000991321 0.000923892 0.00085857 
0.000796884 0.000739411 0.000686561 0.000638759 0.000596297 0.000559255 0.000527403 0.000499933 0.000475134 
0.00045163 0.000428706 0.00040612 0.000384011 0.000362807 0.000342767 0.000324134 0.000307022 0.000291327 
0.000276802 0.000263254 0.000250571 0.000238798 0.000227999 0.000218302 0.000209802 0.000202516 0.000196445 
0.000191324 0.000187002 0.000183374 0.00100294 0.000966813 0.000946216 0.000940707 0.000941355 0.000934474 
0.000911217 0.000869985 0.000815104 0.000754384 0.000694714 0.000639201 0.000588274 0.000541591 0.000499432 
0.000462083 0.000430007 0.000403299 0.000381742 0.000363972 0.000347691 0.000331402 0.000314829 0.000297838 
0.000281051 0.000264947 0.000249946 0.000236314 0.000224057 0.000212767 0.000202087 0.000191826 0.000181985 
0.000172767 0.000164342 0.000156917 0.000150675 0.000145819 0.000142184 0.000139418 0.000137572 0.000136817 
0.00142707 0.00137958 0.00134078 0.00131074 0.00128586 0.00125777 0.00121694 0.00115834 0.00108332 
0.000999327 0.000916393 0.00084069 0.00077404 0.000714591 0.000660162 0.00060936 0.000561973 0.000518358 
0.000478675 0.000443311 0.000412889 0.000387509 0.000366656 0.000348775 0.00033212 0.000315637 0.000298944 
0.000282188 0.000265669 0.000249787 0.000235107 0.000221864 0.000210609 0.000200923 0.000192721 0.000185807 
0.000180102 0.000175938 0.000173382 0.000172757 0.000173983 0.000176397 0.00193749 0.00185469 0.00178183 
0.00171793 0.0016603 0.00160398 0.00154273 0.00147191 0.0013905 0.0013017 0.00121118 0.00112357 
0.00104201 0.000966307 0.000895814 0.000830073 0.000768764 0.000712135 0.000660207 0.000613195 0.000571546 
0.000535226 0.000503767 0.000476223 0.000451265 0.000427816 0.000405157 0.000383094 0.000361744 0.000341263 
0.000322239 0.00030471 0.000289276 0.000275683 0.000264024 0.000253956 0.000245532 0.000238726 0.000233494 
0.000229845 0.000227404 0.000225368 0.00249626 0.00237406 0.00226381 0.00216432 0.00207314 0.0019868 
0.00190096 0.00181148 0.00171657 0.00161692 0.00151548 0.00141532 0.00131897 0.00122769 0.00114167 
0.00106112 0.000986081 0.000916291 0.000852041 0.000793356 0.000740452 0.000693168 0.000651051 0.000613453 
0.000579394 0.000547972 0.000518362 0.00049017 0.0004633 0.000437736 0.000413946 0.00039194 0.000372054 
0.000354262 0.000338685 0.000325013 0.000313332 0.000303254 0.000294765 0.000287611 0.000281264 0.000275021 
0.0030959 0.00293172 0.00278174 0.00264463 0.00251828 0.0023999 0.00228617 0.00217353 0.00205982 
0.00194464 0.00182867 0.0017141 0.00160268 0.00149602 0.00139474 0.00129956 0.00121066 0.00112778 
0.00105117 0.000980796 0.00091661 0.000858349 0.000805658 0.000757935 0.000714514 0.000674491 0.000637247 
0.000602196 0.000569263 0.000538132 0.000509174 0.00048231 0.000457738 0.000435543 0.000415735 0.000398085 
0.000382614 0.00036886 0.00035669 0.000345739 0.000335451 0.000325301 0.00372535 0.00351794 0.00332681 
0.00315073 0.00298784 0.00283586 0.00269175 0.0025527 0.00241639 0.00228176 0.00214848 0.00201772 
0.00189051 0.00176841 0.00165197 0.00154226 0.0014396 0.00134364 0.00125468 0.00117252 0.00109705 
0.00102792 0.000964736 0.000906975 0.000854083 0.000805284 0.000760025 0.00071773 0.000678224 0.000641152 
0.000606595 0.00057468 0.000545228 0.000518378 0.000494141 0.0004722 0.000452571 0.000434857 0.000418753 
0.000403851 0.000389699 0.000375786 0.00437143 0.00412039 0.0038877 0.00367214 0.00347203 0.00328538 
0.00310957 0.00294211 0.00278071 0.00262421 0.00247157 0.00232288 0.00217912 0.00204106 0.00190982 
0.00178598 0.00166948 0.00156062 0.00145935 0.00136548 0.0012788 0.00119892 0.0011254 0.00105776 
0.000995514 0.000937947 0.000884544 0.000834833 0.000788449 0.000745261 0.000704955 0.000667707 0.000633202 
0.000601532 0.000572691 0.000546329 0.00052239 0.000500503 0.000480332 0.000461482 0.000443579 0.000426074 
0.00501998 0.00472564 0.00445186 0.00419714 0.00395996 0.00373875 0.00353074 0.003334 0.00314633 
0.00296643 0.00279303 0.00262562 0.00246474 0.00231078 0.00216463 0.0020267 0.0018968 0.00177524 
0.00166194 0.00155651 0.0014588 0.00136839 0.0012848 0.00120758 0.00113616 0.00106998 0.00100858 
0.000951445 0.000898215 0.000848728 0.000802587 0.000759895 0.000720263 0.000683811 0.000650215 0.000619404 
0.00059108 0.000564951 0.000540755 0.000518038 0.000496483 0.000475647 0.00565696 0.00532069 0.00500694 
0.00471423 0.00444111 0.00418587 0.00394634 0.00372049 0.00350651 0.00330275 0.00310813 0.00292167 
0.00274348 0.00257372 0.00241299 0.00226108 0.00211815 0.00198422 0.00185919 0.00174257 0.00163419 
0.00153359 0.00144028 0.00135382 0.00127358 0.00119911 0.00112991 0.00106554 0.00100557 0.000949847 
0.000897925 0.000849782 0.000805098 0.000763804 0.0007256 0.000690333 0.000657715 0.000627462 0.00059932 
0.000572898 0.000547796 0.000523842 0.00626977 0.00589362 0.00554186 0.00521302 0.0049057 0.00461809 
0.00434829 0.0040944 0.00385482 0.00362779 0.00341215 0.00320683 0.00301156 0.00282626 0.00265123 
0.00248588 0.0023304 0.00218467 0.00204831 0.00192097 0.0018024 0.00169206 0.00158951 0.00149422 
0.00140561 0.00132326 0.00124659 0.00117533 0.00110885 0.00104713 0.000989683 0.000936172 0.000886526 
0.000840536 0.000797812 0.00075824 0.000721476 0.000687281 0.000655364 0.000625419 0.000597058 0.000570103 
0.00684778 0.00643448 0.00604734 0.00568496 0.00534579 0.00502788 0.00472978 0.00444953 0.00418582 
0.00393672 0.00370077 0.00347732 0.00326556 0.00306535 0.00287654 0.00269841 0.00253097 0.00237392 
0.00222695 0.00208949 0.00196129 0.0018418 0.00173054 0.00162699 0.00153055 0.00144078 0.00135714 
0.00127923 0.00120677 0.00113928 0.00107647 0.00101792 0.000963522 0.000913032 0.000866054 0.000822349 
0.000781695 0.000743769 0.000708317 0.000675025 0.00064367 0.000613923 0.00738264 0.00693551 0.00651613 
0.00612306 0.00575479 0.00540933 0.00508527 0.00478088 0.00449467 0.00422509 0.00397038 0.00372985 
0.00350268 0.00328857 0.00308655 0.00289638 0.0027178 0.00255013 0.00239318 0.00224632 0.00210919 
0.00198121 0.00186187 0.00175065 0.00164698 0.00155036 0.00146027 0.00137628 0.00129811 0.00122521 
0.00115735 0.00109419 0.0010353 0.000980624 0.000929635 0.000882116 0.000837791 0.000796413 0.000757706 
0.000721391 0.00068716 0.000654876 0.00786793 0.00739078 0.00694273 0.00652228 0.00612788 0.00575781 
0.00541054 0.00508456 0.00477803 0.00448977 0.00421795 0.00396171 0.00372036 0.00349326 0.00327923 
0.00307797 0.00288902 0.00271172 0.00254557 0.00239008 0.00224477 0.00210907 0.00198239 0.00186415 
0.00175385 0.001651 0.00155501 0.00146547 0.00138208 0.00130428 0.00123177 0.00116425 0.00110134 
0.00104268 0.000988014 0.000936972 0.00088932 0.000844789 0.000803096 0.000764009 0.000727242 0.000692631 
0.00829927 0.00779598 0.00732297 0.0068788 0.00646159 0.00606998 0.00570238 0.00535738 0.00503314 
0.00472813 0.00444113 0.00417099 0.00391701 0.00367789 0.00345301 0.00324178 0.00304337 0.00285735 
0.00268298 0.00251972 0.00236705 0.00222438 0.00209111 0.00196661 0.00185038 0.00174186 0.00164064 
0.00154613 0.00145802 0.00137578 0.00129911 0.00122763 0.00116102 0.00109881 0.0010408 0.000986592 
0.000935958 0.000888609 0.00084425 0.000802659 0.000763579 0.000726851 0.00867337 0.00814824 0.00765419 
0.00718976 0.00675327 0.00634336 0.00595847 0.00559703 0.00525757 0.00493823 0.00463793 0.00435568 
0.00409054 0.00384108 0.00360669 0.00338656 0.00317989 0.00298613 0.00280447 0.00263442 0.00247531 
0.00232647 0.00218741 0.00205739 0.00193595 0.0018225 0.00171652 0.0016177 0.00152545 0.0014392 
0.00135892 0.00128392 0.00121401 0.00114874 0.0010877 0.00103069 0.000977394 0.00092751 0.00088085 
0.000837067 0.00079597 0.000757307 0.00898838 0.00844547 0.00793436 0.0074534 0.00700121 0.00657632 
0.0061771 0.00580205 0.00544981 0.00511857 0.00480721 0.00451495 0.00424004 0.00398176 0.00373924 
0.00351153 0.00329776 0.00309737 0.00290949 0.00273356 0.0025689 0.00241487 0.00227077 0.00213604 
0.00201012 0.00189242 0.00178244 0.00167981 0.001584 0.00149445 0.00141087 0.00133283 0.00126011 
0.00119209 0.00112848 0.00106904 0.00101348 0.000961433 0.000912717 0.000866998 0.000824137 0.000783864 
0.00924308 0.00868673 0.0081625 0.00766875 0.00720436 0.00676757 0.00635708 0.00597146 0.0056089 
0.00526801 0.00494788 0.00464721 0.0043646 0.00409917 0.00384992 0.00361591 0.00339637 0.00319052 
0.00299748 0.00281673 0.00264743 0.00248907 0.00234082 0.00220218 0.00207257 0.00195132 0.001838 
0.0017322 0.00163334 0.00154099 0.00145476 0.00137427 0.00129903 0.00122872 0.00116296 0.00110148 
0.00104393 0.000990114 0.000939687 0.000892391 0.000848033 0.000806372 0.00943715 0.00887143 0.00833794 
0.00783514 0.00736194 0.00691667 0.00649788 0.00610431 0.00573411 0.00538608 0.00505917 0.0047522 
0.00446364 0.0041927 0.00393826 0.00369938 0.00347536 0.00326517 0.0030681 0.00288353 0.00271063 
0.0025488 0.0023973 0.00225556 0.00212292 0.00199895 0.00188297 0.00177467 0.00167329 0.00157875 
0.00149035 0.00140783 0.00133069 0.00125848 0.00119098 0.00112787 0.00106877 0.00101347 0.000961658 
0.000913053 0.000867488 0.000824701 0.00957084 0.00899972 0.00846069 0.00795261 0.00747386 0.00702314 
0.006599 0.00620029 0.00582493 0.00547221 0.00514095 0.00482942 0.00453681 0.00426196 0.00400384 
0.00376157 0.00353429 0.00332106 0.00312113 0.00293376 0.00275832 0.00259392 0.00244003 0.00229599 
0.00216121 0.00203505 0.0019172 0.00180703 0.00170383 0.0016076 0.00151758 0.0014335 0.00135487 
0.00128128 0.00121245 0.00114804 0.0010878 0.00103137 0.000978516 0.000928907 0.000882383 0.000838768 
0.00964461 0.0090721 0.00853138 0.00802123 0.00754032 0.00708716 0.0066608 0.00625934 0.00588152 
0.00552634 0.00519261 0.00487877 0.00458386 0.00430677 0.00404658 0.00380231 0.00357312 0.00335804 
0.00315636 0.00296732 0.00279023 0.00262428 0.00246888 0.00232344 0.00218722 0.00205974 0.0019406 
0.00182919 0.0017248 0.00162742 0.00153642 0.00145126 0.00137158 0.00129704 0.00122733 0.00116205 
0.00110098 0.00104379 0.000990156 0.000939898 0.000892717 0.000848475 0.00965959 0.00908952 0.00855048 
0.00804164 0.00756167 0.00710923 0.0066832 0.0062817 0.00590391 0.0055487 0.00521444 0.00490018 
0.00460475 0.00432714 0.0040664 0.00382157 0.00359177 0.00337609 0.00317379 0.00298413 0.00280643 
0.00263985 0.00248381 0.0023377 0.00220093 0.00207285 0.00195314 0.00184093 0.00173623 0.00163823 
0.00154665 0.00146097 0.00138075 0.00130574 0.00123548 0.0011698 0.00110827 0.00105066 0.000996621 
0.000945971 0.00089843 0.000853841 0.00961729 0.00905281 0.00851903 0.00801477 0.00753869 0.00708998 
0.00666672 0.00626785 0.00589243 0.00553918 0.00520662 0.00489381 0.00459967 0.00432321 0.00406342 
0.00381944 0.00359035 0.00337523 0.00317348 0.00298433 0.00280692 0.00264064 0.00248491 0.00233894 