# vtk DataFile Version 4.0
vtk output
ASCII
DATASET STRUCTURED_POINTS
DIMENSIONS 62 62 62
SPACING 0.05 0.05 0.05
ORIGIN -1.525 -1.525 -1.525
POINT_DATA 238328
FIELD FieldData 1
potential 1 238328 double
0.0140917 0.0140974 0.014103 0.0141086 0.0141142 0.0141199 0.0141255 0.0141312 0.0141368 
0.0141424 0.0141481 0.0141538 0.0141594 0.0141651 0.0141707 0.0141764 0.0141821 0.0141878 
0.0141934 0.0141991 0.0142048 0.0142105 0.0142162 0.0142219 0.0142276 0.0142333 0.014239 
0.0142447 0.0142504 0.0142562 0.0142619 0.0142676 0.0142733 0.0142791 0.0142848 0.0142906 
0.0142963 0.0143021 0.0143078 0.0143136 0.0143193 0.0143251 0.0143309 0.0143366 0.0143424 
0.0143482 0.014354 0.0143598 0.0143656 0.0143713 0.0143771 0.0143829 0.0143888 0.0143946 
0.0144004 0.0144062 0.014412 0.0144178 0.0144237 0.0144295 0.0144353 0.0144412 0.0140962 
0.0141019 0.0141075 0.0141131 0.0141187 0.0141244 0.01413 0.0141357 0.0141413 0.014147 
0.0141526 0.0141583 0.014164 0.0141696 0.0141753 0.014181 0.0141866 0.0141923 0.014198 
0.0142037 0.0142094 0.0142151 0.0142208 0.0142265 0.0142322 0.0142379 0.0142436 0.0142493 
0.0142551 0.0142608 0.0142665 0.0142723 0.014278 0.0142837 0.0142895 0.0142952 0.014301 
0.0143067 0.0143125 0.0143183 0.014324 0.0143298 0.0143356 0.0143413 0.0143471 0.0143529 
0.0143587 0.0143645 0.0143703 0.0143761 0.0143819 0.0143877 0.0143935 0.0143993 0.0144051 
0.0144109 0.0144168 0.0144226 0.0144284 0.0144343 0.0144401 0.014446 0.0141007 0.0141063 
0.014112 0.0141176 0.0141233 0.0141289 0.0141345 0.0141402 0.0141458 0.0141515 0.0141572 
0.0141628 0.0141685 0.0141742 0.0141798 0.0141855 0.0141912 0.0141969 0.0142026 0.0142083 
0.014214 0.0142197 0.0142254 0.0142311 0.0142368 0.0142425 0.0142482 0.014254 0.0142597 
0.0142654 0.0142712 0.0142769 0.0142826 0.0142884 0.0142941 0.0142999 0.0143056 0.0143114 
0.0143172 0.0143229 0.0143287 0.0143345 0.0143403 0.014346 0.0143518 0.0143576 0.0143634 
0.0143692 0.014375 0.0143808 0.0143866 0.0143924 0.0143982 0.0144041 0.0144099 0.0144157 
0.0144215 0.0144274 0.0144332 0.0144391 0.0144449 0.0144507 0.0141052 0.0141108 0.0141165 
0.0141221 0.0141278 0.0141334 0.0141391 0.0141447 0.0141504 0.014156 0.0141617 0.0141674 
0.014173 0.0141787 0.0141844 0.0141901 0.0141958 0.0142015 0.0142072 0.0142129 0.0142186 
0.0142243 0.01423 0.0142357 0.0142414 0.0142471 0.0142529 0.0142586 0.0142643 0.01427 
0.0142758 0.0142815 0.0142873 0.014293 0.0142988 0.0143045 0.0143103 0.0143161 0.0143218 
0.0143276 0.0143334 0.0143392 0.0143449 0.0143507 0.0143565 0.0143623 0.0143681 0.0143739 
0.0143797 0.0143855 0.0143913 0.0143972 0.014403 0.0144088 0.0144146 0.0144205 0.0144263 
0.0144321 0.014438 0.0144438 0.0144497 0.0144555 0.0141097 0.0141153 0.014121 0.0141266 
0.0141323 0.0141379 0.0141436 0.0141492 0.0141549 0.0141606 0.0141662 0.0141719 0.0141776 
0.0141833 0.014189 0.0141946 0.0142003 0.014206 0.0142117 0.0142174 0.0142231 0.0142289 
0.0142346 0.0142403 0.014246 0.0142517 0.0142575 0.0142632 0.0142689 0.0142747 0.0142804 
0.0142862 0.0142919 0.0142977 0.0143034 0.0143092 0.014315 0.0143207 0.0143265 0.0143323 
0.0143381 0.0143438 0.0143496 0.0143554 0.0143612 0.014367 0.0143728 0.0143786 0.0143844 
0.0143903 0.0143961 0.0144019 0.0144077 0.0144136 0.0144194 0.0144252 0.0144311 0.0144369 
0.0144428 0.0144486 0.0144545 0.0144603 0.0141142 0.0141198 0.0141255 0.0141311 0.0141368 
0.0141424 0.0141481 0.0141538 0.0141594 0.0141651 0.0141708 0.0141764 0.0141821 0.0141878 
0.0141935 0.0141992 0.0142049 0.0142106 0.0142163 0.014222 0.0142277 0.0142334 0.0142392 
0.0142449 0.0142506 0.0142563 0.0142621 0.0142678 0.0142736 0.0142793 0.0142851 0.0142908 
0.0142966 0.0143023 0.0143081 0.0143139 0.0143196 0.0143254 0.0143312 0.014337 0.0143427 
0.0143485 0.0143543 0.0143601 0.0143659 0.0143717 0.0143775 0.0143834 0.0143892 0.014395 
0.0144008 0.0144066 0.0144125 0.0144183 0.0144241 0.01443 0.0144358 0.0144417 0.0144475 
0.0144534 0.0144592 0.0144651 0.0141187 0.0141243 0.01413 0.0141356 0.0141413 0.0141469 
0.0141526 0.0141583 0.0141639 0.0141696 0.0141753 0.014181 0.0141867 0.0141924 0.0141981 
0.0142038 0.0142095 0.0142152 0.0142209 0.0142266 0.0142323 0.014238 0.0142438 0.0142495 
0.0142552 0.014261 0.0142667 0.0142724 0.0142782 0.0142839 0.0142897 0.0142954 0.0143012 
0.014307 0.0143127 0.0143185 0.0143243 0.0143301 0.0143358 0.0143416 0.0143474 0.0143532 
0.014359 0.0143648 0.0143706 0.0143764 0.0143823 0.0143881 0.0143939 0.0143997 0.0144055 
0.0144114 0.0144172 0.014423 0.0144289 0.0144347 0.0144406 0.0144464 0.0144523 0.0144582 
0.014464 0.0144699 0.0141232 0.0141288 0.0141345 0.0141401 0.0141458 0.0141514 0.0141571 
0.0141628 0.0141685 0.0141742 0.0141798 0.0141855 0.0141912 0.0141969 0.0142026 0.0142083 
0.014214 0.0142197 0.0142255 0.0142312 0.0142369 0.0142426 0.0142483 0.0142541 0.0142598 
0.0142656 0.0142713 0.014277 0.0142828 0.0142886 0.0142943 0.0143001 0.0143058 0.0143116 
0.0143174 0.0143232 0.0143289 0.0143347 0.0143405 0.0143463 0.0143521 0.0143579 0.0143637 
0.0143695 0.0143753 0.0143811 0.014387 0.0143928 0.0143986 0.0144044 0.0144103 0.0144161 
0.014422 0.0144278 0.0144336 0.0144395 0.0144454 0.0144512 0.0144571 0.0144629 0.0144688 
0.0144747 0.0141276 0.0141333 0.014139 0.0141446 0.0141503 0.014156 0.0141616 0.0141673 
0.014173 0.0141787 0.0141844 0.0141901 0.0141958 0.0142015 0.0142072 0.0142129 0.0142186 
0.0142243 0.01423 0.0142357 0.0142415 0.0142472 0.0142529 0.0142587 0.0142644 0.0142702 
0.0142759 0.0142817 0.0142874 0.0142932 0.0142989 0.0143047 0.0143105 0.0143163 0.014322 
0.0143278 0.0143336 0.0143394 0.0143452 0.014351 0.0143568 0.0143626 0.0143684 0.0143742 
0.01438 0.0143859 0.0143917 0.0143975 0.0144033 0.0144092 0.014415 0.0144208 0.0144267 
0.0144325 0.0144384 0.0144443 0.0144501 0.014456 0.0144618 0.0144677 0.0144736 0.0144795 
0.0141321 0.0141378 0.0141435 0.0141491 0.0141548 0.0141605 0.0141662 0.0141718 0.0141775 
0.0141832 0.0141889 0.0141946 0.0142003 0.014206 0.0142117 0.0142174 0.0142232 0.0142289 
0.0142346 0.0142403 0.0142461 0.0142518 0.0142575 0.0142633 0.014269 0.0142748 0.0142805 
0.0142863 0.014292 0.0142978 0.0143036 0.0143094 0.0143151 0.0143209 0.0143267 0.0143325 
0.0143383 0.0143441 0.0143499 0.0143557 0.0143615 0.0143673 0.0143731 0.0143789 0.0143847 
0.0143906 0.0143964 0.0144022 0.0144081 0.0144139 0.0144197 0.0144256 0.0144314 0.0144373 
0.0144431 0.014449 0.0144549 0.0144607 0.0144666 0.0144725 0.0144784 0.0144843 0.0141366 
0.0141423 0.0141479 0.0141536 0.0141593 0.014165 0.0141707 0.0141764 0.014182 0.0141877 
0.0141934 0.0141991 0.0142049 0.0142106 0.0142163 0.014222 0.0142277 0.0142334 0.0142392 
0.0142449 0.0142506 0.0142564 0.0142621 0.0142679 0.0142736 0.0142794 0.0142851 0.0142909 
0.0142967 0.0143024 0.0143082 0.014314 0.0143198 0.0143256 0.0143313 0.0143371 0.0143429 
0.0143487 0.0143545 0.0143603 0.0143662 0.014372 0.0143778 0.0143836 0.0143894 0.0143953 
0.0144011 0.0144069 0.0144128 0.0144186 0.0144245 0.0144303 0.0144362 0.014442 0.0144479 
0.0144538 0.0144596 0.0144655 0.0144714 0.0144773 0.0144832 0.0144891 0.0141411 0.0141468 
0.0141524 0.0141581 0.0141638 0.0141695 0.0141752 0.0141809 0.0141866 0.0141923 0.014198 
0.0142037 0.0142094 0.0142151 0.0142208 0.0142266 0.0142323 0.014238 0.0142437 0.0142495 
0.0142552 0.014261 0.0142667 0.0142725 0.0142782 0.014284 0.0142898 0.0142955 0.0143013 
0.0143071 0.0143128 0.0143186 0.0143244 0.0143302 0.014336 0.0143418 0.0143476 0.0143534 
0.0143592 0.014365 0.0143708 0.0143767 0.0143825 0.0143883 0.0143941 0.0144 0.0144058 
0.0144117 0.0144175 0.0144233 0.0144292 0.0144351 0.0144409 0.0144468 0.0144527 0.0144585 
0.0144644 0.0144703 0.0144762 0.0144821 0.0144879 0.0144938 0.0141456 0.0141513 0.0141569 
0.0141626 0.0141683 0.014174 0.0141797 0.0141854 0.0141911 0.0141968 0.0142025 0.0142082 
0.0142139 0.0142197 0.0142254 0.0142311 0.0142368 0.0142426 0.0142483 0.0142541 0.0142598 
0.0142656 0.0142713 0.0142771 0.0142828 0.0142886 0.0142944 0.0143001 0.0143059 0.0143117 
0.0143175 0.0143233 0.0143291 0.0143348 0.0143406 0.0143464 0.0143523 0.0143581 0.0143639 
0.0143697 0.0143755 0.0143813 0.0143872 0.014393 0.0143988 0.0144047 0.0144105 0.0144164 
0.0144222 0.0144281 0.0144339 0.0144398 0.0144457 0.0144515 0.0144574 0.0144633 0.0144692 
0.0144751 0.0144809 0.0144868 0.0144927 0.0144986 0.0141501 0.0141557 0.0141614 0.0141671 
0.0141728 0.0141785 0.0141842 0.0141899 0.0141956 0.0142013 0.014207 0.0142128 0.0142185 
0.0142242 0.0142299 0.0142357 0.0142414 0.0142471 0.0142529 0.0142586 0.0142644 0.0142701 
0.0142759 0.0142817 0.0142874 0.0142932 0.014299 0.0143048 0.0143105 0.0143163 0.0143221 
0.0143279 0.0143337 0.0143395 0.0143453 0.0143511 0.0143569 0.0143627 0.0143686 0.0143744 
0.0143802 0.014386 0.0143919 0.0143977 0.0144035 0.0144094 0.0144152 0.0144211 0.0144269 
0.0144328 0.0144387 0.0144445 0.0144504 0.0144563 0.0144622 0.014468 0.0144739 0.0144798 
0.0144857 0.0144916 0.0144975 0.0145034 0.0141546 0.0141602 0.0141659 0.0141716 0.0141773 
0.014183 0.0141887 0.0141944 0.0142001 0.0142059 0.0142116 0.0142173 0.014223 0.0142288 
0.0142345 0.0142402 0.014246 0.0142517 0.0142575 0.0142632 0.014269 0.0142747 0.0142805 
0.0142863 0.014292 0.0142978 0.0143036 0.0143094 0.0143152 0.0143209 0.0143267 0.0143325 
0.0143383 0.0143441 0.0143499 0.0143558 0.0143616 0.0143674 0.0143732 0.014379 0.0143849 
0.0143907 0.0143966 0.0144024 0.0144082 0.0144141 0.0144199 0.0144258 0.0144317 0.0144375 
0.0144434 0.0144493 0.0144551 0.014461 0.0144669 0.0144728 0.0144787 0.0144846 0.0144905 
0.0144964 0.0145023 0.0145082 0.014159 0.0141647 0.0141704 0.0141761 0.0141818 0.0141875 
0.0141932 0.014199 0.0142047 0.0142104 0.0142161 0.0142218 0.0142276 0.0142333 0.014239 
0.0142448 0.0142505 0.0142563 0.014262 0.0142678 0.0142736 0.0142793 0.0142851 0.0142909 
0.0142966 0.0143024 0.0143082 0.014314 0.0143198 0.0143256 0.0143314 0.0143372 0.014343 
0.0143488 0.0143546 0.0143604 0.0143662 0.0143721 0.0143779 0.0143837 0.0143896 0.0143954 
0.0144012 0.0144071 0.0144129 0.0144188 0.0144247 0.0144305 0.0144364 0.0144423 0.0144481 
0.014454 0.0144599 0.0144658 0.0144717 0.0144776 0.0144835 0.0144894 0.0144953 0.0145012 
0.0145071 0.014513 0.0141635 0.0141692 0.0141749 0.0141806 0.0141863 0.014192 0.0141978 
0.0142035 0.0142092 0.0142149 0.0142206 0.0142264 0.0142321 0.0142379 0.0142436 0.0142493 
0.0142551 0.0142608 0.0142666 0.0142724 0.0142781 0.0142839 0.0142897 0.0142955 0.0143012 
0.014307 0.0143128 0.0143186 0.0143244 0.0143302 0.014336 0.0143418 0.0143476 0.0143534 
0.0143593 0.0143651 0.0143709 0.0143767 0.0143826 0.0143884 0.0143942 0.0144001 0.0144059 
0.0144118 0.0144176 0.0144235 0.0144294 0.0144352 0.0144411 0.014447 0.0144529 0.0144587 
0.0144646 0.0144705 0.0144764 0.0144823 0.0144882 0.0144941 0.0145 0.0145059 0.0145119 
0.0145178 0.014168 0.0141737 0.0141794 0.0141851 0.0141908 0.0141965 0.0142023 0.014208 
0.0142137 0.0142194 0.0142252 0.0142309 0.0142367 0.0142424 0.0142481 0.0142539 0.0142597 
0.0142654 0.0142712 0.0142769 0.0142827 0.0142885 0.0142943 0.0143001 0.0143058 0.0143116 
0.0143174 0.0143232 0.014329 0.0143348 0.0143406 0.0143464 0.0143523 0.0143581 0.0143639 
0.0143697 0.0143756 0.0143814 0.0143872 0.0143931 0.0143989 0.0144048 0.0144106 0.0144165 
0.0144223 0.0144282 0.0144341 0.01444 0.0144458 0.0144517 0.0144576 0.0144635 0.0144694 
0.0144753 0.0144812 0.0144871 0.014493 0.0144989 0.0145048 0.0145107 0.0145166 0.0145226 
0.0141725 0.0141782 0.0141839 0.0141896 0.0141953 0.0142011 0.0142068 0.0142125 0.0142182 
0.014224 0.0142297 0.0142355 0.0142412 0.0142469 0.0142527 0.0142585 0.0142642 0.01427 
0.0142758 0.0142815 0.0142873 0.0142931 0.0142989 0.0143046 0.0143104 0.0143162 0.014322 
0.0143278 0.0143336 0.0143395 0.0143453 0.0143511 0.0143569 0.0143627 0.0143686 0.0143744 
0.0143802 0.0143861 0.0143919 0.0143978 0.0144036 0.0144095 0.0144153 0.0144212 0.014427 
0.0144329 0.0144388 0.0144447 0.0144506 0.0144564 0.0144623 0.0144682 0.0144741 0.01448 
0.0144859 0.0144918 0.0144977 0.0145037 0.0145096 0.0145155 0.0145214 0.0145274 0.014177 
0.0141827 0.0141884 0.0141941 0.0141998 0.0142056 0.0142113 0.014217 0.0142228 0.0142285 
0.0142342 0.01424 0.0142457 0.0142515 0.0142573 0.014263 0.0142688 0.0142746 0.0142803 
0.0142861 0.0142919 0.0142977 0.0143035 0.0143092 0.014315 0.0143208 0.0143266 0.0143325 
0.0143383 0.0143441 0.0143499 0.0143557 0.0143615 0.0143674 0.0143732 0.014379 0.0143849 
0.0143907 0.0143966 0.0144024 0.0144083 0.0144141 0.01442 0.0144259 0.0144317 0.0144376 
0.0144435 0.0144494 0.0144553 0.0144612 0.0144671 0.014473 0.0144789 0.0144848 0.0144907 
0.0144966 0.0145025 0.0145084 0.0145144 0.0145203 0.0145262 0.0145321 0.0141815 0.0141872 
0.0141929 0.0141986 0.0142043 0.0142101 0.0142158 0.0142215 0.0142273 0.014233 0.0142388 
0.0142445 0.0142503 0.014256 0.0142618 0.0142676 0.0142733 0.0142791 0.0142849 0.0142907 
0.0142965 0.0143023 0.014308 0.0143138 0.0143196 0.0143254 0.0143313 0.0143371 0.0143429 
0.0143487 0.0143545 0.0143604 0.0143662 0.014372 0.0143779 0.0143837 0.0143895 0.0143954 
0.0144012 0.0144071 0.014413 0.0144188 0.0144247 0.0144306 0.0144365 0.0144423 0.0144482 
0.0144541 0.01446 0.0144659 0.0144718 0.0144777 0.0144836 0.0144895 0.0144954 0.0145013 
0.0145073 0.0145132 0.0145191 0.0145251 0.014531 0.0145369 0.0141859 0.0141917 0.0141974 
0.0142031 0.0142088 0.0142146 0.0142203 0.0142261 0.0142318 0.0142376 0.0142433 0.0142491 
0.0142548 0.0142606 0.0142664 0.0142721 0.0142779 0.0142837 0.0142895 0.0142953 0.014301 
0.0143068 0.0143126 0.0143184 0.0143242 0.0143301 0.0143359 0.0143417 0.0143475 0.0143533 
0.0143592 0.014365 0.0143708 0.0143767 0.0143825 0.0143884 0.0143942 0.0144001 0.0144059 
0.0144118 0.0144176 0.0144235 0.0144294 0.0144353 0.0144412 0.014447 0.0144529 0.0144588 
0.0144647 0.0144706 0.0144765 0.0144824 0.0144883 0.0144943 0.0145002 0.0145061 0.014512 
0.014518 0.0145239 0.0145298 0.0145358 0.0145417 0.0141904 0.0141962 0.0142019 0.0142076 
0.0142134 0.0142191 0.0142248 0.0142306 0.0142363 0.0142421 0.0142478 0.0142536 0.0142594 
0.0142651 0.0142709 0.0142767 0.0142825 0.0142883 0.014294 0.0142998 0.0143056 0.0143114 
0.0143172 0.014323 0.0143288 0.0143347 0.0143405 0.0143463 0.0143521 0.014358 0.0143638 
0.0143696 0.0143755 0.0143813 0.0143872 0.014393 0.0143989 0.0144047 0.0144106 0.0144165 
0.0144223 0.0144282 0.0144341 0.01444 0.0144459 0.0144517 0.0144576 0.0144635 0.0144694 
0.0144753 0.0144813 0.0144872 0.0144931 0.014499 0.0145049 0.0145109 0.0145168 0.0145227 
0.0145287 0.0145346 0.0145406 0.0145465 0.0141949 0.0142006 0.0142064 0.0142121 0.0142179 
0.0142236 0.0142293 0.0142351 0.0142409 0.0142466 0.0142524 0.0142581 0.0142639 0.0142697 
0.0142755 0.0142812 0.014287 0.0142928 0.0142986 0.0143044 0.0143102 0.014316 0.0143218 
0.0143276 0.0143334 0.0143393 0.0143451 0.0143509 0.0143567 0.0143626 0.0143684 0.0143743 
0.0143801 0.014386 0.0143918 0.0143977 0.0144035 0.0144094 0.0144153 0.0144211 0.014427 
0.0144329 0.0144388 0.0144447 0.0144506 0.0144565 0.0144623 0.0144683 0.0144742 0.0144801 
0.014486 0.0144919 0.0144978 0.0145038 0.0145097 0.0145156 0.0145216 0.0145275 0.0145334 
0.0145394 0.0145453 0.0145513 0.0141994 0.0142051 0.0142109 0.0142166 0.0142224 0.0142281 
0.0142339 0.0142396 0.0142454 0.0142511 0.0142569 0.0142627 0.0142685 0.0142742 0.01428 
0.0142858 0.0142916 0.0142974 0.0143032 0.014309 0.0143148 0.0143206 0.0143264 0.0143322 
0.014338 0.0143439 0.0143497 0.0143555 0.0143614 0.0143672 0.014373 0.0143789 0.0143847 
0.0143906 0.0143965 0.0144023 0.0144082 0.0144141 0.0144199 0.0144258 0.0144317 0.0144376 
0.0144435 0.0144494 0.0144553 0.0144612 0.0144671 0.014473 0.0144789 0.0144848 0.0144907 
0.0144966 0.0145026 0.0145085 0.0145144 0.0145204 0.0145263 0.0145323 0.0145382 0.0145442 
0.0145501 0.0145561 0.0142039 0.0142096 0.0142154 0.0142211 0.0142269 0.0142326 0.0142384 
0.0142441 0.0142499 0.0142557 0.0142614 0.0142672 0.014273 0.0142788 0.0142846 0.0142904 
0.0142962 0.014302 0.0143078 0.0143136 0.0143194 0.0143252 0.014331 0.0143368 0.0143426 
0.0143485 0.0143543 0.0143601 0.014366 0.0143718 0.0143777 0.0143835 0.0143894 0.0143952 
0.0144011 0.014407 0.0144128 0.0144187 0.0144246 0.0144305 0.0144364 0.0144423 0.0144482 
0.0144541 0.01446 0.0144659 0.0144718 0.0144777 0.0144836 0.0144895 0.0144954 0.0145014 
0.0145073 0.0145132 0.0145192 0.0145251 0.0145311 0.014537 0.014543 0.0145489 0.0145549 
0.0145609 0.0142084 0.0142141 0.0142199 0.0142256 0.0142314 0.0142371 0.0142429 0.0142487 
0.0142544 0.0142602 0.014266 0.0142718 0.0142775 0.0142833 0.0142891 0.0142949 0.0143007 
0.0143065 0.0143123 0.0143181 0.014324 0.0143298 0.0143356 0.0143414 0.0143472 0.0143531 
0.0143589 0.0143648 0.0143706 0.0143765 0.0143823 0.0143882 0.014394 0.0143999 0.0144058 
0.0144116 0.0144175 0.0144234 0.0144293 0.0144352 0.0144411 0.0144469 0.0144528 0.0144587 
0.0144647 0.0144706 0.0144765 0.0144824 0.0144883 0.0144942 0.0145002 0.0145061 0.0145121 
0.014518 0.0145239 0.0145299 0.0145358 0.0145418 0.0145478 0.0145537 0.0145597 0.0145657 
0.0142129 0.0142186 0.0142244 0.0142301 0.0142359 0.0142416 0.0142474 0.0142532 0.0142589 
0.0142647 0.0142705 0.0142763 0.0142821 0.0142879 0.0142937 0.0142995 0.0143053 0.0143111 
0.0143169 0.0143227 0.0143285 0.0143344 0.0143402 0.014346 0.0143518 0.0143577 0.0143635 
0.0143694 0.0143752 0.0143811 0.0143869 0.0143928 0.0143987 0.0144045 0.0144104 0.0144163 
0.0144222 0.0144281 0.0144339 0.0144398 0.0144457 0.0144516 0.0144575 0.0144634 0.0144694 
0.0144753 0.0144812 0.0144871 0.014493 0.014499 0.0145049 0.0145108 0.0145168 0.0145227 
0.0145287 0.0145346 0.0145406 0.0145466 0.0145525 0.0145585 0.0145645 0.0145705 0.0142173 
0.0142231 0.0142288 0.0142346 0.0142404 0.0142461 0.0142519 0.0142577 0.0142635 0.0142692 
0.014275 0.0142808 0.0142866 0.0142924 0.0142982 0.014304 0.0143098 0.0143156 0.0143215 
0.0143273 0.0143331 0.0143389 0.0143448 0.0143506 0.0143564 0.0143623 0.0143681 0.014374 
0.0143798 0.0143857 0.0143916 0.0143974 0.0144033 0.0144092 0.0144151 0.0144209 0.0144268 
0.0144327 0.0144386 0.0144445 0.0144504 0.0144563 0.0144622 0.0144681 0.0144741 0.01448 
0.0144859 0.0144918 0.0144978 0.0145037 0.0145096 0.0145156 0.0145215 0.0145275 0.0145334 
0.0145394 0.0145454 0.0145513 0.0145573 0.0145633 0.0145693 0.0145752 0.0142218 0.0142276 
0.0142333 0.0142391 0.0142449 0.0142506 0.0142564 0.0142622 0.014268 0.0142738 0.0142796 
0.0142854 0.0142912 0.014297 0.0143028 0.0143086 0.0143144 0.0143202 0.014326 0.0143319 
0.0143377 0.0143435 0.0143494 0.0143552 0.014361 0.0143669 0.0143728 0.0143786 0.0143845 
0.0143903 0.0143962 0.0144021 0.0144079 0.0144138 0.0144197 0.0144256 0.0144315 0.0144374 
0.0144433 0.0144492 0.0144551 0.014461 0.0144669 0.0144728 0.0144788 0.0144847 0.0144906 
0.0144965 0.0145025 0.0145084 0.0145144 0.0145203 0.0145263 0.0145322 0.0145382 0.0145442 
0.0145501 0.0145561 0.0145621 0.0145681 0.014574 0.01458 0.0142263 0.0142321 0.0142378 
0.0142436 0.0142494 0.0142552 0.0142609 0.0142667 0.0142725 0.0142783 0.0142841 0.0142899 
0.0142957 0.0143015 0.0143073 0.0143131 0.014319 0.0143248 0.0143306 0.0143364 0.0143423 
0.0143481 0.014354 0.0143598 0.0143656 0.0143715 0.0143774 0.0143832 0.0143891 0.014395 
0.0144008 0.0144067 0.0144126 0.0144185 0.0144244 0.0144303 0.0144361 0.014442 0.014448 
0.0144539 0.0144598 0.0144657 0.0144716 0.0144775 0.0144835 0.0144894 0.0144953 0.0145013 
0.0145072 0.0145132 0.0145191 0.0145251 0.014531 0.014537 0.0145429 0.0145489 0.0145549 
0.0145609 0.0145668 0.0145728 0.0145788 0.0145848 0.0142308 0.0142366 0.0142423 0.0142481 
0.0142539 0.0142597 0.0142654 0.0142712 0.014277 0.0142828 0.0142886 0.0142944 0.0143002 
0.0143061 0.0143119 0.0143177 0.0143235 0.0143293 0.0143352 0.014341 0.0143469 0.0143527 
0.0143585 0.0143644 0.0143702 0.0143761 0.014382 0.0143878 0.0143937 0.0143996 0.0144055 
0.0144113 0.0144172 0.0144231 0.014429 0.0144349 0.0144408 0.0144467 0.0144526 0.0144585 
0.0144645 0.0144704 0.0144763 0.0144822 0.0144882 0.0144941 0.0145 0.014506 0.0145119 
0.0145179 0.0145238 0.0145298 0.0145358 0.0145417 0.0145477 0.0145537 0.0145596 0.0145656 
0.0145716 0.0145776 0.0145836 0.0145896 0.0142353 0.014241 0.0142468 0.0142526 0.0142584 
0.0142642 0.01427 0.0142758 0.0142816 0.0142874 0.0142932 0.014299 0.0143048 0.0143106 
0.0143164 0.0143222 0.0143281 0.0143339 0.0143397 0.0143456 0.0143514 0.0143573 0.0143631 
0.014369 0.0143748 0.0143807 0.0143866 0.0143925 0.0143983 0.0144042 0.0144101 0.014416 
0.0144219 0.0144278 0.0144337 0.0144396 0.0144455 0.0144514 0.0144573 0.0144632 0.0144691 
0.0144751 0.014481 0.0144869 0.0144929 0.0144988 0.0145047 0.0145107 0.0145166 0.0145226 
0.0145286 0.0145345 0.0145405 0.0145465 0.0145524 0.0145584 0.0145644 0.0145704 0.0145764 
0.0145824 0.0145884 0.0145944 0.0142398 0.0142455 0.0142513 0.0142571 0.0142629 0.0142687 
0.0142745 0.0142803 0.0142861 0.0142919 0.0142977 0.0143035 0.0143093 0.0143151 0.014321 
0.0143268 0.0143326 0.0143385 0.0143443 0.0143502 0.014356 0.0143619 0.0143677 0.0143736 
0.0143794 0.0143853 0.0143912 0.0143971 0.0144029 0.0144088 0.0144147 0.0144206 0.0144265 
0.0144324 0.0144383 0.0144442 0.0144501 0.014456 0.014462 0.0144679 0.0144738 0.0144797 
0.0144857 0.0144916 0.0144976 0.0145035 0.0145095 0.0145154 0.0145214 0.0145273 0.0145333 
0.0145393 0.0145452 0.0145512 0.0145572 0.0145632 0.0145692 0.0145752 0.0145812 0.0145872 
0.0145932 0.0145992 0.0142442 0.01425 0.0142558 0.0142616 0.0142674 0.0142732 0.014279 
0.0142848 0.0142906 0.0142964 0.0143022 0.014308 0.0143139 0.0143197 0.0143255 0.0143314 
0.0143372 0.014343 0.0143489 0.0143547 0.0143606 0.0143664 0.0143723 0.0143782 0.014384 
0.0143899 0.0143958 0.0144017 0.0144076 0.0144135 0.0144193 0.0144252 0.0144311 0.014437 
0.014443 0.0144489 0.0144548 0.0144607 0.0144666 0.0144726 0.0144785 0.0144844 0.0144904 
0.0144963 0.0145023 0.0145082 0.0145142 0.0145201 0.0145261 0.0145321 0.014538 0.014544 
0.01455 0.014556 0.0145619 0.0145679 0.0145739 0.0145799 0.0145859 0.0145919 0.0145979 
0.014604 0.0142487 0.0142545 0.0142603 0.0142661 0.0142719 0.0142777 0.0142835 0.0142893 
0.0142951 0.0143009 0.0143068 0.0143126 0.0143184 0.0143242 0.0143301 0.0143359 0.0143418 
0.0143476 0.0143535 0.0143593 0.0143652 0.014371 0.0143769 0.0143828 0.0143886 0.0143945 
0.0144004 0.0144063 0.0144122 0.0144181 0.014424 0.0144299 0.0144358 0.0144417 0.0144476 
0.0144535 0.0144594 0.0144654 0.0144713 0.0144772 0.0144832 0.0144891 0.0144951 0.014501 
0.014507 0.0145129 0.0145189 0.0145248 0.0145308 0.0145368 0.0145428 0.0145487 0.0145547 
0.0145607 0.0145667 0.0145727 0.0145787 0.0145847 0.0145907 0.0145967 0.0146027 0.0146087 
0.0142532 0.014259 0.0142648 0.0142706 0.0142764 0.0142822 0.014288 0.0142938 0.0142996 
0.0143055 0.0143113 0.0143171 0.0143229 0.0143288 0.0143346 0.0143405 0.0143463 0.0143522 
0.014358 0.0143639 0.0143697 0.0143756 0.0143815 0.0143874 0.0143932 0.0143991 0.014405 
0.0144109 0.0144168 0.0144227 0.0144286 0.0144345 0.0144404 0.0144463 0.0144523 0.0144582 
0.0144641 0.01447 0.014476 0.0144819 0.0144878 0.0144938 0.0144997 0.0145057 0.0145117 
0.0145176 0.0145236 0.0145296 0.0145355 0.0145415 0.0145475 0.0145535 0.0145595 0.0145655 
0.0145714 0.0145774 0.0145835 0.0145895 0.0145955 0.0146015 0.0146075 0.0146135 0.0142577 
0.0142635 0.0142693 0.0142751 0.0142809 0.0142867 0.0142925 0.0142983 0.0143042 0.01431 
0.0143158 0.0143216 0.0143275 0.0143333 0.0143392 0.014345 0.0143509 0.0143567 0.0143626 
0.0143685 0.0143743 0.0143802 0.0143861 0.014392 0.0143978 0.0144037 0.0144096 0.0144155 
0.0144214 0.0144273 0.0144332 0.0144391 0.0144451 0.014451 0.0144569 0.0144628 0.0144688 
0.0144747 0.0144806 0.0144866 0.0144925 0.0144985 0.0145044 0.0145104 0.0145164 0.0145223 
0.0145283 0.0145343 0.0145402 0.0145462 0.0145522 0.0145582 0.0145642 0.0145702 0.0145762 
0.0145822 0.0145882 0.0145942 0.0146002 0.0146063 0.0146123 0.0146183 0.0142622 0.014268 
0.0142738 0.0142796 0.0142854 0.0142912 0.014297 0.0143028 0.0143087 0.0143145 0.0143203 
0.0143262 0.014332 0.0143379 0.0143437 0.0143496 0.0143554 0.0143613 0.0143672 0.014373 
0.0143789 0.0143848 0.0143907 0.0143966 0.0144024 0.0144083 0.0144142 0.0144201 0.014426 
0.0144319 0.0144379 0.0144438 0.0144497 0.0144556 0.0144616 0.0144675 0.0144734 0.0144794 
0.0144853 0.0144913 0.0144972 0.0145032 0.0145091 0.0145151 0.0145211 0.014527 0.014533 
0.014539 0.014545 0.014551 0.0145569 0.0145629 0.0145689 0.0145749 0.0145809 0.014587 
0.014593 0.014599 0.014605 0.014611 0.0146171 0.0146231 0.0142666 0.0142724 0.0142783 
0.0142841 0.0142899 0.0142957 0.0143015 0.0143074 0.0143132 0.014319 0.0143249 0.0143307 
0.0143366 0.0143424 0.0143483 0.0143541 0.01436 0.0143659 0.0143717 0.0143776 0.0143835 
0.0143894 0.0143953 0.0144011 0.014407 0.0144129 0.0144188 0.0144247 0.0144307 0.0144366 
0.0144425 0.0144484 0.0144543 0.0144603 0.0144662 0.0144721 0.0144781 0.014484 0.01449 
0.0144959 0.0145019 0.0145078 0.0145138 0.0145198 0.0145258 0.0145317 0.0145377 0.0145437 
0.0145497 0.0145557 0.0145617 0.0145677 0.0145737 0.0145797 0.0145857 0.0145917 0.0145977 
0.0146038 0.0146098 0.0146158 0.0146219 0.0146279 0.0142711 0.0142769 0.0142827 0.0142886 
0.0142944 0.0143002 0.014306 0.0143119 0.0143177 0.0143236 0.0143294 0.0143352 0.0143411 
0.014347 0.0143528 0.0143587 0.0143646 0.0143704 0.0143763 0.0143822 0.0143881 0.014394 
0.0143998 0.0144057 0.0144116 0.0144175 0.0144234 0.0144294 0.0144353 0.0144412 0.0144471 
0.014453 0.014459 0.0144649 0.0144708 0.0144768 0.0144827 0.0144887 0.0144946 0.0145006 
0.0145066 0.0145125 0.0145185 0.0145245 0.0145304 0.0145364 0.0145424 0.0145484 0.0145544 
0.0145604 0.0145664 0.0145724 0.0145784 0.0145844 0.0145904 0.0145965 0.0146025 0.0146085 
0.0146146 0.0146206 0.0146266 0.0146327 0.0142756 0.0142814 0.0142872 0.0142931 0.0142989 
0.0143047 0.0143106 0.0143164 0.0143222 0.0143281 0.0143339 0.0143398 0.0143456 0.0143515 
0.0143574 0.0143632 0.0143691 0.014375 0.0143809 0.0143868 0.0143926 0.0143985 0.0144044 
0.0144103 0.0144162 0.0144221 0.0144281 0.014434 0.0144399 0.0144458 0.0144517 0.0144577 
0.0144636 0.0144696 0.0144755 0.0144814 0.0144874 0.0144934 0.0144993 0.0145053 0.0145112 
0.0145172 0.0145232 0.0145292 0.0145351 0.0145411 0.0145471 0.0145531 0.0145591 0.0145651 
0.0145711 0.0145771 0.0145832 0.0145892 0.0145952 0.0146012 0.0146073 0.0146133 0.0146193 
0.0146254 0.0146314 0.0146375 0.0142801 0.0142859 0.0142917 0.0142976 0.0143034 0.0143092 
0.0143151 0.0143209 0.0143268 0.0143326 0.0143385 0.0143443 0.0143502 0.014356 0.0143619 
0.0143678 0.0143737 0.0143795 0.0143854 0.0143913 0.0143972 0.0144031 0.014409 0.0144149 
0.0144208 0.0144267 0.0144327 0.0144386 0.0144445 0.0144504 0.0144564 0.0144623 0.0144682 
0.0144742 0.0144801 0.0144861 0.0144921 0.014498 0.014504 0.0145099 0.0145159 0.0145219 
0.0145279 0.0145339 0.0145398 0.0145458 0.0145518 0.0145578 0.0145638 0.0145698 0.0145759 
0.0145819 0.0145879 0.0145939 0.0145999 0.014606 0.014612 0.0146181 0.0146241 0.0146301 
0.0146362 0.0146423 0.0142846 0.0142904 0.0142962 0.014302 0.0143079 0.0143137 0.0143196 
0.0143254 0.0143313 0.0143371 0.014343 0.0143488 0.0143547 0.0143606 0.0143665 0.0143723 
0.0143782 0.0143841 0.01439 0.0143959 0.0144018 0.0144077 0.0144136 0.0144195 0.0144254 
0.0144313 0.0144373 0.0144432 0.0144491 0.0144551 0.014461 0.0144669 0.0144729 0.0144788 
0.0144848 0.0144907 0.0144967 0.0145027 0.0145086 0.0145146 0.0145206 0.0145266 0.0145326 
0.0145386 0.0145445 0.0145505 0.0145565 0.0145625 0.0145686 0.0145746 0.0145806 0.0145866 
0.0145926 0.0145987 0.0146047 0.0146107 0.0146168 0.0146228 0.0146289 0.0146349 0.014641 
0.014647 0.014289 0.0142949 0.0143007 0.0143065 0.0143124 0.0143182 0.0143241 0.0143299 
0.0143358 0.0143416 0.0143475 0.0143534 0.0143593 0.0143651 0.014371 0.0143769 0.0143828 
0.0143887 0.0143946 0.0144005 0.0144064 0.0144123 0.0144182 0.0144241 0.01443 0.014436 
0.0144419 0.0144478 0.0144537 0.0144597 0.0144656 0.0144716 0.0144775 0.0144835 0.0144894 
0.0144954 0.0145014 0.0145073 0.0145133 0.0145193 0.0145253 0.0145313 0.0145372 0.0145432 
0.0145492 0.0145552 0.0145612 0.0145673 0.0145733 0.0145793 0.0145853 0.0145913 0.0145974 
0.0146034 0.0146094 0.0146155 0.0146215 0.0146276 0.0146336 0.0146397 0.0146458 0.0146518 
0.0142935 0.0142994 0.0143052 0.014311 0.0143169 0.0143227 0.0143286 0.0143344 0.0143403 
0.0143462 0.014352 0.0143579 0.0143638 0.0143697 0.0143756 0.0143814 0.0143873 0.0143932 
0.0143991 0.014405 0.014411 0.0144169 0.0144228 0.0144287 0.0144346 0.0144406 0.0144465 
0.0144524 0.0144584 0.0144643 0.0144703 0.0144762 0.0144822 0.0144881 0.0144941 0.0145001 
0.014506 0.014512 0.014518 0.014524 0.0145299 0.0145359 0.0145419 0.0145479 0.0145539 
0.0145599 0.014566 0.014572 0.014578 0.014584 0.01459 0.0145961 0.0146021 0.0146081 
0.0146142 0.0146202 0.0146263 0.0146323 0.0146384 0.0146445 0.0146505 0.0146566 0.014298 
0.0143038 0.0143097 0.0143155 0.0143214 0.0143272 0.0143331 0.014339 0.0143448 0.0143507 
0.0143566 0.0143624 0.0143683 0.0143742 0.0143801 0.014386 0.0143919 0.0143978 0.0144037 
0.0144096 0.0144155 0.0144214 0.0144274 0.0144333 0.0144392 0.0144452 0.0144511 0.014457 
0.014463 0.0144689 0.0144749 0.0144808 0.0144868 0.0144928 0.0144987 0.0145047 0.0145107 
0.0145167 0.0145226 0.0145286 0.0145346 0.0145406 0.0145466 0.0145526 0.0145586 0.0145646 
0.0145707 0.0145767 0.0145827 0.0145887 0.0145948 0.0146008 0.0146068 0.0146129 0.0146189 
0.014625 0.014631 0.0146371 0.0146432 0.0146492 0.0146553 0.0146614 0.0143025 0.0143083 
0.0143142 0.01432 0.0143259 0.0143317 0.0143376 0.0143435 0.0143493 0.0143552 0.0143611 
0.014367 0.0143729 0.0143788 0.0143847 0.0143906 0.0143965 0.0144024 0.0144083 0.0144142 
0.0144201 0.014426 0.014432 0.0144379 0.0144438 0.0144498 0.0144557 0.0144616 0.0144676 
0.0144735 0.0144795 0.0144855 0.0144914 0.0144974 0.0145034 0.0145094 0.0145153 0.0145213 
0.0145273 0.0145333 0.0145393 0.0145453 0.0145513 0.0145573 0.0145633 0.0145694 0.0145754 
0.0145814 0.0145874 0.0145935 0.0145995 0.0146055 0.0146116 0.0146176 0.0146237 0.0146297 
0.0146358 0.0146419 0.0146479 0.014654 0.0146601 0.0146662 0.014307 0.0143128 0.0143187 