# vtk DataFile Version 4.0
vtk output
ASCII
DATASET STRUCTURED_POINTS
DIMENSIONS 62 62 62
SPACING 0.05 0.05 0.05
ORIGIN -1.525 -0.525 -0.525
POINT_DATA 238328
FIELD FieldData 1
potential 1 238328 double
0.0339138 0.0338676 0.033821 0.033774 0.0337265 0.0336784 0.0336297 0.0335804 0.0335305 
0.0334801 0.0334291 0.0333775 0.0333254 0.0332727 0.0332194 0.0331655 0.0331111 0.033056 
0.0330002 0.0329439 0.032887 0.0328294 0.0327713 0.0327125 0.032653 0.032593 0.0325323 
0.032471 0.032409 0.0323464 0.0322832 0.0322193 0.0321548 0.0320896 0.0320238 0.0319574 
0.0318904 0.0318227 0.0317544 0.0316852 0.0316157 0.0315455 0.0314747 0.0314031 0.0313311 
0.0312585 0.0311852 0.0311114 0.0310369 0.0309618 0.0308859 0.0308096 0.0307327 0.0306551 
0.0305769 0.0304979 0.0304184 0.0303381 0.0302572 0.0301755 0.030093 0.0300097 0.0333641 
0.0333152 0.0332657 0.0332159 0.0331655 0.0331145 0.0330628 0.0330106 0.0329578 0.0329044 
0.0328504 0.0327958 0.0327407 0.0326849 0.0326286 0.0325715 0.0325139 0.0324557 0.0323969 
0.0323374 0.0322773 0.0322165 0.0321551 0.032093 0.0320303 0.0319669 0.0319029 0.0318382 
0.0317728 0.0317068 0.0316401 0.0315728 0.0315048 0.0314361 0.0313668 0.0312968 0.031226 
0.0311547 0.0310828 0.0310102 0.030937 0.0308632 0.0307885 0.0307134 0.0306377 0.0305613 
0.0304844 0.0304065 0.0303283 0.0302495 0.0301701 0.0300901 0.0300093 0.029928 0.0298458 
0.0297632 0.0296798 0.0295958 0.0295111 0.0294257 0.0293393 0.0292523 0.0328057 0.0327538 
0.0327014 0.0326487 0.0325954 0.0325414 0.0324868 0.0324315 0.0323757 0.0323193 0.0322622 
0.0322046 0.0321464 0.0320874 0.0320279 0.0319678 0.031907 0.0318456 0.0317835 0.0317207 
0.0316573 0.0315933 0.0315286 0.0314631 0.031397 0.0313303 0.0312628 0.0311947 0.0311258 
0.0310563 0.0309861 0.0309152 0.0308434 0.0307711 0.0306982 0.0306245 0.0305502 0.0304753 
0.0303996 0.0303233 0.0302463 0.0301686 0.0300903 0.0300112 0.0299316 0.0298515 0.0297706 
0.0296892 0.0296071 0.0295244 0.0294412 0.0293572 0.0292726 0.0291873 0.0291014 0.0290149 
0.0289277 0.0288399 0.0287512 0.0286619 0.0285718 0.0284809 0.0322382 0.0321834 0.0321281 
0.0320721 0.032016 0.031959 0.0319013 0.031843 0.0317841 0.0317246 0.0316644 0.0316035 
0.0315421 0.0314801 0.0314174 0.031354 0.0312899 0.0312252 0.0311598 0.0310938 0.0310271 
0.0309596 0.0308915 0.0308226 0.0307531 0.0306828 0.0306118 0.0305401 0.0304677 0.0303944 
0.0303205 0.030246 0.0301707 0.0300948 0.0300181 0.0299407 0.0298626 0.0297839 0.0297044 
0.0296243 0.0295431 0.0294616 0.0293794 0.0292966 0.0292131 0.029129 0.0290442 0.0289588 
0.0288728 0.0287863 0.0286989 0.0286109 0.0285222 0.028433 0.0283432 0.0282528 0.0281615 
0.0280697 0.0279772 0.0278839 0.0277899 0.0276951 0.0316616 0.0316037 0.0315453 0.0314863 
0.0314271 0.031367 0.0313062 0.0312448 0.0311827 0.0311199 0.0310566 0.0309926 0.030928 
0.0308627 0.0307966 0.0307299 0.0306626 0.0305945 0.0305257 0.0304563 0.0303861 0.0303152 
0.0302435 0.0301712 0.0300981 0.0300242 0.0299494 0.0298741 0.029798 0.0297212 0.0296437 
0.0295654 0.0294863 0.0294066 0.0293261 0.0292448 0.0291627 0.02908 0.0289966 0.0289124 
0.0288276 0.0287421 0.0286559 0.0285691 0.0284816 0.0283934 0.0283046 0.0282151 0.0281251 
0.0280343 0.0279428 0.0278507 0.0277581 0.0276648 0.0275707 0.0274762 0.027381 0.0272851 
0.0271886 0.0270913 0.0269933 0.0268946 0.0310755 0.0310146 0.030953 0.0308909 0.0308287 
0.0307653 0.0307013 0.0306366 0.0305713 0.0305053 0.0304387 0.0303714 0.0303034 0.0302347 
0.0301654 0.0300953 0.0300246 0.0299531 0.0298809 0.0298079 0.0297342 0.0296597 0.0295845 
0.0295086 0.0294316 0.0293541 0.0292758 0.0291968 0.0291169 0.0290363 0.028955 0.0288728 
0.0287899 0.028706 0.0286216 0.0285364 0.0284505 0.0283638 0.0282763 0.0281881 0.0280992 
0.0280096 0.0279194 0.0278284 0.0277367 0.0276443 0.0275513 0.0274578 0.0273635 0.0272685 
0.0271727 0.0270764 0.0269794 0.0268819 0.0267838 0.0266851 0.0265857 0.0264857 0.026385 
0.0262836 0.0261816 0.0260787 0.0304797 0.0304157 0.0303509 0.0302856 0.0302202 0.0301534 
0.0300862 0.0300183 0.0299497 0.0298804 0.0298104 0.0297397 0.0296684 0.0295963 0.0295235 
0.02945 0.0293758 0.0293008 0.029225 0.0291485 0.0290712 0.0289928 0.028914 0.0288343 
0.0287538 0.0286726 0.0285905 0.0285076 0.0284239 0.0283395 0.0282539 0.0281679 0.028081 
0.0279933 0.0279048 0.0278156 0.0277256 0.0276348 0.0275431 0.0274508 0.0273577 0.0272639 
0.0271694 0.0270741 0.0269781 0.0268816 0.0267844 0.0266864 0.0265877 0.0264882 0.0263882 
0.0262874 0.0261862 0.0260844 0.025982 0.025879 0.0257753 0.025671 0.025566 0.0254606 
0.0253543 0.0252472 0.0298741 0.0298068 0.0297388 0.0296701 0.0296013 0.0295314 0.0294608 
0.0293895 0.0293175 0.0292448 0.0291715 0.0290974 0.0290226 0.028947 0.0288707 0.0287937 
0.0287159 0.0286372 0.0285576 0.0284774 0.0283964 0.0283146 0.028232 0.0281486 0.0280643 
0.0279792 0.0278932 0.0278062 0.0277185 0.0276301 0.0275408 0.0274506 0.0273597 0.0272679 
0.0271753 0.0270819 0.0269877 0.0268925 0.0267967 0.0267 0.0266027 0.0265045 0.0264057 
0.026306 0.0262057 0.0261047 0.026003 0.0259005 0.0257972 0.0256932 0.0255887 0.0254837 
0.025378 0.0252718 0.0251649 0.0250574 0.0249493 0.0248407 0.0247315 0.0246216 0.024511 
0.0243997 0.0292583 0.0291876 0.0291163 0.0290443 0.028972 0.0288988 0.0288248 0.0287501 
0.0286746 0.0285985 0.0285217 0.0284441 0.0283657 0.0282866 0.0282067 0.028126 0.0280443 
0.0279621 0.027879 0.027795 0.0277103 0.0276246 0.0275382 0.0274509 0.0273624 0.0272734 
0.0271834 0.0270926 0.0270009 0.0269084 0.0268149 0.0267207 0.0266255 0.0265295 0.0264326 
0.0263349 0.0262363 0.0261369 0.0260367 0.0259357 0.0258339 0.0257313 0.0256279 0.0255237 
0.025419 0.0253133 0.025207 0.0250996 0.0249918 0.0248834 0.0247743 0.0246646 0.0245544 
0.0244434 0.024332 0.02422 0.0241074 0.0239944 0.0238807 0.0237663 0.0236514 0.0235356 
0.028632 0.028558 0.0284833 0.0284079 0.028332 0.0282554 0.0281779 0.0280997 0.0280208 
0.0279411 0.0278607 0.0277795 0.0276976 0.0276146 0.027531 0.0274466 0.0273614 0.0272754 
0.0271885 0.0271007 0.0270121 0.0269226 0.0268319 0.0267407 0.0266485 0.0265553 0.0264613 
0.0263664 0.0262706 0.0261738 0.0260762 0.0259777 0.0258782 0.0257779 0.0256766 0.0255744 
0.0254714 0.0253676 0.0252629 0.0251573 0.025051 0.0249438 0.0248357 0.0247271 0.0246175 
0.024507 0.0243957 0.0242839 0.0241713 0.0240581 0.0239443 0.0238298 0.0237148 0.0235993 
0.0234832 0.0233666 0.0232493 0.0231315 0.0230131 0.0228942 0.0227746 0.0226544 0.0279952 
0.0279177 0.0278394 0.0277605 0.0276812 0.0276011 0.02752 0.0274382 0.0273557 0.0272724 
0.0271883 0.0271032 0.0270176 0.0269311 0.0268438 0.0267556 0.0266666 0.0265767 0.0264859 
0.026394 0.0263015 0.0262079 0.0261135 0.0260182 0.0259218 0.0258247 0.0257265 0.0256273 
0.0255272 0.0254261 0.0253242 0.0252212 0.0251173 0.0250126 0.0249068 0.0248002 0.0246926 
0.0245842 0.0244748 0.0243646 0.0242535 0.0241416 0.0240289 0.0239153 0.0238007 0.0236855 
0.0235696 0.0234528 0.0233353 0.0232172 0.0230984 0.0229792 0.0228592 0.0227387 0.0226178 
0.0224962 0.0223741 0.0222515 0.0221284 0.0220048 0.0218806 0.0217559 0.0273474 0.0272663 
0.0271845 0.027102 0.0270191 0.0269353 0.0268506 0.0267652 0.0266788 0.0265918 0.026504 
0.0264154 0.0263259 0.0262357 0.0261445 0.0260525 0.0259594 0.0258655 0.0257708 0.0256752 
0.0255786 0.025481 0.0253824 0.0252829 0.0251824 0.0250809 0.0249784 0.024875 0.0247705 
0.024665 0.0245586 0.0244512 0.0243428 0.0242333 0.024123 0.0240117 0.0238995 0.0237863 
0.0236722 0.0235571 0.0234414 0.0233247 0.0232068 0.0230883 0.0229689 0.0228486 0.0227276 
0.0226057 0.0224834 0.0223602 0.0222364 0.0221119 0.0219868 0.0218613 0.0217352 0.0216085 
0.0214814 0.0213539 0.0212259 0.0210974 0.0209685 0.0208391 0.0266884 0.0266037 0.0265182 
0.0264322 0.0263455 0.026258 0.0261694 0.0260802 0.0259902 0.0258994 0.0258078 0.0257154 
0.0256221 0.0255281 0.0254328 0.0253368 0.0252399 0.0251421 0.0250433 0.0249435 0.0248428 
0.024741 0.0246383 0.0245345 0.0244296 0.0243238 0.0242169 0.024109 0.024 0.0238901 
0.0237791 0.0236671 0.0235539 0.0234398 0.0233248 0.0232089 0.0230918 0.0229738 0.0228548 
0.0227348 0.0226139 0.0224921 0.0223695 0.0222459 0.0221212 0.021996 0.0218698 0.0217427 
0.021615 0.0214865 0.0213574 0.0212276 0.0210974 0.0209665 0.020835 0.0207032 0.0205709 
0.0204382 0.0203052 0.0201718 0.0200381 0.0199039 0.0260179 0.0259295 0.0258403 0.0257505 
0.0256598 0.0255685 0.0254763 0.0253833 0.0252896 0.025195 0.0250995 0.0250029 0.0249057 
0.0248076 0.0247086 0.0246086 0.0245077 0.0244057 0.0243028 0.0241988 0.0240938 0.0239878 
0.0238807 0.0237725 0.0236633 0.023553 0.0234416 0.0233292 0.0232156 0.023101 0.0229855 
0.0228688 0.0227508 0.0226319 0.022512 0.0223911 0.0222692 0.0221462 0.0220222 0.0218972 
0.0217712 0.0216442 0.0215164 0.0213874 0.0212576 0.021127 0.0209953 0.0208629 0.0207297 
0.0205958 0.0204612 0.0203261 0.0201903 0.0200539 0.019917 0.0197797 0.0196421 0.0195041 
0.0193659 0.0192274 0.0190886 0.0189496 0.0253356 0.0252431 0.0251501 0.0250565 0.0249622 
0.0248671 0.024771 0.0246741 0.0245764 0.0244777 0.0243783 0.024278 0.0241767 0.0240746 
0.0239714 0.0238673 0.0237622 0.0236561 0.0235489 0.0234407 0.0233314 0.0232209 0.0231094 
0.0229968 0.0228831 0.0227684 0.0226524 0.0225353 0.022417 0.0222976 0.0221772 0.0220556 
0.0219329 0.0218091 0.0216842 0.0215582 0.0214312 0.0213029 0.0211739 0.0210438 0.0209126 
0.0207803 0.0206469 0.0205127 0.0203775 0.0202414 0.0201042 0.0199662 0.0198275 0.0196879 
0.0195478 0.0194068 0.0192653 0.0191232 0.0189806 0.0188377 0.0186945 0.018551 0.0184074 
0.0182636 0.0181197 0.0179757 0.0246411 0.0245448 0.024448 0.0243504 0.0242521 0.0241532 
0.0240531 0.023952 0.0238503 0.0237477 0.0236442 0.0235398 0.0234345 0.0233282 0.023221 
0.0231127 0.0230033 0.0228929 0.0227814 0.0226688 0.0225551 0.0224404 0.0223244 0.0222072 
0.0220888 0.0219693 0.0218487 0.0217268 0.0216037 0.0214795 0.021354 0.0212274 0.0210997 
0.0209708 0.0208408 0.0207097 0.0205773 0.0204443 0.0203098 0.0201743 0.0200377 0.0199 
0.0197613 0.0196215 0.0194807 0.0193389 0.0191961 0.0190524 0.0189078 0.0187626 0.0186164 
0.0184696 0.0183221 0.018174 0.0180256 0.0178767 0.0177277 0.0175785 0.0174292 0.01728 
0.0171308 0.0169816 0.0239342 0.023834 0.0237331 0.0236315 0.0235292 0.0234259 0.0233218 
0.0232169 0.0231111 0.0230044 0.0228969 0.0227883 0.0226789 0.0225684 0.0224569 0.0223443 
0.0222307 0.0221161 0.0220002 0.0218831 0.0217649 0.0216455 0.021525 0.0214031 0.02128 
0.0211557 0.0210301 0.0209033 0.0207753 0.020646 0.0205155 0.0203838 0.020251 0.020117 
0.0199817 0.0198453 0.019708 0.0195693 0.0194295 0.0192886 0.0191464 0.0190032 0.0188589 
0.0187135 0.018567 0.0184193 0.0182707 0.0181211 0.0179707 0.0178193 0.017667 0.017514 
0.0173603 0.0172061 0.0170514 0.0168964 0.0167412 0.016586 0.0164309 0.0162759 0.0161212 
0.0159667 0.0232145 0.0231101 0.0230049 0.0228992 0.0227926 0.0226856 0.0225774 0.0224683 
0.0223584 0.0222476 0.0221358 0.0220231 0.0219094 0.0217948 0.021679 0.0215621 0.0214441 
0.0213251 0.0212047 0.0210831 0.0209603 0.0208361 0.0207108 0.0205841 0.0204561 0.0203269 
0.0201964 0.0200646 0.0199314 0.0197971 0.0196614 0.0195246 0.0193866 0.0192471 0.0191066 
0.018965 0.0188221 0.018678 0.0185327 0.0183861 0.0182384 0.0180896 0.0179395 0.0177884 
0.017636 0.0174824 0.0173278 0.0171723 0.0170156 0.0168579 0.0166993 0.0165399 0.0163797 
0.0162191 0.0160579 0.0158964 0.0157348 0.0155732 0.0154119 0.015251 0.0150905 0.0149306 
0.0224813 0.0223727 0.0222636 0.0221537 0.0220429 0.0219317 0.0218192 0.021706 0.0215918 
0.0214769 0.0213609 0.0212439 0.0211259 0.021007 0.0208868 0.0207656 0.0206431 0.0205194 
0.0203944 0.0202681 0.0201406 0.0200117 0.0198815 0.01975 0.0196171 0.0194828 0.0193472 
0.0192103 0.0190719 0.0189323 0.0187916 0.0186492 0.0185058 0.0183611 0.0182152 0.0180681 
0.0179197 0.01777 0.0176191 0.0174668 0.0173135 0.0171589 0.017003 0.016846 0.0166876 
0.016528 0.0163674 0.0162056 0.0160425 0.0158784 0.0157132 0.0155471 0.0153802 0.0152127 
0.0150446 0.0148763 0.0147079 0.0145396 0.0143718 0.0142046 0.0140381 0.0138725 0.0217346 
0.0216218 0.0215084 0.0213942 0.0212791 0.0211639 0.0210471 0.0209296 0.0208112 0.020692 
0.0205716 0.0204503 0.0203279 0.0202045 0.0200799 0.0199541 0.019827 0.0196987 0.0195691 
0.0194381 0.0193058 0.0191721 0.0190369 0.0189004 0.0187624 0.018623 0.0184823 0.0183401 
0.0181965 0.0180516 0.0179051 0.0177575 0.0176086 0.0174586 0.0173071 0.0171544 0.0170003 
0.016845 0.0166883 0.0165305 0.0163714 0.0162109 0.0160494 0.0158863 0.0157218 0.0155563 
0.0153893 0.0152209 0.0150514 0.0148805 0.0147086 0.0145356 0.0143617 0.0141869 0.0140116 
0.0138361 0.0136604 0.013485 0.0133101 0.0131361 0.0129633 0.0127918 0.020974 0.020857 
0.0207393 0.0206206 0.0205012 0.0203814 0.0202605 0.0201386 0.0200158 0.0198921 0.0197673 
0.0196417 0.0195149 0.0193869 0.0192578 0.0191274 0.0189958 0.0188628 0.0187285 0.0185927 
0.0184555 0.0183168 0.0181767 0.018035 0.0178919 0.0177474 0.0176012 0.0174536 0.0173045 
0.0171541 0.0170023 0.0168491 0.0166948 0.016539 0.0163819 0.0162235 0.0160638 0.0159029 
0.0157406 0.015577 0.015412 0.0152457 0.0150781 0.014909 0.0147385 0.0145666 0.0143932 
0.0142184 0.0140422 0.0138647 0.0136857 0.0135055 0.0133241 0.0131418 0.0129588 0.0127754 
0.012592 0.0124089 0.0122265 0.0120453 0.0118656 0.0116878 0.0201991 0.0200775 0.0199554 
0.0198323 0.0197084 0.019584 0.0194587 0.0193323 0.0192051 0.019077 0.0189479 0.0188177 
0.0186864 0.018554 0.0184203 0.0182854 0.0181491 0.0180114 0.0178722 0.0177316 0.0175894 
0.0174457 0.0173004 0.0171537 0.0170053 0.0168552 0.0167037 0.0165504 0.0163959 0.0162399 
0.0160824 0.0159238 0.0157637 0.0156025 0.0154397 0.0152756 0.01511 0.0149433 0.0147752 
0.0146059 0.0144351 0.0142629 0.0140893 0.0139144 0.0137378 0.0135596 0.0133798 0.0131984 
0.0130154 0.0128308 0.0126446 0.0124569 0.0122678 0.0120776 0.0118864 0.0116947 0.0115028 
0.0113112 0.0111206 0.0109315 0.0107445 0.01056 0.0194094 0.0192831 0.0191562 0.0190286 
0.0189002 0.0187712 0.0186414 0.0185107 0.018379 0.0182463 0.0181127 0.017978 0.0178422 
0.0177053 0.017567 0.0174274 0.0172864 0.017144 0.017 0.0168544 0.0167072 0.0165585 
0.016408 0.0162558 0.016102 0.0159464 0.0157891 0.0156304 0.0154702 0.0153088 0.0151456 
0.0149812 0.0148154 0.0146481 0.0144796 0.0143097 0.0141386 0.0139661 0.0137925 0.0136174 
0.0134408 0.0132629 0.0130835 0.0129023 0.0127195 0.012535 0.0123489 0.0121609 0.0119711 
0.0117794 0.0115858 0.0113905 0.0111934 0.0109947 0.0107948 0.0105941 0.0103929 0.0101921 
0.00999235 0.00979447 0.00959932 0.00940759 0.018604 0.018473 0.0183414 0.0182092 0.0180761 
0.0179426 0.0178083 0.017673 0.0175367 0.0173996 0.0172615 0.0171223 0.016982 0.0168404 
0.0166976 0.0165533 0.0164076 0.0162603 0.0161115 0.015961 0.0158087 0.0156546 0.0154988 
0.0153412 0.0151815 0.0150207 0.0148579 0.0146934 0.0145274 0.0143599 0.0141911 0.0140207 
0.013849 0.013676 0.013502 0.0133263 0.0131495 0.0129715 0.012792 0.0126112 0.012429 
0.0122454 0.01206 0.0118729 0.0116842 0.0114936 0.0113012 0.0111067 0.0109101 0.0107113 
0.0105103 0.0103071 0.0101017 0.00989417 0.00968496 0.00947434 0.009263 0.00905179 0.00884172 
0.00863389 0.00843014 0.0082302 0.0177827 0.0176468 0.0175105 0.0173736 0.0172359 0.0170977 
0.0169587 0.0168188 0.016678 0.0165364 0.0163937 0.01625 0.0161052 0.015959 0.0158116 
0.0156626 0.0155123 0.0153602 0.0152064 0.0150507 0.0148933 0.0147342 0.014573 0.0144095 
0.0142445 0.0140776 0.013909 0.0137387 0.0135667 0.0133934 0.0132187 0.0130425 0.012865 
0.0126862 0.0125061 0.0123249 0.0121425 0.0119588 0.0117739 0.0115875 0.0113999 0.0112107 
0.0110197 0.010827 0.0106325 0.0104361 0.0102375 0.0100366 0.00983339 0.00962762 0.00941919 
0.00920799 0.008994 0.0087773 0.00855803 0.00833665 0.00811451 0.00789145 0.00766941 0.00745008 
0.00723498 0.00702574 0.0169449 0.0168041 0.016663 0.0165212 0.0163787 0.0162358 0.0160922 
0.0159477 0.0158024 0.0156562 0.015509 0.0153608 0.0152114 0.0150607 0.0149088 0.0147552 
0.0146 0.0144431 0.0142846 0.0141239 0.0139612 0.0137965 0.0136295 0.0134606 0.0132898 
0.013117 0.0129426 0.0127662 0.0125884 0.0124089 0.012228 0.0120459 0.0118625 0.0116778 
0.0114921 0.0113054 0.0111175 0.0109284 0.0107382 0.0105468 0.0103538 0.0101594 0.00996306 
0.00976512 0.00956521 0.00936317 0.0091588 0.00895191 0.00874227 0.00852972 0.008314 0.0080949 
0.0078729 0.00764655 0.00741658 0.00718335 0.00694764 0.00671079 0.00647464 0.00624147 0.00601372 
0.00579363 0.0160902 0.0159444 0.0157982 0.0156515 0.0155042 0.0153565 0.0152082 0.0150591 
0.0149092 0.0147585 0.0146068 0.0144541 0.0143004 0.0141452 0.0139886 0.0138308 0.0136709 
0.0135092 0.0133455 0.0131797 0.0130115 0.0128414 0.0126692 0.0124946 0.0123177 0.0121388 
0.0119581 0.0117756 0.0115915 0.0114058 0.0112188 0.0110306 0.0108412 0.010651 0.0104598 
0.0102677 0.0100746 0.00988053 0.00968533 0.00948908 0.00929133 0.009092 0.008891 0.00868822 
0.00848337 0.00827622 0.0080665 0.007854 0.00763844 0.00742014 0.00719746 0.00697065 0.00673943 
0.00650328 0.00626202 0.00601573 0.00576515 0.00551188 0.00525848 0.00500847 0.00476516 0.00453173 
0.0152178 0.0150668 0.0149156 0.0147638 0.0146116 0.0144592 0.0143062 0.0141524 0.013998 
0.0138428 0.0136868 0.0135298 0.0133719 0.0132123 0.0130513 0.0128886 0.0127241 0.0125576 
0.012389 0.0122182 0.0120451 0.0118693 0.0116912 0.0115106 0.0113276 0.0111426 0.0109555 
0.0107665 0.0105758 0.0103838 0.0101907 0.00999652 0.0098014 0.00960565 0.00940919 0.00921203 
0.00901412 0.00881539 0.0086159 0.00841517 0.00821319 0.0080097 0.00780455 0.00759754 0.00738838 
0.00717742 0.00696309 0.0067456 0.00652466 0.00629987 0.00607076 0.00583686 0.00559737 0.00535158 
0.00509868 0.00483818 0.00457035 0.00429688 0.00402181 0.00375035 0.0034879 0.00323801 0.0143271 
0.0141708 0.0140144 0.0138575 0.0137005 0.013543 0.0133855 0.0132272 0.0130684 0.0129092 
0.0127487 0.0125874 0.0124249 0.0122611 0.0120957 0.0119287 0.01176 0.0115889 0.0114153 
0.0112395 0.0110609 0.0108797 0.0106958 0.010509 0.0103197 0.0101281 0.00993426 0.00973857 
0.00954134 0.00934289 0.00914351 0.00894331 0.00874269 0.00854167 0.00834033 0.00813856 0.00793635 
0.00773375 0.00753031 0.00732598 0.00712055 0.00691358 0.00670584 0.00649548 0.00628284 0.00606757 
0.00584927 0.00562754 0.00540196 0.00517209 0.00493741 0.00469714 0.00445032 0.00419564 0.00393146 
0.00365605 0.00336821 0.00306924 0.00276506 0.00246534 0.00217872 0.00190941 0.0134174 0.0132558 
0.013094 0.012932 0.01277 0.0126077 0.0124459 0.0122832 0.0121199 0.011956 0.0117914 
0.011626 0.0114594 0.0112919 0.0111224 0.0109512 0.010778 0.0106022 0.0104241 0.0102435 
0.0100597 0.00987278 0.00968277 0.0094897 0.00929372 0.00909532 0.00889445 0.00869176 0.00848767 
0.00828262 0.00807686 0.00787095 0.00766497 0.00745905 0.00725324 0.00704749 0.00684188 0.00663593 
0.0064296 0.00622329 0.00601532 0.00580611 0.00559539 0.00538269 0.00516758 0.00494962 0.00472833 
0.00450323 0.00427385 0.00403976 0.00380041 0.00355503 0.00330235 0.0030405 0.0027668 0.00247743 
0.00216783 0.00183485 0.00148753 0.00114902 0.000833104 0.000542274 0.012488 0.0123209 0.0121537 
0.0119865 0.0118199 0.0116529 0.0114861 0.0113189 0.0111513 0.0109834 0.0108152 0.0106459 
0.0104755 0.0103038 0.0101306 0.00995535 0.00977811 0.00959855 0.00941614 0.00923037 0.00904135 
0.0088488 0.00865264 0.00845294 0.00825007 0.0080441 0.00783573 0.00762559 0.00741429 0.00720232 
0.00699042 0.00677887 0.00656791 0.00635768 0.0061482 0.00593955 0.00573195 0.00552392 0.00531591 
0.00510756 0.0048984 0.0046881 0.00447633 0.00426247 0.00404606 0.00382654 0.00360331 0.00337576 
0.00314337 0.00290578 0.00266279 0.00241377 0.00215735 0.00189124 0.00161191 0.00131382 0.000986783 
0.000609683 0.000179703 -0.000211473 -0.000535536 -0.000494719 0.0115381 0.0113657 0.011193 0.0110207 
0.0108486 0.0106768 0.0105054 0.0103344 0.0101628 0.00999103 0.00981884 0.00964603 0.00947225 
0.00929721 0.00912041 0.00894203 0.00876119 0.00857769 0.00839085 0.00820059 0.00800647 0.00780822 
0.0076057 0.00739911 0.00718846 0.00697444 0.00675784 0.00653959 0.00632059 0.00610158 0.00588347 
0.00566661 0.00545128 0.00523833 0.00502642 0.00481587 0.00460653 0.00439805 0.00418998 0.00398186 
0.003773 0.0035632 0.00335174 0.00313808 0.00292162 0.00270173 0.00247769 0.00224862 0.00201369 
0.00177279 0.00152687 0.00127586 0.00101827 0.00075166 0.000472747 0.000176214 4.21907e-05 -9.05629e-05 
-0.000235102 -0.000298339 -0.000306953 -0.000279104 0.0105673 0.0103887 0.0102104 0.0100327 0.00985599 
0.00967958 0.0095038 0.00932843 0.0091531 0.00897783 0.00880238 0.00862645 0.00844973 0.00827179 
0.00809234 0.00791088 0.00772689 0.00753992 0.00734942 0.00715489 0.00695584 0.00675186 0.00654284 
0.0063285 0.00610935 0.0058862 0.00566024 0.00543288 0.00520536 0.00497911 0.0047549 0.00453401 
0.00431528 0.00409973 0.00388688 0.00367657 0.00346835 0.0032616 0.00305565 0.00284971 0.00264311 
0.00243529 0.00222553 0.00201327 0.00179792 0.00157883 0.00135522 0.00112592 0.000888633 0.000642098 
0.000393655 0.000273302 0.00025082 0.000221106 0.000181834 0.000130203 6.40119e-05 -1.34628e-05 -8.33246e-05 
-0.000123315 -0.000129283 -0.000106293 0.00957385 0.0093891 0.00920548 0.00902245 0.00884042 0.00865947 
0.00847957 0.00830046 0.00812178 0.0079435 0.00776549 0.0075871 0.00740792 0.00722787 0.00704623 
0.00686249 0.00667619 0.00648635 0.00629265 0.00609428 0.00589056 0.00568101 0.00546485 0.00524208 
0.00501312 0.00477911 0.00454193 0.00430372 0.00406756 0.00383354 0.00360348 0.0033781 0.00315782 
0.00294233 0.0027315 0.00252469 0.00232096 0.00211917 0.00191812 0.00171663 0.00151389 0.00130929 
0.00110218 0.0008921 0.0006786 0.000461195 0.000308838 0.000306045 0.000296631 0.000282686 0.000269238 
0.00025426 0.000235651 0.000211986 0.000182003 0.000145056 0.000102336 5.87086e-05 2.28076e-05 3.97313e-06 
6.27889e-06 2.94916e-05 0.00855726 0.00836626 0.00817644 0.00798805 0.00780116 0.00761588 0.00743215 
0.00724972 0.00706837 0.00688772 0.00670757 0.00652736 0.00634696 0.00616561 0.00598272 0.00579764 
0.00560966 0.00541798 0.00522177 0.00502017 0.0048122 0.00459705 0.00437352 0.00414121 0.00390034 
0.00365326 0.00340156 0.00315006 0.00290196 0.00265954 0.00242413 0.0021965 0.00197727 0.00176622 
0.00156292 0.00136571 0.00117205 0.000979395 0.000785847 0.000590106 0.000391862 0.000203983 0.000223948 
0.000240475 0.000253387 0.000262479 0.000267536 0.000268299 0.000264945 0.000258519 0.000250138 0.000239681 
0.000226578 0.000210144 0.000190117 0.000166881 0.000142267 0.000119907 0.000104253 0.000100156 0.000110291 
0.000135377 0.00751569 0.00731818 0.00712239 0.00692862 0.00673698 0.0065476 0.00636055 0.0061754 
0.00599178 0.00580942 0.00562832 0.00544778 0.00526711 0.00508569 0.00490275 0.00471748 0.00452896 
0.00433629 0.00413847 0.00393439 0.00372296 0.00350244 0.00327138 0.00302895 0.00277302 0.00250617 
0.00223408 0.00196449 0.00170243 0.00145034 0.00120952 0.000981405 0.000767763 0.000571509 0.00039144 
0.000216841 3.93703e-05 3.88343e-05 7.61441e-05 0.000109016 0.000137865 0.000162852 0.000184171 0.000201938 
0.00021621 0.000227043 0.000234429 0.0002385 0.000239569 0.000238155 0.000234676 0.000229396 0.00022219 
0.000213024 0.000202142 0.000190271 0.000179051 0.000170997 0.000168585 0.000174544 0.000190707 0.000217687 
0.00644812 0.00624379 0.00604182 0.0058426 0.00564643 0.00545328 0.00526319 0.00507598 0.00489102 
0.00470863 0.00452793 0.00434838 0.00416913 0.00398927 0.00380794 0.00362372 0.00343591 0.00324332 
0.00304483 0.00283935 0.00262506 0.00240094 0.00216301 0.00190855 0.00163351 0.00133707 0.00103255 
0.000737298 0.000457057 0.000191761 -5.88549e-05 -0.000294549 -0.000333806 -0.000225446 -0.000144063 -8.22497e-05 
-3.15886e-05 1.1446e-05 4.85527e-05 8.08441e-05 0.000109056 0.00013354 0.000154612 0.000172493 0.000187365 
0.00019933 0.000208563 0.000215267 0.000219725 0.000222225 0.000223181 0.000222767 0.000221156 0.000218575 
0.000215423 0.000212597 0.000211428 0.000213197 0.000219737 0.000232675 0.000253136 0.000281504 0.00535289 
0.00514128 0.00493294 0.00472818 0.00452731 0.00433059 0.00413803 0.00394981 0.00376529 0.00358427 
0.00340613 0.00322992 0.00305446 0.0028784 0.00270038 0.00251902 0.00233316 0.00214166 0.00194426 
0.00173799 0.00152216 0.00129464 0.00105227 0.000789747 0.000496357 0.000145983 -0.000220466 -0.000447528 
-0.00042785 -0.000390961 -0.000342046 -0.000285381 -0.000226101 -0.000169197 -0.00011748 -7.14663e-05 -3.07016e-05 
5.46954e-06 3.74454e-05 6.60155e-05 9.13672e-05 0.000113778 0.000133479 0.000150703 0.000165488 0.000178094 
0.000188668 0.000197412 0.00020451 0.000210325 0.000215047 0.000218948 0.000222258 0.000225306 0.000228513 
0.000232655 0.000238779 0.000247613 0.000260362 0.000278081 0.000301403 0.000330598 0.00422805 0.00400856 
0.00379313 0.00358245 0.00337693 0.0031769 0.00298259 0.00279468 0.00261226 0.0024354 0.00226323 
0.00209418 0.00192615 0.00175704 0.0015845 0.00140735 0.00122504 0.0010352 0.000837815 0.000631563 
0.000415301 0.000187181 -4.13599e-05 -6.71032e-05 -0.000118385 -0.000196841 -0.000255122 -0.00027501 -0.00027109 
-0.000252438 -0.000224363 -0.00019081 -0.000154814 -0.000118611 -8.3559e-05 -5.04316e-05 -1.95625e-05 8.86591e-06 
3.49704e-05 5.89117e-05 8.07114e-05 0.000100496 0.00011838 0.000134503 0.000148953 0.000161864 0.000173413 
0.000183701 0.000193037 0.000201562 0.000209502 0.000217074 0.000224525 0.000232202 0.000240469 0.000250127 
0.000261452 0.000275249 0.000292292 0.000313234 0.000338364 0.000367963 0.00307086 0.00284253 0.00261935 
0.00240214 0.00219151 0.00198791 0.00179244 0.00160586 0.00142823 0.00126025 0.00110073 0.000945989 
0.000791213 0.000632079 0.000467474 0.000294867 0.000114476 -7.38912e-05 -8.01843e-05 -5.07609e-05 -3.11804e-05 
-2.25874e-05 -2.63878e-05 -4.40385e-05 -7.50182e-05 -0.00011306 -0.00014473 -0.000161806 -0.000164862 -0.000157547 
-0.000142927 -0.000123509 -0.000101268 -7.76235e-05 -5.35921e-05 -2.98551e-05 -6.84752e-06 1.50774e-05 3.58609e-05 
5.55165e-05 7.39442e-05 9.1168e-05 0.000107268 0.000122262 0.000136256 0.000149342 0.00016158 0.000173222 
0.000184347 0.000195122 0.000205729 0.000216336 0.000227203 0.000238534 0.000250771 0.000264548 0.000279641 
0.000297009 0.00031698 0.000339908 0.000366035 0.00039548 0.00187841 0.00163999 0.00140789 0.00118292 
0.000965703 0.00075747 0.000559389 0.000373546 0.000203308 5.39194e-05 -7.36614e-05 -0.000198739 -0.00033454 
-0.000351718 -0.000276357 -0.000211082 -0.000155038 -0.000108165 -7.01166e-05 -4.10261e-05 -2.11771e-05 -1.09617e-05 
-1.07748e-05 -2.01044e-05 -3.72132e-05 -5.78728e-05 -7.64699e-05 -8.8777e-05 -9.39141e-05 -9.23913e-05 -8.5567e-05 
-7.48156e-05 -6.13108e-05 -4.60028e-05 -2.96309e-05 -1.27429e-05 4.26621e-06 2.09474e-05 3.74663e-05 5.35372e-05 
6.90951e-05 8.41747e-05 9.866e-05 0.000112681 0.000126264 0.000139466 0.00015232 0.000165025 0.000177633 
0.000190255 0.000203044 0.000216143 0.000229724 0.000243947 0.000259387 0.000275864 0.000293803 0.000313572 
0.000335406 0.00035954 0.000386096 0.000415061 0.000647002 0.000397313 0.000154739 -8.01046e-05 -0.00030632 
-0.000523211 -0.000729449 -0.00092291 -0.000994806 -0.00081242 -0.000645566 -0.000519272 -0.000416886 -0.000330527 
-0.000256752 -0.000193489 -0.000139944 -9.52399e-05 -5.90394e-05 -3.11789e-05 -1.15901e-05 -1.95186e-07 3.19275e-06 
-3.92353e-07 -9.3638e-06 -2.11177e-05 -3.2531e-05 -4.15419e-05 -4.67602e-05 -4.797e-05 -4.5565e-05 -4.01182e-05 
-3.22733e-05 -2.2608e-05 -1.1642e-05 2.58128e-07 1.2687e-05 2.5502e-05 3.86201e-05 5.18388e-05 6.51016e-05 
7.83828e-05 9.16332e-05 0.000104879 0.000118148 0.000131419 0.000144848 0.000158429 0.000172264 0.00018641 
0.000200961 0.000216023 0.000231755 0.000248177 0.000265912 0.000284384 0.000304222 0.000325577 0.000348577 
0.000373322 0.000399874 0.000428007 -0.000626524 -0.000888509 -0.00114329 -0.00136989 -0.00126974 -0.00116173 
-0.00104608 -0.000923614 -0.000796767 -0.000673193 -0.000559186 -0.000458173 -0.000370067 -0.000293451 -0.000227059 
-0.000169667 -0.00012089 -8.00909e-05 -4.69213e-05 -2.1136e-05 -2.51952e-06 9.13279e-06 1.45097e-05 1.43673e-05 
1.00246e-05 3.32033e-06 -4.22349e-06 -1.09085e-05 -1.57367e-05 -1.81987e-05 -1.82638e-05 -1.60755e-05 -1.19147e-05 
-6.08396e-06 1.10067e-06 9.40472e-06 1.85209e-05 2.83695e-05 3.89033e-05 4.99422e-05 6.14531e-05 7.33533e-05 
8.56416e-05 9.83118e-05 0.00011132 0.000124761 0.00013864 0.00015298 0.000167804 0.000183157 0.000199134 
0.000215704 0.000232993 0.000251153 0.000270255 0.000290246 0.000311354 0.000333692 0.000357224 0.000382032 
0.000408173 0.000435358 -0.00133054 -0.00126627 -0.0011947 -0.00111613 -0.00103105 -0.000940352 -0.000844652 
-0.000747029 -0.000649834 -0.000556083 -0.000468036 -0.000387353 -0.000314607 -0.000249741 -0.0001924 -0.000142563 
-9.9776e-05 -6.37832e-05 -3.43344e-05 -1.1212e-05 5.74428e-06 1.70735e-05 2.31933e-05 2.48447e-05 2.30214e-05 
1.90416e-05 1.38524e-05 8.65034e-06 4.27338e-06 1.22636e-06 -2.13804e-07 -2.88683e-08 1.74331e-06 4.9895e-06 
9.54544e-06 1.52932e-05 2.19281e-05 2.96819e-05 3.83006e-05 4.77587e-05 5.79017e-05 6.87903e-05 8.03743e-05 
9.25882e-05 0.000105508 0.000119112 0.000133384 0.000148362 0.000163967 0.000180252 0.000197226 0.000214921 
0.000233295 0.000252815 0.000272829 0.000293769 0.000315568 0.000338287 0.000361935 0.000386588 0.000411952 
0.000438064 -0.00108157 -0.00102895 -0.000969879 -0.000904869 -0.00083405 -0.00076 -0.000683445 -0.000605714 
-0.000528991 -0.000454844 -0.000384846 -0.00031966 -0.000259883 -0.000205698 -0.000157499 -0.000115131 -7.85028e-05 
-4.75094e-05 -2.20139e-05 -1.83495e-06 1.31689e-05 2.35166e-05 2.95697e-05 3.19273e-05 3.15067e-05 2.88669e-05 
2.49993e-05 2.07251e-05 1.67004e-05 1.34062e-05 1.11733e-05 1.01306e-05 1.03742e-05 1.18987e-05 1.46663e-05 
1.85356e-05 2.35564e-05 2.97484e-05 3.69829e-05 4.52334e-05 5.44456e-05 6.46053e-05 7.56228e-05 8.76105e-05 
0.000100482 0.000114269 0.000128845 0.000144238 0.000160423 0.000177388 0.000195112 0.00021357 0.000232881 
0.000252956 0.000273617 0.000295014 0.0003171 0.000339875 0.000363293 0.000387427 0.000411946 0.000436829 