# vtk DataFile Version 4.0
vtk output
ASCII
DATASET POLYDATA
POINTS 3934 double
3.39651 21.923 1.25 -2.85349 21.923 1.25 3.39651 16.503 1.25 
3.39651 16.503 1.25 -2.85349 21.923 1.25 -2.63232 16.0255 1.25 
3.39651 16.503 1.25 -2.63232 16.0255 1.25 3.39651 11.083 1.25 
3.39651 11.083 1.25 -2.63232 16.0255 1.25 -2.63232 10.128 1.25 
3.39651 11.083 1.25 -2.63232 10.128 1.25 3.6914 10.128 1.25 
3.6914 10.128 1.25 -2.63232 10.128 1.25 3.6914 4.2305 1.25 
3.6914 10.128 1.25 3.6914 4.2305 1.25 8.51446 8.533 1.25 
8.51446 8.533 1.25 3.6914 4.2305 1.25 10.0151 4.2305 1.25 
8.51446 8.533 1.25 10.0151 4.2305 1.25 13.6324 5.983 1.25 
13.6324 5.983 1.25 10.0151 4.2305 1.25 16.3388 4.2305 1.25 
13.6324 5.983 1.25 16.3388 4.2305 1.25 18.7504 3.433 1.25 
18.7504 3.433 1.25 16.3388 4.2305 1.25 14.0215 -1.667 1.25 
18.7504 3.433 1.25 14.0215 -1.667 1.25 19.0098 -1.667 1.25 
-2.63232 16.0255 1.25 -2.85349 21.923 1.25 -8.95605 16.0255 1.25 
-8.95605 16.0255 1.25 -2.85349 21.923 1.25 -9.10349 21.923 1.25 
-8.95605 16.0255 1.25 -9.10349 21.923 1.25 -15.2798 16.0255 1.25 
-15.2798 16.0255 1.25 -9.10349 21.923 1.25 -15.3535 21.923 1.25 
-15.2798 16.0255 1.25 -15.3535 21.923 1.25 -21.6035 16.5597 1.25 
-21.6035 16.5597 1.25 -15.3535 21.923 1.25 -21.6035 21.923 1.25 
-21.6035 16.5597 1.25 -21.6035 11.1963 1.25 -15.2798 16.0255 1.25 
-15.2798 16.0255 1.25 -21.6035 11.1963 1.25 -15.2798 10.128 1.25 
-15.2798 16.0255 1.25 -15.2798 10.128 1.25 -8.95605 10.128 1.25 
-8.95605 10.128 1.25 -15.2798 10.128 1.25 -8.95605 4.2305 1.25 
-8.95605 10.128 1.25 -8.95605 4.2305 1.25 -2.63232 4.2305 1.25 
-2.63232 4.2305 1.25 -8.95605 4.2305 1.25 -3.79099 2.083 1.25 
-2.63232 4.2305 1.25 -3.79099 2.083 1.25 2.14651 0.833002 1.25 
-21.6035 11.1963 1.25 -21.6035 5.833 1.25 -15.2798 10.128 1.25 
-15.2798 10.128 1.25 -21.6035 5.833 1.25 -15.666 4.583 1.25 
-15.2798 10.128 1.25 -15.666 4.583 1.25 -8.95605 4.2305 1.25 
-8.95605 4.2305 1.25 -15.666 4.583 1.25 -9.72849 3.333 1.25 
-8.95605 4.2305 1.25 -9.72849 3.333 1.25 -3.79099 2.083 1.25 
-2.63232 4.2305 1.25 2.14651 0.833002 1.25 3.6914 4.2305 1.25 
3.6914 4.2305 1.25 2.14651 0.833002 1.25 8.08401 -0.416998 1.25 
3.6914 4.2305 1.25 8.08401 -0.416998 1.25 10.0151 4.2305 1.25 
10.0151 4.2305 1.25 8.08401 -0.416998 1.25 14.0215 -1.667 1.25 
10.0151 4.2305 1.25 14.0215 -1.667 1.25 16.3388 4.2305 1.25 
18.7504 3.433 1.25 19.0098 -1.667 1.25 23.8683 0.883002 1.25 
23.8683 0.883002 1.25 19.0098 -1.667 1.25 23.998 -1.667 1.25 
23.8683 0.883002 1.25 23.998 -1.667 1.25 28.9863 -1.667 1.25 
8.51446 8.533 1.25 3.39651 11.083 1.25 3.6914 10.128 1.25 
-2.63232 10.128 1.25 -2.63232 16.0255 1.25 -8.95605 16.0255 1.25 
-2.63232 10.128 1.25 -8.95605 16.0255 1.25 -8.95605 10.128 1.25 
-8.95605 10.128 1.25 -8.95605 16.0255 1.25 -15.2798 16.0255 1.25 
3.6914 4.2305 1.25 -2.63232 10.128 1.25 -2.63232 4.2305 1.25 
-2.63232 4.2305 1.25 -2.63232 10.128 1.25 -8.95605 10.128 1.25 
16.9603 4.32492 1.25 17.8009 3.74698 1.25 17.8553 3.87896 1.25 
15.4225 5.09109 1.25 15.3112 4.89594 1.25 17.0699 3.98874 1.25 
17.4078 4.10194 1.25 16.1914 4.708 1.25 1.36768 10.128 1.25 
1.31842 10.7538 1.25 6.72436 9.42492 1.25 6.6156 9.16096 1.25 
5.18662 10.1911 1.25 5.1535 9.64448 1.25 5.95549 9.808 1.25 
-12.9505 4.44035 1.25 -11.7518 3.75896 1.25 -13.7089 4.17098 1.25 
-10.9533 4.33543 1.25 -14.6674 4.53054 1.25 -14.6874 4.37699 1.25 
-12.7303 3.96497 1.25 -11.9519 4.38789 1.25 -13.809 4.48544 1.25 
-14.1982 4.27399 1.25 -5.81429 2.50896 1.25 -5.63773 2.85083 1.25 
-7.29689 3.54067 1.25 -7.77139 2.92098 1.25 -4.76954 2.28901 1.25 
-4.71436 2.46692 1.25 -6.46731 3.19575 1.25 -6.79284 2.71497 1.25 
-0.308599 4.2305 1.25 -1.00229 3.07163 1.25 1.05284 2.6285 1.25 
5.33642 2.49002 1.25 5.52954 5.87025 1.25 0.168466 19.3024 1.25 
0.461036 13.4895 1.25 6.67632 6.89325 1.25 16.0307 0.499867 1.25 
-18.568 19.1646 1.25 -18.4245 13.624 1.25 -18.2945 8.08041 1.25 
-18.5887 7.8806 1.25 -11.8813 6.95863 1.25 -15.4187 8.13284 1.25 
6.85326 2.81935 1.25 11.7738 1.64173 1.25 20.7207 0.97662 1.25 
0.374549 19.1236 1.25 0.303149 13.619 1.25 0.29297 7.39988 1.25 
3.6914 6.2305 1.25 -5.72983 19.1433 1.25 -6.07971 18.8052 1.25 
-11.9965 19.1606 1.25 -12.3868 18.7879 1.25 -18.389 19.3181 1.25 
-18.4588 13.5978 1.25 -11.8813 12.8561 1.25 -15.2798 14.0255 1.25 
-12.3545 7.39988 1.25 -8.95605 6.2305 1.25 -5.55761 6.95863 1.25 
-8.95605 8.128 1.25 13.177 2.06888 1.25 -6.03075 13.2974 1.25 
-2.63232 12.128 1.25 -5.55761 12.8561 1.25 -8.95605 14.0255 1.25 
-12.3545 13.2974 1.25 -8.95605 12.128 1.25 0.766109 6.95863 1.25 
-2.63232 8.128 1.25 -6.03075 7.39988 1.25 -2.63232 6.2305 1.25 
18.2757 3.58999 1.25 18.3029 3.65598 1.25 -15.1767 4.48 1.25 
-15.1667 4.55677 1.25 14.5275 5.53705 1.25 14.4718 5.43947 1.25 
7.61941 8.97896 1.25 7.56503 8.84698 1.25 -0.656952 10.4409 1.25 
-0.632322 10.128 1.25 0.123206 1.25896 1.25 -1.69354 2.33766 1.25 
18.513 3.5115 1.25 18.5266 3.54449 1.25 18.0552 3.71944 1.25 
-14.9201 4.48549 1.25 -15.4214 4.5315 1.25 -15.4163 4.56989 1.25 
14.8915 5.1677 1.25 14.975 5.31407 1.25 14.0521 5.71124 1.25 
14.0799 5.76002 1.25 7.12402 9.10587 1.25 8.06694 8.75598 1.25 
8.03975 8.68999 1.25 0.367678 10.3641 1.25 -1.64464 10.2845 1.25 
-1.63232 10.128 1.25 0.516471 1.99187 1.25 0.57211 1.95232 1.25 
2.91895 2.53175 1.25 -1.83389 1.67098 1.25 -1.05793 3.11119 1.25 
4.16981 0.407044 1.25 6.25574 0.606961 1.25 19.959 -2.917 -0.96875 
19.959 -2.917 0.96875 14.0215 -1.667 -1.25 14.0215 -1.667 -1.25 
19.959 -2.917 0.96875 14.0215 -1.667 1.25 14.0215 -1.667 -1.25 
14.0215 -1.667 1.25 8.08401 -0.416998 -1.25 8.08401 -0.416998 -1.25 
14.0215 -1.667 1.25 8.08401 -0.416998 1.25 8.08401 -0.416998 -1.25 
8.08401 -0.416998 1.25 2.14651 0.833002 -1.25 2.14651 0.833002 -1.25 
8.08401 -0.416998 1.25 2.14651 0.833002 1.25 2.14651 0.833002 -1.25 
2.14651 0.833002 1.25 -3.79099 2.083 -1.25 -3.79099 2.083 -1.25 
2.14651 0.833002 1.25 -3.79099 2.083 1.25 -3.79099 2.083 -1.25 
-3.79099 2.083 1.25 -9.72849 3.333 -1.25 -9.72849 3.333 -1.25 
-3.79099 2.083 1.25 -9.72849 3.333 1.25 -9.72849 3.333 -1.25 
-9.72849 3.333 1.25 -15.666 4.583 -1.25 -15.666 4.583 -1.25 
-9.72849 3.333 1.25 -15.666 4.583 1.25 -15.666 4.583 -1.25 
-15.666 4.583 1.25 -21.6035 5.833 -1.25 -21.6035 5.833 -1.25 
-15.666 4.583 1.25 -21.6035 5.833 1.25 19.959 -2.917 0.96875 
19.959 -2.917 -0.96875 25.8965 -4.167 0.6875 25.8965 -4.167 0.6875 
19.959 -2.917 -0.96875 25.8965 -4.167 -0.6875 25.8965 -4.167 0.6875 
25.8965 -4.167 -0.6875 31.834 -5.417 0.40625 31.834 -5.417 0.40625 
25.8965 -4.167 -0.6875 31.834 -5.417 -0.40625 31.834 -5.417 0.40625 
31.834 -5.417 -0.40625 37.7715 -6.667 0.125 37.7715 -6.667 0.125 
31.834 -5.417 -0.40625 37.7715 -6.667 -0.125 33.8722 -5.8461 -0.223883 
35.744 -6.24016 -0.221039 33.789 -5.82858 -0.313645 35.8219 -6.25655 -0.0494416 
34.7665 -6.03437 -0.267342 34.847 -6.05132 -0.136662 32.8088 -5.62222 -0.319029 
32.8115 -5.62279 -0.359947 34.2778 -5.93147 -0.290493 34.3596 -5.94871 -0.180273 
33.3405 -5.73416 -0.271456 33.3003 -5.72568 -0.336796 33.5446 -5.77713 -0.32522 
33.6064 -5.79013 -0.24767 33.0747 -5.67819 -0.295243 33.0559 -5.67423 -0.348372 
33.1781 -5.69996 -0.342584 32.9418 -5.65021 -0.307136 33.4224 -5.75141 -0.331008 
33.4735 -5.76214 -0.259563 34.0334 -5.88002 -0.302069 33.2076 -5.70618 -0.283349 
32.9337 -5.64851 -0.35416 34.5221 -5.98292 -0.278918 34.1159 -5.8974 -0.202078 
35.2553 -6.13726 -0.244191 35.3345 -6.15393 -0.093052 35.0109 -6.08581 -0.255766 
35.4996 -6.18871 -0.232615 36.7578 -6.45358 -0.17302 36.7967 -6.46177 0.0377792 
34.6033 -6.00001 -0.158468 36.2509 -6.34687 -0.19703 37.2646 -6.56029 -0.14901 
36.3093 -6.35916 -0.00583118 27.9819 -4.60603 -0.30335 29.8065 -4.99016 -0.502289 
29.9079 -5.01151 0.0514499 27.8515 -4.57858 -0.594895 28.829 -4.78437 -0.548592 
26.8595 -4.36974 -0.5101 26.874 -4.37279 -0.641197 28.3403 -4.68147 -0.571743 
27.4207 -4.48788 -0.406725 28.9449 -4.80877 -0.12595 30.8203 -5.20358 -0.45427 
33.8615 -5.84384 0.310211 33.8722 -5.8461 -0.223883 22.1205 -3.37204 -0.365819 
23.869 -3.74016 -0.783539 21.914 -3.32858 -0.876145 22.8915 -3.53437 -0.829842 
20.903 -3.11574 -0.70542 20.9365 -3.12279 -0.922447 24.0085 -3.76952 0.16084 
29.7486 -4.97797 0.0221002 27.924 -4.59384 0.591461 29.879 -5.00542 0.498855 
28.9015 -4.79963 0.545158 30.871 -5.21425 0.22885 30.8565 -5.21121 0.452553 
27.8226 -4.57248 -0.3327 16.2829 -2.14307 -0.404963 17.9315 -2.49016 -1.06479 
21.9865 -3.34384 0.872711 22.1205 -3.37204 -0.365819 15.9765 -2.07858 -1.15739 
14.9405 -1.86048 -0.906572 14.999 -1.87279 -1.2037 32.3214 -5.51961 -0.36264 
32.3228 -5.51989 -0.383099 32.5671 -5.57134 -0.371523 32.5651 -5.57092 -0.340834 
32.687 -5.59657 -0.329932 32.6893 -5.59706 -0.365735 26.3853 -4.26989 -0.664349 
26.378 -4.26837 -0.5988 35.8165 -6.25542 0.217605 35.8219 -6.25655 -0.0494416 
5.76555 0.0710972 0.273809 -1.47254 1.59491 -0.27381 -0.171945 1.3211 0.27381 
0.123206 1.25896 -1.25 0.336983 1.21395 0.488095 -1.83389 1.67098 -1.25 
-0.403816 1.36991 -0.299529 2.14651 0.833002 0 1.13486 1.04598 -0.625 
-1.76769 1.65704 1.25 -1.98147 1.70205 -0.488095 32.0777 -5.4683 -0.384445 
32.0784 -5.46844 -0.394674 32.4449 -5.54562 -0.377311 32.4433 -5.54526 -0.351737 
32.2006 -5.49417 -0.388887 32.1996 -5.49396 -0.373542 32.3833 -5.53264 -0.368681 
32.2605 -5.50678 -0.368091 32.2617 -5.50703 -0.385993 26.6274 -4.32087 -0.603245 
26.1409 -4.21844 -0.675924 26.1373 -4.21768 -0.64315 34.8299 -6.04771 0.0633479 
36.794 -6.46121 0.171303 36.7967 -6.46177 0.0377792 -0.855344 1.46497 -1.25 
0.361024 1.20889 -0.484465 1.13486 1.04598 -1.25 1.86932 0.891357 0.625 
1.24175 1.02348 0.869048 1.31916 1.00718 0.112247 -1.24067 1.54609 0.299529 
0.189407 1.24502 1.25 -0.789142 1.45103 1.25 1.24175 1.02348 0.869048 
1.16796 1.03901 1.25 0.5349 1.17229 0.571429 1.65723 0.936007 1.15103 
0.678682 1.14202 1.07902 0.051321 1.27409 0.745441 -0.519108 1.39418 0.736442 
-2.77934 1.87002 0.497166 4.46496 0.344907 -0.273809 4.16981 0.407044 1.25 
[...]
CELL_DATA 3284
FIELD FieldData 4
electrode_index 1 3284 int
0 0 0 0 0 0 0 0 0 
0 0 0 0 0 0 0 0 0 
0 0 0 0 0 0 0 0 0 
0 0 0 0 0 0 0 0 0 
0 0 0 0 0 0 0 0 0 
0 0 0 0 0 0 0 0 0 
0 0 0 0 0 0 0 0 0 
0 0 0 0 0 0 0 0 0 
0 0 0 0 0 0 0 0 0 
0 0 0 0 0 0 0 0 0 
0 0 0 0 0 0 0 0 0 
0 0 0 0 0 0 0 0 0 
0 0 0 0 0 0 0 0 0 
0 0 0 0 0 0 0 0 0 
0 0 0 0 0 0 0 0 0 
0 0 0 0 0 0 0 0 0 
0 0 0 0 0 0 0 0 0 
0 0 0 0 0 0 0 0 0 
0 0 0 0 0 0 0 0 0 
0 0 0 0 0 0 0 0 0 
0 0 0 0 0 0 0 0 0 
0 0 0 0 0 0 0 0 0 
0 0 0 0 0 0 0 0 0 
0 0 0 0 0 0 0 0 0 
0 0 0 0 0 0 0 0 0 
0 0 0 0 0 0 0 0 0 
0 0 0 0 0 0 0 0 0 
0 0 0 0 0 0 0 0 0 
0 0 0 0 0 0 0 0 0 
0 0 0 0 0 0 0 0 0 
0 0 0 0 0 0 0 0 0 
0 0 0 0 0 0 0 0 0 
0 0 0 0 0 0 0 0 0 
0 0 0 0 0 0 0 0 0 
0 0 0 0 0 0 0 0 0 
0 0 0 0 0 0 0 0 0 
0 0 0 0 0 0 0 0 0 
0 0 0 0 0 0 0 0 0 
0 0 0 0 0 0 0 0 0 
0 0 0 0 0 0 0 0 0 
0 0 0 0 0 0 0 0 0 
0 0 0 0 0 0 0 0 0 
0 0 0 0 0 0 0 0 0 
0 0 0 0 0 0 0 0 0 
0 0 0 0 0 0 0 0 0 
0 0 0 0 0 0 0 0 0 
0 0 0 0 0 0 0 0 0 
0 0 0 0 0 0 0 0 0 
0 0 0 0 0 0 0 0 0 
0 0 0 0 0 0 0 0 0 
0 0 0 0 0 0 0 0 0 
0 0 0 0 0 0 0 0 0 
0 0 0 0 0 0 0 0 0 
0 0 0 0 0 0 0 0 0 
0 0 0 0 0 0 0 0 0 
0 0 0 0 0 0 0 0 0 
0 0 0 0 0 0 0 0 0 
0 0 0 0 0 0 0 0 0 
0 0 0 0 0 0 0 0 0 
0 0 0 0 0 0 0 0 0 
0 0 0 0 0 0 0 0 0 
0 0 0 0 0 0 0 0 0 
0 0 0 0 0 0 0 0 0 
0 0 0 0 0 0 0 0 0 
0 0 0 0 0 0 0 0 0 
0 0 0 0 0 0 0 0 0 
0 0 0 0 0 0 0 0 0 
0 0 0 1 1 1 1 1 1 
1 1 1 1 1 1 1 1 1 
1 1 1 1 1 1 1 1 1 
1 1 1 1 1 1 1 1 1 
1 1 1 1 1 1 1 1 1 
1 1 1 1 1 1 1 1 1 
1 1 1 1 1 1 1 1 1 
1 1 1 1 1 1 1 1 1 
1 1 1 1 1 1 1 1 1 
1 1 1 1 1 1 1 1 1 
1 1 1 1 1 1 1 1 1 
1 1 1 1 1 1 1 1 1 
1 1 1 1 1 1 1 1 1 
1 1 1 1 1 1 1 1 1 
1 1 1 1 1 1 1 1 1 
1 1 1 1 1 1 1 1 1 
1 1 1 1 1 1 1 1 1 
1 1 1 1 1 1 1 1 1 
1 1 1 1 1 1 1 1 1 
1 1 1 1 1 1 1 1 1 
1 1 1 1 1 1 1 1 1 
1 1 1 1 1 1 1 1 1 
1 1 1 1 1 1 1 1 1 
1 1 1 1 1 1 1 1 1 
1 1 1 1 1 1 1 1 1 
1 1 1 1 1 1 1 1 1 
1 1 1 1 1 1 1 1 1 
1 1 1 1 1 1 1 1 1 
1 1 1 1 1 1 1 1 1 
1 1 1 1 1 1 1 1 1 
1 1 1 1 1 1 1 1 1 
1 1 1 1 1 1 1 1 1 
1 1 1 1 1 1 1 1 1 
1 1 1 1 1 1 1 1 1 
1 1 1 1 1 1 1 1 1 
1 1 1 1 1 1 1 1 1 
1 1 1 1 1 1 1 1 1 
1 1 1 1 1 1 1 1 1 
1 1 1 1 1 1 1 1 1 
1 1 1 1 1 1 1 1 1 
1 1 1 1 1 1 1 1 1 
1 1 1 1 1 1 1 1 1 
1 1 1 1 1 1 1 1 1 
1 1 1 1 1 1 1 1 1 
1 1 1 1 1 1 1 1 1 
1 1 1 1 1 1 1 1 1 
1 1 1 1 1 1 1 1 1 
1 1 1 1 1 1 1 1 1 
1 1 1 1 1 1 1 1 1 
1 1 1 1 1 1 1 1 1 
1 1 1 1 1 1 1 1 1 
1 1 1 1 1 1 1 1 1 
1 1 1 1 1 1 1 1 1 
1 1 1 1 1 1 1 1 1 
1 1 1 1 1 1 1 1 1 
1 1 1 1 1 1 1 1 1 
1 1 1 1 1 1 1 1 1 
1 1 1 1 1 1 1 1 1 
1 1 1 1 1 1 1 1 1 
1 1 1 1 1 1 1 1 1 
1 1 1 1 1 1 1 1 1 
1 1 1 1 1 1 1 1 1 
1 1 1 1 1 1 1 1 1 
1 1 1 1 1 1 1 1 1 
1 1 1 1 1 1 1 1 1 
1 1 1 1 1 1 1 1 1 
1 1 1 1 1 1 1 1 1 
1 1 1 1 1 1 1 1 1 
1 1 1 1 1 1 1 1 1 
1 1 1 1 1 1 1 1 1 
1 1 1 1 1 1 1 1 1 
1 1 1 1 1 1 1 1 1 
1 1 1 1 1 1 1 1 1 
1 1 1 1 1 1 1 1 1 
1 1 1 1 1 1 1 1 1 
1 1 1 1 1 1 1 1 1 
1 1 1 1 1 1 1 1 1 
1 1 1 1 1 1 1 1 1 
1 1 1 1 1 1 1 1 1 
1 1 1 1 1 1 1 1 1 
1 1 1 1 1 1 1 1 1 
1 1 1 1 1 1 1 1 1 
1 1 1 1 1 1 1 1 1 
1 1 1 1 1 1 1 1 1 
1 1 1 1 1 1 1 1 1 
1 1 1 1 1 1 1 1 1 
1 1 1 1 1 1 1 1 1 
1 1 1 1 1 1 1 1 1 
1 1 1 1 1 1 1 1 1 
1 1 1 1 1 1 1 1 1 
1 1 1 1 1 1 1 1 1 
1 1 1 1 1 1 1 1 1 
1 1 1 1 1 1 1 1 1 
1 1 1 1 1 1 1 1 1 
1 1 1 1 1 1 1 1 1 
1 1 1 1 1 1 1 1 1 
1 1 1 1 1 1 1 1 1 
1 1 1 1 1 1 1 1 1 
1 1 1 1 1 1 1 1 1 
1 1 1 2 2 2 2 2 2 
2 2 2 2 2 2 2 2 2 
2 2 2 2 2 2 2 2 2 
2 2 2 2 2 2 2 2 2 
2 2 2 2 2 2 2 2 2 
2 2 2 2 2 2 2 2 2 
2 2 2 2 2 2 2 2 2 
2 2 2 2 2 2 2 2 2 
2 2 2 2 2 2 2 2 2 
2 2 2 2 2 2 2 2 2 
2 2 2 2 2 2 2 2 2 
2 2 2 2 2 2 2 2 2 
2 2 2 2 2 2 2 2 2 
2 2 2 2 2 2 2 2 2 
2 2 2 2 2 2 2 2 2 
2 2 2 2 2 2 2 2 2 
2 2 2 2 2 2 2 2 2 
2 2 2 2 2 2 2 2 2 
2 2 2 2 2 2 2 2 2 
2 2 2 2 2 2 2 2 2 
2 2 2 2 2 2 2 2 2 
2 2 2 2 2 2 2 2 2 
2 2 2 2 2 2 2 2 2 
2 2 2 2 2 2 2 2 2 
2 2 2 2 2 2 2 2 2 
2 2 2 2 2 2 2 2 2 
2 2 2 2 2 2 2 2 2 
2 2 2 2 2 2 2 2 2 
2 2 2 2 2 2 2 2 2 
2 2 2 2 2 2 2 2 2 
2 2 2 2 2 2 2 2 2 
2 2 2 2 2 2 2 2 2 
2 2 2 2 2 2 2 2 2 
2 2 2 2 2 2 2 2 2 
2 2 2 2 2 2 2 2 2 
2 2 2 2 2 2 2 2 2 
2 2 2 2 2 2 2 2 2 
2 2 2 2 2 2 2 2 2 
2 2 2 2 2 2 2 2 2 
2 2 2 2 2 2 2 2 2 
2 2 2 2 2 2 2 2 2 
2 2 2 2 2 2 2 2 2 
2 2 2 2 2 2 2 2 2 
2 2 2 2 2 2 2 2 2 
2 2 2 2 2 2 2 2 2 
2 2 2 2 2 2 2 2 2 
2 2 2 2 2 2 2 2 2 
3 3 3 3 3 3 3 3 3 
3 3 3 3 3 3 3 3 3 
3 3 3 3 3 3 3 3 3 
3 3 3 3 3 3 3 3 3 
3 3 3 3 3 3 3 3 3 
3 3 3 3 3 3 3 3 3 
3 3 3 3 3 3 3 3 3 
3 3 3 3 3 3 3 3 3 
3 3 3 3 3 3 3 3 3 
3 3 3 3 3 3 3 3 3 
3 3 3 3 3 3 3 3 3 
3 3 3 3 3 3 3 3 3 
3 3 3 3 3 3 3 3 3 
3 3 3 3 3 3 3 3 3 
3 3 3 3 3 3 3 3 3 
3 3 3 3 3 3 3 3 3 
3 3 3 3 3 3 3 3 3 
3 3 3 3 3 3 3 3 3 
3 3 3 3 3 3 3 3 3 
3 3 3 3 3 3 3 3 3 
3 3 3 3 3 3 3 3 3 
3 3 3 3 3 3 3 3 3 
3 3 3 3 3 3 3 3 3 
3 3 3 3 3 3 3 3 3 
3 3 3 3 3 3 3 3 3 
3 3 3 3 3 3 3 3 3 
3 3 3 3 3 3 3 3 3 
3 3 3 3 3 3 3 3 3 
3 3 3 3 3 3 3 3 3 
3 3 3 3 3 3 3 3 3 
3 3 3 3 3 3 3 3 3 
3 3 3 3 3 3 3 3 3 
3 3 3 3 3 3 3 3 3 
3 3 3 3 3 3 3 3 3 
3 3 3 3 3 3 3 3 3 
3 3 3 3 3 3 3 3 3 
3 3 3 3 3 3 3 3 3 
3 3 3 3 3 3 3 3 3 
3 3 3 3 3 3 3 3 3 
3 3 3 3 3 3 3 3 3 
3 3 3 3 3 3 3 3 3 
3 3 3 3 3 3 3 3 3 
3 3 3 3 3 3 3 3 3 
3 3 3 3 3 3 3 3 3 
3 3 3 3 3 3 3 3 3 
3 3 3 3 3 3 3 3 3 
3 3 3 3 3 3 3 3 3 
3 3 3 3 3 3 3 3 3 
3 3 3 3 3 3 3 3 3 
3 3 3 3 3 3 3 3 3 
3 3 3 3 3 3 3 3 3 
3 3 3 3 4 4 4 4 4 
4 4 4 4 4 4 4 4 4 
4 4 4 4 4 4 4 4 4 
4 4 4 4 4 4 4 4 4 
4 4 4 4 4 4 4 4 4 
4 4 4 4 4 4 4 4 4 
4 4 4 4 4 4 4 4 4 
4 4 4 4 4 4 4 4 4 
4 4 4 4 4 4 4 4 4 
4 4 4 4 4 4 4 4 4 
4 4 4 4 4 4 4 4 4 
4 4 4 4 4 4 4 4 4 
4 4 4 4 4 4 4 4 4 
4 4 4 4 4 4 4 4 4 
4 4 4 4 4 4 4 4 4 
4 4 4 4 4 4 4 4 4 
4 4 4 4 4 4 4 4 4 
4 4 4 4 4 4 4 4 4 
4 4 4 4 4 4 4 4 4 
4 4 4 4 4 4 4 4 4 
4 4 4 4 4 4 4 4 4 
4 4 4 4 4 4 4 4 4 
4 4 4 4 4 4 4 4 4 
4 4 4 4 4 4 4 4 4 
4 4 4 4 4 4 4 4 4 
4 4 4 4 4 4 4 4 4 
4 4 4 4 4 4 4 4 4 
4 4 4 4 4 4 4 4 4 
4 4 4 4 4 4 4 4 4 
4 4 4 4 4 4 4 4 4 
4 4 4 4 4 4 4 4 4 
4 4 4 4 4 4 4 4 4 
4 4 4 4 4 4 4 4 4 
4 4 4 4 4 4 4 4 4 
4 4 4 4 4 4 4 4 4 
4 4 4 4 4 4 4 4 4 
4 4 4 4 4 4 4 4 4 
4 4 4 4 4 4 4 4 4 
4 4 4 4 4 4 4 4 4 
4 4 4 4 4 4 4 4 4 
4 4 4 4 4 4 4 4 4 
4 4 4 4 4 4 4 4 4 
4 4 4 4 4 4 4 4 4 
4 4 4 4 4 4 4 4 4 
4 4 4 4 4 4 4 4 4 
4 4 4 4 4 4 4 4 4 
4 4 4 4 4 4 4 4 4 
4 4 4 4 4 4 4 4 4 
4 4 4 4 4 4 4 4 4 
4 4 4 4 4 4 4 4 4 
4 4 4 4 4 4 4 4 4 
4 4 4 4 4 4 4 4 4 
4 4 4 4 4 4 4 4 4 
4 4 4 4 4 4 4 4 4 
4 4 4 4 4 4 4 4 4 
4 4 4 4 4 4 4 4 4 
4 4 4 4 4 4 4 4 4 
4 4 4 4 4 4 4 4 4 
4 4 4 4 4 4 4 4 4 
4 4 4 4 4 4 4 4 4 
4 4 4 4 4 4 4 4 4 
4 4 4 4 4 4 4 4 4 
4 4 4 4 4 4 4 4 4 
4 4 4 4 4 4 4 4 4 
4 4 4 4 4 4 4 4 4 
4 4 4 4 4 4 4 4 4 
4 4 4 4 4 4 4 4 4 
4 4 4 4 4 4 4 4 4 
4 4 4 4 4 4 4 4 4 
4 4 4 4 4 4 4 4 4 
4 4 4 4 4 4 4 4 4 
4 4 4 4 4 4 4 4 4 
4 4 4 4 4 4 4 4 4 
4 4 4 4 4 4 4 4 4 
4 4 4 4 4 4 4 4 4 
4 4 4 4 4 4 4 4 4 
4 4 4 4 4 4 4 4 4 
4 4 4 4 4 4 4 4 4 
4 4 4 4 4 4 4 4 4 
4 4 4 4 4 4 4 4 4 
4 4 4 4 4 4 4 4 4 
4 4 4 4 4 4 4 4 4 
4 4 4 4 4 4 4 4 4 
4 4 4 4 4 4 4 4 4 
4 4 4 4 4 4 4 4 4 
4 4 4 4 4 4 4 4 4 
4 4 4 4 4 4 4 4 4 
4 4 4 4 4 4 4 4 4 
4 4 4 4 4 4 4 4 4 
4 4 4 4 4 4 4 4 4 
4 4 4 4 4 4 4 4 4 
4 4 4 4 4 4 4 4 4 
4 4 4 4 4 4 4 4 4 
4 4 4 4 4 4 4 4 4 
4 4 4 4 4 4 4 4 4 
4 4 4 4 4 4 4 4 4 
4 4 4 4 4 4 4 4 4 
4 4 4 4 4 4 4 4 4 
4 4 4 4 4 4 4 4 4 
4 4 4 4 4 4 4 4 4 
4 4 4 4 4 4 4 4 
charge 1 3284 double
-0.000328219 -0.000259654 -0.000183882 -0.00015869 -0.00017671 -0.00017297 -0.000180631 -0.000203752 -0.000213796 
-0.000238217 -0.000296195 -0.000291911 -0.000492562 -0.000162701 -0.000617128 -0.000157646 -0.000587119 -0.000221903 
-0.000717522 -0.000210511 -0.000218078 -0.000152209 -0.000161816 -0.000180351 -0.000282114 -0.000238395 -0.000201262 
-0.000362288 -0.000218715 -0.000388049 -0.000516659 -0.000341134 -0.000248922 -0.000219679 -0.00028774 -0.000245849 
-0.000361809 -0.000482363 -0.00055786 -0.000192202 -0.000156078 -0.000148495 -0.000149035 -0.000175748 -0.000159893 
-0.000367583 -0.00045945 -0.000339985 -0.000348804 -0.00030372 -0.000280259 -0.00032655 -0.000316615 -0.000160189 
-0.000171296 -0.000222632 -0.000202404 -0.000234535 -0.000176916 -0.000194542 -0.000526569 -0.000690004 -0.00105363 
-0.000596621 -0.00155046 -0.00162343 -0.000813994 -0.000426848 -0.000701047 -0.000980451 -0.000746559 -0.00093957 
-0.000389434 -0.000658557 -0.00092811 -0.00172985 -0.000436146 -0.000565275 -0.000221578 -0.000233385 -0.000232825 
-0.000222549 -0.000760692 -0.000770674 -0.000199775 -0.000700855 -0.00017356 -0.000182987 -0.000351752 -0.000247535 
-0.000546606 -0.000578911 -0.000194728 -0.000237345 -0.000161628 -0.000280836 -0.000412738 -0.000476501 -0.000366274 
-0.000162829 -0.000182438 -0.000161637 -0.000149979 -0.000186331 -0.000262829 -0.000230468 -0.000248139 -0.000227956 
-0.000252598 -0.000155687 -0.000156944 -0.000152017 -0.000195778 -0.000193539 -0.000263984 -0.000154334 -0.000321129 
-0.00015674 -0.000150475 -0.000153738 -0.000153583 -0.000149508 -0.000190794 -0.000147115 -0.000154576 -0.000160483 
-0.000178042 -0.000622158 -0.000496665 -0.00210942 -0.00259798 -0.000397881 -0.000399655 -0.000311003 -0.000253924 
-0.000139189 -0.000153182 -0.000631734 -0.000301222 -0.000356472 -0.000984261 -0.000610259 -0.000655342 -0.000390788 
-0.00240352 -0.00134088 -0.00411013 -0.00612699 -0.000366372 -0.000317437 -0.000407118 -0.000628853 -0.000216026 
-0.00022001 -0.000368126 -0.000429512 -0.000165204 -0.000160356 -0.000127578 -0.000148426 -0.000550329 -0.000274834 
-0.000614403 -0.000336513 -0.000317401 -0.000440669 -0.000424283 -0.000344735 -0.000884284 -0.000680778 -0.000667576 
-0.00065212 -0.000660859 -0.000396881 -0.000845188 -0.000419108 -0.000494351 -0.000391681 -0.000383349 -0.000394641 
-0.000442624 -0.000634385 -0.000862539 -0.0014161 -0.00145257 -0.00247583 -0.00288403 -0.00722609 -0.00682129 
-0.00602699 -0.00646326 -0.010363 -0.00615524 -0.00724048 -0.00699594 -0.0100999 -0.00606769 -0.0062582 
-0.00673644 -0.0105514 -0.00647605 -0.00884182 -0.0072945 -0.0111883 -0.0100828 -0.00765768 -0.00948517 
-0.00929563 -0.00852686 -0.00973909 -0.00812388 -0.00877238 -0.00859565 -0.00945159 -0.00983536 -0.00923252 
-0.00960582 -0.00874568 -0.0133749 -0.00898545 -0.00979841 -0.0113695 -0.0111124 -0.00216253 -0.00208574 
-0.00326493 -0.00326559 -0.00290474 -0.00283311 -0.00483018 -0.00316047 -0.00215837 -0.00306138 -0.00369147 
-0.00313616 -0.00642821 -0.00104012 -0.00139801 -0.00218009 -0.00157806 -0.00125113 -0.00236757 -0.00153183 
-0.00202955 -0.00183965 -0.00481423 -0.00251354 -0.00307915 -0.00539025 -0.00185334 -0.000779417 -0.000956837 
-0.00110368 -0.00123335 -0.00132057 -0.000816291 -0.00152715 -0.015622 -0.0131999 -0.0117846 -0.0123187 
-0.011821 -0.00869301 -0.00629037 -0.00639516 -0.00698661 -0.00881965 -0.000619812 -0.000463312 -0.000436718 
-0.00060982 -0.000430181 -0.000651431 -0.000521107 -0.000378056 -0.000535642 -0.000402383 -0.000386114 -0.000567636 
-0.000626904 -0.0413619 -0.0220321 -0.0116926 -0.0143548 -0.0178122 -0.0247322 -0.0196905 -0.012835 
-0.0194027 -0.0175014 -0.00360978 -0.00308335 -0.00743897 -0.0133171 -0.00380125 -0.00398986 -0.008369 
-0.0143048 -0.000667599 -0.000428878 -0.00041245 -0.000482275 -0.000433822 -0.000394823 -0.000619731 -0.00042252 
-0.000396344 -0.000356611 -0.000804559 -0.000463622 -0.000490884 -0.000412971 -0.000760478 -0.00124866 -0.000701966 
-0.000823881 -0.00188447 -0.00054932 -0.000730756 -0.000421797 -0.000458472 -0.000398044 -0.000411643 -0.000355272 
-0.000564042 -0.000649668 -0.000645527 -0.000500794 -0.000437637 -0.000442086 -0.000397027 -0.000525442 -0.00103798 
-0.000751514 -0.000831259 -0.000749353 -0.00099497 -0.00112676 -0.00207186 -0.00427481 -0.00550066 -0.00151105 
-0.00298741 -0.00227691 -0.00312635 -0.00140473 -0.000895265 -0.00161213 -0.000585841 -0.000686219 -0.000250161 
-0.0013525 -0.00211901 -0.00221812 -0.000471344 -0.00128331 -0.000346025 -8.45508e-05 -0.000196571 4.5355e-05 
-3.31699e-05 7.2462e-06 -1.04341e-05 -1.73242e-06 1.0362e-07 1.23836e-08 -4.30081e-07 2.12759e-06 -2.17657e-06 
-6.12494e-07 -0.000938997 -0.000937234 -0.000499688 0.000147328 -0.0028192 0.000177038 -0.00115348 -0.000443603 
-0.00139896 -0.000404073 -0.000702588 -0.000955514 -0.00053137 -0.000993752 -0.000687339 -0.00353416 0.000353759 
0.000196239 0.000112173 -0.000208994 0.000221082 0.000125763 -0.00116761 -0.0020025 -0.00092415 -0.00130318 
-5.64914e-05 -1.51235e-05 -0.00215432 -0.0012586 -0.00125025 -0.000923324 -0.00179643 -0.00234498 -0.001056 
-0.000745357 -0.00140353 -0.00141836 -0.017698 -0.0134407 -0.0130233 -0.0182394 -0.012164 -0.0114421 
-0.0215177 -0.0125263 -0.0166115 -0.015755 -0.00554779 -0.00204565 -0.0011287 -0.00098138 -0.000741854 
-0.000817109 -0.000699376 -0.00097663 -0.00237604 -0.00320838 -0.00236303 -0.00430329 -0.00302583 -0.000741628 
-0.00108808 -0.00132525 -0.000802923 -0.00107474 -0.00122986 -0.00205881 -0.000823252 -0.000957016 -0.000482863 
-0.000641975 -0.000545168 -0.00143484 -0.00138803 -0.00215486 -0.00145491 -0.000737945 -0.000988927 -0.000683441 
-0.00024436 -0.000550875 -0.000155475 -0.000619591 -0.000192339 -0.000271073 -0.000410824 -0.000481318 -0.000278628 
-0.000369568 -0.000285703 -0.000239304 -0.000280434 -0.000526557 -0.000318821 -0.000289409 -0.000284312 -0.000238301 
-0.000213264 -0.000203194 -0.000186137 -0.000183176 -0.000166122 -0.000173444 -0.000160085 -0.00015204 -0.000148145 
-0.000152659 -0.000230961 -0.000242581 -0.000245369 -0.000246768 -0.000150127 -0.000154982 -0.000730297 -0.000183226 
-0.000174414 -0.00016264 -0.000179459 -0.000179874 -0.000335906 -0.000362887 -0.00048192 -0.000554241 -0.000341734 
-0.000348689 -0.000318367 -0.000663811 -0.000332413 -0.000465272 -0.00037044 -0.000297665 -0.000159756 -0.000166755 
-0.000173853 -0.000144542 -0.000154894 -0.000134302 -0.000120101 -0.000150035 -0.000164229 -0.000194392 -0.000325778 
-0.000241603 -0.000198873 -0.000203757 -0.00101009 -0.000662725 -0.000782275 -0.000416531 -0.000950879 -0.000562027 
-0.000222508 -0.000352768 -0.000737624 -0.000205482 -0.000226498 -0.000210934 -0.000210934 -0.000374158 -0.0001898 
-0.000267044 -0.000222013 -0.00032202 -0.00031238 -0.00018276 -0.000368991 -0.000184667 -0.000453066 -0.00041176 
-0.000271739 -0.000227151 -0.000216526 -0.000245216 -0.000192116 -0.00016348 -0.000174019 -0.000196103 -0.0001824 
-0.000154824 -0.00015774 -0.000174294 -0.000193502 -0.00015051 -0.000155876 -0.000153449 -0.000148973 -0.000156896 
-0.000151313 -0.000157228 -0.00063983 -0.000668338 -0.000161739 -0.000150259 -0.000147976 -0.000158331 -0.000270673 
-0.000159527 -0.000549531 -0.000515691 -0.000121283 -0.000110431 -0.000406878 -0.000364924 -0.000196711 -0.000269897 
-0.000838939 -0.000734724 -0.000577535 -0.00100815 -0.000867871 -0.000356936 -0.000398804 -0.000133878 -0.000118595 
-9.01759e-05 -6.63317e-05 -0.000622353 -0.000408658 -0.000310386 -0.000331474 -0.000239565 -0.00022468 -0.000273175 
-0.000403315 -0.0020017 -0.00147637 -0.000457924 -0.000520848 -0.000236232 -0.000480883 -0.000350411 -0.000266094 
-0.000243254 -0.000217032 -0.000291556 -0.0464706 -0.00263848 -0.0480237 -0.00187081 -0.0217377 -0.00514553 
-0.0232376 -0.00309671 -0.0253455 -0.0241595 -0.139526 -0.0129643 -0.00355178 -0.00137001 -0.0046154 
-0.000770959 -0.00276523 -0.000727733 -0.00245838 -0.000686583 -0.000674097 -0.000609694 -0.000747784 -0.000882285 
-0.00133083 -0.00199403 -0.000624237 -0.00103283 -0.000736319 -0.00143588 -0.00187265 -0.00234417 -0.00213691 
-0.00320472 -0.00310798 -0.00849296 -0.0123476 -0.0121667 -0.0355855 -0.0762046 -0.00161178 -0.000952124 
-0.000823558 -0.00157115 -0.00132718 -0.215356 -0.350085 -0.330792 -0.226704 -0.17519 -0.140865 
-0.204465 -0.170373 -0.00444447 -0.0178692 -0.260045 -0.134516 -0.202806 -0.0687567 -0.0984098 
-0.00173426 -0.00233835 -0.0032463 -0.00213079 -0.00461005 -0.00454208 -0.00261873 -0.00149513 -0.00215392 
-0.00290459 -0.00302396 -0.00399834 -0.00142035 -0.0025455 -0.00389059 -0.0075015 -0.00168884 -0.00228477 
-0.00113821 -0.00153114 -0.00210856 -0.00191901 -0.0143604 -0.00303681 -0.0100139 -0.0020526 -0.0080631 
-0.00570598 -0.00886925 -0.00255002 -0.00152658 -0.00154617 -0.000631481 -0.000851503 -0.000584209 -0.00300359 
-0.0109511 -0.00386207 -0.0590483 -0.00340753 -0.00881618 -0.00443385 -0.000676291 -0.0024486 -0.00268298 
-0.00144206 -0.00139701 -0.000937877 -0.00097758 -0.000571265 -0.000657 -0.000612299 -0.00103154 -0.000806987 
-0.00391451 -0.000820825 -0.00546189 -0.00129623 -0.00118636 -0.0016497 -0.000729971 -0.000958192 -0.00189127 
-0.000787752 -0.00106772 -0.00151606 -0.0012067 -0.556549 -0.417783 -0.00605184 -0.00808541 -0.362994 
-0.409147 -0.338453 -0.360017 0.00303235 -0.000555351 -1.22713 -0.734008 -0.50057 -0.286198 
-0.00709834 -0.00390367 -0.0103887 -0.0179171 -0.302796 -0.24907 -0.604245 -0.780531 -0.150037 
-0.144502 -0.423562 -0.744616 -0.00718584 -0.00427996 0.00569407 0.000966625 -0.0461723 -0.714628 
-0.752499 -0.722719 -0.735405 -0.746094 -0.718319 -0.732647 -0.71567 -0.716829 -0.714998 
-0.714963 -0.818982 -0.7196 -0.734036 -0.739435 -0.79386 -0.773913 -0.770486 -0.802353 
-0.761862 -0.915978 -0.798 -0.937697 -0.7691 -0.771081 -0.940386 -0.893984 -0.881418 
-0.844026 -0.841639 -0.86302 -0.854133 -0.709598 -0.718028 -0.786338 -0.716342 -0.92998 
-0.984586 -0.788491 -0.977347 -0.826095 -0.734663 -0.742998 -0.743205 -0.716114 -0.735425 
-0.716532 -0.805812 -0.725768 -0.735199 -0.724904 -0.717317 -0.716582 -0.732985 -0.788791 
-0.717477 -0.720438 -0.724608 -0.716744 -0.893617 -0.715785 -0.71668 -0.713873 -0.721692 
-0.719746 -0.717382 -0.771433 -0.719742 -0.719109 -0.745906 -0.718575 -0.755128 -0.785382 
-0.715111 -0.753678 -0.717822 -0.718144 -0.73539 -0.74556 -0.719175 -0.725946 -0.71934 
-0.728863 -0.723128 -0.727461 -0.715584 -0.716387 -0.748865 -0.714348 -0.724993 -0.715334 
-0.718778 -0.715582 -0.718505 -0.766916 -0.723138 -0.765836 -0.717817 -0.760727 -0.714065 
-0.718525 -0.717135 -0.714169 -0.73607 -0.750039 -0.717391 -0.716807 -0.71884 -0.782339 
-0.714091 -0.715076 -0.717931 -0.742189 -0.716364 -0.720569 -0.714164 -0.721028 -0.755408 
-0.717942 -0.717679 -0.713785 -0.715009 -0.720008 -0.73787 -0.716549 -0.723321 -0.721371 
-0.716375 -0.716165 -0.724691 -0.71716 -0.71467 -0.731825 -0.715269 -0.723133 -0.73013 
-0.717972 -0.735538 -0.731676 -0.7174 -0.731888 -0.708524 -0.721374 -0.40119 -0.720426 
-0.717433 -0.719634 -0.719531 -0.720163 -0.716708 -0.698953 -0.718389 -0.722064 -0.719524 
-0.708882 -0.71601 -0.715873 -0.707797 -0.716065 -0.71939 -0.725303 -0.743289 -0.722273 
-0.71495 -0.755069 -0.724352 -0.73481 -0.725739 -0.71596 -0.753464 -0.720921 -0.714275 
-0.715202 -0.714882 -0.713824 -0.717328 -1.39848 -0.995334 -0.696728 -0.78327 -1.17255 
-1.27588 -1.33413 -0.844055 -0.966458 -0.94646 -0.714132 -0.773187 -0.752206 -0.881033 
-0.699243 -0.742823 -0.724483 -0.714121 -0.70712 -0.721447 -0.757265 -0.719485 -0.717123 
-0.722778 -0.71873 -0.713726 -0.719659 -0.719084 -0.748905 -0.722672 -0.721865 -0.716172 
-0.810149 -0.72955 -0.718887 -0.718842 -0.779269 -0.793772 -0.714408 -0.724362 -0.715443 
-0.71458 -0.713551 -0.694519 -0.714168 -0.717609 -0.721103 -0.728319 -0.856149 -0.730406 
-0.875959 -0.732882 -0.716913 -0.717697 -0.716612 -0.71984 -0.716564 -0.717343 -0.72801 
-0.710847 -0.720561 -0.720187 -0.71606 -0.715409 -0.7669 -0.714961 -0.713897 -0.719057 
-0.715719 -0.797759 -0.733366 -0.723182 -0.719415 -0.719086 -0.796845 -0.71252 -0.715746 
-0.744009 -0.904662 -0.753296 -0.724665 -0.717816 -0.719559 -0.879444 -0.740458 -0.723865 
-0.716775 -0.716956 -0.715415 -0.718164 -0.788862 -0.821735 -0.711783 -0.738014 -0.713952 
-0.714689 -0.715554 -1.03402 -0.754945 -0.740043 -0.714404 -0.736872 -0.714873 -0.721835 
-0.736579 -0.718461 -0.717777 -0.719744 -0.741375 -0.722047 -0.838738 -0.728357 -0.756896 
-0.715254 -0.714527 -0.729304 -0.718783 -0.724147 -0.734234 -0.721782 -0.724266 -0.717129 
-0.716423 -0.714541 -0.713809 -0.714379 -0.731239 -0.731837 -0.721843 -0.726271 -0.717261 
-0.716752 -0.71601 -0.714946 -0.717127 -0.717602 -0.715028 -0.720114 -0.718774 -0.729339 
-0.717416 -0.709925 -0.732323 -0.717499 -0.721014 -0.71693 -0.716586 -0.713858 -0.713875 
-0.740212 -0.713744 -0.713788 -0.713725 -0.762461 -0.713752 -0.734584 -0.725307 -0.718177 
-0.719112 -0.717862 -0.716999 -0.722532 -0.718661 -0.726899 -0.71761 -0.716451 -0.718921 