# vtk DataFile Version 4.0
vtk output
ASCII
DATASET STRUCTURED_POINTS
DIMENSIONS 42 42 42
SPACING 0.05 0.05 0.05
ORIGIN -1.025 -1.025 -1.025
POINT_DATA 74088
FIELD FieldData 1
potential 1 74088 double
0.0276534 0.0275826 0.0275526 0.0275306 0.0274474 0.0272087 0.0267327 0.0259909 0.0250232 
0.0239256 0.0228079 0.0217443 0.0207608 0.0198497 0.0189896 0.0181634 0.0173645 0.0165937 
0.0158561 0.0151586 0.0145071 0.0139049 0.0133485 0.012826 0.0123235 0.0118309 0.0113449 
0.0108677 0.010404 0.00995987 0.00954076 0.00914947 0.00878514 0.00844328 0.00811895 0.00781093 
0.00752096 0.00725358 0.00701394 0.00680676 0.00663336 0.00648667 0.0346202 0.0343284 0.0340529 
0.0337704 0.0334382 0.0329985 0.0323943 0.0315948 0.0306111 0.0294942 0.0283135 0.0271306 
0.0259805 0.0248745 0.023809 0.0227787 0.0217811 0.0208181 0.0198945 0.0190156 0.0181865 
0.0174096 0.0166824 0.0159972 0.0153432 0.0147116 0.0140975 0.0135001 0.0129217 0.0123663 
0.0118378 0.011339 0.0108707 0.0104311 0.0100181 0.00962974 0.00926646 0.00892982 0.00862198 
0.00834326 0.00809077 0.00785506 0.0420113 0.0414988 0.040987 0.0404588 0.0398862 0.0392317 
0.0384562 0.0375339 0.0364624 0.0352668 0.0339903 0.0326784 0.0313666 0.0300747 0.0288115 
0.0275802 0.0263836 0.0252257 0.0241111 0.0230447 0.0220306 0.0210709 0.0201646 0.0193063 
0.0184889 0.0177051 0.0169497 0.0162204 0.0155173 0.0148425 0.0141987 0.0135881 0.013012 
0.0124702 0.0119616 0.0114848 0.0110391 0.0106236 0.010238 0.00987987 0.00954346 0.0092199 
0.0498122 0.0490786 0.0483322 0.0475611 0.0467468 0.0458646 0.0448875 0.0437952 0.0425811 
0.0412564 0.0398475 0.0383872 0.0369065 0.0354286 0.0339687 0.0325364 0.0311388 0.0297817 
0.028471 0.0272112 0.0260063 0.024858 0.0237663 0.0227281 0.0217386 0.0207922 0.0198845 
0.0190125 0.0181752 0.0173729 0.0166073 0.0158799 0.0151918 0.0145431 0.0139334 0.0133612 
0.0128252 0.0123234 0.0118529 0.0114096 0.0109874 0.0105784 0.0579954 0.057039 0.0560563 
0.0550404 0.0539789 0.0528558 0.0516529 0.0503554 0.0489562 0.0474603 0.045884 0.0442513 
0.0425878 0.0409166 0.0392559 0.0376188 0.0360155 0.0344543 0.0329413 0.0314821 0.0300801 
0.028738 0.0274558 0.0262322 0.0250642 0.0239477 0.0228792 0.0218558 0.0208759 0.019939 
0.0190454 0.0181961 0.0173915 0.0166318 0.0159162 0.0152435 0.0146114 0.0140171 0.0134569 
0.0129256 0.0124171 0.011925 0.0665263 0.0653441 0.064122 0.0628564 0.0615403 0.0601638 
0.0587153 0.0571849 0.0555675 0.0538656 0.0520906 0.0502602 0.0483962 0.0465196 0.0446491 
0.0428001 0.0409848 0.0392122 0.0374904 0.0358249 0.03422 0.0326781 0.0312006 0.0297869 
0.0284352 0.0271431 0.0259076 0.0247262 0.0235971 0.0225195 0.0214927 0.020517 0.0195919 
0.0187176 0.0178925 0.0171152 0.016383 0.0156927 0.0150399 0.0144192 0.0138251 0.0132521 
0.0753698 0.0739574 0.0724909 0.0709695 0.0693904 0.0677485 0.0660377 0.0642521 0.0623897 
0.060453 0.0584514 0.0563995 0.0543152 0.0522179 0.0501259 0.048055 0.0460182 0.0440264 
0.0420877 0.0402088 0.0383942 0.0366471 0.0349692 0.0333609 0.0318215 0.0303492 0.0289422 
0.0275981 0.0263153 0.0250921 0.0239281 0.0228223 0.0217738 0.0207819 0.0198448 0.0189605 
0.0181261 0.0173378 0.0165912 0.0158813 0.0152029 0.014551 0.0844956 0.0828473 0.0811297 
0.0793451 0.0774938 0.0755748 0.0735865 0.0715272 0.0693977 0.0672022 0.0649496 0.0626528 
0.0603282 0.0579934 0.0556653 0.0533601 0.0510913 0.0488703 0.046706 0.0446054 0.0425743 
0.040616 0.0387328 0.0369256 0.0351948 0.0335389 0.0319568 0.0304467 0.0290067 0.0276352 
0.0263308 0.0250924 0.0239184 0.0228072 0.0217567 0.0207642 0.0198268 0.0189404 0.0181004 
0.0173023 0.0165412 0.0158129 0.0938823 0.0919905 0.0900138 0.0879569 0.0858234 0.0836159 
0.0813358 0.078986 0.0765701 0.0740944 0.0715686 0.0690054 0.0664202 0.0638293 0.0612493 
0.0586958 0.0561824 0.0537211 0.0513214 0.0489909 0.0467355 0.0445597 0.0424658 0.0404559 
0.03853 0.0366879 0.034928 0.0332494 0.0316501 0.0301282 0.0286819 0.0273093 0.0260086 
0.0247776 0.0236134 0.022513 0.0214729 0.0204893 0.0195575 0.0186729 0.0178314 0.0170287 
0.10352 0.101375 0.0991296 0.0967903 0.0943632 0.0918541 0.0892682 0.0866115 0.0838909 
0.0811152 0.0782953 0.0754447 0.0725785 0.0697127 0.0668635 0.0640461 0.0612743 0.0585605 
0.0559145 0.0533446 0.0508574 0.0484574 0.0461476 0.0439302 0.0418061 0.0397749 0.0378356 
0.0359869 0.0342267 0.0325534 0.0309644 0.0294575 0.0280299 0.0266792 0.025402 0.0241948 
0.0230537 0.0219746 0.0209533 0.0199848 0.0190652 0.0181906 0.113409 0.111001 0.108475 
0.105841 0.103107 0.100283 0.0973754 0.0943951 0.0913514 0.0882559 0.0851212 0.0819619 
0.0787938 0.0756332 0.0724962 0.0693983 0.0663533 0.0633735 0.0604699 0.0576509 0.054923 
0.0522917 0.0497605 0.0473314 0.0450054 0.0427827 0.0406621 0.0386422 0.0367209 0.0348956 
0.0331641 0.0315231 0.0299697 0.0285003 0.0271116 0.0257994 0.0245597 0.0233878 0.0222794 
0.0212302 0.0202355 0.0192916 0.123563 0.120877 0.118058 0.115115 0.112059 0.108903 
0.105657 0.102335 0.0989484 0.0955122 0.0920413 0.0885516 0.0850602 0.0815839 0.0781395 
0.0747428 0.0714083 0.0681487 0.0649746 0.0618954 0.0589182 0.0560482 0.0532896 0.0506442 
0.0481133 0.0456967 0.0433933 0.0412013 0.0391185 0.037142 0.0352684 0.0334947 0.0318168 
0.0302309 0.0287328 0.0273182 0.0259827 0.0247212 0.0235292 0.0224022 0.0213357 0.0203256 
0.134002 0.131025 0.127896 0.124627 0.121232 0.117725 0.114121 0.110435 0.106684 
0.102885 0.0990544 0.0952112 0.0913735 0.0875595 0.0837869 0.0800722 0.0764307 0.0728753 
0.0694176 0.0660671 0.0628307 0.0597144 0.056722 0.0538557 0.0511163 0.0485036 0.0460162 
0.0436518 0.0414077 0.0392807 0.0372669 0.035362 0.0335618 0.0318619 0.0302574 0.0287435 
0.0273154 0.0259679 0.024696 0.0234949 0.0223599 0.0212868 0.144756 0.14147 0.138012 
0.134398 0.130642 0.126763 0.122778 0.118706 0.114566 0.110378 0.106163 0.101941 
0.0977318 0.0935563 0.0894331 0.0853797 0.0814122 0.0775447 0.0737887 0.0701543 0.0666489 
0.0632779 0.0600453 0.0569533 0.0540022 0.0511914 0.048519 0.0459823 0.0435778 0.0413014 
0.0391491 0.0371156 0.0351962 0.0333853 0.031678 0.0300686 0.0285516 0.0271219 0.025774 
0.0245026 0.0233031 0.0221706 0.155861 0.152247 0.14844 0.144457 0.140316 0.13604 
0.131647 0.127161 0.122604 0.117999 0.11337 0.108741 0.104134 0.0995708 0.0950726 
0.0906583 0.0863448 0.0821471 0.0780775 0.074146 0.0703605 0.0667266 0.0632473 0.0599247 
0.0567586 0.0537481 0.0508901 0.0481814 0.0456178 0.0431944 0.0409058 0.0387469 0.0367114 
0.0347936 0.0329872 0.0312864 0.0296851 0.0281775 0.0267578 0.0254205 0.0241604 0.0229724 
0.167359 0.163394 0.159213 0.154835 0.150283 0.145579 0.140748 0.135816 0.13081 
0.125756 0.120682 0.115614 0.110578 0.105599 0.100699 0.0958999 0.0912188 0.0866718 
0.0822722 0.0780299 0.0739532 0.0700472 0.0663147 0.0627568 0.0593732 0.0561611 0.0531176 
0.050238 0.0475172 0.0449492 0.042528 0.040247 0.0380997 0.036079 0.0341784 0.0323909 
0.0307099 0.0291294 0.0276424 0.0262437 0.0249273 0.0236879 0.179298 0.174957 0.170374 
0.165571 0.160574 0.155409 0.150106 0.144692 0.1392 0.133661 0.128105 0.122563 
0.117064 0.111637 0.106307 0.101095 0.0960224 0.0911058 0.0863588 0.0817916 0.0774119 
0.0732248 0.0692328 0.0654356 0.0618316 0.0584175 0.0551888 0.05214 0.0492646 0.0465557 
0.0440056 0.0416072 0.0393527 0.0372343 0.0352442 0.0333754 0.0316202 0.0299716 0.028423 
0.0269676 0.0255996 0.0243133 0.191729 0.186983 0.181966 0.176705 0.171227 0.165563 
0.159746 0.15381 0.14779 0.141722 0.135643 0.129587 0.123589 0.117678 0.111884 
0.106232 0.100742 0.095434 0.0903208 0.085414 0.0807196 0.076243 0.071985 0.0679445 
0.0641186 0.0605026 0.0570904 0.0538748 0.0508484 0.0480026 0.0453289 0.0428182 0.040462 
0.0382517 0.0361783 0.0342338 0.0324101 0.0306994 0.0290943 0.0275878 0.0261734 0.0248448 
0.20471 0.199527 0.194042 0.188283 0.182282 0.176075 0.169698 0.16319 0.156594 
0.149951 0.143302 0.136688 0.130146 0.123713 0.11742 0.111294 0.10536 0.0996371 
0.0941388 0.0888766 0.0838564 0.0790815 0.0745522 0.0702657 0.0662172 0.0624002 0.0588071 
0.0554286 0.0522558 0.0492786 0.046487 0.0438705 0.0414192 0.0391233 0.0369733 0.0349596 
0.0330738 0.0313071 0.0296518 0.0280999 0.0266446 0.0252792 0.218304 0.212648 0.206654 
0.200354 0.193783 0.186981 0.179991 0.172859 0.165631 0.158358 0.151085 0.143861 
0.136728 0.129728 0.122897 0.116264 0.109855 0.103692 0.0977886 0.0921558 0.0867983 
0.081718 0.0769128 0.0723786 0.0681081 0.0640928 0.0603225 0.0567866 0.0534733 0.0503713 
0.0474687 0.0447539 0.042215 0.0398412 0.0376217 0.0355465 0.0336055 0.0317898 0.0300905 
0.0284997 0.0270093 0.0256126 0.232578 0.22641 0.219862 0.212971 0.205776 0.198322 
0.190659 0.182839 0.174917 0.16695 0.158993 0.1511 0.143323 0.135706 0.128292 
0.121114 0.1142 0.107571 0.101242 0.095223 0.0895176 0.0841256 0.0790418 0.0742599 
0.0697698 0.0655603 0.061619 0.0579323 0.0544864 0.0512678 0.0482626 0.0454577 0.0428401 
0.0403969 0.0381165 0.0359876 0.0339993 0.0321419 0.030406 0.0287828 0.027264 0.025842 
0.247606 0.240881 0.23373 0.226192 0.218312 0.210141 0.201735 0.193155 0.184466 
0.175732 0.167021 0.158395 0.149911 0.141623 0.133578 0.125814 0.118359 0.111238 
0.104464 0.0980453 0.0919828 0.0862738 0.0809111 0.0758836 0.0711788 0.0667817 0.0626769 
0.0588485 0.0552795 0.0519541 0.0488565 0.0459715 0.0432848 0.0407819 0.0384498 0.0362763 
0.0342496 0.0323586 0.0305937 0.0289453 0.0274048 0.025964 0.263467 0.256137 0.248327 
0.24008 0.231446 0.222482 0.213253 0.203831 0.19429 0.184708 0.175161 0.165725 
0.156466 0.147447 0.138718 0.130323 0.122294 0.114653 0.107414 0.100582 0.0941566 
0.0881291 0.0824887 0.0772209 0.0723088 0.0677335 0.0634759 0.0595164 0.0558362 0.052416 
0.0492377 0.0462843 0.0435394 0.0409877 0.0386144 0.0364061 0.0343503 0.0324347 0.0306492 
0.0289835 0.0274286 0.0259758 0.280244 0.272257 0.263727 0.254701 0.245234 0.235392 
0.225249 0.214888 0.204399 0.193872 0.183398 0.173066 0.162954 0.153135 0.143665 
0.134593 0.125953 0.117766 0.110044 0.102789 0.0959957 0.0896517 0.0837397 0.0782402 
0.0731315 0.0683906 0.0639936 0.0599175 0.0561398 0.0526384 0.0493934 0.0463847 0.0435946 
0.0410059 0.038603 0.0363708 0.0342959 0.0323657 0.0305685 0.028894 0.0273323 0.0258746 
0.298027 0.289325 0.280007 0.270124 0.259736 0.248918 0.237755 0.226347 0.214797 
0.203214 0.191707 0.180381 0.169329 0.158632 0.14836 0.138562 0.129273 0.120516 
0.112297 0.104613 0.0974533 0.0907982 0.0846254 0.0789076 0.0736173 0.0687268 0.0642074 
0.0600316 0.0561731 0.0526074 0.0493108 0.0462621 0.0434408 0.0408287 0.0384086 0.0361645 
0.0340817 0.0321469 0.0303478 0.0286733 0.0271132 0.0256581 0.316908 0.307429 0.29725 
0.286422 0.275013 0.263106 0.250803 0.238218 0.225477 0.212711 0.20005 0.187618 
0.175526 0.163872 0.152729 0.142155 0.132184 0.122834 0.114109 0.105995 0.0984751 
0.0915216 0.0851033 0.0791861 0.0737347 0.0687152 0.064094 0.0598387 0.0559195 0.0523078 
0.0489778 0.0459056 0.0430693 0.0404484 0.0380249 0.0357815 0.0337028 0.0317746 0.029984 
0.0283188 0.026769 0.0253247 0.336981 0.32666 0.315539 0.303669 0.291125 0.278002 
0.264418 0.250508 0.236424 0.222325 0.208369 0.194705 0.181466 0.168763 0.156682 
0.145282 0.134596 0.124639 0.115403 0.106868 0.0990026 0.0917702 0.0851297 0.0790378 
0.0734517 0.0683286 0.0636305 0.0593202 0.0553625 0.0517266 0.048383 0.045306 0.0424716 
0.0398583 0.0374461 0.0352174 0.0331555 0.0312456 0.029474 0.0278286 0.0262981 0.0248726 
0.358338 0.347105 0.334954 0.321935 0.308129 0.293643 0.278613 0.263205 0.247602 
0.231998 0.216585 0.201546 0.18704 0.173194 0.160105 0.147833 0.13641 0.125838 
0.116098 0.107158 0.098972 0.0914906 0.0846593 0.0784252 0.0727356 0.0675415 0.0627961 
0.0584577 0.0544879 0.0508512 0.0475164 0.044455 0.0416414 0.0390528 0.0366679 0.0344684 
0.0324368 0.0305574 0.0288165 0.0272011 0.0256993 0.0243015 0.381065 0.368849 0.355572 
0.341285 0.32607 0.310051 0.293388 0.27628 0.25895 0.241641 0.224589 0.208015 
0.19211 0.177024 0.162861 0.149681 0.137506 0.126325 0.116103 0.106788 0.0983182 
0.0906277 0.0836471 0.0773118 0.0715582 0.0663289 0.061571 0.0572364 0.0532829 0.0496722 
0.0463699 0.0433464 0.0405734 0.0380277 0.0356872 0.033532 0.0315449 0.0297092 0.0280105 
0.0264358 0.0249729 0.0236115 0.405234 0.391959 0.377455 0.361766 0.344978 0.327231 
0.308713 0.289668 0.270372 0.251126 0.232225 0.213942 0.196503 0.18008 0.164786 
0.150674 0.137752 0.125987 0.115321 0.105679 0.096977 0.0891292 0.0820518 0.0756643 
0.0698933 0.0646718 0.0599397 0.0556447 0.0517392 0.0481829 0.0449391 0.041976 0.0392654 
0.0367813 0.0345023 0.0324078 0.0304796 0.0287007 0.0270566 0.0255336 0.0241194 0.0228034 
0.430895 0.416483 0.40064 0.383401 0.364852 0.345149 0.32452 0.303259 0.281717 
0.26027 0.239288 0.219106 0.199995 0.182151 0.165686 0.150643 0.137002 0.124703 
0.113654 0.103752 0.0948868 0.0869496 0.0798377 0.0734573 0.067722 0.0625562 0.0578936 
0.0536756 0.049853 0.0463809 0.0432226 0.0403439 0.0377166 0.0353145 0.0331147 0.031097 
0.0292422 0.027534 0.0259567 0.0244966 0.0231414 0.0218799 0.45806 0.442433 0.425132 
0.406175 0.385646 0.363722 0.340676 0.316876 0.292763 0.268814 0.245497 0.223223 
0.202314 0.182984 0.165342 0.149401 0.135106 0.122352 0.11101 0.100938 0.0919965 
0.0840516 0.076981 0.0706742 0.0650347 0.0599775 0.0554303 0.0513304 0.0476253 0.0442696 
0.0412237 0.0384544 0.0359322 0.0336313 0.0315285 0.0296034 0.0278371 0.0262128 0.0247148 
0.0233288 0.0220424 0.0208445 0.486699 0.469771 0.450878 0.430011 0.407249 0.38279 
0.356966 0.330244 0.303186 0.276403 0.250484 0.225933 0.203126 0.18229 0.163509 
0.146754 0.131912 0.118825 0.107309 0.0971829 0.0882718 0.0804157 0.0734713 0.0673136 
0.0618342 0.0569416 0.0525579 0.0486177 0.0450663 0.0418578 0.0389527 0.0363164 0.0339209 
0.03174 0.0297514 0.0279344 0.0262708 0.0247435 0.0233365 0.0220357 0.0208282 0.0197027 
0.516722 0.498401 0.477763 0.45476 0.42946 0.402088 0.373058 0.342964 0.312536 
0.282558 0.253773 0.226792 0.202042 0.179744 0.159935 0.142513 0.127289 0.114031 
0.102498 0.092458 0.0837022 0.076043 0.069319 0.0633897 0.0581388 0.0534676 0.0492958 
0.0455565 0.0421944 0.0391635 0.0364251 0.0339456 0.0316967 0.029654 0.0277952 0.0261011 
0.0245531 0.0231348 0.0218302 0.0206251 0.0195061 0.0184618 0.547986 0.528169 0.505605 
0.480191 0.451977 0.421228 0.388469 0.354475 0.320201 0.286657 0.254772 0.225274 
0.198624 0.175007 0.154374 0.136515 0.121137 0.10792 0.0965568 0.0867676 0.0783072 
0.0709631 0.0645572 0.0589383 0.0539825 0.0495889 0.0456753 0.042176 0.0390364 0.0362119 
0.0336646 0.0313634 0.0292802 0.0273916 0.0256771 0.0241181 0.0226974 0.0213988 0.0202066 
0.0191066 0.0180853 0.0171305 0.58031 0.558878 0.534167 0.505997 0.474389 0.439671 
0.402538 0.364022 0.325381 0.287915 0.252768 0.220779 0.192411 0.167754 0.146619 
0.128644 0.113407 0.100488 0.0895134 0.0801555 0.0721397 0.0652335 0.0592443 0.0540148 
0.0494179 0.0453528 0.0417398 0.0385154 0.0356286 0.0330363 0.0307027 0.0285984 0.0266971 
0.0249767 0.0234181 0.0220044 0.02072 0.0195492 0.0184778 0.0174913 0.0165759 0.0157188 
0.613519 0.59033 0.563195 0.531818 0.496188 0.456734 0.414412 0.370635 0.327076 
0.285388 0.246951 0.212681 0.182964 0.157719 0.136539 0.118865 0.104123 0.0917952 
0.0814443 0.0727085 0.0652896 0.0589413 0.0534626 0.0486942 0.0445112 0.0408183 0.0375414 
0.0346224 0.0320141 0.0296765 0.0275761 0.0256847 0.0239786 0.0224375 0.0210431 0.0197817 
0.0186392 0.0176024 0.0166575 0.0157913 0.0149891 0.0142377 0.647504 0.622392 0.592479 
0.557297 0.516791 0.471573 0.423023 0.37312 0.324088 0.278004 0.236465 0.20038 
0.169939 0.144759 0.124128 0.10725 0.0933951 0.0819637 0.0724776 0.0645535 0.0578787 
0.0521993 0.0473129 0.0430648 0.0393396 0.0360521 0.0331389 0.0305491 0.0282406 0.0261768 
0.0243256 0.0226605 0.0211591 0.0198036 0.018579 0.0174727 0.0164747 0.0155742 0.0147592 
0.0140177 0.0133353 0.0126972 0.682305 0.655073 0.621917 0.582109 0.535537 0.483154 
0.427048 0.37003 0.315036 0.264609 0.220494 0.183423 0.153183 0.128926 0.109549 
0.0939981 0.0814238 0.0711823 0.0627877 0.0558515 0.0500548 0.0451398 0.0409097 0.0372237 
0.0339842 0.031124 0.0285923 0.0263495 0.0243573 0.0225831 0.0209941 0.019564 0.0182725 
0.017105 0.01605 0.0150988 0.0142445 0.0134796 0.0127953 0.0121809 0.0116228 0.0111059 
0.718186 0.6886 0.651573 0.605963 0.551612 0.49014 0.42482 0.359627 0.298366 
0.244049 0.198396 0.16164 0.132855 0.110546 0.0931662 0.0794503 0.0684983 0.0596951 
0.0525857 0.0467913 0.0419844 0.0379055 0.0343716 0.031269 0.0285272 0.0261019 0.0239614 
0.0220764 0.0204151 0.0189413 0.0176226 0.0164312 0.0153488 0.014366 0.0134766 0.0126767 
0.0119627 0.0113316 0.0107766 0.010289 0.00985804 0.0094692 0.755756 0.723557 0.68175 
0.628533 0.563842 0.490675 0.41418 0.339802 0.272344 0.215276 0.169886 0.135312 
0.109522 0.0902467 0.0755404 0.0640544 0.0549711 0.0477859 0.0421133 0.0375827 0.0338447 
0.0306383 0.0278123 0.0252917 0.0230433 0.0210508 0.0193025 0.0177822 0.0164611 0.0152961 
0.0142478 0.0132894 0.0124083 0.0116018 0.0108704 0.010216 0.00963963 0.0091401 0.00871225 
0.00834904 0.00804407 0.00778833 0.796228 0.761235 0.713276 0.649404 0.570366 0.482126 
0.39234 0.307915 0.235003 0.17754 0.13528 0.105281 0.0841636 0.0689023 0.0573389 
0.0482998 0.0412146 0.0357599 0.0316334 0.0284466 0.0258055 0.0234641 0.0213252 0.0193666 
0.017595 0.0160247 0.0146661 0.0135165 0.0125435 0.0116881 0.0108978 0.0101548 0.00945837 
0.00881486 0.00823296 0.00771928 0.00727872 0.00691246 0.00661246 0.0063695 0.00618279 0.00605844 
0.0221046 0.0222073 0.0223843 0.0226312 0.0228874 0.0230063 0.0228211 0.022244 0.0213021 
0.0201363 0.0189415 0.0178489 0.0168921 0.016044 0.0152594 0.0145089 0.0137849 0.0130914 
0.0124368 0.0118316 0.0112865 0.0108091 0.0103951 0.0100202 0.00965506 0.00928259 0.00890007 
0.00851268 0.0081295 0.0077609 0.00741712 0.00710533 0.00682613 0.00657124 0.00633017 0.00609926 
0.00588143 0.00568433 0.00551737 0.00539086 0.00531079 0.00526843 0.0292814 0.029155 0.0290724 
0.0290207 0.0289604 0.0288108 0.0284687 0.0278587 0.0269732 0.0258773 0.0246821 0.0234911 
0.0223594 0.0212958 0.0202865 0.0193175 0.0183838 0.0174882 0.0166369 0.0158381 0.0151001 
0.0144278 0.0138189 0.0132601 0.0127316 0.0122169 0.0117078 0.011204 0.01071 0.0102327 
0.00977964 0.00935665 0.00896649 0.00860715 0.00827404 0.00796375 0.00767649 0.0074153 0.00718497 
0.00698846 0.00682301 0.00667379 0.0369399 0.0365759 0.0362369 0.0359093 0.0355647 0.0351533 
0.0346099 0.0338786 0.0329383 0.0318145 0.0305688 0.0292733 0.0279827 0.0267239 0.025504 
0.0243227 0.0231811 0.0220828 0.0210333 0.0200389 0.0191053 0.0182359 0.0174298 0.0166793 
0.0159722 0.0152956 0.0146407 0.0140035 0.0133844 0.0127877 0.0122181 0.0116804 0.0111777 
0.0107106 0.0102777 0.00987698 0.00950718 0.00916816 0.0088601 0.00858068 0.00832247 0.00807104 
0.045057 0.0444536 0.0438586 0.0432611 0.0426411 0.0419656 0.0411921 0.04028 0.0392068 
0.0379785 0.0366282 0.0352041 0.033752 0.032305 0.0308813 0.0294912 0.0281412 0.0268374 
0.0255857 0.0243911 0.0232582 0.0221892 0.021184 0.0202382 0.0193443 0.0184933 0.0176776 
0.0168922 0.0161354 0.0154084 0.0147144 0.0140566 0.0134377 0.0128589 0.0123204 0.0118204 
0.0113575 0.0109295 0.0105329 0.0101625 0.00980938 0.00946172 0.0535901 0.0527479 0.051897 
0.0510303 0.0501345 0.0491875 0.048161 0.0470263 0.0457639 0.044372 0.042868 0.0412842 
0.0396568 0.0380173 0.0363898 0.0347899 0.033229 0.0317154 0.0302557 0.0288553 0.0275178 
0.0262456 0.0250387 0.0238948 0.0228093 0.0217764 0.0207899 0.0198452 0.0189399 0.0180736 
0.0172475 0.0164637 0.0157241 0.0150295 0.0143801 0.0137747 0.013211 0.0126855 0.0121935 
0.0117279 0.0112804 0.0108416 0.062488 0.0614067 0.0602991 0.0591619 0.0579865 0.0567591 
0.0554612 0.0540732 0.0525805 0.0509795 0.0492804 0.047505 0.0456817 0.0438387 0.0420007 
0.0401859 0.0384086 0.0366791 0.035005 0.0333921 0.0318444 0.030364 0.028952 0.0276071 
0.0263267 0.025107 0.0239433 0.0228321 0.0217706 0.0207576 0.0197933 0.0188783 0.0180134 
0.0171992 0.0164351 0.0157197 0.0150501 0.0144223 0.0138309 0.0132689 0.0127285 0.0122026 
0.071699 0.0703764 0.0690098 0.0675984 0.0661386 0.0646222 0.0630381 0.061374 0.0596206 
0.0577759 0.055847 0.0538506 0.0518088 0.0497463 0.0476859 0.0456473 0.0436453 0.0416919 
0.0397957 0.0379632 0.0361989 0.0345054 0.0328842 0.0313354 0.0298573 0.0284474 0.0271029 
0.0258204 0.0245977 0.0234329 0.0223257 0.0212755 0.0202822 0.0193453 0.0184637 0.0176355 
0.0168575 0.0161253 0.0154334 0.0147754 0.0141445 0.013535 0.0811796 0.0796113 0.077981 
0.0762909 0.0745404 0.0727263 0.0708434 0.0688857 0.0668489 0.0647335 0.0625466 0.0603022 
0.0580191 0.0557184 0.0534209 0.0511458 0.0489086 0.0467216 0.0445945 0.0425345 0.0405469 
0.0386349 0.0368006 0.0350444 0.033366 0.0317639 0.0302358 0.0287795 0.0273924 0.026073 
0.0248196 0.0236316 0.0225077 0.0214464 0.0204462 0.0195042 0.0186171 0.0177807 0.0169891 
0.016237 0.0155184 0.0148283 0.0908993 0.0890792 0.0871792 0.0852034 0.0831549 0.0810343 
0.0788412 0.0765749 0.0742359 0.0718279 0.0693592 0.0668428 0.0642955 0.0617367 0.0591851 
0.0566588 0.0541734 0.0517418 0.0493741 0.0470783 0.04486 0.0427237 0.0406715 0.038705 
0.036824 0.0350276 0.0333145 0.0316825 0.0301297 0.0286539 0.0272533 0.0259259 0.0246704 
0.0234845 0.0223655 0.0213104 0.0203154 0.0193761 0.0184874 0.0176438 0.0168404 0.0160727 
0.100844 0.0987647 0.0965865 0.0943168 0.0919611 0.089524 0.0870091 0.0844201 0.081762 
0.0790418 0.0762695 0.0734586 0.0706254 0.0677876 0.0649634 0.0621697 0.0594218 0.056733 
0.0541138 0.0515728 0.0491165 0.0467496 0.0444748 0.042294 0.040208 0.038216 0.0363167 
0.0345083 0.0327888 0.0311563 0.0296079 0.0281415 0.0267545 0.0254445 0.024208 0.0230414 
0.0219407 0.0209012 0.0199184 0.0189867 0.0181019 0.0172596 0.111017 0.108668 0.106202 
0.103627 0.100953 0.0981874 0.0953375 0.0924112 0.0894171 0.0863654 0.0832686 0.0801413 
0.0769999 0.0738621 0.0707455 0.0676665 0.0646405 0.0616809 0.0587985 0.0560025 0.0532998 
0.0506956 0.0481931 0.0457944 0.0435004 0.041311 0.0392246 0.0372396 0.0353537 0.0335644 
0.0318689 0.0302643 0.0287473 0.0273146 0.0259626 0.0246872 0.0234837 0.0223476 0.0212741 
0.0202583 0.0192956 0.0183817 0.121435 0.118803 0.116036 0.113144 0.110138 0.107029 
0.103828 0.100548 0.0971988 0.0937958 0.0903529 0.0868867 0.0834148 0.0799549 0.0765249 
0.0731418 0.0698208 0.0665754 0.0634171 0.0603552 0.0573972 0.0545483 0.0518126 0.0491922 
0.0466876 0.0442987 0.0420244 0.0398627 0.0378107 0.0358658 0.0340244 0.0322832 0.0306381 
0.0290854 0.0276206 0.0262393 0.0249368 0.023708 0.0225478 0.0214516 0.0204147 0.0194329 
0.132125 0.129196 0.126112 0.122886 0.119532 0.116062 0.112492 0.108837 0.105113 
0.101335 0.0975234 0.0936946 0.0898681 0.0860631 0.0822981 0.0785903 0.074956 0.0714087 
0.0679607 0.0646213 0.0613982 0.0582973 0.0553223 0.0524755 0.0497573 0.0471675 0.0447046 
0.042366 0.0401488 0.0380496 0.0360643 0.0341887 0.0324184 0.0307486 0.0291745 0.0276911 
0.0262934 0.024976 0.0237334 0.0225611 0.021454 0.0204076 0.143122 0.13988 0.136462 
0.132882 0.129159 0.125307 0.121346 0.117293 0.113169 0.108992 0.104785 0.100567 
0.0963607 0.0921857 0.0880618 0.084008 0.0800405 0.0761741 0.0724211 0.0687915 0.0652935 
0.0619319 0.0587112 0.0556336 0.0526989 0.0499065 0.0472543 0.0447394 0.0423582 0.0401065 
0.0379796 0.0359726 0.0340802 0.032297 0.0306177 0.0290365 0.0275478 0.0261461 0.0248258 
0.0235815 0.0224084 0.0213016 0.15447 0.150895 0.147121 0.143167 0.13905 0.134791 
0.130412 0.125934 0.121381 0.116776 0.112144 0.107509 0.102894 0.0983214 0.0938136 
0.0893899 0.0850682 0.080864 0.0767901 0.0728568 0.0690722 0.0654418 0.0619689 0.0586554 
0.0555012 0.0525047 0.0496632 0.0469727 0.0444292 0.0420273 0.0397618 0.0376268 0.0356161 
0.0337239 0.0319436 0.0302691 0.0286944 0.0272132 0.0258198 0.0245083 0.0232736 0.0221103 
0.166218 0.162288 0.158135 0.153778 0.14924 0.144544 0.139716 0.134781 0.129767 
0.124701 0.119611 0.114525 0.109469 0.104469 0.0995491 0.0947303 0.0900317 0.0854694 
0.0810573 0.0768058 0.0727232 0.0688147 0.0650832 0.0615293 0.0581527 0.0549509 0.05192 
0.0490556 0.0463519 0.0438029 0.0414023 0.0391432 0.0370189 0.0350221 0.033146 0.0313833 
0.0297278 0.0281724 0.0267108 0.025337 0.0240452 0.0228299 0.178423 0.174112 0.16955 
0.164761 0.159769 0.154601 0.149288 0.143858 0.138345 0.132779 0.127193 0.121619 
0.116088 0.110627 0.105264 0.100021 0.0949208 0.0899789 0.0852105 0.0806259 0.0762331 
0.072037 0.0680399 0.0642417 0.0606404 0.0572324 0.054013 0.0509764 0.0481156 0.0454234 
0.042892 0.0405137 0.0382807 0.0361849 0.0342183 0.0323734 0.0306424 0.0290184 0.0274941 
0.0260632 0.0247193 0.0234569 0.191143 0.186422 0.18142 0.176163 0.17068 0.165001 
0.15916 0.153193 0.147136 0.141027 0.134902 0.128798 0.12275 0.116791 0.11095 
0.105253 0.099723 0.0943784 0.0892337 0.0843004 0.0795849 0.0750923 0.0708232 0.0667765 
0.0629489 0.0593352 0.055929 0.052723 0.0497088 0.0468778 0.0442212 0.0417294 0.0393935 
0.0372049 0.0351542 0.0332328 0.0314328 0.0297461 0.0281652 0.0266828 0.0252923 0.0239873 
0.204446 0.199282 0.193804 0.18804 0.182021 0.175785 0.169369 0.162813 0.156162 
0.149458 0.142744 0.136062 0.129453 0.122953 0.116596 0.110411 0.104422 0.0986492 
0.0931079 0.0878091 0.0827591 0.0779607 0.0734141 0.0691161 0.0650614 0.0612431 0.0576531 
0.0542815 0.051119 0.0481552 0.0453793 0.0427808 0.0403492 0.0380742 0.0359465 0.0339557 
0.0320934 0.0303506 0.0287192 0.0271916 0.02576 0.0244183 0.218404 0.212762 0.206766 
0.200449 0.193846 0.186999 0.179952 0.172751 0.165446 0.158089 0.150728 0.143413 
0.13619 0.129102 0.122187 0.115475 0.108995 0.102768 0.096809 0.0911283 0.0857313 
0.0806196 0.0757904 0.0712393 0.0669583 0.0629382 0.0591683 0.0556373 0.0523328 0.049243 
0.0463553 0.0436577 0.0411383 0.0387853 0.0365878 0.0345356 0.0326182 0.0308266 0.0291516 
0.027585 0.0261189 0.0247461 0.233098 0.226936 0.220377 0.213455 0.206212 0.198693 
0.19095 0.183037 0.175011 0.166932 0.158859 0.150848 0.142953 0.135222 0.1277 
0.120422 0.113417 0.106707 0.100308 0.0942285 0.0884731 0.0830411 0.0779267 0.0731222 
0.0686175 0.0643999 0.0604566 0.0567731 0.053335 0.0501277 0.0471373 0.0443495 0.0417513 
0.0393293 0.0370713 0.0349657 0.0330016 0.0311688 0.0294576 0.0278592 0.0263651 0.0249676 
0.248613 0.241887 0.234712 0.227128 0.21918 0.21092 0.202407 0.193704 0.184878 
0.175999 0.167137 0.158358 0.149724 0.141292 0.13311 0.125219 0.117651 0.110429 
0.103568 0.097075 0.0909514 0.0851933 0.0797928 0.0747378 0.0700142 0.0656064 0.0614978 
0.0576711 0.0541094 0.0507952 0.0477125 0.0448454 0.0421784 0.0396974 0.0373886 0.0352394 
0.0332376 0.0313721 0.0296328 0.0280101 0.026495 0.0250794 0.265045 0.257705 0.249859 
0.241548 0.232822 0.22374 0.214371 0.204788 0.19507 0.1853 0.175561 0.165929 
0.156479 0.147277 0.138378 0.129826 0.121656 0.113892 0.106547 0.0996255 0.0931267 
0.0870408 0.0813556 0.0760553 0.0711209 0.0665326 0.0622699 0.0583121 0.0546389 0.0512307 
0.048068 0.0451334 0.0424098 0.0398811 0.0375324 0.0353497 0.03332 0.0314313 0.0296726 
0.0280336 0.0265052 0.0250786 0.282497 0.274491 0.265909 0.256798 0.247211 0.237216 
0.226891 0.216324 0.205608 0.19484 0.184119 0.173539 0.163187 0.153138 0.143455 
0.13419 0.125378 0.117041 0.109193 0.101832 0.0949524 0.0885408 0.0825775 0.0770406 
0.0719071 0.0671519 0.0627498 0.0586755 0.054906 0.051418 0.0481902 0.045202 0.042435 
0.0398714 0.0374949 0.03529 0.0332432 0.0313415 0.0295727 0.0279264 0.0263926 0.0249623 
0.301081 0.29235 0.282964 0.27297 0.262428 0.251415 0.24002 0.228347 0.216506 
0.204616 0.192795 0.181155 0.1698 0.158817 0.148281 0.138247 0.12875 0.119814 
0.111444 0.103637 0.096378 0.0896462 0.083416 0.0776577 0.0723409 0.067436 0.0629121 
0.0587403 0.0548919 0.0513418 0.0480652 0.0450396 0.0422441 0.0396597 0.0372686 0.0350543 
0.0330019 0.0310977 0.0293291 0.0276847 0.0261543 0.0247281 0.320916 0.311401 0.301135 
0.290168 0.278564 0.266409 0.25381 0.240887 0.227776 0.214618 0.201556 0.188728 
0.176256 0.164245 0.152778 0.141914 0.131693 0.122132 0.11323 0.104975 0.0973435 
0.0903051 0.0838248 0.0778653 0.0723877 0.0673554 0.0627321 0.0584839 0.0545784 0.0509861 
0.0476797 0.0446343 0.0418273 0.0392376 0.0368465 0.0346361 0.0325908 0.0306959 0.0289382 
0.0273056 0.0257875 0.024374 0.342131 0.331767 0.320539 0.308496 0.29571 0.282275 
0.268315 0.253974 0.239417 0.224818 0.210353 0.196187 0.182471 0.169325 0.156845 
0.145095 0.134111 0.123905 0.114467 0.105772 0.0977837 0.0904602 0.0837554 0.0776218 
0.0720121 0.0668801 0.0621847 0.057886 0.0539474 0.050336 0.0470211 0.0439758 0.0411755 
0.0385977 0.0362221 0.0340305 0.0320055 0.0301323 0.028397 0.0267866 0.0252905 0.0238983 
0.364855 0.353575 0.341299 0.32807 0.313964 0.299087 0.283582 0.267624 0.251416 
0.235172 0.219111 0.203437 0.18833 0.173935 0.160359 0.147666 0.135891 0.12503 
0.115061 0.105944 0.0976266 0.0900512 0.083157 0.0768846 0.0711773 0.0659808 0.0612452 
0.056926 0.0529824 0.0493772 0.0460779 0.0430545 0.0402808 0.0377332 0.0353902 0.0332325 
0.0312426 0.0294041 0.0277031 0.0261263 0.024662 0.0232999 0.389219 0.376958 0.363541 
0.349003 0.333421 0.316914 0.29965 0.28184 0.263734 0.245605 0.227723 0.210344 
0.193686 0.17792 0.163163 0.149481 0.136894 0.125385 0.114909 0.105404 0.0967978 
0.0890148 0.0819771 0.0756123 0.0698504 0.0646295 0.0598917 0.0555864 0.0516689 0.0480989 
0.0448402 0.0418625 0.0391368 0.036639 0.0343464 0.0322392 0.0302991 0.0285094 0.0268552 
0.0253233 0.0239014 0.0225788 0.415346 0.402039 0.387383 0.371404 0.35417 0.335816 
0.316537 0.296594 0.276299 0.255997 0.236034 0.216727 0.198343 0.181082 0.16507 
0.150366 0.136969 0.124837 0.113896 0.104058 0.095222 0.0872903 0.0801683 0.0737656 
0.0680018 0.0628032 0.0581058 0.0538534 0.0499964 0.0464917 0.0433023 0.0403945 0.0377398 
0.0353118 0.0330885 0.0310488 0.0291743 0.0274474 0.0258534 0.0243781 0.0230091 0.0217356 
0.443336 0.428922 0.412929 0.395359 0.376276 0.355821 0.334225 0.311812 0.288981 
0.266169 0.243823 0.22234 0.202048 0.183176 0.165852 0.150119 0.135942 0.123243 
0.111909 0.101813 0.0928264 0.0848234 0.0776879 0.0713142 0.0656076 0.0604854 0.0558762 