# vtk DataFile Version 4.0
vtk output
ASCII
DATASET STRUCTURED_POINTS
DIMENSIONS 62 62 62
SPACING 0.05 0.05 0.05
ORIGIN -1.525 -1.525 -1.525
POINT_DATA 238328
FIELD FieldData 1
potential 1 238328 double
0.00959891 0.00960045 0.009602 0.00960354 0.00960508 0.00960663 0.00960817 0.00960971 0.00961126 
0.0096128 0.00961434 0.00961588 0.00961743 0.00961897 0.00962051 0.00962205 0.00962359 0.00962513 
0.00962667 0.00962821 0.00962975 0.00963129 0.00963282 0.00963436 0.0096359 0.00963744 0.00963898 
0.00964051 0.00964205 0.00964359 0.00964512 0.00964666 0.00964819 0.00964973 0.00965126 0.0096528 
0.00965433 0.00965586 0.0096574 0.00965893 0.00966046 0.009662 0.00966353 0.00966506 0.00966659 
0.00966812 0.00966965 0.00967118 0.00967271 0.00967424 0.00967577 0.0096773 0.00967883 0.00968036 
0.00968189 0.00968341 0.00968494 0.00968647 0.00968799 0.00968952 0.00969105 0.00969257 0.00959723 
0.00959878 0.00960032 0.00960186 0.00960341 0.00960495 0.00960649 0.00960803 0.00960957 0.00961111 
0.00961266 0.0096142 0.00961574 0.00961728 0.00961882 0.00962035 0.00962189 0.00962343 0.00962497 
0.00962651 0.00962805 0.00962958 0.00963112 0.00963266 0.00963419 0.00963573 0.00963726 0.0096388 
0.00964033 0.00964187 0.0096434 0.00964494 0.00964647 0.00964801 0.00964954 0.00965107 0.0096526 
0.00965414 0.00965567 0.0096572 0.00965873 0.00966026 0.00966179 0.00966332 0.00966485 0.00966638 
0.00966791 0.00966944 0.00967097 0.0096725 0.00967402 0.00967555 0.00967708 0.00967861 0.00968013 
0.00968166 0.00968318 0.00968471 0.00968623 0.00968776 0.00968928 0.00969081 0.00959556 0.0095971 
0.00959865 0.00960019 0.00960173 0.00960327 0.00960481 0.00960635 0.00960789 0.00960943 0.00961097 
0.00961251 0.00961405 0.00961558 0.00961712 0.00961866 0.0096202 0.00962173 0.00962327 0.00962481 
0.00962634 0.00962788 0.00962941 0.00963095 0.00963248 0.00963402 0.00963555 0.00963709 0.00963862 
0.00964015 0.00964169 0.00964322 0.00964475 0.00964628 0.00964781 0.00964935 0.00965088 0.00965241 
0.00965394 0.00965547 0.009657 0.00965853 0.00966006 0.00966158 0.00966311 0.00966464 0.00966617 
0.00966769 0.00966922 0.00967075 0.00967227 0.0096738 0.00967533 0.00967685 0.00967838 0.0096799 
0.00968143 0.00968295 0.00968447 0.009686 0.00968752 0.00968904 0.00959389 0.00959543 0.00959697 
0.00959851 0.00960005 0.00960159 0.00960313 0.00960467 0.0096062 0.00960774 0.00960928 0.00961082 
0.00961235 0.00961389 0.00961543 0.00961696 0.0096185 0.00962003 0.00962157 0.0096231 0.00962464 
0.00962617 0.00962771 0.00962924 0.00963077 0.00963231 0.00963384 0.00963537 0.0096369 0.00963844 
0.00963997 0.0096415 0.00964303 0.00964456 0.00964609 0.00964762 0.00964915 0.00965068 0.00965221 
0.00965373 0.00965526 0.00965679 0.00965832 0.00965984 0.00966137 0.0096629 0.00966442 0.00966595 
0.00966747 0.009669 0.00967052 0.00967205 0.00967357 0.0096751 0.00967662 0.00967814 0.00967967 
0.00968119 0.00968271 0.00968423 0.00968575 0.00968727 0.00959221 0.00959375 0.00959529 0.00959683 
0.00959837 0.00959991 0.00960144 0.00960298 0.00960452 0.00960605 0.00960759 0.00960913 0.00961066 
0.0096122 0.00961373 0.00961527 0.0096168 0.00961833 0.00961987 0.0096214 0.00962293 0.00962447 
0.009626 0.00962753 0.00962906 0.00963059 0.00963213 0.00963366 0.00963519 0.00963672 0.00963825 
0.00963978 0.00964131 0.00964283 0.00964436 0.00964589 0.00964742 0.00964895 0.00965047 0.009652 
0.00965353 0.00965505 0.00965658 0.0096581 0.00965963 0.00966115 0.00966268 0.0096642 0.00966573 
0.00966725 0.00966877 0.0096703 0.00967182 0.00967334 0.00967486 0.00967638 0.00967791 0.00967943 
0.00968095 0.00968247 0.00968399 0.00968551 0.00959054 0.00959208 0.00959361 0.00959515 0.00959669 
0.00959822 0.00959976 0.0096013 0.00960283 0.00960437 0.0096059 0.00960743 0.00960897 0.0096105 
0.00961204 0.00961357 0.0096151 0.00961663 0.00961817 0.0096197 0.00962123 0.00962276 0.00962429 
0.00962582 0.00962735 0.00962888 0.00963041 0.00963194 0.00963347 0.009635 0.00963653 0.00963805 
0.00963958 0.00964111 0.00964264 0.00964416 0.00964569 0.00964721 0.00964874 0.00965027 0.00965179 
0.00965332 0.00965484 0.00965636 0.00965789 0.00965941 0.00966093 0.00966246 0.00966398 0.0096655 
0.00966702 0.00966854 0.00967006 0.00967158 0.0096731 0.00967462 0.00967614 0.00967766 0.00967918 
0.0096807 0.00968222 0.00968374 0.00958886 0.0095904 0.00959193 0.00959347 0.00959501 0.00959654 
0.00959807 0.00959961 0.00960114 0.00960268 0.00960421 0.00960574 0.00960727 0.00960881 0.00961034 
0.00961187 0.0096134 0.00961493 0.00961646 0.00961799 0.00961952 0.00962105 0.00962258 0.00962411 
0.00962564 0.00962717 0.0096287 0.00963022 0.00963175 0.00963328 0.0096348 0.00963633 0.00963786 
0.00963938 0.00964091 0.00964243 0.00964396 0.00964548 0.00964701 0.00964853 0.00965005 0.00965158 
0.0096531 0.00965462 0.00965614 0.00965767 0.00965919 0.00966071 0.00966223 0.00966375 0.00966527 
0.00966679 0.00966831 0.00966983 0.00967135 0.00967286 0.00967438 0.0096759 0.00967742 0.00967893 
0.00968045 0.00968197 0.00958719 0.00958872 0.00959025 0.00959179 0.00959332 0.00959486 0.00959639 
0.00959792 0.00959945 0.00960099 0.00960252 0.00960405 0.00960558 0.00960711 0.00960864 0.00961017 
0.0096117 0.00961323 0.00961476 0.00961629 0.00961782 0.00961934 0.00962087 0.0096224 0.00962393 
0.00962545 0.00962698 0.00962851 0.00963003 0.00963156 0.00963308 0.00963461 0.00963613 0.00963766 
0.00963918 0.0096407 0.00964223 0.00964375 0.00964527 0.00964679 0.00964832 0.00964984 0.00965136 
0.00965288 0.0096544 0.00965592 0.00965744 0.00965896 0.00966048 0.009662 0.00966351 0.00966503 
0.00966655 0.00966807 0.00966959 0.0096711 0.00967262 0.00967413 0.00967565 0.00967717 0.00967868 
0.00968019 0.00958551 0.00958704 0.00958857 0.00959011 0.00959164 0.00959317 0.0095947 0.00959623 
0.00959776 0.00959929 0.00960082 0.00960235 0.00960388 0.00960541 0.00960694 0.00960847 0.00961 
0.00961153 0.00961305 0.00961458 0.00961611 0.00961763 0.00961916 0.00962069 0.00962221 0.00962374 
0.00962526 0.00962679 0.00962831 0.00962983 0.00963136 0.00963288 0.0096344 0.00963593 0.00963745 
0.00963897 0.00964049 0.00964201 0.00964354 0.00964506 0.00964658 0.0096481 0.00964962 0.00965113 
0.00965265 0.00965417 0.00965569 0.00965721 0.00965873 0.00966024 0.00966176 0.00966328 0.00966479 
0.00966631 0.00966782 0.00966934 0.00967085 0.00967237 0.00967388 0.0096754 0.00967691 0.00967842 
0.00958383 0.00958536 0.00958689 0.00958842 0.00958995 0.00959148 0.00959301 0.00959454 0.00959607 
0.0095976 0.00959913 0.00960066 0.00960219 0.00960371 0.00960524 0.00960677 0.00960829 0.00960982 
0.00961135 0.00961287 0.0096144 0.00961592 0.00961745 0.00961897 0.0096205 0.00962202 0.00962354 
0.00962507 0.00962659 0.00962811 0.00962963 0.00963116 0.00963268 0.0096342 0.00963572 0.00963724 
0.00963876 0.00964028 0.0096418 0.00964332 0.00964484 0.00964635 0.00964787 0.00964939 0.00965091 
0.00965242 0.00965394 0.00965546 0.00965697 0.00965849 0.00966 0.00966152 0.00966303 0.00966455 
0.00966606 0.00966758 0.00966909 0.0096706 0.00967211 0.00967363 0.00967514 0.00967665 0.00958215 
0.00958368 0.00958521 0.00958674 0.00958827 0.0095898 0.00959132 0.00959285 0.00959438 0.00959591 
0.00959743 0.00959896 0.00960049 0.00960201 0.00960354 0.00960507 0.00960659 0.00960812 0.00960964 
0.00961116 0.00961269 0.00961421 0.00961573 0.00961726 0.00961878 0.0096203 0.00962182 0.00962335 
0.00962487 0.00962639 0.00962791 0.00962943 0.00963095 0.00963247 0.00963399 0.00963551 0.00963702 
0.00963854 0.00964006 0.00964158 0.00964309 0.00964461 0.00964613 0.00964764 0.00964916 0.00965068 
0.00965219 0.00965371 0.00965522 0.00965673 0.00965825 0.00965976 0.00966127 0.00966279 0.0096643 
0.00966581 0.00966732 0.00966883 0.00967034 0.00967186 0.00967337 0.00967488 0.00958047 0.009582 
0.00958353 0.00958505 0.00958658 0.00958811 0.00958963 0.00959116 0.00959269 0.00959421 0.00959574 
0.00959726 0.00959879 0.00960031 0.00960184 0.00960336 0.00960489 0.00960641 0.00960793 0.00960945 
0.00961098 0.0096125 0.00961402 0.00961554 0.00961706 0.00961858 0.0096201 0.00962162 0.00962314 
0.00962466 0.00962618 0.0096277 0.00962922 0.00963074 0.00963225 0.00963377 0.00963529 0.00963681 
0.00963832 0.00963984 0.00964135 0.00964287 0.00964438 0.0096459 0.00964741 0.00964893 0.00965044 
0.00965195 0.00965347 0.00965498 0.00965649 0.009658 0.00965951 0.00966102 0.00966254 0.00966405 
0.00966556 0.00966707 0.00966857 0.00967008 0.00967159 0.0096731 0.00957879 0.00958031 0.00958184 
0.00958337 0.00958489 0.00958642 0.00958794 0.00958947 0.00959099 0.00959252 0.00959404 0.00959557 
0.00959709 0.00959861 0.00960014 0.00960166 0.00960318 0.0096047 0.00960622 0.00960774 0.00960926 
0.00961079 0.00961231 0.00961382 0.00961534 0.00961686 0.00961838 0.0096199 0.00962142 0.00962294 
0.00962445 0.00962597 0.00962749 0.009629 0.00963052 0.00963204 0.00963355 0.00963507 0.00963658 
0.0096381 0.00963961 0.00964112 0.00964264 0.00964415 0.00964566 0.00964718 0.00964869 0.0096502 
0.00965171 0.00965322 0.00965473 0.00965624 0.00965775 0.00965926 0.00966077 0.00966228 0.00966379 
0.0096653 0.0096668 0.00966831 0.00966982 0.00967132 0.00957711 0.00957863 0.00958016 0.00958168 
0.0095832 0.00958473 0.00958625 0.00958778 0.0095893 0.00959082 0.00959234 0.00959387 0.00959539 
0.00959691 0.00959843 0.00959995 0.00960147 0.00960299 0.00960451 0.00960603 0.00960755 0.00960907 
0.00961059 0.00961211 0.00961363 0.00961514 0.00961666 0.00961818 0.00961969 0.00962121 0.00962273 
0.00962424 0.00962576 0.00962727 0.00962879 0.0096303 0.00963181 0.00963333 0.00963484 0.00963635 
0.00963787 0.00963938 0.00964089 0.0096424 0.00964391 0.00964542 0.00964693 0.00964844 0.00964995 
0.00965146 0.00965297 0.00965448 0.00965599 0.0096575 0.009659 0.00966051 0.00966202 0.00966353 
0.00966503 0.00966654 0.00966804 0.00966955 0.00957542 0.00957695 0.00957847 0.00957999 0.00958152 
0.00958304 0.00958456 0.00958608 0.0095876 0.00958912 0.00959065 0.00959217 0.00959369 0.00959521 
0.00959673 0.00959825 0.00959977 0.00960128 0.0096028 0.00960432 0.00960584 0.00960736 0.00960887 
0.00961039 0.00961191 0.00961342 0.00961494 0.00961645 0.00961797 0.00961948 0.009621 0.00962251 
0.00962402 0.00962554 0.00962705 0.00962856 0.00963008 0.00963159 0.0096331 0.00963461 0.00963612 
0.00963763 0.00963914 0.00964065 0.00964216 0.00964367 0.00964518 0.00964669 0.0096482 0.0096497 
0.00965121 0.00965272 0.00965423 0.00965573 0.00965724 0.00965874 0.00966025 0.00966175 0.00966326 
0.00966476 0.00966627 0.00966777 0.00957374 0.00957526 0.00957678 0.0095783 0.00957982 0.00958135 
0.00958287 0.00958439 0.00958591 0.00958743 0.00958895 0.00959047 0.00959198 0.0095935 0.00959502 
0.00959654 0.00959806 0.00959957 0.00960109 0.00960261 0.00960412 0.00960564 0.00960715 0.00960867 
0.00961018 0.0096117 0.00961321 0.00961473 0.00961624 0.00961775 0.00961927 0.00962078 0.00962229 
0.0096238 0.00962531 0.00962683 0.00962834 0.00962985 0.00963136 0.00963287 0.00963438 0.00963588 
0.00963739 0.0096389 0.00964041 0.00964192 0.00964342 0.00964493 0.00964644 0.00964794 0.00964945 
0.00965096 0.00965246 0.00965397 0.00965547 0.00965697 0.00965848 0.00965998 0.00966148 0.00966299 
0.00966449 0.00966599 0.00957205 0.00957357 0.00957509 0.00957661 0.00957813 0.00957965 0.00958117 
0.00958269 0.00958421 0.00958573 0.00958725 0.00958876 0.00959028 0.0095918 0.00959331 0.00959483 
0.00959635 0.00959786 0.00959938 0.00960089 0.00960241 0.00960392 0.00960544 0.00960695 0.00960846 
0.00960998 0.00961149 0.009613 0.00961451 0.00961602 0.00961754 0.00961905 0.00962056 0.00962207 
0.00962358 0.00962509 0.0096266 0.0096281 0.00962961 0.00963112 0.00963263 0.00963414 0.00963564 
0.00963715 0.00963866 0.00964016 0.00964167 0.00964317 0.00964468 0.00964618 0.00964769 0.00964919 
0.0096507 0.0096522 0.0096537 0.0096552 0.00965671 0.00965821 0.00965971 0.00966121 0.00966271 
0.00966421 0.00957037 0.00957189 0.0095734 0.00957492 0.00957644 0.00957796 0.00957948 0.00958099 
0.00958251 0.00958403 0.00958554 0.00958706 0.00958858 0.00959009 0.00959161 0.00959312 0.00959464 
0.00959615 0.00959766 0.00959918 0.00960069 0.0096022 0.00960372 0.00960523 0.00960674 0.00960825 
0.00960976 0.00961127 0.00961278 0.00961429 0.0096158 0.00961731 0.00961882 0.00962033 0.00962184 
0.00962335 0.00962485 0.00962636 0.00962787 0.00962938 0.00963088 0.00963239 0.00963389 0.0096354 
0.0096369 0.00963841 0.00963991 0.00964142 0.00964292 0.00964442 0.00964592 0.00964743 0.00964893 
0.00965043 0.00965193 0.00965343 0.00965493 0.00965643 0.00965793 0.00965943 0.00966093 0.00966243 
0.00956868 0.0095702 0.00957171 0.00957323 0.00957475 0.00957626 0.00957778 0.0095793 0.00958081 
0.00958233 0.00958384 0.00958536 0.00958687 0.00958839 0.0095899 0.00959141 0.00959292 0.00959444 
0.00959595 0.00959746 0.00959897 0.00960048 0.009602 0.00960351 0.00960502 0.00960653 0.00960804 
0.00960954 0.00961105 0.00961256 0.00961407 0.00961558 0.00961709 0.00961859 0.0096201 0.00962161 
0.00962311 0.00962462 0.00962612 0.00962763 0.00962913 0.00963064 0.00963214 0.00963365 0.00963515 
0.00963665 0.00963815 0.00963966 0.00964116 0.00964266 0.00964416 0.00964566 0.00964716 0.00964866 
0.00965016 0.00965166 0.00965316 0.00965466 0.00965616 0.00965765 0.00965915 0.00966065 0.00956699 
0.00956851 0.00957002 0.00957154 0.00957305 0.00957457 0.00957608 0.0095776 0.00957911 0.00958063 
0.00958214 0.00958365 0.00958517 0.00958668 0.00958819 0.0095897 0.00959121 0.00959272 0.00959423 
0.00959574 0.00959725 0.00959876 0.00960027 0.00960178 0.00960329 0.0096048 0.00960631 0.00960782 
0.00960932 0.00961083 0.00961234 0.00961384 0.00961535 0.00961685 0.00961836 0.00961986 0.00962137 
0.00962287 0.00962438 0.00962588 0.00962738 0.00962889 0.00963039 0.00963189 0.00963339 0.00963489 
0.0096364 0.0096379 0.0096394 0.0096409 0.0096424 0.00964389 0.00964539 0.00964689 0.00964839 
0.00964989 0.00965139 0.00965288 0.00965438 0.00965588 0.00965737 0.00965887 0.0095653 0.00956682 
0.00956833 0.00956985 0.00957136 0.00957287 0.00957439 0.0095759 0.00957741 0.00957892 0.00958044 
0.00958195 0.00958346 0.00958497 0.00958648 0.00958799 0.0095895 0.00959101 0.00959252 0.00959403 
0.00959554 0.00959704 0.00959855 0.00960006 0.00960157 0.00960307 0.00960458 0.00960609 0.00960759 
0.0096091 0.0096106 0.00961211 0.00961361 0.00961511 0.00961662 0.00961812 0.00961962 0.00962113 
0.00962263 0.00962413 0.00962563 0.00962713 0.00962864 0.00963014 0.00963164 0.00963314 0.00963464 
0.00963613 0.00963763 0.00963913 0.00964063 0.00964213 0.00964362 0.00964512 0.00964662 0.00964811 
0.00964961 0.00965111 0.0096526 0.0096541 0.00965559 0.00965708 0.00956361 0.00956513 0.00956664 
0.00956815 0.00956966 0.00957118 0.00957269 0.0095742 0.00957571 0.00957722 0.00957873 0.00958024 
0.00958175 0.00958326 0.00958477 0.00958628 0.00958779 0.00958929 0.0095908 0.00959231 0.00959382 
0.00959532 0.00959683 0.00959833 0.00959984 0.00960134 0.00960285 0.00960435 0.00960586 0.00960736 
0.00960887 0.00961037 0.00961187 0.00961337 0.00961488 0.00961638 0.00961788 0.00961938 0.00962088 
0.00962238 0.00962388 0.00962538 0.00962688 0.00962838 0.00962988 0.00963138 0.00963287 0.00963437 
0.00963587 0.00963737 0.00963886 0.00964036 0.00964185 0.00964335 0.00964484 0.00964634 0.00964783 
0.00964933 0.00965082 0.00965231 0.00965381 0.0096553 0.00956192 0.00956343 0.00956494 0.00956646 
0.00956797 0.00956948 0.00957099 0.0095725 0.00957401 0.00957552 0.00957702 0.00957853 0.00958004 
0.00958155 0.00958306 0.00958456 0.00958607 0.00958758 0.00958908 0.00959059 0.00959209 0.0095936 
0.0095951 0.00959661 0.00959811 0.00959962 0.00960112 0.00960262 0.00960413 0.00960563 0.00960713 
0.00960863 0.00961013 0.00961163 0.00961313 0.00961463 0.00961613 0.00961763 0.00961913 0.00962063 
0.00962213 0.00962363 0.00962513 0.00962662 0.00962812 0.00962962 0.00963111 0.00963261 0.0096341 
0.0096356 0.0096371 0.00963859 0.00964008 0.00964158 0.00964307 0.00964456 0.00964606 0.00964755 
0.00964904 0.00965053 0.00965202 0.00965351 0.00956023 0.00956174 0.00956325 0.00956476 0.00956627 
0.00956778 0.00956929 0.00957079 0.0095723 0.00957381 0.00957532 0.00957682 0.00957833 0.00957984 
0.00958134 0.00958285 0.00958435 0.00958586 0.00958736 0.00958887 0.00959037 0.00959188 0.00959338 
0.00959488 0.00959638 0.00959789 0.00959939 0.00960089 0.00960239 0.00960389 0.00960539 0.00960689 
0.00960839 0.00960989 0.00961139 0.00961289 0.00961439 0.00961589 0.00961738 0.00961888 0.00962038 
0.00962187 0.00962337 0.00962487 0.00962636 0.00962786 0.00962935 0.00963085 0.00963234 0.00963383 
0.00963533 0.00963682 0.00963831 0.0096398 0.0096413 0.00964279 0.00964428 0.00964577 0.00964726 
0.00964875 0.00965024 0.00965173 0.00955854 0.00956005 0.00956155 0.00956306 0.00956457 0.00956608 
0.00956758 0.00956909 0.0095706 0.0095721 0.00957361 0.00957512 0.00957662 0.00957813 0.00957963 
0.00958113 0.00958264 0.00958414 0.00958564 0.00958715 0.00958865 0.00959015 0.00959165 0.00959315 
0.00959466 0.00959616 0.00959766 0.00959916 0.00960066 0.00960215 0.00960365 0.00960515 0.00960665 
0.00960815 0.00960965 0.00961114 0.00961264 0.00961414 0.00961563 0.00961713 0.00961862 0.00962012 
0.00962161 0.00962311 0.0096246 0.00962609 0.00962759 0.00962908 0.00963057 0.00963207 0.00963356 
0.00963505 0.00963654 0.00963803 0.00963952 0.00964101 0.0096425 0.00964399 0.00964548 0.00964697 
0.00964845 0.00964994 0.00955684 0.00955835 0.00955986 0.00956136 0.00956287 0.00956438 0.00956588 
0.00956739 0.00956889 0.0095704 0.0095719 0.00957341 0.00957491 0.00957641 0.00957792 0.00957942 
0.00958092 0.00958242 0.00958392 0.00958542 0.00958693 0.00958843 0.00958993 0.00959143 0.00959293 
0.00959442 0.00959592 0.00959742 0.00959892 0.00960042 0.00960191 0.00960341 0.00960491 0.0096064 
0.0096079 0.0096094 0.00961089 0.00961239 0.00961388 0.00961537 0.00961687 0.00961836 0.00961985 
0.00962135 0.00962284 0.00962433 0.00962582 0.00962731 0.00962881 0.0096303 0.00963179 0.00963328 
0.00963477 0.00963625 0.00963774 0.00963923 0.00964072 0.00964221 0.00964369 0.00964518 0.00964667 
0.00964815 0.00955515 0.00955666 0.00955816 0.00955967 0.00956117 0.00956268 0.00956418 0.00956568 
0.00956719 0.00956869 0.00957019 0.00957169 0.0095732 0.0095747 0.0095762 0.0095777 0.0095792 
0.0095807 0.0095822 0.0095837 0.0095852 0.0095867 0.0095882 0.0095897 0.00959119 0.00959269 
0.00959419 0.00959569 0.00959718 0.00959868 0.00960017 0.00960167 0.00960316 0.00960466 0.00960615 
0.00960765 0.00960914 0.00961064 0.00961213 0.00961362 0.00961511 0.0096166 0.0096181 0.00961959 
0.00962108 0.00962257 0.00962406 0.00962555 0.00962704 0.00962853 0.00963001 0.0096315 0.00963299 
0.00963448 0.00963597 0.00963745 0.00963894 0.00964042 0.00964191 0.0096434 0.00964488 0.00964636 
0.00955345 0.00955496 0.00955646 0.00955797 0.00955947 0.00956097 0.00956247 0.00956398 0.00956548 
0.00956698 0.00956848 0.00956998 0.00957148 0.00957298 0.00957448 0.00957598 0.00957748 0.00957898 
0.00958048 0.00958198 0.00958348 0.00958497 0.00958647 0.00958797 0.00958946 0.00959096 0.00959245 
0.00959395 0.00959544 0.00959694 0.00959843 0.00959993 0.00960142 0.00960291 0.00960441 0.0096059 
0.00960739 0.00960888 0.00961037 0.00961187 0.00961336 0.00961485 0.00961634 0.00961783 0.00961932 
0.0096208 0.00962229 0.00962378 0.00962527 0.00962676 0.00962824 0.00962973 0.00963122 0.0096327 
0.00963419 0.00963567 0.00963716 0.00963864 0.00964013 0.00964161 0.00964309 0.00964458 0.00955176 
0.00955326 0.00955476 0.00955627 0.00955777 0.00955927 0.00956077 0.00956227 0.00956377 0.00956527 
0.00956677 0.00956827 0.00956977 0.00957127 0.00957277 0.00957426 0.00957576 0.00957726 0.00957876 
0.00958025 0.00958175 0.00958324 0.00958474 0.00958624 0.00958773 0.00958922 0.00959072 0.00959221 
0.00959371 0.0095952 0.00959669 0.00959818 0.00959968 0.00960117 0.00960266 0.00960415 0.00960564 
0.00960713 0.00960862 0.00961011 0.0096116 0.00961309 0.00961458 0.00961606 0.00961755 0.00961904 
0.00962053 0.00962201 0.0096235 0.00962498 0.00962647 0.00962795 0.00962944 0.00963092 0.00963241 
0.00963389 0.00963537 0.00963686 0.00963834 0.00963982 0.0096413 0.00964278 0.00955006 0.00955156 
0.00955306 0.00955456 0.00955606 0.00955756 0.00955906 0.00956056 0.00956206 0.00956356 0.00956506 
0.00956656 0.00956805 0.00956955 0.00957105 0.00957254 0.00957404 0.00957554 0.00957703 0.00957853 
0.00958002 0.00958152 0.00958301 0.0095845 0.009586 0.00958749 0.00958898 0.00959047 0.00959197 
0.00959346 0.00959495 0.00959644 0.00959793 0.00959942 0.00960091 0.0096024 0.00960389 0.00960538 
0.00960686 0.00960835 0.00960984 0.00961133 0.00961281 0.0096143 0.00961579 0.00961727 0.00961876 
0.00962024 0.00962173 0.00962321 0.0096247 0.00962618 0.00962766 0.00962914 0.00963063 0.00963211 
0.00963359 0.00963507 0.00963655 0.00963803 0.00963951 0.00964099 0.00954836 0.00954986 0.00955136 
0.00955286 0.00955436 0.00955586 0.00955736 0.00955885 0.00956035 0.00956185 0.00956335 0.00956484 
0.00956634 0.00956783 0.00956933 0.00957082 0.00957232 0.00957381 0.00957531 0.0095768 0.00957829 
0.00957979 0.00958128 0.00958277 0.00958426 0.00958575 0.00958724 0.00958874 0.00959023 0.00959172 
0.00959321 0.00959469 0.00959618 0.00959767 0.00959916 0.00960065 0.00960214 0.00960362 0.00960511 
0.0096066 0.00960808 0.00960957 0.00961105 0.00961254 0.00961402 0.00961551 0.00961699 0.00961847 
0.00961996 0.00962144 0.00962292 0.0096244 0.00962588 0.00962737 0.00962885 0.00963033 0.00963181 
0.00963329 0.00963477 0.00963624 0.00963772 0.0096392 0.00954667 0.00954816 0.00954966 0.00955116 
0.00955266 0.00955415 0.00955565 0.00955715 0.00955864 0.00956014 0.00956163 0.00956313 0.00956462 
0.00956612 0.00956761 0.0095691 0.0095706 0.00957209 0.00957358 0.00957507 0.00957656 0.00957806 
0.00957955 0.00958104 0.00958253 0.00958402 0.00958551 0.009587 0.00958848 0.00958997 0.00959146 
0.00959295 0.00959444 0.00959592 0.00959741 0.0095989 0.00960038 0.00960187 0.00960335 0.00960484 
0.00960632 0.00960781 0.00960929 0.00961077 0.00961225 0.00961374 0.00961522 0.0096167 0.00961818 
0.00961966 0.00962114 0.00962263 0.00962411 0.00962558 0.00962706 0.00962854 0.00963002 0.0096315 
0.00963298 0.00963445 0.00963593 0.00963741 0.00954497 0.00954646 0.00954796 0.00954945 0.00955095 
0.00955245 0.00955394 0.00955544 0.00955693 0.00955842 0.00955992 0.00956141 0.0095629 0.0095644 
0.00956589 0.00956738 0.00956887 0.00957036 0.00957185 0.00957334 0.00957483 0.00957632 0.00957781 
0.0095793 0.00958079 0.00958228 0.00958377 0.00958525 0.00958674 0.00958823 0.00958972 0.0095912 
0.00959269 0.00959417 0.00959566 0.00959714 0.00959863 0.00960011 0.00960159 0.00960308 0.00960456 
0.00960604 0.00960752 0.00960901 0.00961049 0.00961197 0.00961345 0.00961493 0.00961641 0.00961789 
0.00961937 0.00962085 0.00962233 0.0096238 0.00962528 0.00962676 0.00962823 0.00962971 0.00963119 
0.00963266 0.00963414 0.00963561 0.00954327 0.00954476 0.00954626 0.00954775 0.00954924 0.00955074 
0.00955223 0.00955372 0.00955522 0.00955671 0.0095582 0.00955969 0.00956118 0.00956268 0.00956417 
0.00956566 0.00956715 0.00956864 0.00957013 0.00957161 0.0095731 0.00957459 0.00957608 0.00957757 
0.00957905 0.00958054 0.00958203 0.00958351 0.009585 0.00958648 0.00958797 0.00958945 0.00959094 
0.00959242 0.0095939 0.00959539 0.00959687 0.00959835 0.00959984 0.00960132 0.0096028 0.00960428 
0.00960576 0.00960724 0.00960872 0.0096102 0.00961168 0.00961316 0.00961464 0.00961611 0.00961759 
0.00961907 0.00962054 0.00962202 0.0096235 0.00962497 0.00962645 0.00962792 0.0096294 0.00963087 
0.00963235 0.00963382 0.00954156 0.00954306 0.00954455 0.00954604 0.00954754 0.00954903 0.00955052 
0.00955201 0.0095535 0.00955499 0.00955649 0.00955798 0.00955947 0.00956095 0.00956244 0.00956393 
0.00956542 0.00956691 0.0095684 0.00956988 0.00957137 0.00957286 0.00957434 0.00957583 0.00957732 
0.0095788 0.00958029 0.00958177 0.00958325 0.00958474 0.00958622 0.0095877 0.00958919 0.00959067 
0.00959215 0.00959363 0.00959511 0.0095966 0.00959808 0.00959956 0.00960104 0.00960251 0.00960399 
0.00960547 0.00960695 0.00960843 0.00960991 0.00961138 0.00961286 0.00961434 0.00961581 0.00961729 
0.00961876 0.00962024 0.00962171 0.00962319 0.00962466 0.00962613 0.00962761 0.00962908 0.00963055 
0.00963202 0.00953986 0.00954135 0.00954285 0.00954434 0.00954583 0.00954732 0.00954881 0.0095503 
0.00955179 0.00955328 0.00955477 0.00955626 0.00955774 0.00955923 0.00956072 0.00956221 0.00956369 
0.00956518 0.00956667 0.00956815 0.00956964 0.00957112 0.00957261 0.00957409 0.00957558 0.00957706 
0.00957854 0.00958003 0.00958151 0.00958299 0.00958447 0.00958596 0.00958744 0.00958892 0.0095904 
0.00959188 0.00959336 0.00959484 0.00959632 0.00959779 0.00959927 0.00960075 0.00960223 0.0096037 
0.00960518 0.00960666 0.00960813 0.00960961 0.00961108 0.00961256 0.00961403 0.00961551 0.00961698 
0.00961845 0.00961993 0.0096214 0.00962287 0.00962434 0.00962581 0.00962729 0.00962876 0.00963023 
0.00953816 0.00953965 0.00954114 0.00954263 0.00954412 0.00954561 0.0095471 0.00954859 0.00955007 
0.00955156 0.00955305 0.00955454 0.00955602 0.00955751 0.009559 0.00956048 0.00956197 0.00956345 
0.00956494 0.00956642 0.00956791 0.00956939 0.00957087 0.00957235 0.00957384 0.00957532 0.0095768 
0.00957828 0.00957976 0.00958124 0.00958272 0.0095842 0.00958568 0.00958716 0.00958864 0.00959012 
0.0095916 0.00959308 0.00959455 0.00959603 0.00959751 0.00959898 0.00960046 0.00960193 0.00960341 
0.00960488 0.00960636 0.00960783 0.00960931 0.00961078 0.00961225 0.00961373 0.0096152 0.00961667 
0.00961814 0.00961961 0.00962108 0.00962255 0.00962402 0.00962549 0.00962696 0.00962843 0.00953646 
0.00953794 0.00953943 0.00954092 0.00954241 0.0095439 0.00954538 0.00954687 0.00954836 0.00954984 
0.00955133 0.00955282 0.0095543 0.00955579 0.00955727 0.00955876 0.00956024 0.00956172 0.00956321 
0.00956469 0.00956617 0.00956765 0.00956913 0.00957062 0.0095721 0.00957358 0.00957506 0.00957654 
0.00957802 0.0095795 0.00958097 0.00958245 0.00958393 0.00958541 0.00958689 0.00958836 0.00958984 
0.00959132 0.00959279 0.00959427 0.00959574 0.00959722 0.00959869 0.00960016 0.00960164 0.00960311 
0.00960458 0.00960606 0.00960753 0.009609 0.00961047 0.00961194 0.00961341 0.00961488 0.00961635 
0.00961782 0.00961929 0.00962076 0.00962223 0.0096237 0.00962516 0.00962663 0.00953475 0.00953624 
0.00953773 0.00953921 0.0095407 0.00954219 0.00954367 0.00954516 0.00954664 0.00954813 0.00954961 
0.0095511 0.00955258 0.00955406 0.00955555 0.00955703 0.00955851 0.00955999 0.00956147 0.00956295 
0.00956444 0.00956592 0.0095674 0.00956888 0.00957036 0.00957183 0.00957331 0.00957479 0.00957627 
0.00957775 0.00957922 0.0095807 0.00958218 0.00958365 0.00958513 0.0095866 0.00958808 0.00958955 
0.00959103 0.0095925 0.00959398 0.00959545 0.00959692 0.00959839 0.00959987 0.00960134 0.00960281 
0.00960428 0.00960575 0.00960722 0.00960869 0.00961016 0.00961163 0.0096131 0.00961456 0.00961603 
0.0096175 0.00961897 0.00962043 0.0096219 0.00962337 0.00962483 0.00953305 0.00953453 0.00953602 
0.0095375 0.00953899 0.00954047 0.00954196 0.00954344 0.00954492 0.00954641 0.00954789 0.00954937 
0.00955086 0.00955234 0.00955382 0.0095553 0.00955678 0.00955826 0.00955974 0.00956122 0.0095627 
0.00956418 0.00956566 0.00956714 0.00956861 0.00957009 0.00957157 0.00957304 0.00957452 0.009576 
0.00957747 0.00957895 0.00958042 0.0095819 0.00958337 0.00958485 0.00958632 0.00958779 0.00958926 
0.00959074 0.00959221 0.00959368 0.00959515 0.00959662 0.00959809 0.00959956 0.00960103 0.0096025 
0.00960397 0.00960544 0.00960691 0.00960837 0.00960984 0.00961131 0.00961278 0.00961424 0.00961571 
0.00961717 0.00961864 0.0096201 0.00962157 0.00962303 0.00953134 0.00953282 0.00953431 0.00953579 
0.00953728 0.00953876 0.00954024 0.00954172 0.00954321 0.00954469 0.00954617 0.00954765 0.00954913 
0.00955061 0.00955209 0.00955357 0.00955505 0.00955653 0.00955801 0.00955949 0.00956096 0.00956244 
0.00956392 0.00956539 0.00956687 0.00956835 0.00956982 0.0095713 0.00957277 0.00957425 0.00957572 
0.00957719 0.00957867 0.00958014 0.00958161 0.00958309 0.00958456 0.00958603 0.0095875 0.00958897 
0.00959044 0.00959191 0.00959338 0.00959485 0.00959632 0.00959779 0.00959925 0.00960072 0.00960219 
0.00960366 0.00960512 0.00960659 0.00960806 0.00960952 0.00961099 0.00961245 0.00961391 0.00961538 
0.00961684 0.0096183 0.00961977 0.00962123 0.00952963 0.00953111 0.0095326 0.00953408 0.00953556 
0.00953704 0.00953852 0.00954001 0.00954149 0.00954297 0.00954445 0.00954593 0.00954741 0.00954888 
0.00955036 0.00955184 0.00955332 0.0095548 0.00955627 0.00955775 0.00955923 0.0095607 0.00956218 
0.00956365 0.00956513 0.0095666 0.00956807 0.00956955 0.00957102 0.00957249 0.00957397 0.00957544 
0.00957691 0.00957838 0.00957985 0.00958132 0.00958279 0.00958426 0.00958573 0.0095872 0.00958867 
0.00959014 0.00959161 0.00959308 0.00959454 0.00959601 0.00959748 0.00959894 0.00960041 0.00960187 
0.00960334 0.0096048 0.00960627 0.00960773 0.00960919 0.00961066 0.00961212 0.00961358 0.00961504 
0.00961651 0.00961797 0.00961943 0.00952792 0.00952941 0.00953089 0.00953237 0.00953385 0.00953533 
0.00953681 0.00953829 0.00953977 0.00954124 0.00954272 0.0095442 0.00954568 0.00954716 0.00954863 
0.00955011 0.00955159 0.00955306 0.00955454 0.00955601 0.00955749 0.00955896 0.00956043 0.00956191 
0.00956338 0.00956485 0.00956633 0.0095678 0.00956927 0.00957074 0.00957221 0.00957368 0.00957515 
0.00957662 0.00957809 0.00957956 0.00958103 0.0095825 0.00958397 0.00958544 0.0095869 0.00958837 
0.00958984 0.0095913 0.00959277 0.00959423 0.0095957 0.00959716 0.00959863 0.00960009 0.00960155 
0.00960302 0.00960448 0.00960594 0.0096074 0.00960886 0.00961033 0.00961179 0.00961325 0.00961471 
0.00961617 0.00961762 0.00952621 0.00952769 0.00952917 0.00953065 0.00953213 0.00953361 0.00953509 
0.00953657 0.00953805 0.00953952 0.009541 0.00954248 0.00954395 0.00954543 0.0095469 0.00954838 
0.00954985 0.00955133 0.0095528 0.00955427 0.00955575 0.00955722 0.00955869 0.00956016 0.00956164 
0.00956311 0.00956458 0.00956605 0.00956752 0.00956899 0.00957046 0.00957193 0.0095734 0.00957486 