# vtk DataFile Version 4.0
vtk output
ASCII
DATASET STRUCTURED_POINTS
DIMENSIONS 62 62 62
SPACING 0.05 0.05 0.05
ORIGIN -1.525 -0.525 -0.525
POINT_DATA 238328
FIELD FieldData 1
potential 1 238328 double
0.0131687 0.0131279 0.013087 0.0130459 0.0130046 0.0129633 0.0129218 0.0128801 0.0128383 
0.0127964 0.0127544 0.0127122 0.0126699 0.0126274 0.0125848 0.012542 0.0124992 0.0124561 
0.0124129 0.0123696 0.0123262 0.0122825 0.0122388 0.0121949 0.0121508 0.0121066 0.0120622 
0.0120177 0.0119731 0.0119282 0.0118833 0.0118381 0.0117929 0.0117474 0.0117018 0.0116561 
0.0116102 0.0115641 0.0115179 0.0114715 0.011425 0.0113783 0.0113314 0.0112844 0.0112372 
0.0111899 0.0111424 0.0110948 0.0110469 0.010999 0.0109508 0.0109025 0.0108541 0.0108054 
0.0107566 0.0107077 0.0106585 0.0106092 0.0105597 0.01051 0.0104601 0.0104101 0.0129348 
0.0128932 0.0128515 0.0128097 0.0127678 0.0127257 0.0126834 0.0126411 0.0125986 0.0125559 
0.0125131 0.0124702 0.0124271 0.0123839 0.0123405 0.012297 0.0122533 0.0122095 0.0121656 
0.0121215 0.0120772 0.0120328 0.0119883 0.0119436 0.0118987 0.0118537 0.0118085 0.0117632 
0.0117177 0.0116721 0.0116263 0.0115803 0.0115342 0.0114879 0.0114415 0.0113949 0.0113481 
0.0113012 0.0112541 0.0112068 0.0111594 0.0111119 0.0110641 0.0110162 0.0109682 0.0109199 
0.0108716 0.010823 0.0107743 0.0107254 0.0106764 0.0106272 0.0105778 0.0105282 0.0104785 
0.0104286 0.0103785 0.0103283 0.0102778 0.0102272 0.0101764 0.0101254 0.0126982 0.0126559 
0.0126135 0.012571 0.0125283 0.0124855 0.0124425 0.0123994 0.0123561 0.0123127 0.0122691 
0.0122254 0.0121816 0.0121376 0.0120935 0.0120492 0.0120047 0.0119601 0.0119154 0.0118705 
0.0118254 0.0117802 0.0117349 0.0116894 0.0116437 0.0115978 0.0115518 0.0115057 0.0114594 
0.0114129 0.0113662 0.0113194 0.0112725 0.0112253 0.011178 0.0111305 0.0110829 0.0110351 
0.0109871 0.010939 0.0108907 0.0108422 0.0107936 0.0107447 0.0106958 0.0106466 0.0105973 
0.0105479 0.0104982 0.0104484 0.0103984 0.0103483 0.010298 0.0102475 0.0101968 0.010146 
0.0100949 0.0100437 0.00999235 0.00994076 0.00988899 0.00983701 0.012459 0.012416 0.0123729 
0.0123296 0.0122861 0.0122425 0.0121988 0.0121549 0.0121109 0.0120667 0.0120224 0.0119779 
0.0119333 0.0118885 0.0118435 0.0117985 0.0117532 0.0117078 0.0116623 0.0116166 0.0115707 
0.0115247 0.0114785 0.0114321 0.0113856 0.0113389 0.0112921 0.0112451 0.0111979 0.0111506 
0.0111031 0.0110554 0.0110075 0.0109595 0.0109113 0.010863 0.0108144 0.0107657 0.0107168 
0.0106678 0.0106186 0.0105692 0.0105196 0.0104699 0.01042 0.0103699 0.0103196 0.0102692 
0.0102186 0.0101679 0.0101169 0.0100658 0.0100146 0.00996311 0.00991148 0.00985967 0.00980767 
0.00975549 0.00970312 0.00965056 0.0095978 0.00954484 0.0122172 0.0121734 0.0121295 0.0120854 
0.0120412 0.0119968 0.0119523 0.0119077 0.0118628 0.0118179 0.0117727 0.0117275 0.011682 
0.0116365 0.0115907 0.0115448 0.0114988 0.0114525 0.0114062 0.0113596 0.0113129 0.0112661 
0.011219 0.0111718 0.0111245 0.0110769 0.0110292 0.0109813 0.0109333 0.0108851 0.0108367 
0.0107881 0.0107394 0.0106904 0.0106413 0.0105921 0.0105426 0.010493 0.0104432 0.0103932 
0.010343 0.0102927 0.0102422 0.0101915 0.0101406 0.0100896 0.0100384 0.00998701 0.00993545 
0.00988372 0.0098318 0.00977972 0.00972746 0.00967502 0.0096224 0.0095696 0.00951661 0.00946343 
0.00941006 0.0093565 0.00930273 0.00924876 0.0119725 0.011928 0.0118833 0.0118385 0.0117934 
0.0117483 0.011703 0.0116575 0.0116119 0.0115661 0.0115202 0.0114741 0.0114279 0.0113815 
0.0113349 0.0112882 0.0112413 0.0111942 0.011147 0.0110996 0.011052 0.0110043 0.0109564 
0.0109084 0.0108601 0.0108117 0.0107631 0.0107144 0.0106654 0.0106163 0.010567 0.0105175 
0.0104679 0.010418 0.010368 0.0103178 0.0102674 0.0102168 0.010166 0.0101151 0.010064 
0.0100127 0.0099612 0.00990954 0.0098577 0.00980568 0.00975349 0.00970111 0.00964856 0.00959583 
0.00954292 0.00948983 0.00943656 0.00938311 0.00932948 0.00927566 0.00922165 0.00916746 0.00911306 
0.00905847 0.00900367 0.00894867 0.0117251 0.0116797 0.0116343 0.0115886 0.0115428 0.0114968 
0.0114507 0.0114044 0.011358 0.0113114 0.0112647 0.0112177 0.0111706 0.0111234 0.011076 
0.0110284 0.0109807 0.0109328 0.0108847 0.0108364 0.010788 0.0107394 0.0106906 0.0106417 
0.0105925 0.0105432 0.0104937 0.0104441 0.0103942 0.0103442 0.0102939 0.0102435 0.0101929 
0.0101421 0.0100912 0.01004 0.00998864 0.0099371 0.00988537 0.00983345 0.00978134 0.00972905 
0.00967658 0.00962392 0.00957107 0.00951805 0.00946484 0.00941145 0.00935788 0.00930412 0.00925018 
0.00919606 0.00914177 0.00908728 0.00903261 0.00897775 0.0089227 0.00886746 0.00881202 0.00875637 
0.00870052 0.00864446 0.0114747 0.0114286 0.0113823 0.0113358 0.0112892 0.0112424 0.0111955 
0.0111484 0.0111011 0.0110536 0.011006 0.0109583 0.0109103 0.0108622 0.0108139 0.0107655 
0.0107169 0.0106681 0.0106191 0.01057 0.0105207 0.0104712 0.0104215 0.0103717 0.0103216 
0.0102714 0.010221 0.0101704 0.0101196 0.0100686 0.0100174 0.00996606 0.0099145 0.00986274 
0.00981079 0.00975865 0.00970631 0.00965377 0.00960104 0.00954812 0.00949501 0.0094417 0.00938821 
0.00933452 0.00928065 0.00922659 0.00917234 0.00911791 0.00906329 0.00900848 0.0089535 0.00889832 
0.00884297 0.00878742 0.00873169 0.00867576 0.00861964 0.00856333 0.00850681 0.00845009 0.00839316 
0.00833602 0.0112214 0.0111744 0.0111273 0.01108 0.0110326 0.0109849 0.0109371 0.0108892 
0.010841 0.0107927 0.0107443 0.0106956 0.0106468 0.0105978 0.0105487 0.0104993 0.0104498 
0.0104002 0.0103503 0.0103002 0.01025 0.0101996 0.010149 0.0100982 0.0100473 0.0099961 
0.00994474 0.00989319 0.00984144 0.0097895 0.00973736 0.00968501 0.00963247 0.00957972 0.00952678 
0.00947363 0.00942028 0.00936673 0.00931298 0.00925903 0.00920488 0.00915053 0.00909599 0.00904126 
0.00898633 0.00893121 0.00887589 0.0088204 0.0087647 0.00870882 0.00865276 0.0085965 0.00854006 
0.00848343 0.0084266 0.00836959 0.00831237 0.00825496 0.00819734 0.00813952 0.00808149 0.00802323 
0.010965 0.0109172 0.0108693 0.0108211 0.0107728 0.0107243 0.0106756 0.0106268 0.0105778 
0.0105286 0.0104793 0.0104297 0.01038 0.0103302 0.0102801 0.0102299 0.0101794 0.0101288 
0.0100781 0.0100271 0.00997593 0.00992458 0.00987304 0.00982132 0.00976939 0.00971727 0.00966495 
0.00961243 0.00955971 0.00950678 0.00945364 0.0094003 0.00934675 0.00929299 0.00923903 0.00918485 
0.00913047 0.00907588 0.00902108 0.00896607 0.00891086 0.00885545 0.00879983 0.00874402 0.00868801 
0.0086318 0.0085754 0.0085188 0.008462 0.00840502 0.00834785 0.00829049 0.00823294 0.00817519 
0.00811724 0.00805911 0.00800077 0.00794224 0.0078835 0.00782454 0.00776538 0.00770599 0.0107055 
0.0106569 0.010608 0.010559 0.0105098 0.0104605 0.0104109 0.0103612 0.0103113 0.0102612 
0.0102109 0.0101605 0.0101099 0.0100591 0.0100081 0.00995695 0.0099056 0.00985406 0.00980234 
0.00975042 0.00969832 0.00964601 0.00959351 0.00954082 0.00948792 0.00943482 0.00938151 0.009328 
0.00927428 0.00922034 0.00916619 0.00911183 0.00905725 0.00900245 0.00894744 0.00889222 0.00883677 
0.00878111 0.00872524 0.00866915 0.00861285 0.00855635 0.00849963 0.00844271 0.00838559 0.00832826 
0.00827074 0.00821302 0.0081551 0.00809698 0.00803868 0.00798018 0.00792148 0.00786259 0.0078035 
0.00774422 0.00768474 0.00762505 0.00756515 0.00750504 0.00744472 0.00738417 0.0104429 0.0103933 
0.0103436 0.0102937 0.0102436 0.0101933 0.0101429 0.0100922 0.0100414 0.00999041 0.00993923 
0.00988786 0.00983631 0.00978457 0.00973265 0.00968054 0.00962824 0.00957574 0.00952306 0.00947017 
0.00941709 0.00936381 0.00931033 0.00925664 0.00920275 0.00914865 0.00909434 0.0090398 0.00898506 
0.00893009 0.0088749 0.0088195 0.00876386 0.00870801 0.00865192 0.00859562 0.00853909 0.00848233 
0.00842536 0.00836816 0.00831075 0.00825312 0.00819527 0.00813722 0.00807896 0.00802049 0.00796182 
0.00790294 0.00784387 0.00778459 0.00772512 0.00766546 0.0076056 0.00754553 0.00748527 0.00742481 
0.00736415 0.00730328 0.0072422 0.0071809 0.00711939 0.00705765 0.0101769 0.0101264 0.0100758 
0.010025 0.00997397 0.00992278 0.0098714 0.00981983 0.00976808 0.00971614 0.00966401 0.0096117 
0.00955919 0.0095065 0.00945361 0.00940053 0.00934725 0.00929378 0.00924011 0.00918624 0.00913216 
0.00907788 0.0090234 0.0089687 0.00891379 0.00885866 0.00880332 0.00874775 0.00869195 0.00863593 
0.00857968 0.0085232 0.00846649 0.00840955 0.00835237 0.00829496 0.00823732 0.00817944 0.00812134 
0.008063 0.00800444 0.00794566 0.00788666 0.00782744 0.00776801 0.00770837 0.00764852 0.00758846 
0.0075282 0.00746774 0.00740708 0.00734622 0.00728516 0.0072239 0.00716243 0.00710076 0.00703889 
0.00697681 0.00691452 0.00685201 0.00678929 0.00672633 0.00990755 0.00985618 0.00980462 0.00975286 
0.00970091 0.00964877 0.00959644 0.00954392 0.00949121 0.00943831 0.00938521 0.00933193 0.00927844 
0.00922477 0.00917089 0.00911682 0.00906255 0.00900808 0.0089534 0.00889852 0.00884343 0.00878813 
0.00873261 0.00867688 0.00862093 0.00856476 0.00850836 0.00845173 0.00839486 0.00833776 0.00828043 
0.00822285 0.00816504 0.00810698 0.00804868 0.00799014 0.00793136 0.00787233 0.00781307 0.00775357 
0.00769383 0.00763387 0.00757368 0.00751327 0.00745264 0.0073918 0.00733074 0.00726947 0.00720799 
0.00714632 0.00708444 0.00702235 0.00696006 0.00689757 0.00683488 0.00677197 0.00670887 0.00664555 
0.00658201 0.00651826 0.00645429 0.00639008 0.00963475 0.00958244 0.00952992 0.00947721 0.0094243 
0.00937119 0.00931789 0.0092644 0.00921071 0.00915682 0.00910274 0.00904845 0.00899397 0.00893929 
0.00888441 0.00882933 0.00877404 0.00871854 0.00866284 0.00860692 0.00855079 0.00849445 0.00843788 
0.00838109 0.00832408 0.00826683 0.00820936 0.00815164 0.00809368 0.00803548 0.00797704 0.00791834 
0.0078594 0.0078002 0.00774075 0.00768105 0.0076211 0.00756089 0.00750044 0.00743974 0.00737881 
0.00731764 0.00725623 0.0071946 0.00713274 0.00707066 0.00700836 0.00694585 0.00688314 0.00682022 
0.00675709 0.00669375 0.00663021 0.00656646 0.0065025 0.00643834 0.00637396 0.00630937 0.00624457 
0.00617955 0.00611429 0.00604881 0.00935841 0.00930512 0.00925164 0.00919795 0.00914405 0.00908995 
0.00903566 0.00898117 0.00892647 0.00887158 0.00881648 0.00876118 0.00870568 0.00864997 0.00859406 
0.00853794 0.00848161 0.00842507 0.00836832 0.00831134 0.00825415 0.00819674 0.0081391 0.00808123 
0.00802313 0.00796479 0.00790621 0.00784738 0.00778831 0.00772898 0.0076694 0.00760956 0.00754946 
0.0074891 0.00742847 0.00736758 0.00730643 0.00724502 0.00718336 0.00712144 0.00705927 0.00699685 
0.0069342 0.00687131 0.0068082 0.00674485 0.00668129 0.00661752 0.00655353 0.00648933 0.00642493 
0.00636032 0.00629549 0.00623046 0.00616521 0.00609975 0.00603408 0.00596819 0.00590209 0.00583576 
0.00576921 0.00570242 0.00907842 0.00902414 0.00896966 0.00891497 0.00886006 0.00880496 0.00874965 
0.00869413 0.00863841 0.00858248 0.00852635 0.00847001 0.00841347 0.00835671 0.00829974 0.00824256 
0.00818517 0.00812756 0.00806973 0.00801168 0.0079534 0.0078949 0.00783616 0.00777718 0.00771797 
0.00765852 0.00759881 0.00753885 0.00747864 0.00741816 0.00735742 0.0072964 0.00723512 0.00717357 
0.00711174 0.00704964 0.00698727 0.00692462 0.00686171 0.00679853 0.0067351 0.00667142 0.00660748 
0.00654331 0.00647891 0.00641428 0.00634942 0.00628436 0.00621907 0.00615358 0.00608787 0.00602195 
0.00595582 0.00588947 0.00582291 0.00575613 0.00568914 0.00562193 0.00555449 0.00548683 0.00541894 
0.00535082 0.00879469 0.00873939 0.00868389 0.00862818 0.00857225 0.0085161 0.00845975 0.00840319 
0.00834642 0.00828944 0.00823224 0.00817484 0.00811723 0.0080594 0.00800135 0.00794309 0.00788461 
0.0078259 0.00776698 0.00770782 0.00764844 0.00758881 0.00752896 0.00746885 0.00740851 0.00734791 
0.00728706 0.00722594 0.00716456 0.00710291 0.00704098 0.00697877 0.00691629 0.00685351 0.00679046 
0.00672711 0.00666349 0.00659958 0.00653539 0.00647093 0.00640621 0.00634122 0.00627599 0.0062105 
0.00614479 0.00607883 0.00601266 0.00594627 0.00587967 0.00581285 0.00574582 0.00567858 0.00561111 
0.00554343 0.00547553 0.00540741 0.00533907 0.0052705 0.00520171 0.00513268 0.00506343 0.00499395 
0.00850711 0.00845078 0.00839424 0.00833747 0.00828048 0.00822327 0.00816586 0.00810823 0.00805039 
0.00799233 0.00793405 0.00787556 0.00781686 0.00775793 0.00769878 0.00763942 0.00757982 0.00752 
0.00745995 0.00739967 0.00733915 0.00727839 0.00721739 0.00715613 0.00709462 0.00703286 0.00697084 
0.00690854 0.00684597 0.00678312 0.00671998 0.00665656 0.00659284 0.00652883 0.00646452 0.00639991 
0.006335 0.0062698 0.00620431 0.00613854 0.0060725 0.00600618 0.00593961 0.00587279 0.00580573 
0.00573843 0.00567092 0.00560319 0.00553524 0.00546708 0.00539871 0.00533012 0.00526131 0.00519228 
0.00512302 0.00505353 0.00498382 0.00491387 0.00484369 0.00477328 0.00470264 0.00463176 0.0082156 
0.0081582 0.00810059 0.00804274 0.00798468 0.00792638 0.00786788 0.00780916 0.00775022 0.00769106 
0.00763168 0.00757208 0.00751225 0.00745221 0.00739193 0.00733144 0.00727071 0.00720975 0.00714855 
0.00708712 0.00702544 0.00696351 0.00690134 0.00683891 0.00677622 0.00671327 0.00665005 0.00658655 
0.00652276 0.00645869 0.00639432 0.00632966 0.00626469 0.00619941 0.00613382 0.00606792 0.00600171 
0.00593519 0.00586838 0.00580127 0.00573387 0.0056662 0.00559827 0.00553009 0.00546166 0.005393 
0.00532412 0.00525503 0.00518573 0.00511621 0.00504648 0.00497654 0.00490637 0.00483597 0.00476534 
0.00469447 0.00462337 0.00455201 0.00448042 0.0044086 0.00433654 0.00426425 0.00792003 0.00786154 
0.00780283 0.00774389 0.00768472 0.00762532 0.0075657 0.00750586 0.0074458 0.00738551 0.007325 
0.00726427 0.00720331 0.00714212 0.0070807 0.00701904 0.00695716 0.00689503 0.00683266 0.00677005 
0.00670719 0.00664408 0.00658071 0.00651708 0.00645319 0.00638903 0.00632459 0.00625986 0.00619484 
0.00612953 0.00606391 0.00599798 0.00593173 0.00586517 0.00579828 0.00573107 0.00566353 0.00559567 
0.00552751 0.00545903 0.00539026 0.00532121 0.0052519 0.00518233 0.00511251 0.00504247 0.00497222 
0.00490176 0.00483108 0.0047602 0.00468911 0.00461781 0.00454628 0.00447451 0.0044025 0.00433024 
0.00425773 0.00418496 0.00411194 0.00403867 0.00396516 0.00389143 0.0076203 0.0075607 0.00750086 
0.0074408 0.0073805 0.00731997 0.00725921 0.00719823 0.00713702 0.00707559 0.00701393 0.00695204 
0.00688992 0.00682756 0.00676497 0.00670214 0.00663907 0.00657575 0.00651219 0.00644838 0.00638432 
0.00631999 0.00625541 0.00619055 0.00612543 0.00606004 0.00599435 0.00592838 0.0058621 0.00579553 
0.00572864 0.00566142 0.00559389 0.00552602 0.00545781 0.00538927 0.00532039 0.00525117 0.00518163 
0.00511177 0.00504161 0.00497116 0.00490044 0.00482946 0.00475825 0.00468682 0.00461518 0.00454334 
0.0044713 0.00439906 0.00432661 0.00425395 0.00418106 0.00410793 0.00403455 0.0039609 0.00388697 
0.00381277 0.0037383 0.00366356 0.00358858 0.00351338 0.00731631 0.00725556 0.00719457 0.00713336 
0.0070719 0.00701021 0.0069483 0.00688616 0.00682378 0.00676118 0.00669835 0.00663528 0.00657198 
0.00650843 0.00644465 0.00638062 0.00631634 0.00625182 0.00618704 0.006122 0.00605671 0.00599115 
0.00592532 0.00585922 0.00579285 0.0057262 0.00565925 0.00559201 0.00552446 0.0054566 0.00538843 
0.00531992 0.00525107 0.00518189 0.00511235 0.00504246 0.00497222 0.00490163 0.0048307 0.00475944 
0.00468787 0.00461601 0.00454387 0.00447148 0.00439886 0.00432604 0.00425301 0.0041798 0.0041064 
0.00403281 0.00395902 0.00388502 0.00381079 0.00373632 0.00366158 0.00358655 0.00351122 0.00343559 
0.00335965 0.00328343 0.00320694 0.00313022 0.00700792 0.006946 0.00688384 0.00682145 0.00675882 
0.00669595 0.00663285 0.00656953 0.00650597 0.00644218 0.00637816 0.00631389 0.00624939 0.00618464 
0.00611964 0.00605439 0.00598889 0.00592313 0.00585711 0.00579082 0.00572428 0.00565746 0.00559037 
0.00552301 0.00545536 0.00538742 0.0053192 0.00525067 0.00518184 0.00511269 0.00504321 0.00497339 
0.00490323 0.00483272 0.00476184 0.0046906 0.00461899 0.00454702 0.00447469 0.00440203 0.00432904 
0.00425576 0.0041822 0.00410839 0.00403437 0.00396016 0.00388576 0.00381119 0.00373645 0.00366154 
0.00358644 0.00351114 0.00343561 0.00335983 0.00328376 0.00320738 0.00313067 0.00305362 0.00297621 
0.00289847 0.00282043 0.00274216 0.00669503 0.00663192 0.00656856 0.00650497 0.00644114 0.00637707 
0.00631277 0.00624825 0.00618349 0.00611849 0.00605326 0.00598778 0.00592206 0.00585608 0.00578985 
0.00572336 0.00565662 0.0055896 0.00552232 0.00545477 0.00538695 0.00531886 0.00525048 0.00518183 
0.00511288 0.00504365 0.00497413 0.00490431 0.00483417 0.00476371 0.00469292 0.0046218 0.00455032 
0.00447848 0.00440626 0.00433367 0.0042607 0.00418735 0.00411363 0.00403956 0.00396516 0.00389046 
0.00381548 0.00374027 0.00366486 0.00358927 0.00351353 0.00343764 0.00336161 0.00328542 0.00320906 
0.00313251 0.00305573 0.00297869 0.00290134 0.00282366 0.0027456 0.00266715 0.00258828 0.00250901 
0.00242937 0.00234947 0.00637753 0.00631319 0.00624861 0.00618379 0.00611874 0.00605345 0.00598794 
0.0059222 0.00585622 0.00579001 0.00572356 0.00565686 0.0055899 0.00552269 0.00545521 0.00538747 
0.00531946 0.00525117 0.00518261 0.00511378 0.00504466 0.00497527 0.00490559 0.00483562 0.00476537 
0.00469483 0.004624 0.00455286 0.00448141 0.00440964 0.00433755 0.00426511 0.00419232 0.00411916 
0.00404562 0.00397169 0.00389737 0.00382266 0.00374756 0.0036721 0.0035963 0.0035202 0.00344383 
0.00336724 0.00329048 0.00321356 0.00313651 0.00305935 0.00298208 0.00290469 0.00282714 0.00274941 
0.00267145 0.00259323 0.00251468 0.00243575 0.00235641 0.0022766 0.00219628 0.00211546 0.00203417 
0.00195252 0.00605528 0.00598969 0.00592386 0.0058578 0.00579151 0.00572499 0.00565825 0.00559129 
0.00552409 0.00545666 0.00538898 0.00532104 0.00525285 0.00518439 0.00511566 0.00504665 0.00497736 
0.00490779 0.00483794 0.00476779 0.00469737 0.00462666 0.00455566 0.00448437 0.00441279 0.00434092 
0.00426876 0.0041963 0.00412354 0.00405047 0.00397707 0.00390334 0.00382925 0.0037548 0.00367996 
0.00360473 0.00352909 0.00345304 0.0033766 0.00329978 0.00322262 0.00314516 0.00306744 0.00298953 
0.00291145 0.00283327 0.00275499 0.00267664 0.00259822 0.0025197 0.00244105 0.00236223 0.0022832 
0.00220388 0.00212422 0.00204415 0.00196359 0.00188248 0.00180077 0.0017184 0.00163539 0.00155183 
0.00572816 0.0056613 0.0055942 0.00552687 0.00545934 0.00539158 0.00532361 0.00525542 0.00518701 
0.00511835 0.00504945 0.00498029 0.00491085 0.00484114 0.00477115 0.00470087 0.0046303 0.00455943 
0.00448826 0.00441681 0.00434505 0.00427301 0.00420067 0.00412805 0.00405513 0.00398193 0.00390844 
0.00383466 0.00376059 0.00368622 0.00361154 0.00353653 0.00346119 0.00338548 0.00330939 0.00323289 
0.00315599 0.00307866 0.00300093 0.00292281 0.00284435 0.0027656 0.0026866 0.00260744 0.00252815 
0.00244879 0.00236938 0.00228995 0.00221048 0.00213094 0.00205131 0.00197153 0.00189153 0.00181124 
0.00173058 0.00164947 0.0015678 0.00148549 0.00140244 0.00131856 0.00123376 0.00114808 0.00539606 
0.00532789 0.00525951 0.00519091 0.00512212 0.00505313 0.00498393 0.00491452 0.0048449 0.00477504 
0.00470492 0.00463454 0.00456388 0.00449293 0.00442168 0.00435012 0.00427826 0.00420609 0.00413361 
0.00406082 0.00398774 0.00391435 0.00384067 0.0037667 0.00369244 0.0036179 0.00354308 0.00346799 
0.00339262 0.00331697 0.00324104 0.0031648 0.00308824 0.00301134 0.00293407 0.00285639 0.00277829 
0.00269977 0.00262083 0.00254151 0.00246184 0.00238189 0.00230173 0.00222143 0.00214106 0.00206066 
0.00198027 0.00189989 0.00181951 0.0017391 0.00165862 0.001578 0.00149718 0.00141606 0.00133455 
0.00125253 0.00116989 0.00108651 0.00100224 0.000916914 0.000830348 0.000742348 0.00505884 0.00498935 
0.00491967 0.00484979 0.00477975 0.00470953 0.00463912 0.00456852 0.00449772 0.00442667 0.00435538 
0.0042838 0.00421193 0.00413975 0.00406725 0.00399443 0.00392128 0.00384781 0.00377402 0.0036999 
0.00362548 0.00355075 0.00347572 0.0034004 0.00332479 0.00324892 0.00317278 0.0030964 0.00301976 
0.00294287 0.00286573 0.00278832 0.00271063 0.00263262 0.00255426 0.00247551 0.00239633 0.00231672 
0.00223669 0.00215628 0.00207553 0.00199454 0.00191338 0.00183213 0.00175087 0.00166964 0.00158845 
0.00150731 0.00142618 0.00134504 0.00126385 0.00118257 0.00110109 0.00101933 0.000937149 0.000854429 
0.000771025 0.000686779 0.000601498 0.000514926 0.000426715 0.000336319 0.00471639 0.00464556 0.00457456 
0.00450341 0.00443213 0.0043607 0.00428912 0.00421738 0.00414543 0.00407326 0.00400082 0.00392809 
0.00385505 0.00378167 0.00370795 0.00363388 0.00355946 0.00348469 0.00340959 0.00333415 0.00325839 
0.00318232 0.00310595 0.00302928 0.00295235 0.00287515 0.00279772 0.00272007 0.0026422 0.00256413 
0.00248586 0.00240738 0.00232866 0.00224966 0.00217035 0.00209066 0.00201055 0.00193 0.00184904 
0.0017677 0.00168605 0.0016042 0.00152226 0.00144033 0.00135845 0.00127667 0.00119497 0.00111329 
0.00103158 0.000949844 0.000868101 0.000786326 0.000704428 0.00062228 0.00053975 0.000456689 0.000372958 
0.000288395 0.000202816 0.000115981 3.25008e-05 2.43329e-05 0.00436858 0.00429638 0.00422406 0.00415165 
0.00407916 0.00400658 0.00393389 0.00386106 0.00378806 0.00371482 0.00364131 0.00356749 0.00349333 
0.00341879 0.00334388 0.00326858 0.00319291 0.00311686 0.00304046 0.00296372 0.00288664 0.00280924 
0.00273154 0.00265355 0.00257531 0.00249682 0.00241814 0.00233927 0.00226025 0.00218109 0.00210179 
0.00202236 0.00194277 0.00186296 0.00178287 0.00170243 0.00162157 0.00154027 0.00145855 0.00137647 
0.00129414 0.0012117 0.00112927 0.00104699 0.000964915 0.000882998 0.00080113 0.000719182 0.000637027 
0.000554729 0.000472543 0.000390514 0.000308512 0.000226382 0.000143996 6.12412e-05 4.40794e-05 4.19698e-05 
3.94197e-05 3.65501e-05 3.35314e-05 3.05317e-05 0.00401527 0.00394169 0.00386806 0.00379441 0.00372076 
0.0036471 0.00357339 0.00349958 0.00342562 0.00335144 0.00327696 0.00320213 0.00312691 0.00305128 
0.00297521 0.00289873 0.00282183 0.00274453 0.00266686 0.00258882 0.00251044 0.00243174 0.00235274 
0.00227347 0.00219395 0.00211423 0.00203435 0.00195435 0.00187428 0.00179416 0.00171401 0.00163383 
0.00155359 0.00147321 0.00139259 0.00131163 0.00123023 0.00114837 0.00106609 0.000983493 0.000900726 
0.000817952 0.000735366 0.000653178 0.00057148 0.00049001 0.000408451 0.000326597 0.000244034 0.000160718 
7.81725e-05 4.1837e-05 4.16536e-05 4.15278e-05 4.13474e-05 4.10461e-05 4.0605e-05 4.00355e-05 3.93611e-05 
3.86259e-05 3.78737e-05 3.7214e-05 0.00365633 0.00358135 0.00350641 0.00343157 0.00335684 0.00328222 
0.00320762 0.00313299 0.00305823 0.00298324 0.00290792 0.0028322 0.00275603 0.00267936 0.0026022 
0.00252456 0.00244646 0.00236794 0.00228903 0.00220973 0.0021301 0.00205013 0.00196987 0.00188936 
0.00180862 0.00172773 0.00164674 0.00156573 0.00148476 0.00140389 0.00132315 0.00124254 0.00116199 
0.00108139 0.00100058 0.000919384 0.000837657 0.000755379 0.000672696 0.000589784 0.000506801 0.000423924 
0.000341398 0.000259659 0.000179409 9.92114e-05 4.30592e-05 4.15343e-05 3.951e-05 3.76111e-05 3.68823e-05 
3.68626e-05 3.72155e-05 3.77588e-05 3.8393e-05 3.90531e-05 3.9711e-05 4.03514e-05 4.09764e-05 4.16008e-05 
4.22707e-05 4.31052e-05 0.00329161 0.0032152 0.00313898 0.00306302 0.00298733 0.00291189 0.0028366 
0.00276136 0.00268602 0.00261043 0.00253446 0.002458 0.00238097 0.00230334 0.00222513 0.00214637 
0.00206711 0.0019874 0.00190727 0.00182676 0.00174591 0.00166473 0.00158327 0.00150158 0.0014197 
0.00133772 0.00125574 0.00117386 0.0010922 0.00101087 0.000929954 0.000849431 0.000769142 0.00068884 
0.00060827 0.000527171 0.000445251 0.00036248 0.000279418 0.000196344 0.000113329 3.53571e-05 3.47631e-05 
3.48254e-05 3.55547e-05 3.56446e-05 3.51133e-05 3.43593e-05 3.36023e-05 3.31376e-05 3.32078e-05 3.37768e-05 
3.47011e-05 3.58582e-05 3.71645e-05 3.8559e-05 4.00045e-05 4.148e-05 4.29847e-05 4.45359e-05 4.6182e-05 
4.80261e-05 0.00292093 0.00284306 0.00276558 0.00268858 0.0026121 0.00253609 0.00246039 0.00238484 
0.00230922 0.00223331 0.00215692 0.00207989 0.00200213 0.00192361 0.00184438 0.00176451 0.0016841 
0.00160321 0.00152191 0.00144023 0.0013582 0.00127587 0.00119328 0.00111049 0.00102756 0.000944604 
0.000861745 0.000779143 0.000697002 0.000615556 0.000535076 0.000455611 0.00037658 0.000297271 0.000217411 
0.000136809 5.49846e-05 3.66309e-05 3.51938e-05 3.40857e-05 3.3086e-05 3.22009e-05 3.1522e-05 3.11285e-05 
3.093e-05 3.07072e-05 3.04225e-05 3.01965e-05 3.01669e-05 3.04571e-05 3.11399e-05 3.22001e-05 3.35702e-05 
3.51725e-05 3.69457e-05 3.88362e-05 4.08109e-05 4.28508e-05 4.49577e-05 4.71497e-05 4.94684e-05 5.199e-05 
0.00254408 0.00246467 0.00238595 0.00230805 0.00223102 0.00215477 0.00207906 0.00200363 0.00192815 
0.00185229 0.00177578 0.00169839 0.00162001 0.00154062 0.00146033 0.00137932 0.00129773 0.00121567 
0.00113321 0.00105039 0.00096726 0.00088385 0.000800211 0.000716411 0.000632534 0.000548698 0.000465059 
0.000381815 0.000299236 0.000217724 0.000138169 6.28516e-05 3.14804e-05 3.35811e-05 3.46928e-05 3.50309e-05 
3.46204e-05 3.37581e-05 3.28959e-05 3.20737e-05 3.12514e-05 3.04486e-05 2.97265e-05 2.9139e-05 2.8691e-05 
2.83755e-05 2.82166e-05 2.82782e-05 2.86279e-05 2.93139e-05 3.03495e-05 3.17136e-05 3.33604e-05 3.52363e-05 
3.72959e-05 3.9495e-05 4.18036e-05 4.4214e-05 4.67205e-05 4.93407e-05 5.21042e-05 5.5062e-05 0.00216075 
0.00207968 0.00199972 0.0019211 0.00184386 0.00176785 0.00169274 0.00161804 0.00154326 0.00146792 
0.00139164 0.00131412 0.00123518 0.00115484 0.00107335 0.000991043 0.000908195 0.000824936 0.00074133 
0.00065742 0.00057324 0.000488832 0.00040425 0.000319565 0.000234865 0.000150269 6.59269e-05 8.63589e-06 
1.13172e-05 1.48469e-05 1.93085e-05 2.38596e-05 2.72225e-05 2.94559e-05 3.09259e-05 3.1805e-05 3.2167e-05 
3.21189e-05 3.17855e-05 3.12721e-05 3.06263e-05 2.99117e-05 2.92023e-05 2.8568e-05 2.80653e-05 2.7746e-05 
2.76599e-05 2.78593e-05 2.83816e-05 2.92431e-05 3.04398e-05 3.19459e-05 3.3725e-05 3.57357e-05 3.79433e-05 
4.03095e-05 4.28117e-05 4.5441e-05 4.81928e-05 5.10736e-05 5.41063e-05 5.73188e-05 0.00177055 0.00168758 
0.00160632 0.00152717 0.00145022 0.00137523 0.0013016 0.00122852 0.00115518 0.00108093 0.00100529 
0.000927869 0.000848381 0.000766763 0.00068359 0.000599693 0.000515455 0.000430963 0.000346237 0.000261298 
0.000176171 9.08973e-05 1.06582e-05 1.12124e-05 1.18137e-05 1.25644e-05 1.35782e-05 1.49695e-05 1.68156e-05 
1.91216e-05 2.17155e-05 2.42794e-05 2.6526e-05 2.83579e-05 2.97914e-05 3.08353e-05 3.14865e-05 3.17565e-05 
3.16949e-05 3.137e-05 3.08491e-05 3.02113e-05 2.9541e-05 2.89201e-05 2.84276e-05 2.81283e-05 2.80819e-05 
2.83358e-05 2.89142e-05 2.98268e-05 3.10635e-05 3.26017e-05 3.44098e-05 3.64552e-05 3.87103e-05 4.11379e-05 
4.37266e-05 4.64595e-05 4.93321e-05 5.23448e-05 5.55092e-05 5.88364e-05 0.00137289 0.00128754 0.0012048 
0.00112532 0.00104939 0.000976652 0.000905996 0.000835836 0.000764873 0.000692299 0.000617663 0.000540603 
0.000460566 0.000376779 0.000290703 0.000204801 0.000119127 3.34764e-05 1.73602e-05 1.75155e-05 1.75948e-05 
1.76253e-05 1.76463e-05 1.77103e-05 1.78811e-05 1.82268e-05 1.88202e-05 1.97197e-05 2.09387e-05 2.24439e-05 
2.41203e-05 2.58372e-05 2.74737e-05 2.89482e-05 3.02042e-05 3.11939e-05 3.18732e-05 3.22181e-05 3.22459e-05 
3.20055e-05 3.15572e-05 3.09795e-05 3.03561e-05 2.97733e-05 2.93116e-05 2.90381e-05 2.90125e-05 2.92766e-05 
2.98542e-05 3.07521e-05 3.19619e-05 3.34651e-05 3.52363e-05 3.72483e-05 3.94791e-05 4.18933e-05 4.44839e-05 
4.72308e-05 5.01271e-05 5.31678e-05 5.63562e-05 5.96926e-05 0.000966962 0.000878362 0.000793595 0.000713825 
0.000639901 0.000571723 0.000506835 0.000441523 0.000373807 0.000303235 0.000229772 0.000153332 7.33784e-05 
3.25144e-05 2.71366e-05 2.55625e-05 2.47973e-05 2.429e-05 2.38646e-05 2.34671e-05 2.30892e-05 2.27449e-05 
2.24611e-05 2.22742e-05 2.22293e-05 2.23691e-05 2.27338e-05 2.33481e-05 2.42099e-05 2.52861e-05 2.65028e-05 
2.77882e-05 2.90664e-05 3.02659e-05 3.13202e-05 3.21707e-05 3.27652e-05 3.30681e-05 3.30992e-05 3.2883e-05 
3.24745e-05 3.19438e-05 3.13711e-05 3.0835e-05 3.0412e-05 3.01657e-05 3.01516e-05 3.0409e-05 3.09596e-05 
3.18117e-05 3.29604e-05 3.43916e-05 3.60852e-05 3.80184e-05 4.01701e-05 4.25201e-05 4.50481e-05 4.77384e-05 
5.05821e-05 5.35694e-05 5.66979e-05 5.99595e-05 0.000551662 0.000458278 0.000370345 0.00028944 0.000217911 
0.000159687 0.000107509 4.87698e-05 9.07795e-06 2.05815e-05 2.85161e-05 3.32722e-05 3.49488e-05 3.38207e-05 
3.17426e-05 3.02414e-05 2.91979e-05 2.83763e-05 2.76682e-05 2.70352e-05 2.64728e-05 2.59918e-05 2.5613e-05 
2.53613e-05 2.52672e-05 2.53533e-05 2.5639e-05 2.61357e-05 2.68295e-05 2.76944e-05 2.86737e-05 2.97168e-05 
3.07639e-05 3.1753e-05 3.26223e-05 3.33195e-05 3.37941e-05 3.40272e-05 3.40245e-05 3.38076e-05 3.34251e-05 
3.29375e-05 3.2416e-05 3.19309e-05 3.15512e-05 3.1335e-05 3.13304e-05 3.15745e-05 3.20886e-05 3.28827e-05 
3.39543e-05 3.52935e-05 3.6885e-05 3.87098e-05 4.07501e-05 4.29887e-05 4.54055e-05 4.79843e-05 5.07155e-05 
5.35858e-05 5.65881e-05 5.97116e-05 0.000125251 2.50418e-05 -6.76559e-05 -0.000146051 -0.000113874 -7.05384e-05 
-3.44035e-05 -1.09501e-05 5.41461e-06 1.70498e-05 2.50853e-05 3.01501e-05 3.26908e-05 3.32721e-05 3.27658e-05 
3.19367e-05 3.1097e-05 3.03105e-05 2.95882e-05 2.89387e-05 2.83751e-05 2.79142e-05 2.75739e-05 2.73734e-05 
2.7333e-05 2.74592e-05 2.77641e-05 2.82416e-05 2.88775e-05 2.96475e-05 3.05017e-05 3.13993e-05 3.22895e-05 
3.312e-05 3.38378e-05 3.44012e-05 3.47696e-05 3.4931e-05 3.48929e-05 3.46744e-05 3.43167e-05 3.38742e-05 
3.34067e-05 3.2976e-05 3.26433e-05 3.24577e-05 3.24637e-05 3.26939e-05 3.31704e-05 3.39017e-05 3.4889e-05 
3.61251e-05 3.75985e-05 3.9294e-05 4.11967e-05 4.32913e-05 4.5559e-05 4.79842e-05 5.05559e-05 5.32596e-05 
5.60863e-05 5.90223e-05 -0.000122662 -0.000121571 -0.000112034 -9.57777e-05 -7.39604e-05 -4.9324e-05 -2.65456e-05 
-8.2512e-06 5.65512e-06 1.59349e-05 2.32383e-05 2.80716e-05 3.08773e-05 3.21328e-05 3.23703e-05 3.20675e-05 
3.15312e-05 3.09194e-05 3.03139e-05 2.97617e-05 2.92952e-05 2.89371e-05 2.87059e-05 2.86165e-05 2.86803e-05 