# vtk DataFile Version 4.0
vtk output
ASCII
DATASET STRUCTURED_POINTS
DIMENSIONS 42 42 42
SPACING 0.05 0.05 0.05
ORIGIN -1.025 -1.025 -1.025
POINT_DATA 74088
FIELD FieldData 3
potential 1 74088 double
0.0097048 0.00997364 0.0102579 0.0105417 0.0107997 0.010997 0.0110997 0.0110907 0.0109804 
0.0108041 0.0106008 0.0103939 0.0101917 0.0099974 0.00981602 0.00965121 0.00950377 0.00937324 
0.00925993 0.00916668 0.00909875 0.00906173 0.00905752 0.00907983 0.00911576 0.0091517 0.00917747 
0.00918801 0.00918234 0.00916367 0.00914125 0.00913013 0.00914703 0.00920277 0.00929693 0.00942348 
0.00957654 0.00975257 0.00995084 0.010171 0.0104086 0.0106451 0.0125398 0.0127791 0.0130336 
0.0132889 0.0135272 0.0137239 0.013854 0.0138997 0.0138597 0.013749 0.0135913 0.0134068 
0.0132095 0.0130087 0.0128115 0.0126242 0.0124498 0.0122913 0.0121518 0.012036 0.0119496 
0.0118979 0.0118811 0.0118934 0.0119226 0.0119553 0.0119811 0.0119938 0.0119925 0.0119812 
0.0119704 0.011975 0.0120097 0.0120836 0.0121965 0.0123431 0.0125165 0.0127104 0.0129197 
0.0131379 0.0133525 0.0135415 0.0156423 0.0158521 0.0160785 0.0163091 0.0165294 0.0167213 
0.016865 0.0169436 0.0169505 0.0168896 0.0167725 0.0166155 0.0164324 0.0162354 0.0160346 
0.0158375 0.0156505 0.0154785 0.0153266 0.0152 0.0151037 0.0150414 0.015013 0.0150128 
0.0150309 0.0150559 0.0150782 0.0150921 0.0150963 0.0150954 0.0150991 0.0151201 0.0151705 
0.0152574 0.0153817 0.0155387 0.0157212 0.0159209 0.016129 0.016334 0.0165195 0.0166649 
0.0189873 0.0191692 0.0193684 0.0195752 0.0197771 0.0199595 0.0201063 0.0202027 0.020239 
0.0202131 0.0201299 0.0200001 0.0198363 0.0196511 0.019456 0.0192606 0.0190726 0.0188987 
0.0187448 0.0186158 0.0185158 0.0184472 0.0184091 0.018397 0.0184032 0.0184188 0.0184359 
0.0184495 0.018459 0.0184682 0.0184854 0.0185204 0.0185827 0.018678 0.0188071 0.0189661 
0.0191479 0.0193429 0.0195401 0.019725 0.019881 0.0199904 0.0225358 0.0226929 0.0228668 
0.0230498 0.023232 0.0234012 0.0235438 0.0236463 0.0236989 0.0236961 0.0236389 0.0235341 
0.023392 0.023224 0.0230422 0.0228567 0.0226764 0.022509 0.0223599 0.0222342 0.0221346 
0.0220629 0.0220178 0.0219961 0.0219919 0.0219985 0.0220102 0.0220229 0.0220363 0.0220538 
0.0220813 0.0221268 0.0221968 0.0222959 0.0224243 0.0225787 0.022752 0.0229349 0.0231144 
0.0232762 0.0234047 0.0234856 0.0262396 0.0263748 0.0265256 0.0266862 0.0268481 0.0270013 
0.027134 0.0272348 0.0272938 0.0273048 0.0272667 0.0271836 0.027063 0.0269152 0.0267514 
0.0265819 0.0264154 0.0262595 0.0261197 0.0260004 0.0259043 0.025832 0.0257829 0.0257542 
0.0257421 0.0257416 0.0257484 0.0257599 0.0257761 0.0257992 0.025834 0.0258858 0.0259596 
0.0260583 0.0261817 0.0263265 0.0264863 0.0266514 0.0268099 0.0269478 0.0270524 0.0271119 
0.0300442 0.0301608 0.0302914 0.0304308 0.0305724 0.0307082 0.0308278 0.0309215 0.0309805 
0.0309987 0.030974 0.0309084 0.030808 0.0306814 0.0305378 0.0303872 0.0302377 0.0300964 
0.0299684 0.0298578 0.0297667 0.0296963 0.0296457 0.0296129 0.0295954 0.0295898 0.0295929 
0.0296034 0.029621 0.0296477 0.0296865 0.0297415 0.0298155 0.0299104 0.0300255 0.0301579 
0.0303007 0.0304456 0.0305816 0.0306972 0.0307812 0.0308248 0.0338944 0.0339952 0.0341078 
0.0342283 0.0343508 0.0344687 0.0345735 0.0346574 0.0347124 0.0347334 0.0347176 0.0346661 
0.0345837 0.0344771 0.0343542 0.0342232 0.0340917 0.0339663 0.0338513 0.0337506 0.0336661 
0.033599 0.0335488 0.0335143 0.0334936 0.0334848 0.0334856 0.0334951 0.0335134 0.0335417 
0.0335823 0.0336373 0.0337089 0.0337977 0.0339027 0.0340204 0.0341452 0.0342696 0.0343841 
0.0344792 0.034546 0.034578 0.0377373 0.0378246 0.0379216 0.038025 0.03813 0.038231 
0.0383213 0.038394 0.0384429 0.0384635 0.0384535 0.0384135 0.0383464 0.0382577 0.0381541 
0.038042 0.0379284 0.0378184 0.0377168 0.0376264 0.0375493 0.0374867 0.0374386 0.0374041 
0.0373822 0.0373714 0.037371 0.0373798 0.0373981 0.0374267 0.0374668 0.0375201 0.0375873 
0.0376686 0.0377622 0.0378651 0.0379724 0.0380772 0.0381722 0.0382497 0.0383025 0.038326 
0.0415249 0.0416006 0.0416843 0.0417725 0.0418618 0.0419475 0.042024 0.0420858 0.0421281 
0.0421471 0.0421408 0.0421093 0.0420549 0.0419818 0.0418952 0.0418006 0.0417035 0.0416082 
0.0415192 0.0414389 0.0413695 0.041312 0.0412669 0.0412338 0.041212 0.0412008 0.0411996 
0.0412079 0.0412257 0.0412535 0.041292 0.0413421 0.041404 0.0414769 0.0415593 0.0416479 
0.0417388 0.0418263 0.0419043 0.0419666 0.0420082 0.0420253 0.0452154 0.045281 0.0453528 
0.0454283 0.045504 0.0455761 0.0456404 0.0456924 0.0457283 0.045745 0.0457407 0.0457158 
0.0456718 0.0456116 0.0455397 0.0454601 0.0453775 0.0452958 0.0452182 0.0451476 0.0450856 
0.0450337 0.0449922 0.0449612 0.0449403 0.0449293 0.0449279 0.0449357 0.0449527 0.0449793 
0.0450155 0.0450618 0.0451177 0.0451823 0.0452539 0.0453298 0.0454062 0.0454785 0.0455423 
0.0455925 0.045625 0.0456373 0.0487719 0.0488291 0.0488908 0.0489552 0.0490193 0.0490802 
0.0491341 0.0491777 0.0492077 0.0492219 0.0492189 0.0491988 0.049163 0.0491137 0.0490537 
0.0489868 0.0489168 0.0488468 0.0487794 0.0487175 0.0486627 0.048616 0.0485783 0.0485497 
0.0485303 0.04852 0.0485187 0.0485261 0.0485421 0.048567 0.0486008 0.0486428 0.0486929 
0.0487498 0.0488117 0.0488763 0.0489402 0.0490004 0.0490524 0.0490926 0.0491181 0.0491269 
0.0521628 0.0522127 0.0522661 0.0523212 0.0523759 0.0524273 0.0524725 0.0525089 0.0525341 
0.0525461 0.0525439 0.0525274 0.052498 0.0524569 0.0524067 0.0523505 0.0522907 0.0522306 
0.0521722 0.0521179 0.0520696 0.0520279 0.0519938 0.0519678 0.05195 0.0519407 0.0519396 
0.0519466 0.0519619 0.0519853 0.0520161 0.0520543 0.0520989 0.0521488 0.0522025 0.0522576 
0.0523116 0.0523614 0.052404 0.0524363 0.0524563 0.0524625 0.0553597 0.0554037 0.0554503 
0.055498 0.055545 0.0555886 0.0556267 0.0556575 0.0556787 0.0556887 0.0556869 0.0556732 
0.0556485 0.0556138 0.0555716 0.0555236 0.0554724 0.0554201 0.0553694 0.0553216 0.0552787 
0.0552415 0.0552107 0.0551872 0.0551713 0.0551629 0.0551622 0.0551691 0.0551834 0.0552052 
0.0552335 0.0552683 0.0553083 0.0553525 0.0553992 0.0554465 0.0554925 0.0555342 0.0555694 
0.0555957 0.0556114 0.0556156 0.058337 0.0583762 0.0584174 0.0584593 0.0585001 0.0585376 
0.0585704 0.0585965 0.0586145 0.0586229 0.0586214 0.0586098 0.0585885 0.0585588 0.0585223 
0.0584808 0.0584363 0.0583906 0.0583457 0.0583034 0.0582649 0.0582313 0.0582037 0.0581824 
0.0581681 0.0581607 0.0581605 0.0581673 0.0581813 0.0582016 0.058228 0.0582597 0.058296 
0.0583356 0.0583769 0.0584182 0.0584578 0.0584932 0.0585229 0.0585445 0.0585573 0.0585598 
0.0610703 0.0611059 0.061143 0.0611805 0.0612165 0.0612498 0.0612784 0.0613011 0.0613165 
0.0613237 0.0613223 0.061312 0.0612931 0.0612671 0.0612347 0.0611979 0.0611584 0.0611178 
0.0610774 0.0610392 0.0610042 0.0609737 0.0609483 0.0609292 0.0609162 0.0609098 0.0609101 
0.0609171 0.0609305 0.0609501 0.060975 0.0610048 0.0610381 0.0610742 0.0611115 0.0611485 
0.0611833 0.0612144 0.0612398 0.0612583 0.0612686 0.0612699 0.0635361 0.063569 0.0636033 
0.0636377 0.0636705 0.0637007 0.0637264 0.0637467 0.0637602 0.0637665 0.063765 0.0637553 
0.0637383 0.0637144 0.063685 0.0636516 0.0636154 0.0635782 0.0635413 0.0635058 0.0634734 
0.0634451 0.0634215 0.0634036 0.0633921 0.0633865 0.0633875 0.0633949 0.0634082 0.0634275 
0.0634515 0.0634799 0.0635116 0.0635454 0.0635801 0.063614 0.0636458 0.0636738 0.0636964 
0.0637127 0.0637212 0.0637218 0.0657109 0.0657425 0.0657752 0.0658076 0.0658385 0.0658666 
0.0658907 0.0659094 0.0659219 0.0659274 0.0659255 0.0659164 0.0659 0.0658776 0.06585 
0.0658184 0.0657842 0.065749 0.0657138 0.06568 0.0656492 0.0656222 0.0655999 0.0655831 
0.0655725 0.0655679 0.0655695 0.0655773 0.065591 0.0656102 0.0656343 0.0656623 0.0656932 
0.0657261 0.0657595 0.0657921 0.0658222 0.0658485 0.0658694 0.065884 0.0658917 0.0658917 
0.0675715 0.0676028 0.0676348 0.0676668 0.0676968 0.0677243 0.0677478 0.0677657 0.0677776 
0.0677826 0.0677805 0.0677711 0.0677551 0.067733 0.0677058 0.0676747 0.0676412 0.0676062 
0.0675718 0.0675387 0.0675084 0.0674819 0.0674604 0.067444 0.0674337 0.0674299 0.0674324 
0.067441 0.0674554 0.0674754 0.0675002 0.0675288 0.0675604 0.0675935 0.0676269 0.0676593 
0.0676891 0.067715 0.0677352 0.0677493 0.0677563 0.067756 0.0690942 0.0691262 0.069159 
0.0691916 0.0692224 0.0692501 0.0692737 0.069292 0.0693036 0.0693083 0.0693057 0.0692961 
0.0692794 0.0692566 0.0692287 0.0691969 0.0691624 0.0691268 0.0690915 0.069058 0.0690271 
0.0690005 0.0689787 0.0689625 0.0689525 0.0689492 0.0689526 0.0689621 0.0689779 0.0689994 
0.0690256 0.0690559 0.0690891 0.0691239 0.0691589 0.0691925 0.0692234 0.0692498 0.0692707 
0.0692849 0.0692919 0.0692909 0.0702553 0.070289 0.0703239 0.0703583 0.0703908 0.0704199 
0.0704448 0.070464 0.0704763 0.0704809 0.0704779 0.0704672 0.0704493 0.0704249 0.0703951 
0.0703611 0.0703244 0.0702865 0.0702493 0.0702139 0.0701816 0.0701536 0.0701312 0.0701146 
0.0701046 0.0701016 0.0701058 0.0701169 0.0701345 0.070158 0.0701868 0.0702199 0.070256 
0.0702938 0.0703317 0.070368 0.0704013 0.0704297 0.0704522 0.0704675 0.0704747 0.0704736 
0.0710305 0.0710672 0.0711052 0.0711426 0.0711782 0.0712102 0.0712374 0.0712583 0.0712716 
0.0712766 0.0712731 0.0712612 0.0712412 0.0712139 0.0711809 0.0711434 0.0711029 0.0710615 
0.0710207 0.0709821 0.0709473 0.0709173 0.0708931 0.0708757 0.0708656 0.0708631 0.0708681 
0.0708807 0.0709007 0.0709271 0.0709594 0.0709964 0.0710368 0.0710791 0.0711215 0.0711623 
0.0711992 0.0712311 0.0712563 0.0712734 0.0712815 0.0712803 0.0713961 0.0714368 0.0714792 
0.071521 0.0715611 0.0715975 0.0716282 0.0716516 0.0716667 0.0716723 0.0716682 0.0716544 
0.0716313 0.0716003 0.0715624 0.0715197 0.071474 0.0714274 0.0713815 0.0713387 0.0713 
0.0712671 0.0712405 0.0712217 0.0712111 0.0712087 0.0712149 0.0712296 0.0712524 0.0712826 
0.0713194 0.0713616 0.0714076 0.071456 0.0715046 0.0715512 0.071594 0.0716308 0.0716598 
0.0716796 0.0716889 0.0716877 0.0713284 0.0713745 0.0714226 0.0714705 0.0715166 0.0715585 
0.0715941 0.0716212 0.0716388 0.0716455 0.0716404 0.0716241 0.071597 0.0715606 0.0715164 
0.0714668 0.0714142 0.0713606 0.0713084 0.0712597 0.0712162 0.0711791 0.0711497 0.071129 
0.0711171 0.0711149 0.0711224 0.0711395 0.0711656 0.0712005 0.0712429 0.0712916 0.0713451 
0.0714012 0.0714577 0.0715124 0.0715627 0.0716059 0.0716402 0.0716638 0.0716751 0.071674 
0.0708053 0.0708582 0.0709134 0.0709688 0.0710226 0.0710717 0.0711138 0.0711461 0.071167 
0.0711748 0.0711688 0.0711493 0.0711171 0.0710736 0.0710213 0.0709629 0.0709011 0.0708388 
0.0707785 0.0707226 0.0706728 0.0706307 0.0705976 0.0705744 0.0705615 0.0705591 0.070568 
0.0705878 0.0706179 0.0706581 0.0707074 0.070764 0.0708264 0.0708923 0.0709589 0.0710237 
0.0710835 0.0711354 0.0711765 0.071205 0.0712191 0.0712181 0.0698066 0.0698673 0.0699312 
0.0699961 0.0700594 0.0701178 0.0701679 0.070207 0.0702323 0.0702417 0.0702346 0.0702107 
0.0701719 0.0701196 0.0700571 0.0699876 0.0699145 0.0698413 0.0697711 0.0697063 0.0696491 
0.0696012 0.0695637 0.0695375 0.069523 0.0695207 0.069531 0.0695535 0.0695884 0.0696347 
0.0696916 0.0697578 0.0698312 0.0699088 0.0699882 0.0700656 0.0701374 0.0702001 0.0702502 
0.0702848 0.0703025 0.0703015 0.0683152 0.0683849 0.0684592 0.0685356 0.0686105 0.0686803 
0.0687407 0.0687882 0.0688189 0.0688306 0.0688219 0.0687931 0.0687458 0.0686823 0.0686069 
0.0685238 0.0684371 0.0683508 0.0682688 0.0681937 0.068128 0.0680733 0.0680309 0.0680011 
0.0679848 0.0679823 0.067994 0.0680198 0.0680596 0.0681128 0.0681787 0.0682559 0.0683416 
0.0684336 0.0685283 0.0686212 0.0687082 0.0687843 0.0688456 0.0688884 0.0689101 0.0689096 
0.0663189 0.0663989 0.0664854 0.0665751 0.0666643 0.0667479 0.0668213 0.066879 0.0669168 
0.0669314 0.0669207 0.0668853 0.0668274 0.0667503 0.0666593 0.0665593 0.0664561 0.0663547 
0.0662589 0.0661722 0.0660969 0.0660347 0.0659867 0.0659531 0.0659349 0.065932 0.0659449 
0.0659739 0.066019 0.0660797 0.0661555 0.0662449 0.0663454 0.0664543 0.066567 0.0666787 
0.0667838 0.0668767 0.066952 0.0670048 0.0670322 0.0670321 0.0638128 0.0639042 0.0640043 
0.0641095 0.0642153 0.0643159 0.0644049 0.0644756 0.064522 0.0645399 0.0645271 0.0644837 
0.0644126 0.0643187 0.0642085 0.0640888 0.0639662 0.063847 0.0637357 0.0636361 0.0635505 
0.0634804 0.0634265 0.0633892 0.0633686 0.0633649 0.063379 0.0634111 0.0634613 0.06353 
0.0636166 0.0637194 0.0638368 0.0639649 0.0640988 0.0642327 0.0643598 0.0644731 0.0645655 
0.064631 0.0646653 0.0646661 0.0608015 0.0609051 0.0610202 0.0611429 0.0612683 0.0613891 
0.0614967 0.061583 0.0616399 0.0616622 0.0616463 0.0615928 0.0615056 0.0613915 0.0612583 
0.0611152 0.0609703 0.0608311 0.0607029 0.0605897 0.0604934 0.0604154 0.0603558 0.0603146 
0.0602917 0.0602871 0.0603017 0.0603362 0.0603914 0.0604678 0.0605654 0.0606831 0.0608188 
0.0609688 0.0611272 0.0612871 0.0614404 0.0615781 0.0616913 0.0617724 0.0618154 0.0618178 
0.0573025 0.0574184 0.0575494 0.0576918 0.0578395 0.0579836 0.0581137 0.0582186 0.0582882 
0.0583149 0.0582951 0.0582293 0.0581227 0.0579842 0.0578241 0.0576538 0.0574841 0.0573231 
0.0571771 0.0570501 0.0569436 0.0568583 0.0567936 0.0567488 0.0567233 0.0567174 0.0567315 
0.0567676 0.0568269 0.0569103 0.057019 0.0571521 0.0573077 0.0574817 0.0576676 0.0578575 
0.0580412 0.0582078 0.058346 0.0584462 0.0585003 0.0585048 0.0533496 0.053477 0.0536244 
0.0537883 0.053961 0.0541318 0.0542878 0.0544141 0.0544984 0.0545304 0.0545052 0.0544243 
0.0542944 0.054127 0.0539361 0.0537359 0.0535388 0.0533551 0.0531912 0.0530511 0.0529357 
0.0528445 0.0527757 0.052728 0.0526999 0.0526919 0.0527043 0.0527404 0.0528021 0.0528915 
0.0530105 0.053159 0.0533354 0.053535 0.0537514 0.0539746 0.054193 0.0543929 0.0545608 
0.0546836 0.0547517 0.0547599 0.0489954 0.0491327 0.0492968 0.0494831 0.0496831 0.0498839 
0.0500689 0.0502199 0.0503201 0.0503568 0.0503244 0.050225 0.0500677 0.0498677 0.0496427 
0.0494099 0.0491845 0.0489781 0.0487976 0.0486463 0.0485243 0.0484297 0.0483588 0.048309 
0.0482785 0.0482671 0.0482763 0.0483099 0.0483715 0.048465 0.0485928 0.048756 0.0489531 
0.0491797 0.0494282 0.0496875 0.049944 0.0501812 0.0503827 0.0505322 0.0506176 0.0506323 
0.0443143 0.0444595 0.0446389 0.0448483 0.0450775 0.0453109 0.0455276 0.0457047 0.0458212 
0.0458612 0.0458186 0.045697 0.0455087 0.0452731 0.0450117 0.0447458 0.0444925 0.0442651 
0.0440707 0.0439118 0.0437871 0.0436923 0.0436219 0.0435716 0.0435384 0.0435224 0.043526 
0.043554 0.0436125 0.0437071 0.0438413 0.0440176 0.0442346 0.044488 0.044769 0.0450656 
0.0453618 0.0456388 0.0458772 0.0460572 0.046164 0.0461887 0.0394021 0.0395518 0.0397446 
0.039977 0.040237 0.0405048 0.0407546 0.0409578 0.0410883 0.0411281 0.0410711 0.0409234 
0.0407013 0.0404286 0.0401314 0.0398339 0.0395556 0.0393108 0.0391068 0.0389454 0.0388231 
0.0387329 0.0386668 0.038618 0.038582 0.0385596 0.0385543 0.0385731 0.0386245 0.0387162 
0.0388539 0.0390407 0.0392757 0.039554 0.0398661 0.0401984 0.0405334 0.0408503 0.0411267 
0.0413405 0.0414733 0.0415134 0.0343716 0.0345216 0.0347259 0.0349808 0.0352723 0.0355757 
0.0358583 0.0360847 0.0362242 0.0362574 0.0361797 0.0360013 0.0357443 0.0354363 0.0351068 
0.0347825 0.0344847 0.0342284 0.0340212 0.0338637 0.0337503 0.0336706 0.0336131 0.033568 
0.0335298 0.0334991 0.0334813 0.0334865 0.0335258 0.0336104 0.0337475 0.0339415 0.0341913 
0.0344907 0.0348294 0.0351925 0.0355616 0.0359148 0.036228 0.0364768 0.0366399 0.0367025 
0.0293456 0.029492 0.029705 0.0299821 0.0303063 0.0306459 0.030959 0.0312024 0.031341 
0.0313569 0.0312497 0.0310366 0.0307453 0.0304076 0.0300539 0.0297115 0.0294025 0.0291427 
0.0289398 0.0287942 0.0286971 0.0286347 0.0285907 0.0285524 0.0285125 0.0284718 0.0284382 
0.0284249 0.0284472 0.0285197 0.0286522 0.0288489 0.0291083 0.0294226 0.0297799 0.0301647 
0.0305586 0.0309399 0.0312843 0.0315672 0.0317647 0.031859 0.0244471 0.024586 0.0248058 
0.0251061 0.0254652 0.0258412 0.0261801 0.0264295 0.026552 0.0265347 0.026387 0.0261357 
0.0258144 0.0254562 0.025091 0.0247432 0.0244344 0.0241804 0.0239909 0.0238651 0.0237924 
0.0237539 0.0237286 0.0237 0.0236598 0.0236087 0.0235569 0.0235216 0.0235222 0.0235778 
0.0237005 0.0238945 0.0241561 0.0244751 0.0248385 0.0252308 0.0256349 0.0260314 0.0263978 
0.0267106 0.0269459 0.0270824 0.0197892 0.0199187 0.0201452 0.0204716 0.02087 0.0212831 
0.0216399 0.0218779 0.0219621 0.0218906 0.0216897 0.0213985 0.0210554 0.0206919 0.0203318 
0.0199952 0.0197 0.019463 0.0192954 0.0191976 0.0191562 0.0191466 0.0191436 0.0191275 
0.019089 0.0190294 0.0189603 0.0189016 0.0188778 0.0189122 0.0190199 0.0192031 0.0194555 
0.0197642 0.0201158 0.020496 0.0208913 0.0212859 0.0216611 0.0219965 0.0222701 0.0224593 
0.0154697 0.0155923 0.0158284 0.0161873 0.0166321 0.0170822 0.0174433 0.0176452 0.0176614 
0.0175111 0.0172449 0.0169169 0.0165659 0.0162159 0.0158814 0.0155748 0.0153094 0.0151013 
0.0149643 0.0149005 0.014894 0.0149145 0.0149333 0.0149303 0.0148966 0.0148333 0.0147523 
0.0146743 0.014627 0.014638 0.0147238 0.0148847 0.0151109 0.015388 0.0157037 0.0160479 
0.0164121 0.0167852 0.0171531 0.0174995 0.0178078 0.0180586 0.0115697 0.0116954 0.0119502 
0.0123522 0.0128521 0.0133334 0.0136763 0.0138084 0.0137217 0.0134686 0.0131327 0.0127792 
0.01244 0.0121253 0.0118375 0.0115804 0.0113621 0.0111962 0.0110975 0.0110694 0.011094 
0.0111377 0.0111718 0.011179 0.011152 0.0110924 0.0110102 0.010924 0.0108614 0.0108505 
0.0109074 0.0110301 0.0112068 0.0114254 0.0116771 0.0119577 0.0122655 0.0125963 0.0129388 
0.0132794 0.0136108 0.0139256 0.0081527 0.00830437 0.00859798 0.00905976 0.0096176 0.0101085 
0.0103955 0.0104185 0.0101974 0.00982971 0.00943558 0.00908012 0.00877593 0.00851607 0.00829176 
0.00809963 0.00794301 0.00783196 0.00777767 0.00778033 0.00781974 0.00786773 0.00790258 0.0079121 
0.00789111 0.007841 0.00777014 0.00769308 0.00763123 0.00760709 0.00763204 0.00770277 0.00780925 
0.00794363 0.00810352 0.00829148 0.00851495 0.00877934 0.00907529 0.00938569 0.00971482 0.0100827 
0.00813933 0.00847816 0.0088343 0.00920221 0.00956485 0.00987343 0.0100609 0.0100818 0.00993889 
0.00968609 0.00939819 0.00911616 0.00884398 0.00858175 0.00833815 0.00811903 0.0079227 0.00774625 
0.0075889 0.00745531 0.00735672 0.00730951 0.00732448 0.00738848 0.00747045 0.0075427 0.00758876 
0.00760132 0.00757897 0.00752566 0.00745498 0.00739683 0.00739154 0.00746011 0.00759082 0.00776311 
0.0079644 0.00819126 0.00844724 0.00874067 0.00907501 0.00942872 0.0111687 0.011472 0.0117957 
0.0121286 0.0124555 0.0127456 0.0129565 0.0130501 0.013015 0.0128702 0.0126547 0.0124043 
0.0121388 0.0118699 0.0116072 0.0113579 0.011125 0.0109105 0.0107184 0.0105562 0.0104361 
0.0103707 0.010365 0.0104082 0.0104758 0.0105425 0.0105896 0.010607 0.010593 0.0105541 
0.0105072 0.0104806 0.0105046 0.0105949 0.0107469 0.0109456 0.0111778 0.0114355 0.011715 
0.0120123 0.0123132 0.0125837 0.0145349 0.0147968 0.0150837 0.0153838 0.0156817 0.0159552 
0.0161744 0.0163088 0.0163411 0.0162723 0.0161204 0.0159102 0.0156647 0.0154012 0.0151337 
0.0148719 0.0146234 0.0143938 0.01419 0.0140203 0.0138938 0.0138179 0.0137941 0.0138135 
0.013859 0.0139105 0.0139507 0.0139697 0.0139654 0.013945 0.0139249 0.0139282 0.0139767 
0.0140826 0.0142453 0.0144552 0.0147002 0.0149692 0.0152511 0.0155317 0.0157879 0.0159866 
0.018205 0.018427 0.0186762 0.0189422 0.0192113 0.0194655 0.0196817 0.019835 0.0199064 
0.0198882 0.0197863 0.0196166 0.0193987 0.0191518 0.0188925 0.0186341 0.0183866 0.0181588 
0.017958 0.0177915 0.0176655 0.0175837 0.0175455 0.0175442 0.0175677 0.0176011 0.0176312 
0.0176491 0.0176534 0.0176505 0.0176539 0.017681 0.0177478 0.0178637 0.0180295 0.0182392 
0.0184823 0.0187458 0.0190133 0.0192653 0.0194767 0.0196191 0.0221274 0.0223148 0.0225289 
0.0227612 0.0230003 0.0232315 0.0234355 0.0235916 0.0236816 0.0236944 0.0236295 0.0234958 
0.023309 0.0230869 0.022847 0.022604 0.02237 0.0221543 0.0219646 0.0218068 0.0216849 
0.0216004 0.0215521 0.021535 0.0215403 0.0215577 0.0215775 0.0215932 0.021604 0.0216148 
0.021636 0.0216802 0.0217589 0.0218792 0.0220419 0.022243 0.022473 0.022718 0.0229603 
0.0231784 0.023349 0.0234501 0.0262387 0.0263976 0.0265807 0.0267812 0.0269904 0.0271956 
0.0273809 0.0275289 0.0276234 0.0276527 0.027613 0.0275096 0.0273537 0.0271609 0.0269474 
0.0267282 0.0265154 0.0263182 0.0261438 0.0259972 0.0258815 0.0257973 0.0257429 0.0257147 
0.0257067 0.0257118 0.0257231 0.0257366 0.0257517 0.0257721 0.0258056 0.0258605 0.0259453 
0.0260647 0.0262193 0.0264057 0.0266149 0.0268338 0.0270447 0.0272281 0.0273638 0.0274353 
0.0304693 0.0306049 0.0307613 0.0309333 0.0311133 0.0312914 0.0314543 0.0315877 0.0316773 
0.0317132 0.0316903 0.0316109 0.0314837 0.0313212 0.0311375 0.0309456 0.0307573 0.0305816 
0.0304248 0.0302911 0.0301831 0.0301013 0.0300444 0.0300096 0.0299929 0.0299896 0.0299949 
0.0300065 0.0300242 0.0300509 0.0300915 0.0301519 0.0302379 0.0303522 0.0304951 0.0306627 
0.0308468 0.0310358 0.0312141 0.0313647 0.0314715 0.0315221 0.0347491 0.0348655 0.0349992 
0.0351457 0.0352991 0.0354507 0.0355903 0.035706 0.0357862 0.0358223 0.0358096 0.035749 
0.0356468 0.0355127 0.0353583 0.0351945 0.0350316 0.0348781 0.0347393 0.0346192 0.0345201 
0.0344426 0.0343858 0.0343478 0.0343262 0.0343176 0.0343193 0.0343296 0.0343488 0.0343786 
0.0344226 0.0344846 0.0345679 0.0346743 0.0348027 0.0349497 0.035108 0.0352671 0.0354143 
0.0355357 0.035619 0.035655 0.0390138 0.0391141 0.0392283 0.0393526 0.039482 0.0396096 
0.0397268 0.0398245 0.0398932 0.0399262 0.0399195 0.0398735 0.0397921 0.0396829 0.0395551 
0.0394178 0.0392795 0.0391468 0.0390257 0.0389193 0.0388296 0.0387577 0.0387031 0.0386647 
0.0386408 0.0386295 0.0386291 0.0386387 0.0386582 0.0386893 0.0387338 0.0387944 0.0388726 
0.0389689 0.0390823 0.0392087 0.0393421 0.0394737 0.0395931 0.03969 0.0397544 0.03978 
0.0432078 0.0432945 0.0433919 0.043497 0.0436057 0.043712 0.0438093 0.0438901 0.0439476 
0.0439762 0.0439729 0.0439375 0.043873 0.043785 0.0436801 0.0435662 0.0434498 0.0433369 
0.0432321 0.0431386 0.0430585 0.042993 0.0429418 0.0429048 0.0428807 0.0428683 0.042867 
0.042876 0.0428955 0.0429263 0.0429694 0.0430266 0.0430981 0.0431838 0.0432821 0.0433895 
0.0435003 0.0436079 0.0437041 0.0437805 0.04383 0.0438482 0.0472853 0.0473601 0.0474434 
0.0475321 0.047623 0.0477111 0.0477912 0.0478577 0.047905 0.0479291 0.0479275 0.0478999 
0.0478488 0.0477779 0.0476925 0.0475983 0.0475009 0.0474053 0.0473153 0.0472338 0.047163 
0.047104 0.0470572 0.0470224 0.0469992 0.0469869 0.0469854 0.046994 0.0470127 0.0470421 
0.047083 0.0471356 0.0471999 0.0472753 0.0473597 0.04745 0.0475416 0.0476289 0.047706 
0.047766 0.0478042 0.0478169 0.0512079 0.0512728 0.0513439 0.0514191 0.0514952 0.0515684 
0.0516344 0.0516887 0.0517275 0.0517473 0.0517465 0.0517248 0.0516838 0.0516267 0.0515569 
0.051479 0.0513977 0.0513167 0.0512395 0.0511688 0.0511067 0.051054 0.0510116 0.0509797 
0.0509581 0.0509468 0.0509452 0.0509533 0.0509711 0.0509989 0.0510368 0.0510844 0.0511417 
0.0512073 0.0512795 0.0513552 0.0514308 0.0515019 0.0515633 0.0516107 0.05164 0.0516489 
0.054944 0.0550004 0.0550616 0.0551256 0.0551897 0.0552506 0.0553051 0.0553497 0.0553815 
0.0553979 0.0553973 0.0553799 0.0553468 0.0552999 0.0552426 0.055178 0.0551098 0.055041 
0.0549748 0.0549135 0.0548589 0.0548122 0.0547741 0.0547452 0.0547256 0.0547152 0.054714 
0.0547218 0.0547387 0.0547647 0.0547993 0.0548424 0.054893 0.05495 0.0550118 0.0550754 
0.0551382 0.0551961 0.0552456 0.0552829 0.0553055 0.0553115 0.0584658 0.0585154 0.0585686 
0.0586234 0.0586779 0.0587291 0.0587743 0.0588114 0.0588376 0.058851 0.0588506 0.0588364 
0.058809 0.0587702 0.0587224 0.0586683 0.0586104 0.0585517 0.0584943 0.0584411 0.0583929 
0.0583514 0.0583175 0.0582914 0.0582737 0.0582646 0.0582638 0.0582715 0.0582875 0.0583115 
0.0583432 0.058382 0.0584271 0.0584771 0.0585301 0.0585843 0.0586368 0.0586845 0.0587247 
0.0587545 0.0587721 0.0587759 0.0617484 0.0617925 0.0618393 0.0618872 0.061934 0.0619776 
0.0620161 0.0620472 0.062069 0.0620801 0.0620798 0.0620677 0.0620445 0.0620118 0.0619711 
0.0619247 0.061875 0.0618242 0.0617741 0.0617271 0.0616843 0.0616471 0.0616168 0.0615934 
0.0615776 0.0615695 0.0615692 0.0615769 0.0615921 0.0616146 0.0616439 0.0616792 0.0617197 
0.061764 0.0618104 0.0618572 0.0619018 0.0619419 0.0619751 0.0619994 0.0620131 0.0620152 
0.0647676 0.0648076 0.0648496 0.0648921 0.0649332 0.0649715 0.0650048 0.0650315 0.0650501 
0.0650593 0.0650589 0.0650482 0.0650281 0.0649996 0.064964 0.0649235 0.0648797 0.0648347 
0.0647904 0.064748 0.0647095 0.0646759 0.064648 0.0646269 0.0646128 0.0646059 0.0646062 
0.0646141 0.0646288 0.0646504 0.0646778 0.0647106 0.0647476 0.0647877 0.0648292 0.0648703 
0.0649093 0.0649439 0.064972 0.0649924 0.0650033 0.0650042 0.0675 0.0675371 0.0675756 
0.0676143 0.0676516 0.0676861 0.0677158 0.0677394 0.0677557 0.0677638 0.067763 0.0677532 
0.0677351 0.0677093 0.0676774 0.0676407 0.067601 0.0675602 0.0675195 0.0674806 0.0674451 
0.067414 0.0673883 0.0673688 0.0673562 0.0673503 0.0673515 0.0673593 0.067374 0.067395 
0.0674215 0.0674526 0.0674875 0.0675248 0.067563 0.0676006 0.0676356 0.0676665 0.0676913 
0.0677088 0.0677179 0.0677178 0.0699213 0.0699569 0.0699935 0.07003 0.070065 0.0700969 
0.0701246 0.0701464 0.0701612 0.0701683 0.0701671 0.0701578 0.0701406 0.0701165 0.0700866 
0.070052 0.0700147 0.0699761 0.0699377 0.0699009 0.0698672 0.0698378 0.0698135 0.0697951 
0.0697835 0.0697785 0.0697804 0.069789 0.0698039 0.0698249 0.0698512 0.0698819 0.0699159 
0.0699519 0.0699886 0.0700242 0.0700572 0.0700858 0.0701087 0.0701244 0.0701322 0.0701316 
0.0720073 0.0720424 0.0720784 0.0721144 0.0721484 0.0721796 0.0722063 0.0722272 0.0722413 
0.0722478 0.0722462 0.0722367 0.0722199 0.072196 0.0721666 0.0721327 0.0720963 0.0720581 
0.0720204 0.0719845 0.0719515 0.0719226 0.0718991 0.0718815 0.0718701 0.0718661 0.0718687 
0.0718781 0.0718939 0.0719156 0.0719427 0.071974 0.0720085 0.0720447 0.0720812 0.0721168 
0.0721491 0.0721772 0.0721993 0.0722143 0.0722214 0.0722202 0.0737324 0.0737683 0.0738052 
0.073842 0.0738767 0.0739081 0.0739351 0.0739562 0.0739701 0.0739761 0.0739742 0.0739644 
0.0739467 0.0739221 0.0738919 0.0738573 0.0738196 0.0737808 0.0737423 0.0737056 0.0736722 
0.073643 0.0736194 0.0736017 0.0735907 0.0735871 0.0735906 0.0736012 0.0736184 0.0736418 
0.0736705 0.0737036 0.0737399 0.0737779 0.0738163 0.0738529 0.0738864 0.0739152 0.0739379 
0.073953 0.07396 0.0739583 0.0750702 0.075108 0.0751472 0.075186 0.0752229 0.0752562 
0.0752847 0.0753068 0.0753213 0.0753273 0.0753251 0.0753141 0.075295 0.0752686 0.0752361 
0.075199 0.0751588 0.0751175 0.0750765 0.0750378 0.0750026 0.0749721 0.0749474 0.0749292 
0.0749184 0.0749153 0.0749196 0.0749316 0.074951 0.0749766 0.0750081 0.0750444 0.0750839 
0.0751254 0.075167 0.0752067 0.075243 0.0752741 0.0752982 0.0753147 0.0753219 0.0753201 
0.075993 0.0760343 0.0760773 0.0761195 0.0761601 0.0761969 0.0762282 0.0762524 0.0762683 
0.0762749 0.0762719 0.0762594 0.0762378 0.0762082 0.076172 0.0761306 0.0760863 0.0760406 
0.0759958 0.0759533 0.075915 0.0758821 0.0758555 0.0758364 0.0758253 0.0758224 0.075828 
0.0758417 0.0758636 0.0758927 0.0759281 0.0759688 0.0760132 0.0760597 0.0761063 0.0761511 
0.0761919 0.0762267 0.0762542 0.0762725 0.0762808 0.0762786 0.0764729 0.0765192 0.0765671 
0.0766149 0.0766606 0.0767025 0.0767381 0.0767656 0.0767836 0.0767911 0.0767874 0.0767728 
0.0767476 0.0767135 0.0766716 0.0766242 0.0765738 0.076522 0.0764713 0.0764239 0.0763811 
0.0763447 0.0763155 0.0762948 0.0762829 0.0762802 0.076287 0.0763031 0.0763281 0.0763614 
0.076402 0.0764485 0.0764997 0.076553 0.0766068 0.0766585 0.0767058 0.0767463 0.0767781 
0.0767995 0.0768093 0.076807 0.0764819 0.0765343 0.0765891 0.076644 0.076697 0.0767455 
0.0767871 0.0768192 0.0768405 0.0768492 0.0768447 0.0768272 0.0767973 0.0767569 0.0767075 
0.0766521 0.0765931 0.0765331 0.0764749 0.0764207 0.0763723 0.076331 0.0762984 0.0762755 
0.0762625 0.0762597 0.0762679 0.0762866 0.0763155 0.0763539 0.076401 0.0764552 0.0765145 
0.0765771 0.0766401 0.0767012 0.0767572 0.0768054 0.0768434 0.0768691 0.0768812 0.0768788 
0.0759914 0.0760516 0.0761149 0.076179 0.0762413 0.0762988 0.0763481 0.0763868 0.0764124 
0.0764228 0.0764173 0.0763961 0.0763601 0.0763112 0.0762522 0.0761861 0.0761163 0.076046 
0.0759781 0.0759153 0.0758595 0.0758124 0.0757754 0.0757494 0.075735 0.0757324 0.075742 
0.0757638 0.0757973 0.0758418 0.0758966 0.0759601 0.0760299 0.0761039 0.0761791 0.0762518 
0.0763194 0.0763777 0.0764239 0.0764553 0.0764702 0.0764677 0.0749744 0.0750442 0.075118 
0.0751934 0.0752676 0.0753366 0.0753961 0.0754432 0.0754746 0.0754873 0.0754805 0.0754544 
0.0754103 0.0753508 0.0752791 0.0751997 0.0751164 0.075033 0.0749532 0.0748798 0.0748152 
0.0747613 0.0747192 0.0746896 0.0746733 0.0746706 0.0746818 0.0747069 0.0747456 0.0747975 
0.0748614 0.0749358 0.0750183 0.0751064 0.0751965 0.0752846 0.0753666 0.0754378 0.0754946 
0.0755336 0.0755523 0.0755497 0.0734066 0.0734872 0.0735737 0.0736633 0.073752 0.0738351 
0.0739082 0.0739661 0.0740046 0.0740206 0.0740123 0.07398 0.0739256 0.0738524 0.073765 
0.0736684 0.0735684 0.0734691 0.073375 0.0732894 0.0732146 0.0731527 0.0731047 0.073071 
0.0730526 0.0730497 0.0730625 0.0730911 0.0731357 0.0731954 0.0732697 0.0733569 0.0734546 
0.0735597 0.0736682 0.0737752 0.0738752 0.0739632 0.0740336 0.0740822 0.0741058 0.0741032 
0.0712675 0.0713606 0.071462 0.0715682 0.0716747 0.0717759 0.0718656 0.0719373 0.0719853 
0.0720054 0.0719952 0.071955 0.0718874 0.0717969 0.0716896 0.0715723 0.0714516 0.0713335 
0.0712226 0.0711229 0.0710366 0.0709658 0.0709112 0.0708734 0.0708525 0.0708491 0.0708633 
0.0708956 0.0709462 0.0710147 0.0711007 0.0712025 0.0713179 0.0714434 0.071574 0.0717039 
0.0718266 0.0719352 0.0720228 0.0720836 0.0721139 0.0721113 0.0685433 0.0686502 0.0687685 
0.0688944 0.0690225 0.0691458 0.0692563 0.0693454 0.0694056 0.069431 0.0694184 0.069368 
0.0692837 0.0691716 0.0690396 0.068897 0.0687516 0.0686112 0.0684813 0.0683658 0.0682672 
0.0681871 0.0681258 0.0680833 0.0680599 0.0680556 0.0680709 0.0681066 0.0681633 0.0682409 