# vtk DataFile Version 4.0
vtk output
ASCII
DATASET STRUCTURED_POINTS
DIMENSIONS 42 42 42
SPACING 0.05 0.05 0.05
ORIGIN -1.025 -1.025 -1.025
POINT_DATA 74088
FIELD FieldData 1
potential 1 74088 double
0.00423552 0.00459281 0.00495934 0.00532395 0.00567227 0.0059849 0.00624194 0.00643 0.00654926 
0.0066132 0.00663953 0.0066379 0.00661222 0.0065692 0.0065199 0.00647268 0.00643068 0.00639269 
0.00636013 0.00633622 0.00632819 0.00634329 0.00638443 0.00644408 0.00650594 0.00655308 0.00657392 
0.00656222 0.00651856 0.00644851 0.00636456 0.00628532 0.00622989 0.00620638 0.00620919 0.00622694 
0.00625068 0.00627624 0.00630342 0.00633301 0.00636206 0.00637751 0.00551408 0.00591377 0.0063259 
0.00673967 0.00714394 0.00752347 0.00786146 0.00814336 0.0083624 0.00852055 0.00862542 0.00868594 
0.00870943 0.00870505 0.00868344 0.00865203 0.00861692 0.00858206 0.00855143 0.00853091 0.00852729 
0.00854687 0.00859116 0.00865195 0.00871447 0.00876195 0.00878242 0.00876914 0.00872159 0.00864616 
0.00855595 0.00846868 0.00840113 0.00836168 0.00834721 0.00834864 0.00835655 0.00836397 0.0083657 
0.00835652 0.00832733 0.00826193 0.00691176 0.00735854 0.00782128 0.00829025 0.00875488 0.00920253 
0.00961842 0.00998794 0.0102999 0.0105494 0.0107375 0.0108702 0.010955 0.0110024 0.011022 
0.0110236 0.0110153 0.011003 0.0109931 0.0109918 0.0110052 0.0110371 0.0110865 0.0111472 
0.0112056 0.0112488 0.0112648 0.011247 0.011195 0.0111151 0.0110192 0.0109223 0.0108385 
0.0107753 0.0107322 0.0107027 0.0106781 0.0106494 0.0106077 0.0105432 0.0104427 0.0102915 
0.00840673 0.00890529 0.0094222 0.00994937 0.0104768 0.0109928 0.011484 0.0119356 0.0123349 
0.0126726 0.0129458 0.0131572 0.0133126 0.0134222 0.0134969 0.0135468 0.0135812 0.0136076 
0.0136327 0.0136624 0.0137012 0.013751 0.0138095 0.0138711 0.0139253 0.0139616 0.0139704 
0.0139458 0.0138877 0.0138012 0.0136965 0.0135858 0.0134802 0.0133867 0.0133057 0.0132333 
0.0131616 0.013081 0.0129803 0.012847 0.0126675 0.0124289 0.00996869 0.010523 0.0110973 
0.0116843 0.0122749 0.0128584 0.0134214 0.0139504 0.0144313 0.0148535 0.0152114 0.0155038 
0.0157364 0.0159178 0.0160585 0.0161688 0.0162582 0.0163347 0.0164049 0.0164731 0.0165429 
0.0166142 0.0166857 0.016751 0.0168029 0.0168324 0.016833 0.0168001 0.0167334 0.0166372 
0.0165195 0.0163901 0.0162575 0.0161276 0.0160017 0.0158771 0.0157472 0.0156022 0.0154309 
0.0152201 0.014957 0.0146314 0.011562 0.0121749 0.0128082 0.0134553 0.0141081 0.0147563 
0.0153879 0.0159887 0.0165464 0.0170482 0.0174873 0.0178619 0.018175 0.0184339 0.0186479 
0.0188266 0.018979 0.0191128 0.0192335 0.0193448 0.0194487 0.0195454 0.019632 0.0197044 
0.0197561 0.0197812 0.019774 0.0197315 0.0196542 0.0195452 0.0194108 0.0192581 0.019094 
0.0189233 0.0187474 0.0185644 0.0183685 0.0181515 0.0179026 0.0176093 0.0172612 0.0168507 
0.0131487 0.0138207 0.0145128 0.015219 0.0159316 0.016641 0.0173364 0.0180041 0.0186315 
0.0192075 0.0197243 0.0201788 0.0205724 0.0209106 0.021201 0.021452 0.0216713 0.0218655 
0.022039 0.0221954 0.0223358 0.022459 0.0225634 0.0226449 0.0226991 0.0227213 0.0227076 
0.022656 0.0225663 0.0224422 0.0222877 0.0221086 0.02191 0.0216956 0.0214669 0.0212222 
0.0209573 0.0206648 0.0203355 0.0199593 0.019528 0.0190361 0.014691 0.0154203 0.016169 
0.0169315 0.0177008 0.0184671 0.0192203 0.0199484 0.0206399 0.0212839 0.0218728 0.0224026 
0.0228736 0.0232891 0.0236551 0.023978 0.0242637 0.0245183 0.0247451 0.0249464 0.0251229 
0.025274 0.0253971 0.0254898 0.0255483 0.0255693 0.0255503 0.0254897 0.0253879 0.0252471 
0.0250706 0.0248632 0.0246287 0.0243697 0.0240875 0.0237812 0.0234474 0.0230802 0.0226722 
0.0222161 0.0217057 0.0211381 0.0161555 0.0169382 0.0177394 0.0185541 0.0193744 0.0201922 
0.0209976 0.0217801 0.0225285 0.0232338 0.023888 0.0244867 0.0250292 0.0255169 0.025954 
0.0263447 0.0266944 0.0270065 0.027284 0.0275285 0.0277401 0.0279181 0.0280607 0.0281655 
0.0282296 0.0282509 0.0282275 0.0281584 0.0280443 0.0278867 0.0276882 0.0274521 0.0271816 
0.0268792 0.0265457 0.0261805 0.0257809 0.025343 0.0248614 0.0243313 0.0237485 0.0231118 
0.0175135 0.0183448 0.0191932 0.0200535 0.0209191 0.0217822 0.0226335 0.0234633 0.0242619 
0.0250205 0.0257323 0.0263923 0.0269983 0.0275507 0.0280521 0.0285051 0.0289128 0.0292779 
0.029602 0.0298863 0.0301306 0.0303342 0.0304954 0.0306125 0.0306832 0.0307056 0.0306787 
0.0306021 0.0304761 0.0303021 0.0300823 0.0298188 0.0295147 0.0291711 0.0287899 0.0283706 
0.0279112 0.0274094 0.0268617 0.0262653 0.0256182 0.0249207 0.0187442 0.0196166 0.0205054 
0.0214053 0.0223096 0.023211 0.0241012 0.0249714 0.0258125 0.0266167 0.0273773 0.0280894 
0.0287506 0.0293593 0.0299166 0.0304236 0.0308823 0.0312939 0.0316595 0.0319794 0.0322532 
0.0324801 0.0326587 0.0327874 0.0328645 0.0328889 0.0328596 0.0327761 0.0326392 0.0324501 
0.0322104 0.031922 0.031587 0.0312071 0.0307835 0.0303158 0.029804 0.0292467 0.0286419 
0.0279886 0.0272864 0.0265369 0.019831 0.0207379 0.0216599 0.022592 0.023528 0.0244606 
0.0253824 0.0262853 0.0271615 0.0280031 0.0288038 0.0295593 0.0302657 0.0309214 0.0315255 
0.0320777 0.0325794 0.0330307 0.0334316 0.0337821 0.0340814 0.0343287 0.0345226 0.0346619 
0.0347452 0.0347716 0.0347404 0.0346514 0.0345049 0.0343024 0.0340451 0.0337349 0.0333732 
0.0329619 0.0325016 0.0319936 0.0314375 0.0308336 0.0301815 0.0294811 0.0287335 0.0279413 
0.020765 0.0216988 0.0226467 0.0236036 0.0245637 0.0255204 0.0264666 0.0273947 0.0282974 
0.0291683 0.0300007 0.0307899 0.0315322 0.0322248 0.0328664 0.0334557 0.0339919 0.0344753 
0.0349052 0.0352808 0.0356015 0.0358659 0.0360729 0.0362213 0.0363101 0.0363385 0.0363057 
0.0362122 0.0360581 0.0358445 0.0355724 0.0352436 0.0348598 0.0344223 0.0339325 0.0333916 
0.0328001 0.0321591 0.0314689 0.0307313 0.029948 0.0291223 0.0215409 0.0224941 0.0234604 
0.0244348 0.0254118 0.0263851 0.0273479 0.0282939 0.0292158 0.0301075 0.0309629 0.0317771 
0.0325461 0.0332665 0.0339361 0.0345533 0.0351167 0.0356247 0.0360771 0.0364726 0.03681 
0.037088 0.0373055 0.0374614 0.0375548 0.0375847 0.0375513 0.0374542 0.0372939 0.0370714 
0.0367879 0.0364445 0.0360432 0.0355856 0.0350729 0.0345067 0.0338883 0.0332192 0.0325009 
0.0317356 0.0309259 0.0300757 0.0221573 0.0231227 0.0241001 0.0250849 0.0260716 0.0270542 
0.0280269 0.0289833 0.0299169 0.0308214 0.0316915 0.0325219 0.0333089 0.0340483 0.0347375 
0.0353742 0.0359566 0.036483 0.0369518 0.0373615 0.0377112 0.0379993 0.0382246 0.0383861 
0.0384829 0.0385143 0.0384803 0.0383808 0.0382162 0.0379874 0.0376954 0.0373418 0.036928 
0.0364556 0.0359266 0.0353424 0.0347051 0.0340165 0.033279 0.0324951 0.0316682 0.0308019 
0.0226156 0.0235862 0.0245679 0.0255559 0.0265456 0.0275312 0.0285067 0.0294664 0.0304041 
0.0313143 0.0321913 0.0330302 0.0338266 0.034577 0.0352779 0.0359265 0.0365207 0.0370585 
0.0375379 0.0379571 0.0383146 0.0386093 0.0388399 0.0390052 0.0391044 0.0391371 0.0391028 
0.0390018 0.0388345 0.0386019 0.0383048 0.0379446 0.0375229 0.0370416 0.0365024 0.0359072 
0.0352583 0.0345584 0.0338096 0.0330156 0.0321797 0.0313057 0.022919 0.0238881 0.0248676 
0.0258529 0.0268392 0.0278211 0.028793 0.0297494 0.0306847 0.0315933 0.0324702 0.03331 
0.0341087 0.0348625 0.0355678 0.0362215 0.036821 0.0373639 0.0378483 0.0382722 0.0386339 
0.0389319 0.0391652 0.0393325 0.0394331 0.0394667 0.0394326 0.0393313 0.0391632 0.0389287 
0.0386294 0.0382665 0.0378412 0.0373559 0.0368123 0.0362126 0.0355594 0.034855 0.0341027 
0.0333059 0.0324682 0.0315938 0.0230723 0.0240342 0.0250055 0.0259818 0.0269588 0.027931 
0.0288934 0.0298404 0.030767 0.0316677 0.0325376 0.0333721 0.0341666 0.034917 0.03562 
0.0362724 0.0368713 0.0374139 0.0378985 0.0383226 0.0386847 0.0389834 0.0392171 0.0393845 
0.0394855 0.0395194 0.0394858 0.039385 0.0392174 0.0389837 0.0386851 0.0383226 0.0378982 
0.0374135 0.0368708 0.0362725 0.0356208 0.0349189 0.0341699 0.033377 0.0325444 0.0316762 
0.0230815 0.0240305 0.0249882 0.0259502 0.026912 0.027869 0.0288163 0.0297485 0.0306608 
0.0315479 0.0324052 0.033228 0.0340121 0.0347533 0.0354483 0.0360936 0.0366866 0.0372242 
0.0377045 0.0381252 0.0384844 0.0387806 0.0390126 0.0391792 0.0392795 0.0393133 0.0392806 
0.0391811 0.0390155 0.0387843 0.0384888 0.0381302 0.0377102 0.0372307 0.0366937 0.0361017 
0.0354573 0.0347635 0.0340235 0.0332409 0.0324194 0.0315633 0.0229525 0.0238838 0.0248227 
0.0257653 0.0267073 0.0276442 0.0285713 0.0294836 0.0303764 0.0312448 0.0320843 0.0328903 
0.0336586 0.0343855 0.0350674 0.0357009 0.0362832 0.0368115 0.0372835 0.0376971 0.0380503 
0.0383418 0.03857 0.038734 0.0388333 0.038867 0.038835 0.0387377 0.0385752 0.0383485 
0.0380585 0.0377067 0.0372945 0.0368237 0.0362967 0.0357156 0.0350833 0.0344028 0.0336771 
0.0329099 0.032105 0.0312666 0.0226927 0.0236015 0.0245172 0.025436 0.0263538 0.0272661 
0.0281685 0.0290565 0.0299253 0.0307703 0.0315872 0.0323717 0.0331198 0.0338277 0.0344919 
0.0351091 0.0356766 0.0361917 0.036652 0.0370554 0.0374001 0.0376846 0.0379076 0.0380679 
0.0381649 0.0381983 0.0381676 0.0380728 0.0379148 0.0376942 0.0374119 0.0370692 0.0366677 
0.0362092 0.0356957 0.0351298 0.0345141 0.0338512 0.0331445 0.0323975 0.0316138 0.0307976 
0.0223084 0.0231909 0.0240795 0.0249705 0.0258601 0.0267439 0.0276179 0.0284775 0.0293183 
0.030136 0.0309263 0.0316852 0.0324089 0.0330937 0.0337363 0.0343336 0.0348827 0.0353811 
0.0358267 0.0362173 0.0365511 0.0368266 0.0370428 0.0371982 0.0372925 0.0373249 0.0372956 
0.0372045 0.0370521 0.0368388 0.0365661 0.0362349 0.0358468 0.0354035 0.034907 0.0343598 
0.0337642 0.033123 0.0324393 0.0317165 0.0309583 0.0301685 0.0218071 0.0226596 0.0235176 
0.0243774 0.0252353 0.0260873 0.0269293 0.0277571 0.0285666 0.0293535 0.0301138 0.0308435 
0.0315392 0.0321974 0.0328149 0.0333887 0.0339163 0.0343953 0.0348234 0.0351988 0.0355196 
0.0357846 0.0359925 0.0361422 0.0362331 0.0362647 0.0362368 0.0361497 0.0360037 0.0357995 
0.0355377 0.0352201 0.0348476 0.0344223 0.0339457 0.0334203 0.0328481 0.0322321 0.031575 
0.03088 0.0301507 0.0293906 0.0211958 0.0220152 0.0228394 0.023665 0.0244883 0.0253056 
0.0261128 0.0269059 0.027681 0.0284341 0.0291612 0.0298588 0.0305234 0.0311518 0.0317412 
0.0322888 0.0327921 0.033249 0.0336573 0.0340155 0.0343218 0.0345746 0.034773 0.034916 
0.035003 0.0350335 0.0350074 0.0349248 0.034786 0.0345917 0.034343 0.0340406 0.0336858 
0.0332805 0.0328264 0.0323253 0.0317796 0.0311917 0.0305643 0.0299003 0.029203 0.0284758 
0.0204816 0.0212653 0.0220531 0.0228419 0.0236282 0.0244082 0.0251781 0.0259341 0.0266723 
0.0273888 0.0280803 0.028743 0.0293739 0.0299699 0.0305285 0.0310472 0.0315239 0.0319565 
0.0323431 0.0326822 0.0329722 0.0332117 0.0333997 0.0335353 0.0336179 0.0336471 0.0336229 
0.0335453 0.0334145 0.0332313 0.0329963 0.0327106 0.0323757 0.0319926 0.0315629 0.0310889 
0.0305722 0.030015 0.0294201 0.0287898 0.0281272 0.0274356 0.0196719 0.0204175 0.0211669 
0.0219167 0.0226638 0.0234045 0.0241351 0.024852 0.0255511 0.026229 0.0268824 0.0275079 
0.0281026 0.0286639 0.0291894 0.029677 0.030125 0.0305313 0.0308945 0.0312128 0.0314852 
0.0317103 0.0318872 0.0320149 0.0320928 0.0321207 0.0320985 0.032026 0.0319038 0.0317323 
0.0315125 0.031245 0.0309312 0.0305722 0.0301695 0.0297245 0.0292388 0.0287148 0.0281545 
0.0275602 0.0269347 0.0262807 0.018774 0.0194796 0.0201885 0.0208978 0.0216041 0.0223038 
0.0229936 0.0236695 0.024328 0.0249655 0.0255788 0.026165 0.0267215 0.027246 0.0277365 
0.0281911 0.0286083 0.0289866 0.0293246 0.0296211 0.0298748 0.0300846 0.0302495 0.0303688 
0.0304418 0.0304683 0.030448 0.0303811 0.030268 0.0301091 0.0299051 0.0296571 0.0293659 
0.0290325 0.0286581 0.0282441 0.0277921 0.0273031 0.0267795 0.0262234 0.0256367 0.0250223 
0.0177954 0.0184593 0.0191265 0.0197936 0.020458 0.0211158 0.0217633 0.0223973 0.0230137 
0.0236093 0.024181 0.0247263 0.0252426 0.0257285 0.0261818 0.0266016 0.0269863 0.0273351 
0.0276468 0.0279203 0.0281544 0.0283481 0.0285006 0.0286111 0.028679 0.0287039 0.0286857 
0.0286246 0.028521 0.0283752 0.0281881 0.0279604 0.0276929 0.0273866 0.0270423 0.026661 
0.026244 0.0257924 0.0253077 0.024791 0.0242449 0.0236718 0.0167442 0.017365 0.0179891 
0.0186135 0.0192348 0.0198497 0.0204545 0.0210453 0.0216189 0.0221717 0.0227006 0.0232034 
0.0236781 0.0241232 0.0245378 0.0249209 0.0252719 0.0255899 0.0258741 0.0261237 0.0263376 
0.0265148 0.0266545 0.0267558 0.0268183 0.0268416 0.0268256 0.0267704 0.0266765 0.0265444 
0.0263747 0.0261681 0.0259254 0.0256473 0.0253344 0.0249877 0.0246076 0.0241949 0.0237503 
0.0232752 0.0227714 0.0222405 0.0156287 0.0162057 0.0167858 0.0173662 0.0179442 0.018516 
0.0190778 0.0196256 0.0201556 0.0206646 0.0211497 0.0216087 0.02204 0.0224431 0.0228172 
0.0231623 0.0234782 0.0237643 0.0240202 0.0242452 0.0244384 0.0245988 0.0247254 0.0248175 
0.0248744 0.024896 0.024882 0.0248328 0.0247488 0.0246305 0.0244788 0.0242941 0.024077 
0.0238283 0.0235482 0.0232373 0.0228955 0.0225232 0.0221206 0.0216885 0.0212278 0.0207404 
0.0144583 0.0149905 0.0155263 0.0160631 0.0165976 0.0171261 0.0176448 0.0181496 0.0186359 
0.0191006 0.0195409 0.0199551 0.020342 0.0207016 0.021034 0.0213398 0.0216194 0.0218728 
0.0220999 0.0223 0.0224722 0.0226156 0.0227292 0.0228119 0.0228633 0.022883 0.0228709 
0.0228275 0.0227533 0.0226491 0.0225153 0.022353 0.0221623 0.0219439 0.0216978 0.0214238 
0.0211218 0.0207912 0.0204319 0.020044 0.0196277 0.0191844 0.0132438 0.013731 0.0142222 
0.0147153 0.0152068 0.015693 0.0161689 0.0166307 0.0170736 0.0174938 0.0178889 0.0182572 
0.0185985 0.0189134 0.0192029 0.0194685 0.019711 0.0199313 0.0201292 0.0203045 0.020456 
0.0205828 0.0206834 0.0207569 0.0208025 0.02082 0.0208095 0.0207717 0.0207071 0.0206166 
0.0205011 0.0203613 0.0201976 0.0200101 0.0197986 0.0195626 0.0193014 0.0190139 0.0186991 
0.0183563 0.0179852 0.0175868 0.0119978 0.0124397 0.0128867 0.0133365 0.0137858 0.0142301 
0.0146647 0.0150841 0.0154838 0.0158598 0.0162093 0.0165313 0.0168261 0.0170955 0.0173413 
0.017566 0.0177713 0.0179583 0.0181274 0.0182782 0.0184096 0.0185201 0.0186082 0.0186727 
0.0187126 0.0187277 0.0187184 0.0186854 0.0186298 0.0185527 0.0184551 0.0183377 0.0182008 
0.0180443 0.017868 0.0176707 0.0174511 0.0172075 0.0169381 0.0166414 0.0163163 0.0159632 
0.0107344 0.0111312 0.0115345 0.011942 0.0123501 0.0127542 0.0131485 0.0135271 0.0138843 
0.0142158 0.0145195 0.0147948 0.0150428 0.0152662 0.0154683 0.0156522 0.0158205 0.0159749 
0.0161161 0.0162434 0.0163555 0.0164507 0.0165272 0.016583 0.0166171 0.0166295 0.0166206 
0.0165917 0.0165443 0.0164797 0.0163993 0.0163038 0.0161934 0.0160678 0.0159265 0.0157678 
0.0155899 0.0153906 0.0151672 0.014917 0.0146383 0.0143308 0.00946999 0.00982218 0.0101827 
0.0105492 0.010918 0.0112836 0.0116392 0.011978 0.0122935 0.0125813 0.012839 0.0130672 
0.0132685 0.0134465 0.0136054 0.0137495 0.0138821 0.0140051 0.0141195 0.0142248 0.0143194 
0.0144009 0.0144665 0.0145142 0.0145427 0.0145517 0.0145424 0.0145164 0.0144759 0.0144228 
0.0143585 0.014284 0.0141993 0.014104 0.0139967 0.0138759 0.0137392 0.0135837 0.0134056 
0.0132019 0.0129699 0.012708 0.00822224 0.00853086 0.00884994 0.00917744 0.00950904 0.00983832 
0.0101572 0.0104572 0.0107317 0.0109756 0.0111876 0.0113693 0.0115244 0.0116584 0.0117763 
0.0118826 0.0119814 0.0120752 0.0121651 0.0122505 0.0123296 0.012399 0.0124554 0.0124957 
0.0125184 0.0125236 0.0125127 0.0124883 0.0124532 0.01241 0.0123605 0.0123056 0.0122451 
0.0121784 0.0121036 0.012019 0.0119214 0.0118076 0.0116737 0.0115158 0.01133 0.0111141 
0.00701004 0.00727652 0.00755608 0.00784686 0.008144 0.00843961 0.0087237 0.00898622 0.00921925 
0.0094189 0.00958496 0.00972103 0.00983234 0.0099251 0.0100048 0.0100768 0.010145 0.0102124 
0.0102805 0.0103488 0.0104149 0.0104745 0.0105232 0.0105574 0.0105748 0.0105756 0.010562 
0.0105375 0.010506 0.0104708 0.0104342 0.0103971 0.010359 0.0103184 0.0102732 0.010221 
0.0101592 0.0100842 0.0099918 0.00987762 0.00973734 0.0095673 0.00585163 0.00607802 0.00632044 
0.00657765 0.00684389 0.00710898 0.00736015 0.0075853 0.00777621 0.0079301 0.00804981 0.00814157 
0.00821223 0.0082683 0.00831524 0.00835748 0.00839921 0.00844383 0.00849335 0.00854765 0.00860352 
0.00865588 0.00869882 0.00872774 0.00874035 0.00873685 0.00871972 0.00869373 0.00866389 0.00863496 
0.0086095 0.00858776 0.00856873 0.00855027 0.00853003 0.00850562 0.00847436 0.00843326 0.00837823 
0.00830494 0.00820864 0.00808477 0.00476401 0.00495295 0.00516133 0.00538887 0.00562849 0.00586656 
0.00608638 0.00627333 0.00641957 0.00652566 0.00659866 0.00664821 0.00668295 0.00670864 0.00672931 
0.00674827 0.00676904 0.00679511 0.00682964 0.00687288 0.00692125 0.00696839 0.00700711 0.00703223 
0.00704098 0.00703372 0.0070132 0.00698512 0.00695581 0.00693095 0.00691361 0.00690391 0.0068996 
0.00689774 0.00689621 0.0068926 0.00688522 0.00687178 0.00684896 0.00681237 0.00675772 0.00667982 
0.00376207 0.00391739 0.00409556 0.00429805 0.00451627 0.00473111 0.00491999 0.00506608 0.00516358 
0.00521863 0.00524499 0.0052564 0.00526156 0.00526471 0.00526732 0.00527058 0.00527684 0.00528966 
0.00531298 0.00534781 0.0053907 0.00543386 0.00546916 0.00549105 0.00549707 0.00548742 0.00546507 
0.00543555 0.00540616 0.00538388 0.00537189 0.00536933 0.0053733 0.00538035 0.0053888 0.0053977 
0.00540644 0.0054137 0.00541646 0.00541121 0.00539418 0.00536124 0.00285763 0.00298514 0.00313861 
0.00332215 0.00352484 0.00371923 0.00387571 0.00397614 0.00401923 0.00402016 0.00400189 0.00398151 
0.00396589 0.00395541 0.00394849 0.00394422 0.00394355 0.00394917 0.00396545 0.00399427 0.00403165 
0.00406956 0.00410035 0.00411905 0.00412332 0.00411331 0.00409157 0.00406316 0.00403534 0.00401484 
0.00400466 0.0040031 0.00400695 0.00401354 0.00402232 0.00403392 0.00404954 0.00406952 0.00409113 
0.00410994 0.00412435 0.0041336 0.00205929 0.00216798 0.00230524 0.00247795 0.00267039 0.00284367 
0.00296258 0.00301094 0.00299437 0.00294113 0.00288499 0.0028427 0.00281573 0.0028 0.00279127 
0.00278684 0.00278641 0.00279173 0.00280533 0.00282867 0.00285778 0.00288643 0.00290918 0.00292269 
0.00292513 0.00291655 0.00289874 0.00287569 0.00285271 0.00283493 0.00282375 0.00281746 0.00281352 
0.00281068 0.00280975 0.00281375 0.0028265 0.00285043 0.00288248 0.00291576 0.00295112 0.00299597 
0.00363619 0.00403077 0.00443541 0.00484291 0.00524282 0.00561039 0.00591008 0.00611183 0.00620756 
0.0062187 0.00618116 0.00611242 0.00601214 0.00588801 0.00576089 0.00564424 0.0055379 0.00543886 
0.00534545 0.0052646 0.00521019 0.00520407 0.00526087 0.00536531 0.00547881 0.00556736 0.00561131 
0.00560258 0.00554085 0.00543413 0.00530149 0.00517978 0.00511533 0.00512589 0.00518775 0.0052702 
0.00535616 0.00544196 0.00553222 0.00563531 0.00575468 0.00587274 0.00503625 0.00547605 0.00593158 
0.00639385 0.00685279 0.0072907 0.00768143 0.00799891 0.00822675 0.00836553 0.00842976 0.00843464 
0.00839162 0.00831344 0.00821575 0.00811089 0.00800547 0.00790152 0.00780515 0.0077259 0.00767854 
0.00767953 0.00773497 0.00783133 0.00793882 0.00802619 0.00807109 0.00806331 0.00800179 0.00789585 
0.00776695 0.00764907 0.00757693 0.00756544 0.00760397 0.00767065 0.00774762 0.00782554 0.00790032 
0.00796814 0.00801767 0.00802265 0.00659432 0.00708227 0.00759252 0.00811531 0.00864066 0.00915353 
0.0096332 0.0100557 0.0104007 0.0106578 0.0108282 0.0109214 0.0109509 0.0109323 0.0108822 
0.0108133 0.0107359 0.0106583 0.0105891 0.010539 0.0105187 0.010537 0.0105952 0.0106814 
0.0107744 0.0108494 0.0108865 0.0108744 0.0108117 0.0107079 0.0105832 0.0104649 0.0103785 
0.0103367 0.0103366 0.010365 0.0104069 0.0104491 0.0104797 0.010485 0.0104456 0.0103354 
0.00828186 0.00882452 0.00939369 0.00998073 0.0105753 0.0111645 0.0117298 0.0122491 0.0127004 
0.0130677 0.0133442 0.0135345 0.0136497 0.0137068 0.0137215 0.0137101 0.0136851 0.013657 
0.0136355 0.0136291 0.0136453 0.0136873 0.0137528 0.0138329 0.0139117 0.0139713 0.0139956 
0.0139745 0.0139076 0.0138025 0.0136762 0.0135494 0.013441 0.0133618 0.0133128 0.0132868 
0.0132718 0.0132534 0.0132151 0.0131372 0.012998 0.0127752 0.01006 0.0106642 0.0112969 
0.0119503 0.0126156 0.0132797 0.0139264 0.0145348 0.0150828 0.0155524 0.0159329 0.0162245 
0.0164354 0.0165806 0.0166769 0.0167406 0.0167854 0.0168223 0.0168601 0.0169057 0.0169628 
0.0170324 0.0171104 0.0171902 0.0172589 0.0173046 0.017315 0.0172831 0.0172079 0.0170962 
0.0169606 0.0168168 0.0166787 0.0165556 0.0164499 0.0163577 0.0162696 0.0161717 0.0160456 
0.015871 0.0156261 0.015294 0.0118822 0.0125526 0.0132519 0.0139735 0.0147083 0.0154451 
0.0161676 0.0168572 0.0174932 0.0180571 0.0185374 0.01893 0.0192415 0.0194841 0.0196732 
0.0198238 0.0199491 0.0200597 0.0201632 0.0202641 0.0203651 0.0204648 0.0205602 0.0206443 
0.0207088 0.0207438 0.0207422 0.0206982 0.0206117 0.020488 0.0203364 0.0201685 0.0199946 
0.019822 0.0196538 0.0194879 0.0193163 0.0191265 0.0189018 0.0186226 0.0182709 0.0178338 
0.0136981 0.0144369 0.0152035 0.015992 0.0167942 0.017599 0.0183918 0.0191554 0.0198711 
0.020521 0.0210937 0.0215845 0.0219966 0.0223397 0.022626 0.0228688 0.0230793 0.023267 
0.023438 0.0235955 0.023741 0.023873 0.0239883 0.0240814 0.0241459 0.0241751 0.0241633 
0.0241073 0.0240075 0.0238679 0.0236953 0.023498 0.0232838 0.0230587 0.022825 0.0225815 
0.0223218 0.0220353 0.0217078 0.0213232 0.0208672 0.0203311 0.0154594 0.0162645 0.0170963 
0.0179486 0.0188139 0.0196814 0.0205383 0.0213681 0.0221544 0.0228821 0.0235398 0.0241224 
0.0246307 0.0250711 0.0254532 0.0257871 0.0260822 0.0263457 0.0265828 0.0267961 0.026986 
0.0271509 0.0272877 0.0273926 0.0274606 0.0274868 0.0274674 0.0274005 0.0272866 0.0271286 
0.0269319 0.0267026 0.0264461 0.0261672 0.0258679 0.0255471 0.0252 0.0248183 0.0243907 
0.023905 0.0233511 0.0227236 0.0171232 0.0179901 0.018882 0.019793 0.0207157 0.0216393 
0.0225525 0.0234409 0.0242902 0.025087 0.0258207 0.026486 0.0270822 0.0276126 0.0280838 
0.0285033 0.0288776 0.0292128 0.0295126 0.0297783 0.0300105 0.0302074 0.0303667 0.0304848 
0.0305583 0.0305839 0.0305589 0.030482 0.0303541 0.0301773 0.0299552 0.0296928 0.0293944 
0.0290631 0.028701 0.028307 0.0278778 0.0274072 0.0268869 0.0263089 0.0256665 0.0249571 
0.0186555 0.0195774 0.0205225 0.0214855 0.0224577 0.0234305 0.0243927 0.025332 0.0262357 
0.0270924 0.0278925 0.0286299 0.029303 0.0299129 0.0304633 0.0309594 0.0314054 0.0318055 
0.0321619 0.0324757 0.0327467 0.0329738 0.0331546 0.0332867 0.0333669 0.0333933 0.033364 
0.0332783 0.033137 0.0329416 0.0326952 0.0324013 0.0320626 0.0316828 0.0312629 0.0308026 
0.0302994 0.0297495 0.0291475 0.0284885 0.0277689 0.0269881 0.0200323 0.0210015 0.0219918 
0.0229977 0.0240119 0.0250258 0.0260292 0.0270112 0.0279607 0.0288674 0.029723 0.0305215 
0.0312596 0.0319369 0.0325552 0.0331172 0.0336251 0.0340813 0.0344873 0.0348434 0.0351491 
0.0354033 0.035604 0.0357493 0.0358368 0.0358649 0.0358323 0.035739 0.0355854 0.035373 
0.0351039 0.034781 0.0344068 0.0339835 0.0335127 0.0329946 0.0324278 0.03181 0.0311388 
0.0304112 0.0296266 0.0287858 0.0212385 0.0222453 0.0232719 0.0243127 0.0253604 0.0264069 
0.0274433 0.0284597 0.0294459 0.0303931 0.0312935 0.0321409 0.032932 0.0336648 0.0343385 
0.0349545 0.0355139 0.0360172 0.0364648 0.0368568 0.0371921 0.0374697 0.037688 0.0378451 
0.0379395 0.0379697 0.037935 0.0378351 0.0376708 0.0374434 0.0371546 0.0368066 0.0364016 
0.0359414 0.0354279 0.0348611 0.0342416 0.0335685 0.0328407 0.0320579 0.0312207 0.0303314 
0.0222648 0.0233006 0.0243546 0.0254214 0.0264941 0.027565 0.0286258 0.0296678 0.030682 
0.0316598 0.0325944 0.0334797 0.0343116 0.0350872 0.0358048 0.0364634 0.0370634 0.0376041 
0.0380854 0.0385064 0.0388661 0.0391632 0.0393961 0.0395635 0.0396638 0.0396962 0.0396599 
0.0395548 0.0393818 0.0391417 0.0388366 0.0384678 0.0380375 0.0375475 0.0369994 0.0363945 
0.0357335 0.0350167 0.0342452 0.0334195 0.0325418 0.0316156 0.0231085 0.0241645 0.0252374 
0.0263216 0.0274107 0.0284976 0.0295747 0.0306338 0.0316666 0.0326659 0.0336248 0.034537 
0.0353983 0.0362049 0.0369547 0.0376455 0.0382756 0.0388448 0.0393517 0.0397951 0.0401737 
0.0404859 0.0407305 0.0409061 0.0410114 0.0410456 0.0410082 0.0408994 0.0407196 0.04047 
0.0401518 0.0397669 0.0393172 0.0388043 0.0382303 0.0375966 0.0369048 0.0361562 0.0353524 
0.0344958 0.0335893 0.0326369 0.0237709 0.0248386 0.0259219 0.0270154 0.0281129 0.0292078 
0.0302926 0.0313606 0.0324039 0.0334154 0.0343887 0.0353179 0.0361982 0.0370252 0.0377963 
0.0385088 0.0391606 0.0397496 0.0402743 0.0407336 0.0411257 0.041449 0.0417021 0.0418836 
0.0419925 0.0420282 0.0419904 0.041879 0.0416947 0.0414382 0.041111 0.0407148 0.0402513 
0.0397225 0.0391305 0.0384771 0.0377643 0.0369943 0.0361694 0.0352929 0.0343679 0.0333995 
0.0242554 0.025327 0.0264129 0.0275078 0.0286057 0.029701 0.0307866 0.0318555 0.032901 
0.0339164 0.0348951 0.0358318 0.0367215 0.0375597 0.0383427 0.0390675 0.0397316 0.040333 
0.040869 0.041338 0.0417385 0.0420688 0.0423271 0.0425126 0.0426241 0.042661 0.0426229 
0.0425102 0.0423232 0.0420627 0.0417302 0.0413272 0.0408557 0.0403176 0.0397148 0.0390498 
0.038325 0.0375431 0.0367072 0.0358205 0.0348872 0.033912 0.0245678 0.0256359 0.0267171 
0.0278061 0.0288981 0.0299865 0.0310653 0.0321279 0.0331681 0.0341795 0.0351558 0.0360915 
0.0369818 0.0378224 0.0386088 0.039338 0.040007 0.0406131 0.0411543 0.0416276 0.0420317 
0.0423651 0.0426261 0.0428134 0.0429262 0.0429637 0.0429259 0.0428129 0.042625 0.0423635 
0.0420292 0.0416237 0.0411492 0.0406074 0.0400009 0.0393319 0.0386032 0.0378179 0.0369794 
0.0360914 0.0351583 0.0341847 0.0247146 0.0257724 0.0268424 0.0279195 0.0289985 0.0300737 
0.0311392 0.032189 0.0332169 0.034217 0.0351835 0.0361111 0.0369945 0.0378296 0.0386121 
0.0393384 0.0400053 0.04061 0.04115 0.0416229 0.0420269 0.0423599 0.0426205 0.0428078 
0.0429209 0.0429589 0.0429217 0.0428093 0.0426225 0.042362 0.0420291 0.0416253 0.0411523 
0.0406125 0.040008 0.0393417 0.0386164 0.0378351 0.0370017 0.0361202 0.0351948 0.0342305 
0.0247035 0.0257454 0.0267981 0.027857 0.0289172 0.0299732 0.0310196 0.0320504 0.0330599 
0.0340426 0.0349928 0.0359053 0.0367753 0.0375983 0.0383701 0.0390871 0.039746 0.0403439 
0.0408779 0.0413458 0.0417455 0.0420754 0.0423337 0.042519 0.042631 0.0426689 0.0426325 
0.042522 0.0423378 0.0420808 0.0417521 0.0413533 0.0408863 0.040353 0.0397564 0.0390986 
0.0383828 0.0376124 0.0367911 0.0359227 0.0350117 0.034063 0.0245427 0.025563 0.0265931 
0.0276285 0.0286646 0.0296962 0.0307179 0.0317244 0.03271 0.0336695 0.0345978 0.0354895 
0.0363401 0.0371451 0.0379006 0.0386028 0.0392485 0.0398345 0.0403583 0.0408174 0.0412097 
0.0415333 0.0417868 0.0419691 0.0420793 0.0421168 0.0420815 0.0419735 0.0417934 0.0415419 
0.0412201 0.0408296 0.0403723 0.0398502 0.0392656 0.0386216 0.0379209 0.0371668 0.0363632 
0.035514 0.0346235 0.0336963 0.0242402 0.025234 0.0262367 0.0272439 0.028251 0.0292533 
0.0302458 0.0312231 0.0321801 0.0331117 0.034013 0.0348789 0.035705 0.0364872 0.0372214 
0.0379042 0.038532 0.039102 0.0396115 0.0400582 0.0404401 0.0407552 0.0410022 0.0411798 
0.0412876 0.0413245 0.0412905 0.0411858 0.041011 0.0407668 0.0404542 0.0400748 0.0396304 
0.0391229 0.0385549 0.0379288 0.0372478 0.0365154 0.0357345 0.0349096 0.0340447 0.0331442 
0.0238038 0.0247669 0.025738 0.0267128 0.027687 0.028656 0.029615 0.0305591 0.0314833 
0.0323826 0.0332525 0.0340883 0.0348857 0.0356406 0.0363493 0.0370082 0.0376142 0.0381646 
0.0386567 0.0390881 0.0394569 0.0397615 0.0400002 0.0401722 0.0402764 0.0403125 0.0402802 
0.0401796 0.040011 0.0397757 0.0394744 0.0391086 0.03868 0.0381905 0.0376425 0.0370385 
0.0363815 0.0356744 0.034921 0.0341247 0.0332896 0.0324202 0.0232417 0.0241705 0.0251062 
0.026045 0.0269827 0.0279149 0.028837 0.0297442 0.0306319 0.0314954 0.0323302 0.0331321 
0.0338969 0.0346208 0.0353001 0.0359318 0.0365127 0.0370402 0.0375117 0.0379254 0.038279 
0.0385711 0.0388002 0.0389655 0.0390658 0.0391006 0.03907 0.038974 0.0388132 0.0385879 
0.0382997 0.0379496 0.0375394 0.0370708 0.036546 0.0359675 0.0353378 0.0346601 0.0339375 
0.0331735 0.0323723 0.0315376 0.0225616 0.0234527 0.02435 0.0252497 0.0261478 0.0270402 
0.0279223 0.0287897 0.0296379 0.0304626 0.0312593 0.0320239 0.0327528 0.0334423 0.0340891 
0.0346903 0.0352431 0.0357449 0.0361937 0.0365873 0.0369239 0.037202 0.0374203 0.0375777 
0.0376733 0.037707 0.0376783 0.0375874 0.0374349 0.0372215 0.0369478 0.0366152 0.0362255 
0.0357803 0.0352814 0.0347313 0.0341322 0.033487 0.0327986 0.0320704 0.0313059 0.0305091 
0.0217711 0.0226217 0.0234779 0.0243359 0.025192 0.026042 0.0268818 0.0277068 0.028513 
0.0292961 0.0300519 0.0307766 0.0314667 0.0321189 0.0327305 0.0332984 0.0338206 0.0342945 
0.0347181 0.0350897 0.0354077 0.0356705 0.0358767 0.0360256 0.0361163 0.0361485 0.036122 
0.0360367 0.0358933 0.0356923 0.0354347 0.0351218 0.0347546 0.0343346 0.0338642 0.0333449 
0.032779 0.0321691 0.0315179 0.0308282 0.0301035 0.0293474 0.020878 0.0216858 0.0224986 
0.0233126 0.0241246 0.0249302 0.0257256 0.0265064 0.0272684 0.0280075 0.0287202 0.0294025 
0.0300515 0.030664 0.0312375 0.03177 0.032259 0.0327029 0.0330997 0.0334477 0.0337456 
0.0339917 0.0341852 0.0343249 0.0344103 0.0344409 0.0344165 0.0343373 0.0342038 0.0340164 
0.0337759 0.0334836 0.0331405 0.0327484 0.0323082 0.0318222 0.0312921 0.0307201 0.0301084 
0.0294599 0.0287773 0.028064 0.0198895 0.0206524 0.0214199 0.0221886 0.0229547 0.0237146 
0.024464 0.0251988 0.025915 0.0266085 0.0272758 0.0279137 0.0285192 0.0290898 0.0296232 
0.0301179 0.030572 0.0309839 0.031352 0.0316749 0.0319514 0.0321802 0.0323601 0.0324903 
0.0325701 0.032599 0.0325769 0.032504 0.0323807 0.0322075 0.0319854 0.0317151 0.0313979 
0.0310349 0.0306273 0.0301768 0.0296845 0.0291526 0.0285828 0.0279774 0.027339 0.0266704 
0.018813 0.0195296 0.0202502 0.0209721 0.0216914 0.0224043 0.0231068 0.0237947 0.0244639 
0.0251104 0.0257308 0.0263223 0.0268821 0.0274086 0.0279 0.0283548 0.0287718 0.02915 
0.0294881 0.0297849 0.0300391 0.0302497 0.0304155 0.0305356 0.0306095 0.0306367 0.030617 
0.0305507 0.0304381 0.0302798 0.0300767 0.0298296 0.0295395 0.0292073 0.0288341 0.0284208 