# vtk DataFile Version 4.0
vtk output
ASCII
DATASET STRUCTURED_POINTS
DIMENSIONS 62 62 62
SPACING 0.05 0.05 0.05
ORIGIN -1.525 -1.525 -1.525
POINT_DATA 238328
FIELD FieldData 1
potential 1 238328 double
0.00648807 0.0064891 0.00649014 0.00649117 0.00649221 0.00649324 0.00649428 0.00649531 0.00649635 
0.00649738 0.00649842 0.00649945 0.00650049 0.00650153 0.00650256 0.0065036 0.00650464 0.00650567 
0.00650671 0.00650775 0.00650879 0.00650983 0.00651086 0.0065119 0.00651294 0.00651398 0.00651502 
0.00651606 0.0065171 0.00651813 0.00651917 0.00652021 0.00652125 0.00652229 0.00652333 0.00652437 
0.00652541 0.00652646 0.0065275 0.00652854 0.00652958 0.00653062 0.00653166 0.0065327 0.00653375 
0.00653479 0.00653583 0.00653687 0.00653792 0.00653896 0.00654 0.00654105 0.00654209 0.00654313 
0.00654418 0.00654522 0.00654626 0.00654731 0.00654835 0.0065494 0.00655044 0.00655149 0.00648695 
0.00648799 0.00648902 0.00649005 0.00649109 0.00649212 0.00649316 0.00649419 0.00649522 0.00649626 
0.00649729 0.00649833 0.00649936 0.0065004 0.00650144 0.00650247 0.00650351 0.00650454 0.00650558 
0.00650662 0.00650765 0.00650869 0.00650973 0.00651076 0.0065118 0.00651284 0.00651388 0.00651492 
0.00651595 0.00651699 0.00651803 0.00651907 0.00652011 0.00652115 0.00652219 0.00652323 0.00652427 
0.00652531 0.00652635 0.00652739 0.00652843 0.00652947 0.00653051 0.00653155 0.00653259 0.00653363 
0.00653467 0.00653571 0.00653675 0.0065378 0.00653884 0.00653988 0.00654092 0.00654197 0.00654301 
0.00654405 0.0065451 0.00654614 0.00654718 0.00654823 0.00654927 0.00655031 0.00648584 0.00648687 
0.0064879 0.00648894 0.00648997 0.006491 0.00649204 0.00649307 0.0064941 0.00649514 0.00649617 
0.0064972 0.00649824 0.00649927 0.00650031 0.00650134 0.00650238 0.00650341 0.00650445 0.00650548 
0.00650652 0.00650756 0.00650859 0.00650963 0.00651066 0.0065117 0.00651274 0.00651377 0.00651481 
0.00651585 0.00651689 0.00651792 0.00651896 0.00652 0.00652104 0.00652208 0.00652312 0.00652415 
0.00652519 0.00652623 0.00652727 0.00652831 0.00652935 0.00653039 0.00653143 0.00653247 0.00653351 
0.00653455 0.00653559 0.00653663 0.00653767 0.00653872 0.00653976 0.0065408 0.00654184 0.00654288 
0.00654393 0.00654497 0.00654601 0.00654705 0.0065481 0.00654914 0.00648472 0.00648576 0.00648679 
0.00648782 0.00648885 0.00648988 0.00649092 0.00649195 0.00649298 0.00649401 0.00649505 0.00649608 
0.00649711 0.00649815 0.00649918 0.00650021 0.00650125 0.00650228 0.00650332 0.00650435 0.00650539 
0.00650642 0.00650746 0.00650849 0.00650953 0.00651056 0.0065116 0.00651263 0.00651367 0.00651471 
0.00651574 0.00651678 0.00651782 0.00651885 0.00651989 0.00652093 0.00652197 0.006523 0.00652404 
0.00652508 0.00652612 0.00652716 0.00652819 0.00652923 0.00653027 0.00653131 0.00653235 0.00653339 
0.00653443 0.00653547 0.00653651 0.00653755 0.00653859 0.00653963 0.00654067 0.00654171 0.00654276 
0.0065438 0.00654484 0.00654588 0.00654692 0.00654796 0.00648361 0.00648464 0.00648567 0.0064867 
0.00648773 0.00648876 0.00648979 0.00649083 0.00649186 0.00649289 0.00649392 0.00649495 0.00649599 
0.00649702 0.00649805 0.00649908 0.00650012 0.00650115 0.00650218 0.00650322 0.00650425 0.00650529 
0.00650632 0.00650735 0.00650839 0.00650942 0.00651046 0.00651149 0.00651253 0.00651356 0.0065146 
0.00651563 0.00651667 0.00651771 0.00651874 0.00651978 0.00652082 0.00652185 0.00652289 0.00652393 
0.00652496 0.006526 0.00652704 0.00652808 0.00652911 0.00653015 0.00653119 0.00653223 0.00653327 
0.00653431 0.00653535 0.00653639 0.00653743 0.00653846 0.0065395 0.00654054 0.00654159 0.00654263 
0.00654367 0.00654471 0.00654575 0.00654679 0.00648249 0.00648352 0.00648455 0.00648558 0.00648661 
0.00648764 0.00648867 0.0064897 0.00649073 0.00649177 0.0064928 0.00649383 0.00649486 0.00649589 
0.00649692 0.00649795 0.00649899 0.00650002 0.00650105 0.00650208 0.00650312 0.00650415 0.00650518 
0.00650622 0.00650725 0.00650828 0.00650932 0.00651035 0.00651139 0.00651242 0.00651345 0.00651449 
0.00651552 0.00651656 0.00651759 0.00651863 0.00651967 0.0065207 0.00652174 0.00652277 0.00652381 
0.00652485 0.00652588 0.00652692 0.00652796 0.00652899 0.00653003 0.00653107 0.00653211 0.00653314 
0.00653418 0.00653522 0.00653626 0.0065373 0.00653834 0.00653938 0.00654041 0.00654145 0.00654249 
0.00654353 0.00654457 0.00654561 0.00648138 0.00648241 0.00648344 0.00648446 0.00648549 0.00648652 
0.00648755 0.00648858 0.00648961 0.00649064 0.00649167 0.0064927 0.00649373 0.00649476 0.00649579 
0.00649682 0.00649786 0.00649889 0.00649992 0.00650095 0.00650198 0.00650301 0.00650405 0.00650508 
0.00650611 0.00650714 0.00650818 0.00650921 0.00651024 0.00651128 0.00651231 0.00651334 0.00651438 
0.00651541 0.00651645 0.00651748 0.00651851 0.00651955 0.00652058 0.00652162 0.00652265 0.00652369 
0.00652473 0.00652576 0.0065268 0.00652783 0.00652887 0.00652991 0.00653094 0.00653198 0.00653302 
0.00653405 0.00653509 0.00653613 0.00653717 0.00653821 0.00653924 0.00654028 0.00654132 0.00654236 
0.0065434 0.00654444 0.00648026 0.00648129 0.00648232 0.00648335 0.00648437 0.0064854 0.00648643 
0.00648746 0.00648849 0.00648952 0.00649055 0.00649158 0.00649261 0.00649363 0.00649466 0.00649569 
0.00649672 0.00649776 0.00649879 0.00649982 0.00650085 0.00650188 0.00650291 0.00650394 0.00650497 
0.006506 0.00650704 0.00650807 0.0065091 0.00651013 0.00651116 0.0065122 0.00651323 0.00651426 
0.0065153 0.00651633 0.00651736 0.0065184 0.00651943 0.00652047 0.0065215 0.00652253 0.00652357 
0.0065246 0.00652564 0.00652667 0.00652771 0.00652874 0.00652978 0.00653082 0.00653185 0.00653289 
0.00653393 0.00653496 0.006536 0.00653704 0.00653807 0.00653911 0.00654015 0.00654119 0.00654222 
0.00654326 0.00647915 0.00648017 0.0064812 0.00648223 0.00648325 0.00648428 0.00648531 0.00648634 
0.00648736 0.00648839 0.00648942 0.00649045 0.00649148 0.00649251 0.00649354 0.00649456 0.00649559 
0.00649662 0.00649765 0.00649868 0.00649971 0.00650074 0.00650177 0.0065028 0.00650383 0.00650486 
0.00650589 0.00650693 0.00650796 0.00650899 0.00651002 0.00651105 0.00651208 0.00651312 0.00651415 
0.00651518 0.00651621 0.00651725 0.00651828 0.00651931 0.00652034 0.00652138 0.00652241 0.00652345 
0.00652448 0.00652551 0.00652655 0.00652758 0.00652862 0.00652965 0.00653069 0.00653172 0.00653276 
0.00653379 0.00653483 0.00653587 0.0065369 0.00653794 0.00653897 0.00654001 0.00654105 0.00654208 
0.00647803 0.00647906 0.00648008 0.00648111 0.00648213 0.00648316 0.00648419 0.00648521 0.00648624 
0.00648727 0.0064883 0.00648932 0.00649035 0.00649138 0.00649241 0.00649343 0.00649446 0.00649549 
0.00649652 0.00649755 0.00649858 0.00649961 0.00650063 0.00650166 0.00650269 0.00650372 0.00650475 
0.00650578 0.00650681 0.00650784 0.00650887 0.0065099 0.00651094 0.00651197 0.006513 0.00651403 
0.00651506 0.00651609 0.00651712 0.00651816 0.00651919 0.00652022 0.00652125 0.00652229 0.00652332 
0.00652435 0.00652539 0.00652642 0.00652745 0.00652849 0.00652952 0.00653056 0.00653159 0.00653262 
0.00653366 0.00653469 0.00653573 0.00653677 0.0065378 0.00653884 0.00653987 0.00654091 0.00647691 
0.00647794 0.00647896 0.00647999 0.00648101 0.00648204 0.00648307 0.00648409 0.00648512 0.00648614 
0.00648717 0.0064882 0.00648922 0.00649025 0.00649128 0.0064923 0.00649333 0.00649436 0.00649538 
0.00649641 0.00649744 0.00649847 0.0064995 0.00650053 0.00650155 0.00650258 0.00650361 0.00650464 
0.00650567 0.0065067 0.00650773 0.00650876 0.00650979 0.00651082 0.00651185 0.00651288 0.00651391 
0.00651494 0.00651597 0.006517 0.00651803 0.00651906 0.0065201 0.00652113 0.00652216 0.00652319 
0.00652422 0.00652526 0.00652629 0.00652732 0.00652836 0.00652939 0.00653042 0.00653146 0.00653249 
0.00653352 0.00653456 0.00653559 0.00653663 0.00653766 0.0065387 0.00653973 0.0064758 0.00647682 
0.00647785 0.00647887 0.00647989 0.00648092 0.00648194 0.00648297 0.00648399 0.00648502 0.00648604 
0.00648707 0.00648809 0.00648912 0.00649015 0.00649117 0.0064922 0.00649322 0.00649425 0.00649528 
0.0064963 0.00649733 0.00649836 0.00649939 0.00650041 0.00650144 0.00650247 0.0065035 0.00650453 
0.00650555 0.00650658 0.00650761 0.00650864 0.00650967 0.0065107 0.00651173 0.00651276 0.00651379 
0.00651482 0.00651585 0.00651688 0.00651791 0.00651894 0.00651997 0.006521 0.00652203 0.00652306 
0.00652409 0.00652513 0.00652616 0.00652719 0.00652822 0.00652925 0.00653029 0.00653132 0.00653235 
0.00653339 0.00653442 0.00653545 0.00653649 0.00653752 0.00653855 0.00647468 0.0064757 0.00647673 
0.00647775 0.00647877 0.0064798 0.00648082 0.00648184 0.00648287 0.00648389 0.00648492 0.00648594 
0.00648697 0.00648799 0.00648902 0.00649004 0.00649107 0.00649209 0.00649312 0.00649414 0.00649517 
0.00649619 0.00649722 0.00649825 0.00649927 0.0065003 0.00650133 0.00650235 0.00650338 0.00650441 
0.00650544 0.00650646 0.00650749 0.00650852 0.00650955 0.00651058 0.00651161 0.00651263 0.00651366 
0.00651469 0.00651572 0.00651675 0.00651778 0.00651881 0.00651984 0.00652087 0.0065219 0.00652293 
0.00652396 0.00652499 0.00652602 0.00652706 0.00652809 0.00652912 0.00653015 0.00653118 0.00653221 
0.00653325 0.00653428 0.00653531 0.00653634 0.00653738 0.00647356 0.00647459 0.00647561 0.00647663 
0.00647765 0.00647868 0.0064797 0.00648072 0.00648174 0.00648277 0.00648379 0.00648481 0.00648584 
0.00648686 0.00648788 0.00648891 0.00648993 0.00649096 0.00649198 0.00649301 0.00649403 0.00649506 
0.00649608 0.00649711 0.00649813 0.00649916 0.00650018 0.00650121 0.00650224 0.00650326 0.00650429 
0.00650532 0.00650634 0.00650737 0.0065084 0.00650943 0.00651045 0.00651148 0.00651251 0.00651354 
0.00651457 0.00651559 0.00651662 0.00651765 0.00651868 0.00651971 0.00652074 0.00652177 0.0065228 
0.00652383 0.00652486 0.00652589 0.00652692 0.00652795 0.00652898 0.00653001 0.00653104 0.00653207 
0.0065331 0.00653414 0.00653517 0.0065362 0.00647245 0.00647347 0.00647449 0.00647551 0.00647653 
0.00647755 0.00647858 0.0064796 0.00648062 0.00648164 0.00648266 0.00648369 0.00648471 0.00648573 
0.00648675 0.00648778 0.0064888 0.00648982 0.00649085 0.00649187 0.0064929 0.00649392 0.00649494 
0.00649597 0.00649699 0.00649802 0.00649904 0.00650007 0.00650109 0.00650212 0.00650314 0.00650417 
0.0065052 0.00650622 0.00650725 0.00650827 0.0065093 0.00651033 0.00651135 0.00651238 0.00651341 
0.00651444 0.00651546 0.00651649 0.00651752 0.00651855 0.00651958 0.0065206 0.00652163 0.00652266 
0.00652369 0.00652472 0.00652575 0.00652678 0.00652781 0.00652884 0.00652987 0.0065309 0.00653193 
0.00653296 0.00653399 0.00653502 0.00647133 0.00647235 0.00647337 0.00647439 0.00647541 0.00647643 
0.00647745 0.00647847 0.00647949 0.00648051 0.00648154 0.00648256 0.00648358 0.0064846 0.00648562 
0.00648665 0.00648767 0.00648869 0.00648971 0.00649074 0.00649176 0.00649278 0.0064938 0.00649483 
0.00649585 0.00649688 0.0064979 0.00649892 0.00649995 0.00650097 0.006502 0.00650302 0.00650405 
0.00650507 0.0065061 0.00650712 0.00650815 0.00650917 0.0065102 0.00651123 0.00651225 0.00651328 
0.0065143 0.00651533 0.00651636 0.00651739 0.00651841 0.00651944 0.00652047 0.0065215 0.00652252 
0.00652355 0.00652458 0.00652561 0.00652664 0.00652767 0.0065287 0.00652972 0.00653075 0.00653178 
0.00653281 0.00653384 0.00647021 0.00647123 0.00647225 0.00647327 0.00647429 0.00647531 0.00647633 
0.00647735 0.00647837 0.00647939 0.00648041 0.00648143 0.00648245 0.00648347 0.00648449 0.00648551 
0.00648653 0.00648756 0.00648858 0.0064896 0.00649062 0.00649164 0.00649267 0.00649369 0.00649471 
0.00649573 0.00649676 0.00649778 0.0064988 0.00649983 0.00650085 0.00650187 0.0065029 0.00650392 
0.00650495 0.00650597 0.00650699 0.00650802 0.00650904 0.00651007 0.00651109 0.00651212 0.00651315 
0.00651417 0.0065152 0.00651622 0.00651725 0.00651828 0.0065193 0.00652033 0.00652136 0.00652238 
0.00652341 0.00652444 0.00652547 0.00652649 0.00652752 0.00652855 0.00652958 0.00653061 0.00653164 
0.00653267 0.00646909 0.00647011 0.00647113 0.00647215 0.00647317 0.00647419 0.0064752 0.00647622 
0.00647724 0.00647826 0.00647928 0.0064803 0.00648132 0.00648234 0.00648336 0.00648438 0.0064854 
0.00648642 0.00648744 0.00648846 0.00648948 0.0064905 0.00649153 0.00649255 0.00649357 0.00649459 
0.00649561 0.00649664 0.00649766 0.00649868 0.0064997 0.00650073 0.00650175 0.00650277 0.00650379 
0.00650482 0.00650584 0.00650687 0.00650789 0.00650891 0.00650994 0.00651096 0.00651199 0.00651301 
0.00651404 0.00651506 0.00651609 0.00651711 0.00651814 0.00651916 0.00652019 0.00652122 0.00652224 
0.00652327 0.0065243 0.00652532 0.00652635 0.00652738 0.0065284 0.00652943 0.00653046 0.00653149 
0.00646798 0.00646899 0.00647001 0.00647103 0.00647205 0.00647306 0.00647408 0.0064751 0.00647612 
0.00647713 0.00647815 0.00647917 0.00648019 0.00648121 0.00648223 0.00648325 0.00648427 0.00648529 
0.00648631 0.00648733 0.00648835 0.00648937 0.00649039 0.00649141 0.00649243 0.00649345 0.00649447 
0.00649549 0.00649651 0.00649753 0.00649855 0.00649958 0.0065006 0.00650162 0.00650264 0.00650367 
0.00650469 0.00650571 0.00650673 0.00650776 0.00650878 0.0065098 0.00651083 0.00651185 0.00651287 
0.0065139 0.00651492 0.00651595 0.00651697 0.006518 0.00651902 0.00652005 0.00652107 0.0065221 
0.00652312 0.00652415 0.00652518 0.0065262 0.00652723 0.00652825 0.00652928 0.00653031 0.00646686 
0.00646787 0.00646889 0.00646991 0.00647092 0.00647194 0.00647296 0.00647397 0.00647499 0.00647601 
0.00647703 0.00647804 0.00647906 0.00648008 0.0064811 0.00648211 0.00648313 0.00648415 0.00648517 
0.00648619 0.00648721 0.00648823 0.00648925 0.00649027 0.00649129 0.00649231 0.00649333 0.00649435 
0.00649537 0.00649639 0.00649741 0.00649843 0.00649945 0.00650047 0.00650149 0.00650251 0.00650353 
0.00650456 0.00650558 0.0065066 0.00650762 0.00650864 0.00650967 0.00651069 0.00651171 0.00651274 
0.00651376 0.00651478 0.00651581 0.00651683 0.00651785 0.00651888 0.0065199 0.00652093 0.00652195 
0.00652298 0.006524 0.00652503 0.00652605 0.00652708 0.0065281 0.00652913 0.00646574 0.00646675 
0.00646777 0.00646879 0.0064698 0.00647082 0.00647183 0.00647285 0.00647386 0.00647488 0.0064759 
0.00647691 0.00647793 0.00647895 0.00647996 0.00648098 0.006482 0.00648302 0.00648403 0.00648505 
0.00648607 0.00648709 0.00648811 0.00648913 0.00649014 0.00649116 0.00649218 0.0064932 0.00649422 
0.00649524 0.00649626 0.00649728 0.0064983 0.00649932 0.00650034 0.00650136 0.00650238 0.0065034 
0.00650442 0.00650544 0.00650646 0.00650749 0.00650851 0.00650953 0.00651055 0.00651157 0.0065126 
0.00651362 0.00651464 0.00651566 0.00651669 0.00651771 0.00651873 0.00651976 0.00652078 0.0065218 
0.00652283 0.00652385 0.00652488 0.0065259 0.00652693 0.00652795 0.00646462 0.00646563 0.00646665 
0.00646766 0.00646868 0.00646969 0.00647071 0.00647172 0.00647274 0.00647375 0.00647477 0.00647578 
0.0064768 0.00647782 0.00647883 0.00647985 0.00648086 0.00648188 0.0064829 0.00648391 0.00648493 
0.00648595 0.00648697 0.00648798 0.006489 0.00649002 0.00649104 0.00649206 0.00649307 0.00649409 
0.00649511 0.00649613 0.00649715 0.00649817 0.00649919 0.00650021 0.00650123 0.00650225 0.00650327 
0.00650429 0.00650531 0.00650633 0.00650735 0.00650837 0.00650939 0.00651041 0.00651143 0.00651245 
0.00651347 0.0065145 0.00651552 0.00651654 0.00651756 0.00651859 0.00651961 0.00652063 0.00652165 
0.00652268 0.0065237 0.00652472 0.00652575 0.00652677 0.0064635 0.00646452 0.00646553 0.00646654 
0.00646756 0.00646857 0.00646958 0.0064706 0.00647161 0.00647263 0.00647364 0.00647465 0.00647567 
0.00647668 0.0064777 0.00647871 0.00647973 0.00648075 0.00648176 0.00648278 0.00648379 0.00648481 
0.00648583 0.00648684 0.00648786 0.00648888 0.00648989 0.00649091 0.00649193 0.00649295 0.00649396 
0.00649498 0.006496 0.00649702 0.00649804 0.00649905 0.00650007 0.00650109 0.00650211 0.00650313 
0.00650415 0.00650517 0.00650619 0.00650721 0.00650823 0.00650925 0.00651027 0.00651129 0.00651231 
0.00651333 0.00651435 0.00651537 0.00651639 0.00651741 0.00651844 0.00651946 0.00652048 0.0065215 
0.00652252 0.00652355 0.00652457 0.00652559 0.00646238 0.00646339 0.00646441 0.00646542 0.00646643 
0.00646744 0.00646846 0.00646947 0.00647048 0.0064715 0.00647251 0.00647352 0.00647454 0.00647555 
0.00647657 0.00647758 0.0064786 0.00647961 0.00648062 0.00648164 0.00648265 0.00648367 0.00648469 
0.0064857 0.00648672 0.00648773 0.00648875 0.00648976 0.00649078 0.0064918 0.00649281 0.00649383 
0.00649485 0.00649587 0.00649688 0.0064979 0.00649892 0.00649994 0.00650095 0.00650197 0.00650299 
0.00650401 0.00650503 0.00650605 0.00650706 0.00650808 0.0065091 0.00651012 0.00651114 0.00651216 
0.00651318 0.0065142 0.00651522 0.00651624 0.00651726 0.00651828 0.0065193 0.00652033 0.00652135 
0.00652237 0.00652339 0.00652441 0.00646126 0.00646227 0.00646329 0.0064643 0.00646531 0.00646632 
0.00646733 0.00646834 0.00646936 0.00647037 0.00647138 0.00647239 0.00647341 0.00647442 0.00647543 
0.00647645 0.00647746 0.00647847 0.00647949 0.0064805 0.00648152 0.00648253 0.00648354 0.00648456 
0.00648557 0.00648659 0.0064876 0.00648862 0.00648963 0.00649065 0.00649167 0.00649268 0.0064937 
0.00649471 0.00649573 0.00649675 0.00649776 0.00649878 0.0064998 0.00650081 0.00650183 0.00650285 
0.00650387 0.00650488 0.0065059 0.00650692 0.00650794 0.00650896 0.00650997 0.00651099 0.00651201 
0.00651303 0.00651405 0.00651507 0.00651609 0.00651711 0.00651813 0.00651915 0.00652017 0.00652119 
0.00652221 0.00652323 0.00646014 0.00646115 0.00646216 0.00646317 0.00646419 0.0064652 0.00646621 
0.00646722 0.00646823 0.00646924 0.00647025 0.00647126 0.00647228 0.00647329 0.0064743 0.00647531 
0.00647633 0.00647734 0.00647835 0.00647936 0.00648038 0.00648139 0.0064824 0.00648342 0.00648443 
0.00648544 0.00648646 0.00648747 0.00648849 0.0064895 0.00649052 0.00649153 0.00649255 0.00649356 
0.00649458 0.00649559 0.00649661 0.00649762 0.00649864 0.00649966 0.00650067 0.00650169 0.0065027 
0.00650372 0.00650474 0.00650576 0.00650677 0.00650779 0.00650881 0.00650983 0.00651084 0.00651186 
0.00651288 0.0065139 0.00651492 0.00651594 0.00651695 0.00651797 0.00651899 0.00652001 0.00652103 
0.00652205 0.00645902 0.00646003 0.00646104 0.00646205 0.00646306 0.00646407 0.00646508 0.00646609 
0.0064671 0.00646811 0.00646912 0.00647013 0.00647114 0.00647216 0.00647317 0.00647418 0.00647519 
0.0064762 0.00647721 0.00647823 0.00647924 0.00648025 0.00648126 0.00648227 0.00648329 0.0064843 
0.00648531 0.00648633 0.00648734 0.00648835 0.00648937 0.00649038 0.0064914 0.00649241 0.00649342 
0.00649444 0.00649545 0.00649647 0.00649748 0.0064985 0.00649951 0.00650053 0.00650154 0.00650256 
0.00650358 0.00650459 0.00650561 0.00650662 0.00650764 0.00650866 0.00650967 0.00651069 0.00651171 
0.00651273 0.00651374 0.00651476 0.00651578 0.0065168 0.00651782 0.00651883 0.00651985 0.00652087 
0.0064579 0.00645891 0.00645992 0.00646093 0.00646194 0.00646295 0.00646396 0.00646496 0.00646597 
0.00646698 0.00646799 0.006469 0.00647001 0.00647102 0.00647203 0.00647304 0.00647405 0.00647506 
0.00647608 0.00647709 0.0064781 0.00647911 0.00648012 0.00648113 0.00648214 0.00648316 0.00648417 
0.00648518 0.00648619 0.00648721 0.00648822 0.00648923 0.00649024 0.00649126 0.00649227 0.00649328 
0.0064943 0.00649531 0.00649632 0.00649734 0.00649835 0.00649937 0.00650038 0.0065014 0.00650241 
0.00650343 0.00650444 0.00650546 0.00650647 0.00650749 0.0065085 0.00650952 0.00651054 0.00651155 
0.00651257 0.00651359 0.0065146 0.00651562 0.00651664 0.00651766 0.00651867 0.00651969 0.00645678 
0.00645779 0.0064588 0.00645981 0.00646081 0.00646182 0.00646283 0.00646384 0.00646485 0.00646585 
0.00646686 0.00646787 0.00646888 0.00646989 0.0064709 0.00647191 0.00647292 0.00647393 0.00647494 
0.00647595 0.00647696 0.00647797 0.00647898 0.00647999 0.006481 0.00648201 0.00648302 0.00648403 
0.00648504 0.00648606 0.00648707 0.00648808 0.00648909 0.0064901 0.00649112 0.00649213 0.00649314 
0.00649415 0.00649517 0.00649618 0.00649719 0.00649821 0.00649922 0.00650023 0.00650125 0.00650226 
0.00650328 0.00650429 0.00650531 0.00650632 0.00650734 0.00650835 0.00650937 0.00651038 0.0065114 
0.00651241 0.00651343 0.00651444 0.00651546 0.00651648 0.00651749 0.00651851 0.00645566 0.00645667 
0.00645768 0.00645868 0.00645969 0.0064607 0.0064617 0.00646271 0.00646372 0.00646473 0.00646573 
0.00646674 0.00646775 0.00646876 0.00646977 0.00647077 0.00647178 0.00647279 0.0064738 0.00647481 
0.00647582 0.00647683 0.00647784 0.00647885 0.00647986 0.00648087 0.00648188 0.00648289 0.0064839 
0.00648491 0.00648592 0.00648693 0.00648794 0.00648895 0.00648996 0.00649097 0.00649199 0.006493 
0.00649401 0.00649502 0.00649603 0.00649705 0.00649806 0.00649907 0.00650008 0.0065011 0.00650211 
0.00650312 0.00650414 0.00650515 0.00650617 0.00650718 0.00650819 0.00650921 0.00651022 0.00651124 
0.00651225 0.00651327 0.00651428 0.0065153 0.00651631 0.00651733 0.00645454 0.00645555 0.00645655 
0.00645756 0.00645856 0.00645957 0.00646058 0.00646158 0.00646259 0.0064636 0.0064646 0.00646561 
0.00646662 0.00646762 0.00646863 0.00646964 0.00647065 0.00647165 0.00647266 0.00647367 0.00647468 
0.00647569 0.00647669 0.0064777 0.00647871 0.00647972 0.00648073 0.00648174 0.00648275 0.00648376 
0.00648477 0.00648578 0.00648679 0.0064878 0.00648881 0.00648982 0.00649083 0.00649184 0.00649285 
0.00649386 0.00649487 0.00649589 0.0064969 0.00649791 0.00649892 0.00649993 0.00650094 0.00650196 
0.00650297 0.00650398 0.006505 0.00650601 0.00650702 0.00650803 0.00650905 0.00651006 0.00651108 
0.00651209 0.0065131 0.00651412 0.00651513 0.00651615 0.00645342 0.00645443 0.00645543 0.00645644 
0.00645744 0.00645844 0.00645945 0.00646046 0.00646146 0.00646247 0.00646347 0.00646448 0.00646548 
0.00646649 0.0064675 0.0064685 0.00646951 0.00647052 0.00647152 0.00647253 0.00647354 0.00647454 
0.00647555 0.00647656 0.00647757 0.00647858 0.00647958 0.00648059 0.0064816 0.00648261 0.00648362 
0.00648463 0.00648564 0.00648665 0.00648765 0.00648866 0.00648967 0.00649068 0.00649169 0.0064927 
0.00649371 0.00649472 0.00649573 0.00649675 0.00649776 0.00649877 0.00649978 0.00650079 0.0065018 
0.00650281 0.00650383 0.00650484 0.00650585 0.00650686 0.00650787 0.00650889 0.0065099 0.00651091 
0.00651193 0.00651294 0.00651395 0.00651497 0.0064523 0.0064533 0.00645431 0.00645531 0.00645631 
0.00645732 0.00645832 0.00645933 0.00646033 0.00646134 0.00646234 0.00646335 0.00646435 0.00646536 
0.00646636 0.00646737 0.00646837 0.00646938 0.00647038 0.00647139 0.0064724 0.0064734 0.00647441 
0.00647542 0.00647642 0.00647743 0.00647844 0.00647944 0.00648045 0.00648146 0.00648247 0.00648348 
0.00648448 0.00648549 0.0064865 0.00648751 0.00648852 0.00648953 0.00649053 0.00649154 0.00649255 
0.00649356 0.00649457 0.00649558 0.00649659 0.0064976 0.00649861 0.00649962 0.00650063 0.00650164 
0.00650265 0.00650367 0.00650468 0.00650569 0.0065067 0.00650771 0.00650872 0.00650973 0.00651075 
0.00651176 0.00651277 0.00651378 0.00645118 0.00645218 0.00645318 0.00645419 0.00645519 0.00645619 
0.0064572 0.0064582 0.0064592 0.00646021 0.00646121 0.00646221 0.00646322 0.00646422 0.00646523 
0.00646623 0.00646724 0.00646824 0.00646925 0.00647025 0.00647126 0.00647226 0.00647327 0.00647427 
0.00647528 0.00647628 0.00647729 0.0064783 0.0064793 0.00648031 0.00648132 0.00648232 0.00648333 
0.00648434 0.00648535 0.00648635 0.00648736 0.00648837 0.00648938 0.00649038 0.00649139 0.0064924 
0.00649341 0.00649442 0.00649543 0.00649644 0.00649745 0.00649845 0.00649946 0.00650047 0.00650148 
0.00650249 0.0065035 0.00650451 0.00650552 0.00650654 0.00650755 0.00650856 0.00650957 0.00651058 
0.00651159 0.0065126 0.00645006 0.00645106 0.00645206 0.00645306 0.00645406 0.00645507 0.00645607 
0.00645707 0.00645807 0.00645908 0.00646008 0.00646108 0.00646209 0.00646309 0.00646409 0.0064651 
0.0064661 0.0064671 0.00646811 0.00646911 0.00647012 0.00647112 0.00647212 0.00647313 0.00647413 
0.00647514 0.00647614 0.00647715 0.00647815 0.00647916 0.00648017 0.00648117 0.00648218 0.00648318 
0.00648419 0.0064852 0.0064862 0.00648721 0.00648822 0.00648922 0.00649023 0.00649124 0.00649225 
0.00649325 0.00649426 0.00649527 0.00649628 0.00649729 0.0064983 0.0064993 0.00650031 0.00650132 
0.00650233 0.00650334 0.00650435 0.00650536 0.00650637 0.00650738 0.00650839 0.0065094 0.00651041 
0.00651142 0.00644894 0.00644994 0.00645094 0.00645194 0.00645294 0.00645394 0.00645494 0.00645594 
0.00645694 0.00645795 0.00645895 0.00645995 0.00646095 0.00646195 0.00646296 0.00646396 0.00646496 
0.00646596 0.00646697 0.00646797 0.00646897 0.00646998 0.00647098 0.00647198 0.00647299 0.00647399 
0.006475 0.006476 0.00647701 0.00647801 0.00647901 0.00648002 0.00648102 0.00648203 0.00648304 
0.00648404 0.00648505 0.00648605 0.00648706 0.00648806 0.00648907 0.00649008 0.00649108 0.00649209 
0.0064931 0.0064941 0.00649511 0.00649612 0.00649713 0.00649813 0.00649914 0.00650015 0.00650116 
0.00650217 0.00650317 0.00650418 0.00650519 0.0065062 0.00650721 0.00650822 0.00650923 0.00651024 
0.00644781 0.00644881 0.00644981 0.00645081 0.00645181 0.00645281 0.00645381 0.00645481 0.00645581 
0.00645682 0.00645782 0.00645882 0.00645982 0.00646082 0.00646182 0.00646282 0.00646382 0.00646483 
0.00646583 0.00646683 0.00646783 0.00646883 0.00646984 0.00647084 0.00647184 0.00647285 0.00647385 
0.00647485 0.00647586 0.00647686 0.00647786 0.00647887 0.00647987 0.00648088 0.00648188 0.00648288 
0.00648389 0.00648489 0.0064859 0.0064869 0.00648791 0.00648891 0.00648992 0.00649093 0.00649193 
0.00649294 0.00649394 0.00649495 0.00649596 0.00649696 0.00649797 0.00649898 0.00649998 0.00650099 
0.006502 0.00650301 0.00650401 0.00650502 0.00650603 0.00650704 0.00650805 0.00650906 0.00644669 
0.00644769 0.00644869 0.00644969 0.00645069 0.00645169 0.00645269 0.00645368 0.00645468 0.00645568 
0.00645668 0.00645768 0.00645868 0.00645968 0.00646069 0.00646169 0.00646269 0.00646369 0.00646469 
0.00646569 0.00646669 0.00646769 0.00646869 0.0064697 0.0064707 0.0064717 0.0064727 0.0064737 
0.00647471 0.00647571 0.00647671 0.00647772 0.00647872 0.00647972 0.00648072 0.00648173 0.00648273 
0.00648374 0.00648474 0.00648574 0.00648675 0.00648775 0.00648876 0.00648976 0.00649077 0.00649177 
0.00649278 0.00649378 0.00649479 0.00649579 0.0064968 0.00649781 0.00649881 0.00649982 0.00650082 
0.00650183 0.00650284 0.00650384 0.00650485 0.00650586 0.00650687 0.00650787 0.00644557 0.00644657 
0.00644756 0.00644856 0.00644956 0.00645056 0.00645156 0.00645256 0.00645355 0.00645455 0.00645555 
0.00645655 0.00645755 0.00645855 0.00645955 0.00646055 0.00646155 0.00646255 0.00646355 0.00646455 
0.00646555 0.00646655 0.00646755 0.00646855 0.00646955 0.00647055 0.00647155 0.00647256 0.00647356 
0.00647456 0.00647556 0.00647656 0.00647756 0.00647857 0.00647957 0.00648057 0.00648157 0.00648258 
0.00648358 0.00648458 0.00648559 0.00648659 0.00648759 0.0064886 0.0064896 0.00649061 0.00649161 
0.00649261 0.00649362 0.00649462 0.00649563 0.00649663 0.00649764 0.00649864 0.00649965 0.00650065 
0.00650166 0.00650267 0.00650367 0.00650468 0.00650568 0.00650669 0.00644445 0.00644544 0.00644644 
0.00644744 0.00644843 0.00644943 0.00645043 0.00645143 0.00645242 0.00645342 0.00645442 0.00645542 
0.00645642 0.00645741 0.00645841 0.00645941 0.00646041 0.00646141 0.00646241 0.00646341 0.00646441 
0.00646541 0.00646641 0.00646741 0.00646841 0.00646941 0.00647041 0.00647141 0.00647241 0.00647341 
0.00647441 0.00647541 0.00647641 0.00647741 0.00647841 0.00647941 0.00648042 0.00648142 0.00648242 
0.00648342 0.00648442 0.00648543 0.00648643 0.00648743 0.00648844 0.00648944 0.00649044 0.00649144 
0.00649245 0.00649345 0.00649446 0.00649546 0.00649646 0.00649747 0.00649847 0.00649948 0.00650048 
0.00650149 0.00650249 0.0065035 0.0065045 0.00650551 0.00644332 0.00644432 0.00644532 0.00644631 
0.00644731 0.0064483 0.0064493 0.0064503 0.00645129 0.00645229 0.00645329 0.00645428 0.00645528 
0.00645628 0.00645728 0.00645827 0.00645927 0.00646027 0.00646127 0.00646227 0.00646326 0.00646426 
0.00646526 0.00646626 0.00646726 0.00646826 0.00646926 0.00647026 0.00647126 0.00647226 0.00647326 
0.00647426 0.00647526 0.00647626 0.00647726 0.00647826 0.00647926 0.00648026 0.00648126 0.00648226 
0.00648326 0.00648426 0.00648527 0.00648627 0.00648727 0.00648827 0.00648927 0.00649028 0.00649128 
0.00649228 0.00649328 0.00649429 0.00649529 0.00649629 0.0064973 0.0064983 0.0064993 0.00650031 
0.00650131 0.00650232 0.00650332 0.00650432 0.0064422 0.0064432 0.00644419 0.00644519 0.00644618 
0.00644718 0.00644817 0.00644917 0.00645016 0.00645116 0.00645215 0.00645315 0.00645415 0.00645514 
0.00645614 0.00645714 0.00645813 0.00645913 0.00646013 0.00646113 0.00646212 0.00646312 0.00646412 
0.00646512 0.00646611 0.00646711 0.00646811 0.00646911 0.00647011 0.00647111 0.0064721 0.0064731 
0.0064741 0.0064751 0.0064761 0.0064771 0.0064781 0.0064791 0.0064801 0.0064811 0.0064821 
0.0064831 0.0064841 0.0064851 0.0064861 0.0064871 0.00648811 0.00648911 0.00649011 0.00649111 
0.00649211 0.00649311 0.00649412 0.00649512 0.00649612 0.00649712 0.00649813 0.00649913 0.00650013 
0.00650113 0.00650214 0.00650314 0.00644108 0.00644207 0.00644307 0.00644406 0.00644505 0.00644605 
0.00644704 0.00644804 0.00644903 0.00645003 0.00645102 0.00645202 0.00645301 0.00645401 0.006455 
0.006456 0.006457 0.00645799 0.00645899 0.00645998 0.00646098 0.00646198 0.00646297 0.00646397 
0.00646497 0.00646596 0.00646696 0.00646796 0.00646896 0.00646995 0.00647095 0.00647195 0.00647295 
0.00647395 0.00647494 0.00647594 0.00647694 0.00647794 0.00647894 0.00647994 0.00648094 0.00648194 
0.00648294 0.00648394 0.00648494 0.00648594 0.00648694 0.00648794 0.00648894 0.00648994 0.00649094 
0.00649194 0.00649294 0.00649394 0.00649494 0.00649595 0.00649695 0.00649795 0.00649895 0.00649995 
0.00650095 0.00650196 0.00643995 0.00644095 0.00644194 0.00644293 0.00644393 0.00644492 0.00644591 
0.00644691 0.0064479 0.0064489 0.00644989 0.00645088 0.00645188 0.00645287 0.00645387 0.00645486 
0.00645586 0.00645685 0.00645785 0.00645884 0.00645984 0.00646083 0.00646183 0.00646282 0.00646382 
0.00646482 0.00646581 0.00646681 0.00646781 0.0064688 0.0064698 0.0064708 0.00647179 0.00647279 