# vtk DataFile Version 4.0
vtk output
ASCII
DATASET POLYDATA
POINTS 15218 double
96.0504 51.469 60.5639 91.6265 46.9548 63.17 96.0504 45.4934 64.0137 
96.0504 45.4934 64.0137 91.6265 46.9548 63.17 91.6265 41.2715 66.4512 
96.0504 45.4934 64.0137 91.6265 41.2715 66.4512 98.4852 41.2715 66.4512 
98.4852 41.2715 66.4512 91.6265 41.2715 66.4512 99.1482 40.2972 67.0136 
98.4852 41.2715 66.4512 99.1482 40.2972 67.0136 96.0504 45.4934 64.0137 
96.0504 57.4447 57.114 91.6265 54.0174 59.0926 96.0504 51.469 60.5639 
96.0504 51.469 60.5639 91.6265 54.0174 59.0926 91.6265 52.6382 59.8889 
96.0504 51.469 60.5639 91.6265 52.6382 59.8889 91.6265 46.9548 63.17 
91.6265 46.9548 63.17 91.6265 52.6382 59.8889 84.7678 52.6382 59.8889 
91.6265 46.9548 63.17 84.7678 52.6382 59.8889 84.7678 46.9548 63.17 
84.7678 46.9548 63.17 84.7678 52.6382 59.8889 77.9091 52.6382 59.8889 
84.7678 46.9548 63.17 77.9091 52.6382 59.8889 77.9091 46.9548 63.17 
77.9091 46.9548 63.17 77.9091 52.6382 59.8889 71.0504 52.4217 60.0139 
77.9091 46.9548 63.17 71.0504 52.4217 60.0139 71.0504 46.6842 63.3263 
91.6265 54.0174 59.0926 96.0504 57.4447 57.114 91.6265 58.3215 56.6077 
91.6265 58.3215 56.6077 96.0504 57.4447 57.114 96.0504 63.4203 53.6641 
91.6265 58.3215 56.6077 96.0504 63.4203 53.6641 91.6265 64.0049 53.3266 
91.6265 64.0049 53.3266 96.0504 63.4203 53.6641 96.0504 69.396 50.2142 
91.6265 64.0049 53.3266 96.0504 69.396 50.2142 91.6265 69.6787 50.051 
91.6265 69.6787 50.051 96.0504 69.396 50.2142 96.0504 75.3716 46.7643 
91.6265 69.6787 50.051 96.0504 75.3716 46.7643 89.8004 75.3716 46.7643 
91.6265 69.6787 50.051 89.8004 75.3716 46.7643 84.7678 69.6638 50.0596 
84.7678 69.6638 50.0596 89.8004 75.3716 46.7643 83.5504 75.3716 46.7643 
84.7678 69.6638 50.0596 83.5504 75.3716 46.7643 77.9091 69.649 50.0681 
77.9091 69.649 50.0681 83.5504 75.3716 46.7643 77.3004 75.3716 46.7643 
77.9091 69.649 50.0681 77.3004 75.3716 46.7643 71.0504 69.6341 50.0767 
71.0504 69.6341 50.0767 77.3004 75.3716 46.7643 71.0504 75.3716 46.7643 
77.9091 69.649 50.0681 71.0504 69.6341 50.0767 77.9091 64.0049 53.3266 
77.9091 64.0049 53.3266 71.0504 69.6341 50.0767 71.0504 63.8966 53.3891 
77.9091 64.0049 53.3266 71.0504 63.8966 53.3891 78.6263 61.6174 54.7049 
78.6263 61.6174 54.7049 71.0504 63.8966 53.3891 78.5504 60.8655 55.139 
78.5504 60.8655 55.139 71.0504 63.8966 53.3891 71.0504 58.1592 56.7015 
78.5504 60.8655 55.139 71.0504 58.1592 56.7015 78.6263 60.1136 55.5731 
78.6263 60.1136 55.5731 71.0504 58.1592 56.7015 77.9091 58.3215 56.6077 
78.6263 60.1136 55.5731 77.9091 58.3215 56.6077 78.8519 59.3845 55.9941 
78.8519 59.3845 55.9941 77.9091 58.3215 56.6077 79.2202 58.7004 56.389 
79.2202 58.7004 56.389 77.9091 58.3215 56.6077 79.7201 58.0821 56.746 
79.7201 58.0821 56.746 77.9091 58.3215 56.6077 80.3364 57.5484 57.0541 
80.3364 57.5484 57.0541 77.9091 58.3215 56.6077 77.9091 52.6382 59.8889 
80.3364 57.5484 57.0541 77.9091 52.6382 59.8889 81.0504 57.1155 57.304 
81.0504 57.1155 57.304 77.9091 52.6382 59.8889 81.8403 56.7965 57.4882 
81.8403 56.7965 57.4882 77.9091 52.6382 59.8889 82.6821 56.6011 57.601 
82.6821 56.6011 57.601 77.9091 52.6382 59.8889 84.7678 52.6382 59.8889 
82.6821 56.6011 57.601 84.7678 52.6382 59.8889 83.5504 56.5353 57.639 
83.5504 56.5353 57.639 84.7678 52.6382 59.8889 84.7678 56.1558 57.8581 
83.5504 56.5353 57.639 84.7678 56.1558 57.8581 84.4186 56.6011 57.601 
84.4186 56.6011 57.601 84.7678 56.1558 57.8581 85.2605 56.7965 57.4882 
85.2605 56.7965 57.4882 84.7678 56.1558 57.8581 86.0504 57.1155 57.304 
86.0504 57.1155 57.304 84.7678 56.1558 57.8581 91.6265 54.0174 59.0926 
86.0504 57.1155 57.304 91.6265 54.0174 59.0926 86.7643 57.5484 57.0541 
86.7643 57.5484 57.0541 91.6265 54.0174 59.0926 87.3806 58.0821 56.746 
87.3806 58.0821 56.746 91.6265 54.0174 59.0926 91.6265 58.3215 56.6077 
87.3806 58.0821 56.746 91.6265 58.3215 56.6077 87.8805 58.7004 56.389 
87.8805 58.7004 56.389 91.6265 58.3215 56.6077 88.2488 59.3845 55.9941 
88.2488 59.3845 55.9941 91.6265 58.3215 56.6077 88.4744 60.1136 55.5731 
88.4744 60.1136 55.5731 91.6265 58.3215 56.6077 88.5504 60.8655 55.139 
88.5504 60.8655 55.139 91.6265 58.3215 56.6077 91.6265 64.0049 53.3266 
88.5504 60.8655 55.139 91.6265 64.0049 53.3266 88.4744 61.6174 54.7049 
88.4744 61.6174 54.7049 91.6265 64.0049 53.3266 88.2488 62.3465 54.284 
88.2488 62.3465 54.284 91.6265 64.0049 53.3266 87.8805 63.0306 53.8891 
87.8805 63.0306 53.8891 91.6265 64.0049 53.3266 87.3806 63.6489 53.5321 
87.3806 63.6489 53.5321 91.6265 64.0049 53.3266 86.7643 64.1826 53.224 
86.7643 64.1826 53.224 91.6265 64.0049 53.3266 91.6265 69.6787 50.051 
86.7643 64.1826 53.224 91.6265 69.6787 50.051 86.0504 64.6156 52.974 
86.0504 64.6156 52.974 91.6265 69.6787 50.051 84.7678 69.6638 50.0596 
86.0504 64.6156 52.974 84.7678 69.6638 50.0596 85.2605 64.9345 52.7899 
85.2605 64.9345 52.7899 84.7678 69.6638 50.0596 84.4186 65.1299 52.6771 
84.4186 65.1299 52.6771 84.7678 69.6638 50.0596 83.5504 65.1957 52.6391 
83.5504 65.1957 52.6391 84.7678 69.6638 50.0596 82.6821 65.1299 52.6771 
82.6821 65.1299 52.6771 84.7678 69.6638 50.0596 77.9091 69.649 50.0681 
82.6821 65.1299 52.6771 77.9091 69.649 50.0681 81.8403 64.9345 52.7899 
81.8403 64.9345 52.7899 77.9091 69.649 50.0681 81.0504 64.6156 52.974 
81.0504 64.6156 52.974 77.9091 69.649 50.0681 77.9091 64.0049 53.3266 
81.0504 64.6156 52.974 77.9091 64.0049 53.3266 80.3364 64.1826 53.224 
80.3364 64.1826 53.224 77.9091 64.0049 53.3266 79.7201 63.6489 53.5321 
79.7201 63.6489 53.5321 77.9091 64.0049 53.3266 79.2202 63.0306 53.8891 
79.2202 63.0306 53.8891 77.9091 64.0049 53.3266 78.8519 62.3465 54.284 
78.8519 62.3465 54.284 77.9091 64.0049 53.3266 78.6263 61.6174 54.7049 
77.9091 58.3215 56.6077 71.0504 58.1592 56.7015 77.9091 52.6382 59.8889 
77.9091 52.6382 59.8889 71.0504 58.1592 56.7015 71.0504 52.4217 60.0139 
77.9091 46.9548 63.17 71.0504 46.6842 63.3263 77.9091 41.2715 66.4512 
77.9091 41.2715 66.4512 71.0504 46.6842 63.3263 71.0504 40.9467 66.6387 
77.9091 41.2715 66.4512 71.0504 40.9467 66.6387 76.1683 38.7383 67.9136 
76.1683 38.7383 67.9136 81.2863 36.5299 69.1886 77.9091 41.2715 66.4512 
77.9091 41.2715 66.4512 81.2863 36.5299 69.1886 84.7678 41.2715 66.4512 
77.9091 41.2715 66.4512 84.7678 41.2715 66.4512 77.9091 46.9548 63.17 
77.9091 46.9548 63.17 84.7678 41.2715 66.4512 84.7678 46.9548 63.17 
84.7678 41.2715 66.4512 81.2863 36.5299 69.1886 84.7678 35.5881 69.7323 
84.7678 35.5881 69.7323 81.2863 36.5299 69.1886 86.4042 34.3215 70.4635 
84.7678 35.5881 69.7323 86.4042 34.3215 70.4635 91.6265 35.5881 69.7323 
91.6265 35.5881 69.7323 86.4042 34.3215 70.4635 91.5222 32.1132 71.7385 
91.6265 35.5881 69.7323 91.5222 32.1132 71.7385 98.4852 35.5881 69.7323 
98.4852 35.5881 69.7323 91.5222 32.1132 71.7385 96.6402 29.9048 73.0135 
98.4852 35.5881 69.7323 96.6402 29.9048 73.0135 100.992 29.9048 73.0134 
105.344 29.9048 73.0134 102.246 35.101 70.0135 100.992 29.9048 73.0134 
100.992 29.9048 73.0134 102.246 35.101 70.0135 98.4852 35.5881 69.7323 
102.246 35.101 70.0135 99.1482 40.2972 67.0136 98.4852 35.5881 69.7323 
98.4852 35.5881 69.7323 99.1482 40.2972 67.0136 91.6265 41.2715 66.4512 
98.4852 35.5881 69.7323 91.6265 41.2715 66.4512 91.6265 35.5881 69.7323 
91.6265 35.5881 69.7323 91.6265 41.2715 66.4512 84.7678 41.2715 66.4512 
91.6265 35.5881 69.7323 84.7678 41.2715 66.4512 84.7678 35.5881 69.7323 
84.7678 41.2715 66.4512 91.6265 41.2715 66.4512 84.7678 46.9548 63.17 
84.7678 46.9548 63.17 91.6265 41.2715 66.4512 91.6265 46.9548 63.17 
84.7678 56.1558 57.8581 84.7678 52.6382 59.8889 91.6265 54.0174 59.0926 
91.6265 54.0174 59.0926 84.7678 52.6382 59.8889 91.6265 52.6382 59.8889 
78.6263 60.1136 55.5731 71.0504 58.1592 56.7015 78.5504 60.8655 55.139 
78.5504 60.8655 55.139 71.0504 58.1592 56.7015 71.0504 63.8966 53.3891 
78.5504 60.8655 55.139 71.0504 63.8966 53.3891 78.6263 61.6174 54.7049 
78.6263 61.6174 54.7049 71.0504 63.8966 53.3891 77.9091 64.0049 53.3266 
78.6263 61.6174 54.7049 77.9091 64.0049 53.3266 78.8519 62.3465 54.284 
78.8519 62.3465 54.284 77.9091 64.0049 53.3266 79.2202 63.0306 53.8891 
79.2202 63.0306 53.8891 77.9091 64.0049 53.3266 79.7201 63.6489 53.5321 
79.7201 63.6489 53.5321 77.9091 64.0049 53.3266 80.3364 64.1826 53.224 
80.3364 64.1826 53.224 77.9091 64.0049 53.3266 81.0504 64.6156 52.974 
81.0504 64.6156 52.974 77.9091 64.0049 53.3266 77.9091 69.649 50.0681 
81.0504 64.6156 52.974 77.9091 69.649 50.0681 81.8403 64.9345 52.7899 
81.8403 64.9345 52.7899 77.9091 69.649 50.0681 82.6821 65.1299 52.6771 
82.6821 65.1299 52.6771 77.9091 69.649 50.0681 84.7678 69.6638 50.0596 
82.6821 65.1299 52.6771 84.7678 69.6638 50.0596 83.5504 65.1957 52.6391 
83.5504 65.1957 52.6391 84.7678 69.6638 50.0596 84.4186 65.1299 52.6771 
84.4186 65.1299 52.6771 84.7678 69.6638 50.0596 85.2605 64.9345 52.7899 
85.2605 64.9345 52.7899 84.7678 69.6638 50.0596 86.0504 64.6156 52.974 
86.0504 64.6156 52.974 84.7678 69.6638 50.0596 91.6265 69.6787 50.051 
86.0504 64.6156 52.974 91.6265 69.6787 50.051 86.7643 64.1826 53.224 
86.7643 64.1826 53.224 91.6265 69.6787 50.051 91.6265 64.0049 53.3266 
86.7643 64.1826 53.224 91.6265 64.0049 53.3266 87.3806 63.6489 53.5321 
87.3806 63.6489 53.5321 91.6265 64.0049 53.3266 87.8805 63.0306 53.8891 
87.8805 63.0306 53.8891 91.6265 64.0049 53.3266 88.2488 62.3465 54.284 
88.2488 62.3465 54.284 91.6265 64.0049 53.3266 88.4744 61.6174 54.7049 
88.4744 61.6174 54.7049 91.6265 64.0049 53.3266 88.5504 60.8655 55.139 
88.5504 60.8655 55.139 91.6265 64.0049 53.3266 91.6265 58.3215 56.6077 
88.5504 60.8655 55.139 91.6265 58.3215 56.6077 88.4744 60.1136 55.5731 
88.4744 60.1136 55.5731 91.6265 58.3215 56.6077 88.2488 59.3845 55.9941 
88.2488 59.3845 55.9941 91.6265 58.3215 56.6077 87.8805 58.7004 56.389 
87.8805 58.7004 56.389 91.6265 58.3215 56.6077 87.3806 58.0821 56.746 
87.3806 58.0821 56.746 91.6265 58.3215 56.6077 86.7643 57.5484 57.0541 
86.7643 57.5484 57.0541 91.6265 58.3215 56.6077 91.6265 52.6382 59.8889 
[...]
CELL_DATA 5082
FIELD FieldData 1
electrode_index 1 5082 int
0 0 0 0 0 0 0 0 0 
0 0 0 0 0 0 0 0 0 
0 0 0 0 0 0 0 0 0 
0 0 0 0 0 0 0 0 0 
0 0 0 0 0 0 0 0 0 
0 0 0 0 0 0 0 0 0 
0 0 0 0 0 0 0 0 0 
0 0 0 0 0 0 0 0 0 
0 0 0 0 0 0 0 0 0 
0 0 0 0 0 0 0 0 0 
0 0 0 0 0 0 0 0 0 
0 0 0 0 0 0 0 0 0 
0 0 0 0 0 0 0 0 0 
0 0 0 0 0 0 0 0 0 
0 0 0 0 0 0 0 0 0 
0 0 0 0 0 0 0 0 0 
0 0 0 0 0 0 0 0 0 
0 0 0 0 0 0 0 0 0 
0 0 0 0 0 0 0 0 0 
0 0 0 0 0 0 0 0 0 
0 0 0 0 0 0 0 0 0 
0 0 0 0 0 0 0 0 0 
0 0 0 0 0 0 0 0 0 
0 0 0 0 0 0 0 0 0 
0 0 0 0 0 0 0 0 0 
0 0 0 0 0 0 0 0 0 
0 0 0 0 0 0 1 1 1 
1 1 1 1 1 1 1 1 1 
1 1 1 1 1 1 1 1 1 
1 1 1 1 1 1 1 1 1 
1 1 1 1 1 1 1 1 1 
1 1 1 1 1 1 1 1 1 
1 1 1 1 1 1 1 1 1 
1 1 1 1 1 1 1 1 1 
1 1 1 1 1 1 1 1 1 
1 1 1 1 1 1 1 1 1 
1 1 1 1 1 1 1 1 1 
1 1 1 1 1 1 1 1 1 
1 1 1 1 1 1 1 1 1 
1 1 1 1 1 1 1 1 1 
1 1 1 1 1 1 1 1 1 
1 1 1 1 1 1 1 1 1 
1 1 1 1 1 1 1 1 1 
1 1 1 1 1 1 1 1 1 
1 1 1 1 1 1 1 1 1 
1 1 1 1 1 1 1 1 1 
1 1 1 1 1 1 1 1 1 
1 1 1 1 1 1 1 1 1 
1 1 1 1 1 1 1 1 1 
1 1 1 1 1 1 1 1 1 
1 1 1 1 1 1 1 1 1 
1 1 1 1 1 1 1 1 1 
1 1 1 1 1 1 1 1 1 
1 1 1 2 2 2 2 2 2 
2 2 2 2 2 2 2 2 2 
2 2 2 2 2 2 2 2 2 
2 2 2 2 2 2 2 2 2 
2 2 2 2 2 2 2 2 2 
2 2 2 2 2 2 2 2 2 
2 2 2 2 2 2 2 2 2 
2 2 2 2 2 2 2 2 2 
2 2 2 2 2 2 2 2 2 
2 2 2 2 2 2 2 2 2 
2 2 2 2 2 2 2 2 2 
2 2 2 2 2 2 2 2 2 
2 2 2 2 2 2 2 2 2 
2 2 2 2 2 2 2 2 2 
2 2 2 2 2 2 2 2 2 
2 2 2 2 2 2 2 2 2 
2 2 2 2 2 2 2 2 2 
2 2 2 2 2 2 2 2 2 
2 2 2 2 2 2 2 2 2 
2 2 2 2 2 2 2 2 2 
2 2 2 2 2 2 2 2 2 
2 2 2 2 2 2 2 2 2 
2 2 2 2 2 2 2 2 2 
2 2 2 2 2 2 2 2 2 
2 2 2 2 2 2 2 2 2 
2 2 2 2 2 2 2 2 2 
2 2 2 2 2 2 2 2 2 
2 2 2 2 2 2 2 2 2 
2 2 2 2 2 2 2 2 2 
2 2 2 2 2 2 2 2 2 
2 2 2 2 2 2 2 2 2 
2 2 2 2 3 3 3 3 3 
3 3 3 3 3 3 3 3 3 
3 3 3 3 3 3 3 3 3 
3 3 3 3 3 3 3 3 3 
3 3 3 3 3 3 3 3 3 
3 3 3 3 3 3 3 3 3 
3 3 3 3 3 3 3 3 3 
3 3 3 3 3 3 3 3 3 
3 3 3 3 3 3 3 3 3 
3 3 3 3 3 3 3 3 3 
3 3 3 3 3 3 3 3 3 
3 3 3 3 3 3 3 3 3 
3 3 3 3 3 3 3 3 3 
3 3 3 3 3 3 3 3 3 
3 3 3 3 3 3 3 3 3 
3 3 3 3 3 3 3 3 3 
3 3 3 3 3 3 3 3 3 
3 3 3 3 3 3 3 3 3 
3 3 3 3 3 3 3 3 3 
3 3 3 3 3 3 3 3 3 
3 3 3 3 3 3 3 3 3 
3 3 3 3 3 3 3 3 3 
3 3 3 3 3 3 3 3 3 
3 3 3 3 3 3 3 3 3 
3 3 3 3 4 4 4 4 4 
4 4 4 4 4 4 4 4 4 
4 4 4 4 4 4 4 4 4 
4 4 4 4 4 4 4 4 4 
4 4 4 4 4 4 4 4 4 
4 4 4 4 4 4 4 4 4 
4 4 4 4 4 4 4 4 4 
4 4 4 4 4 4 4 4 4 
4 4 4 4 4 4 4 4 4 
4 4 4 4 4 4 4 4 4 
4 4 4 4 4 4 4 4 4 
4 4 4 4 4 4 4 4 4 
4 4 4 4 4 4 4 4 4 
4 4 4 4 4 4 4 4 4 
4 4 4 4 4 4 4 4 4 
4 4 4 4 4 4 4 4 4 
4 4 4 4 4 4 4 4 4 
4 4 4 4 4 4 4 4 4 
4 4 4 4 4 4 4 4 4 
4 4 4 4 4 4 4 4 4 
4 4 4 4 4 4 4 4 4 
4 4 4 4 4 4 4 4 4 
4 4 4 4 4 4 4 4 4 
4 4 4 4 4 4 4 4 4 
4 4 4 4 4 4 4 4 4 
4 4 4 4 4 4 4 4 4 
4 4 4 4 4 4 4 4 4 
4 4 4 4 4 4 4 4 4 
4 4 4 4 4 4 4 4 4 
4 4 4 4 4 4 4 4 4 
4 4 4 4 4 4 4 4 4 
4 4 4 4 5 5 5 5 5 
5 5 5 5 5 5 5 5 5 
5 5 5 5 5 5 5 5 5 
5 5 5 5 5 5 5 5 5 
5 5 5 5 5 5 5 5 5 
5 5 5 5 5 5 5 5 5 
5 5 5 5 5 5 5 5 5 
5 5 5 5 5 5 5 5 5 
5 5 5 5 5 5 5 5 5 
5 5 5 5 5 5 5 5 5 
5 5 5 5 5 5 5 5 5 
5 5 5 5 5 5 5 5 5 
5 5 5 5 5 5 5 5 5 
5 5 5 5 5 5 5 5 5 
5 5 5 5 5 5 5 5 5 
5 5 5 5 5 5 5 5 5 
5 5 5 5 5 5 5 5 5 
5 5 5 5 5 5 5 5 5 
5 5 5 5 5 5 5 5 5 
5 5 5 5 5 5 5 5 5 
5 5 5 5 5 5 5 5 5 
5 5 5 5 5 5 5 5 5 
5 5 5 5 5 5 5 5 5 
5 5 5 5 5 5 5 5 5 
5 5 5 5 5 5 5 5 5 
5 5 5 5 5 5 5 5 5 
5 5 5 5 5 5 5 5 5 
5 5 5 5 5 5 5 5 5 
5 5 5 5 5 5 5 5 5 
5 5 5 5 5 5 5 5 5 
5 5 5 5 5 5 5 5 5 
5 5 5 5 5 5 5 5 5 
5 5 5 5 5 5 5 5 5 
5 5 5 5 5 5 5 5 5 
5 5 5 5 5 5 5 5 5 
5 5 5 5 5 5 5 5 5 
5 5 5 5 5 5 5 5 5 
5 5 5 5 5 5 5 5 5 
5 5 5 5 5 5 5 5 5 
5 5 5 5 5 5 5 5 5 
5 5 5 5 5 5 5 5 5 
5 5 5 5 5 5 5 5 5 
5 5 5 5 5 5 5 5 5 
5 5 5 5 5 5 5 5 5 
5 5 5 5 5 5 5 5 5 
5 5 5 5 5 5 5 5 5 
5 5 5 5 5 5 5 5 5 
5 5 5 5 5 5 5 5 5 
5 5 5 5 5 5 5 5 5 
5 5 5 5 5 5 5 5 5 
5 5 5 5 5 5 5 5 5 
5 5 5 5 5 5 5 5 5 
5 5 5 5 5 5 5 5 5 
5 5 5 5 5 5 5 5 5 
5 5 5 5 5 5 5 5 5 
5 5 5 5 5 5 5 5 5 
5 5 5 5 5 5 5 5 5 
5 5 5 5 5 5 5 5 5 
5 5 5 5 5 5 5 5 5 
5 5 5 5 5 5 5 5 5 
5 5 5 5 5 5 5 5 5 
5 5 5 5 5 5 5 5 5 
5 5 5 5 5 5 5 5 5 
5 5 5 5 5 5 5 5 5 
5 5 5 5 5 5 5 5 5 
5 5 5 5 5 5 5 5 5 
5 5 5 5 5 5 5 5 5 
5 5 5 5 5 5 5 5 5 
5 5 5 5 5 5 5 5 5 
5 5 5 5 5 5 5 5 5 
5 5 5 5 5 5 5 5 5 
5 5 5 5 5 5 5 5 5 
5 5 5 5 5 5 5 5 5 
5 5 5 5 5 5 5 5 5 
5 5 5 5 5 5 5 5 5 
5 5 5 5 5 5 5 5 5 
5 5 5 5 5 5 5 5 5 
5 5 5 5 5 5 5 5 5 
5 5 5 5 5 5 5 5 5 
5 5 5 5 5 5 5 5 5 
5 5 5 5 5 5 5 5 5 
5 5 5 5 5 5 5 5 5 
5 5 5 5 5 5 5 5 5 
5 5 5 5 5 5 5 5 5 
5 5 5 5 5 5 5 5 5 
5 5 5 5 5 5 5 5 5 
5 5 5 5 5 5 5 5 5 
5 5 5 5 5 5 5 5 5 
5 5 5 5 5 5 5 5 5 
5 5 5 5 5 5 5 5 5 
5 5 5 5 5 5 5 5 5 
5 5 5 5 5 5 5 5 5 
5 5 5 5 5 5 5 5 5 
5 5 5 5 5 5 5 5 5 
5 5 5 5 5 5 5 5 5 
5 5 5 5 5 5 5 5 5 
5 5 5 5 5 5 5 5 5 
5 5 5 5 5 5 5 5 5 
5 5 5 5 5 5 5 5 5 
5 5 5 5 5 5 5 5 5 
5 5 5 5 5 5 5 5 5 
5 5 5 5 5 5 5 5 5 
5 5 5 5 5 5 5 5 5 
5 5 5 5 5 5 5 5 5 
5 5 5 5 5 5 5 5 5 
5 5 5 5 5 5 5 5 5 
5 5 5 5 5 5 5 5 5 
5 5 5 5 5 5 5 5 5 
5 5 5 5 5 5 5 5 5 
5 5 5 5 5 5 5 5 5 
5 5 5 5 5 5 5 5 5 
5 5 5 5 5 5 5 5 5 
5 5 5 5 5 5 5 5 5 
5 5 5 5 5 5 5 5 5 
5 5 5 5 5 5 5 5 5 
5 5 5 5 5 5 5 5 5 
5 5 5 5 5 5 5 5 5 
5 5 5 5 5 5 5 5 5 
5 5 5 5 5 5 5 5 5 
5 5 5 5 5 5 5 5 5 
5 5 5 5 5 5 5 5 5 
5 5 5 5 5 5 5 5 5 
5 5 5 5 5 5 5 5 5 
5 5 5 5 5 5 5 5 5 
5 5 5 5 5 5 5 5 5 
5 5 5 5 5 5 5 5 5 
5 5 5 5 5 5 5 5 5 
5 5 5 5 5 5 5 5 5 
5 5 5 5 5 5 5 5 5 
5 5 5 5 5 5 5 5 5 
5 5 5 5 5 5 5 5 5 
5 5 5 5 5 5 5 5 5 
5 5 5 5 5 5 5 5 5 
5 5 5 5 5 5 5 5 5 
5 5 5 5 5 5 5 5 5 
5 5 5 5 5 5 5 5 5 
5 5 5 5 5 5 5 5 5 
5 5 5 5 5 5 5 5 5 
5 5 5 5 5 5 5 5 5 
5 5 5 5 5 5 5 5 5 
5 5 5 5 5 5 5 5 5 
5 5 5 5 5 5 5 5 5 
5 5 5 5 5 5 5 5 5 
5 5 5 5 5 5 5 6 6 
6 6 6 6 6 6 6 6 6 
6 6 6 6 6 6 6 6 6 
6 6 6 6 6 6 6 6 6 
6 6 6 6 6 6 6 6 6 
6 6 6 6 6 6 6 6 6 
6 6 6 6 6 6 6 6 6 
6 6 6 6 6 6 6 6 6 
6 6 6 6 6 6 6 6 6 
6 6 6 6 6 6 6 6 6 
6 6 6 6 6 6 6 6 6 
6 6 6 6 6 6 6 6 6 
6 6 6 6 6 6 6 6 6 
6 6 6 6 6 6 6 6 6 
6 6 6 6 6 6 6 6 6 
6 6 6 6 6 6 6 6 6 
6 6 6 6 6 6 6 6 6 
6 6 6 6 6 6 6 6 6 
6 6 6 6 6 6 6 6 6 
6 6 6 6 6 6 6 6 6 
6 6 6 6 6 6 6 6 6 
6 6 6 6 6 6 6 6 6 
6 6 6 6 6 6 6 6 6 
6 6 6 6 6 6 6 6 6 
6 6 6 6 6 6 6 6 6 
6 6 6 6 6 6 6 6 6 
6 6 6 6 6 6 6 6 6 
6 6 6 6 7 7 7 7 7 
7 7 7 7 7 7 7 7 7 
7 7 7 7 7 7 7 7 7 
7 7 7 7 7 7 7 7 7 
7 7 7 7 7 7 7 7 7 
7 7 7 7 7 7 7 7 7 
7 7 7 7 7 7 7 7 7 
7 7 7 7 7 7 7 7 7 
7 7 7 7 7 7 7 7 7 
7 7 7 7 7 7 7 7 7 
7 7 7 7 7 7 7 7 7 
7 7 7 7 7 7 7 7 7 
7 7 7 7 7 7 7 7 7 
7 7 7 7 7 7 7 7 7 
7 7 7 7 7 7 7 7 7 
7 7 7 7 7 7 7 7 7 
7 7 7 7 7 7 7 7 7 
7 7 7 7 7 7 7 7 7 
7 7 7 7 7 7 7 7 7 
7 7 7 7 7 7 7 7 7 
7 7 7 7 7 7 7 7 7 
7 7 7 7 7 7 7 7 7 
7 7 7 7 7 7 7 7 7 
7 7 7 7 7 7 7 7 7 
7 7 7 7 7 7 7 7 7 
7 7 7 7 7 7 7 7 7 
7 7 7 7 7 7 7 7 7 
7 8 8 8 8 8 8 8 8 
8 8 8 8 8 8 8 8 8 
8 8 8 8 8 8 8 8 8 
8 8 8 8 8 8 8 8 8 
8 8 8 8 8 8 8 8 8 
8 8 8 8 8 8 8 8 8 
8 8 8 8 8 8 8 8 8 
8 8 8 8 8 8 8 8 8 
8 8 8 8 8 8 8 8 8 
8 8 8 8 8 8 8 8 8 
8 8 8 8 8 8 8 8 8 
8 8 8 8 8 8 8 8 8 
8 8 8 8 8 8 8 8 8 
8 8 8 8 8 8 8 8 8 
8 8 8 8 8 8 8 8 8 
8 8 8 8 8 8 8 8 8 
8 8 8 8 8 8 8 8 8 
8 8 8 8 8 8 8 8 8 
8 8 8 8 8 8 8 8 8 
8 8 8 8 8 8 8 8 8 
8 8 8 8 8 8 8 8 8 
8 8 8 8 8 8 8 8 8 
8 8 8 8 8 8 8 8 8 
8 8 8 8 8 8 8 8 8 
8 8 8 8 8 8 8 8 8 
8 8 8 8 8 8 8 8 8 
8 8 8 8 8 8 8 8 8 
8 8 8 8 8 8 8 8 8 
8 8 8 8 8 8 8 8 8 
8 8 8 8 8 8 8 8 8 
8 8 8 8 8 9 9 9 9 
9 9 9 9 9 9 9 9 9 
9 9 9 9 9 9 9 9 9 
9 9 9 9 9 9 9 9 9 
9 9 9 9 9 9 9 9 9 
9 9 9 9 9 9 9 9 9 
9 9 9 9 9 9 9 9 9 
9 9 9 9 9 9 9 9 9 
9 9 9 9 9 9 9 9 9 
9 9 9 9 9 9 9 9 9 
9 9 9 9 9 9 9 9 9 
9 9 9 9 9 9 9 9 9 
9 9 9 9 9 9 9 9 9 
9 9 9 9 9 9 9 9 9 
9 9 9 9 9 9 9 9 9 
9 9 9 9 9 9 9 9 9 
9 9 9 9 9 9 9 9 9 
9 9 9 9 9 9 9 9 9 
9 9 9 9 9 9 9 9 9 
9 9 9 9 9 9 9 9 9 
9 9 9 9 9 9 9 9 9 
9 9 9 9 9 9 9 9 9 
9 9 9 9 9 9 9 9 9 
9 9 9 9 9 9 9 9 9 
9 9 9 9 9 10 10 10 10 
10 10 10 10 10 10 10 10 10 
10 10 10 10 10 10 10 10 10 
10 10 10 10 10 10 10 10 10 
10 10 10 10 10 10 10 10 10 
10 10 10 10 10 10 10 10 10 
10 10 10 10 10 10 10 10 10 
10 10 10 10 10 10 10 10 10 
10 10 10 10 10 10 10 10 10 
10 10 10 10 10 10 10 10 10 
10 10 10 10 10 10 10 10 10 
10 10 10 10 10 10 10 10 10 
10 10 10 10 10 10 10 10 10 
10 10 10 10 10 10 10 10 10 
10 10 10 10 10 10 10 10 10 
10 10 10 10 10 10 10 10 10 
10 10 10 10 10 10 10 10 10 
10 10 10 10 10 10 10 10 10 
10 10 10 10 10 10 10 10 10 
10 10 10 10 10 10 10 10 10 
10 10 10 10 10 10 10 10 10 
10 10 10 10 10 10 10 10 10 
10 10 10 10 10 10 10 10 10 
10 10 10 10 10 10 10 10 10 
10 10 10 10 10 10 10 10 10 
10 10 10 10 10 10 10 10 10 
10 10 10 10 10 10 10 10 10 
10 10 10 10 10 10 10 10 10 
10 10 10 10 10 10 10 10 10 
10 10 10 10 10 10 10 10 10 
10 10 10 10 10 10 10 10 10 
10 10 10 11 11 11 11 11 11 
11 11 11 11 11 11 11 11 11 
11 11 11 11 11 11 11 11 11 
11 11 11 11 11 11 11 11 11 
11 11 11 11 11 11 11 11 11 
11 11 11 11 11 11 11 11 11 
11 11 11 11 11 11 11 11 11 
11 11 11 11 11 11 11 11 11 
11 11 11 11 11 11 11 11 11 
11 11 11 11 11 11 11 11 11 
11 11 11 11 11 11 11 11 11 
11 11 11 11 11 11 11 11 11 
11 11 11 11 11 11 11 11 11 
11 11 11 11 11 11 11 11 11 
11 11 11 11 11 11 11 11 11 
11 11 11 11 11 11 11 11 11 
11 11 11 11 11 11 11 11 11 
11 11 11 11 11 11 11 11 11 
11 11 11 11 11 11 11 11 11 
11 11 11 11 11 11 11 11 11 
11 11 11 11 11 11 11 11 11 
11 11 11 11 11 11 11 11 11 
11 11 11 11 11 11 11 11 11 
11 11 11 11 11 11 11 11 11 
11 11 11 11 11 11 11 11 11 
11 11 11 11 11 11 11 11 11 
11 11 11 11 11 11 11 11 11 
11 11 11 11 11 11 11 11 11 
11 11 11 11 11 11 11 11 11 
11 11 11 11 11 11 11 11 11 
11 11 11 11 11 11 11 11 11 
11 11 11 11 11 11 11 11 11 
11 11 11 11 11 11 11 11 11 
11 11 11 11 11 11 11 11 11 
11 11 11 11 11 11 11 11 11 
11 11 11 11 11 11 11 11 11 
11 11 11 11 11 11 11 11 11 
11 11 11 11 11 11 11 11 11 
11 11 11 11 11 11 11 11 11 
11 11 11 11 11 11 11 11 11 
11 11 11 11 11 11 11 11 11 
11 11 11 11 11 11 11 11 11 
11 11 11 11 11 11 11 11 11 
11 11 11 11 11 11 11 11 11 
11 11 11 11 11 11 11 11 11 
11 11 11 11 11 11 11 11 11 
11 11 11 11 11 11 11 11 11 
11 11 11 11 11 11 11 11 11 
11 11 11 11 11 11 11 11 11 
11 11 11 11 11 11 11 11 11 
11 11 11 11 11 11 11 11 11 
11 11 11 11 11 11 11 11 11 
11 11 11 11 11 11 11 11 11 
11 11 11 11 11 11 11 11 11 
11 11 11 11 11 11 11 11 11 
11 11 11 11 11 11 11 11 11 
11 11 11 11 11 11 11 11 11 
11 11 11 11 11 11 11 11 11 
11 11 11 11 11 11 11 11 11 
11 11 11 11 11 11 11 11 11 
11 11 11 11 11 11 11 11 11 
11 11 11 11 11 11 11 11 11 
11 11 11 11 11 11 11 11 11 
11 11 11 11 11 11 11 11 11 
11 11 11 11 11 11 11 11 11 
11 11 11 11 11 11 11 11 11 
11 11 11 11 11 11 11 11 11 
11 11 11 11 11 11 11 11 11 
11 11 11 11 11 11 11 11 11 
11 11 11 11 11 11 11 11 11 
11 11 11 11 11 11 11 11 11 
11 11 11 11 11 11 11 11 11 
11 11 11 11 11 11 11 11 11 
11 11 11 11 11 11 11 11 11 
11 11 11 11 11 11 11 11 11 
11 11 11 11 11 11 11 11 11 
11 11 11 11 11 11 11 11 11 
11 11 11 11 11 11 11 11 11 
11 11 11 11 11 11 11 11 11 
11 11 11 11 11 11 11 11 11 
11 11 11 11 11 11 11 11 11 
11 11 11 11 11 11 11 11 11 
11 11 11 11 11 11 11 11 11 
11 11 11 11 11 11 11 11 11 
11 11 11 11 11 11 11 11 11 
11 11 11 11 11 11 11 11 11 
11 11 11 11 11 11 11 11 11 
11 11 11 11 11 11 11 11 11 
11 11 11 11 11 11 11 11 11 
11 11 11 11 11 11 11 11 11 
11 11 11 11 11 11 11 11 11 
11 11 11 11 11 11 11 11 11 
11 11 11 11 11 11 11 11 11 
11 11 11 11 11 11 11 11 11 
11 11 11 11 11 11 11 11 11 
11 11 11 11 11 11 11 11 11 
11 11 11 11 11 11 11 11 11 
11 11 11 11 11 11 11 11 11 
11 11 11 11 11 11 11 11 11 
11 11 11 11 11 11 11 11 11 
11 11 11 11 11 11 11 11 11 
11 11 11 11 11 11 11 11 11 
11 11 11 11 11 11 11 11 11 
11 11 11 11 11 11 11 11 11 
11 11 11 11 11 11 11 11 11 
11 11 11 11 11 11 11 11 11 
11 11 11 11 11 11 11 11 11 
11 11 11 11 11 11 11 11 11 
11 11 11 11 11 11 11 11 11 
11 11 11 11 11 11 11 11 11 
11 11 11 11 11 11 11 11 11 
11 11 11 11 11 11 11 11 11 
11 11 11 11 11 11 11 11 11 
11 11 11 11 11 11 11 11 11 
11 11 11 11 11 11 11 11 11 
11 11 11 11 11 11 11 11 11 
11 11 11 11 11 11 11 11 11 
11 11 11 11 11 11 11 11 11 
11 11 11 11 11 11 11 11 11 
11 11 11 11 11 11 11 11 11 
11 11 11 11 11 11 11 11 11 
11 11 11 11 11 11 11 11 11 
11 11 11 11 11 11 11 11 11 
11 11 11 11 11 11 11 11 11 
11 11 11 11 11 11 11 11 11 
11 11 11 11 11 11 11 11 11 
11 11 11 11 11 11 11 11 11 
11 11 11 11 11 11 11 11 11 
11 11 11 11 11 11 11 11 11 
11 11 11 11 11 11 11 11 11 
11 11 11 11 11 11 11 11 11 
11 11 11 11 11 11 11 11 11 
11 11 11 11 11 11 11 11 11 
11 11 11 11 11 11 11 11 11 
11 11 11 11 11 11 11 11 11 
11 11 11 11 11 11 11 11 11 
11 11 11 11 11 11 11 11 11 
11 11 11 11 11 11 11 11 11 
11 11 11 11 11 11 11 11 11 
11 11 11 11 11 11 11 11 11 
11 11 11 11 11 11 11 11 11 
11 11 11 11 11 11 11 11 11 
11 11 11 11 11 11 11 11 11 
11 11 11 11 11 11 
