# vtk DataFile Version 4.0
vtk output
ASCII
DATASET POLYDATA
POINTS 3953 double
3.39651 21.923 1.25 -2.85349 21.923 1.25 3.39651 16.503 1.25 
3.39651 16.503 1.25 -2.85349 21.923 1.25 -2.63232 16.0255 1.25 
3.39651 16.503 1.25 -2.63232 16.0255 1.25 3.39651 11.083 1.25 
3.39651 11.083 1.25 -2.63232 16.0255 1.25 -2.63232 10.128 1.25 
3.39651 11.083 1.25 -2.63232 10.128 1.25 3.6914 10.128 1.25 
3.6914 10.128 1.25 -2.63232 10.128 1.25 3.6914 4.2305 1.25 
3.6914 10.128 1.25 3.6914 4.2305 1.25 8.51446 8.533 1.25 
8.51446 8.533 1.25 3.6914 4.2305 1.25 10.0151 4.2305 1.25 
8.51446 8.533 1.25 10.0151 4.2305 1.25 13.6324 5.983 1.25 
13.6324 5.983 1.25 10.0151 4.2305 1.25 16.3388 4.2305 1.25 
13.6324 5.983 1.25 16.3388 4.2305 1.25 18.7504 3.433 1.25 
18.7504 3.433 1.25 16.3388 4.2305 1.25 14.0215 -1.667 1.25 
18.7504 3.433 1.25 14.0215 -1.667 1.25 19.0098 -1.667 1.25 
-2.63232 16.0255 1.25 -2.85349 21.923 1.25 -8.95605 16.0255 1.25 
-8.95605 16.0255 1.25 -2.85349 21.923 1.25 -9.10349 21.923 1.25 
-8.95605 16.0255 1.25 -9.10349 21.923 1.25 -15.2798 16.0255 1.25 
-15.2798 16.0255 1.25 -9.10349 21.923 1.25 -15.3535 21.923 1.25 
-15.2798 16.0255 1.25 -15.3535 21.923 1.25 -21.6035 16.5597 1.25 
-21.6035 16.5597 1.25 -15.3535 21.923 1.25 -21.6035 21.923 1.25 
-21.6035 16.5597 1.25 -21.6035 11.1963 1.25 -15.2798 16.0255 1.25 
-15.2798 16.0255 1.25 -21.6035 11.1963 1.25 -15.2798 10.128 1.25 
-15.2798 16.0255 1.25 -15.2798 10.128 1.25 -8.95605 10.128 1.25 
-8.95605 10.128 1.25 -15.2798 10.128 1.25 -8.95605 4.2305 1.25 
-8.95605 10.128 1.25 -8.95605 4.2305 1.25 -2.63232 4.2305 1.25 
-2.63232 4.2305 1.25 -8.95605 4.2305 1.25 -3.79099 2.083 1.25 
-2.63232 4.2305 1.25 -3.79099 2.083 1.25 2.14651 0.833002 1.25 
-21.6035 11.1963 1.25 -21.6035 5.833 1.25 -15.2798 10.128 1.25 
-15.2798 10.128 1.25 -21.6035 5.833 1.25 -15.666 4.583 1.25 
-15.2798 10.128 1.25 -15.666 4.583 1.25 -8.95605 4.2305 1.25 
-8.95605 4.2305 1.25 -15.666 4.583 1.25 -9.72849 3.333 1.25 
-8.95605 4.2305 1.25 -9.72849 3.333 1.25 -3.79099 2.083 1.25 
-2.63232 4.2305 1.25 2.14651 0.833002 1.25 3.6914 4.2305 1.25 
3.6914 4.2305 1.25 2.14651 0.833002 1.25 8.08401 -0.416998 1.25 
3.6914 4.2305 1.25 8.08401 -0.416998 1.25 10.0151 4.2305 1.25 
10.0151 4.2305 1.25 8.08401 -0.416998 1.25 14.0215 -1.667 1.25 
10.0151 4.2305 1.25 14.0215 -1.667 1.25 16.3388 4.2305 1.25 
18.7504 3.433 1.25 19.0098 -1.667 1.25 23.8683 0.883002 1.25 
23.8683 0.883002 1.25 19.0098 -1.667 1.25 23.998 -1.667 1.25 
23.8683 0.883002 1.25 23.998 -1.667 1.25 28.9863 -1.667 1.25 
8.51446 8.533 1.25 3.39651 11.083 1.25 3.6914 10.128 1.25 
-2.63232 10.128 1.25 -2.63232 16.0255 1.25 -8.95605 16.0255 1.25 
-2.63232 10.128 1.25 -8.95605 16.0255 1.25 -8.95605 10.128 1.25 
-8.95605 10.128 1.25 -8.95605 16.0255 1.25 -15.2798 16.0255 1.25 
3.6914 4.2305 1.25 -2.63232 10.128 1.25 -2.63232 4.2305 1.25 
-2.63232 4.2305 1.25 -2.63232 10.128 1.25 -8.95605 10.128 1.25 
16.9603 4.32492 1.25 17.8009 3.74698 1.25 17.8553 3.87896 1.25 
15.4225 5.09109 1.25 15.3112 4.89594 1.25 17.0699 3.98874 1.25 
17.4078 4.10194 1.25 16.1914 4.708 1.25 1.36768 10.128 1.25 
1.31842 10.7538 1.25 6.72436 9.42492 1.25 6.6156 9.16096 1.25 
5.18662 10.1911 1.25 5.1535 9.64448 1.25 5.95549 9.808 1.25 
-12.9505 4.44035 1.25 -11.7518 3.75896 1.25 -13.7089 4.17098 1.25 
-10.9533 4.33543 1.25 -14.6674 4.53054 1.25 -14.6874 4.37699 1.25 
-12.7303 3.96497 1.25 -11.9519 4.38789 1.25 -13.809 4.48544 1.25 
-14.1982 4.27399 1.25 -5.81429 2.50896 1.25 -5.63773 2.85083 1.25 
-7.29689 3.54067 1.25 -7.77139 2.92098 1.25 -4.76954 2.28901 1.25 
-4.71436 2.46692 1.25 -6.46731 3.19575 1.25 -6.79284 2.71497 1.25 
-0.308599 4.2305 1.25 -1.00229 3.07163 1.25 1.05284 2.6285 1.25 
5.33642 2.49002 1.25 5.52954 5.87025 1.25 0.168466 19.3024 1.25 
0.461036 13.4895 1.25 6.67632 6.89325 1.25 16.0307 0.499867 1.25 
-18.568 19.1646 1.25 -18.4245 13.624 1.25 -18.2945 8.08041 1.25 
-18.5887 7.8806 1.25 -11.8813 6.95863 1.25 -15.4187 8.13284 1.25 
6.85326 2.81935 1.25 11.7738 1.64173 1.25 20.7207 0.97662 1.25 
0.374549 19.1236 1.25 0.303149 13.619 1.25 0.29297 7.39988 1.25 
3.6914 6.2305 1.25 -5.72983 19.1433 1.25 -6.07971 18.8052 1.25 
-11.9965 19.1606 1.25 -12.3868 18.7879 1.25 -18.389 19.3181 1.25 
-18.4588 13.5978 1.25 -11.8813 12.8561 1.25 -15.2798 14.0255 1.25 
-12.3545 7.39988 1.25 -8.95605 6.2305 1.25 -5.55761 6.95863 1.25 
-8.95605 8.128 1.25 13.177 2.06888 1.25 -6.03075 13.2974 1.25 
-2.63232 12.128 1.25 -5.55761 12.8561 1.25 -8.95605 14.0255 1.25 
-12.3545 13.2974 1.25 -8.95605 12.128 1.25 0.766109 6.95863 1.25 
-2.63232 8.128 1.25 -6.03075 7.39988 1.25 -2.63232 6.2305 1.25 
18.2757 3.58999 1.25 18.3029 3.65598 1.25 -15.1767 4.48 1.25 
-15.1667 4.55677 1.25 14.5275 5.53705 1.25 14.4718 5.43947 1.25 
7.61941 8.97896 1.25 7.56503 8.84698 1.25 -0.656952 10.4409 1.25 
-0.632322 10.128 1.25 0.123206 1.25896 1.25 3.39651 13.083 1.25 
11.8423 6.87492 1.25 18.513 3.5115 1.25 18.5266 3.54449 1.25 
18.0552 3.71944 1.25 -14.9201 4.48549 1.25 -15.4214 4.5315 1.25 
-15.4163 4.56989 1.25 14.8915 5.1677 1.25 14.975 5.31407 1.25 
14.0521 5.71124 1.25 14.0799 5.76002 1.25 7.12402 9.10587 1.25 
8.06694 8.75598 1.25 8.03975 8.68999 1.25 0.367678 10.3641 1.25 
-1.64464 10.2845 1.25 -1.63232 10.128 1.25 1.84983 12.351 1.25 
0.516471 1.99187 1.25 -1.44209 2.57083 1.25 0.57211 1.95232 1.25 
2.91895 2.53175 1.25 6.6156 9.16096 1.25 4.60052 7.97234 1.25 
2.13744 14.793 1.25 9.17313 6.64457 1.25 10.5918 5.78551 1.25 
14.0151 4.2305 1.25 4.16981 0.407044 1.25 3.39651 18.503 1.25 
2.10696 20.213 1.25 8.11205 5.97969 1.25 19.959 -2.917 -0.96875 
19.959 -2.917 0.96875 14.0215 -1.667 -1.25 14.0215 -1.667 -1.25 
19.959 -2.917 0.96875 14.0215 -1.667 1.25 14.0215 -1.667 -1.25 
14.0215 -1.667 1.25 8.08401 -0.416998 -1.25 8.08401 -0.416998 -1.25 
14.0215 -1.667 1.25 8.08401 -0.416998 1.25 8.08401 -0.416998 -1.25 
8.08401 -0.416998 1.25 2.14651 0.833002 -1.25 2.14651 0.833002 -1.25 
8.08401 -0.416998 1.25 2.14651 0.833002 1.25 2.14651 0.833002 -1.25 
2.14651 0.833002 1.25 -3.79099 2.083 -1.25 -3.79099 2.083 -1.25 
2.14651 0.833002 1.25 -3.79099 2.083 1.25 -3.79099 2.083 -1.25 
-3.79099 2.083 1.25 -9.72849 3.333 -1.25 -9.72849 3.333 -1.25 
-3.79099 2.083 1.25 -9.72849 3.333 1.25 -9.72849 3.333 -1.25 
-9.72849 3.333 1.25 -15.666 4.583 -1.25 -15.666 4.583 -1.25 
-9.72849 3.333 1.25 -15.666 4.583 1.25 -15.666 4.583 -1.25 
-15.666 4.583 1.25 -21.6035 5.833 -1.25 -21.6035 5.833 -1.25 
-15.666 4.583 1.25 -21.6035 5.833 1.25 19.959 -2.917 0.96875 
19.959 -2.917 -0.96875 25.8965 -4.167 0.6875 25.8965 -4.167 0.6875 
19.959 -2.917 -0.96875 25.8965 -4.167 -0.6875 25.8965 -4.167 0.6875 
25.8965 -4.167 -0.6875 31.834 -5.417 0.40625 31.834 -5.417 0.40625 
25.8965 -4.167 -0.6875 31.834 -5.417 -0.40625 31.834 -5.417 0.40625 
31.834 -5.417 -0.40625 37.7715 -6.667 0.125 37.7715 -6.667 0.125 
31.834 -5.417 -0.40625 37.7715 -6.667 -0.125 33.8722 -5.8461 -0.223883 
35.744 -6.24016 -0.221039 33.789 -5.82858 -0.313645 35.8219 -6.25655 -0.0494416 
34.7665 -6.03437 -0.267342 34.847 -6.05132 -0.136662 32.8088 -5.62222 -0.319029 
32.8115 -5.62279 -0.359947 34.2778 -5.93147 -0.290493 34.3596 -5.94871 -0.180273 
33.3405 -5.73416 -0.271456 33.3003 -5.72568 -0.336796 33.5446 -5.77713 -0.32522 
33.6064 -5.79013 -0.24767 33.0747 -5.67819 -0.295243 33.0559 -5.67423 -0.348372 
33.1781 -5.69996 -0.342584 32.9418 -5.65021 -0.307136 33.4224 -5.75141 -0.331008 
33.4735 -5.76214 -0.259563 34.0334 -5.88002 -0.302069 33.2076 -5.70618 -0.283349 
32.9337 -5.64851 -0.35416 34.5221 -5.98292 -0.278918 34.1159 -5.8974 -0.202078 
35.2553 -6.13726 -0.244191 35.3345 -6.15393 -0.093052 35.0109 -6.08581 -0.255766 
35.4996 -6.18871 -0.232615 36.7578 -6.45358 -0.17302 36.7967 -6.46177 0.0377792 
34.6033 -6.00001 -0.158468 36.2509 -6.34687 -0.19703 37.2646 -6.56029 -0.14901 
36.3093 -6.35916 -0.00583118 27.9819 -4.60603 -0.30335 29.8065 -4.99016 -0.502289 
29.9079 -5.01151 0.0514499 27.8515 -4.57858 -0.594895 28.829 -4.78437 -0.548592 
26.8595 -4.36974 -0.5101 26.874 -4.37279 -0.641197 28.3403 -4.68147 -0.571743 
27.4207 -4.48788 -0.406725 28.9449 -4.80877 -0.12595 30.8203 -5.20358 -0.45427 
33.8615 -5.84384 0.310211 33.8722 -5.8461 -0.223883 22.1205 -3.37204 -0.365819 
23.869 -3.74016 -0.783539 21.914 -3.32858 -0.876145 22.8915 -3.53437 -0.829842 
20.903 -3.11574 -0.70542 20.9365 -3.12279 -0.922447 24.0085 -3.76952 0.16084 
29.7486 -4.97797 0.0221002 27.924 -4.59384 0.591461 29.879 -5.00542 0.498855 
28.9015 -4.79963 0.545158 30.871 -5.21425 0.22885 30.8565 -5.21121 0.452553 
27.8226 -4.57248 -0.3327 16.2829 -2.14307 -0.404963 17.9315 -2.49016 -1.06479 
21.9865 -3.34384 0.872711 22.1205 -3.37204 -0.365819 15.9765 -2.07858 -1.15739 
14.9405 -1.86048 -0.906572 14.999 -1.87279 -1.2037 32.3214 -5.51961 -0.36264 
32.3228 -5.51989 -0.383099 32.5671 -5.57134 -0.371523 32.5651 -5.57092 -0.340834 
32.687 -5.59657 -0.329932 32.6893 -5.59706 -0.365735 26.3853 -4.26989 -0.664349 
26.378 -4.26837 -0.5988 35.8165 -6.25542 0.217605 35.8219 -6.25655 -0.0494416 
-1.47254 1.59491 -0.27381 -0.171945 1.3211 0.27381 0.123206 1.25896 -1.25 
0.336983 1.21395 0.488095 1.59213 0.949713 2.22045e-16 32.0777 -5.4683 -0.384445 
32.0784 -5.46844 -0.394674 32.4449 -5.54562 -0.377311 32.4433 -5.54526 -0.351737 
32.2006 -5.49417 -0.388887 32.1996 -5.49396 -0.373542 32.3833 -5.53264 -0.368681 
32.2605 -5.50678 -0.368091 32.2617 -5.50703 -0.385993 26.6274 -4.32087 -0.603245 
26.1409 -4.21844 -0.675924 26.1373 -4.21768 -0.64315 34.8299 -6.04771 0.0633479 
36.794 -6.46121 0.171303 36.7967 -6.46177 0.0377792 1.13486 1.04598 -0.965172 
1.24175 1.02348 0.869048 -0.403816 1.36991 -0.299529 5.76555 0.0710972 0.273809 
-1.76769 1.65704 1.25 -1.98147 1.70205 -0.488095 0.189407 1.24502 1.25 
-0.789142 1.45103 1.07034 1.24175 1.02348 0.869048 0.5349 1.17229 0.571429 
-3.23662 1.96629 -2.22045e-16 3.75924 0.493479 2.22045e-16 14.0215 -1.667 1.25 
19.959 -2.917 0.96875 19.0098 -1.667 1.25 19.0098 -1.667 1.25 
19.959 -2.917 0.96875 23.998 -1.667 1.25 23.998 -1.667 1.25 
[...]
CELL_DATA 3377
FIELD FieldData 4
electrode_index 1 3377 int
0 0 0 0 0 0 0 0 0 
0 0 0 0 0 0 0 0 0 
0 0 0 0 0 0 0 0 0 
0 0 0 0 0 0 0 0 0 
0 0 0 0 0 0 0 0 0 
0 0 0 0 0 0 0 0 0 
0 0 0 0 0 0 0 0 0 
0 0 0 0 0 0 0 0 0 
0 0 0 0 0 0 0 0 0 
0 0 0 0 0 0 0 0 0 
0 0 0 0 0 0 0 0 0 
0 0 0 0 0 0 0 0 0 
0 0 0 0 0 0 0 0 0 
0 0 0 0 0 0 0 0 0 
0 0 0 0 0 0 0 0 0 
0 0 0 0 0 0 0 0 0 
0 0 0 0 0 0 0 0 0 
0 0 0 0 0 0 0 0 0 
0 0 0 0 0 0 0 0 0 
0 0 0 0 0 0 0 0 0 
0 0 0 0 0 0 0 0 0 
0 0 0 0 0 0 0 0 0 
0 0 0 0 0 0 0 0 0 
0 0 0 0 0 0 0 0 0 
0 0 0 0 0 0 0 0 0 
0 0 0 0 0 0 0 0 0 
0 0 0 0 0 0 0 0 0 
0 0 0 0 0 0 0 0 0 
0 0 0 0 0 0 0 0 0 
0 0 0 0 0 0 0 0 0 
0 0 0 0 0 0 0 0 0 
0 0 0 0 0 0 0 0 0 
0 0 0 0 0 0 0 0 0 
0 0 0 0 0 0 0 0 0 
0 0 0 0 0 0 0 0 0 
0 0 0 0 0 0 0 0 0 
0 0 0 0 0 0 0 0 0 
0 0 0 0 0 0 0 0 0 
0 0 0 0 0 0 0 0 0 
0 0 0 0 0 0 0 0 0 
0 0 0 0 0 0 0 0 0 
0 0 0 0 0 0 0 0 0 
0 0 0 0 0 0 0 0 0 
0 0 0 0 0 0 0 0 0 
0 0 0 0 0 0 0 0 0 
0 0 0 0 0 0 0 0 0 
0 0 0 0 0 0 0 0 0 
0 0 0 0 0 0 0 0 0 
0 0 0 0 0 0 0 0 0 
0 0 0 0 0 0 0 0 0 
0 0 0 0 0 0 0 0 0 
0 0 0 0 0 0 0 0 0 
0 0 0 0 0 0 0 0 0 
0 0 0 0 0 0 0 0 0 
0 0 0 0 0 0 0 0 0 
0 0 0 0 0 0 0 0 0 
0 0 0 0 0 0 0 0 0 
0 0 0 0 0 0 0 0 0 
0 0 0 0 0 0 0 0 0 
0 0 0 0 0 0 0 0 0 
0 0 0 0 0 0 0 0 0 
0 0 0 0 0 0 0 0 0 
0 0 0 0 0 0 0 0 0 
0 0 0 0 0 0 0 0 0 
0 0 0 0 0 0 0 0 0 
0 0 0 0 0 0 0 0 0 
0 0 0 0 0 0 0 0 0 
0 0 0 0 0 0 0 0 0 
0 0 0 0 0 0 0 0 0 
0 0 0 0 0 0 0 0 0 
0 0 0 0 0 0 0 0 0 
0 0 0 0 0 0 0 0 0 
0 0 0 0 0 0 0 0 0 
0 0 0 0 0 0 0 0 0 
0 0 0 0 0 0 0 0 0 
0 0 0 0 0 0 0 0 0 
0 0 0 0 0 0 0 0 0 
0 0 0 0 0 0 0 0 0 
0 0 0 0 0 0 0 0 0 
0 0 0 0 0 0 0 0 0 
0 0 0 0 0 0 0 0 0 
0 0 0 0 0 0 0 0 0 
0 0 0 0 0 0 0 0 0 
0 0 0 0 0 0 0 0 0 
0 0 0 0 0 0 0 0 0 
0 0 0 0 0 0 0 0 0 
0 0 0 0 0 0 0 0 0 
0 0 0 0 0 0 0 0 0 
0 0 0 0 0 0 0 0 0 
0 0 0 0 0 0 0 0 0 
0 0 0 0 0 0 0 0 0 
0 0 0 0 0 0 0 0 0 
0 0 0 0 0 0 0 0 0 
0 0 0 0 0 0 0 0 0 
0 0 0 0 0 0 0 0 0 
0 0 0 0 0 0 0 0 0 
0 0 0 0 0 0 0 0 0 
0 0 0 0 0 0 0 0 0 
0 0 0 0 0 0 0 0 0 
0 0 0 0 0 0 0 0 0 
0 0 0 0 0 0 0 0 0 
0 0 0 0 0 0 0 0 0 
0 0 0 0 0 0 0 0 0 
0 0 0 0 0 0 0 0 0 
0 0 0 0 0 0 0 0 0 
0 0 0 0 0 0 0 0 0 
0 0 0 0 0 0 0 0 0 
0 0 0 0 0 0 0 0 0 
0 0 0 0 0 0 0 0 0 
0 0 0 0 0 0 0 0 0 
0 0 0 0 0 0 0 0 0 
0 0 0 0 0 0 0 0 0 
0 0 0 0 0 0 0 0 0 
0 0 0 0 0 0 0 0 0 
0 0 0 0 0 0 0 0 0 
0 0 0 0 0 0 0 0 0 
0 0 0 0 0 0 0 0 0 
0 0 0 0 0 0 0 0 0 
0 0 0 0 0 0 0 0 0 
0 0 0 0 0 0 0 0 0 
0 0 0 0 0 0 0 0 0 
0 0 0 0 0 0 0 0 0 
0 0 0 0 0 0 0 0 0 
0 0 0 0 0 0 0 0 0 
0 0 0 0 0 0 0 0 0 
0 0 0 0 0 0 0 0 0 
0 0 0 0 0 0 0 0 0 
0 0 0 0 0 0 0 0 0 
0 0 0 0 0 0 0 0 0 
0 0 0 0 0 0 0 0 0 
0 0 0 0 0 0 0 0 0 
0 0 0 0 0 0 0 0 0 
0 0 0 0 0 0 0 0 1 
1 1 1 1 1 1 1 1 1 
1 1 1 1 1 1 1 1 1 
1 1 1 1 1 1 1 1 1 
1 1 1 1 1 1 1 1 1 
1 1 1 1 1 1 1 1 1 
1 1 1 1 1 1 1 1 1 
1 1 1 1 1 1 1 1 1 
1 1 1 1 1 1 1 1 1 
1 1 1 1 1 1 1 1 1 
1 1 1 1 1 1 1 1 1 
1 1 1 1 1 1 1 1 1 
1 1 1 1 1 1 1 1 1 
1 1 1 1 1 1 1 1 1 
1 1 1 1 1 1 1 1 1 
1 1 1 1 1 1 1 1 1 
1 1 1 1 1 1 1 1 1 
1 1 1 1 1 1 1 1 1 
1 1 1 1 1 1 1 1 1 
1 1 1 1 1 1 1 1 1 
1 1 1 1 1 1 1 1 1 
1 1 1 1 1 1 1 1 1 
1 1 1 1 1 1 1 1 1 
1 1 1 1 1 1 1 1 1 
1 1 1 1 1 1 1 1 1 
1 1 1 1 1 1 1 1 1 
1 1 1 1 1 1 1 1 1 
1 1 1 1 1 1 1 1 1 
1 1 1 1 1 1 1 1 1 
1 1 1 1 1 1 1 1 1 
1 1 1 1 1 1 1 1 1 
1 1 1 1 1 1 1 1 1 
1 1 1 1 1 1 1 1 1 
1 1 1 1 1 1 1 1 1 
1 1 1 1 1 1 1 1 1 
1 1 1 1 1 1 1 1 1 
1 1 1 1 1 1 1 1 1 
1 1 1 1 1 1 1 1 1 
1 1 1 1 1 1 1 1 1 
1 1 1 1 1 1 1 1 1 
1 1 1 1 1 1 1 1 1 
1 1 1 1 1 1 1 1 1 
1 1 1 1 1 1 1 1 1 
1 1 1 1 1 1 1 1 1 
1 1 1 1 1 1 1 1 1 
1 1 1 1 1 1 1 1 1 
1 1 1 1 1 1 1 1 1 
1 1 1 1 1 1 1 1 1 
1 1 1 1 1 1 1 1 1 
1 1 1 1 1 1 1 1 1 
1 1 1 1 1 1 1 1 1 
1 1 1 1 1 1 1 1 1 
1 1 1 1 1 1 1 1 1 
1 1 1 1 1 1 1 1 1 
1 1 1 1 1 1 1 1 1 
1 1 1 1 1 1 1 1 1 
1 1 1 1 1 1 1 1 1 
1 1 1 1 1 1 1 1 1 
1 1 2 2 2 2 2 2 2 
2 2 2 2 2 2 2 2 2 
2 2 2 2 2 2 2 2 2 
2 2 2 2 2 2 2 2 2 
2 2 2 2 2 2 2 2 2 
2 2 2 2 2 2 2 2 2 
2 2 2 2 2 2 2 2 2 
2 2 2 2 2 2 2 2 2 
2 2 2 2 2 2 2 2 2 
2 2 2 2 2 2 2 2 2 
2 2 2 2 2 2 2 2 2 
2 2 2 2 2 2 2 2 2 
2 2 2 2 2 2 2 2 2 
2 2 2 2 2 2 2 2 2 
2 2 2 2 2 2 2 2 2 
2 2 2 2 2 2 2 2 2 
2 2 2 2 2 2 2 2 2 
2 2 2 2 2 2 2 2 2 
2 2 2 2 2 2 2 2 2 
2 2 2 2 2 2 2 2 2 
2 2 2 2 2 2 2 2 2 
2 2 2 2 2 2 2 2 2 
2 2 2 2 2 2 2 2 2 
2 2 2 2 2 2 2 2 2 
2 2 2 2 2 2 2 2 2 
2 2 2 2 2 2 2 2 2 
2 2 2 2 2 2 2 2 2 
2 2 2 2 2 2 2 2 2 
2 2 2 2 2 2 2 2 2 
2 2 2 2 2 2 2 2 2 
2 2 2 2 2 2 2 2 2 
2 2 2 2 2 2 2 2 2 
2 2 2 2 2 2 2 2 2 
2 2 2 2 2 2 2 2 2 
2 2 2 2 2 2 2 2 2 
2 2 2 2 2 2 2 2 2 
2 2 2 2 2 2 2 2 2 
2 2 2 2 2 2 2 2 2 
2 2 2 2 2 2 2 2 2 
2 2 2 2 2 2 2 2 2 
2 2 2 2 2 2 2 2 2 
2 2 2 2 2 2 2 2 2 
2 2 2 2 2 2 2 2 2 
2 2 2 2 2 2 2 2 2 
2 2 2 2 2 2 2 2 2 
2 2 2 2 2 2 2 2 2 
2 2 2 2 2 2 2 2 2 
2 2 2 2 2 2 2 2 2 
2 2 2 2 2 2 2 2 2 
2 2 2 2 2 2 2 2 2 
2 2 2 2 2 2 2 2 2 
2 2 2 2 2 2 2 2 2 
2 2 2 2 2 2 2 2 2 
2 2 2 2 2 2 2 2 2 
2 2 2 2 2 2 2 2 2 
2 2 2 2 2 2 2 2 2 
2 2 2 2 2 2 2 2 2 
2 2 2 2 2 2 2 2 2 
2 2 2 2 2 2 2 2 2 
2 2 2 2 2 2 2 2 2 
2 2 2 2 2 2 2 2 2 
2 2 2 2 2 2 2 2 2 
2 2 2 2 2 2 2 2 2 
2 2 2 2 2 2 2 2 2 
2 2 2 2 2 2 2 2 2 
2 2 2 2 2 2 2 2 2 
2 2 2 2 2 2 2 2 2 
2 2 2 2 2 2 2 2 2 
2 2 2 2 2 2 2 2 2 
2 2 2 2 2 2 2 2 2 
2 2 2 2 2 2 2 2 2 
2 2 2 2 2 2 2 2 2 
2 2 2 2 2 2 2 2 2 
2 2 2 2 2 2 2 2 2 
2 2 2 2 2 2 2 2 2 
2 2 2 2 2 2 2 2 2 
2 2 2 2 2 2 2 2 2 
2 2 2 2 2 2 2 2 2 
2 2 2 2 2 2 2 2 2 
2 2 2 2 2 2 2 2 2 
2 2 2 2 2 2 2 2 2 
2 2 2 2 2 2 2 2 2 
2 2 2 2 2 2 2 2 2 
2 2 2 2 2 2 2 2 2 
2 2 2 2 2 2 2 2 2 
2 2 2 2 2 2 2 2 2 
2 2 2 2 2 2 2 2 2 
2 2 2 2 2 2 2 2 2 
2 2 2 2 2 2 2 2 2 
2 2 2 2 2 2 2 2 2 
2 2 2 2 2 2 2 2 2 
2 2 2 2 2 2 2 2 2 
2 2 2 2 2 2 2 2 2 
2 2 2 2 2 2 2 2 2 
2 2 2 2 2 2 2 2 2 
2 2 2 2 2 2 2 2 2 
2 2 2 2 2 2 2 2 2 
2 2 2 2 2 2 2 2 2 
2 2 2 2 2 2 2 2 2 
2 2 2 2 2 2 2 2 2 
2 2 2 2 2 2 2 2 2 
2 2 2 2 2 2 2 2 2 
2 2 2 2 2 2 2 2 2 
2 2 2 2 2 2 2 2 2 
2 2 2 2 2 2 2 2 2 
2 2 2 2 2 2 2 2 2 
2 2 2 2 2 2 2 2 2 
2 2 2 2 2 2 2 2 2 
2 2 2 2 2 2 2 2 2 
2 2 2 2 2 2 2 2 2 
2 2 2 2 2 2 2 2 2 
2 2 2 2 2 2 2 2 2 
2 2 2 2 2 2 2 2 2 
2 2 2 2 2 2 2 2 2 
2 2 2 2 2 2 2 2 2 
2 2 2 2 2 2 2 2 2 
2 2 2 2 2 2 2 2 2 
2 2 2 2 2 2 2 2 2 
2 2 2 2 2 2 2 2 2 
2 2 3 3 3 3 3 3 3 
3 3 3 3 3 3 3 3 3 
3 3 3 3 3 3 3 3 3 
3 3 3 3 3 3 3 3 3 
3 3 3 3 3 3 3 3 3 
3 3 3 3 3 3 3 3 3 
3 3 3 3 3 3 3 3 3 
3 3 3 3 3 3 3 3 3 
3 3 3 3 3 3 3 3 3 
3 3 3 3 3 3 3 3 3 
3 3 3 3 3 3 3 3 3 
3 3 3 3 3 3 3 3 3 
3 3 3 3 3 3 3 3 3 
3 3 3 3 3 3 3 3 3 
3 3 3 3 3 3 3 3 3 
3 3 3 3 3 3 3 3 3 
3 3 3 3 3 3 3 3 3 
3 3 3 3 3 3 3 3 3 
3 3 3 3 3 3 3 3 3 
3 3 3 3 3 3 3 3 3 
3 3 3 3 3 3 3 3 3 
3 3 3 3 3 3 3 3 3 
3 3 3 3 3 3 3 3 3 
3 3 3 3 3 3 3 3 3 
3 3 3 3 3 3 3 3 3 
3 3 3 3 3 3 3 3 3 
3 3 3 3 3 3 3 3 3 
3 3 3 3 3 3 3 3 3 
3 3 3 3 3 3 3 3 3 
3 3 3 3 3 3 3 3 3 
3 3 3 3 3 3 3 3 3 
3 3 3 3 3 3 3 4 4 
4 4 4 4 4 4 4 4 4 
4 4 4 4 4 4 4 4 4 
4 4 4 4 4 4 4 4 4 
4 4 4 4 4 4 4 4 4 
4 4 4 4 4 4 4 4 4 
4 4 4 4 4 4 4 4 4 
4 4 4 4 4 4 4 4 4 
4 4 4 4 4 4 4 4 4 
4 4 4 4 4 4 4 4 4 
4 4 4 4 4 4 4 4 4 
4 4 4 4 4 4 4 4 4 
4 4 4 4 4 4 4 4 4 
4 4 4 4 4 4 4 4 4 
4 4 4 4 4 4 4 4 4 
4 4 4 4 4 4 4 4 4 
4 4 4 4 4 4 4 4 4 
4 4 4 4 4 4 4 4 4 
4 4 4 4 4 4 4 4 4 
4 4 4 4 4 4 4 4 4 
4 4 4 4 4 4 4 4 4 
4 4 4 4 4 4 4 4 4 
4 4 4 4 4 4 4 4 4 
4 4 4 4 4 4 4 4 4 
4 4 4 4 4 4 4 4 4 
4 4 4 4 4 4 4 4 4 
4 4 4 4 4 4 4 4 4 
4 4 4 4 4 4 4 4 4 
4 4 4 4 4 4 4 4 4 
4 4 4 4 4 4 4 4 4 
4 4 4 4 4 4 4 4 4 
4 4 4 4 4 4 4 4 4 
4 4 4 4 4 4 4 4 4 
4 4 4 4 4 4 4 4 4 
4 4 4 4 4 4 4 4 4 
4 4 
charge 1 3377 double
-0.112397 -0.00339617 -0.115409 -0.00252363 -0.0262833 -0.00504623 -0.0192458 -0.00376955 -0.00817652 
-0.0407195 -0.128549 -0.012841 -0.00356883 -0.00136328 -0.00457214 -0.000771239 -0.00276151 -0.000728066 
-0.00245739 -0.000686895 -0.000673652 -0.000610651 -0.000748668 -0.000879251 -0.0013452 -0.00148686 -0.000624236 
-0.00103323 -0.000737019 -0.00143632 -0.00187255 -0.0020585 -0.00213995 -0.00359332 -0.00365639 -0.00924836 
-0.0124612 -0.0122462 -0.0369575 -0.0905242 -0.0015853 -0.000950397 -0.000824272 -0.00158318 -0.00131573 
-0.227306 -0.336177 -0.346862 -0.219376 -0.156114 -0.140351 -0.205242 -0.158281 -0.00436225 
-0.0160977 -0.249282 -0.135876 -0.201195 -0.0638055 -0.10314 -0.00173611 -0.002341 -0.00324914 
-0.00213257 -0.00461291 -0.00454557 -0.00262148 -0.0014966 -0.00215571 -0.00290629 -0.00300082 -0.00400778 
-0.00140994 -0.00253767 -0.00389251 -0.00749289 -0.00166846 -0.00228925 -0.00128783 -0.00156793 -0.00204338 
-0.00190196 -0.00610444 -0.00296658 -0.0101627 -0.00205284 -0.00460682 -0.012947 -0.00892705 -0.00252946 
-0.00152611 -0.00154487 -0.00063201 -0.000852735 -0.000585893 -0.00338097 -0.0110275 -0.00389922 -0.0592677 
-0.00341879 -0.00759926 -0.00563888 -0.000677761 -0.00253288 -0.00261547 -0.00144109 -0.00139494 -0.0009382 
-0.000977564 -0.000571643 -0.000659247 -0.00061295 -0.00103859 -0.000807935 -0.00416139 -0.000813386 -0.00529785 
-0.00129646 -0.00118964 -0.00155116 -0.000730621 -0.000957669 -0.00190119 -0.000788381 -0.00107448 -0.00148509 
-0.00122061 -0.61063 -0.452493 -0.00609177 -0.00745449 -0.418362 -0.367549 -0.369984 -0.291256 
0.00473594 0.00030964 -0.00214282 -0.0904893 -0.0615503 -1.334 -0.801179 -0.531909 -0.288594 
-0.00710168 -0.00390645 -0.0119442 -0.0177958 -0.287066 -0.208319 -0.483947 -0.788129 -0.159797 
-0.132829 -0.527686 -0.744025 -0.00697121 -0.00314997 0.00900138 0.00255057 -0.0465547 -0.00302562 
-0.00153531 -0.00257449 -0.00176125 -0.0314405 -0.00216813 -0.00584354 -0.00439717 -0.0157706 -0.0138076 
-0.0104169 -0.0546861 -0.0216947 -0.0179871 -0.00271055 -0.0248614 -0.055562 -0.0188503 -0.00982309 
-0.00651607 -0.0045151 -0.00331442 -0.00334293 -0.00316331 -0.00261051 -0.00357432 -0.00195685 -0.00159673 
-0.00151117 -0.00139387 -0.00122647 -0.00117749 -0.00124527 -0.00164904 -0.00443608 -0.00595579 -0.00548293 
-0.00721066 -0.00339732 -0.038032 -0.0318567 -0.0208985 -0.0260552 -0.0549725 -0.0249699 -0.0363682 
-0.02326 0.00436422 -0.0224725 -0.0274333 -0.0253883 -0.0108117 -0.0265392 -0.0269834 -0.0203147 
-0.00512283 -0.0154574 -0.016536 -0.0222977 -0.0246649 -0.0268184 -0.0192502 -0.0118361 -0.0321969 
-0.0286448 -0.043501 -0.0486794 -0.0392937 -0.0453878 -0.0477124 -0.0518629 -0.0358438 -0.0499085 
-0.0644989 -0.0589483 -0.00897023 -0.00818502 -0.00330564 -0.00901307 -0.0106766 -0.00734943 -0.0087883 
-0.0101123 -0.00788567 -0.0115281 -0.0107733 -0.0112923 -0.0331521 -0.00553655 -0.00739417 -0.0122568 
-0.00890358 -0.00696076 -0.0136839 -0.00750102 -0.00804513 -0.00803445 -0.0142667 -0.00978706 -0.0116951 
-0.00822091 -0.00652679 -0.00393584 -0.00543629 -0.00599161 -0.00649488 -0.00701183 -0.00407806 -0.00628246 
0.037184 0.0134688 0.0011433 0.0225993 0.00449487 -0.00625964 -0.0107591 -0.0108274 -0.0310037 
-0.0463975 -0.00247962 -0.00162154 -0.00261952 -0.00271586 -0.00183656 -0.00173436 0.134284 0.0608681 
0.0145369 0.0290487 0.0475708 0.0769236 0.0367744 0.0190065 0.0475428 0.0381177 -0.00794865 
-0.00692135 -0.0128701 -0.0243485 -0.0164842 -0.0198745 -0.0454119 -0.0817179 -0.00180456 -0.00512389 
-0.0025357 -0.00158146 -0.00181998 -0.00191526 -0.00221778 -0.00226107 -0.00436371 -0.00245047 -0.00570114 
-0.00246892 -0.00209395 -0.00186547 -0.00151068 -0.00242404 -0.00227465 -0.00626395 -0.00390705 -0.00646535 
-0.0115933 -0.0146649 -0.0370418 -0.0312063 -0.0824369 -0.130161 -0.153492 -0.115773 -0.218439 
-0.158152 -0.00964422 -0.00611657 -0.00905187 -0.00655294 -0.00562295 -0.410895 -0.266071 -0.164747 
-0.401667 -0.71832 -0.349091 -0.799318 -0.720795 -0.788315 -0.716141 -0.725674 -0.715115 
-0.715107 -0.743917 -0.702979 -0.71572 -0.716111 -0.773528 -0.714349 -0.714098 -0.767433 
-0.741057 -0.763746 -0.742369 -0.807082 -0.742034 -0.890062 -0.796139 -0.898885 -0.740128 
-0.737797 -0.924526 -0.884415 -0.891621 -0.849795 -0.851796 -0.845174 -0.746877 -0.718927 
-0.71445 -0.801596 -0.742196 -0.899803 -1.35873 -0.731835 -0.905748 -0.715608 -0.721578 
-0.729937 -0.740357 -0.729381 -0.714409 -0.73052 -0.721793 -0.714414 -0.725121 -0.714036 
-0.717634 -0.736849 -0.718462 -0.717511 -0.714186 -0.727482 -0.754324 -0.717386 -0.717456 
-0.72117 -0.772944 -0.713897 -0.715044 -0.744561 -0.742112 -0.704561 -0.718326 -0.716604 
-0.73909 -0.73212 -0.719507 -0.718631 -0.734645 -0.719134 -0.718065 -0.719248 -0.717802 
-0.721554 -0.725338 -0.716718 -0.704407 -0.715409 -0.715576 -0.715804 -0.715377 -0.718039 
-0.714741 -0.722352 -0.717422 -0.714781 -0.715528 -0.714979 -0.718326 -0.728228 -0.721206 
-0.714475 -0.71633 -0.71922 -0.717211 -0.717027 -0.74636 -0.714353 -0.74398 -0.716583 
-0.718604 -0.715694 -0.715575 -0.716094 -0.715392 -0.71459 -0.715533 -0.716158 -0.714049 
-0.938865 -0.744157 -0.752297 -0.715769 -0.723649 -0.713771 -0.714238 -0.713867 -0.713967 
-0.71365 -0.715504 -0.733799 -0.713934 -0.733405 -0.713994 -0.742733 -0.778472 -0.71489 
-0.715594 -0.718237 -0.713913 -0.747231 -0.713959 -0.717741 -0.715586 -0.715176 -0.718659 
-0.798183 -0.71534 -0.715312 -0.714521 -0.71414 -0.714133 -0.714104 -0.714733 -0.726635 
-0.716166 -0.750807 -0.714478 -0.713858 -0.720322 -0.726417 -0.713901 -0.719826 -0.713964 
-0.788101 -0.734146 -0.758093 -0.727791 -0.715914 -0.797401 -0.714289 -0.723038 -0.71545 
-0.724263 -0.714351 -0.777738 -0.72904 -0.714128 -0.729614 -0.741674 -0.713652 -0.715551 
-0.716097 -0.719815 -0.714047 -0.722879 -0.714074 -0.715355 -0.715944 -0.71934 -0.71498 
-0.716245 -0.714283 -0.771999 -0.721063 -0.719181 -0.71451 -0.71422 -0.714794 -0.770501 
-0.717171 -0.715044 -0.714955 -0.71679 -0.721812 -0.715841 -0.714704 -0.720242 -0.714741 
-0.733605 -0.71662 -0.716386 -0.712534 -0.717309 -0.723389 -0.714372 -0.771294 -0.723802 
-0.714062 -0.828853 -0.725467 -0.718233 -0.714704 -0.713555 -0.715857 -0.71412 -0.58457 
-0.714034 -0.724183 -0.714946 -0.739629 -0.714359 -0.712456 -0.713901 -0.836546 -0.723233 
-0.714391 -0.714238 -0.71395 -0.714006 -0.328634 -0.667868 -0.716723 -0.714715 -0.377362 
-0.33352 -0.716679 -0.714365 -0.297541 -0.714419 -0.763096 -0.715576 -0.79126 -0.744268 
-0.728219 -0.728023 -0.720044 -0.719862 -0.735902 -0.721633 -0.715426 -0.744219 -0.726929 
-0.725329 -0.720807 -0.71437 -0.744315 -0.714043 -0.727535 -0.716371 -0.714337 -0.737398 
-0.71701 -0.718411 -1.40772 -1.02414 -0.980133 -0.786704 -1.22189 -1.43967 -0.885257 
-0.706232 -0.886867 -0.906184 -0.961233 -0.733259 -1.02622 -0.739322 -0.698206 -0.853636 
-0.83903 -0.803017 -0.731732 -0.761112 -0.712613 -0.719593 -0.714474 -0.71415 -0.722875 
-0.714576 -0.719354 -0.714894 -0.714874 -0.722589 -0.719884 -0.71691 -0.716867 -0.715836 
-0.715315 -0.715506 -0.715241 -0.715496 -0.715315 -0.725793 -0.721776 -0.713611 -0.713755 
-0.713812 -0.713963 -0.715789 -0.713769 -0.722582 -0.730976 -0.713316 -0.637752 -0.71613 
-0.716102 -0.724831 -0.734669 -0.714794 -0.713357 -0.72236 -0.715508 -0.705411 -0.716634 
-0.726469 -0.714154 -0.713659 -0.714552 -0.714155 -0.714028 -0.714312 -0.7139 -0.713958 
-0.714369 -0.714558 -0.71436 -0.714808 -0.714993 -0.716037 -0.715096 -0.714768 -0.715039 
-0.714568 -0.714529 -0.714278 -0.714192 -0.713989 -0.714135 -0.714187 -0.714673 -0.716956 
-0.715423 -0.714086 -0.71438 -0.714131 -0.714343 -0.714133 -0.716479 -0.719003 -0.78789 
-0.71456 -0.714073 -0.714276 -0.713875 -0.713816 -0.714181 -0.71379 -0.714926 -0.714207 
-0.714626 -0.715864 -0.716397 -0.744653 -0.714492 -0.739506 -0.714886 -0.715975 -0.714781 
-0.716281 -1.07341 -0.740811 -0.737067 -0.715306 -0.714651 -0.714667 -0.878302 -0.757916 
-0.730816 -0.730586 -0.71569 -0.804125 -0.807305 -0.716378 -0.714225 -0.714221 -0.714103 
-0.714191 -0.714205 -0.711005 -0.728815 -0.715343 -0.715023 -0.717658 -0.719173 -0.726382 
-0.762221 -0.719105 -0.716847 -0.714194 -0.714067 -0.714563 -0.72758 -0.755697 -0.713223 
-0.813957 -0.71496 -0.714592 -0.714711 -0.714383 -0.722124 -0.737137 -0.577484 -0.72686 
-0.757156 -0.713985 -0.715226 -0.714758 -0.714911 -0.715257 -0.719728 -0.717219 -0.731209 
-0.709742 -0.800596 -0.802525 -0.714805 -0.715249 -0.714934 -0.714993 -0.715443 -0.718017 
-0.715792 -0.715288 -0.715525 -0.721774 -0.714897 -0.715676 -0.7288 -0.722264 -0.715251 
-0.718516 -0.714002 -0.714296 -0.719972 -0.731931 -0.715119 -0.714391 -0.715155 -0.714967 
-0.72514 -0.720209 -0.714434 -0.719169 -0.76296 -0.831386 -0.723771 -0.714108 -0.832399 
-0.733092 -0.715771 -0.726919 -0.877078 -0.731825 -0.713616 -0.713769 -0.714169 -0.713974 
-0.714589 -0.716804 -0.71444 -0.714242 -0.718055 -0.87625 -0.722831 -0.720228 -0.727104 
-0.743465 -0.722117 -0.714053 -0.714199 -0.714913 -0.713931 -0.714593 -0.716339 -0.742923 
-0.624173 -0.729332 -0.713753 -0.719107 -0.731939 -0.714563 -0.714576 -0.714819 -0.715204 
-0.714868 -0.715689 -0.714547 -0.714673 -0.714488 -0.713798 -0.713666 -0.713916 -0.714345 
-0.722729 -0.718816 -0.719616 -0.722282 -0.716142 -0.718187 -0.716934 -0.715437 -0.716467 
-0.715303 -0.724394 -0.71976 -0.715188 -0.732964 -0.717517 -0.715825 -0.720757 -0.715178 
-0.822279 -0.727697 -0.84725 -0.731274 -0.733534 -0.832276 -0.73555 -0.717294 -0.717858 
-0.717169 -0.72051 -0.716962 -0.717558 -0.718039 -0.71676 -0.708748 -0.723122 -0.715125 
-0.717365 -0.718079 -0.712758 -0.703946 -0.722679 -0.721556 -0.720488 -0.732388 -0.719563 
-0.719679 -0.72792 -0.718401 -0.732492 -0.717275 -0.715254 -0.716798 -0.716312 -0.72055 
-0.729534 -0.717157 -0.716149 -0.709036 -0.717781 -0.715595 -0.715672 -0.714822 -0.737693 
-0.715947 -0.714013 -0.713594 -0.729417 -0.713787 -0.759776 -0.713681 -0.715015 -0.717668 
-0.717064 -0.723312 -0.713447 -0.724139 -0.71886 -0.715919 -0.71403 -0.720345 -0.714528 
-0.71972 -0.727705 -0.718851 -0.716546 -0.719678 -0.746582 -0.716709 -0.714339 -0.721112 
-0.714293 -0.771243 -0.713919 -0.714927 -0.716679 -0.716635 -0.723838 -0.735856 -0.722994 
-0.71701 -0.720486 -0.753419 -0.720505 -0.717417 -0.721738 -0.750348 -0.716461 -0.717381 
-0.723687 -0.731419 -0.719694 -0.717881 -0.719057 -0.772556 -0.726468 -0.715044 -0.718671 
-0.719019 -0.717668 -0.827499 -0.71853 -0.846641 -0.73263 -0.729105 -0.423019 -0.0429498 
-0.176039 -0.0806143 -0.0991184 -0.0595668 -0.338199 -0.126321 -0.177466 -0.125669 -0.139307 
-0.0316138 -0.0364981 -0.0148095 -0.0117723 -0.00639301 -0.00492483 -0.00603067 -0.497143 -0.182503 
-0.27053 -0.0876948 -0.130507 -0.00356096 -0.00721754 -0.00603118 -0.00505062 -0.00730601 -0.00755542 
-0.00859194 -0.00593574 -0.00623755 -0.00749976 -0.00531621 -0.00471142 -0.754058 -0.33981 -0.198936 
-0.160098 -0.909431 -0.392723 -0.00200803 -0.000943039 -0.00153754 -0.000570736 -0.00164954 -0.000628507 
-0.000893222 -0.00149558 -0.00180103 -0.00134358 -0.00179976 -0.00198633 -0.00241253 -0.00340245 -0.00406636 
-0.00540087 -0.0128663 -0.145145 -0.0115992 -0.0677273 -0.00881717 -0.00438935 -0.00308446 -0.00165436 
-0.00122523 -0.000851017 -0.000721176 -0.000787592 -0.000624625 -0.00128892 -0.00100691 -0.0015462 -0.00243367 
-0.000992379 -0.00155615 -0.0252215 -0.00708684 -0.0155461 -0.00579209 -0.0282185 -0.0610308 -0.0110621 
-0.0119476 -0.0121661 -0.0372014 -0.234288 -0.236249 -0.174851 -0.535248 -0.208581 -0.349153 
-0.227352 -0.139332 -0.00330665 -0.00743951 -0.0182794 0.00377568 -0.000185519 0.00548037 0.0093384 
0.000835257 -0.00592395 -0.0909927 -0.35069 -0.210905 -0.0966847 -0.129046 -0.00320714 -0.00227 
-0.00347934 -0.00165393 -0.00427745 -0.00380697 -0.00139705 -0.00235635 -0.00253797 -0.00459929 -0.00083678 
-0.000688029 -0.00064779 -0.00105228 -0.00066354 -0.00259344 -0.00341709 -0.0588428 -0.00362319 -0.0109685 
-0.0579905 -0.0132317 -0.00392888 -0.011012 -0.00426227 -0.000739841 -0.000671467 -0.00851044 -0.00185204 
-0.0036217 -0.00691533 -0.00102616 -0.00146761 -0.00110598 -0.00137552 -0.000763811 -0.000877145 -0.000669232 
-0.0006299 -0.000739727 -0.000845882 -0.00133393 -0.000589242 -0.000754988 -0.00303364 -0.00499735 -0.00133102 
-0.00115831 -0.000887609 -0.00156601 -0.00346467 -0.00260868 -0.568808 -0.466824 0.0126751 0.0125838 
-0.384983 -0.291271 -0.255239 -0.349169 -0.00251905 -0.00226156 -0.0583077 -0.0462934 -1.29371 
-0.89417 -0.349106 -0.289067 0.00640605 0.00832353 0.0152258 0.021246 -0.760782 -0.453759 
-0.181882 -0.255559 -0.133566 -0.15321 -0.388075 -0.73204 -0.0057304 -0.00432681 -0.00144513 
-0.00172504 -0.0967616 -0.0315542 -0.00169996 -0.00302416 -0.0216406 -0.0322522 -0.00418612 -0.11191 
-0.0138623 -0.00991624 -0.00182201 -0.0321933 -0.0135325 -0.0064533 -0.0219951 -0.115958 -0.000329487 