# vtk DataFile Version 4.0
vtk output
ASCII
DATASET STRUCTURED_POINTS
DIMENSIONS 62 62 62
SPACING 0.05 0.05 0.05
ORIGIN -1.525 -0.525 -0.525
POINT_DATA 238328
FIELD FieldData 1
potential 1 238328 double
0.0366318 0.0366577 0.0366837 0.0367097 0.0367357 0.0367617 0.0367878 0.036814 0.0368401 
0.0368664 0.0368926 0.0369189 0.0369452 0.0369716 0.036998 0.0370245 0.0370509 0.0370775 
0.037104 0.0371307 0.0371573 0.037184 0.0372107 0.0372375 0.0372643 0.0372911 0.037318 
0.037345 0.0373719 0.037399 0.037426 0.0374531 0.0374802 0.0375074 0.0375346 0.0375619 
0.0375892 0.0376166 0.0376439 0.0376714 0.0376988 0.0377263 0.0377539 0.0377815 0.0378091 
0.0378368 0.0378645 0.0378923 0.0379201 0.037948 0.0379759 0.0380038 0.0380318 0.0380598 
0.0380879 0.038116 0.0381442 0.0381724 0.0382006 0.0382289 0.0382572 0.0382856 0.0366287 
0.0366546 0.0366805 0.0367065 0.0367325 0.0367586 0.0367847 0.0368108 0.0368369 0.0368632 
0.0368894 0.0369157 0.036942 0.0369684 0.0369948 0.0370212 0.0370477 0.0370742 0.0371008 
0.0371274 0.037154 0.0371807 0.0372074 0.0372342 0.037261 0.0372878 0.0373147 0.0373416 
0.0373686 0.0373956 0.0374226 0.0374497 0.0374769 0.037504 0.0375312 0.0375585 0.0375858 
0.0376131 0.0376405 0.0376679 0.0376954 0.0377229 0.0377504 0.037778 0.0378057 0.0378333 
0.037861 0.0378888 0.0379166 0.0379445 0.0379723 0.0380003 0.0380282 0.0380563 0.0380843 
0.0381124 0.0381406 0.0381688 0.038197 0.0382253 0.0382536 0.038282 0.0366255 0.0366514 
0.0366774 0.0367033 0.0367293 0.0367554 0.0367815 0.0368076 0.0368337 0.0368599 0.0368862 
0.0369124 0.0369388 0.0369651 0.0369915 0.0370179 0.0370444 0.0370709 0.0370975 0.0371241 
0.0371507 0.0371774 0.0372041 0.0372308 0.0372576 0.0372845 0.0373114 0.0373383 0.0373652 
0.0373922 0.0374193 0.0374463 0.0374735 0.0375006 0.0375278 0.0375551 0.0375824 0.0376097 
0.0376371 0.0376645 0.0376919 0.0377194 0.037747 0.0377745 0.0378022 0.0378298 0.0378575 
0.0378853 0.0379131 0.0379409 0.0379688 0.0379967 0.0380247 0.0380527 0.0380807 0.0381088 
0.038137 0.0381651 0.0381934 0.0382216 0.03825 0.0382783 0.0366224 0.0366483 0.0366742 
0.0367001 0.0367261 0.0367522 0.0367782 0.0368044 0.0368305 0.0368567 0.0368829 0.0369092 
0.0369355 0.0369618 0.0369882 0.0370147 0.0370411 0.0370676 0.0370942 0.0371208 0.0371474 
0.037174 0.0372008 0.0372275 0.0372543 0.0372811 0.037308 0.0373349 0.0373618 0.0373888 
0.0374159 0.0374429 0.03747 0.0374972 0.0375244 0.0375516 0.0375789 0.0376062 0.0376336 
0.037661 0.0376884 0.0377159 0.0377434 0.037771 0.0377986 0.0378263 0.037854 0.0378817 
0.0379095 0.0379373 0.0379652 0.0379931 0.0380211 0.0380491 0.0380771 0.0381052 0.0381333 
0.0381615 0.0381897 0.038218 0.0382463 0.0382746 0.0366192 0.0366451 0.036671 0.0366969 
0.0367229 0.0367489 0.036775 0.0368011 0.0368272 0.0368534 0.0368797 0.0369059 0.0369322 
0.0369586 0.0369849 0.0370114 0.0370378 0.0370643 0.0370908 0.0371174 0.037144 0.0371707 
0.0371974 0.0372241 0.0372509 0.0372777 0.0373046 0.0373315 0.0373584 0.0373854 0.0374124 
0.0374395 0.0374666 0.0374937 0.0375209 0.0375482 0.0375754 0.0376027 0.0376301 0.0376575 
0.0376849 0.0377124 0.0377399 0.0377675 0.0377951 0.0378227 0.0378504 0.0378782 0.0379059 
0.0379338 0.0379616 0.0379895 0.0380175 0.0380455 0.0380735 0.0381016 0.0381297 0.0381578 
0.0381861 0.0382143 0.0382426 0.0382709 0.036616 0.0366418 0.0366677 0.0366937 0.0367197 
0.0367457 0.0367717 0.0367978 0.036824 0.0368502 0.0368764 0.0369026 0.0369289 0.0369552 
0.0369816 0.037008 0.0370345 0.037061 0.0370875 0.0371141 0.0371407 0.0371673 0.037194 
0.0372207 0.0372475 0.0372743 0.0373012 0.0373281 0.037355 0.037382 0.037409 0.037436 
0.0374631 0.0374903 0.0375174 0.0375447 0.0375719 0.0375992 0.0376266 0.037654 0.0376814 
0.0377089 0.0377364 0.0377639 0.0377915 0.0378192 0.0378468 0.0378746 0.0379023 0.0379301 
0.037958 0.0379859 0.0380138 0.0380418 0.0380698 0.0380979 0.038126 0.0381542 0.0381824 
0.0382106 0.0382389 0.0382672 0.0366127 0.0366386 0.0366645 0.0366904 0.0367164 0.0367424 
0.0367685 0.0367946 0.0368207 0.0368469 0.0368731 0.0368993 0.0369256 0.0369519 0.0369783 
0.0370047 0.0370311 0.0370576 0.0370841 0.0371107 0.0371373 0.0371639 0.0371906 0.0372173 
0.0372441 0.0372709 0.0372977 0.0373246 0.0373515 0.0373785 0.0374055 0.0374326 0.0374596 
0.0374868 0.0375139 0.0375412 0.0375684 0.0375957 0.037623 0.0376504 0.0376778 0.0377053 
0.0377328 0.0377603 0.0377879 0.0378156 0.0378432 0.037871 0.0378987 0.0379265 0.0379544 
0.0379822 0.0380102 0.0380381 0.0380662 0.0380942 0.0381223 0.0381505 0.0381787 0.0382069 
0.0382352 0.0382635 0.0366095 0.0366353 0.0366612 0.0366872 0.0367131 0.0367391 0.0367652 
0.0367913 0.0368174 0.0368435 0.0368697 0.036896 0.0369223 0.0369486 0.0369749 0.0370013 
0.0370278 0.0370542 0.0370807 0.0371073 0.0371339 0.0371605 0.0371872 0.0372139 0.0372407 
0.0372674 0.0372943 0.0373212 0.0373481 0.037375 0.037402 0.0374291 0.0374561 0.0374833 
0.0375104 0.0375376 0.0375649 0.0375922 0.0376195 0.0376469 0.0376743 0.0377017 0.0377292 
0.0377567 0.0377843 0.0378119 0.0378396 0.0378673 0.0378951 0.0379229 0.0379507 0.0379786 
0.0380065 0.0380345 0.0380625 0.0380905 0.0381186 0.0381467 0.0381749 0.0382031 0.0382314 
0.0382597 0.0366062 0.0366321 0.036658 0.0366839 0.0367098 0.0367358 0.0367619 0.0367879 
0.0368141 0.0368402 0.0368664 0.0368926 0.0369189 0.0369452 0.0369715 0.0369979 0.0370244 
0.0370508 0.0370773 0.0371039 0.0371305 0.0371571 0.0371837 0.0372105 0.0372372 0.037264 
0.0372908 0.0373177 0.0373446 0.0373715 0.0373985 0.0374255 0.0374526 0.0374797 0.0375069 
0.0375341 0.0375613 0.0375886 0.0376159 0.0376433 0.0376707 0.0376981 0.0377256 0.0377531 
0.0377807 0.0378083 0.037836 0.0378637 0.0378914 0.0379192 0.037947 0.0379749 0.0380028 
0.0380307 0.0380587 0.0380868 0.0381149 0.038143 0.0381712 0.0381994 0.0382276 0.0382559 
0.0366029 0.0366288 0.0366547 0.0366806 0.0367065 0.0367325 0.0367585 0.0367846 0.0368107 
0.0368368 0.036863 0.0368893 0.0369155 0.0369418 0.0369682 0.0369945 0.0370209 0.0370474 
0.0370739 0.0371004 0.037127 0.0371536 0.0371803 0.037207 0.0372337 0.0372605 0.0372873 
0.0373142 0.0373411 0.037368 0.037395 0.037422 0.0374491 0.0374762 0.0375033 0.0375305 
0.0375577 0.037585 0.0376123 0.0376397 0.0376671 0.0376945 0.037722 0.0377495 0.037777 
0.0378047 0.0378323 0.03786 0.0378877 0.0379155 0.0379433 0.0379712 0.0379991 0.038027 
0.038055 0.038083 0.0381111 0.0381392 0.0381674 0.0381956 0.0382238 0.0382521 0.0365996 
0.0366255 0.0366513 0.0366772 0.0367032 0.0367292 0.0367552 0.0367812 0.0368073 0.0368335 
0.0368596 0.0368859 0.0369121 0.0369384 0.0369647 0.0369911 0.0370175 0.037044 0.0370705 
0.037097 0.0371236 0.0371502 0.0371768 0.0372035 0.0372302 0.037257 0.0372838 0.0373107 
0.0373375 0.0373645 0.0373914 0.0374185 0.0374455 0.0374726 0.0374997 0.0375269 0.0375541 
0.0375814 0.0376087 0.037636 0.0376634 0.0376908 0.0377183 0.0377458 0.0377734 0.037801 
0.0378286 0.0378563 0.037884 0.0379118 0.0379396 0.0379674 0.0379953 0.0380233 0.0380512 
0.0380793 0.0381073 0.0381354 0.0381636 0.0381918 0.03822 0.0382483 0.0365963 0.0366221 
0.036648 0.0366739 0.0366998 0.0367258 0.0367518 0.0367779 0.036804 0.0368301 0.0368562 
0.0368824 0.0369087 0.036935 0.0369613 0.0369877 0.0370141 0.0370405 0.037067 0.0370935 
0.0371201 0.0371467 0.0371733 0.0372 0.0372267 0.0372535 0.0372803 0.0373071 0.037334 
0.0373609 0.0373879 0.0374149 0.0374419 0.037469 0.0374961 0.0375233 0.0375505 0.0375778 
0.0376051 0.0376324 0.0376598 0.0376872 0.0377146 0.0377421 0.0377697 0.0377973 0.0378249 
0.0378526 0.0378803 0.037908 0.0379358 0.0379637 0.0379916 0.0380195 0.0380475 0.0380755 
0.0381035 0.0381316 0.0381598 0.038188 0.0382162 0.0382445 0.036593 0.0366188 0.0366446 
0.0366705 0.0366965 0.0367224 0.0367484 0.0367745 0.0368005 0.0368267 0.0368528 0.036879 
0.0369053 0.0369315 0.0369578 0.0369842 0.0370106 0.037037 0.0370635 0.03709 0.0371166 
0.0371432 0.0371698 0.0371965 0.0372232 0.0372499 0.0372767 0.0373035 0.0373304 0.0373573 
0.0373843 0.0374113 0.0374383 0.0374654 0.0374925 0.0375197 0.0375469 0.0375741 0.0376014 
0.0376287 0.0376561 0.0376835 0.037711 0.0377384 0.037766 0.0377936 0.0378212 0.0378488 
0.0378765 0.0379043 0.0379321 0.0379599 0.0379878 0.0380157 0.0380437 0.0380717 0.0380997 
0.0381278 0.0381559 0.0381841 0.0382123 0.0382406 0.0365896 0.0366154 0.0366413 0.0366671 
0.0366931 0.036719 0.036745 0.036771 0.0367971 0.0368232 0.0368494 0.0368756 0.0369018 
0.0369281 0.0369544 0.0369807 0.0370071 0.0370335 0.03706 0.0370865 0.037113 0.0371396 
0.0371662 0.0371929 0.0372196 0.0372464 0.0372731 0.0373 0.0373268 0.0373537 0.0373807 
0.0374077 0.0374347 0.0374618 0.0374889 0.037516 0.0375432 0.0375704 0.0375977 0.037625 
0.0376524 0.0376798 0.0377072 0.0377347 0.0377622 0.0377898 0.0378174 0.0378451 0.0378728 
0.0379005 0.0379283 0.0379561 0.037984 0.0380119 0.0380398 0.0380678 0.0380959 0.0381239 
0.0381521 0.0381802 0.0382084 0.0382367 0.0365862 0.036612 0.0366379 0.0366637 0.0366897 
0.0367156 0.0367416 0.0367676 0.0367937 0.0368198 0.0368459 0.0368721 0.0368983 0.0369246 
0.0369509 0.0369772 0.0370036 0.03703 0.0370565 0.037083 0.0371095 0.0371361 0.0371627 
0.0371893 0.037216 0.0372428 0.0372695 0.0372964 0.0373232 0.0373501 0.0373771 0.037404 
0.037431 0.0374581 0.0374852 0.0375124 0.0375395 0.0375668 0.037594 0.0376213 0.0376487 
0.0376761 0.0377035 0.037731 0.0377585 0.0377861 0.0378137 0.0378413 0.037869 0.0378967 
0.0379245 0.0379523 0.0379801 0.038008 0.038036 0.038064 0.038092 0.0381201 0.0381482 
0.0381763 0.0382045 0.0382328 0.0365828 0.0366086 0.0366345 0.0366603 0.0366862 0.0367122 
0.0367381 0.0367642 0.0367902 0.0368163 0.0368424 0.0368686 0.0368948 0.0369211 0.0369474 
0.0369737 0.0370001 0.0370265 0.0370529 0.0370794 0.0371059 0.0371325 0.0371591 0.0371858 
0.0372124 0.0372392 0.0372659 0.0372927 0.0373196 0.0373465 0.0373734 0.0374004 0.0374274 
0.0374544 0.0374815 0.0375087 0.0375358 0.037563 0.0375903 0.0376176 0.0376449 0.0376723 
0.0376997 0.0377272 0.0377547 0.0377823 0.0378099 0.0378375 0.0378652 0.0378929 0.0379206 
0.0379485 0.0379763 0.0380042 0.0380321 0.0380601 0.0380881 0.0381162 0.0381443 0.0381724 
0.0382006 0.0382289 0.0365794 0.0366052 0.036631 0.0366569 0.0366828 0.0367087 0.0367347 
0.0367607 0.0367867 0.0368128 0.0368389 0.0368651 0.0368913 0.0369176 0.0369438 0.0369702 
0.0369965 0.0370229 0.0370494 0.0370758 0.0371024 0.0371289 0.0371555 0.0371821 0.0372088 
0.0372355 0.0372623 0.0372891 0.0373159 0.0373428 0.0373697 0.0373967 0.0374237 0.0374507 
0.0374778 0.0375049 0.0375321 0.0375593 0.0375866 0.0376139 0.0376412 0.0376686 0.037696 
0.0377234 0.0377509 0.0377785 0.037806 0.0378337 0.0378613 0.037889 0.0379168 0.0379446 
0.0379724 0.0380003 0.0380282 0.0380562 0.0380842 0.0381123 0.0381404 0.0381685 0.0381967 
0.0382249 0.036576 0.0366018 0.0366276 0.0366534 0.0366793 0.0367052 0.0367312 0.0367572 
0.0367832 0.0368093 0.0368354 0.0368616 0.0368878 0.036914 0.0369403 0.0369666 0.036993 
0.0370193 0.0370458 0.0370722 0.0370988 0.0371253 0.0371519 0.0371785 0.0372052 0.0372319 
0.0372586 0.0372854 0.0373123 0.0373391 0.037366 0.037393 0.03742 0.037447 0.0374741 
0.0375012 0.0375284 0.0375556 0.0375828 0.0376101 0.0376374 0.0376648 0.0376922 0.0377196 
0.0377471 0.0377746 0.0378022 0.0378298 0.0378575 0.0378852 0.0379129 0.0379407 0.0379685 
0.0379964 0.0380243 0.0380523 0.0380803 0.0381083 0.0381364 0.0381645 0.0381927 0.0382209 
0.0365725 0.0365983 0.0366241 0.0366499 0.0366758 0.0367017 0.0367277 0.0367537 0.0367797 
0.0368058 0.0368319 0.036858 0.0368842 0.0369105 0.0369367 0.036963 0.0369894 0.0370157 
0.0370422 0.0370686 0.0370951 0.0371217 0.0371483 0.0371749 0.0372015 0.0372282 0.037255 
0.0372818 0.0373086 0.0373354 0.0373623 0.0373893 0.0374163 0.0374433 0.0374704 0.0374975 
0.0375246 0.0375518 0.037579 0.0376063 0.0376336 0.037661 0.0376884 0.0377158 0.0377433 
0.0377708 0.0377984 0.037826 0.0378536 0.0378813 0.037909 0.0379368 0.0379646 0.0379925 
0.0380204 0.0380483 0.0380763 0.0381044 0.0381324 0.0381606 0.0381887 0.0382169 0.0365691 
0.0365948 0.0366206 0.0366464 0.0366723 0.0366982 0.0367242 0.0367502 0.0367762 0.0368022 
0.0368283 0.0368545 0.0368807 0.0369069 0.0369331 0.0369594 0.0369858 0.0370121 0.0370385 
0.037065 0.0370915 0.037118 0.0371446 0.0371712 0.0371979 0.0372246 0.0372513 0.0372781 
0.0373049 0.0373317 0.0373586 0.0373855 0.0374125 0.0374395 0.0374666 0.0374937 0.0375208 
0.037548 0.0375752 0.0376025 0.0376298 0.0376571 0.0376845 0.0377119 0.0377394 0.0377669 
0.0377945 0.0378221 0.0378497 0.0378774 0.0379051 0.0379329 0.0379607 0.0379885 0.0380164 
0.0380444 0.0380724 0.0381004 0.0381284 0.0381566 0.0381847 0.0382129 0.0365656 0.0365913 
0.0366171 0.0366429 0.0366688 0.0366947 0.0367206 0.0367466 0.0367726 0.0367987 0.0368248 
0.0368509 0.0368771 0.0369033 0.0369295 0.0369558 0.0369821 0.0370085 0.0370349 0.0370613 
0.0370878 0.0371144 0.0371409 0.0371675 0.0371942 0.0372208 0.0372476 0.0372743 0.0373011 
0.037328 0.0373549 0.0373818 0.0374088 0.0374358 0.0374628 0.0374899 0.037517 0.0375442 
0.0375714 0.0375987 0.0376259 0.0376533 0.0376807 0.0377081 0.0377355 0.037763 0.0377906 
0.0378182 0.0378458 0.0378735 0.0379012 0.0379289 0.0379567 0.0379846 0.0380125 0.0380404 
0.0380684 0.0380964 0.0381244 0.0381525 0.0381807 0.0382089 0.0365621 0.0365878 0.0366136 
0.0366394 0.0366652 0.0366911 0.0367171 0.036743 0.036769 0.0367951 0.0368212 0.0368473 
0.0368735 0.0368997 0.0369259 0.0369522 0.0369785 0.0370048 0.0370312 0.0370577 0.0370842 
0.0371107 0.0371372 0.0371638 0.0371904 0.0372171 0.0372438 0.0372706 0.0372974 0.0373242 
0.0373511 0.037378 0.037405 0.037432 0.037459 0.0374861 0.0375132 0.0375404 0.0375676 
0.0375948 0.0376221 0.0376494 0.0376768 0.0377042 0.0377316 0.0377591 0.0377867 0.0378142 
0.0378419 0.0378695 0.0378972 0.037925 0.0379528 0.0379806 0.0380085 0.0380364 0.0380643 
0.0380924 0.0381204 0.0381485 0.0381766 0.0382048 0.0365585 0.0365843 0.03661 0.0366358 
0.0366617 0.0366876 0.0367135 0.0367394 0.0367654 0.0367915 0.0368176 0.0368437 0.0368698 
0.036896 0.0369222 0.0369485 0.0369748 0.0370012 0.0370276 0.037054 0.0370805 0.037107 
0.0371335 0.0371601 0.0371867 0.0372134 0.0372401 0.0372668 0.0372936 0.0373204 0.0373473 
0.0373742 0.0374012 0.0374281 0.0374552 0.0374822 0.0375094 0.0375365 0.0375637 0.0375909 
0.0376182 0.0376455 0.0376729 0.0377003 0.0377277 0.0377552 0.0377827 0.0378103 0.0378379 
0.0378656 0.0378933 0.037921 0.0379488 0.0379766 0.0380045 0.0380324 0.0380603 0.0380883 
0.0381163 0.0381444 0.0381725 0.0382007 0.036555 0.0365807 0.0366065 0.0366323 0.0366581 
0.036684 0.0367099 0.0367358 0.0367618 0.0367879 0.0368139 0.03684 0.0368662 0.0368924 
0.0369186 0.0369448 0.0369711 0.0369975 0.0370239 0.0370503 0.0370767 0.0371032 0.0371298 
0.0371563 0.037183 0.0372096 0.0372363 0.0372631 0.0372898 0.0373166 0.0373435 0.0373704 
0.0373973 0.0374243 0.0374513 0.0374784 0.0375055 0.0375326 0.0375598 0.037587 0.0376143 
0.0376416 0.037669 0.0376964 0.0377238 0.0377513 0.0377788 0.0378063 0.0378339 0.0378616 
0.0378893 0.037917 0.0379448 0.0379726 0.0380004 0.0380283 0.0380563 0.0380842 0.0381123 
0.0381403 0.0381685 0.0381966 0.0365514 0.0365771 0.0366029 0.0366287 0.0366545 0.0366804 
0.0367063 0.0367322 0.0367582 0.0367842 0.0368103 0.0368364 0.0368625 0.0368887 0.0369149 
0.0369412 0.0369674 0.0369938 0.0370201 0.0370466 0.037073 0.0370995 0.037126 0.0371526 
0.0371792 0.0372058 0.0372325 0.0372592 0.037286 0.0373128 0.0373397 0.0373666 0.0373935 
0.0374205 0.0374475 0.0374745 0.0375016 0.0375287 0.0375559 0.0375831 0.0376104 0.0376377 
0.037665 0.0376924 0.0377198 0.0377473 0.0377748 0.0378023 0.0378299 0.0378576 0.0378852 
0.037913 0.0379407 0.0379685 0.0379964 0.0380243 0.0380522 0.0380802 0.0381082 0.0381362 
0.0381643 0.0381925 0.0365478 0.0365735 0.0365993 0.0366251 0.0366509 0.0366767 0.0367026 
0.0367286 0.0367545 0.0367806 0.0368066 0.0368327 0.0368588 0.036885 0.0369112 0.0369374 
0.0369637 0.03699 0.0370164 0.0370428 0.0370692 0.0370957 0.0371222 0.0371488 0.0371754 
0.037202 0.0372287 0.0372554 0.0372822 0.037309 0.0373358 0.0373627 0.0373896 0.0374166 
0.0374436 0.0374706 0.0374977 0.0375248 0.037552 0.0375792 0.0376064 0.0376337 0.0376611 
0.0376884 0.0377158 0.0377433 0.0377708 0.0377983 0.0378259 0.0378535 0.0378812 0.0379089 
0.0379367 0.0379645 0.0379923 0.0380202 0.0380481 0.038076 0.0381041 0.0381321 0.0381602 
0.0381883 0.0365442 0.0365699 0.0365957 0.0366214 0.0366473 0.0366731 0.036699 0.0367249 
0.0367509 0.0367769 0.0368029 0.036829 0.0368551 0.0368813 0.0369075 0.0369337 0.03696 
0.0369863 0.0370126 0.037039 0.0370655 0.0370919 0.0371184 0.037145 0.0371716 0.0371982 
0.0372249 0.0372516 0.0372783 0.0373051 0.037332 0.0373588 0.0373857 0.0374127 0.0374397 
0.0374667 0.0374938 0.0375209 0.0375481 0.0375752 0.0376025 0.0376298 0.0376571 0.0376844 
0.0377118 0.0377393 0.0377668 0.0377943 0.0378219 0.0378495 0.0378771 0.0379048 0.0379326 
0.0379604 0.0379882 0.0380161 0.038044 0.0380719 0.0380999 0.038128 0.038156 0.0381842 
0.0365406 0.0365663 0.036592 0.0366178 0.0366436 0.0366694 0.0366953 0.0367212 0.0367472 
0.0367732 0.0367992 0.0368253 0.0368514 0.0368775 0.0369037 0.03693 0.0369562 0.0369825 
0.0370089 0.0370352 0.0370617 0.0370881 0.0371146 0.0371412 0.0371678 0.0371944 0.037221 
0.0372477 0.0372745 0.0373013 0.0373281 0.0373549 0.0373818 0.0374088 0.0374358 0.0374628 
0.0374898 0.0375169 0.0375441 0.0375713 0.0375985 0.0376258 0.0376531 0.0376804 0.0377078 
0.0377353 0.0377627 0.0377903 0.0378178 0.0378454 0.0378731 0.0379008 0.0379285 0.0379563 
0.0379841 0.0380119 0.0380398 0.0380678 0.0380958 0.0381238 0.0381519 0.03818 0.036537 
0.0365627 0.0365884 0.0366141 0.0366399 0.0366658 0.0366916 0.0367175 0.0367435 0.0367695 
0.0367955 0.0368216 0.0368477 0.0368738 0.0369 0.0369262 0.0369524 0.0369787 0.0370051 
0.0370314 0.0370579 0.0370843 0.0371108 0.0371373 0.0371639 0.0371905 0.0372172 0.0372439 
0.0372706 0.0372974 0.0373242 0.037351 0.0373779 0.0374048 0.0374318 0.0374588 0.0374859 
0.037513 0.0375401 0.0375673 0.0375945 0.0376218 0.0376491 0.0376764 0.0377038 0.0377312 
0.0377587 0.0377862 0.0378137 0.0378413 0.037869 0.0378966 0.0379244 0.0379521 0.0379799 
0.0380078 0.0380357 0.0380636 0.0380916 0.0381196 0.0381477 0.0381758 0.0365333 0.036559 
0.0365847 0.0366104 0.0366362 0.0366621 0.0366879 0.0367138 0.0367398 0.0367657 0.0367917 
0.0368178 0.0368439 0.03687 0.0368962 0.0369224 0.0369486 0.0369749 0.0370013 0.0370276 
0.037054 0.0370805 0.0371069 0.0371335 0.03716 0.0371866 0.0372133 0.03724 0.0372667 
0.0372934 0.0373202 0.0373471 0.037374 0.0374009 0.0374278 0.0374548 0.0374819 0.037509 
0.0375361 0.0375633 0.0375905 0.0376177 0.037645 0.0376724 0.0376997 0.0377271 0.0377546 
0.0377821 0.0378096 0.0378372 0.0378648 0.0378925 0.0379202 0.037948 0.0379758 0.0380036 
0.0380315 0.0380594 0.0380874 0.0381154 0.0381434 0.0381715 0.0365296 0.0365553 0.036581 
0.0366067 0.0366325 0.0366583 0.0366842 0.0367101 0.036736 0.036762 0.036788 0.036814 
0.0368401 0.0368662 0.0368924 0.0369186 0.0369448 0.0369711 0.0369974 0.0370238 0.0370502 
0.0370766 0.0371031 0.0371296 0.0371561 0.0371827 0.0372094 0.037236 0.0372627 0.0372895 
0.0373163 0.0373431 0.03737 0.0373969 0.0374239 0.0374509 0.0374779 0.037505 0.0375321 
0.0375592 0.0375864 0.0376137 0.037641 0.0376683 0.0376956 0.037723 0.0377505 0.037778 
0.0378055 0.0378331 0.0378607 0.0378884 0.0379161 0.0379438 0.0379716 0.0379994 0.0380273 
0.0380552 0.0380831 0.0381111 0.0381392 0.0381673 0.0365259 0.0365516 0.0365773 0.036603 
0.0366288 0.0366546 0.0366804 0.0367063 0.0367322 0.0367582 0.0367842 0.0368102 0.0368363 
0.0368624 0.0368886 0.0369148 0.036941 0.0369673 0.0369936 0.0370199 0.0370463 0.0370727 
0.0370992 0.0371257 0.0371522 0.0371788 0.0372054 0.0372321 0.0372588 0.0372855 0.0373123 
0.0373391 0.037366 0.0373929 0.0374199 0.0374468 0.0374739 0.0375009 0.037528 0.0375552 
0.0375824 0.0376096 0.0376369 0.0376642 0.0376915 0.0377189 0.0377464 0.0377739 0.0378014 
0.0378289 0.0378565 0.0378842 0.0379119 0.0379396 0.0379674 0.0379952 0.0380231 0.038051 
0.0380789 0.0381069 0.0381349 0.038163 0.0365222 0.0365479 0.0365736 0.0365993 0.036625 
0.0366508 0.0366767 0.0367025 0.0367285 0.0367544 0.0367804 0.0368064 0.0368325 0.0368586 
0.0368847 0.0369109 0.0369371 0.0369634 0.0369897 0.037016 0.0370424 0.0370688 0.0370953 
0.0371218 0.0371483 0.0371749 0.0372015 0.0372281 0.0372548 0.0372816 0.0373083 0.0373352 
0.037362 0.0373889 0.0374158 0.0374428 0.0374698 0.0374969 0.037524 0.0375511 0.0375783 
0.0376055 0.0376328 0.0376601 0.0376874 0.0377148 0.0377422 0.0377697 0.0377972 0.0378248 
0.0378524 0.03788 0.0379077 0.0379354 0.0379632 0.037991 0.0380188 0.0380467 0.0380746 
0.0381026 0.0381306 0.0381587 0.0365185 0.0365441 0.0365698 0.0365955 0.0366213 0.0366471 
0.0366729 0.0366988 0.0367247 0.0367506 0.0367766 0.0368026 0.0368287 0.0368547 0.0368809 
0.0369071 0.0369333 0.0369595 0.0369858 0.0370121 0.0370385 0.0370649 0.0370913 0.0371178 
0.0371444 0.0371709 0.0371975 0.0372242 0.0372508 0.0372776 0.0373043 0.0373311 0.037358 
0.0373849 0.0374118 0.0374388 0.0374658 0.0374928 0.0375199 0.037547 0.0375742 0.0376014 
0.0376287 0.0376559 0.0376833 0.0377107 0.0377381 0.0377655 0.037793 0.0378206 0.0378482 
0.0378758 0.0379035 0.0379312 0.0379589 0.0379867 0.0380145 0.0380424 0.0380704 0.0380983 
0.0381263 0.0381544 0.0365147 0.0365404 0.036566 0.0365917 0.0366175 0.0366433 0.0366691 
0.0366949 0.0367208 0.0367468 0.0367727 0.0367987 0.0368248 0.0368509 0.036877 0.0369032 
0.0369294 0.0369556 0.0369819 0.0370082 0.0370346 0.037061 0.0370874 0.0371139 0.0371404 
0.0371669 0.0371935 0.0372202 0.0372468 0.0372736 0.0373003 0.0373271 0.0373539 0.0373808 
0.0374077 0.0374347 0.0374617 0.0374887 0.0375158 0.0375429 0.0375701 0.0375973 0.0376245 
0.0376518 0.0376791 0.0377065 0.0377339 0.0377613 0.0377888 0.0378164 0.0378439 0.0378715 
0.0378992 0.0379269 0.0379547 0.0379824 0.0380103 0.0380381 0.038066 0.038094 0.038122 
0.03815 0.036511 0.0365366 0.0365623 0.036588 0.0366137 0.0366395 0.0366653 0.0366911 
0.036717 0.0367429 0.0367689 0.0367949 0.0368209 0.036847 0.0368731 0.0368993 0.0369255 
0.0369517 0.036978 0.0370043 0.0370306 0.037057 0.0370834 0.0371099 0.0371364 0.0371629 
0.0371895 0.0372162 0.0372428 0.0372695 0.0372963 0.037323 0.0373499 0.0373767 0.0374036 
0.0374306 0.0374576 0.0374846 0.0375117 0.0375388 0.0375659 0.0375931 0.0376203 0.0376476 
0.0376749 0.0377023 0.0377297 0.0377571 0.0377846 0.0378121 0.0378397 0.0378673 0.0378949 
0.0379226 0.0379504 0.0379781 0.038006 0.0380338 0.0380617 0.0380897 0.0381177 0.0381457 
0.0365072 0.0365328 0.0365585 0.0365841 0.0366099 0.0366356 0.0366614 0.0366873 0.0367131 
0.0367391 0.036765 0.036791 0.036817 0.0368431 0.0368692 0.0368953 0.0369215 0.0369477 
0.036974 0.0370003 0.0370266 0.037053 0.0370794 0.0371059 0.0371324 0.0371589 0.0371855 
0.0372121 0.0372388 0.0372655 0.0372922 0.037319 0.0373458 0.0373726 0.0373995 0.0374265 
0.0374535 0.0374805 0.0375075 0.0375346 0.0375618 0.0375889 0.0376162 0.0376434 0.0376707 
0.0376981 0.0377255 0.0377529 0.0377804 0.0378079 0.0378354 0.037863 0.0378907 0.0379183 
0.0379461 0.0379738 0.0380016 0.0380295 0.0380574 0.0380853 0.0381133 0.0381413 0.0365034 
0.036529 0.0365546 0.0365803 0.036606 0.0366318 0.0366576 0.0366834 0.0367093 0.0367352 
0.0367611 0.0367871 0.0368131 0.0368392 0.0368653 0.0368914 0.0369176 0.0369438 0.03697 
0.0369963 0.0370227 0.037049 0.0370754 0.0371019 0.0371284 0.0371549 0.0371815 0.0372081 
0.0372347 0.0372614 0.0372881 0.0373149 0.0373417 0.0373685 0.0373954 0.0374223 0.0374493 
0.0374763 0.0375034 0.0375305 0.0375576 0.0375847 0.037612 0.0376392 0.0376665 0.0376938 
0.0377212 0.0377486 0.0377761 0.0378036 0.0378311 0.0378587 0.0378864 0.037914 0.0379417 
0.0379695 0.0379973 0.0380251 0.038053 0.0380809 0.0381089 0.0381369 0.0364996 0.0365252 
0.0365508 0.0365765 0.0366022 0.0366279 0.0366537 0.0366795 0.0367054 0.0367313 0.0367572 
0.0367832 0.0368092 0.0368352 0.0368613 0.0368874 0.0369136 0.0369398 0.0369661 0.0369923 
0.0370187 0.037045 0.0370714 0.0370978 0.0371243 0.0371508 0.0371774 0.037204 0.0372306 
0.0372573 0.037284 0.0373108 0.0373376 0.0373644 0.0373913 0.0374182 0.0374451 0.0374721 
0.0374992 0.0375263 0.0375534 0.0375805 0.0376077 0.037635 0.0376623 0.0376896 0.037717 
0.0377444 0.0377718 0.0377993 0.0378268 0.0378544 0.037882 0.0379097 0.0379374 0.0379651 
0.0379929 0.0380207 0.0380486 0.0380765 0.0381045 0.0381325 0.0364957 0.0365213 0.0365469 
0.0365726 0.0365983 0.036624 0.0366498 0.0366756 0.0367015 0.0367273 0.0367533 0.0367792 
0.0368052 0.0368313 0.0368573 0.0368835 0.0369096 0.0369358 0.036962 0.0369883 0.0370146 
0.037041 0.0370674 0.0370938 0.0371203 0.0371468 0.0371733 0.0371999 0.0372265 0.0372532 
0.0372799 0.0373066 0.0373334 0.0373602 0.0373871 0.037414 0.037441 0.037468 0.037495 
0.037522 0.0375492 0.0375763 0.0376035 0.0376307 0.037658 0.0376853 0.0377127 0.0377401 
0.0377675 0.037795 0.0378225 0.0378501 0.0378777 0.0379053 0.037933 0.0379607 0.0379885 
0.0380163 0.0380442 0.0380721 0.0381 0.038128 0.0364919 0.0365174 0.0365431 0.0365687 
0.0365944 0.0366201 0.0366459 0.0366717 0.0366975 0.0367234 0.0367493 0.0367753 0.0368013 
0.0368273 0.0368534 0.0368795 0.0369056 0.0369318 0.036958 0.0369843 0.0370106 0.0370369 
0.0370633 0.0370897 0.0371162 0.0371427 0.0371692 0.0371958 0.0372224 0.0372491 0.0372758 
0.0373025 0.0373293 0.0373561 0.0373829 0.0374098 0.0374368 0.0374637 0.0374908 0.0375178 
0.0375449 0.0375721 0.0375992 0.0376265 0.0376537 0.037681 0.0377084 0.0377358 0.0377632 
0.0377906 0.0378182 0.0378457 0.0378733 0.0379009 0.0379286 0.0379563 0.0379841 0.0380119 
0.0380398 0.0380677 0.0380956 0.0381236 0.036488 0.0365136 0.0365392 0.0365648 0.0365905 
0.0366162 0.0366419 0.0366677 0.0366936 0.0367194 0.0367453 0.0367713 0.0367973 0.0368233 
0.0368494 0.0368755 0.0369016 0.0369278 0.036954 0.0369802 0.0370065 0.0370328 0.0370592 
0.0370856 0.0371121 0.0371386 0.0371651 0.0371917 0.0372183 0.0372449 0.0372716 0.0372983 
0.0373251 0.0373519 0.0373787 0.0374056 0.0374325 0.0374595 0.0374865 0.0375136 0.0375406 
0.0375678 0.0375949 0.0376222 0.0376494 0.0376767 0.037704 0.0377314 0.0377588 0.0377863 
0.0378138 0.0378413 0.0378689 0.0378965 0.0379242 0.0379519 0.0379797 0.0380075 0.0380353 
0.0380632 0.0380911 0.0381191 0.0364841 0.0365096 0.0365352 0.0365609 0.0365865 0.0366123 
0.036638 0.0366638 0.0366896 0.0367155 0.0367414 0.0367673 0.0367933 0.0368193 0.0368453 
0.0368714 0.0368975 0.0369237 0.0369499 0.0369762 0.0370024 0.0370288 0.0370551 0.0370815 
0.037108 0.0371344 0.0371609 0.0371875 0.0372141 0.0372407 0.0372674 0.0372941 0.0373209 
0.0373477 0.0373745 0.0374014 0.0374283 0.0374553 0.0374823 0.0375093 0.0375364 0.0375635 
0.0375906 0.0376178 0.0376451 0.0376724 0.0376997 0.0377271 0.0377545 0.0377819 0.0378094 
0.0378369 0.0378645 0.0378921 0.0379198 0.0379475 0.0379752 0.038003 0.0380308 0.0380587 
0.0380866 0.0381146 0.0364802 0.0365057 0.0365313 0.0365569 0.0365826 0.0366083 0.036634 
0.0366598 0.0366856 0.0367115 0.0367374 0.0367633 0.0367892 0.0368152 0.0368413 0.0368674 
0.0368935 0.0369196 0.0369458 0.0369721 0.0369983 0.0370246 0.037051 0.0370774 0.0371038 
0.0371303 0.0371568 0.0371833 0.0372099 0.0372365 0.0372632 0.0372899 0.0373167 0.0373434 
0.0373703 0.0373971 0.037424 0.037451 0.037478 0.037505 0.0375321 0.0375592 0.0375863 
0.0376135 0.0376407 0.037668 0.0376953 0.0377227 0.0377501 0.0377775 0.037805 0.0378325 
0.0378601 0.0378877 0.0379153 0.037943 0.0379708 0.0379985 0.0380263 0.0380542 0.0380821 
0.0381101 0.0364762 0.0365018 0.0365274 0.036553 0.0365786 0.0366043 0.03663 0.0366558 
0.0366816 0.0367074 0.0367333 0.0367592 0.0367852 0.0368112 0.0368372 0.0368633 0.0368894 
0.0369155 0.0369417 0.036968 0.0369942 0.0370205 0.0370469 0.0370732 0.0370997 0.0371261 
0.0371526 0.0371791 0.0372057 0.0372323 0.037259 0.0372857 0.0373124 0.0373392 0.037366 
0.0373929 0.0374198 0.0374467 0.0374737 0.0375007 0.0375277 0.0375548 0.037582 0.0376092 
0.0376364 0.0376636 0.0376909 0.0377183 0.0377457 0.0377731 0.0378006 0.0378281 0.0378556 
0.0378832 0.0379109 0.0379385 0.0379663 0.037994 0.0380218 0.0380497 0.0380776 0.0381055 
0.0364723 0.0364978 0.0365234 0.036549 0.0365746 0.0366003 0.036626 0.0366518 0.0366776 
0.0367034 0.0367293 0.0367552 0.0367811 0.0368071 0.0368331 0.0368592 0.0368853 0.0369114 
0.0369376 0.0369638 0.0369901 0.0370164 0.0370427 0.0370691 0.0370955 0.0371219 0.0371484 
0.0371749 0.0372015 0.0372281 0.0372547 0.0372814 0.0373082 0.0373349 0.0373617 0.0373886 
0.0374155 0.0374424 0.0374693 0.0374964 0.0375234 0.0375505 0.0375776 0.0376048 0.037632 
0.0376592 0.0376865 0.0377139 0.0377413 0.0377687 0.0377961 0.0378236 0.0378512 0.0378787 
0.0379064 0.037934 0.0379618 0.0379895 0.0380173 0.0380451 0.038073 0.0381009 0.0364683 
0.0364938 0.0365194 0.036545 0.0365706 0.0365963 0.036622 0.0366478 0.0366735 0.0366994 
0.0367252 0.0367511 0.0367771 0.036803 0.036829 0.0368551 0.0368812 0.0369073 0.0369335 
0.0369597 0.0369859 0.0370122 0.0370385 0.0370649 0.0370913 0.0371177 0.0371442 0.0371707 
0.0371973 0.0372239 0.0372505 0.0372772 0.0373039 0.0373306 0.0373574 0.0373843 0.0374111 
0.0374381 0.037465 0.037492 0.037519 0.0375461 0.0375732 0.0376004 0.0376276 0.0376548 
0.0376821 0.0377094 0.0377368 0.0377642 0.0377917 0.0378191 0.0378467 0.0378742 0.0379019 
0.0379295 0.0379572 0.037985 0.0380127 0.0380406 0.0380684 0.0380963 0.0364643 0.0364899 
0.0365154 0.036541 0.0365666 0.0365923 0.036618 0.0366437 0.0366695 0.0366953 0.0367211 
0.036747 0.036773 0.0367989 0.0368249 0.036851 0.036877 0.0369032 0.0369293 0.0369555 
0.0369817 0.037008 0.0370343 0.0370607 0.0370871 0.0371135 0.03714 0.0371665 0.037193 
0.0372196 0.0372462 0.0372729 0.0372996 0.0373263 0.0373531 0.0373799 0.0374068 0.0374337 
0.0374606 0.0374876 0.0375147 0.0375417 0.0375688 0.037596 0.0376232 0.0376504 0.0376777 
0.037705 0.0377323 0.0377597 0.0377872 0.0378146 0.0378422 0.0378697 0.0378973 0.037925 
0.0379527 0.0379804 0.0380082 0.038036 0.0380638 0.0380917 0.0364603 0.0364858 0.0365114 