# vtk DataFile Version 4.0
vtk output
ASCII
DATASET STRUCTURED_POINTS
DIMENSIONS 42 42 42
SPACING 0.05 0.05 0.05
ORIGIN -1.025 -1.025 -1.025
POINT_DATA 74088
FIELD FieldData 1
potential 1 74088 double
0.00065392 0.000686952 0.00072299 0.000760802 0.00079832 0.000832645 0.000861114 0.000882845 0.000898924 
0.000912267 0.00092649 0.000944069 0.000965946 0.000992294 0.00102303 0.00105788 0.00109659 0.00113857 
0.00118359 0.00123128 0.00128152 0.00133442 0.00139072 0.00145128 0.00151652 0.00158681 0.00166167 
0.00174033 0.00182219 0.00190647 0.00199358 0.00208514 0.00218461 0.00229633 0.00242411 0.0025697 
0.00273367 0.00291588 0.00311618 0.0033339 0.00356759 0.00381299 0.000780872 0.000815748 0.000853167 
0.000892346 0.000932001 0.000970303 0.00100546 0.00103667 0.00106403 0.00108917 0.00111434 0.00114158 
0.00117221 0.00120687 0.00124576 0.00128895 0.00133615 0.00138721 0.00144199 0.00150039 0.00156252 
0.00162856 0.00169914 0.00177477 0.00185557 0.0019419 0.00203347 0.00213008 0.00223123 0.00233726 
0.00244889 0.00256801 0.00269733 0.00284015 0.00299904 0.00317563 0.00337065 0.00358415 0.00381553 
0.00406331 0.00432457 0.00459393 0.000905304 0.000942534 0.000982346 0.00102388 0.00106645 0.0011089 
0.00114996 0.00118906 0.00122593 0.00126142 0.0012969 0.00133392 0.00137371 0.00141722 0.0014648 
0.00151684 0.00157322 0.00163403 0.00169929 0.00176909 0.00184358 0.00192316 0.00200812 0.00209879 
0.0021955 0.00229835 0.00240736 0.00252267 0.00264432 0.0027729 0.00290963 0.00305626 0.00321498 
0.00338836 0.0035782 0.00378595 0.00401233 0.00425717 0.00451957 0.00479768 0.005088 0.00538541 
0.00102667 0.00106689 0.00110941 0.00115394 0.00119993 0.00124665 0.00129323 0.00133925 0.00138439 
0.00142907 0.00147415 0.00152073 0.00156987 0.00162257 0.00167939 0.00174069 0.00180681 0.00187787 
0.0019541 0.00203571 0.00212288 0.002216 0.00231542 0.00242121 0.00253393 0.00265366 0.00278077 
0.0029153 0.00305802 0.00320964 0.0033715 0.00354517 0.00373275 0.00393594 0.00415634 0.00439513 
0.00465284 0.00492921 0.00522317 0.00553286 0.00585488 0.00618544 0.0011443 0.0011877 0.0012334 
0.00128126 0.00133098 0.00138204 0.00143392 0.00148623 0.00153879 0.00159177 0.00164576 0.0017015 
0.00175999 0.00182199 0.00188827 0.00195927 0.00203542 0.0021171 0.00220457 0.00229811 0.00239801 
0.00250464 0.00261841 0.00273938 0.00286816 0.00300498 0.00315035 0.00330466 0.00346862 0.0036433 
0.00383005 0.00403028 0.00424585 0.00447815 0.00472858 0.00499803 0.00528698 0.00559508 0.00592152 
0.00626435 0.0066212 0.00698926 0.00125765 0.00130429 0.00135333 0.00140475 0.00145832 0.00151367 
0.00157069 0.00162888 0.00168824 0.00174886 0.00181108 0.00187559 0.00194315 0.0020145 0.00209022 
0.00217104 0.00225741 0.00234979 0.00244852 0.00255393 0.00266651 0.00278654 0.00291441 0.00305053 
0.00319533 0.00334936 0.00351293 0.00368695 0.00387211 0.00406961 0.00428068 0.00450692 0.00474965 
0.00501027 0.00529008 0.00558978 0.00590973 0.00625003 0.00660962 0.00698742 0.00738174 0.00779082 
0.00136591 0.00141584 0.00146829 0.00152333 0.0015808 0.00164048 0.00170236 0.00176614 0.0018318 
0.00189946 0.0019694 0.00204222 0.00211846 0.00219887 0.00228396 0.00237451 0.00247102 0.00257399 
0.00268387 0.00280101 0.00292601 0.00305927 0.00320099 0.00335195 0.00351254 0.00368344 0.00386521 
0.00405857 0.00426457 0.00448437 0.00471921 0.0049705 0.00523958 0.00552783 0.00583622 0.00616564 
0.00651655 0.00688899 0.00728264 0.00769674 0.00813035 0.00858301 0.00146842 0.00152161 0.00157747 
0.00163609 0.00169742 0.00176137 0.00182791 0.00189696 0.0019685 0.00204271 0.00211988 0.00220047 
0.00228502 0.00237403 0.00246821 0.00256822 0.00267462 0.00278793 0.00290864 0.00303722 0.00317431 
0.00332023 0.00347565 0.00364104 0.00381715 0.00400443 0.00420384 0.0044161 0.00464233 0.00488363 
0.00514143 0.00541693 0.00571151 0.00602637 0.00636261 0.00672117 0.00710263 0.00750742 0.00793547 
0.0083867 0.00886088 0.00935841 0.00156471 0.00162096 0.00168014 0.00174228 0.00180736 0.00187539 
0.00194642 0.00202044 0.00209752 0.00217783 0.0022617 0.00234955 0.00244184 0.00253906 0.00264189 
0.00275094 0.00286681 0.00299005 0.00312113 0.00326077 0.00340958 0.00356775 0.00373621 0.00391551 
0.00410649 0.00430973 0.00452605 0.0047565 0.00500214 0.00526417 0.00554386 0.00584258 0.00616156 
0.00650214 0.00686541 0.00725241 0.00766395 0.00810083 0.0085633 0.00905182 0.00956715 0.0101099 
0.00165407 0.00171337 0.00177575 0.00184124 0.00190994 0.00198186 0.00205715 0.00213584 0.00221806 
0.00230407 0.0023942 0.00248878 0.00258822 0.00269311 0.00280405 0.00292164 0.00304647 0.00317911 
0.00332011 0.00347022 0.00363003 0.00379995 0.00398087 0.00417346 0.00437859 0.00459697 0.00482947 
0.00507722 0.00534127 0.00562297 0.00592355 0.0062443 0.00658664 0.00695181 0.0073411 0.00775571 
0.0081967 0.00866507 0.00916166 0.00968724 0.0102432 0.0108309 0.00173627 0.00179844 0.00186383 
0.00193253 0.00200461 0.00208025 0.00215951 0.00224256 0.00232957 0.00242084 0.00251667 0.00261743 
0.00272351 0.00283551 0.00295399 0.0030795 0.00321268 0.00335413 0.00350446 0.00366436 0.00383451 
0.00401551 0.00420819 0.0044134 0.00463184 0.00486441 0.00511215 0.00537618 0.00565761 0.00595778 
0.006278 0.00661963 0.00698405 0.00737269 0.00778687 0.0082281 0.00869756 0.00919662 0.00972635 
0.0102884 0.0108842 0.0115154 0.00181105 0.00187589 0.00194409 0.00201576 0.00209103 0.00217009 
0.00225304 0.0023401 0.00243156 0.00252763 0.00262873 0.00273508 0.00284723 0.00296571 0.00309109 
0.00322388 0.00336477 0.0035144 0.00367333 0.00384243 0.00402209 0.00421341 0.00441702 0.00463387 
0.00486475 0.00511059 0.00537253 0.00565167 0.00594934 0.00626681 0.00660534 0.00696647 0.00735174 
0.00776243 0.00820037 0.00866692 0.00916367 0.00969217 0.0102541 0.0108511 0.0114854 0.0121588 
0.00187822 0.0019455 0.00201628 0.00209075 0.0021689 0.00225108 0.00233742 0.00242819 0.00252362 
0.00262407 0.00272984 0.00284131 0.00295894 0.00308329 0.00321489 0.00335433 0.00350222 0.00365923 
0.00382607 0.00400351 0.00419204 0.0043928 0.00460654 0.00483407 0.00507631 0.00533437 0.00560938 
0.00590251 0.0062151 0.00654843 0.00690401 0.00728328 0.00768786 0.00811933 0.00857947 0.00906991 
0.00959249 0.0101489 0.0107415 0.0113719 0.0120425 0.0127565 0.00193766 0.00200717 0.00208026 
0.00215719 0.00223798 0.00232299 0.00241238 0.00250646 0.00260549 0.00270986 0.0028198 0.00293578 
0.00305832 0.00318788 0.00332506 0.00347043 0.00362463 0.00378831 0.00396226 0.00414708 0.00434373 
0.00455302 0.00477584 0.00501307 0.00526568 0.00553484 0.00582168 0.00612757 0.00645372 0.00680158 
0.00717267 0.00756862 0.00799096 0.00844165 0.0089224 0.00943508 0.00998176 0.0105646 0.0111856 
0.0118476 0.0125527 0.0133046 0.00198929 0.00206076 0.00213589 0.00221502 0.00229812 0.00238563 
0.00247773 0.00257473 0.00267691 0.00278468 0.00289832 0.00301829 0.00314509 0.00327925 0.00342132 
0.00357188 0.00373164 0.00390122 0.00408148 0.00427294 0.00447669 0.00469363 0.00492445 0.00517034 
0.0054322 0.00571125 0.00600874 0.00632596 0.00666429 0.00702524 0.00741032 0.00782123 0.00825985 
0.00872799 0.00922755 0.00976071 0.0103296 0.0109366 0.0115843 0.012275 0.0130124 0.0137996 
0.00203306 0.00210619 0.00218315 0.00226403 0.00234921 0.00243886 0.00253332 0.00263283 0.00273773 
0.00284842 0.00296522 0.00308859 0.00321906 0.00335714 0.0035034 0.00365847 0.003823 0.00399767 
0.00418334 0.0043806 0.00459053 0.00481405 0.00505199 0.00530535 0.0055753 0.005863 0.00616981 
0.00649703 0.00684607 0.0072185 0.00761603 0.00804031 0.00849338 0.00897707 0.0094936 0.0100451 
0.0106342 0.0112631 0.0119349 0.0126522 0.0134189 0.0142382 0.00206891 0.00214344 0.00222188 
0.0023043 0.00239116 0.00248262 0.00257901 0.00268061 0.0027878 0.00290089 0.0030203 0.00314652 
0.00328004 0.0034214 0.00357117 0.00372997 0.00389845 0.00407742 0.00426757 0.00446979 0.00468492 
0.00491401 0.00515792 0.00541768 0.00569449 0.00598961 0.00630435 0.00664009 0.00699833 0.00738073 
0.00778891 0.00822488 0.00869051 0.00918785 0.00971924 0.010287 0.0108938 0.0115422 0.0122353 
0.0129766 0.0137694 0.0146176 0.00209682 0.00217244 0.00225205 0.00233572 0.0024239 0.0025168 
0.00261473 0.00271801 0.00282698 0.00294199 0.00306348 0.00319196 0.0033279 0.00347185 0.00362441 
0.00378622 0.0039579 0.0041403 0.00433412 0.00454027 0.0047597 0.00499327 0.00524198 0.00550696 
0.00578943 0.00609062 0.0064119 0.0067547 0.00712057 0.00751126 0.00792841 0.00837412 0.0088503 
0.00935927 0.00990331 0.010485 0.011107 0.0117723 0.0124839 0.0132459 0.0140616 0.0149352 
0.00211676 0.00219325 0.00227365 0.00235824 0.00244738 0.00254133 0.00264038 0.00274488 0.0028552 
0.00297161 0.00309465 0.00322479 0.00336252 0.0035084 0.00366303 0.0038271 0.00400114 0.00418615 
0.0043827 0.0045918 0.00481445 0.00505149 0.00530391 0.00557291 0.00585973 0.00616562 0.00649199 
0.00684031 0.00721225 0.00760939 0.0080338 0.00848733 0.00897206 0.00949041 0.0100447 0.0106378 
0.0112724 0.0119515 0.0126789 0.0134582 0.0142932 0.0151884 0.00212873 0.00220572 0.00228666 
0.00237179 0.00246156 0.00255619 0.00265593 0.00276124 0.00287236 0.0029897 0.00311371 0.00324491 
0.00338379 0.00353094 0.00368691 0.0038524 0.00402806 0.00421478 0.00441316 0.00462427 0.00484916 
0.00508849 0.00534345 0.00561524 0.0059051 0.00621434 0.00654432 0.00689662 0.00727283 0.00767485 
0.00810452 0.00856382 0.00905501 0.00958045 0.0101428 0.0107445 0.0113889 0.012079 0.0128187 
0.0136117 0.0144622 0.015375 0.0021327 0.00220986 0.00229097 0.00237638 0.0024664 0.00256129 
0.00266139 0.002767 0.00287845 0.00299616 0.00312061 0.00325228 0.00339168 0.00353936 0.00369598 
0.00386209 0.00403855 0.00422602 0.00442536 0.0046376 0.00486351 0.00510406 0.00536045 0.00563375 
0.00592532 0.00623645 0.00656857 0.00692322 0.00730209 0.0077071 0.00814005 0.00860308 0.00909849 
0.00962863 0.0101963 0.0108041 0.0114552 0.0121531 0.0129017 0.0137048 0.0145669 0.0154926 
0.00212868 0.00220569 0.00228668 0.00237197 0.00246188 0.00255664 0.00265661 0.00276211 0.00287342 
0.002991 0.0031153 0.00324682 0.00338609 0.00353363 0.00369014 0.00385614 0.00403255 0.00421992 
0.00441925 0.00463147 0.00485746 0.00509812 0.00535464 0.00562825 0.00592015 0.00623172 0.00656441 
0.00691976 0.00729962 0.00770574 0.00814002 0.00860468 0.00910198 0.0096344 0.0102047 0.0108158 
0.0114705 0.012173 0.0129268 0.013736 0.0146054 0.0155397 0.00211657 0.00219318 0.0022737 
0.00235856 0.00244799 0.00254226 0.00264166 0.00274655 0.00285725 0.00297416 0.00309775 0.00322853 
0.003367 0.00351374 0.00366932 0.00383447 0.00400994 0.00419633 0.00439477 0.00460599 0.00483087 
0.00507051 0.005326 0.00559859 0.00588947 0.00620002 0.00653174 0.00688617 0.00726514 0.00767045 
0.00810405 0.00856815 0.00906504 0.00959735 0.0101676 0.0107786 0.0114341 0.0121376 0.0128929 
0.0137042 0.0145764 0.0155146 0.00209642 0.00217232 0.00225208 0.00233612 0.00242469 0.00251807 
0.00261651 0.00272035 0.00282993 0.00294564 0.00306796 0.00319738 0.00333439 0.00347961 0.00363359 
0.00379701 0.00397064 0.00415524 0.00435175 0.00456096 0.00478373 0.00502117 0.00527442 0.00554467 
0.00583313 0.00614116 0.00647028 0.00682218 0.00719852 0.00760108 0.00803195 0.00849326 0.00898733 
0.00951681 0.0100843 0.0106926 0.0113455 0.0120464 0.0127993 0.0136085 0.0144789 0.0154158 
0.00206823 0.00214306 0.00222178 0.00230471 0.00239208 0.00248412 0.00258119 0.00268351 0.00279148 
0.00290546 0.00302594 0.00315338 0.00328829 0.00343127 0.00358288 0.00374378 0.00391477 0.00409663 
0.00429023 0.00449639 0.00471597 0.00495007 0.00519986 0.00546642 0.00575108 0.00605515 0.00638013 
0.00672773 0.00709954 0.00749746 0.00792352 0.00837982 0.00886882 0.00939279 0.00995451 0.0105572 
0.0112041 0.0118989 0.0126455 0.0134482 0.0143121 0.0152425 0.00203198 0.00210541 0.0021828 
0.00226426 0.00235007 0.00244043 0.00253568 0.00263606 0.00274192 0.00285367 0.00297173 0.00309656 
0.00322873 0.00336875 0.0035172 0.00367489 0.00384233 0.00402059 0.00421033 0.00441233 0.00462764 
0.00485728 0.0051023 0.00536393 0.00564336 0.00594192 0.0062612 0.00660278 0.00696829 0.00735962 
0.00777874 0.00822778 0.00870919 0.00922523 0.00977844 0.0103723 0.0110099 0.0116949 0.012431 
0.013223 0.0140755 0.0149941 0.00198766 0.00205951 0.00213517 0.00221491 0.00229873 0.00238705 
0.00248007 0.00257806 0.00268135 0.00279032 0.0029054 0.00302704 0.00315575 0.00329208 0.00343668 
0.00359027 0.00375337 0.00392703 0.00411194 0.00430887 0.00451879 0.00474279 0.00498187 0.00523722 
0.00551 0.00580161 0.00611358 0.0064474 0.00680482 0.00718761 0.00759771 0.00803728 0.00850867 
0.0090141 0.00955615 0.0101381 0.0107631 0.0114346 0.0121564 0.012933 0.0137692 0.0146705 
0.00193533 0.00200526 0.00207895 0.00215656 0.00223812 0.00232402 0.00241446 0.00250961 0.00260984 
0.00271554 0.00282704 0.00294488 0.00306948 0.00320146 0.00334138 0.00348998 0.00364796 0.00381617 
0.00399529 0.00418611 0.0043896 0.00460682 0.00483872 0.0050865 0.00535122 0.00563443 0.00593745 
0.00626191 0.00660935 0.00698167 0.0073807 0.0078087 0.00826757 0.00875969 0.00928788 0.00985506 
0.0104641 0.0111185 0.0118221 0.0125789 0.0133939 0.0142724 0.001875 0.00194277 0.00201423 
0.00208935 0.00216837 0.00225147 0.00233892 0.00243084 0.00252756 0.00262944 0.00273685 0.00285023 
0.00297008 0.00309698 0.00323149 0.00337438 0.00352634 0.00368825 0.00386059 0.00404429 0.00424036 
0.00444963 0.00467315 0.00491203 0.00516738 0.0054407 0.00573323 0.00604658 0.00638233 0.00674224 
0.00712817 0.00754227 0.00798647 0.00846294 0.00897449 0.00952381 0.0101138 0.0107477 0.011429 
0.0121617 0.0129506 0.0138008 0.00180675 0.0018721 0.00194102 0.00201341 0.00208955 0.00216957 
0.00225366 0.00234195 0.00243469 0.00253227 0.00263502 0.00274333 0.00285776 0.00297887 0.0031073 
0.00324365 0.00338882 0.00354342 0.00370813 0.0038838 0.00407137 0.00427161 0.00448561 0.00471429 
0.00495899 0.00522092 0.00550144 0.00580201 0.00612432 0.00646997 0.00684079 0.00723891 0.00766596 
0.00812456 0.00861687 0.00914558 0.00971345 0.0103234 0.0109787 0.0116833 0.0124414 0.013258 
0.00173073 0.00179337 0.00185948 0.00192891 0.0020019 0.00207854 0.00215891 0.00224318 0.00233154 
0.0024243 0.00252183 0.00262448 0.00273284 0.00284741 0.002969 0.00309811 0.00323563 0.00338219 
0.0035384 0.00370509 0.00388318 0.00407336 0.0042767 0.00449403 0.00472672 0.00497587 0.00524288 
0.00552912 0.00583623 0.0061658 0.00651975 0.00689972 0.00730756 0.00774574 0.00821639 0.00872188 
0.00926474 0.00984771 0.0104736 0.0111461 0.011869 0.0126472 0.00164699 0.00170686 0.00176986 
0.0018361 0.00190567 0.00197864 0.00205501 0.00213489 0.00221845 0.00230593 0.00239769 0.00249409 
0.00259573 0.00270312 0.00281708 0.00293827 0.00306746 0.00320512 0.003352 0.00350896 0.00367657 
0.00385573 0.00404729 0.00425215 0.00447156 0.00470664 0.0049587 0.00522904 0.00551932 0.00583105 
0.00616616 0.00652619 0.00691276 0.00732834 0.00777495 0.00825479 0.00877001 0.0093231 0.0099165 
0.0105534 0.0112372 0.0119723 0.00155597 0.00161272 0.00167247 0.00173533 0.00180128 0.00187032 
0.0019424 0.00201758 0.00209592 0.00217766 0.00226309 0.00235264 0.00244689 0.00254653 0.00265225 
0.00276483 0.0028849 0.00301301 0.00314986 0.00329623 0.00345262 0.00361983 0.00379868 0.00399002 
0.00419498 0.00441467 0.00465036 0.00490341 0.00517529 0.00546756 0.00578209 0.00612009 0.00648367 
0.00687465 0.00729508 0.00774694 0.00823216 0.00875284 0.00931112 0.00990951 0.0105509 0.011239 
0.00145802 0.00151145 0.00156778 0.00162707 0.00168922 0.00175415 0.00182171 0.00189183 0.00196459 
0.00204011 0.00211865 0.00220081 0.00228712 0.00237837 0.00247524 0.00257857 0.00268898 0.00280695 
0.00293313 0.00306824 0.00321267 0.00336714 0.00353243 0.00370928 0.00389877 0.00410194 0.00432002 
0.00455438 0.00480641 0.00507786 0.00536999 0.0056844 0.00602304 0.00638753 0.0067798 0.00720167 
0.00765478 0.00814096 0.0086619 0.00921948 0.00981575 0.010454 0.00135358 0.00140358 0.00145638 
0.00151201 0.00157022 0.00163088 0.0016937 0.00175849 0.00182521 0.001894 0.00196516 0.00203932 
0.00211713 0.00219947 0.00228706 0.00238067 0.00248094 0.00258827 0.00270338 0.00282659 0.00295849 
0.00309961 0.00325058 0.0034122 0.0035853 0.00377093 0.00397029 0.00418468 0.00441558 0.00466462 
0.00493286 0.00522235 0.0055344 0.00587062 0.00623302 0.00662298 0.0070422 0.00749204 0.00797394 
0.00848921 0.00903908 0.00962539 0.00124334 0.00128985 0.00133905 0.00139092 0.00144515 0.00150144 
0.00155929 0.00161843 0.00167869 0.00174021 0.00180342 0.00186906 0.00193794 0.00201097 0.00208893 
0.00217255 0.00226228 0.00235864 0.0024622 0.00257321 0.0026921 0.00281946 0.0029556 0.00310136 
0.00325738 0.00342465 0.00360433 0.00379772 0.00400627 0.00423168 0.00447486 0.00473787 0.00502182 
0.00532836 0.00565918 0.00601556 0.00639917 0.00681119 0.00725287 0.007725 0.008228 0.00876221 
0.0011281 0.00117105 0.00121665 0.00126481 0.00131507 0.00136692 0.00141963 0.00147275 0.00152602 
0.00157965 0.00163429 0.00169092 0.00175047 0.00181396 0.00188216 0.00195563 0.00203474 0.00211992 
0.00221169 0.00231021 0.00241586 0.0025291 0.00265019 0.00277973 0.00291825 0.00306655 0.00322586 
0.00339733 0.00358251 0.00378315 0.00400022 0.00423542 0.00449017 0.00476565 0.00506346 0.00538475 
0.00573112 0.00610382 0.00650446 0.00693334 0.00739029 0.00787384 0.00100869 0.00104813 0.00109025 
0.00113479 0.0011812 0.00122862 0.00127598 0.00132258 0.00136816 0.00141317 0.00145857 0.00150572 
0.00155581 0.00160977 0.00166824 0.00173164 0.00180014 0.0018742 0.00195395 0.00203979 0.00213208 
0.00223112 0.0023371 0.00245034 0.0025712 0.00270035 0.00283882 0.00298771 0.00314887 0.00332345 
0.00351353 0.00372011 0.0039446 0.00418799 0.0044515 0.00473624 0.00504379 0.00537578 0.00573436 
0.0061203 0.00653295 0.00696921 0.000885918 0.000922031 0.000960838 0.00100209 0.0010449 0.00108797 
0.00112968 0.00116907 0.00120602 0.00124139 0.00127688 0.00131426 0.0013549 0.00139957 0.00144868 
0.00150233 0.00156042 0.00162331 0.00169106 0.00176415 0.00184295 0.00192786 0.00201884 0.00211605 
0.00221952 0.00232967 0.00244714 0.00257311 0.00270945 0.00285757 0.00301976 0.00319701 0.00339049 
0.00360107 0.00382936 0.00407621 0.00434325 0.00463262 0.00494776 0.00529085 0.00566147 0.00605566 
0.00076051 0.000793576 0.000829516 0.000868018 0.000907747 0.00094657 0.000982141 0.00101324 0.00104017 
0.00106467 0.00108954 0.00111706 0.00114859 0.0011846 0.00122501 0.00126934 0.00131737 0.00136925 
0.00142495 0.00148519 0.00155049 0.00162136 0.00169767 0.00177928 0.00186592 0.00195753 0.00205441 
0.00215749 0.00226863 0.00239 0.00252387 0.00267152 0.00283376 0.00301111 0.0032035 0.00341131 
0.00363589 0.00388009 0.00414914 0.00444839 0.00477914 0.00513719 0.000632863 0.000663465 0.000697343 
0.000734049 0.000771564 0.000806211 0.000834746 0.00085585 0.000870738 0.000882893 0.000896617 0.000914653 
0.000937851 0.000966013 0.000998446 0.00103424 0.00107286 0.00111385 0.00115746 0.00120459 0.0012563 
0.00131323 0.00137526 0.00144186 0.00151242 0.00158635 0.00166338 0.00174411 0.00183044 0.00192512 
0.00203101 0.00214949 0.00228088 0.0024251 0.00258125 0.00274895 0.00292894 0.00312437 0.00334316 
0.0035954 0.00388674 0.00421458 0.000502893 0.000531887 0.000565167 0.000602005 0.000638603 0.000668887 
0.000688665 0.000697006 0.000697064 0.000695378 0.000698095 0.000707659 0.000723696 0.000745048 0.000770409 
0.000798428 0.000828153 0.000858644 0.000890136 0.000923876 0.000961746 0.00100478 0.00105286 0.00110508 
0.00116029 0.00121747 0.00127556 0.00133488 0.00139705 0.00146642 0.00154622 0.00163737 0.00173938 
0.00185132 0.0019714 0.00209821 0.0022312 0.00237294 0.00253464 0.00273384 0.00298281 0.00328358 
0.000504005 0.000534038 0.000568084 0.000605727 0.000644905 0.000681278 0.00070967 0.000727267 0.000734465 
0.000735365 0.000736342 0.000741873 0.000753099 0.000769732 0.000791226 0.000816991 0.000846358 0.000878456 
0.000912742 0.000948651 0.000986047 0.0010252 0.00106741 0.0011141 0.00116614 0.00122322 0.00128427 
0.00134783 0.00141249 0.00147659 0.00153983 0.0016041 0.00167507 0.00175993 0.00186393 0.00198877 
0.00213444 0.00230043 0.0024868 0.00269384 0.00292149 0.00316421 0.000635169 0.000666941 0.000701998 
0.000739755 0.000779012 0.000817286 0.000851377 0.000879121 0.000899897 0.000915638 0.000929845 0.000945943 
0.000965932 0.000990527 0.0010197 0.00105323 0.00109069 0.00113151 0.00117548 0.00122239 0.00127246 
0.00132599 0.00138385 0.00144669 0.00151454 0.00158752 0.00166491 0.00174601 0.00182981 0.00191618 
0.00200589 0.00210145 0.00220691 0.00232692 0.00246463 0.00262206 0.00279997 0.00299836 0.00321668 
0.00345359 0.00370538 0.00396333 0.000763705 0.000797777 0.000834899 0.000874303 0.000915318 0.000956428 
0.000995626 0.00103139 0.00106287 0.00109079 0.00111712 0.00114416 0.00117382 0.00120735 0.00124513 
0.00128735 0.00133384 0.00138447 0.00143918 0.00149807 0.00156132 0.00162937 0.00170253 0.00178114 
0.00186533 0.001955 0.00204989 0.00214986 0.00225462 0.00236469 0.00248155 0.00260757 0.00274579 
0.00289928 0.00307036 0.00326076 0.00347136 0.00370199 0.00395155 0.00421752 0.00449457 0.00477429 
0.000889195 0.00092622 0.000965823 0.00100778 0.00105153 0.00109611 0.00114022 0.00118286 0.00122319 
0.00126146 0.00129868 0.0013364 0.00137618 0.00141932 0.00146651 0.00151826 0.00157469 0.00163591 
0.00170208 0.00177341 0.00185008 0.00193242 0.00202078 0.00211508 0.00221577 0.00232276 0.00243618 
0.00255594 0.00268268 0.00281718 0.00296114 0.00311657 0.00328607 0.00347172 0.0036754 0.00389851 
0.00414165 0.00440446 0.00468546 0.00498158 0.00528748 0.00559675 0.00101099 0.00105111 0.00109376 
0.00113878 0.00118583 0.00123419 0.00128326 0.00133206 0.00138012 0.00142738 0.00147446 0.00152232 
0.00157228 0.00162539 0.00168258 0.00174445 0.00181135 0.00188368 0.00196166 0.00204555 0.00213558 
0.0022321 0.0023354 0.00244547 0.0025628 0.00268747 0.00281985 0.00296025 0.00310937 0.00326843 
0.00343905 0.00362306 0.00382248 0.00403909 0.00427448 0.00452962 0.00480502 0.00510004 0.00541326 
0.00574151 0.00608073 0.00642622 0.00112826 0.00117169 0.00121761 0.00126603 0.00131666 0.00136907 
0.00142293 0.0014775 0.00153251 0.00158785 0.0016439 0.00170132 0.00176114 0.00182428 0.00189165 
0.0019639 0.00204162 0.00212522 0.00221506 0.00231141 0.00241472 0.0025252 0.00264322 0.00276905 
0.00290303 0.00304562 0.00319704 0.00335815 0.00352971 0.00371304 0.0039096 0.00412124 0.00434953 
0.00459606 0.00486213 0.00514866 0.00545587 0.00578343 0.00612973 0.00649258 0.00686895 0.00725583 
0.00124024 0.00128701 0.00133632 0.00138824 0.00144263 0.00149915 0.00155771 0.00161778 0.00167919 
0.00174191 0.00180614 0.00187251 0.00194177 0.00201473 0.00209213 0.00217474 0.00226321 0.00235799 
0.00245954 0.00256821 0.00268451 0.0028088 0.00294123 0.00308251 0.00323296 0.00339318 0.00356369 
0.00374519 0.00393881 0.00414578 0.00436756 0.00460573 0.00486175 0.00513716 0.00543301 0.00575013 
0.00608898 0.0064491 0.00682962 0.00722893 0.00764515 0.008077 0.0013461 0.00139618 0.00144889 
0.00150437 0.00156252 0.0016232 0.00168628 0.00175157 0.00181893 0.00188845 0.00196029 0.002035 
0.0021131 0.00219536 0.00228248 0.00237518 0.00247412 0.0025798 0.00269274 0.00281337 0.00294229 
0.0030798 0.0032265 0.0033828 0.00354944 0.00372681 0.00391582 0.00411722 0.00433218 0.00456192 
0.00480789 0.00507149 0.00535425 0.00565739 0.00598206 0.00632917 0.00669913 0.00709209 0.00750743 
0.00794446 0.00840238 0.00888103 0.0014452 0.00149848 0.00155454 0.00161351 0.00167536 0.00174006 
0.00180759 0.00187781 0.00195077 0.00202656 0.00210543 0.00218781 0.00227422 0.00236519 0.00246149 
0.0025638 0.00267274 0.00278885 0.00291274 0.00304485 0.00318587 0.00333624 0.00349652 0.00366732 
0.00384947 0.00404349 0.00425023 0.00447073 0.0047061 0.00495758 0.00522656 0.00551449 0.00582266 
0.00615248 0.006505 0.00688124 0.00728199 0.00770757 0.008158 0.00863324 0.0091337 0.00965962 
0.00153713 0.00159339 0.00165267 0.001715 0.00178037 0.00184899 0.00192074 0.00199566 0.00207386 
0.00215547 0.00224083 0.00233023 0.00242424 0.00252334 0.00262822 0.00273952 0.00285788 0.00298385 
0.00311803 0.00326111 0.0034137 0.00357616 0.0037494 0.00393401 0.00413089 0.0043407 0.00456434 
0.00480291 0.00505758 0.00532961 0.00562039 0.00593129 0.00626369 0.00661893 0.00699826 0.00740283 
0.0078336 0.00829135 0.00877659 0.00929004 0.00983265 0.0104056 0.00162133 0.00168049 0.00174281 
0.00180835 0.00187718 0.00194944 0.00202516 0.00210446 0.0021875 0.00227451 0.00236578 0.00246167 
0.00256259 0.00266916 0.00278195 0.00290157 0.00302867 0.00316385 0.00330772 0.00346099 0.0036243 
0.00379827 0.00398368 0.00418139 0.00439209 0.00461666 0.00485615 0.00511167 0.00538443 0.00567575 
0.00598692 0.00631943 0.00667468 0.00705411 0.007459 0.00789085 0.00835078 0.00883984 0.0093592 
0.00991018 0.010494 0.0111124 0.0016977 0.00175957 0.00182472 0.00189325 0.00196528 0.00204097 
0.0021204 0.00220376 0.00229129 0.00238321 0.00247984 0.00258158 0.00268883 0.00280216 0.00292216 
0.00304938 0.0031845 0.00332818 0.00348099 0.00364369 0.00381695 0.0040016 0.00419832 0.00440807 
0.00463164 0.00486997 0.00512417 0.00539542 0.00568495 0.00599415 0.00632434 0.006677 0.00705374 
0.00745584 0.00788511 0.00834288 0.0088307 0.00935002 0.00990231 0.0104894 0.0111132 0.0117755 
0.00176611 0.00183047 0.00189822 0.00196951 0.00204448 0.0021233 0.00220616 0.00229325 0.00238483 
0.00248122 0.00258272 0.00268966 0.00280259 0.00292201 0.00304848 0.00318259 0.00332498 0.0034763 
0.00363729 0.0038087 0.00399103 0.00418541 0.00439259 0.00461337 0.00484867 0.00509962 0.00536733 
0.005653 0.00595799 0.00628357 0.00663131 0.00700266 0.00739927 0.00782267 0.00827468 0.00875693 
0.00927117 0.00981912 0.010403 0.0110244 0.0116858 0.0123903 0.00182652 0.0018931 0.0019632 
0.00203703 0.0021146 0.00219627 0.0022822 0.00237264 0.00246786 0.00256819 0.00267402 0.00278563 
0.0029036 0.00302841 0.00316064 0.00330086 0.00344978 0.00360799 0.00377631 0.00395536 0.00414604 
0.00434919 0.00456572 0.00479649 0.00504247 0.00530484 0.00558477 0.00588356 0.00620247 0.00654304 
0.00690671 0.00729518 0.00771 0.0081531 0.00862622 0.00913124 0.00967016 0.010245 0.0108583 
0.0115122 0.0122091 0.0129529 0.00187888 0.00194745 0.0020196 0.00209556 0.00217553 0.00225972 
0.00234835 0.00244177 0.00254019 0.00264404 0.00275358 0.00286929 0.00299164 0.00312117 0.00325844 
0.00340404 0.00355867 0.00372295 0.00389767 0.00408361 0.00428159 0.0044926 0.00471735 0.00495701 
0.00521249 0.00548503 0.00577585 0.00608631 0.00641774 0.00677172 0.00714975 0.00755357 0.00798501 
0.00844598 0.00893832 0.00946422 0.0100259 0.0106257 0.0112661 0.0119496 0.0126799 0.01346 
0.00192317 0.00199343 0.00206736 0.00214521 0.00222721 0.00231358 0.00240456 0.00250051 0.00260166 
0.00270851 0.00282126 0.00294046 0.00306656 0.00320013 0.00334169 0.00349191 0.00365145 0.00382094 
0.00400129 0.0041931 0.00439741 0.00461517 0.00484721 0.00509452 0.00535828 0.00563969 0.00594007 
0.00626071 0.00660315 0.00696886 0.00735963 0.00777709 0.0082233 0.00870019 0.00920983 0.00975452 
0.0103367 0.010959 0.0116242 0.0123349 0.0130953 0.0139085 0.00195939 0.00203105 0.00210653 
0.0021859 0.00226957 0.00235774 0.00245071 0.00254876 0.00265225 0.00276151 0.00287694 0.00299901 
0.00312823 0.00326514 0.00341028 0.00356434 0.00372791 0.00390181 0.00408675 0.00428361 0.00449324 
0.00471669 0.00495483 0.00520868 0.00547946 0.00576846 0.0060769 0.00640629 0.00675813 0.00713399 
0.00753561 0.00796498 0.00842401 0.00891476 0.00943958 0.0100008 0.0106012 0.0112434 0.0119302 
0.0126656 0.0134528 0.0142957 0.00198754 0.0020603 0.00213695 0.00221757 0.0023026 0.00239218 
0.00248671 0.00258639 0.00269174 0.00280295 0.00292048 0.00304485 0.00317654 0.00331608 0.00346409 
0.0036212 0.00378803 0.0039654 0.0041541 0.00435496 0.00456898 0.00479702 0.00504002 0.00529919 
0.00557574 0.00587088 0.006186 0.00652259 0.00688216 0.00726642 0.00767722 0.00811653 0.00858628 
0.00908884 0.00962651 0.0102018 0.0108178 0.0114772 0.012183 0.0129395 0.0137501 0.0146191 
0.0020076 0.00208119 0.00215868 0.00224021 0.00232619 0.00241685 0.00251252 0.00261347 0.00272012 
0.00283271 0.00295183 0.00307789 0.00321138 0.0033529 0.003503 0.00366236 0.00383163 0.00401168 
0.00420313 0.004407 0.00462426 0.00485579 0.00510259 0.00536583 0.0056468 0.00594671 0.006267 
0.00660921 0.00697488 0.00736575 0.00778384 0.00823105 0.00870947 0.00922156 0.0097697 0.0103567 
0.0109853 0.0116587 0.0123806 0.0131548 0.013985 0.0148761 0.0020196 0.00209373 0.00217162 
0.00225381 0.00234038 0.00243173 0.00252806 0.00262983 0.0027373 0.00285082 0.00297091 0.00309804 
0.00323269 0.00337545 0.00352693 0.00368776 0.00385861 0.0040404 0.00423366 0.00443957 0.00465909 
0.00489291 0.00514229 0.00540833 0.00569235 0.00599564 0.00631958 0.00666574 0.0070358 0.00743155 
0.00785495 0.00830795 0.0087929 0.00931209 0.00986821 0.0104641 0.0111026 0.011787 0.0125214 
0.0133095 0.0141556 0.0150644 0.00202348 0.0020978 0.00217594 0.00225829 0.00234514 0.00243673 
0.00253341 0.00263549 0.00274326 0.00285716 0.00297767 0.00310525 0.00324041 0.00338371 0.00353582 
0.00369725 0.00386887 0.0040514 0.00424565 0.00445264 0.00467317 0.00490823 0.00515896 0.00542654 
0.00571222 0.00601736 0.00634344 0.00669196 0.00706461 0.00746336 0.00789006 0.00834676 0.00883589 
0.00935981 0.0099213 0.0105232 0.0111683 0.0118607 0.012604 0.0134022 0.01426 0.015182 
0.00201927 0.00209346 0.00217148 0.0022537 0.00234042 0.00243187 0.00252842 0.00263035 0.00273797 
0.00285171 0.00297206 0.00309946 0.00323448 0.00337761 0.00352952 0.00369085 0.00386235 0.00404478 
0.00423896 0.0044459 0.00466646 0.00490156 0.0051524 0.00542022 0.00570618 0.00601172 0.00633828 
0.00668747 0.007061 0.0074608 0.0078887 0.00834699 0.00883794 0.00936405 0.00992815 0.010533 
0.0111819 0.0118787 0.0126271 0.0134314 0.0142963 0.0152269 0.00200697 0.00208069 0.00215823 
0.00224 0.0023262 0.00241718 0.00251312 0.00261443 0.00272141 0.00283445 0.00295405 0.00308067 
0.00321484 0.00335713 0.00350809 0.00366846 0.00383903 0.00402035 0.0042135 0.00441945 0.00463882 
0.00487282 0.00512253 0.00538923 0.00567409 0.0059785 0.00630398 0.00665208 0.00702468 0.00742352 