# vtk DataFile Version 4.0
vtk output
ASCII
DATASET STRUCTURED_POINTS
DIMENSIONS 62 62 62
SPACING 0.05 0.05 0.05
ORIGIN -1.525 -0.525 -0.525
POINT_DATA 238328
FIELD FieldData 1
potential 1 238328 double
0.00837427 0.00834996 0.00832555 0.00830105 0.00827645 0.00825177 0.00822699 0.00820212 0.00817715 
0.00815209 0.00812693 0.00810168 0.00807632 0.00805087 0.00802532 0.00799966 0.00797391 0.00794806 
0.0079221 0.00789604 0.00786988 0.00784361 0.00781725 0.00779078 0.0077642 0.00773752 0.00771073 
0.00768383 0.00765683 0.00762973 0.00760251 0.00757519 0.00754777 0.00752023 0.00749259 0.00746484 
0.00743698 0.00740901 0.00738093 0.00735274 0.00732444 0.00729603 0.00726751 0.00723888 0.00721014 
0.00718128 0.0071523 0.00712321 0.00709401 0.00706468 0.00703524 0.00700567 0.00697597 0.00694616 
0.0069162 0.00688612 0.00685591 0.00682556 0.00679507 0.00676443 0.00673363 0.00670267 0.00822611 
0.00820129 0.00817639 0.00815139 0.00812629 0.0081011 0.00807581 0.00805043 0.00802495 0.00799938 
0.0079737 0.00794792 0.00792205 0.00789607 0.00786999 0.0078438 0.00781751 0.00779112 0.00776462 
0.00773802 0.00771131 0.00768449 0.00765757 0.00763054 0.00760341 0.00757616 0.00754881 0.00752134 
0.00749377 0.00746609 0.0074383 0.0074104 0.00738238 0.00735426 0.00732603 0.00729768 0.00726923 
0.00724066 0.00721198 0.00718319 0.00715429 0.00712527 0.00709614 0.00706689 0.00703753 0.00700805 
0.00697846 0.00694875 0.00691892 0.00688897 0.0068589 0.0068287 0.00679838 0.00676793 0.00673734 
0.00670663 0.00667578 0.0066448 0.00661366 0.00658238 0.00655094 0.00651934 0.00807624 0.00805093 
0.00802551 0.008 0.00797439 0.00794869 0.00792288 0.00789698 0.00787098 0.00784488 0.00781867 
0.00779237 0.00776595 0.00773944 0.00771281 0.00768609 0.00765925 0.00763231 0.00760526 0.0075781 
0.00755083 0.00752345 0.00749597 0.00746837 0.00744066 0.00741284 0.0073849 0.00735686 0.0073287 
0.00730043 0.00727205 0.00724355 0.00721494 0.00718622 0.00715738 0.00712843 0.00709937 0.00707019 
0.00704089 0.00701148 0.00698196 0.00695232 0.00692256 0.00689269 0.0068627 0.00683259 0.00680236 
0.00677202 0.00674155 0.00671096 0.00668024 0.0066494 0.00661844 0.00658735 0.00655611 0.00652476 
0.00649326 0.00646162 0.00642984 0.0063979 0.00636581 0.00633355 0.00792464 0.00789881 0.00787288 
0.00784685 0.00782072 0.00779449 0.00776816 0.00774173 0.00771519 0.00768855 0.00766181 0.00763496 
0.007608 0.00758093 0.00755376 0.00752648 0.00749908 0.00747158 0.00744396 0.00741624 0.0073884 
0.00736044 0.00733238 0.0073042 0.00727591 0.0072475 0.00721897 0.00719033 0.00716158 0.0071327 
0.00710372 0.00707461 0.00704539 0.00701605 0.0069866 0.00695703 0.00692734 0.00689753 0.00686761 
0.00683757 0.00680741 0.00677713 0.00674673 0.00671622 0.00668558 0.00665483 0.00662395 0.00659295 
0.00656183 0.00653059 0.00649922 0.00646772 0.0064361 0.00640435 0.00637245 0.00634043 0.00630828 
0.00627598 0.00624353 0.00621093 0.00617817 0.00614524 0.00777127 0.00774491 0.00771845 0.00769189 
0.00766522 0.00763846 0.00761159 0.00758462 0.00755754 0.00753035 0.00750306 0.00747565 0.00744814 
0.00742051 0.00739278 0.00736493 0.00733696 0.00730889 0.00728069 0.00725239 0.00722396 0.00719542 
0.00716676 0.00713799 0.0071091 0.00708009 0.00705096 0.00702171 0.00699234 0.00696285 0.00693325 
0.00690352 0.00687368 0.00684371 0.00681362 0.00678342 0.00675309 0.00672264 0.00669207 0.00666138 
0.00663057 0.00659964 0.00656859 0.00653741 0.00650612 0.0064747 0.00644316 0.00641149 0.0063797 
0.00634779 0.00631574 0.00628358 0.00625128 0.00621886 0.00618629 0.00615359 0.00612076 0.00608778 
0.00605466 0.00602138 0.00598794 0.00595434 0.00761607 0.00758917 0.00756218 0.00753508 0.00750786 
0.00748055 0.00745313 0.00742561 0.00739797 0.00737023 0.00734237 0.0073144 0.00728632 0.00725813 
0.00722981 0.00720139 0.00717284 0.00714418 0.00711539 0.00708649 0.00705747 0.00702833 0.00699907 
0.00696969 0.00694019 0.00691056 0.00688081 0.00685094 0.00682095 0.00679083 0.00676059 0.00673023 
0.00669974 0.00666913 0.0066384 0.00660754 0.00657656 0.00654545 0.00651422 0.00648287 0.0064514 
0.00641979 0.00638807 0.00635622 0.00632425 0.00629215 0.00625993 0.00622758 0.0061951 0.0061625 
0.00612976 0.00609691 0.00606392 0.00603081 0.00599755 0.00596416 0.00593064 0.00589698 0.00586316 
0.00582919 0.00579506 0.00576077 0.007459 0.00743156 0.00740401 0.00737636 0.00734859 0.00732072 
0.00729274 0.00726466 0.00723645 0.00720814 0.00717971 0.00715116 0.0071225 0.00709372 0.00706482 
0.0070358 0.00700666 0.0069774 0.00694802 0.00691851 0.00688888 0.00685912 0.00682924 0.00679924 
0.00676911 0.00673886 0.00670848 0.00667797 0.00664733 0.00661657 0.00658568 0.00655467 0.00652353 
0.00649226 0.00646086 0.00642934 0.00639769 0.00636591 0.006334 0.00630197 0.00626981 0.00623752 
0.00620511 0.00617257 0.0061399 0.0061071 0.00607418 0.00604113 0.00600795 0.00597464 0.0059412 
0.00590764 0.00587395 0.00584013 0.00580616 0.00577207 0.00573784 0.00570347 0.00566895 0.00563428 
0.00559945 0.00556445 0.00730001 0.00727201 0.00724391 0.00721569 0.00718736 0.00715892 0.00713037 
0.00710171 0.00707293 0.00704403 0.00701502 0.00698588 0.00695663 0.00692725 0.00689775 0.00686813 
0.00683838 0.0068085 0.0067785 0.00674838 0.00671812 0.00668774 0.00665723 0.00662659 0.00659582 
0.00656492 0.00653389 0.00650273 0.00647144 0.00644002 0.00640847 0.00637679 0.00634497 0.00631303 
0.00628095 0.00624875 0.00621641 0.00618394 0.00615134 0.00611861 0.00608575 0.00605276 0.00601964 
0.00598639 0.00595301 0.00591949 0.00588586 0.00585209 0.00581818 0.00578415 0.00574999 0.0057157 
0.00568129 0.00564674 0.00561205 0.00557724 0.00554228 0.00550719 0.00547196 0.00543657 0.00540102 
0.00536531 0.00713906 0.00711049 0.00708181 0.00705302 0.00702411 0.00699509 0.00696596 0.00693671 
0.00690734 0.00687785 0.00684824 0.0068185 0.00678864 0.00675866 0.00672854 0.0066983 0.00666793 
0.00663743 0.0066068 0.00657604 0.00654515 0.00651412 0.00648297 0.00645168 0.00642026 0.0063887 
0.006357 0.00632518 0.00629322 0.00626112 0.00622889 0.00619652 0.00616402 0.00613138 0.00609861 
0.0060657 0.00603266 0.00599948 0.00596617 0.00593273 0.00589915 0.00586544 0.00583159 0.00579761 
0.0057635 0.00572926 0.00569488 0.00566037 0.00562572 0.00559095 0.00555605 0.00552101 0.00548585 
0.00545056 0.00541513 0.00537957 0.00534388 0.00530806 0.00527209 0.00523597 0.00519969 0.00516325 
0.00697608 0.00694694 0.00691768 0.0068883 0.0068588 0.00682919 0.00679946 0.00676961 0.00673964 
0.00670954 0.00667932 0.00664897 0.00661849 0.00658789 0.00655715 0.00652628 0.00649527 0.00646413 
0.00643286 0.00640145 0.0063699 0.00633822 0.0063064 0.00627445 0.00624235 0.00621012 0.00617775 
0.00614524 0.00611259 0.0060798 0.00604687 0.0060138 0.0059806 0.00594725 0.00591377 0.00588014 
0.00584638 0.00581248 0.00577844 0.00574426 0.00570994 0.00567549 0.0056409 0.00560617 0.00557131 
0.00553631 0.00550118 0.00546591 0.0054305 0.00539496 0.00535929 0.0053235 0.00528757 0.00525152 
0.00521532 0.00517901 0.00514256 0.00510598 0.00506926 0.00503239 0.00499538 0.0049582 0.00681104 
0.0067813 0.00675144 0.00672147 0.00669137 0.00666115 0.00663082 0.00660036 0.00656977 0.00653906 
0.00650821 0.00647724 0.00644613 0.00641488 0.0063835 0.00635199 0.00632033 0.00628854 0.00625661 
0.00622454 0.00619232 0.00615997 0.00612747 0.00609484 0.00606206 0.00602913 0.00599607 0.00596286 
0.0059295 0.005896 0.00586236 0.00582857 0.00579464 0.00576057 0.00572635 0.00569199 0.00565749 
0.00562284 0.00558806 0.00555313 0.00551805 0.00548284 0.00544749 0.00541199 0.00537636 0.00534059 
0.00530467 0.00526862 0.00523243 0.00519611 0.00515965 0.00512307 0.00508636 0.00504951 0.00501254 
0.00497544 0.00493822 0.00490086 0.00486338 0.00482576 0.00478799 0.00475006 0.00664387 0.00661353 
0.00658306 0.00655247 0.00652176 0.00649093 0.00645997 0.00642889 0.00639768 0.00636633 0.00633485 
0.00630323 0.00627148 0.00623959 0.00620755 0.00617538 0.00614306 0.0061106 0.00607799 0.00604524 
0.00601234 0.0059793 0.00594611 0.00591278 0.0058793 0.00584567 0.00581189 0.00577796 0.00574388 
0.00570966 0.00567528 0.00564076 0.00560609 0.00557127 0.0055363 0.00550119 0.00546593 0.00543052 
0.00539496 0.00535926 0.00532341 0.00528742 0.00525128 0.005215 0.00517857 0.005142 0.00510529 
0.00506843 0.00503143 0.00499431 0.00495704 0.00491965 0.00488212 0.00484447 0.00480669 0.00476879 
0.00473077 0.00469262 0.00465436 0.00461595 0.00457742 0.00453873 0.00647451 0.00644355 0.00641246 
0.00638125 0.00634992 0.00631846 0.00628687 0.00625515 0.0062233 0.00619131 0.00615918 0.00612691 
0.00609449 0.00606194 0.00602923 0.00599638 0.00596339 0.00593024 0.00589694 0.0058635 0.0058299 
0.00579615 0.00576226 0.00572821 0.00569401 0.00565965 0.00562515 0.00559048 0.00555567 0.0055207 
0.00548558 0.0054503 0.00541487 0.00537928 0.00534354 0.00530765 0.00527161 0.00523542 0.00519908 
0.00516258 0.00512594 0.00508914 0.0050522 0.00501511 0.00497787 0.00494048 0.00490295 0.00486526 
0.00482743 0.00478947 0.00475137 0.00471314 0.00467478 0.00463629 0.00459768 0.00455896 0.00452012 
0.00448116 0.00444209 0.0044029 0.00436358 0.00432412 0.00630291 0.00627131 0.00623959 0.00620775 
0.00617578 0.00614367 0.00611144 0.00607908 0.00604657 0.00601392 0.00598113 0.00594819 0.00591511 
0.00588187 0.00584848 0.00581494 0.00578125 0.0057474 0.0057134 0.00567925 0.00564493 0.00561046 
0.00557584 0.00554106 0.00550612 0.00547103 0.00543577 0.00540036 0.00536479 0.00532905 0.00529316 
0.00525711 0.0052209 0.00518453 0.005148 0.00511132 0.00507448 0.00503748 0.00500033 0.00496302 
0.00492556 0.00488794 0.00485017 0.00481225 0.00477418 0.00473595 0.00469756 0.00465902 0.00462035 
0.00458152 0.00454256 0.00450347 0.00446424 0.00442489 0.00438542 0.00434585 0.00430616 0.00426638 
0.00422648 0.00418648 0.00414636 0.00410612 0.00612899 0.00609675 0.00606439 0.0060319 0.00599928 
0.00596652 0.00593363 0.0059006 0.00586743 0.00583411 0.00580064 0.00576702 0.00573325 0.00569932 
0.00566524 0.00563099 0.00559659 0.00556202 0.0055273 0.00549241 0.00545736 0.00542216 0.00538679 
0.00535126 0.00531557 0.00527971 0.00524369 0.00520751 0.00517116 0.00513465 0.00509797 0.00506112 
0.00502411 0.00498694 0.0049496 0.0049121 0.00487444 0.00483662 0.00479863 0.00476049 0.00472219 
0.00468373 0.00464512 0.00460634 0.00456741 0.00452831 0.00448906 0.00444965 0.00441008 0.00437038 
0.00433052 0.00429054 0.00425042 0.00421018 0.00416982 0.00412937 0.00408881 0.00404816 0.00400742 
0.00396659 0.00392566 0.00388462 0.0059527 0.0059198 0.00588679 0.00585364 0.00582035 0.00578693 
0.00575337 0.00571966 0.00568581 0.00565181 0.00561765 0.00558334 0.00554886 0.00551422 0.00547942 
0.00544445 0.00540932 0.00537402 0.00533856 0.00530293 0.00526713 0.00523116 0.00519503 0.00515874 
0.00512227 0.00508564 0.00504884 0.00501187 0.00497472 0.00493741 0.00489992 0.00486226 0.00482443 
0.00478643 0.00474826 0.00470992 0.00467142 0.00463275 0.00459392 0.00455492 0.00451576 0.00447644 
0.00443695 0.0043973 0.00435749 0.0043175 0.00427735 0.00423704 0.00419657 0.00415595 0.00411517 
0.00407426 0.00403322 0.00399206 0.00395078 0.00390941 0.00386796 0.00382642 0.00378481 0.00374313 
0.00370137 0.00365952 0.00577396 0.00574039 0.00570671 0.00567289 0.00563892 0.00560482 0.00557058 
0.00553619 0.00550165 0.00546695 0.00543209 0.00539706 0.00536187 0.0053265 0.00529097 0.00525526 
0.00521939 0.00518333 0.00514711 0.00511072 0.00507415 0.00503741 0.0050005 0.00496341 0.00492616 
0.00488873 0.00485113 0.00481335 0.00477539 0.00473726 0.00469894 0.00466045 0.00462178 0.00458293 
0.00454391 0.00450471 0.00446534 0.0044258 0.00438609 0.00434622 0.00430618 0.00426597 0.00422559 
0.00418505 0.00414433 0.00410344 0.00406237 0.00402113 0.00397972 0.00393815 0.00389643 0.00385456 
0.00381255 0.00377043 0.0037282 0.00368589 0.0036435 0.00360105 0.00355855 0.00351599 0.00347338 
0.00343071 0.0055927 0.00555845 0.00552409 0.00548958 0.00545494 0.00542014 0.00538521 0.00535012 
0.00531487 0.00527946 0.00524388 0.00520813 0.0051722 0.0051361 0.00509981 0.00506335 0.00502671 
0.00498988 0.00495288 0.0049157 0.00487835 0.00484081 0.0048031 0.00476522 0.00472715 0.00468891 
0.00465049 0.00461188 0.0045731 0.00453412 0.00449496 0.00445561 0.00441608 0.00437636 0.00433646 
0.00429638 0.00425612 0.00421569 0.00417508 0.00413431 0.00409337 0.00405225 0.00401097 0.00396951 
0.00392787 0.00388603 0.00384403 0.00380184 0.00375947 0.00371692 0.00367421 0.00363134 0.00358834 
0.00354522 0.003502 0.00345871 0.00341535 0.00337195 0.00332852 0.00328506 0.00324158 0.00319807 
0.00540884 0.00537391 0.00533885 0.00530364 0.0052683 0.00523281 0.00519717 0.00516137 0.0051254 
0.00508927 0.00505295 0.00501646 0.00497979 0.00494292 0.00490587 0.00486863 0.00483121 0.0047936 
0.0047558 0.00471781 0.00467965 0.0046413 0.00460277 0.00456406 0.00452517 0.0044861 0.00444684 
0.00440739 0.00436775 0.00432792 0.00428789 0.00424766 0.00420724 0.00416663 0.00412583 0.00408484 
0.00404367 0.00400233 0.0039608 0.00391911 0.00387724 0.0038352 0.00379299 0.00375059 0.00370801 
0.00366523 0.00362226 0.00357909 0.00353573 0.00349218 0.00344844 0.00340455 0.00336051 0.00331635 
0.00327209 0.00322777 0.00318341 0.00313902 0.00309463 0.00305025 0.00300587 0.0029615 0.00522231 
0.00518667 0.0051509 0.005115 0.00507895 0.00504274 0.00500638 0.00496986 0.00493317 0.00489629 
0.00485924 0.00482199 0.00478455 0.00474691 0.00470908 0.00467104 0.00463281 0.00459439 0.00455577 
0.00451696 0.00447797 0.00443879 0.00439942 0.00435987 0.00432013 0.00428021 0.00424009 0.00419978 
0.00415927 0.00411856 0.00407765 0.00403653 0.0039952 0.00395367 0.00391195 0.00387003 0.00382792 
0.00378563 0.00374317 0.00370053 0.00365773 0.00361474 0.00357159 0.00352824 0.0034847 0.00344095 
0.003397 0.00335284 0.00330846 0.00326387 0.00321908 0.00317411 0.00312898 0.00308374 0.0030384 
0.002993 0.00294759 0.00290217 0.00285679 0.00281145 0.00276616 0.00272091 0.00503302 0.00499666 
0.00496018 0.00492356 0.00488679 0.00484986 0.00481278 0.00477552 0.00473809 0.00470047 0.00466265 
0.00462463 0.00458641 0.00454798 0.00450934 0.0044705 0.00443144 0.00439218 0.00435273 0.00431307 
0.00427322 0.00423319 0.00419296 0.00415255 0.00411195 0.00407116 0.00403018 0.00398899 0.00394759 
0.00390599 0.00386417 0.00382213 0.00377987 0.0037374 0.00369473 0.00365185 0.00360878 0.00356553 
0.0035221 0.0034785 0.00343473 0.0033908 0.00334668 0.00330238 0.00325786 0.00321314 0.0031682 
0.00312302 0.0030776 0.00303194 0.00298606 0.00293998 0.00289372 0.00284733 0.00280086 0.00275434 
0.00270782 0.00266134 0.00261492 0.00256859 0.00252235 0.0024762 0.00484089 0.0048038 0.00476659 
0.00472924 0.00469175 0.00465409 0.00461627 0.00457827 0.00454009 0.00450171 0.00446312 0.00442432 
0.0043853 0.00434606 0.0043066 0.00426692 0.00422701 0.0041869 0.00414658 0.00410605 0.00406533 
0.00402441 0.00398331 0.00394202 0.00390054 0.00385887 0.003817 0.00377492 0.00373263 0.00369011 
0.00364737 0.00360439 0.00356118 0.00351775 0.0034741 0.00343024 0.00338618 0.00334193 0.00329752 
0.00325294 0.00320819 0.00316329 0.00311821 0.00307294 0.00302746 0.00298176 0.00293582 0.00288961 
0.00284313 0.00279638 0.00274937 0.00270213 0.00265469 0.00260711 0.00255944 0.00251174 0.00246406 
0.00241646 0.00236896 0.0023216 0.00227438 0.00222731 0.00464581 0.00460798 0.00457003 0.00453196 
0.00449373 0.00445533 0.00441677 0.00437803 0.00433909 0.00429994 0.00426057 0.00422097 0.00418114 
0.00414107 0.00410076 0.00406022 0.00401945 0.00397845 0.00393723 0.00389581 0.00385419 0.00381238 
0.00377038 0.00372819 0.00368581 0.00364325 0.00360048 0.0035575 0.0035143 0.00347086 0.00342718 
0.00338325 0.00333907 0.00329465 0.00324999 0.00320511 0.00316003 0.00311477 0.00306934 0.00302376 
0.00297803 0.00293215 0.00288611 0.00283988 0.00279344 0.00274677 0.00269984 0.00265261 0.00260506 
0.0025572 0.00250902 0.00246058 0.0024119 0.00236306 0.00231413 0.00226518 0.00221629 0.00216751 
0.00211889 0.00207045 0.00202222 0.00197419 0.00444769 0.00440912 0.00437042 0.00433161 0.00429264 
0.00425351 0.0042142 0.0041747 0.004135 0.00409507 0.00405491 0.0040145 0.00397385 0.00393293 
0.00389176 0.00385033 0.00380866 0.00376675 0.00372462 0.00368227 0.00363972 0.00359698 0.00355406 
0.00351096 0.00346768 0.00342421 0.00338054 0.00333665 0.00329253 0.00324817 0.00320354 0.00315864 
0.00311347 0.00306803 0.00302234 0.00297641 0.00293028 0.00288397 0.0028375 0.0027909 0.00274418 
0.00269732 0.00265033 0.00260316 0.00255579 0.00250818 0.00246027 0.00241202 0.00236341 0.00231442 
0.00226507 0.00221537 0.0021654 0.00211523 0.00206496 0.0020147 0.00196452 0.0019145 0.0018647 
0.00181515 0.00176585 0.00171681 0.00424642 0.0042071 0.00416766 0.0041281 0.00408839 0.00404852 
0.00400846 0.00396821 0.00392774 0.00388704 0.00384608 0.00380485 0.00376335 0.00372157 0.00367951 
0.00363717 0.00359457 0.00355172 0.00350863 0.00346533 0.00342183 0.00337814 0.00333428 0.00329025 
0.00324605 0.00320167 0.00315709 0.0031123 0.00306727 0.00302198 0.0029764 0.00293052 0.00288434 
0.00283786 0.0027911 0.00274409 0.00269687 0.00264947 0.00260193 0.0025543 0.00250657 0.00245876 
0.00241084 0.00236277 0.00231451 0.00226599 0.00221715 0.00216793 0.00211828 0.00206817 0.0020176 
0.00196662 0.00191529 0.00186372 0.00181204 0.00176037 0.00170883 0.00165751 0.00160647 0.00155574 
0.00150532 0.00145522 0.0040419 0.00400181 0.00396162 0.00392132 0.00388088 0.00384027 0.00379947 
0.00375847 0.00371724 0.00367575 0.00363399 0.00359194 0.00354958 0.00350691 0.00346394 0.00342067 
0.0033771 0.00333327 0.0032892 0.0032449 0.00320041 0.00315574 0.00311091 0.00306594 0.00302082 
0.00297553 0.00293007 0.00288439 0.00283846 0.00279224 0.00274572 0.00269886 0.00265165 0.0026041 
0.00255624 0.0025081 0.00245974 0.00241121 0.00236258 0.00231389 0.00226517 0.00221642 0.00216761 
0.0021187 0.00206961 0.00202027 0.00197057 0.00192044 0.00186979 0.00181859 0.00176682 0.00171452 
0.00166177 0.00160872 0.00155554 0.00150237 0.00144939 0.00139668 0.00134432 0.00129233 0.00124071 
0.00118946 0.00383399 0.00379315 0.00375221 0.00371117 0.00367 0.00362866 0.00358713 0.00354539 
0.0035034 0.00346114 0.00341858 0.00337569 0.00333247 0.0032889 0.00324499 0.00320075 0.00315618 
0.00311133 0.00306622 0.00302088 0.00297536 0.00292968 0.00288387 0.00283795 0.0027919 0.00274572 
0.00269939 0.00265284 0.00260604 0.00255894 0.00251148 0.00246364 0.0024154 0.00236676 0.00231775 
0.00226843 0.00221887 0.00216917 0.0021194 0.00206963 0.00201993 0.00197028 0.00192065 0.00187099 
0.00182118 0.00177112 0.00172067 0.00166973 0.00161817 0.00156594 0.00151299 0.00145936 0.00140515 
0.00135054 0.00129575 0.00124099 0.00118646 0.00113227 0.00107848 0.00102511 0.000972163 0.000919618 
0.00362258 0.00358097 0.00353929 0.00349752 0.00345564 0.00341359 0.00337135 0.00332889 0.00328616 
0.00324314 0.00319978 0.00315606 0.00311196 0.00306748 0.0030226 0.00297735 0.00293175 0.00288582 
0.00283962 0.00279319 0.00274659 0.00269986 0.00265304 0.00260615 0.00255919 0.00251215 0.00246498 
0.00241762 0.00237 0.00232205 0.0022737 0.00222491 0.00217563 0.00212587 0.00207567 0.0020251 
0.00197427 0.00192331 0.00187234 0.00182149 0.00177082 0.00172033 0.00166999 0.0016197 0.00156932 
0.0015187 0.00146766 0.00141605 0.00136372 0.00131057 0.00125652 0.00120159 0.00114589 0.00108965 
0.00103316 0.000976704 0.0009205 0.00086467 0.000809264 0.000754303 0.000699795 0.000645759 0.00340752 
0.00336516 0.00332275 0.00328027 0.00323769 0.00319496 0.00315203 0.00310888 0.00306544 0.00302167 
0.00297754 0.00293299 0.00288802 0.0028426 0.00279673 0.00275044 0.00270374 0.00265668 0.00260932 
0.00256173 0.00251399 0.00246616 0.0024183 0.00237043 0.00232258 0.00227471 0.00222677 0.00217867 
0.00213032 0.0020816 0.00203243 0.00198272 0.00193242 0.00188153 0.00183008 0.00177817 0.00172596 
0.00167363 0.00162139 0.00156942 0.00151782 0.0014666 0.00141569 0.00136496 0.00131421 0.00126323 
0.00121182 0.00115975 0.00110686 0.00105297 0.000997972 0.000941851 0.000884711 0.000826819 0.000768561 
0.000710283 0.000652213 0.000594446 0.000537037 0.000480066 0.000423625 0.000367796 0.00318866 0.00314555 
0.00310243 0.00305926 0.00301602 0.00297265 0.00292908 0.00288528 0.00284117 0.0027967 0.00275181 
0.00270646 0.00266061 0.00261425 0.00256736 0.00251997 0.00247212 0.00242385 0.00237525 0.00232641 
0.00227745 0.00222845 0.0021795 0.00213066 0.00208195 0.00203333 0.00198471 0.00193599 0.00188702 
0.00183766 0.00178775 0.0017372 0.00168592 0.00163387 0.00158111 0.00152775 0.001474 0.00142016 
0.00136653 0.0013134 0.00126093 0.00120912 0.00115786 0.00110694 0.00105609 0.00100504 0.00095352 
0.000901287 0.000848109 0.000793777 0.000738128 0.000681078 0.000622695 0.000563276 0.000503289 0.000443082 
0.000382755 0.000322319 0.000261986 0.000202176 0.00014325 8.53356e-05 0.00296583 0.00292199 0.00287818 
0.00283437 0.00279052 0.00274656 0.00270241 0.00265801 0.00261329 0.00256817 0.00252257 0.00247644 
0.00242974 0.00238242 0.00233449 0.00228597 0.00223688 0.00218731 0.00213735 0.00208715 0.00203684 
0.00198658 0.0019365 0.00188668 0.00183715 0.00178787 0.00173873 0.00168956 0.00164016 0.00159031 
0.00153983 0.00148855 0.00143635 0.00138316 0.00132902 0.00127405 0.00121855 0.00116293 0.00110771 
0.00105337 0.00100013 0.000947988 0.000896706 0.000845943 0.000795338 0.000744553 0.000693278 0.000641236 
0.000588169 0.000533839 0.000478028 0.000420579 0.000361489 0.000301055 0.000239797 0.000177746 0.000114215 
4.8642e-05 -1.70937e-05 -8.08643e-05 -0.000138462 -0.000130867 0.00273885 0.0026943 0.00264984 0.00260545 
0.00256105 0.00251657 0.00247193 0.00242702 0.00238177 0.00233607 0.00228982 0.00224296 0.00219542 
0.00214717 0.00209817 0.00204845 0.00199805 0.00194705 0.0018956 0.00184386 0.00179205 0.00174039 
0.00168908 0.00163826 0.00158799 0.00153822 0.00148877 0.00143939 0.00138981 0.00133972 0.00128887 
0.00123702 0.00118402 0.00112974 0.00107417 0.00101741 0.000959803 0.000901983 0.00084484 0.000789202 
0.000735426 0.000683371 0.000632549 0.000582417 0.000532495 0.000482395 0.000431796 0.000380423 0.000328018 
0.000274332 0.000219117 0.000162163 0.000103409 4.32131e-05 -1.74641e-05 -7.92752e-05 -0.000101973 -0.000113408 
-0.000116506 -0.000114886 -0.000110349 -0.000103778 0.00250751 0.00246227 0.00241723 0.00237231 0.00232746 
0.00228258 0.00223754 0.00219225 0.00214657 0.00210039 0.00205359 0.00200606 0.00195774 0.00190855 
0.00185848 0.00180751 0.0017557 0.00170314 0.00164999 0.00159649 0.00154293 0.00148965 0.00143697 
0.00138513 0.00133423 0.00128418 0.00123474 0.00118553 0.00113611 0.0010861 0.00103514 0.000982964 
0.000929338 0.000874087 0.000817096 0.000758363 0.000698167 0.000637369 0.000577612 0.000520588 0.000466819 
0.000415622 0.00036598 0.000317086 0.000268403 0.000219567 0.000170304 0.000120354 6.94399e-05 1.72596e-05 
-3.6473e-05 -6.28136e-05 -6.79772e-05 -7.44235e-05 -8.11768e-05 -8.76273e-05 -9.28043e-05 -9.55738e-05 -9.54834e-05 
-9.28071e-05 -8.80484e-05 -8.16655e-05 0.00227156 0.00222569 0.00218012 0.00213478 0.0020896 0.00204445 
0.00199918 0.00195365 0.0019077 0.00186117 0.00181393 0.00176583 0.00171679 0.00166672 0.00161556 
0.0015633 0.00150998 0.00145568 0.00140059 0.001345 0.00128933 0.00123407 0.00117977 0.00112684 
0.00107547 0.00102553 0.000976587 0.000928044 0.000879271 0.000829724 0.00077899 0.000726754 0.000672755 
0.00061676 0.000558521 0.000497786 0.000434424 0.0003691 0.000305025 0.000246747 0.00019446 0.000145477 
9.79686e-05 5.12098e-05 4.95634e-06 -4.11074e-05 -7.15074e-05 -6.69944e-05 -6.3852e-05 -6.2276e-05 -6.23825e-05 
-6.41813e-05 -6.74702e-05 -7.16754e-05 -7.58491e-05 -7.90979e-05 -8.08044e-05 -8.06755e-05 -7.86753e-05 -7.49595e-05 
-6.97664e-05 -6.33532e-05 0.00203074 0.00198428 0.00193827 0.00189264 0.00184729 0.00180207 0.00175677 
0.0017112 0.00166517 0.00161848 0.00157094 0.0015224 0.00147274 0.00142184 0.00136964 0.00131607 
0.00126115 0.00120493 0.00114757 0.00108943 0.00103106 0.000973247 0.000916877 0.000862707 0.000811107 
0.000761876 0.000714242 0.000667142 0.000619614 0.000570969 0.00052078 0.00046876 0.000414675 0.000358275 
0.000299217 0.000236947 0.000170426 9.76701e-05 2.2544e-05 -3.41616e-05 -8.12192e-05 -0.000124026 -0.000109551 
-9.79685e-05 -8.83228e-05 -8.01992e-05 -7.35004e-05 -6.82261e-05 -6.44097e-05 -6.20809e-05 -6.12299e-05 -6.17505e-05 
-6.33615e-05 -6.55319e-05 -6.75286e-05 -6.8686e-05 -6.85653e-05 -6.70039e-05 -6.4015e-05 -5.9724e-05 -5.43014e-05 
-4.79316e-05 0.00178468 0.0017377 0.00169138 0.00164564 0.00160035 0.00155531 0.00151025 0.00146493 
0.00141907 0.00137242 0.00132478 0.00127596 0.0012258 0.00117418 0.001121 0.00106615 0.00100959 
0.000951272 0.000891297 0.000829966 0.000767984 0.000706573 0.000647283 0.000591525 0.000540088 0.000492698 
0.000447791 0.000403276 0.000357683 0.000310308 0.000260874 0.000209243 0.000155293 9.88392e-05 3.95718e-05 
-2.30909e-05 -9.0407e-05 -0.000121017 -0.000145187 -0.000137229 -0.000124833 -0.000113435 -0.00010301 -9.35522e-05 
-8.5098e-05 -7.76977e-05 -7.1405e-05 -6.6274e-05 -6.2343e-05 -5.96212e-05 -5.80618e-05 -5.75272e-05 -5.77443e-05 
-5.82905e-05 -5.86396e-05 -5.8334e-05 -5.70454e-05 -5.46379e-05 -5.11078e-05 -4.6546e-05 -4.10832e-05 -3.48669e-05 
0.00153298 0.00148555 0.00143908 0.00139346 0.00134854 0.00130404 0.00125961 0.00121488 0.00116951 
0.00112318 0.00107566 0.00102673 0.000976236 0.000924034 0.000869995 0.000813977 0.000755828 0.000695376 
0.000632475 0.000567158 0.00050009 0.000433179 0.000369322 0.00031113 0.000260354 0.0002172 0.000177936 
0.000137576 9.44056e-05 4.83554e-05 -3.7891e-07 -5.16531e-05 -7.42531e-05 -7.48723e-05 -7.81653e-05 -8.43636e-05 
-9.36721e-05 -0.000105347 -0.000114362 -0.000115039 -0.00011001 -0.000102825 -9.50795e-05 -8.74521e-05 -8.0283e-05 
-7.37694e-05 -6.80418e-05 -6.31877e-05 -5.92548e-05 -5.62463e-05 -5.41083e-05 -5.27064e-05 -5.18125e-05 -5.11092e-05 
-5.02241e-05 -4.88448e-05 -4.67292e-05 -4.3751e-05 -3.98984e-05 -3.52281e-05 -2.98388e-05 -2.38493e-05 0.0012751 
0.0012273 0.00118086 0.0011357 0.00109159 0.00104815 0.00100486 0.0009612 0.000916712 0.000871017 
0.000823846 0.000775005 0.000724343 0.000671727 0.000617019 0.000560045 0.000500563 0.000438212 0.000372444 
0.000302489 0.000227937 0.000151673 8.02535e-05 1.77347e-05 -3.30974e-05 -6.57265e-05 -9.19382e-05 -0.000110265 
-9.59016e-05 -8.55082e-05 -7.82531e-05 -7.37171e-05 -7.16799e-05 -7.20261e-05 -7.46682e-05 -7.94488e-05 -8.58986e-05 
-9.27551e-05 -9.77443e-05 -9.90235e-05 -9.68289e-05 -9.24166e-05 -8.68802e-05 -8.09302e-05 -7.50055e-05 -6.93832e-05 
-6.42429e-05 -5.96984e-05 -5.58108e-05 -5.25909e-05 -4.99918e-05 -4.79037e-05 -4.61502e-05 -4.45015e-05 -4.26928e-05 
-4.05141e-05 -3.7784e-05 -3.44008e-05 -3.0345e-05 -2.56515e-05 -2.0394e-05 -1.46678e-05 0.00101032 0.000962224 
0.000916059 0.000871792 0.000829143 0.000787526 0.000746149 0.000704188 0.000661043 0.000616293 0.000569697 
0.000521112 0.00047044 0.000417591 0.00036245 0.000304849 0.00024451 0.000180964 0.000113337 3.97502e-05 
-4.50865e-05 -0.000141762 -0.000219252 -0.000209458 -0.000187921 -0.000155765 -0.000126965 -0.000107261 -9.32881e-05 
-8.3251e-05 -7.62861e-05 -7.19121e-05 -6.98341e-05 -6.98309e-05 -7.16674e-05 -7.50014e-05 -7.92462e-05 -8.34651e-05 
-8.64892e-05 -8.74641e-05 -8.62835e-05 -8.33874e-05 -7.93635e-05 -7.47234e-05 -6.98492e-05 -6.50173e-05 -6.04169e-05 
-5.61721e-05 -5.23559e-05 -4.89873e-05 -4.60369e-05 -4.34238e-05 -4.10208e-05 -3.86656e-05 -3.61705e-05 -3.34008e-05 
-3.0214e-05 -2.6541e-05 -2.23595e-05 -1.76925e-05 -1.25959e-05 -7.14756e-06 0.000737694 0.000689321 0.00064367 
0.000600889 0.000560712 0.000522187 0.000483866 0.000444418 0.000403088 0.000359535 0.000313649 0.000265419 
0.000214848 0.000161925 0.000106598 4.87565e-05 -1.1812e-05 -7.5478e-05 -9.79536e-05 -0.000114838 -0.000138196 
-0.000159843 -0.000167218 -0.000163116 -0.000150616 -0.00013314 -0.000115451 -0.000100598 -8.90343e-05 -8.038e-05 
-7.42394e-05 -7.02914e-05 -6.82808e-05 -6.79674e-05 -6.90768e-05 -7.12396e-05 -7.39488e-05 -7.65627e-05 -7.84015e-05 
-7.89717e-05 -7.81285e-05 -7.6019e-05 -7.29435e-05 -6.92257e-05 -6.51526e-05 -6.09557e-05 -5.68058e-05 -5.28247e-05 
-4.90855e-05 -4.56175e-05 -4.24084e-05 -3.94053e-05 -3.65218e-05 -3.36473e-05 -3.06496e-05 -2.74477e-05 -2.39341e-05 
-2.00624e-05 -1.58155e-05 -1.12102e-05 -6.2909e-06 -1.12028e-06 0.00045601 0.00040723 0.000362166 0.00032153 
0.000285527 0.000252474 0.000219037 0.000182984 0.000143752 0.000101429 5.622e-05 8.3222e-06 -4.21195e-05 
-6.39424e-05 -6.37357e-05 -6.59546e-05 -7.06705e-05 -7.79993e-05 -8.80628e-05 -0.000100732 -0.000114698 -0.000126262 
-0.000131731 -0.000130487 -0.000123813 -0.000113802 -0.000102782 -9.25143e-05 -8.38464e-05 -7.70119e-05 -7.19894e-05 
-6.865e-05 -6.68284e-05 -6.63244e-05 -6.68887e-05 -6.81999e-05 -6.98631e-05 -7.14432e-05 -7.2485e-05 -7.26863e-05 
-7.19101e-05 -7.01919e-05 -6.76795e-05 -6.45715e-05 -6.10668e-05 -5.73434e-05 -5.35431e-05 -4.97736e-05 -4.61054e-05 
-4.25736e-05 -3.91798e-05 -3.5895e-05 -3.26651e-05 -2.94183e-05 -2.60729e-05 -2.25568e-05 -1.88216e-05 -1.48286e-05 
-1.05673e-05 -6.0532e-06 -1.32275e-06 3.57153e-06 0.000163863 0.000114256 6.91791e-05 3.06181e-05 1.77287e-06 
-1.96999e-05 -4.5777e-05 -7.82702e-05 -9.85674e-05 -8.45233e-05 -7.38214e-05 -6.60445e-05 -6.09133e-05 -5.82385e-05 
-5.78899e-05 -5.97767e-05 -6.38174e-05 -6.99009e-05 -7.77817e-05 -8.68779e-05 -9.5984e-05 -0.000103309 -0.000107278 
-0.000107347 -0.000103984 -9.82722e-05 -9.14729e-05 -8.4662e-05 -7.85481e-05 -7.34923e-05 -6.96384e-05 -6.69826e-05 
-6.54424e-05 -6.48746e-05 -6.5082e-05 -6.58106e-05 -6.67725e-05 -6.76459e-05 -6.81336e-05 -6.80236e-05 -6.7201e-05 
-6.56577e-05 -6.34638e-05 -6.07379e-05 -5.76141e-05 -5.4223e-05 -5.06782e-05 -4.70688e-05 -4.34602e-05 -3.98894e-05 
-3.63692e-05 -3.28889e-05 -2.94184e-05 -2.59157e-05 -2.23286e-05 -1.8613e-05 -1.47434e-05 -1.06952e-05 -6.46506e-06 
-2.06863e-06 2.46155e-06 7.08273e-06 -0.000139861 -0.000191066 -0.000238147 -0.000273784 -0.000222011 -0.000169495 
-0.000136006 -0.000111795 -9.3417e-05 -7.93462e-05 -6.87482e-05 -6.11045e-05 -5.60669e-05 -5.33857e-05 -5.28677e-05 