# vtk DataFile Version 4.0
vtk output
ASCII
DATASET POLYDATA
POINTS 3821 double
3.39651 21.923 1.25 -2.85349 21.923 1.25 3.39651 16.503 1.25 
3.39651 16.503 1.25 -2.85349 21.923 1.25 -2.63232 16.0255 1.25 
3.39651 16.503 1.25 -2.63232 16.0255 1.25 3.39651 11.083 1.25 
3.39651 11.083 1.25 -2.63232 16.0255 1.25 -2.63232 10.128 1.25 
3.39651 11.083 1.25 -2.63232 10.128 1.25 3.6914 10.128 1.25 
3.6914 10.128 1.25 -2.63232 10.128 1.25 3.6914 4.2305 1.25 
3.6914 10.128 1.25 3.6914 4.2305 1.25 8.51446 8.533 1.25 
8.51446 8.533 1.25 3.6914 4.2305 1.25 10.0151 4.2305 1.25 
8.51446 8.533 1.25 10.0151 4.2305 1.25 13.6324 5.983 1.25 
13.6324 5.983 1.25 10.0151 4.2305 1.25 16.3388 4.2305 1.25 
13.6324 5.983 1.25 16.3388 4.2305 1.25 18.7504 3.433 1.25 
18.7504 3.433 1.25 16.3388 4.2305 1.25 14.0215 -1.667 1.25 
18.7504 3.433 1.25 14.0215 -1.667 1.25 19.0098 -1.667 1.25 
-2.63232 16.0255 1.25 -2.85349 21.923 1.25 -8.95605 16.0255 1.25 
-8.95605 16.0255 1.25 -2.85349 21.923 1.25 -9.10349 21.923 1.25 
-8.95605 16.0255 1.25 -9.10349 21.923 1.25 -15.2798 16.0255 1.25 
-15.2798 16.0255 1.25 -9.10349 21.923 1.25 -15.3535 21.923 1.25 
-15.2798 16.0255 1.25 -15.3535 21.923 1.25 -21.6035 16.5597 1.25 
-21.6035 16.5597 1.25 -15.3535 21.923 1.25 -21.6035 21.923 1.25 
-21.6035 16.5597 1.25 -21.6035 11.1963 1.25 -15.2798 16.0255 1.25 
-15.2798 16.0255 1.25 -21.6035 11.1963 1.25 -15.2798 10.128 1.25 
-15.2798 16.0255 1.25 -15.2798 10.128 1.25 -8.95605 10.128 1.25 
-8.95605 10.128 1.25 -15.2798 10.128 1.25 -8.95605 4.2305 1.25 
-8.95605 10.128 1.25 -8.95605 4.2305 1.25 -2.63232 4.2305 1.25 
-2.63232 4.2305 1.25 -8.95605 4.2305 1.25 -3.79099 2.083 1.25 
-2.63232 4.2305 1.25 -3.79099 2.083 1.25 2.14651 0.833002 1.25 
-21.6035 11.1963 1.25 -21.6035 5.833 1.25 -15.2798 10.128 1.25 
-15.2798 10.128 1.25 -21.6035 5.833 1.25 -15.666 4.583 1.25 
-15.2798 10.128 1.25 -15.666 4.583 1.25 -8.95605 4.2305 1.25 
-8.95605 4.2305 1.25 -15.666 4.583 1.25 -9.72849 3.333 1.25 
-8.95605 4.2305 1.25 -9.72849 3.333 1.25 -3.79099 2.083 1.25 
-2.63232 4.2305 1.25 2.14651 0.833002 1.25 3.6914 4.2305 1.25 
3.6914 4.2305 1.25 2.14651 0.833002 1.25 8.08401 -0.416998 1.25 
3.6914 4.2305 1.25 8.08401 -0.416998 1.25 10.0151 4.2305 1.25 
10.0151 4.2305 1.25 8.08401 -0.416998 1.25 14.0215 -1.667 1.25 
10.0151 4.2305 1.25 14.0215 -1.667 1.25 16.3388 4.2305 1.25 
18.7504 3.433 1.25 19.0098 -1.667 1.25 23.8683 0.883002 1.25 
23.8683 0.883002 1.25 19.0098 -1.667 1.25 23.998 -1.667 1.25 
23.8683 0.883002 1.25 23.998 -1.667 1.25 28.9863 -1.667 1.25 
8.51446 8.533 1.25 3.39651 11.083 1.25 3.6914 10.128 1.25 
-2.63232 10.128 1.25 -2.63232 16.0255 1.25 -8.95605 16.0255 1.25 
-2.63232 10.128 1.25 -8.95605 16.0255 1.25 -8.95605 10.128 1.25 
-8.95605 10.128 1.25 -8.95605 16.0255 1.25 -15.2798 16.0255 1.25 
3.6914 4.2305 1.25 -2.63232 10.128 1.25 -2.63232 4.2305 1.25 
-2.63232 4.2305 1.25 -2.63232 10.128 1.25 -8.95605 10.128 1.25 
16.9603 4.32492 1.25 17.8009 3.74698 1.25 17.8553 3.87896 1.25 
15.4225 5.09109 1.25 15.3112 4.89594 1.25 17.0699 3.98874 1.25 
17.4078 4.10194 1.25 16.1914 4.708 1.25 1.36768 10.128 1.25 
1.31842 10.7538 1.25 6.72436 9.42492 1.25 6.6156 9.16096 1.25 
5.18662 10.1911 1.25 5.1535 9.64448 1.25 5.95549 9.808 1.25 
-12.9505 4.44035 1.25 -11.7518 3.75896 1.25 -13.7089 4.17098 1.25 
-10.9533 4.33543 1.25 -14.6674 4.53054 1.25 -14.6874 4.37699 1.25 
-12.7303 3.96497 1.25 -11.9519 4.38789 1.25 -13.809 4.48544 1.25 
-14.1982 4.27399 1.25 -5.81429 2.50896 1.25 -5.63773 2.85083 1.25 
-7.29689 3.54067 1.25 -7.77139 2.92098 1.25 -4.76954 2.28901 1.25 
-4.71436 2.46692 1.25 -6.46731 3.19575 1.25 -6.79284 2.71497 1.25 
-0.308599 4.2305 1.25 -1.00229 3.07163 1.25 1.05284 2.6285 1.25 
5.33642 2.49002 1.25 5.52954 5.87025 1.25 0.168466 19.3024 1.25 
0.461036 13.4895 1.25 6.67632 6.89325 1.25 16.0307 0.499867 1.25 
-18.568 19.1646 1.25 -18.4245 13.624 1.25 -18.2945 8.08041 1.25 
-18.5887 7.8806 1.25 -11.8813 6.95863 1.25 -15.4187 8.13284 1.25 
6.85326 2.81935 1.25 11.7738 1.64173 1.25 20.7207 0.97662 1.25 
0.374549 19.1236 1.25 0.303149 13.619 1.25 0.29297 7.39988 1.25 
3.6914 6.2305 1.25 -5.72983 19.1433 1.25 -6.07971 18.8052 1.25 
-11.9965 19.1606 1.25 -12.3868 18.7879 1.25 -18.389 19.3181 1.25 
-18.4588 13.5978 1.25 -11.8813 12.8561 1.25 -15.2798 14.0255 1.25 
-12.3545 7.39988 1.25 -8.95605 6.2305 1.25 -5.55761 6.95863 1.25 
-8.95605 8.128 1.25 13.177 2.06888 1.25 -6.03075 13.2974 1.25 
-2.63232 12.128 1.25 -5.55761 12.8561 1.25 -8.95605 14.0255 1.25 
-12.3545 13.2974 1.25 -8.95605 12.128 1.25 0.766109 6.95863 1.25 
-2.63232 8.128 1.25 -6.03075 7.39988 1.25 -2.63232 6.2305 1.25 
18.2757 3.58999 1.25 18.3029 3.65598 1.25 -15.1767 4.48 1.25 
-15.1667 4.55677 1.25 14.5275 5.53705 1.25 14.4718 5.43947 1.25 
7.61941 8.97896 1.25 7.56503 8.84698 1.25 -0.656952 10.4409 1.25 
-0.632322 10.128 1.25 0.57211 1.95232 1.25 0.123206 1.25896 1.25 
0.516471 1.99187 1.25 -1.69354 2.33766 1.25 18.513 3.5115 1.25 
18.5266 3.54449 1.25 18.0552 3.71944 1.25 -14.9201 4.48549 1.25 
-15.4214 4.5315 1.25 -15.4163 4.56989 1.25 14.8915 5.1677 1.25 
14.975 5.31407 1.25 14.0521 5.71124 1.25 14.0799 5.76002 1.25 
7.12402 9.10587 1.25 8.06694 8.75598 1.25 8.03975 8.68999 1.25 
0.367678 10.3641 1.25 -1.64464 10.2845 1.25 -1.63232 10.128 1.25 
1.59968 1.73075 1.25 1.16796 1.03901 1.25 -0.855344 1.46497 1.25 
0.70264 1.42001 1.25 1.33149 1.41244 1.25 -1.83389 1.67098 1.25 
-2.74227 2.21033 1.25 -1.05793 3.11119 1.25 -0.410223 2.35532 1.25 
3.40398 2.3112 1.25 4.16981 0.407044 1.25 6.25574 0.606961 1.25 
-0.308599 4.2305 1.25 19.959 -2.917 -0.96875 19.959 -2.917 0.96875 
14.0215 -1.667 -1.25 14.0215 -1.667 -1.25 19.959 -2.917 0.96875 
14.0215 -1.667 1.25 14.0215 -1.667 -1.25 14.0215 -1.667 1.25 
8.08401 -0.416998 -1.25 8.08401 -0.416998 -1.25 14.0215 -1.667 1.25 
8.08401 -0.416998 1.25 8.08401 -0.416998 -1.25 8.08401 -0.416998 1.25 
2.14651 0.833002 -1.25 2.14651 0.833002 -1.25 8.08401 -0.416998 1.25 
2.14651 0.833002 1.25 2.14651 0.833002 -1.25 2.14651 0.833002 1.25 
-3.79099 2.083 -1.25 -3.79099 2.083 -1.25 2.14651 0.833002 1.25 
-3.79099 2.083 1.25 -3.79099 2.083 -1.25 -3.79099 2.083 1.25 
-9.72849 3.333 -1.25 -9.72849 3.333 -1.25 -3.79099 2.083 1.25 
-9.72849 3.333 1.25 -9.72849 3.333 -1.25 -9.72849 3.333 1.25 
-15.666 4.583 -1.25 -15.666 4.583 -1.25 -9.72849 3.333 1.25 
-15.666 4.583 1.25 -15.666 4.583 -1.25 -15.666 4.583 1.25 
-21.6035 5.833 -1.25 -21.6035 5.833 -1.25 -15.666 4.583 1.25 
-21.6035 5.833 1.25 19.959 -2.917 0.96875 19.959 -2.917 -0.96875 
25.8965 -4.167 0.6875 25.8965 -4.167 0.6875 19.959 -2.917 -0.96875 
25.8965 -4.167 -0.6875 25.8965 -4.167 0.6875 25.8965 -4.167 -0.6875 
31.834 -5.417 0.40625 31.834 -5.417 0.40625 25.8965 -4.167 -0.6875 
31.834 -5.417 -0.40625 31.834 -5.417 0.40625 31.834 -5.417 -0.40625 
37.7715 -6.667 0.125 37.7715 -6.667 0.125 31.834 -5.417 -0.40625 
37.7715 -6.667 -0.125 33.8722 -5.8461 -0.223883 35.744 -6.24016 -0.221039 
33.789 -5.82858 -0.313645 35.8219 -6.25655 -0.0494416 34.7665 -6.03437 -0.267342 
34.847 -6.05132 -0.136662 32.8088 -5.62222 -0.319029 32.8115 -5.62279 -0.359947 
34.2778 -5.93147 -0.290493 34.3596 -5.94871 -0.180273 33.3405 -5.73416 -0.271456 
33.3003 -5.72568 -0.336796 33.5446 -5.77713 -0.32522 33.6064 -5.79013 -0.24767 
33.0747 -5.67819 -0.295243 33.0559 -5.67423 -0.348372 33.1781 -5.69996 -0.342584 
32.9418 -5.65021 -0.307136 33.4224 -5.75141 -0.331008 33.4735 -5.76214 -0.259563 
34.0334 -5.88002 -0.302069 33.2076 -5.70618 -0.283349 32.9337 -5.64851 -0.35416 
34.5221 -5.98292 -0.278918 34.1159 -5.8974 -0.202078 35.2553 -6.13726 -0.244191 
35.3345 -6.15393 -0.093052 35.0109 -6.08581 -0.255766 35.4996 -6.18871 -0.232615 
36.7578 -6.45358 -0.17302 36.7967 -6.46177 0.0377792 34.6033 -6.00001 -0.158468 
36.2509 -6.34687 -0.19703 37.2646 -6.56029 -0.14901 36.3093 -6.35916 -0.00583118 
27.9819 -4.60603 -0.30335 29.8065 -4.99016 -0.502289 29.9079 -5.01151 0.0514499 
27.8515 -4.57858 -0.594895 28.829 -4.78437 -0.548592 26.8595 -4.36974 -0.5101 
26.874 -4.37279 -0.641197 28.3403 -4.68147 -0.571743 27.4207 -4.48788 -0.406725 
28.9449 -4.80877 -0.12595 30.8203 -5.20358 -0.45427 33.8615 -5.84384 0.310211 
33.8722 -5.8461 -0.223883 22.1205 -3.37204 -0.365819 23.869 -3.74016 -0.783539 
21.914 -3.32858 -0.876145 22.8915 -3.53437 -0.829842 20.903 -3.11574 -0.70542 
20.9365 -3.12279 -0.922447 24.0085 -3.76952 0.16084 29.7486 -4.97797 0.0221002 
27.924 -4.59384 0.591461 29.879 -5.00542 0.498855 28.9015 -4.79963 0.545158 
30.871 -5.21425 0.22885 30.8565 -5.21121 0.452553 27.8226 -4.57248 -0.3327 
16.2829 -2.14307 -0.404963 17.9315 -2.49016 -1.06479 21.9865 -3.34384 0.872711 
22.1205 -3.37204 -0.365819 15.9765 -2.07858 -1.15739 14.9405 -1.86048 -0.906572 
14.999 -1.87279 -1.2037 32.3214 -5.51961 -0.36264 32.3228 -5.51989 -0.383099 
32.5671 -5.57134 -0.371523 32.5651 -5.57092 -0.340834 32.687 -5.59657 -0.329932 
32.6893 -5.59706 -0.365735 26.3853 -4.26989 -0.664349 26.378 -4.26837 -0.5988 
35.8165 -6.25542 0.217605 35.8219 -6.25655 -0.0494416 5.76555 0.0710972 0.273809 
-1.47254 1.59491 -0.27381 -0.171945 1.3211 0.27381 0.123206 1.25896 -1.25 
0.336983 1.21395 0.488095 -1.83389 1.67098 -1.25 -0.855344 1.46497 -1.07034 
-2.88623 1.89253 -0.869048 -0.218938 1.33099 -0.323276 2.14651 0.833002 0 
1.34014 1.00276 0.625 1.09612 1.05414 -0.559521 -1.76769 1.65704 1.25 
-1.98147 1.70205 -0.488095 0.189407 1.24502 1.25 -2.77934 1.87002 0.497166 
32.0777 -5.4683 -0.384445 32.0784 -5.46844 -0.394674 32.4449 -5.54562 -0.377311 
32.4433 -5.54526 -0.351737 32.2006 -5.49417 -0.388887 32.1996 -5.49396 -0.373542 
32.3833 -5.53264 -0.368681 32.2605 -5.50678 -0.368091 32.2617 -5.50703 -0.385993 
26.6274 -4.32087 -0.603245 26.1409 -4.21844 -0.675924 26.1373 -4.21768 -0.64315 
34.8299 -6.04771 0.0633479 36.794 -6.46121 0.171303 36.7967 -6.46177 0.0377792 
0.477223 1.18443 -0.216825 1.97526 0.869054 0.625 -0.789142 1.45103 1.07034 
1.24175 1.02348 0.869048 1.16796 1.03901 1.25 -0.247247 1.33695 0.860859 
-1.42555 1.58501 0.323276 0.5349 1.17229 0.571429 0.678682 1.14202 1.07902 
[...]
CELL_DATA 3165
FIELD FieldData 4
electrode_index 1 3165 int
0 0 0 0 0 0 0 0 0 
0 0 0 0 0 0 0 0 0 
0 0 0 0 0 0 0 0 0 
0 0 0 0 0 0 0 0 0 
0 0 0 0 0 0 0 0 0 
0 0 0 0 0 0 0 0 0 
0 0 0 0 0 0 0 0 0 
0 0 0 0 0 0 0 0 0 
0 0 0 0 0 0 0 0 0 
0 0 0 0 0 0 0 0 0 
0 0 0 0 0 0 0 0 0 
0 0 0 0 0 0 0 0 0 
0 0 0 0 0 0 0 0 0 
0 0 0 0 0 0 0 0 0 
0 0 0 0 0 0 0 0 0 
0 0 0 0 0 0 0 0 0 
0 0 0 0 0 0 0 0 0 
0 0 0 0 0 0 0 0 0 
0 0 0 0 0 0 0 0 0 
0 0 0 0 0 0 0 0 0 
0 0 0 0 0 0 0 0 0 
0 0 0 0 0 0 0 0 0 
0 0 0 0 0 0 0 0 0 
0 0 0 0 0 0 0 0 0 
0 0 0 0 0 0 0 0 0 
0 0 0 0 0 0 0 0 0 
0 0 0 0 0 0 0 0 0 
0 0 0 0 0 0 0 0 0 
0 0 0 0 0 0 0 0 0 
0 0 0 0 0 0 0 0 0 
0 0 0 0 0 0 0 0 0 
0 0 0 0 0 0 0 0 0 
0 0 0 0 0 0 0 0 0 
0 0 0 0 0 0 0 0 0 
0 0 0 0 0 0 0 0 0 
0 0 0 0 0 0 0 0 0 
0 0 0 0 0 0 0 0 0 
0 0 0 0 0 0 0 0 0 
0 0 0 0 0 0 0 0 0 
0 0 0 0 0 0 0 0 0 
0 0 0 0 0 0 0 0 0 
0 0 0 0 0 0 0 0 0 
0 0 0 0 0 0 0 0 0 
0 0 0 0 0 0 0 0 0 
0 0 0 0 0 0 0 0 0 
0 0 0 0 0 0 0 0 0 
0 0 0 0 0 0 0 0 0 
0 0 0 0 0 0 0 0 0 
0 0 0 0 0 0 0 0 0 
0 0 0 0 0 0 0 0 0 
0 0 0 0 0 0 0 0 0 
0 0 0 0 0 0 0 0 0 
0 0 0 0 0 0 0 0 0 
0 0 0 0 0 0 0 0 0 
0 0 0 0 0 0 0 0 0 
0 0 0 0 0 0 0 0 0 
0 0 0 0 0 0 0 0 0 
0 0 0 0 0 0 0 0 0 
0 0 0 0 0 0 0 0 0 
0 0 0 0 0 0 0 0 0 
0 0 0 0 0 0 0 0 0 
0 0 0 0 0 0 0 0 0 
0 0 0 0 0 0 0 0 0 
0 0 0 0 0 0 0 0 0 
0 0 0 0 0 0 0 0 0 
0 0 0 0 0 0 0 0 0 
0 0 0 0 0 0 0 0 0 
0 0 0 0 0 0 0 0 0 
0 0 0 0 0 1 1 1 1 
1 1 1 1 1 1 1 1 1 
1 1 1 1 1 1 1 1 1 
1 1 1 1 1 1 1 1 1 
1 1 1 1 1 1 1 1 1 
1 1 1 1 1 1 1 1 1 
1 1 1 1 1 1 1 1 1 
1 1 1 1 1 1 1 1 1 
1 1 1 1 1 1 1 1 1 
1 1 1 1 1 1 1 1 1 
1 1 1 1 1 1 1 1 1 
1 1 1 1 1 1 1 1 1 
1 1 1 1 1 1 1 1 1 
1 1 1 1 1 1 1 1 1 
1 1 1 1 1 1 1 1 1 
1 1 1 1 1 1 1 1 1 
1 1 1 1 1 1 1 1 1 
1 1 1 1 1 1 1 1 1 
1 1 1 1 1 1 1 1 1 
1 1 1 1 1 1 1 1 1 
1 1 1 1 1 1 1 1 1 
1 1 1 1 1 1 1 1 1 
1 1 1 1 1 1 1 1 1 
1 1 1 1 1 1 1 1 1 
1 1 1 1 1 1 1 1 1 
1 1 1 1 1 1 1 1 1 
1 1 1 1 1 1 1 1 1 
1 1 1 1 1 1 1 1 1 
1 1 1 1 1 1 1 1 1 
1 1 1 1 1 1 1 1 1 
1 1 1 1 1 1 1 1 1 
1 1 1 1 1 1 1 1 1 
1 1 1 1 1 1 1 1 1 
1 1 1 1 1 1 1 1 1 
1 1 1 1 1 1 1 1 1 
1 1 1 1 1 1 1 1 1 
1 1 1 1 1 1 1 1 1 
1 1 1 1 1 1 1 1 1 
1 1 1 1 1 1 1 1 1 
1 1 1 1 1 1 1 1 1 
1 1 1 1 1 1 1 1 1 
1 1 1 1 1 1 1 1 1 
1 1 1 1 1 1 1 1 1 
1 1 1 1 1 1 1 1 1 
1 1 1 1 1 1 1 1 1 
1 1 1 1 1 1 1 1 1 
1 1 1 1 1 1 1 1 1 
1 1 1 1 1 1 1 1 1 
1 1 1 1 1 1 1 1 1 
1 1 1 1 1 1 1 1 1 
1 1 1 1 1 1 1 1 1 
1 1 1 1 1 1 1 1 1 
1 1 1 1 1 1 1 1 1 
1 1 1 1 1 1 1 1 1 
1 1 1 1 1 1 1 1 1 
1 1 1 1 1 1 1 1 1 
1 1 1 1 1 1 1 1 1 
1 1 1 1 1 1 1 1 2 
2 2 2 2 2 2 2 2 2 
2 2 2 2 2 2 2 2 2 
2 2 2 2 2 2 2 2 2 
2 2 2 2 2 2 2 2 2 
2 2 2 2 2 2 2 2 2 
2 2 2 2 2 2 2 2 2 
2 2 2 2 2 2 2 2 2 
2 2 2 2 2 2 2 2 2 
2 2 2 2 2 2 2 2 2 
2 2 2 2 2 2 2 2 2 
2 2 2 2 2 2 2 2 2 
2 2 2 2 2 2 2 2 2 
2 2 2 2 2 2 2 2 2 
2 2 2 2 2 2 2 2 2 
2 2 2 2 2 2 2 2 2 
2 2 2 2 2 2 2 2 2 
2 2 2 2 2 2 2 2 2 
2 2 2 2 2 2 2 2 2 
2 2 2 2 2 2 2 2 2 
2 2 2 2 2 2 2 2 2 
2 2 2 2 2 2 2 2 2 
2 2 2 2 2 2 2 2 2 
2 2 2 2 2 2 2 2 2 
2 2 2 2 2 2 2 2 2 
2 2 2 2 2 2 2 2 2 
2 2 2 2 2 2 2 2 2 
2 2 2 2 2 2 2 2 2 
2 2 2 2 2 2 2 2 2 
2 2 2 2 2 2 2 2 2 
2 2 2 2 2 2 2 2 2 
2 2 2 2 2 2 2 2 2 
2 2 2 2 2 2 2 2 2 
2 2 2 2 2 2 2 2 2 
2 2 2 2 2 2 2 2 2 
2 2 2 2 2 2 2 2 2 
2 2 2 2 2 2 2 2 2 
2 2 2 2 2 2 2 2 2 
2 2 2 2 2 2 2 2 2 
2 2 2 2 2 2 2 2 2 
2 2 2 2 2 2 2 2 2 
2 2 2 2 2 2 2 2 2 
2 2 2 2 2 2 2 2 2 
2 2 2 2 2 2 2 2 2 
2 2 2 2 2 2 2 2 2 
2 2 2 2 2 2 2 2 2 
2 2 2 2 2 2 2 2 2 
2 2 2 2 2 2 2 2 2 
2 2 2 2 2 2 2 2 2 
2 2 2 2 2 2 2 2 2 
2 2 2 2 2 2 2 2 2 
2 2 2 2 2 2 2 2 2 
2 2 2 2 2 2 2 2 2 
2 2 2 2 2 2 2 2 2 
2 2 2 2 2 2 2 2 2 
2 2 2 2 2 2 2 2 2 
2 2 2 2 2 2 2 2 2 
2 2 2 2 2 2 2 2 2 
2 2 2 2 2 2 2 2 2 
2 2 2 2 2 2 2 2 2 
2 2 2 2 2 2 2 2 2 
2 2 2 2 2 2 2 2 2 
2 2 2 2 2 2 2 2 2 
2 2 2 2 2 2 2 2 2 
2 2 2 2 2 2 2 2 2 
2 2 2 2 2 2 2 2 2 
2 2 2 2 2 2 2 2 2 
2 2 2 2 2 2 2 2 2 
2 2 2 2 2 2 2 2 2 
2 2 2 2 2 2 2 2 2 
2 2 2 2 2 2 2 2 2 
2 2 2 2 2 2 2 2 2 
2 2 2 2 2 2 2 2 2 
2 2 2 2 2 2 2 2 2 
2 2 2 2 2 2 2 2 2 
2 2 2 2 2 2 2 2 2 
2 2 2 2 2 2 2 2 2 
2 2 2 2 2 2 2 2 2 
2 2 2 2 2 2 2 2 2 
2 2 2 2 2 2 2 2 2 
2 2 2 2 2 2 2 2 2 
2 2 2 2 2 2 2 2 2 
2 2 2 2 2 2 2 2 2 
2 2 2 2 2 2 2 2 2 
2 2 2 2 2 2 2 2 2 
2 2 2 2 2 2 2 2 2 
2 2 2 2 2 2 2 2 2 
2 2 3 3 3 3 3 3 3 
3 3 3 3 3 3 3 3 3 
3 3 3 3 3 3 3 3 3 
3 3 3 3 3 3 3 3 3 
3 3 3 3 3 3 3 3 3 
3 3 3 3 3 3 3 3 3 
3 3 3 3 3 3 3 3 3 
3 3 3 3 3 3 3 3 3 
3 3 3 3 3 3 3 3 3 
3 3 3 3 3 3 3 3 3 
3 3 3 3 3 3 3 3 3 
3 3 3 3 3 3 3 3 3 
3 3 3 3 3 3 3 3 3 
3 3 3 3 3 3 3 3 3 
3 3 3 3 3 3 3 3 3 
3 3 3 3 3 3 3 3 3 
3 3 3 3 3 3 3 3 3 
3 3 3 3 3 3 3 3 3 
3 3 3 3 3 3 3 3 3 
3 3 3 3 3 3 3 3 3 
3 3 3 3 3 3 3 3 3 
3 3 3 3 3 3 3 3 3 
3 3 3 3 3 3 3 3 3 
3 3 3 3 3 3 3 3 3 
3 3 3 3 3 3 3 3 3 
3 3 3 3 3 3 3 3 3 
3 3 3 3 3 3 3 3 3 
3 3 3 3 3 3 3 3 3 
3 3 3 3 3 3 3 3 3 
3 3 3 3 3 3 3 3 3 
3 3 3 3 3 3 3 3 3 
3 3 3 3 3 3 3 3 3 
3 3 3 3 3 3 3 3 3 
3 3 3 3 3 3 3 3 3 
3 3 3 3 3 3 3 3 3 
3 3 3 3 3 3 3 3 3 
3 3 3 3 3 3 3 3 3 
3 3 3 3 3 3 3 3 3 
3 3 3 3 3 3 3 3 3 
3 3 3 3 3 3 3 3 3 
3 3 3 3 3 3 3 3 3 
3 3 3 3 3 3 3 3 3 
3 3 3 3 3 3 3 3 3 
3 3 3 3 3 3 3 3 3 
3 3 3 3 3 3 3 3 3 
3 3 3 3 3 3 3 3 3 
3 3 3 3 3 3 3 3 3 
3 3 3 3 3 3 3 3 3 
3 3 3 3 3 3 3 3 3 
3 3 3 3 3 3 3 3 3 
3 3 3 3 3 3 3 3 3 
3 3 3 3 3 3 3 3 3 
3 3 3 3 3 3 3 3 3 
3 3 3 3 3 3 3 3 3 
3 3 3 3 3 3 3 3 3 
3 3 3 3 3 3 3 3 3 
3 3 3 3 3 3 3 3 3 
3 3 3 3 3 3 3 3 3 
3 3 3 3 3 3 3 3 3 
3 3 3 3 3 3 3 3 3 
3 3 3 3 3 3 3 3 3 
3 3 3 3 3 3 3 3 3 
3 3 3 3 3 3 3 3 3 
3 3 3 3 3 3 3 3 3 
3 3 3 3 3 3 3 3 3 
3 3 3 3 3 3 3 3 3 
3 3 3 3 3 3 3 3 3 
3 3 3 3 3 3 3 3 3 
3 3 3 3 3 3 3 3 3 
3 3 3 3 3 3 3 3 3 
3 3 3 3 3 3 3 3 3 
3 3 3 3 3 3 3 3 3 
3 3 3 3 3 3 3 3 3 
3 3 3 3 3 3 3 3 3 
3 3 3 3 3 3 3 3 3 
3 3 3 3 3 3 3 3 3 
3 3 3 3 3 3 3 3 3 
3 3 3 3 3 3 3 3 3 
3 3 3 3 3 3 3 3 3 
3 3 3 3 3 3 3 3 3 
3 3 3 3 3 3 3 3 3 
3 3 3 3 3 3 3 3 3 
3 3 3 3 3 3 3 3 3 
3 3 3 3 3 3 3 3 3 
3 3 3 3 3 3 3 3 3 
3 3 3 3 3 3 3 3 4 
4 4 4 4 4 4 4 4 4 
4 4 4 4 4 4 4 4 4 
4 4 4 4 4 4 4 4 4 
4 4 4 4 4 4 4 4 4 
4 4 4 4 4 4 4 4 4 
4 4 4 4 4 4 4 4 4 
4 4 4 4 4 4 4 4 4 
4 4 4 4 4 4 4 4 4 
4 4 4 4 4 4 4 4 4 
4 4 4 4 4 4 4 4 4 
4 4 4 4 4 4 4 4 4 
4 4 4 4 4 4 4 4 4 
4 4 4 4 4 4 4 4 4 
4 4 4 4 4 4 4 4 4 
4 4 4 4 4 4 4 4 4 
4 4 4 4 4 4 4 4 4 
4 4 4 4 4 4 4 4 4 
4 4 4 4 4 4 4 4 4 
4 4 4 4 4 4 4 4 4 
4 4 4 4 4 4 4 4 4 
4 4 4 4 4 4 4 4 4 
4 4 4 4 4 4 4 4 4 
4 4 4 4 4 4 4 4 4 
4 4 4 4 4 4 4 4 4 
4 4 4 4 4 4 4 4 4 
4 4 4 4 4 4 4 4 4 
4 4 4 4 4 4 4 4 4 
4 4 4 4 4 4 4 4 4 
4 4 4 4 4 4 4 4 4 
4 4 4 4 4 4 4 4 4 
4 4 4 4 4 4 4 4 4 
4 4 4 4 4 4 4 4 4 
4 4 4 4 4 4 4 4 4 
4 4 4 4 4 4 4 4 4 
4 4 4 4 4 4 4 4 4 
4 4 4 4 4 4 4 4 4 
4 4 4 4 4 4 4 4 4 
4 4 4 4 4 4 4 4 4 
4 4 4 4 4 4 4 4 4 
4 4 4 4 4 4 4 4 4 
4 4 4 4 4 4 4 4 4 
4 4 4 4 4 4 4 4 4 
4 4 4 4 4 4 4 4 4 
4 4 4 4 4 4 4 4 4 
4 4 4 4 4 4 4 4 4 
4 4 4 4 4 4 4 4 4 
4 4 4 4 4 4 4 4 4 
4 4 4 4 4 4 4 4 4 
4 4 4 4 4 4 4 4 4 
4 4 4 4 4 4 4 4 4 
4 4 4 4 4 4 4 4 4 
4 4 4 4 4 4 4 4 4 
4 4 4 4 4 4 4 4 4 
4 4 4 4 4 4 
charge 1 3165 double
-0.000597026 -0.000422754 -0.000324576 -0.000252512 -0.000312198 -0.000282826 -0.000339485 -0.000340434 -0.000389967 
-0.000500808 -0.000747918 -0.000616173 -0.00084535 -0.000243834 -0.000942033 -0.000215203 -0.000815521 -0.000276535 
-0.000919075 -0.000261287 -0.000264921 -0.000196783 -0.00021306 -0.000238886 -0.000370034 -0.000819298 -0.000244119 
-0.000429051 -0.000268883 -0.000487643 -0.000646939 -0.000446516 -0.000336195 -0.000369394 -0.00048149 -0.000484296 
-0.000791656 -0.00106561 -0.00142696 -0.000338756 -0.000238757 -0.000208912 -0.00020592 -0.000267856 -0.000234884 
-0.000926899 -0.0012066 -0.00116554 -0.000804277 -0.000722852 -0.000753463 -0.000900584 -0.000785259 -0.000259116 
-0.000296863 -0.000549104 -0.000365515 -0.000433521 -0.000310862 -0.00034591 -0.000644284 -0.000849869 -0.00126935 
-0.000743861 -0.00185277 -0.00191607 -0.000990506 -0.000529552 -0.000844477 -0.00117125 -0.000956141 -0.00121386 
-0.0004898 -0.00083566 -0.00119841 -0.00224121 -0.000554486 -0.000726075 -0.000313565 -0.000334352 -0.000360579 
-0.000326573 -0.00130966 -0.00110673 -0.000379624 -0.000853534 -0.000294549 -0.000310362 -0.000715254 -0.000391088 
-0.000650216 -0.000677506 -0.000238123 -0.000295885 -0.000202325 -0.00045653 -0.000911264 -0.000763911 -0.000924769 
-0.000261169 -0.000312139 -0.000265265 -0.000197669 -0.000292472 -0.000416552 -0.00033485 -0.000354816 -0.000303539 
-0.000332171 -0.000198024 -0.000203087 -0.00019801 -0.000261323 -0.000249358 -0.000472681 -0.000210327 -0.000588609 
-0.000232146 -0.000217756 -0.000231007 -0.000207089 -0.000212378 -0.000290456 -0.000200642 -0.000216253 -0.000238359 
-0.000251217 -0.00180897 -0.00145429 -0.00250419 -0.00308067 -0.000837067 -0.000847488 -0.000575536 -0.000575639 
-0.00018321 -0.00023079 -0.000393455 -0.000525517 -0.000444994 -0.000520585 -0.000673561 -0.00319072 -0.00205741 
-0.00171116 -0.00109247 -0.00286695 -0.00159497 -0.00488521 -0.00728095 -0.000809704 -0.000720968 -0.000867995 
-0.00131808 -0.00040049 -0.000386392 -0.000833578 -0.00100265 -0.000276655 -0.000256207 -0.000145192 -0.000212366 
-0.000425337 -0.00057565 -0.000341653 -0.000673118 -0.000355706 -0.00110274 -0.00077745 -0.00114708 -0.000658554 
-0.00037568 -0.00110118 -0.000511437 -0.000390192 -0.000344623 -0.000655739 -0.000448793 -0.000622546 -0.000528612 
-0.000260871 -0.00141065 -0.00104098 -0.00099823 -0.00090716 -0.000906166 -0.000624402 -0.000530616 -0.000519242 
-0.000618816 -0.000486307 -0.000465583 -0.000471442 -0.000521316 -0.000733375 -0.00138392 -0.00238285 -0.00243369 
-0.00446149 -0.00510074 -0.0149486 -0.0135504 -0.0112415 -0.0121548 -0.0224079 -0.0117948 -0.0147205 
-0.0127626 -0.0173764 -0.01144 -0.0121938 -0.0124305 -0.0185005 -0.0120719 -0.0162886 -0.0131473 
-0.0194349 -0.0178503 -0.0136398 -0.0171161 -0.01692 -0.0158614 -0.0174086 -0.0143016 -0.0167273 
-0.0161444 -0.0189378 -0.0201185 -0.0181358 -0.0193858 -0.0185206 -0.0291068 -0.0174011 -0.0202158 
-0.0243662 -0.0234421 -0.00385314 -0.00361125 -0.00586941 -0.00550459 -0.00507534 -0.0047322 -0.00790426 
-0.00541486 -0.0037044 -0.00541406 -0.00666715 -0.00564547 -0.0130884 -0.00171816 -0.00235479 -0.0035163 
-0.00259537 -0.00204039 -0.00380873 -0.00260232 -0.0035076 -0.00322494 -0.00873231 -0.00450909 -0.00548608 
-0.0097848 -0.00312865 -0.00122958 -0.00149877 -0.00178382 -0.00206092 -0.00203208 -0.00124845 -0.00229604 
-0.0266105 -0.0225208 -0.0203123 -0.0212316 -0.0203095 -0.0151477 -0.0102813 -0.0103767 -0.0137033 
-0.0183362 -0.00054197 -0.000628173 -0.000543491 -0.000706367 -0.000585331 -0.00126929 -0.000719685 -0.00160098 
-0.000690907 -0.00068173 -0.000499932 -0.000581017 -0.000825619 -0.000505642 -0.00104595 -0.000534556 -0.000589105 
-0.000473155 -0.000636228 -0.000752663 -0.000522526 -0.0703553 -0.0375816 -0.019974 -0.0244654 -0.0303669 
-0.0422527 -0.0329893 -0.0218868 -0.0328 -0.0295689 -0.00597302 -0.0051089 -0.0120905 -0.021685 
-0.00715698 -0.00779199 -0.017673 -0.0309972 -0.000578122 -0.000519018 -0.000573327 -0.000757426 -0.00160137 
-0.000674903 -0.000903099 -0.00118124 -0.000547325 -0.00091625 -0.00058164 -0.000478925 -0.000737907 -0.00145803 
-0.000750855 -0.000913441 -0.000784161 -0.000905513 -0.000629625 -0.00104574 -0.000576453 -0.00061077 -0.000502765 
-0.000730347 -0.00175075 -0.00129949 -0.00154103 -0.0016187 -0.00212067 -0.00271041 -0.00472611 -0.0106878 
-0.0142511 -0.00510907 -0.00793621 -0.00633188 -0.0084156 -0.00227984 -0.00151485 -0.00251915 -0.00121311 
-0.00122998 -0.00271855 -0.00444005 -0.00599003 -0.00628281 -0.00359208 -0.00434546 -0.00114596 -0.000275935 
-0.000682795 6.19817e-05 -0.000152415 -8.64054e-07 -4.34873e-05 -1.71673e-05 -1.56243e-05 -8.80819e-06 8.49409e-05 
3.619e-05 -5.79493e-07 6.05136e-07 -0.00284458 -0.00256684 -0.00158624 0.000216031 -0.00762909 0.000424137 
-0.00310114 -0.00137806 -0.00378862 -0.00109763 -0.00180706 -0.00282691 -0.00222602 -0.00306221 -0.00245871 
-0.00998351 0.000547046 0.000469781 0.000157209 -0.00051087 0.000530439 0.000253041 -0.00352425 -0.00589345 
-0.00262506 -0.00377265 -0.000142541 -0.000111212 -0.0067072 -0.00383118 -0.00369636 -0.0027602 -0.00518058 
-0.00635182 -0.00317617 -0.00239815 -0.00395857 -0.00387753 -0.046012 -0.0295775 -0.0329762 -0.0418667 
-0.0289599 -0.0260223 -0.0551424 -0.0305914 -0.0410392 -0.0376527 -0.0143931 -0.00467387 -0.00270455 
-0.00209344 -0.00160493 -0.00151871 -0.00123512 -0.00164087 -0.00674571 -0.00863239 -0.00658025 -0.0107147 
-0.0080316 -0.00127487 -0.00176467 -0.00202179 -0.00136631 -0.00177111 -0.00195182 -0.00311658 -0.00137578 
-0.0015413 -0.00106097 -0.00122838 -0.00130005 -0.00516336 -0.00457356 -0.00607465 -0.00493288 -0.00458892 
-0.00393017 -0.000832816 -0.000320983 -0.00065441 -0.000197876 -0.000725029 -0.000235223 -0.000330943 -0.000513209 
-0.000600072 -0.000366029 -0.000467089 -0.000406307 -0.000351204 -0.000448608 -0.000830168 -0.000584305 -0.000613453 
-0.000756499 -0.000499414 -0.000393799 -0.0003905 -0.000302743 -0.000286536 -0.0002451 -0.000247507 -0.000217155 
-0.000199429 -0.000201365 -0.000198939 -0.000328651 -0.000323926 -0.000357257 -0.00038909 -0.000212851 -0.000233786 
-0.00125876 -0.000311341 -0.000293984 -0.000265892 -0.000310231 -0.000308488 -0.000709368 -0.000790616 -0.00106551 
-0.00141322 -0.000772849 -0.000801114 -0.000785098 -0.00170723 -0.000903511 -0.00120594 -0.000926406 -0.000749063 
-0.000254455 -0.000276812 -0.00029692 -0.00020713 -0.000238273 -0.000182914 -0.000151946 -0.000225553 -0.000268031 
-0.000334953 -0.000554949 -0.000432378 -0.00034562 -0.000359244 -0.00122338 -0.000816755 -0.00100063 -0.000524015 
-0.00122573 -0.000809913 -0.000307174 -0.000509582 -0.000946541 -0.000348191 -0.000283659 -0.000261733 -0.000255753 
-0.000441539 -0.00023476 -0.000408613 -0.000363508 -0.000583193 -0.000500232 -0.000326285 -0.000936168 -0.000321922 
-0.000797428 -0.000910727 -0.000488988 -0.000282461 -0.000263419 -0.000482919 -0.000283258 -0.000263302 -0.00028051 
-0.000261432 -0.000260843 -0.000214874 -0.000240368 -0.000226317 -0.000252502 -0.00019746 -0.000200817 -0.000207101 
-0.000206804 -0.000233168 -0.000194467 -0.000213428 -0.000890446 -0.00102345 -0.000241713 -0.000215376 -0.000204763 
-0.000243546 -0.000440366 -0.000254058 -0.00164704 -0.00146363 -0.000140115 -0.000129664 -0.000842833 -0.000787897 
-0.000570823 -0.000644561 -0.00100339 -0.000883495 -0.000421812 -0.000765943 -0.000347232 -0.003135 -0.00245992 
-0.00117368 -0.0010946 -0.000179908 -0.000149671 -0.000100662 -7.88629e-05 -0.00127188 -0.000858404 -0.000728726 
-0.000737566 -0.000386113 -0.000401074 -0.000707346 -0.00104344 -0.00236941 -0.00175629 -0.000554266 -0.000636993 
-0.000831313 -0.000353524 -0.000676458 -0.00032063 -0.000399026 -0.000598071 -0.000425148 -0.000324634 -0.000253909 
-0.000311173 -0.000283027 -0.000342317 -0.000339501 -0.000401369 -0.000497884 -0.000753119 -0.000617608 -0.000846407 
-0.000244459 -0.000942399 -0.000215629 -0.000816848 -0.000276882 -0.000920391 -0.000261626 -0.000265631 -0.000197249 
-0.000214038 -0.00023938 -0.000372991 -0.00051805 -0.000245617 -0.000429576 -0.000269503 -0.000487891 -0.000643954 
-0.000551665 -0.000372891 -0.000373375 -0.000430453 -0.000486244 -0.000793551 -0.00106858 -0.00142787 -0.000336675 
-0.000241672 -0.000208198 -0.000206318 -0.000257076 -0.000235789 -0.000930187 -0.00121064 -0.00116987 -0.000809471 
-0.00073035 -0.000756484 -0.000903902 -0.000788419 -0.000260414 -0.00029561 -0.000568898 -0.000360334 -0.00043356 
-0.000307211 -0.000343236 -0.000645735 -0.000851909 -0.00127192 -0.000745689 -0.00185651 -0.00191924 -0.000992622 
-0.000530927 -0.000846193 -0.00117359 -0.000956586 -0.00122533 -0.00049011 -0.000835133 -0.00120109 -0.00228606 
-0.000556122 -0.000723576 -0.000263061 -0.000323269 -0.000428395 -0.000329483 -0.00131343 -0.000660617 -0.000403469 
-0.000854569 -0.000295406 -0.00030969 -0.000716834 -0.000388336 -0.000650901 -0.000677908 -0.000238184 -0.000296649 
-0.00020299 -0.000502873 -0.000913301 -0.000779052 -0.000926945 -0.00025959 -0.0003133 -0.000265647 -0.000197976 
-0.00029308 -0.000419878 -0.000336821 -0.000355785 -0.000304037 -0.000332672 -0.000198427 -0.000203088 -0.000198352 
-0.00026372 -0.000250148 -0.000480479 -0.000207596 -0.000588934 -0.000232721 -0.00021991 -0.000234276 -0.000207441 
-0.000213404 -0.000285412 -0.000200457 -0.000224047 -0.000242047 -0.000251764 -0.0018147 -0.00145903 -0.00249527 
-0.00332472 -0.000767173 -0.000854033 -0.000606605 -0.00071477 -0.000190129 -0.000232986 -0.00320058 -0.00206422 
-0.00171648 -0.0010962 -0.00287337 -0.00159812 -0.00431455 -0.00734457 -0.000814815 -0.000727941 -0.00105169 
-0.00127792 -0.00040902 -0.00043289 -0.000875576 -0.00150808 -0.000276093 -0.000256279 -0.00015418 -0.000215677 
4.83517e-05 -0.000155137 5.1509e-08 -4.35266e-05 -1.72909e-05 -1.59822e-05 -8.90908e-06 -1.64614e-05 1.44601e-05 
-9.9536e-06 6.12248e-07 -0.0018717 -0.000320863 -0.000574511 -0.00307802 3.49471e-05 -0.00248729 -0.000336992 
-0.00665254 -0.000138269 -0.00286485 -0.0022391 -0.00179903 -0.00124692 -0.000930582 -0.00334734 -0.00346871 
-0.00413883 -0.00405905 -0.00937326 -0.000755058 0.000660178 0.000393972 -0.00110149 0.00016314 4.13098e-05 
0.00245906 0.00219597 -0.000522768 0.000958 8.43725e-06 0.000102781 0.0044798 0.0046674 0.00370998 
0.00111554 0.00198209 0.00476346 0.0013104 0.00186119 -0.00167483 -0.00055593 -0.0147255 -0.00454816 
-0.00269202 -0.00209916 -0.00160596 -0.00152374 -0.00123207 -0.0016437 -0.00473545 -0.00867307 -0.0062123 
-0.0109017 -0.0080813 -0.00126854 -0.00176718 -0.00202343 -0.00136883 -0.00177378 -0.00195447 -0.00311661 
-0.00137767 -0.00154347 -0.00106951 -0.00123785 -0.00129688 -0.000278173 -0.00241382 -0.00549815 -0.00403758 
0.00364349 -0.00124708 -0.0235988 -0.00515772 -0.00445843 -0.00242143 -0.00216379 -0.00153786 -0.00139778 
-0.0010421 -0.00100307 -0.0008887 -0.000787663 -0.000726908 -0.000686521 -0.000598607 -0.00050833 -0.000500332 
-0.000466992 -0.000472684 -0.000522112 -0.000734272 -0.0290464 -0.0168559 -0.0207423 -0.0224794 -0.0245489 
-0.0186587 -0.0137568 -0.00670793 -0.0142315 -0.0132977 -0.00385119 -0.00360943 -0.00550204 -0.00591026 
-0.00507152 -0.00473446 -0.00512365 -0.00541061 -0.00370644 -0.00541041 -0.00350417 -0.00564103 -0.00322253 
-0.0087174 -0.00450463 -0.00547984 -0.00977331 -0.00311605 -0.00188518 -0.00231243 -0.00345067 -0.00271058 
-0.00208158 -0.00360018 -0.00255445 -0.00256372 -0.00153484 -0.0041683 -0.00207819 -0.00467553 -0.00123184 
-0.00150065 -0.00203425 -0.00124983 -0.00229496 -0.0153422 -0.00798678 -0.015392 -0.0187398 -0.0212774 
-0.0138565 -0.0201521 -0.0183066 -0.0137921 -0.0184265 -0.0217621 -0.00915663 -0.0102708 -0.0059696 
-0.0130775 -0.0126439 -0.0122852 -0.0222679 -0.0127431 -0.00830863 -0.013822 -0.0126401 -0.0168607 
-0.0172036 -0.00716431 -0.00761697 -0.0178826 -0.0311946 -0.0293698 -0.0444744 -0.0258385 -0.0537114 
-0.0303072 -0.032384 -0.0414279 -0.0287175 -0.0372805 -0.0405372 -0.00175213 -0.00130668 -0.00152133 
-0.00160708 -0.00212319 -0.00269175 -0.00458429 -0.0108475 -0.0145149 -0.00385075 -0.0079798 -0.00580317 
-0.00857836 -0.00228319 -0.00151737 -0.00252154 -0.00124103 -0.00129793 -0.000538323 -0.00206244 -0.00516784 
-0.00395409 0.0030983 7.10375e-05 -0.000833846 -0.000321066 -0.000655706 -0.000197624 -0.000724604 -0.000235556 
-0.000331626 -0.000515352 -0.000629554 -0.000370493 -0.000499651 -0.000358725 -0.00053068 -0.000494774 -0.000841279 
-0.000584396 -0.000614673 -0.000758537 -0.00049718 -0.000397428 -0.000430407 -0.000306027 -0.0002896 -0.000246204 
-0.000244238 -0.000216264 -0.000200239 -0.000202046 -0.000198916 -0.000329471 -0.000324223 -0.000358779 -0.000389919 
-0.000214333 -0.000232405 -0.00125927 -0.000311219 -0.000293883 -0.000265987 -0.000314636 -0.000313478 -0.000710568 
-0.000791894 -0.00106783 -0.00141537 -0.000777174 -0.000805194 -0.00078735 -0.0017107 -0.000905475 -0.00120836 
-0.000928529 -0.000753117 -0.00025432 -0.000278782 -0.000300026 -0.000201986 -0.000236348 -0.000174754 -0.000136205 
-0.000222375 -0.000268787 -0.000339216 -0.000552054 -0.000443575 -0.000355995 -0.000364178 -0.00055548 -0.000819805 
-0.00113117 -0.00057258 -0.00132729 -0.00089106 -0.00037133 -0.000435607 -0.000947027 -0.000356253 -0.00028463 