# vtk DataFile Version 5.1
vtk output
ASCII
DATASET STRUCTURED_POINTS
DIMENSIONS 10 10 20
SPACING 0.1 0.1 0.1
ORIGIN 3.25 -0.45 0.55
POINT_DATA 2000
FIELD FieldData 1
potential 1 2000 double
0.0031769048105 0.0032913233027 0.0035941858411 0.003738689082 0.0038916779032 0.0040537517557 0.0042255746599 0.0044078524095 0.0046012624477 
0.0048064889625 0.0031139934748 0.0032245440046 0.0035118978729 0.0036506439209 0.0037976362325 0.0039533509698 0.0041183471564 0.004293209309 
0.0044785163645 0.0046748259986 0.0030504249234 0.0031569537163 0.0034282704827 0.0035612568641 0.0037022754798 0.0038516949729 0.004009953188 
0.0041775135035 0.0043548369344 0.0045423973135 0.002989109186 0.0030915522698 0.0033462354733 0.0034736518022 0.0036089352156 0.0037523330903 
0.0039041674973 0.004064773784 0.0042345087199 0.0044137505048 0.002931892395 0.0030302641969 0.0032675300269 0.0033897123906 0.0035196382855 
0.00365745218 0.0038033365007 0.0039575261008 0.0041202561041 0.0042918044044 0.0028796236154 0.0029739711238 0.0031927378523 0.0033101097727 
0.0034351584825 0.0035679119259 0.0037084399378 0.0038568491661 0.0040132683177 0.0041778659462 0.0028185407782 0.002912144924 0.0031155980135 
0.003225612412 0.0033420812973 0.0034654124269 0.0035959813347 0.0037341397169 0.0038802024282 0.0040344854671 0.002770564451 0.0028617360189 
0.0030566661696 0.0031630782731 0.0032754116889 0.0033940877504 0.0035194707277 0.0036518999696 0.0037916591912 0.0039390385785 0.0027252448413 
0.0028141101663 0.0030000338383 0.003103020631 0.0032114563939 0.0033257512004 0.0034462772703 0.0035733600776 0.0037072439592 0.003848181665 
0.0026799727587 0.002766575281 0.0029433003921 0.0030429594254 0.0031476309146 0.0032577303826 0.0033736171579 0.0034955924805 0.0036238710437 
0.00375866708 0.0037106026622 0.0038442040491 0.0041832325454 0.0043492957678 0.0045253161762 0.0047119400702 0.0049098617679 0.0051198349437 
0.0053426527771 0.005579158807 0.0036417891818 0.0037710624613 0.0040944741259 0.0042539655568 0.0044231483124 0.0046025468096 0.0047927498351 
0.0049943809611 0.005208111181 0.0054346598544 0.0035725613909 0.0036973793013 0.0040046574991 0.0041576034875 0.004320010688 0.0044922835278 
0.0046748921743 0.0048683396257 0.0050731755957 0.0052899929316 0.0035046708965 0.0036249607198 0.0039154472037 0.0040620085559 0.004217842381 
0.004383236418 0.004558533176 0.0047441175974 0.0049404160219 0.0051479086301 0.0034394211086 0.0035551670829 0.0038279748563 0.0039684286426 
0.0041180119699 0.0042768995057 0.0044453035581 0.0046234841365 0.0048117553302 0.0050104614745 0.003377538726 0.0034887448554 0.0037426710503 
0.0038773933102 0.0040211474019 0.0041739904113 0.0043360159188 0.0045073607133 0.0046882040767 0.0048787815997 0.0033089779097 0.0034191720891 
0.0036456569938 0.0037743967547 0.0039104490777 0.0040542626784 0.0042062624191 0.0043668691751 0.004536480006 0.0047154976539 0.0032484174133 
0.0033555240026 0.0035722849638 0.0036966808166 0.003827803496 0.0039660953443 0.0041119654235 0.0042658024467 0.0044279807938 0.0045988739535 
0.0031897485076 0.0032938768276 0.0035004742522 0.0036206732582 0.0037470718646 0.0038800921708 0.0040201266832 0.0041675481761 0.004322695182 
0.0044859096117 0.0031313916152 0.0032325920426 0.0034288989655 0.0035449897017 0.0036667988733 0.0037947274626 0.0039291530599 0.0040704177379 
0.0042188336624 0.004374706172 0.0042396747274 0.0043920416336 0.0047657906126 0.0049529450791 0.0051514317374 0.0053619486442 0.005585242014 
0.0058221263066 0.0060734877613 0.006340279944 0.0041633814179 0.0043109062601 0.0046688881519 0.0048486362693 0.005039422967 0.0052418256655 
0.0054564719438 0.0056840455649 0.0059252962893 0.0061810475674 0.0040869728477 0.0042295561042 0.0045712478112 0.0047436348624 0.0049268120917 
0.0051212318645 0.0053273939069 0.0055458576367 0.0057772386665 0.0060222236231 0.0040115092432 0.0041490915526 0.0044737826676 0.0046389613909 
0.0048147272436 0.0050014021943 0.0051993572424 0.0054090243151 0.0056308943893 0.005865513578 0.0039378694449 0.0040704198635 0.0043771489288 
0.0045353709441 0.0047040203022 0.00488329063 0.0050734300348 0.0052747312358 0.0054875576405 0.0057123296193 0.0038666093286 0.0039941142705 
0.0042815770976 0.004433188898 0.0045951026117 0.0047673996617 0.0049501960743 0.0051436594329 0.0053480117359 0.0055635388305 0.0037913019214 
0.003917592269 0.0041663039012 0.0043131259979 0.0044680638701 0.0046316158484 0.0048042714455 0.0049864966474 0.0051787654668 0.0053815609516 
0.0037194944782 0.0038420873407 0.0040799719225 0.0042217586593 0.0043710415705 0.0045282782469 0.0046939381652 0.0048684605446 0.0050522897975 
0.0052458627996 0.003649234256 0.0037682356002 0.0039948993748 0.0041317916242 0.0042755953185 0.0044267565361 0.0045857126906 0.004752877055 
0.0049286537141 0.0051134523623 0.0035795666838 0.0036950272577 0.0039104131263 0.0040425039494 0.0041809770436 0.0043262470257 0.0044787372912 
0.0046388196771 0.0048068760811 0.0049832751208 0.0047621753705 0.0049327827481 0.0053393416592 0.0055470050093 0.0057672806223 0.0060009124492 
0.0062487057999 0.0065115365902 0.0067903583811 0.0070862220644 0.0046776904163 0.0048429242158 0.005233531578 0.0054329702835 0.0056447081354 
0.0058693632807 0.0061076013499 0.0063601708157 0.0066278853576 0.0069116495173 0.004593324618 0.0047531195858 0.005127233526 0.0053185088822 
0.0055218187259 0.0057376413032 0.0059665201302 0.0062090578622 0.0064659343972 0.0067379067062 0.0045097474227 0.0046640537325 0.0050209159749 
0.0052041868848 0.0053992611714 0.0056064956318 0.0058262960716 0.0060591278772 0.0063055350132 0.0065661208881 0.0044275537674 0.0045763336647 
0.0049149172499 0.0050904217236 0.0052775469243 0.0054765198774 0.0056876168979 0.0059111670072 0.0061475625039 0.0063972766745 0.004347157106 
0.0044903955577 0.0048093160093 0.0049773682965 0.0051569122927 0.0053480382347 0.0055508916499 0.0057656568618 0.0059925939245 0.0062320222228 
0.0042656238554 0.004407502011 0.0046775658076 0.004841800814 0.0050149139042 0.0051974462036 0.0053899342495 0.0055929126842 0.0058069155166 
0.006032484738 0.0041835295873 0.0043211369284 0.0045793454064 0.0047379185804 0.0049046976394 0.005080186717 0.0052648950259 0.0054593234482 
0.0056639671617 0.0058793249835 0.0041028258706 0.0042362630105 0.0044822892295 0.0046353256996 0.0047959476468 0.0049646266569 0.0051418435618 
0.0053280637789 0.0055237425128 0.0057293398232 0.0040229344814 0.0041522691635 0.0043861119983 0.0045337173465 0.0046883323137 0.0048504034618 
0.0050203774762 0.0051986870917 0.0053857480649 0.0055819904828 0.0052766456669 0.0054648819193 0.0059019411852 0.0061294461942 0.0063707522412 
0.0066266349214 0.0068979494192 0.0071856267837 0.0074906865871 0.0078142476729 0.0051837149825 0.0053660602328 0.0057869400676 0.0060054492943 
0.0062374230617 0.006483504761 0.0067444156482 0.0070209340215 0.0073139391157 0.0076243901633 0.0050910767419 0.0052674825103 0.0056716193451 
0.0058812047125 0.006103965265 0.0063404141441 0.0065911240589 0.0068567375305 0.0071379816742 0.0074356657659 0.0049991755101 0.0051696023149 
0.0055561972822 0.005757015225 0.0059707619579 0.0061978200621 0.0064386186456 0.006693666402 0.0069635320934 0.0072488736524 0.0049084302827 
0.0050728484647 0.0054408039022 0.0056330880631 0.0058381023925 0.0060560955462 0.0062873594531 0.0065322536579 0.0067912049705 0.007064710617 
0.004819159623 0.0049775530093 0.0053254113529 0.0055094684961 0.0057061091266 0.0059154395147 0.0061376197613 0.0063728617916 0.0066214424252 
0.006883710879 0.0047317520594 0.0048886897419 0.0051791581782 0.0053601110647 0.0055506513646 0.0057513654169 0.0059628392217 0.0061856567348 
0.0064204130805 0.0066677025794 0.0046400683924 0.0047921923578 0.0050698560796 0.005244566329 0.0054281471445 0.0056211549493 0.0058241322191 
0.0060376271513 0.0062621885502 0.0064983636757 0.0045497118849 0.0046971235265 0.0049617157868 0.0051303082507 0.0053071080251 0.0054926366226 
0.0056874027802 0.0058919180688 0.0061066867129 0.0063322138205 0.0044603352855 0.0046031149901 0.0048546936262 0.0050172760861 0.0051874541057 
0.0053657152547 0.0055525330372 0.0057483810998 0.0059537212346 0.006169022874 0.0057819311727 0.0059871318897 0.0064520248963 0.006698656486 
0.0069601623315 0.0072373566998 0.0075311364576 0.0078424730869 0.0081724365736 0.0085222027917 0.0056805664291 0.0058793710943 0.0063278152189 
0.0065647336874 0.0068161727856 0.007082810547 0.0073653928782 0.0076647476813 0.0079817848843 0.0083175196903 0.0055796157455 0.0057719898262 
0.0062033924783 0.0064306792382 0.0066721793668 0.0069284288534 0.0072000355857 0.0074876757239 0.0077921025347 0.0081141637358 0.0054793982309 
0.0056653123575 0.006078827055 0.0062966364897 0.0065283997421 0.0067745141076 0.0070354430897 0.0073117087904 0.007603916664 0.0079127487522 
0.0053802276215 0.005559665723 0.0059541335773 0.0061626930026 0.0063849995164 0.0066213062539 0.0068719308884 0.0071372495421 0.0074177093227 
0.0077138332148 0.0052823710925 0.0054553204571 0.0058292043582 0.0060288218652 0.0062420219485 0.0064689242245 0.006709694682 0.0069645652079 
0.0072338275503 0.0075178439116 0.0051893282929 0.0053607834542 0.0056706298842 0.005867567619 0.0060747536595 0.0062928175035 0.0065223800078 
0.006764080128 0.0070185541945 0.0072864552292 0.005088593765 0.0052547181098 0.0055508862947 0.0057410480528 0.0059407067531 0.0061504527383 
0.0063708648723 0.0066025359668 0.0068460581813 0.0071020291798 0.0049891703979 0.0051500705557 0.0054323453538 0.0056158588372 0.0058081673482 
0.006009823825 0.0062213730641 0.0064433615545 0.0066763372517 0.0069208470331 0.0048908550468 0.0050466229985 0.005315120177 0.0054920948268 
0.0056772154221 0.0058710007628 0.0060739567372 0.0062865909916 0.0065094027809 0.0067428983767 0.0062770912181 0.0064985435082 0.0069883100841 
0.0072533073505 0.0075341385639 0.0078316555543 0.0081467789694 0.0084805181291 0.0088339787946 0.0092083761385 0.0061674558472 0.006382026615 
0.0068550214479 0.0071096533604 0.007379750802 0.0076660239106 0.0079692359383 0.0082902482472 0.0086300011377 0.0089895387092 0.0060583233035 
0.0062659897843 0.0067215787186 0.0069659286828 0.0072254280446 0.0075006305548 0.0077921635977 0.0081007246851 0.0084270947396 0.0087721497703 
0.0059499406954 0.0061506883886 0.0065879771599 0.0068221999298 0.0070713027546 0.0073356928394 0.0076158491517 0.0079123124368 0.0082257031986 
0.0085567303837 0.0058425657592 0.0060363867964 0.0064541522179 0.0066784783866 0.0069174618282 0.007171368697 0.0074405253377 0.0077253210363 
0.0080262167301 0.0083437502913 0.0057364391849 0.005923331536 0.0063199541809 0.0065346853243 0.0067639059925 0.0070077324274 0.0072663426467 
0.0075399757292 0.0078289331295 0.0081335835772 0.0056379160869 0.0058233258177 0.0061514483043 0.006363611368 0.0065866266464 0.0068211614027 
0.0070678830081 0.0073274615194 0.0076005783646 0.0078879220838 0.0055285820029 0.0057081638752 0.0060218032794 0.00622670843 0.0064416791242 
0.0066673399204 0.0069043153239 0.0071532251789 0.0074147001247 0.0076893792038 0.0054205611776 0.0055944364977 0.0058934279893 0.0060911962784 
0.0062982986004 0.006515318177 0.006742837529 0.0069814292344 0.0072316777671 0.0074941669512 0.0053137456351 0.005482016584 0.0057665297692 
0.0059572723109 0.0061566734226 0.0063652722659 0.0065836107507 0.0068122230202 0.0070516416715 0.0073023989188 0.0067613341106 0.0069982873925 
0.0075097211301 0.0077922927004 0.0080915491464 0.0084083534917 0.0087436583094 0.0090984918852 0.0094739892838 0.009871384873 0.0066436879302 
0.0068733004986 0.007367562353 0.0076391883894 0.0079271178035 0.0082320663489 0.0085548318332 0.0088962820354 0.0092573820754 0.0096391945075 
0.0065266048262 0.0067488656998 0.0072252828562 0.0074860467667 0.0077627828204 0.0080560621525 0.008366520213 0.008694871039 0.0090419109494 
0.0094085271479 0.0064103029486 0.0066252074398 0.0070828309368 0.0073328872048 0.0075986356821 0.0078804997669 0.0081789595446 0.0084945712159 
0.0088279637357 0.0091798528024 0.0062950120623 0.0065025627004 0.0069400981012 0.0071796769042 0.007434718002 0.0077054963346 0.0079923418063 
0.0082956493017 0.0086158859135 0.008953593642 0.0061809526947 0.0063811615714 0.0067969121014 0.0070263111135 0.0072709969407 0.0075310979103 
0.0078067890575 0.0080983068795 0.0084059530693 0.0087301035004 0.0060770549462 0.0062758305944 0.0066210681788 0.00684766331 0.0070856602723 
0.0073357595605 0.007598664021 0.0078750774759 0.0081657135239 0.0084713016535 0.0059595163441 0.0061520011798 0.006482007362 0.0067009065409 
0.0069303930296 0.0071711186627 0.0074237390506 0.0076889120382 0.0079672915399 0.0082595545793 0.0058433039285 0.0060296238481 0.0063442945285 
0.0065556137676 0.0067767621257 0.0070083458931 0.0072509759427 0.0075052598534 0.0077718047782 0.008051222135 0.0057283721306 0.0059086399342 
0.0062081939218 0.0064120468192 0.0066250243512 0.0068476917704 0.0070806136264 0.0073243509989 0.0075794599548 0.0078465039648 0.0072339832233 
0.0074856588591 0.0080153578004 0.0083146981386 0.0086314468094 0.0089664854138 0.0093207758983 0.0096953674604 0.010091399073 0.010510128414 
0.0071086424949 0.0073525472185 0.0078645858783 0.0081524719961 0.0084573803457 0.0087800389333 0.0091212455848 0.0094818891531 0.0098629378211 
0.010265465531 0.0069839139479 0.0072200457521 0.007713706495 0.0079902227011 0.0082834219671 0.0085938816165 0.0089222441817 0.0092692295836 
0.0096356381101 0.010022363484 0.0068600025752 0.0070883669914 0.0075626403441 0.0078279384848 0.0081096369203 0.0084081568421 0.0087239863799 
0.0090576787558 0.0094098695298 0.009781270874 0.0067371267751 0.006957736381 0.0074112592634 0.0076655653935 0.0079360400225 0.0082229551902 
0.0085266381444 0.0088474828326 0.009185950664 0.0095425853446 0.0066155004043 0.0068283789685 0.0072593676444 0.0075029850601 0.0077625934717 
0.0080383093993 0.0083303080582 0.0086388222389 0.0089641459019 0.0093066461159 0.0065062847025 0.0067178251383 0.0070789511915 0.0073191602557 
0.0075712634128 0.0078359900513 0.0081140717744 0.0084062428118 0.0087132450322 0.0090358335561 0.0063809076197 0.0065857217884 0.0069309347174 
0.0071630517363 0.0074062239327 0.0076611330721 0.0079284567444 0.0082088776459 0.0085030828763 0.0088117643642 0.0062568742629 0.0064550931106 
0.0067843407772 0.0070084808872 0.0072428949217 0.007488214426 0.0077450698095 0.0080140929811 0.008295920149 0.008591178025 0.0061341850409 
0.0063259266915 0.0066394762386 0.0068557534979 0.0070815751181 0.0073175306607 0.0075642039697 0.0078221781015 0.0080920311713 0.0083743402469 
0.0076944467212 0.0079600484229 0.0085044740401 0.0088197629394 0.009153065227 0.0095052692626 0.009877337718 0.010270323293 0.010685375912 
0.011123746591 0.0075617711499 0.0078192004352 0.0083453683148 0.0086487741068 0.0089698028965 0.0093091818668 0.0096677171522 0.010046289304 
0.010445874853 0.010867539931 0.0074297493692 0.0076790125378 0.0081861556134 0.0084777565502 0.0087866408662 0.0091133815897 0.0094586192393 
0.0098230716577 0.010207538433 0.010612904751 0.0072985814249 0.0075396950739 0.0080267416545 0.0083066897915 0.0086036340075 0.008917993345 
0.0092502495199 0.0096009529549 0.0099707267718 0.010360279107 0.0071684824983 0.0074014700673 0.0078669824139 0.0081355016866 0.0084207871262 
0.0087231011715 0.0090427649325 0.0093801640398 0.0097357521764 0.010110055764 0.0070396721923 0.0072645669089 0.0077066752203 0.007964067074 
0.0082380479724 0.0085287275449 0.0088362665438 0.0091608855507 0.0095028695022 0.0098625686182 0.0069251620704 0.0071488548633 0.0075246028337 
0.0077775786079 0.0080428877566 0.0083212791539 0.0086135096102 0.0089203362966 0.00924252582 0.0095808505994 0.0067923040991 0.0070088565141 
0.0073680667724 0.0076126058715 0.0078686135649 0.008136795875 0.0084178519107 0.0087124838494 0.0090213996974 0.0093453117145 0.0066608063357 
0.0068703572827 0.0072130286837 0.0074492379103 0.0076961142716 0.0079543125337 0.0082244812001 0.0085072703456 0.0088033295357 0.009113316317 
0.0065307017501 0.0067333793656 0.0070598199264 0.0072878139886 0.0075257246331 0.0077741615374 0.008033726977 0.0083050191426 0.0085886370216 
0.0088851713511 0.0081422196449 0.0084209317854 0.0089764580969 0.0093068794838 0.0096557947227 0.010024088551 0.010412722005 0.010822742628 
0.011255289965 0.011711610346 0.008002596152 0.0082727664996 0.0088093107359 0.0091274964469 0.00946378598 0.0098189017467 0.010193641338 
0.010588883517 0.011005587044 0.011444811736 0.0078636596288 0.0081253035988 0.008642046553 0.0089480711159 0.0092718606151 0.0096139820496 
0.0099750668522 0.010355822318 0.010757033037 0.011179571511 0.0077256176322 0.0079787598345 0.0084745622587 0.0087685742351 0.0090800687183 
0.0094094525943 0.0097571969431 0.010123838277 0.010509986622 0.010916331369 0.0075886879478 0.0078333596432 0.0083067044531 0.0085889285251 
0.0088884050861 0.0092053881111 0.0095401849228 0.0098931626753 0.010264758145 0.010655480875 0.00745309353 0.007689343435 0.0081382662145 
0.0084090007476 0.008696815962 0.0090018093834 0.0093241267441 0.0096639707032 0.010021603438 0.010397357449 0.007333278406 0.0075684969786 
0.0079575650046 0.0082224484999 0.0085000427436 0.0087911193765 0.00909645124 0.0094168146716 0.0097529908126 0.010105770886 0.0071932891007 
0.0074209825054 0.0077929402092 0.0080490845784 0.0083170618234 0.0085975884348 0.0088913861454 0.009199174138 0.0095216725016 0.0098596072642 
0.0070546740734 0.0072749864663 0.0076298795667 0.0078773901376 0.0081359078969 0.0084061076741 0.0086886559151 0.008984215485 0.0092934498713 
0.0096170250342 0.0069174913961 0.0071305593625 0.0074687414206 0.0077077231864 0.0079569488719 0.0082170424528 0.0084886218232 0.0087722975959 
0.0090686790502 0.009378371428 0.0085768584645 0.0088678610061 0.0094308364528 0.0097755757028 0.010139168552 0.010522487101 0.01092648039 
0.011352181569 0.01180071451 0.012273300607 0.0084306915051 0.0087128164769 0.0092559393338 0.0095881724827 0.0099388705906 0.010308745968 
0.010698580802 0.011109236348 0.011541654188 0.011996868567 0.008285246462 0.0085585135845 0.0090809071279 0.0094007024052 0.0097386299894 
0.010095241426 0.01047115435 0.010867056251 0.011283710461 0.011721967148 0.0081407367013 0.0084051785051 0.0089056325933 0.0092131354641 
0.009538492819 0.0098820979208 0.010244402684 0.010625924536 0.011027249224 0.011449040026 0.0079973846202 0.0082530447811 0.0087299586119 
0.0090253888088 0.0093384539946 0.0096693875812 0.010018476988 0.010386070888 0.010772579481 0.011178484322 0.0078554214496 0.0081023575072 
0.0085536738409 0.0088373276803 0.0091384539997 0.009457128169 0.0097934741903 0.010147671849 0.010519959704 0.010910636058 0.0077302596641 
0.0079763698558 0.0083774361262 0.0086533541617 0.0089423036674 0.0092450725035 0.009562445465 0.0098952148972 0.010244172074 0.010610116074 
0.0075834877151 0.0078217144307 0.0082051430964 0.0084720667613 0.0087511270476 0.0090430608416 0.0093486004003 0.0096684752108 0.010003417111 
0.010354159183 0.0074380995257 0.0076685927081 0.0080344769631 0.0082925027861 0.0085618302011 0.0088431441777 0.0091371250431 0.0094444469001 
0.0097657820747 0.0101018037 0.0072941770416 0.0075170784259 0.0078658147096 0.0081150440913 0.0083747977107 0.0086457104025 0.0089284094158 
0.0092235191885 0.0095316541265 0.0098534287145 0.0089979831149 0.0093004509046 0.0098672571257 0.010225519332 0.010602868239 0.011000159894 
0.0114183247 0.011858371438 0.012321398126 0.012808596047 0.0088456980948 0.0091389801664 0.0096848976937 0.010030461961 0.010394733923 
0.010778406085 0.011182241718 0.011607075406 0.012053823397 0.012523487775 0.0086941642451 0.0089782916376 0.0095023788372 0.009835309267 
0.010186623127 0.010556852368 0.010946591244 0.011356503398 0.011787323654 0.012239867095 0.0085436072611 0.0088186187201 0.0093195931099 
0.0096400290317 0.0099785823334 0.010335622369 0.010711577892 0.011106939938 0.011522266668 0.011958186397 0.0083942559787 0.0086602063735 
0.0091363795654 0.0094445374819 0.0097706039192 0.010114788401 0.010477353561 0.010858619382 0.011258967621 0.011678843718 0.0082463545497 
0.0085033081256 0.0089525212332 0.0092486965156 0.0095626293491 0.009894369092 0.010244015294 0.010611718172 0.010997684682 0.011402180918 
0.008115766839 0.0083721309971 0.0087838657415 0.0090699368277 0.0093693039454 0.009682766146 0.010011120108 0.010355161664 0.010715692132 
0.011093513003 0.0079625608979 0.0082107098097 0.0086043198013 0.0088811845525 0.0091704418942 0.009472835867 0.0097891093075 0.010119999733 
0.010466244105 0.010828579045 0.0078107441362 0.0080508320003 0.0084264586794 0.0086942070308 0.0089735004239 0.0092650351292 0.0095694963461 
0.0098875678954 0.010219926269 0.010567245982 0.0076604191401 0.0078925955614 0.0082506756782 0.0085094017916 0.0087788853608 0.0090597702669 
0.0093526929169 0.0096582793579 0.0099771526122 0.01030992893 0.0094108492767 0.0097274002738 0.010310704723 0.010679070295 0.01106555083 
0.011471373642 0.011897808736 0.012346175677 0.012817850701 0.013314271625 0.0092526049456 0.0095602348047 0.010121285972 0.010478566808 
0.010852903552 0.011245450762 0.011657401991 0.012089994795 0.012544514871 0.013022304127 0.009094458097 0.0093931159565 0.0099321461542 
0.010278517782 0.010640900037 0.011020378728 0.011418070055 0.011835130045 0.012272758143 0.012732198927 0.0089365535763 0.0092261834588 
0.0097436118785 0.010079290385 0.010429954011 0.010796615254 0.011180317314 0.011582135315 0.012003181296 0.01244460871 0.0087790513515 
0.0090595975088 0.0095559922782 0.0098812408861 0.01022046326 0.01057460407 0.010944633026 0.011331546159 0.011736370578 0.012160169216 
0.0086221313825 0.0088935362544 0.0093695840838 0.0096847058179 0.010012810331 0.010354774202 0.010711492436 0.011083884533 0.011472895851 
0.011879499409 0.0084860466821 0.0087502151849 0.0091544343238 0.009452909871 0.0097653986197 0.01009246166 0.010434675269 0.010792630892 
0.011166939792 0.011558229075 0.0083267467519 0.0085828145558 0.0089727947136 0.0092606494679 0.0095616717643 0.0098763842171 0.010205320581 
0.010549030303 0.010908075119 0.011283032103 0.008169192642 0.0084172947016 0.0087927477489 0.0090702697376 0.00936015298 0.0096628822217 
0.0099789541889 0.010308874045 0.010653158801 0.011012339491 0.0080133941249 0.0082536572017 0.0086145229576 0.0088819995566 0.0091610688128 
0.0094521818625 0.0097557961965 0.010072377749 0.010402401907 0.010746355189 0.0098048647655 0.01013154828 0.010715413368 0.01109448611 
0.011491800873 0.011908555575 0.012345991007 0.01280539252 0.013288096918 0.013795497113 0.0096413327466 0.0099588919717 0.01052003762 
0.010887820498 0.01127281174 0.011676138331 0.012098963457 0.012542489187 0.013007963113 0.013496681829 0.0094778930425 0.009786279267 
0.010324863844 0.010681523914 0.011054376581 0.011444476491 0.011852910199 0.012280798079 0.012729299762 0.013199617794 0.0093146981893 
0.0096138624763 0.010130203243 0.010475954108 0.01083689676 0.011214016909 0.011608325102 0.012020862385 0.012452700771 0.012904950698 
0.0091519178048 0.0094418097914 0.0099363532706 0.010271449206 0.010620756722 0.010985190669 0.011365688365 0.011763209501 0.012178743514 
0.012613309185 0.0089897350476 0.0092703054353 0.0097435924974 0.010068334361 0.010406326134 0.010758413713 0.011125460617 0.011508349676 
0.011907986903 0.012325302826 0.0088466252641 0.0091194677637 0.0095310652388 0.0098382999707 0.010159664922 0.010495723155 0.010847050546 
0.011214235909 0.011597885681 0.011998619524 0.0086817914051 0.0089462891258 0.0093432325813 0.0096396910602 0.0099494351291 0.010272989527 
0.010610887422 0.010963675747 0.011331911698 0.011716164759 0.0085186888702 0.0087749784742 0.0091570392299 0.0094429978326 0.0097414369369 
0.010052842319 0.010377710951 0.010716545078 0.011069857913 0.011438172749 0.0083573444671 0.008605556292 0.0089727267964 0.0092484626646 
0.0095359103725 0.0098355236829 0.010147758499 0.010473078948 0.010811956102 0.011164868314 0.010184348159 0.010520338568 0.011103173998 
0.011491667577 0.011898478356 0.012324771992 0.01277175181 0.013240663844 0.013732798208 0.014249496845 0.010015907449 0.01034259743 
0.010902480033 0.011279500931 0.011673836561 0.012086580618 0.012518858492 0.012971832842 0.013446706166 0.013944723949 0.0098475499447 
0.010164892165 0.010701908606 0.011067618726 0.011449656573 0.01184904496 0.012266834083 0.012704104152 0.013161969867 0.013641583956 
0.0096794338285 0.009987386532 0.010501759678 0.010856362578 0.011226326228 0.011612602249 0.012016164312 0.012438012142 0.012879175973 
0.013340715857 0.0095117364799 0.0098102550897 0.010302312833 0.010646059558 0.011004218078 0.011377670064 0.01176731494 0.012174074357 
0.012598891611 0.013042738515 0.0093446481606 0.0096336911999 0.010103832598 0.010437018488 0.010783687347 0.011144651429 0.011520736936 
0.011912787517 0.012321665109 0.012748252293 0.0091947723025 0.0094756479237 0.0098927480404 0.010207914846 0.010537278198 0.010881400263 
0.011240852753 0.011616219148 0.012008094622 0.012417090665 0.0090247891105 0.0092970986704 0.0096992639265 0.010003534493 0.010321161257 
0.010652667314 0.010998583722 0.011359448893 0.011735814845 0.01212823978 0.0088565154796 0.0091203978696 0.0095074542564 0.0098010924712 
0.010107285227 0.010426517768 0.010759281828 0.011106076831 0.011467407901 0.011843787644 0.0086899934499 0.0089455818686 0.0093175693325 
0.0096008413313 0.0098959035497 0.010203205257 0.010523202963 0.010856354479 0.011203124034 0.011563980902 0.010549132485 0.010893615899 
0.011473947361 0.011870612583 0.012285621618 0.012720104442 0.013175221157 0.01365217078 0.014152192762 0.014676571665 0.010376166085 
0.010711195945 0.011268554063 0.011653589007 0.0120559975 0.012476837056 0.012917193703 0.013378183243 0.013860956359 0.014366704474 
0.01020326463 0.010528802891 0.011063206987 0.011436762009 0.011826739729 0.012234125493 0.012659929395 0.013105184786 0.013570958219 
0.01405834665 0.010030598453 0.010346604207 0.01085818805 0.011220461816 0.011598225703 0.011992394037 0.012403900276 0.012833700307 
0.013282773766 0.013752126885 0.0098583496196 0.010164785427 0.0106537629 0.011004999756 0.011370813416 0.01175204783 0.012149562389 
0.012564233996 0.012996959575 0.013448657054 0.0096867145626 0.0099835446822 0.010450179346 0.010790669016 0.01114484249 0.011513474335 
0.011897350767 0.012297271446 0.012714051524 0.013148522787 0.0095303534511 0.0098186270664 0.010239391347 0.010561677226 0.010898177851 
0.011249450174 0.011616059932 0.011998581704 0.012397598681 0.012813706581 0.0093556013358 0.0096351127799 0.010040782611 0.010352086323 
0.010676771039 0.011015355626 0.011368365038 0.011736329633 0.012119790206 0.012519291348 0.0091825298758 0.0094534189345 0.0098438724633 
0.010144444522 0.010457602024 0.010783826965 0.011123604517 0.01147742734 0.011845789681 0.012229191802 0.0090111966099 0.0092735985069 
0.0096489201136 0.0099390141436 0.010240935415 0.010555129691 0.010882048544 0.011222142171 0.011575865241 0.011943674887 0.010899104835 
0.011251277334 0.011827735016 0.012231367541 0.012653324364 0.013094693295 0.013556590967 0.014040164768 0.014546596932 0.01507710969 
0.010721991386 0.01106458879 0.011618244672 0.012010107619 0.012419363359 0.012847026992 0.013294139423 0.013761765663 0.014251002883 
0.014762980436 0.010544922059 0.010877907427 0.011408721018 0.011788959234 0.012185675944 0.012599815308 0.013032341413 0.013484240617 
0.013956524266 0.01445023046 0.010368075855 0.010691412703 0.011199432457 0.011568236565 0.01195262385 0.012353468087 0.01277165835 
0.013208101913 0.013663726417 0.014139481231 0.010191640502 0.010505296796 0.010990628092 0.011348234932 0.011720549802 0.012108376544 
0.012512530523 0.012933841205 0.013373153733 0.013831330367 0.010015819507 0.01031976509 0.010782538483 0.011129231656 0.011489778518 
0.011864913789 0.012255380154 0.012661930569 0.013085329335 0.013526353603 0.0098532717144 0.010148318699 0.010570959255 0.010899568166 
0.011242363652 0.011599896187 0.011972721856 0.012361403408 0.012766510436 0.013188618364 0.0096741264934 0.0099602385322 0.010367737429 
0.010685310223 0.01101624595 0.011361056434 0.011720257999 0.012094371302 0.012483920465 0.012889437162 0.0094966271442 0.0097739445086 
0.010166228629 0.010473001931 0.010792351614 0.011124752858 0.011470684087 0.011830624638 0.012205059445 0.012594472529 0.0093208448976 
0.009589504208 0.0099666991069 0.010262913901 0.010570955018 0.010891263482 0.011224279752 0.011570447962 0.011930210077 0.012304009063 
0.011234194559 0.01159327352 0.01216458347 0.01257402209 0.013001725115 0.013448734607 0.013916116226 0.01440496341 0.014916397265 
0.015451573514 0.011053310897 0.011402718372 0.011951572947 0.012349126605 0.012764052641 0.013197321078 0.013649922256 0.014122869162 
0.014617199689 0.015133978066 0.010872449155 0.011212149262 0.011738451758 0.012124255928 0.012526558483 0.012946258375 0.01338427147 
0.013841531556 0.014318992779 0.014817630664 0.010691792016 0.011021753494 0.011525471703 0.011899708814 0.012289589716 0.012695943174 
0.01311961104 0.013561449142 0.014022329007 0.01450313929 0.010511535066 0.010831729322 0.011312865294 0.011675764951 0.012053474153 
0.012446752251 0.012856368002 0.013283100366 0.013727739661 0.014191089473 0.010331886462 0.010642289949 0.011100845758 0.011452684673 
0.011818519989 0.012199042567 0.012594949027 0.013006942643 0.01343573442 0.013882044194 0.010163465211 0.010464672143 0.010887467972 
0.011221623782 0.011569895357 0.011932823594 0.012310952749 0.012704831684 0.013115013011 0.013542052956 0.009980297863 0.01027241991 
0.010680127073 0.011003224058 0.011339624478 0.011689832107 0.012054351928 0.012433691661 0.01282835977 0.013238869424 0.0097987355197 
0.010081913005 0.01047450486 0.010786765186 0.011111553235 0.011449337095 0.011800584305 0.012165762461 0.012545342048 0.012939789882 