# vtk DataFile Version 5.1
vtk output
ASCII
DATASET STRUCTURED_POINTS
DIMENSIONS 10 10 20
SPACING 0.1 0.1 0.1
ORIGIN 3.25 -0.45 0.55
POINT_DATA 2000
FIELD FieldData 1
potential 1 2000 double
0.0025677311427 0.0026489689735 0.0028109652783 0.0029034703416 0.0030002270258 0.0031015309314 0.00320767505 0.003318932006 0.0034355110058 
0.0035575620533 0.0026108658565 0.0026942805199 0.0028652696471 0.0029609097233 0.0030611715018 0.0031663554526 0.0032767721211 0.0033927043839 
0.0035143800933 0.0036419630877 0.0026541099172 0.0027396698466 0.0029198790221 0.0030186789891 0.0031225021573 0.0032316674437 0.0033464950402 
0.0034672765857 0.003594250176 0.0037276221439 0.0026998235668 0.0027875750583 0.0029770602324 0.0030791449753 0.0031867047079 0.0033000679161 
0.003419571249 0.0035455064879 0.0036781434046 0.0038177109783 0.0027495853008 0.0028396576385 0.0030382016547 0.0031437721592 0.0032553153749 
0.0033731861362 0.0034977171491 0.0036292336875 0.0037680038292 0.0039142926944 0.0028042182243 0.0028967832835 0.0031038256509 0.0032131192927 
0.0033289415337 0.0034516672433 0.0035816490565 0.0037192202281 0.0038646698073 0.0040182822053 0.0028755060508 0.0029693317295 0.0031982152339 
0.0033149447811 0.0034393130157 0.0035712867479 0.0037109879793 0.0038585418731 0.0040140866487 0.0041782439052 0.0029345135927 0.0030323611094 
0.0032794594636 0.0034012873518 0.0035307060886 0.0036679723751 0.0038133098274 0.0039669734349 0.0041296091579 0.0043009032675 0.0029957310769 
0.0030975642777 0.0033619650523 0.003489066183 0.0036239059757 0.0037668409571 0.0039182442311 0.0040790256529 0.0042484806037 0.0044274765884 
0.0030562090049 0.0031619132553 0.0034427966362 0.0035753384388 0.0037157824865 0.0038646209159 0.0040228860585 0.0041899853655 0.0043668571528 
0.0045539978891 0.0030007265902 0.0030953301117 0.0032751537779 0.0033826227329 0.0034949558817 0.0036124772541 0.0037354916213 0.0038642922701 
0.0039991405684 0.0041402814188 0.0030564852618 0.0031539001173 0.0033436618917 0.0034550120423 0.0035716401779 0.0036938812097 0.0038220687741 
0.0039565085524 0.0040974867263 0.0042452662854 0.0031125771718 0.0032127921827 0.0034128052329 0.0035280902039 0.0036491028636 0.0037761975728 
0.0039097269542 0.0040500187958 0.0041973810311 0.0043520994753 0.0031704295766 0.003273486304 0.0034838496698 0.0036031777278 0.0037287304164 
0.0038608857066 0.0040000101788 0.0041464533157 0.0043005446236 0.0044626087935 0.0032311133598 0.0033371188224 0.003557643827 0.0036811770561 
0.0038114826855 0.003948963298 0.0040940012152 0.0042469644841 0.0044082187005 0.0045781005141 0.0032952450492 0.0034043320217 0.0036344753617 
0.0037624114404 0.003897720073 0.0040408266792 0.004192137329 0.0043520477455 0.0045209348167 0.0046991768118 0.0033712236588 0.0034818034331 
0.0037449876479 0.0038790737975 0.0040221174854 0.0041740922077 0.0043351375512 0.0045054213935 0.0046851412121 0.0048749727696 0.0034367366901 
0.0035517904246 0.0038334700387 0.0039735098145 0.0041224837701 0.0042806382559 0.0044482247463 0.0046255274718 0.0048132749118 0.0050112333374 
0.003503618777 0.0036230984722 0.0039222768155 0.0040684194762 0.0042236567798 0.0043883441029 0.0045628602937 0.0047480037573 0.0049436310612 
0.0051502644701 0.0035700807233 0.0036938909477 0.0040097172603 0.0041621208758 0.0043238133588 0.0044952614283 0.0046775119031 0.0048700286056 
0.0050738778592 0.0052896677404 0.0034305797969 0.0035382825005 0.0037355457472 0.0038576687517 0.0039852353128 0.0041186025696 0.0042580998407 
0.0044040516897 0.0045567689317 0.0047165470776 0.003497333883 0.003608419624 0.0038164798058 0.0039431531219 0.0040757194899 0.0042145592225 
0.0043600301848 0.0045124806999 0.0046722440202 0.0048396480571 0.0035646812168 0.0036791602396 0.0038983980721 0.0040296900535 0.0041673727285 
0.0043118454419 0.0044634930714 0.0046226883367 0.0047897952505 0.0049651637991 0.0036334686292 0.0037513960267 0.003981957143 0.0041179755649 
0.0042609303637 0.0044112417356 0.0045693168294 0.0047355577535 0.0049103543964 0.0050940992123 0.0037043821459 0.0038258465203 0.0040675906242 
0.0042084797048 0.0043569007666 0.0045132941401 0.004678098372 0.0048517324664 0.0050346292129 0.0052272081532 0.003777831209 0.0039029510879 
0.0041553694541 0.0043013015069 0.0044554062317 0.0046181570891 0.0047900183048 0.0049714418386 0.0051628823192 0.005364791738 0.0038589425617 
0.0039857507994 0.004281625228 0.0044327483675 0.0045938168007 0.0047651852286 0.0049469015213 0.0051391567745 0.0053421934123 0.00555673775 
0.0039319789046 0.0040637377592 0.0043785387549 0.0045362114322 0.0047041967707 0.0048826157561 0.005071763972 0.0052719570386 0.0054839780088 
0.0057076308164 0.0040060654724 0.0041427329606 0.004475157488 0.0046398799948 0.0048149656929 0.0050007880093 0.0051977553708 0.0054067025769 
0.0056275583818 0.0058609144049 0.0040800969321 0.0042215904019 0.0045708726529 0.0047426958735 0.0049250973272 0.0051185582519 0.0053239926257 
0.0055414354143 0.0057715110752 0.0060150905189 0.0038558919309 0.0039763660208 0.0041905565831 0.0043269398376 0.0044693203228 0.0046180768517 
0.0047735790167 0.0049361812387 0.0051062273043 0.0052840639285 0.0039326435263 0.0040570315935 0.0042828028401 0.004424343226 0.0045723689632 
0.0047272896241 0.0048894949759 0.0050593747228 0.0052373061952 0.0054236653311 0.0040102009725 0.004138538966 0.0043763315018 0.0045231116205 
0.0046769161332 0.0048381759989 0.0050073146793 0.005184746739 0.005370885547 0.0055661407767 0.0040890664551 0.0042214180672 0.0044714264342 
0.0046235634406 0.0047833042783 0.0049511138001 0.005127441975 0.0053127363047 0.0055074452804 0.0057120043232 0.0041696686047 0.0043061133552 
0.0045682447005 0.0047258704454 0.0048917351216 0.0050663294107 0.0052501412054 0.0054436449682 0.0056473156059 0.0058616448922 0.0042522541108 
0.0043929089411 0.0046667079865 0.0048299717604 0.0050021655803 0.0051838073946 0.0053754160874 0.0055774949251 0.0057905638578 0.0060151428111 
0.0043387958642 0.0044812932234 0.004807809593 0.0049754108073 0.0051541117345 0.0053442760793 0.0055459677553 0.0057594175778 0.0059849000331 
0.0062231648442 0.0044199204723 0.0045678548178 0.0049136362784 0.0050886012714 0.0052750379691 0.0054730945144 0.0056830855898 0.0059053725514 
0.0061407636791 0.0063891231121 0.0045020001268 0.0046553309415 0.0050190254088 0.0052018392706 0.0053962057917 0.0056025051526 0.0058211888217 
0.0060531256972 0.0062983055212 0.0065573637864 0.0045843243055 0.0047429935493 0.0051237912503 0.0053145241741 0.0055170394961 0.005731847458 
0.0059598821661 0.0062012545791 0.0064566292177 0.0067269516797 0.0042756211772 0.0044084916754 0.00463898784 0.0047891770765 0.0049458881722 
0.0051095213924 0.0052804765114 0.005459138904 0.00564589222 0.0058411118261 0.0043616972267 0.0044989867473 0.004741778481 0.0048976851074 
0.00506063539 0.0052310621504 0.0054093980572 0.0055960559745 0.0057914578697 0.0059960165756 0.0044487501066 0.0045905116581 0.004846094949 
0.005007813383 0.0051771464235 0.0053545627061 0.0055405188734 0.0057354685499 0.0059398664349 0.0061541651618 0.0045370723323 0.0046833764018 
0.0049520003886 0.0051196473812 0.0052955299274 0.0054801490724 0.0056739930663 0.0058775559618 0.0060913224583 0.0063157908885 0.0046269202839 
0.0047778560856 0.0050594706774 0.005233177385 0.0054157914276 0.0056078485609 0.0058098710852 0.0060223869695 0.0062459257564 0.0064810169756 
0.0047184440195 0.0048741188534 0.0051683248193 0.0053482346572 0.0055377789146 0.0057375250197 0.0059480343957 0.0061698716703 0.0064036016559 
0.0066498087302 0.0048105773318 0.0049682060295 0.0053229004467 0.005506544187 0.0057023427713 0.0059106943733 0.0061316648855 0.006365502764 
0.0066125223459 0.0068734867227 0.004900025067 0.0050635678903 0.005437909791 0.0056296834647 0.0058339993043 0.0060510378081 0.0062811252516 
0.0065246533754 0.0067824588746 0.0070544453553 0.0049904276847 0.0051598580337 0.0055524394905 0.0057528261677 0.0059658541507 0.0061919377731 
0.0064315461964 0.0066855790876 0.0069540607764 0.0072377244191 0.0050813072452 0.0052565844158 0.0056665539951 0.005875634571 0.0060976058867 
0.0063330156714 0.00658281876 0.0068471756115 0.0071268048197 0.0074226950688 0.0046889474635 0.0048338088757 0.0050798880061 0.0052433840365 
0.0054138861287 0.0055918252637 0.0057776261595 0.0059717023849 0.0061744644075 0.0063863208428 0.004783851737 0.0049336095721 0.0051926420836 
0.0053623694717 0.0055396596914 0.005724975038 0.005918773539 0.006121507118 0.0063336220423 0.006555567181 0.0048798689485 0.0050345907874 
0.0053071214318 0.0054831879153 0.0056674203982 0.0058603148865 0.006062368311 0.0062740689523 0.0064959013994 0.0067283550691 0.0049771642465 
0.0051369300761 0.0054232567582 0.0056057799409 0.005797122833 0.0059978198912 0.0062084037722 0.006429397908 0.006661333489 0.0069047410441 
0.0050758814349 0.0052407895691 0.0055409146208 0.005730020769 0.0059286583208 0.0061373945811 0.0063567977679 0.0065874360367 0.0068298805913 
0.0070847073359 0.0051761106193 0.005346270947 0.0056598426159 0.005855673384 0.0060617953008 0.0062788198082 0.0065073486834 0.0067479940069 
0.0070013710387 0.0072681046513 0.0052739096918 0.0054460947515 0.0058261149088 0.006025351137 0.0062377183979 0.00646362358 0.0067031394094 
0.0069565416484 0.0072241495552 0.0075067521738 0.0053716864938 0.0055502496642 0.0059503570726 0.0061584286391 0.006380042468 0.0066153732595 
0.0068647713079 0.0071286458021 0.0074078540616 0.0077021997202 0.0054704668259 0.0056553948055 0.0060741112775 0.0062915238769 0.0065225701093 
0.00676769579 0.0070273832566 0.0073021922497 0.0075932820133 0.0079003230786 0.0055699012118 0.0057611718368 0.0061976126037 0.0064244329809 
0.0066651607105 0.0069203672673 0.007190684808 0.007477355325 0.0077800934528 0.0081002705678 0.0050951954559 0.0052516167176 0.0055124666866 
0.0056887286754 0.0058724449999 0.0060640759478 0.0062640669523 0.0064728570998 0.0066908789644 0.0069185676497 0.0051985222461 0.0053602927972 
0.005634701033 0.005817667731 0.0060086743746 0.0062082166544 0.0064167711948 0.006634821805 0.006862841605 0.0071013055728 0.0053030772664 
0.0054702761356 0.005758829217 0.0059486152356 0.0061470769239 0.006354740831 0.0065721297992 0.0067997628922 0.0070381557625 0.0072878317125 
0.0054089409918 0.0055816625123 0.0058847040195 0.0060814289533 0.0062875175546 0.0065035309856 0.0067300346321 0.0069675870413 0.0072167501305 
0.0074780927761 0.0055161880301 0.0056945348992 0.0060121159177 0.0062159095653 0.0064298053251 0.0066544067068 0.0068903180974 0.0071381422853 
0.0073984882876 0.0076719733731 0.0056248622281 0.0058089542377 0.0061407738974 0.0063517689512 0.0065736646011 0.0068070999817 0.0070527231071 
0.0073111848049 0.0075831423203 0.0078692597312 0.0057283372802 0.0059144810674 0.0063166235675 0.0065309985303 0.0067593865725 0.0070021940654 
0.0072595140112 0.0075316212643 0.0078188498828 0.008121595566 0.0058343084306 0.0060272718926 0.0064500079507 0.0066738735201 0.0069121672072 
0.0071650748999 0.0074329666232 0.0077162606575 0.0080154453985 0.0083314807235 0.0059413440811 0.0061411330253 0.0065829198775 0.0068167762535 
0.0070651697568 0.0073285534579 0.0076074398071 0.0079023925599 0.0082144441628 0.0085437414555 0.0060491735985 0.0062557800695 0.0067156777154 
0.0069596013443 0.0072183471224 0.0074925052855 0.0077827298784 0.0080902575597 0.0084149118035 0.0087580167707 0.0054937901778 0.0056613174868 
0.0059360473357 0.0061244996017 0.0063208225674 0.0065254914067 0.0067389777224 0.0069617380034 0.0071942311656 0.0074369028235 0.0056051827484 
0.005778489398 0.0060673279158 0.0062629201554 0.0064669909649 0.0066800551079 0.0069026236399 0.0071351941131 0.0073782659826 0.0076323354575 
0.0057178989516 0.005897077104 0.0062006505915 0.0064035008893 0.0066154899831 0.0068371754089 0.0070691004767 0.0073118126787 0.0075658537843 
0.0078317688228 0.0058319696701 0.0060171207406 0.006335816789 0.006546046877 0.0067661299728 0.0069966626296 0.0072382322316 0.0074914294589 
0.0077568437828 0.0080350705811 0.005947420026 0.0061386578068 0.0064725701896 0.0066903084456 0.006918667472 0.0071582849335 0.0074097947291 
0.0076738323351 0.00795103783 0.0082420580603 0.0060642590358 0.0062617078613 0.0066105889601 0.0068359656247 0.0070727868762 0.0073217370118 
0.007583492914 0.0078587390486 0.0081481653141 0.0084524766531 0.0061733819873 0.0063728659745 0.0067936249796 0.0070226757542 0.0072666433874 
0.0075255804925 0.007799936144 0.0080898720172 0.008395721968 0.0087178897824 0.0062873108529 0.006494039951 0.0069359746234 0.0071752190117 
0.0074294517366 0.0076992083456 0.0079847498083 0.0082865065623 0.0086049685111 0.0089410996774 0.0064023760922 0.0066163633259 0.0070779814753 
0.0073275767901 0.007592620172 0.00787346122 0.0081706204365 0.0084846825297 0.0088166749341 0.0091667493895 0.0065183399972 0.0067395953303 
0.0072196770292 0.0074800408145 0.0077560367861 0.0080482674295 0.0083574027478 0.0086845391213 0.0090299691505 0.0093945941255 0.0058842289833 
0.0060623938757 0.0063500397523 0.0065500818675 0.0067583672201 0.0069753922767 0.0072016445418 0.0074376033284 0.0076837355341 0.0079405123213 
0.0060033518949 0.0061877023267 0.0064899568522 0.0066975322592 0.0069139835175 0.0071398463048 0.0073756457177 0.0076219075564 0.0078791456802 
0.0081478754273 0.006123884382 0.0063145238105 0.006632051387 0.006847281252 0.0070720700904 0.0073069951044 0.007552627148 0.0078095315602 
0.0080782722055 0.0083594154562 0.0062458186261 0.0064428591553 0.0067760852166 0.006999091556 0.0072323959172 0.0074766171547 0.0077323696947 
0.0080002649425 0.0082809202453 0.0085749498599 0.0063691481722 0.0065727098615 0.0069217746434 0.0071526824325 0.007394682156 0.0076484370716 
0.0079146062498 0.0081938526716 0.0084868402982 0.0087942442057 0.0064938536142 0.0067040685353 0.0070687691398 0.007307708412 0.0075585908199 
0.0078221217477 0.0080990116281 0.0083899745511 0.0086957282653 0.0090170037362 0.0066085790201 0.0068207707219 0.0072563681987 0.0074996319606 
0.0077584966221 0.0080330097086 0.0083236310593 0.0086305035809 0.0089539638417 0.0092944081115 0.0067301614461 0.0069499965025 0.0074074574838 
0.0076614266473 0.0079310706875 0.0082169405311 0.0085192784023 0.008838518955 0.0091751579728 0.009530141312 0.0068529507357 0.0070804573509 
0.0075582122061 0.0078230526298 0.0081040337546 0.0084015128555 0.0087160096108 0.0090481120522 0.0093988500177 0.0097683840506 0.0069767310966 
0.0072119253699 0.0077086995441 0.0079848250777 0.0082772849707 0.0085866884793 0.0089137103265 0.0092594487331 0.0096242165717 0.010008912446 
0.0062660632841 0.006454385476 0.006753922973 0.0069649289471 0.0071845122214 0.0074131866547 0.0076514527619 0.0078998033584 0.0081587247732 
0.0084286934617 0.0063925914282 0.00658748198 0.0069020802784 0.0071209739983 0.0073490970244 0.0075870014342 0.0078352331085 0.0080943277269 
0.0083648200669 0.0086472360243 0.0065206066179 0.0067221788654 0.0070525357568 0.0072794377186 0.0075162739887 0.0077636387187 0.0080221207003 
0.0082923047137 0.0085747725166 0.0088701037034 0.0066500709783 0.0068584465237 0.0072050260897 0.0074400595091 0.0076857846665 0.007942841558 
0.0082118663764 0.0084934916292 0.0087883474732 0.0090970709985 0.006780951745 0.0069962588823 0.0073592427297 0.0076025281349 0.0078573226844 
0.0081243102078 0.0084041730507 0.0086975956091 0.0090052636972 0.0093278691053 0.0069132074109 0.00713558526 0.00751481889 0.0077664818939 
0.0080305260993 0.0083076842154 0.0085986873077 0.0089042720108 0.0092251824063 0.0095621693307 0.0070334863932 0.0072577421399 0.007704188658 
0.0079611978186 0.008234395988 0.0085238219346 0.0088299238844 0.0091528364094 0.0094928880471 0.0098504593551 0.0071623734908 0.0073946405208 
0.0078637525581 0.0081319143245 0.0084163356216 0.008717562171 0.0090358321807 0.0093715729245 0.0097252706364 0.01009748133 0.007292538613 
0.007532858346 0.0080229919176 0.0083024628455 0.0085986694874 0.0089119552837 0.0092428418621 0.0095919114273 0.0099598169171 0.0103476732 
0.0074237705183 0.0076721729026 0.0081819805088 0.008473188701 0.0087813164847 0.0091069789111 0.0094508507017 0.0098136764582 0.010196790927 
0.010600121973 0.0066388977929 0.0068368843874 0.007147233664 0.007368561062 0.007598759529 0.007838355313 0.0080878624261 0.0083477847553 
0.0086186171607 0.0089008483861 0.0067725074276 0.0069774215365 0.0073032406353 0.0075327689633 0.0077718369691 0.0080210105402 0.0082808492907 
0.008551904164 0.0088347165397 0.0091298261332 0.006907672139 0.0071196375284 0.0074616549367 0.0076995044074 0.0079476147822 0.0082065976787 
0.008477056319 0.0087595888375 0.0090547892588 0.0093632484979 0.0070443338645 0.0072634803762 0.007622194749 0.0078684854549 0.0081258147057 
0.0083948373373 0.0086762060839 0.0089705683649 0.0092785707599 0.0096008608987 0.0071824350452 0.0074088977676 0.0077845305005 0.0080393824832 
0.0083061041916 0.008585401966 0.0088779758029 0.009184524677 0.0095057502828 0.009842359222 0.0073219149689 0.0075558400316 0.0079482819472 
0.0082118126049 0.0084881041428 0.0087779123767 0.0090819877508 0.0094010848803 0.0097359613926 0.010087387305 0.0074476999987 0.0076833659261 
0.0081365026837 0.0084068014708 0.0086937730758 0.0089975642218 0.0093182541861 0.0096563141139 0.010011937299 0.010385489154 0.0075835090414 
0.0078275272728 0.008304267843 0.0085860872895 0.0088847664478 0.009200487708 0.0095338260773 0.009885082164 0.010254725423 0.010643293585 
0.0077206654454 0.0079730879873 0.0084717041676 0.0087653170503 0.0090759191082 0.0094041799164 0.0097505039099 0.010115462155 0.01049969323 
0.010904284516 0.0078589549946 0.00811982389 0.0086390093488 0.0089445060647 0.0092675049799 0.0096085115869 0.0099681934248 0.010347284963 
0.010746954529 0.011167570098 0.0070023726942 0.0072095271505 0.007529567534 0.0077605555794 0.0080006703159 0.0082504469945 0.0085104085176 
0.0087810673315 0.009062924933 0.0093564735835 0.0071427379797 0.0073571561952 0.0076930330814 0.0079324974153 0.0081817684814 0.0084414254553 
0.0087120361694 0.0089941603778 0.0092883485376 0.0095951446974 0.0072847210383 0.0075065349148 0.0078590062531 0.008107063711 0.0083656638236 
0.0086354292852 0.0089169762678 0.009210912653 0.0095178397796 0.0098383576504 0.007428244969 0.0076575912509 0.0080271902455 0.00828395737 
0.0085520574436 0.0088321616442 0.0091249335233 0.0094310317568 0.0097511120379 0.010085829062 0.0075732312638 0.0078102531237 0.0081972400229 
0.0084628300014 0.0087406020647 0.009031274651 0.0093355610797 0.0096541742347 0.0099878256725 0.010337229436 0.0077196002728 0.0079644482136 
0.0083687585832 0.008643283256 0.0089308967755 0.0092323672279 0.0095484597075 0.0098799436196 0.010227589511 0.01059217199 0.0078508592942 
0.0080972740228 0.008552829633 0.008835971703 0.0091361692997 0.0094535526619 0.0097881762198 0.010140507218 0.010510697519 0.010899090812 
0.007993183465 0.008248261782 0.0087285125463 0.0090234697793 0.0093356601131 0.0096652510148 0.010012811211 0.010378605561 0.010763089236 
0.011166774502 0.0081369214079 0.0084007268183 0.0089038574329 0.0092108991686 0.0095353028874 0.0098777180787 0.010238536203 0.010618310756 
0.011017661828 0.011437641739 0.0082818554348 0.0085544377492 0.0090790669096 0.0093982852394 0.0097353688894 0.01009081122 0.01046526614 
0.010859456695 0.011274172347 0.011710797685 0.0073561666764 0.0075719873835 0.007900565564 0.0081405472006 0.0083898688671 0.0086490746285 
0.0089186942511 0.0091992448087 0.0094912318928 0.0097951494633 0.0075029614838 0.0077263563832 0.0080711017078 0.0083197933009 0.0085785169071 
0.0088478590931 0.0091283967173 0.0094206937845 0.0097253058295 0.010042779486 0.0076514288396 0.0078825398912 0.0082442372327 0.0085017533221 
0.0087700474562 0.0090497527043 0.0093414917932 0.0096458800558 0.0099635240678 0.010295024778 0.00780147647 0.0080404468278 0.0084196632497 
0.0086861144162 0.0089641465493 0.0092544389194 0.0095576642393 0.0098744893647 0.010205575651 0.010551580732 0.0079530075511 0.0081999870854 
0.0085970207067 0.0088725147609 0.0091604488859 0.0094615523182 0.0097765488221 0.010106158865 0.010451100111 0.010812090149 0.0081059256572 
0.0083610686182 0.0087758984388 0.0090605395115 0.009358538098 0.0096706745552 0.0099977260616 0.010340468379 0.010699679453 0.011076139846 
0.0082426416963 0.0084991442828 0.0089527850334 0.0092483414405 0.0095612353119 0.009891573443 0.010239507581 0.010605121455 0.010988891921 
0.011391014073 0.0083910563885 0.008656503354 0.0091361050662 0.0094436926683 0.0097687857244 0.01011153143 0.010472470149 0.010851845803 
0.011250084765 0.011667668117 0.0085409505804 0.008815414079 0.0093190700974 0.0096389574749 0.0099764651229 0.010332234291 0.010706620278 
0.011100159435 0.011513443273 0.011947131969 0.0086920974572 0.0089756390838 0.0095018878643 0.0098341606624 0.010184557433 0.010553542677 
0.010941755757 0.011349893061 0.011778722224 0.012229582302 0.0076987710892 0.0079227385519 0.0082571455927 0.0085045833338 0.0087621656898 
0.0090302690943 0.0093092721737 0.0095995568424 0.0099015109782 0.010215526756 0.0078509310344 0.0080824637811 0.0084309460232 0.0086878357379 
0.0089555656075 0.0092345416928 0.00952517481 0.0098278819338 0.010143086216 0.010471219148 0.0080048922885 0.0082441074533 0.0086069233753 
0.0088735560693 0.0091517597258 0.0094419732158 0.0097446407324 0.010060215337 0.010389159828 0.010731944796 0.0081606384573 0.0084076574543 
0.0087848923631 0.0090615613304 0.0093505702696 0.0096523904799 0.009967503089 0.010296399024 0.010639580813 0.010997563514 0.0083181591419 
0.0085731116087 0.0089646458329 0.0092516482934 0.0095517969255 0.0098655983499 0.010193572026 0.010536249064 0.010894174949 0.011267911319 
0.0084774535656 0.0087404756503 0.0091459547014 0.0094435891487 0.0097552152043 0.010081377111 0.01042263294 0.010779557704 0.011152742469 
0.011542796828 0.0086199431616 0.0088907657292 0.0093667297297 0.0096806259087 0.01000751668 0.010348259961 0.010703733779 0.011074720149 
0.011462383591 0.011867551401 0.0087772895871 0.0090572083168 0.0095537187688 0.0098777848244 0.010215822546 0.010568758023 0.010937424043 
0.011323031878 0.011726464956 0.012148771097 0.0089352772543 0.0092242449524 0.0097419743924 0.010076509834 0.010426014603 0.010791373418 
0.011173821154 0.011574309545 0.011993928736 0.012433810504 0.009093742958 0.0093917116553 0.0099312134376 0.010276477232 0.010637620335 
0.011015911995 0.011412348501 0.011828063346 0.012264233117 0.01272242814 0.0080321184903 0.008263616758 0.008603539102 0.0088588522964 
0.0091244296945 0.0094006469486 0.0096878829687 0.0099865182662 0.010296936819 0.010619525371 0.0081898982903 0.0084291979061 0.0087834254071 
0.0090483853999 0.0093243042897 0.0096115888643 0.0099106501196 0.010221903223 0.010545768012 0.010882669364 0.008349510981 0.0085967333514 
0.0089655692347 0.0092404593923 0.009527039141 0.0098257478852 0.010137031115 0.010461339462 0.010799131591 0.011150873096 0.0085109256156 
0.0087661978484 0.0091497771335 0.0094348822657 0.0097324447135 0.010042938232 0.010366844055 0.010704651777 0.011056859902 0.011423977458 
0.0086741191183 0.0089375725615 0.0093358330848 0.009631438817 0.0099403081857 0.010262950397 0.010599884714 0.010951640589 0.011318760071 
0.011701797311 0.0088390721201 0.0091108458774 0.0095234966708 0.0098298903835 0.010150392582 0.010485550012 0.010835921456 0.011202079379 
0.011584611102 0.011984119622 0.0089885511767 0.0092686191303 0.0097416114836 0.010065103021 0.010401848716 0.01075267868 0.011118439945 
0.011499883674 0.011898131147 0.012313972689 0.0091512775964 0.0094406278941 0.0099349916515 0.010268886526 0.010616984887 0.010980185136 
0.011359292874 0.011755478756 0.012169593857 0.012602643461 0.0093146641856 0.0096132562905 0.010129531385 0.01047412579 0.010833893174 
0.011209689725 0.011602730556 0.012013920174 0.012444317874 0.012895013352 0.0094785415581 0.0097863361356 0.010324964969 0.010680511474 
0.011052112616 0.011441020481 0.011848189808 0.012274726757 0.012721770217 0.013190500594 0.008354956752 0.0085934659599 0.0089376150076 
0.0092001486536 0.0094730278538 0.0097566283117 0.010051325504 0.010357496935 0.010675519905 0.011005773259 0.0085180000812 0.0087645248784 
0.009123095434 0.0093954393745 0.0096788210809 0.0099736469367 0.010280324875 0.0105992664 0.010930885128 0.011275597532 0.0086828996665 
0.0089375648316 0.0093108998599 0.0095933282459 0.0098875227002 0.01019392156 0.010512967791 0.010845108077 0.011190794304 0.01155048324 
0.0088496101988 0.0091125469328 0.009500827329 0.0097936147042 0.010098933428 0.010417255886 0.01074906055 0.011094832344 0.01145506352 
0.011830253059 0.0090180942415 0.0092894370555 0.0096926526229 0.0099960740935 0.010312829462 0.010643427332 0.010988383755 0.011348224129 
0.011723482027 0.012114702247 0.0091883174225 0.0094682072294 0.0098861267144 0.010200456611 0.010528961732 0.010872188033 0.011230691282 
0.011605039122 0.011995810131 0.012403596254 0.0093444793663 0.0096330992295 0.010102646134 0.01043457915 0.010779991002 0.011139680319 
0.011514458897 0.011905155419 0.012312500359 0.012737598743 0.009512220192 0.009810281259 0.010301784262 0.010644332678 0.011001278105 
0.011373487073 0.011761844272 0.012167138939 0.01259053277 0.013032857315 0.0096806338678 0.0099881032201 0.010501972587 0.010855427136 
0.011224217847 0.011609279734 0.012011463991 0.012431963898 0.012871688846 0.013331681321 0.0098495431378 0.010166386822 0.010702958157 
0.011067566892 0.011448470361 0.011846568567 0.012263100886 0.012699029197 0.013155450171 0.013633497689 0.0086671312723 0.0089121372197 
0.0092592182722 0.0095283237558 0.0098078214607 0.010098084415 0.010399483905 0.010712389966 0.011037172689 0.011374201215 0.0088350843479 
0.0090882964844 0.0094498099975 0.009728859615 0.010018987866 0.010320598646 0.010634096217 0.010959884567 0.01129836885 0.011649955658 
0.0090049064639 0.0092664562498 0.0096427800471 0.0099320368141 0.010233095418 0.010546391974 0.01087236415 0.011211452184 0.011564098971 
0.011930749505 0.0091765421014 0.0094465616285 0.0098379191073 0.010137646548 0.010449935962 0.010775256911 0.011114082709 0.011466891075 
0.011834164224 0.012216388852 0.0093499384833 0.0096285649149 0.010034994426 0.010345455674 0.010669276056 0.01100696036 0.011359019377 
0.011725970306 0.01210833732 0.012506651444 0.0095250460477 0.0098124211717 0.010233748457 0.010555204419 0.010890854657 0.011241240819 
0.011606913101 0.011988430226 0.01238636053 0.012801281593 0.0096875611986 0.0099840477526 0.010449704221 0.010788959164 0.011141884675 
0.011509243087 0.011891808723 0.012290368919 0.012705612511 0.013138580673 0.0098599485832 0.01016601037 0.010653982952 0.011004044233 
0.011368659452 0.011748659808 0.012144891614 0.012558105893 0.012989411307 0.013439593323 0.010033013709 0.010348624473 0.010859199081 
0.011220351261 0.011596962471 0.011989933217 0.012400072719 0.012828542781 0.013276192938 0.013744019972 0.010206574101 0.010531705124 
0.011065115108 0.011437598798 0.011826467484 0.012232583828 0.012657156995 0.013101094089 0.013565449503 0.014051304033 0.0089685219707 
0.0092195157247 0.0095682406163 0.0098432808638 0.01012872574 0.010424943588 0.01073230004 0.0110511577 0.011381876407 0.011724813254 
0.009141031516 0.0094004028129 0.0097634729501 0.01004856014 0.01034473189 0.010652386785 0.01097192267 0.011303735461 0.0116482198 
0.012005769477 0.0093154157623 0.0095832982095 0.0099611244677 0.010256512074 0.01056369957 0.010883117763 0.011215197773 0.011560370685 
0.011919068279 0.012291722458 0.0094916077458 0.0097681363548 0.010160980524 0.010466920078 0.010785411346 0.011116918766 0.01146190834 
0.011820847955 0.012194208651 0.012582462721 0.0096695411852 0.0099548545947 0.010362801038 0.010679541943 0.011009623235 0.01135354486 
0.011711809292 0.012084923553 0.012473398963 0.012877750933 0.0098491525312 0.010143392497 0.010566319839 0.010894108982 0.011236065063 
0.011592724143 0.011964627509 0.012352322967 0.012756364664 0.013177313543 0.010017672335 0.010321352489 0.010782689897 0.011128185292 
0.011487510983 0.011861391611 0.012250559665 0.012655757831 0.01307774023 0.013517158796 0.010194337485 0.010507701574 0.010991510898 
0.01134798208 0.011719130518 0.012105748277 0.01250863978 0.012928623238 0.013366418588 0.013823105125 0.010371679556 0.010694707252 
0.011201153795 0.011568878886 0.011952149771 0.012351827263 0.012768788773 0.013203817272 0.013658051938 0.014132311282 0.010549508984 
0.01088217675 0.011411396167 0.011790608588 0.012186256214 0.012599270007 0.013030496194 0.013481111954 0.013952015471 0.014444230588 
0.0092590378027 0.0095155203523 0.0098646202359 0.010144969654 0.010435704252 0.010737186302 0.011049773611 0.011373819702 0.011709672928 
0.012057677441 0.0094357534659 0.0097007636945 0.01006403415 0.010354505954 0.010656033675 0.010969009453 0.011293822577 0.011630859303 
0.011980502625 0.012343131776 0.0096143435147 0.0098880167266 0.010265897649 0.010566733418 0.010879331132 0.011204114289 0.011541505286 
0.011891924686 0.01225579159 0.012633522193 0.0097947277383 0.010077201363 0.010469990208 0.010781428929 0.011105371685 0.011442274663 
0.011792594782 0.012156788854 0.012535313341 0.012928624626 0.0099768278477 0.01026824087 0.010676065825 0.010998343379 0.01133390328 
0.011683236324 0.012046835379 0.012425195071 0.012818811384 0.013228182873 0.01016056617 0.010461060961 0.010883851432 0.011217199852 
0.011564645619 0.011926715847 0.012303941037 0.012696855414 0.01310599713 0.013531907998 0.010334728315 0.010644942685 0.011101538664 
0.011452234508 0.011816891758 0.012196193638 0.012590828554 0.01300149186 0.013428886481 0.013873723655 0.010515303692 0.010835285769 
0.011314323999 0.01167614527 0.012052734773 0.012444843467 0.012853230634 0.013278666134 0.013721821363 0.014183711019 0.010696548972 
0.011026284017 0.011527813362 0.011901030963 0.012289845741 0.012695077257 0.01311755667 0.013558021648 0.014017550063 0.014496906116 