# vtk DataFile Version 5.1
vtk output
ASCII
DATASET STRUCTURED_POINTS
DIMENSIONS 10 10 20
SPACING 0.1 0.1 0.1
ORIGIN 3.25 -0.45 0.55
POINT_DATA 2000
FIELD FieldData 1
potential 1 2000 double
0.0096383234753 0.0097437639752 0.0098222178767 0.0098859870117 0.0099257617384 0.0099410642193 0.0099325588646 0.0098998493139 0.009843603748 
0.0097642587876 0.010431391358 0.010554280736 0.010646692755 0.01072015341 0.010765850236 0.01078367397 0.010773439341 0.010735625318 
0.010670485638 0.010578951406 0.011327447597 0.011471275645 0.011582344936 0.011666723598 0.011719078858 0.011739111015 0.011726837068 
0.011682591358 0.011606916689 0.0115008832 0.01235163647 0.012520358419 0.012656344249 0.012753658806 0.012813864484 0.01283645147 
0.012821507926 0.012769363201 0.01268077442 0.01255682464 0.01353030366 0.013729108051 0.013897589074 0.014010217273 0.014079581434 
0.014105149412 0.014086819183 0.014025079794 0.013920735247 0.013775188623 0.014891001128 0.015126131721 0.015336709171 0.015467567305 
0.015547816409 0.015576690604 0.015554088468 0.015480555204 0.01535706154 0.015185274336 0.016296598969 0.016553196927 0.016751515055 
0.016897662569 0.016987231113 0.017018748663 0.016991708398 0.016906302633 0.01676355172 0.016565348764 0.018104254376 0.01840994139 
0.018650689919 0.018825793489 0.018932706392 0.018969850779 0.018937046252 0.018834204635 0.018662748263 0.018425142525 0.02018705815 
0.020553254449 0.020845731385 0.021056694557 0.021185503269 0.021230333144 0.021190684208 0.021066674608 0.020860120756 0.020574178534 
0.022577657482 0.023019033408 0.023374890322 0.023631309722 0.023788214356 0.023842971465 0.023794846727 0.023644872873 0.023395090613 
0.02304929461 0.011083415504 0.011201100783 0.011289923907 0.011359633659 0.011402658942 0.011418379696 0.011406764565 0.011368049973 
0.011302929008 0.011211714459 0.012001385814 0.012138373296 0.012242447956 0.012323159349 0.012372643571 0.012390659687 0.012377206395 
0.012332567704 0.01225713418 0.012152056145 0.013033786133 0.013193832402 0.013318016441 0.013410863768 0.013467766251 0.013488287333 
0.013472382776 0.013420434702 0.013333187865 0.01321157579 0.014203819192 0.014391143237 0.014541595266 0.014648759878 0.014714256425 
0.014737614005 0.014718670179 0.014657839024 0.014555969961 0.014414426933 0.015536293999 0.015756604899 0.015941003024 0.016065157091 
0.016140841294 0.016167395716 0.016144603691 0.016072987662 0.015953595933 0.015788051554 0.017059017349 0.017318877635 0.017546684513 
0.017691110541 0.017778867748 0.017809047894 0.017781505281 0.017696783812 0.017556171386 0.017361673723 0.018625852674 0.01891277829 
0.019135143004 0.019299630246 0.019400764743 0.019436706711 0.019406833382 0.019311564133 0.019151875016 0.018930034056 0.020613191933 
0.020953846979 0.021222059641 0.021417988767 0.021538388415 0.021580752653 0.02154453495 0.021429848882 0.021238844763 0.020974357815 
0.022892066265 0.023298112511 0.023621796919 0.02385655658 0.024000716136 0.02405146733 0.024007776426 0.023870446867 0.02364143666 
0.023324569731 0.025505942471 0.025992788513 0.026384266961 0.02666786879 0.026842078574 0.026903379322 0.026850848331 0.026685256389 
0.026409362861 0.026028223081 0.012457578668 0.012585903934 0.012683600908 0.012759067552 0.012804863506 0.012820681831 0.012806405829 
0.012762296495 0.012688871262 0.012586923381 0.013482971425 0.013632277561 0.013746160477 0.013832982785 0.013885834826 0.013904006489 
0.013887589244 0.013836689329 0.013752237701 0.013635089818 0.014632084489 0.014806042792 0.014940901258 0.015040975506 0.015101667786 
0.015122462245 0.015103297405 0.015044586879 0.014946995527 0.014811693411 0.015926734261 0.016129979286 0.016291817103 0.016407294441 
0.016477241045 0.01650099387 0.016478397486 0.016409898459 0.016296456856 0.016139585751 0.017390895205 0.017629189475 0.017825700293 
0.017959463811 0.018040332402 0.018067409608 0.018040606395 0.017960389531 0.017827999481 0.017645264707 0.019051928839 0.019332171546 
0.019572665688 0.019728102396 0.019821842285 0.019852825431 0.01982090667 0.019726589975 0.019571387129 0.019357527737 0.020754588847 
0.021067117344 0.021309142813 0.021488759104 0.021599300515 0.021638890109 0.021606721719 0.021503112603 0.021329442158 0.021088364751 
0.022894915044 0.023263852279 0.023554212634 0.023766927696 0.023897702895 0.023944063609 0.023905166576 0.023781440368 0.023574854761 
0.023288381136 0.025337570193 0.025775440376 0.026123858432 0.026377604745 0.026533178565 0.026588307087 0.026541574645 0.026393743052 
0.026147047609 0.025806058626 0.028132316186 0.028654695766 0.02907349284 0.029377548966 0.029564584449 0.029630687379 0.029574674536 
0.029397295002 0.029101767585 0.02869341145 0.013752190258 0.013890078594 0.013995227094 0.014075342827 0.014123510421 0.01413926376 
0.014122555635 0.014073651551 0.013993023131 0.013881625319 0.014869647756 0.015029355559 0.015151187589 0.015243315446 0.015298703957 
0.015317043077 0.015297745813 0.015241576809 0.015149095414 0.015021390899 0.016117602076 0.016303144475 0.016446389402 0.016552433659 
0.016616181057 0.01663704174 0.01661499738 0.016550191542 0.01644364746 0.016296547797 0.017517076943 0.017733374823 0.01790378561 
0.018026069722 0.018099511763 0.018123370404 0.018097467521 0.018022344972 0.017899028596 0.017729205532 0.019091534329 0.019344235346 
0.019549233421 0.019690657355 0.019775468651 0.019802757871 0.019772413739 0.019684910871 0.019541517205 0.019344249099 0.020867312726 
0.021163617522 0.021412314212 0.021576340423 0.021674576797 0.021705936039 0.021670098692 0.021567739274 0.021400369139 0.021170461184 
0.022679614105 0.023012170973 0.023269839239 0.023461403541 0.023579482507 0.023621942134 0.023587959118 0.023477887814 0.023293316332 
0.023036960632 0.024942594428 0.025333513403 0.025640726789 0.025866384683 0.026005159833 0.026054545685 0.026013612196 0.025882857857 
0.025664399945 0.025361531096 0.027513396698 0.027975016904 0.028341674752 0.028609144038 0.028773513557 0.02883193659 0.028782660545 
0.028627023061 0.028367467934 0.028008285203 0.03044240715 0.030989838154 0.031428103352 0.031746657481 0.031942688582 0.032012176432 
0.031953458675 0.031767850909 0.031458535233 0.031030965465 0.014961969986 0.01510762299 0.015218778405 0.015302770713 0.015352789337 
0.015368433095 0.015349488519 0.01529624517 0.015209366693 0.015089804364 0.016156894627 0.016325108497 0.016453100373 0.016549539876 
0.016606893058 0.016624889131 0.016603292537 0.016542561828 0.016443152292 0.016306412068 0.017487150017 0.017682041334 0.017831290144 
0.017942191178 0.018008337912 0.018029033218 0.018004187631 0.017934260157 0.017820007108 0.017663013932 0.018972926294 0.019199372273 
0.019375541597 0.019503127304 0.019579165262 0.019602880567 0.019574087846 0.019493346768 0.019361764526 0.019180925969 0.020636760682 
0.020900587843 0.021110706521 0.021257848637 0.021345494507 0.021372683455 0.021339171288 0.021245539779 0.021093130358 0.020883983855 
0.022504355976 0.022812518162 0.0230652821 0.023235588057 0.023336936271 0.023368130395 0.023328908173 0.023219961311 0.023042855299 
0.022800120906 0.024400351384 0.024748040074 0.025017263064 0.025217730053 0.025341327807 0.025385909936 0.025350659171 0.025235845463 
0.025043189295 0.024775473002 0.026755789508 0.02716251238 0.027481573954 0.027716136086 0.027860613048 0.027912365659 0.027869964599 
0.027734250052 0.027507146368 0.027192258326 0.029417714429 0.029895438374 0.030274461238 0.03055111152 0.030721158634 0.030781514678 
0.03073097179 0.030570236882 0.030301761959 0.029930454033 0.032435277156 0.032998728864 0.033448678999 0.033776379413 0.033977591915 
0.034048889262 0.033988783698 0.033798236217 0.033480331866 0.033040866063 0.01608316426 0.016235000565 0.016350883761 0.016437915169 
0.016489289509 0.01650453564 0.016483547556 0.016426615244 0.016334374678 0.016207840512 0.017342044142 0.017516884967 0.017649250939 
0.017749005583 0.017807989912 0.017825630446 0.017801832692 0.017736921515 0.017631698978 0.017487499686 0.0187391921 0.01894113752 
0.01909448407 0.019208857014 0.019276617881 0.019296902761 0.019269722696 0.01919533149 0.01907485112 0.018909636221 0.020293680817 
0.020527593656 0.020707038149 0.020838416378 0.020916138154 0.020939413821 0.020908114711 0.020822789475 0.020684389549 0.020494693738 
0.022027251628 0.022298828368 0.022511019225 0.022662204372 0.022751616724 0.022778311522 0.02274206129 0.022643486537 0.022483919172 
0.02226539629 0.02396448727 0.02428054151 0.024533637621 0.024708016235 0.024811118414 0.024841764595 0.024799660348 0.024685480732 
0.024500870157 0.024248351764 0.025919475671 0.026277664181 0.026554528038 0.026761054035 0.026888428582 0.026934495221 0.026898331163 
0.026780346082 0.026582195276 0.026306755022 0.028337455072 0.028754357754 0.029080791528 0.029321371819 0.029469393802 0.029522276673 
0.02947906998 0.029340176792 0.029107753224 0.028785379812 0.031056455544 0.031543416045 0.031928640917 0.032210426655 0.032383593859 
0.032445110273 0.032393710005 0.032230244493 0.031957125697 0.031579010627 0.034120638432 0.034691581218 0.035146700333 0.035478241784 
0.035681983149 0.035754270465 0.035693161815 0.035500229469 0.035178658181 0.034733828996 0.017113778752 0.017270286639 0.01738971164 
0.017478976225 0.017531231372 0.017546015578 0.017523224112 0.0174631371 0.017366400934 0.01723407053 0.01842389015 0.018603583431 
0.018739192885 0.018841252467 0.018901124917 0.018918297099 0.018892538413 0.018824242053 0.018714211601 0.01856365948 0.019873611858 
0.02008045604 0.020236058545 0.020352839225 0.020421400193 0.020441024798 0.02041182322 0.020333933831 0.02020837191 0.020036672539 
0.021480546067 0.021719326452 0.02189984299 0.022033616927 0.022112212541 0.022134915057 0.022101368615 0.022012200897 0.0218684735 
0.021671952326 0.023265451007 0.023541723558 0.023753270046 0.023906741253 0.023996943023 0.024022849108 0.023984270833 0.023881797832 
0.02371686635 0.023491444622 0.025251399393 0.025571824245 0.025821994011 0.025998445518 0.026102118525 0.02613181081 0.026087245296 
0.025969134642 0.025779090809 0.025519648128 0.027242735634 0.027607177067 0.027888120152 0.028098140904 0.028227653214 0.028274538269 
0.028237925963 0.028118168641 0.027916911654 0.027636971947 0.029696131588 0.030118214093 0.030447801338 0.030691109419 0.030840783218 
0.030894310919 0.030850646193 0.030710333618 0.030475431124 0.030149443514 0.032440475172 0.032930794717 0.033317598978 0.033600865324 
0.033774904011 0.033836672024 0.033785041234 0.033620660364 0.033346176218 0.032965826308 0.035515236185 0.036086547196 0.036540867637 
0.036872031085 0.037075413456 0.037147392447 0.037086557833 0.036893889806 0.036572509774 0.03612782539 0.018053527212 0.018213240441 
0.018335205597 0.01842591214 0.018478612153 0.018492809003 0.01846839716 0.018405667548 0.018305301045 0.018168320939 0.019403322069 
0.019586107956 0.019723537398 0.019827002894 0.019887221682 0.019903636307 0.019876143204 0.019805079863 0.019691251876 0.019535888705 
0.020891934611 0.021101680924 0.021258001644 0.021375996323 0.021444829607 0.021463765446 0.021432623764 0.021351888918 0.021222521391 
0.021045854282 0.022536242179 0.022777580439 0.022957239588 0.023092130446 0.023170874539 0.023192572998 0.023157147559 0.023064974097 
0.022917322529 0.022715906858 0.0243555414 0.02463372704 0.024842313088 0.02499660507 0.025086658593 0.025111493881 0.025070933531 
0.024965632679 0.02479680689 0.024566553228 0.026371285948 0.026692636234 0.026937080101 0.02711385731 0.027217038097 0.027245470381 
0.027198883851 0.027077972239 0.026884352184 0.026620515296 0.028378442547 0.028745471314 0.029027345104 0.029238514154 0.029368757289 
0.029415934544 0.029379199593 0.029258902541 0.029056617917 0.028775116786 0.03084318635 0.031266104632 0.031595099594 0.031838440986 
0.031988103351 0.032041601785 0.031997963949 0.031857695555 0.031622772243 0.031296630024 0.033585298548 0.034073790262 0.034457976132 
0.034739636074 0.034912610839 0.034973989785 0.034922641788 0.034759180502 0.034486138317 0.034107661597 0.036639901495 0.03720538839 
0.037654109708 0.037981309205 0.038182173407 0.038253164899 0.038193020496 0.038002589186 0.037684816037 0.037244926655 0.018903261454 
0.019064821904 0.019188494631 0.019279923168 0.019332620115 0.019346098722 0.019320259536 0.019255394129 0.01915217209 0.019011651069 
0.020281694915 0.020465988816 0.020604206371 0.020708226036 0.020768318053 0.020783917964 0.020754901629 0.020681641852 0.020564937253 
0.02040602255 0.021796884693 0.022007668238 0.022163476394 0.02228187739 0.022350439904 0.022368384962 0.022335657199 0.022252669467 
0.022120363493 0.021940210511 0.023464972715 0.023706610831 0.023883878341 0.024018715122 0.024096808548 0.024117481949 0.024080338149 
0.023986064598 0.023835769156 0.023631100944 0.025303309693 0.025580879532 0.025784647164 0.025938370769 0.026027467711 0.026051096373 
0.026008865713 0.025901486157 0.025730214625 0.025497185911 0.027331809338 0.027651252963 0.027887712786 0.02806317135 0.028164926239 
0.028191795535 0.028143549682 0.028020877956 0.027825432569 0.027559523563 0.029337256437 0.029703603793 0.029983523267 0.030193933829 
0.030323632943 0.030370622578 0.030334041921 0.030214236006 0.030012725021 0.029732187029 0.031792411959 0.032212388551 0.032537682093 
0.032778741762 0.032926953169 0.032979912131 0.032936652939 0.032797644386 0.032564804047 0.032241395172 0.034509196693 0.034991638794 
0.035369654689 0.035647107485 0.035817418689 0.035877762239 0.035827055678 0.03566593406 0.035396775842 0.035023542647 0.037518114039 
0.038073416214 0.038512570717 0.038832927544 0.039029443657 0.039098784324 0.039039676971 0.038852979305 0.038541604531 0.038110320628 
0.019664839082 0.019826995854 0.019951753918 0.020043228847 0.020095528348 0.020108181291 0.020081088429 0.020014541765 0.0199092213 
0.019766161637 0.021061871426 0.021246226733 0.021384461326 0.021488262688 0.021547759712 0.02156240083 0.021532085412 0.021457159979 
0.021338431088 0.021177122396 0.022592690718 0.022802830047 0.02295710486 0.023074915044 0.023142567321 0.023159411755 0.023125328648 
0.023040740406 0.022906591775 0.022724329188 0.02427195025 0.024512001685 0.024685694759 0.024819422018 0.024896333844 0.024915623001 
0.024877199606 0.02478146444 0.02462961311 0.024423258935 0.026115824831 0.026390587138 0.026588063878 0.026740036491 0.026827515631 
0.026849536198 0.026805972019 0.026697330464 0.026524956152 0.026290888016 0.028142143391 0.028457096727 0.028683835905 0.028856676053 
0.02895618641 0.02898127361 0.028931798743 0.028808247181 0.028612287133 0.028346237717 0.0301311275 0.030494100786 0.030769636347 
0.030977498604 0.031105595605 0.031151955388 0.031115759128 0.030997323508 0.030798113327 0.030520720713 0.032559059262 0.032973034561 
0.033291894631 0.03352885007 0.033674428686 0.033726371163 0.033683743556 0.033547001038 0.033317938927 0.032999668065 0.03523165862 
0.03570459406 0.036073511067 0.036344646494 0.036510965332 0.036569802809 0.03652009851 0.036362444509 0.036099068909 0.035733753142 
0.038174908548 0.038716036729 0.039142509902 0.039453734773 0.039644508511 0.039711713129 0.039654091901 0.039472452716 0.039169512442 
0.03874981883 0.020340963537 0.020502571539 0.020627999806 0.020718908682 0.020770460233 0.020782189639 0.02075401062 0.020686210659 
0.020579463281 0.02043480088 0.021747496298 0.021930603009 0.022068334593 0.022171220309 0.022229720995 0.022243295513 0.022211859087 
0.022135761942 0.022015786833 0.021853146266 0.023283849755 0.023491848714 0.023643961964 0.023760398473 0.023826733293 0.023842346724 
0.023807133219 0.023721500596 0.023586379653 0.023403194059 0.024963415354 0.025200216447 0.025369526546 0.025501324049 0.025576520849 
0.02559437316 0.025554769881 0.025458183411 0.025305706475 0.025099011236 0.026800898404 0.027070928703 0.027261118035 0.02741034809 
0.027495582418 0.027515904535 0.027471245428 0.027362111118 0.027189750661 0.02695613279 0.028812235283 0.029120637002 0.029336401879 
0.029505440761 0.029602110651 0.029625239676 0.029574652698 0.029451051993 0.029255880338 0.028991442082 0.030772950332 0.031130287377 
0.03139931312 0.031603226535 0.031728781935 0.031774152038 0.031738512988 0.031622241403 0.031426535353 0.031153930913 0.033159165243 
0.033564709626 0.033874942026 0.034106183104 0.034248156538 0.03429868477 0.034256898131 0.034123205754 0.03389930121 0.033588090334 
0.035772531297 0.036233276644 0.036590756849 0.036853969434 0.037015283927 0.037072189806 0.0370237049 0.036870383635 0.036614282552 
0.036258933831 0.03863483798 0.039158989009 0.03957043058 0.039870817291 0.040054767608 0.04011936906 0.040063491293 0.039887827217 
0.039594912259 0.039188979796 0.020934969033 0.021095015651 0.021220927006 0.021310714326 0.021361197145 0.02137192584 0.021342816524 
0.021274160485 0.021166615794 0.021021196672 0.022342855299 0.0225235644 0.022660536866 0.022761890535 0.022819036859 0.022831465357 
0.02279908795 0.022722250912 0.022601730348 0.022438708419 0.023875895854 0.024080458784 0.024230062961 0.024344440622 0.024409069086 
0.024423350245 0.024387196505 0.024301014112 0.024165703918 0.02398265303 0.025546257697 0.025778311902 0.025942782171 0.026071845264 
0.026144876304 0.026161190277 0.026120676308 0.026023802647 0.025871632094 0.025665770122 0.027367154565 0.027630800313 0.027813163482 
0.027958800608 0.028041297828 0.028059841388 0.028014290884 0.027905194714 0.027733787518 0.027501927526 0.029352678366 0.029652712104 
0.029856832836 0.030021199333 0.030114365431 0.030135380367 0.030084046296 0.029961022058 0.029767677914 0.02950624726 0.031275832864 
0.031625881333 0.031886552591 0.032085311249 0.03220761062 0.032251753101 0.032216788771 0.032103106818 0.03191190077 0.031645548867 
0.033608905804 0.034004106729 0.034303881953 0.034528187962 0.034665757942 0.034714560533 0.034673754705 0.034543714596 0.034326080891 
0.034023462304 0.036151426706 0.036598042365 0.036942299972 0.037196288141 0.037351787225 0.037406453589 0.037359350783 0.037210973297 
0.036963250099 0.036619452208 0.038921616506 0.039426796016 0.039821413232 0.040109728581 0.040286102469 0.0403478185 0.040293821181 
0.040124778083 0.039842984341 0.039452382228 0.02145070277 0.021608282546 0.021734713801 0.02182290096 0.021872038803 0.021881698199 
0.021851804221 0.021782643662 0.021674863679 0.021529453709 0.022852724161 0.023030031746 0.023166262071 0.023265549665 0.023321039834 
0.023332243251 0.023299087552 0.023221911108 0.023101468925 0.022938917079 0.024374729616 0.024574738102 0.024721813211 0.024833545475 
0.024896130054 0.024909009051 0.024872097274 0.02478579777 0.024650986826 0.024469005483 0.026027667964 0.026253757925 0.02641331176 
0.026538998602 0.026609513428 0.026624201865 0.026582968785 0.026486283409 0.026335163632 0.026131167522 0.027823289258 0.028079287253 
0.028253642668 0.028394994247 0.028474376768 0.028491028747 0.028444834533 0.028336336564 0.028166707015 0.027937756988 0.029774130976 
0.03006434231 0.030256606999 0.030415573099 0.030504892311 0.030523684494 0.03047180441 0.030349860534 0.030159222357 0.029902005498 
0.03165306031 0.031994412938 0.032245354833 0.032438022868 0.032556396413 0.032598872301 0.032564690644 0.032454093315 0.032268149398 
0.032009040147 0.03392412882 0.034307516379 0.034595401579 0.034811797845 0.034944369347 0.034991184231 0.034951522703 0.034825559896 
0.03461485135 0.034321883671 0.036387227835 0.036818293044 0.037147966893 0.037391808603 0.037540911533 0.037593088203 0.037547452322 
0.037404458768 0.037165932668 0.036834795076 0.039057516814 0.039542456478 0.03991907505 0.040194453891 0.040362706592 0.040421314771 
0.040369304124 0.040207253617 0.039937290488 0.039563028948 0.021902440639 0.022061786094 0.022185819759 0.022270314875 0.022316119635 
0.022323004778 0.022290987212 0.022220426115 0.022112009046 0.021966730356 0.023289211783 0.023467208075 0.023611155425 0.02370420387 
0.023754312868 0.023761142092 0.023724724311 0.023645467099 0.023524149541 0.023361914991 0.024788101217 0.024987186111 0.025154071327 
0.025256629056 0.025311456474 0.025318142989 0.025276706739 0.025187605464 0.025051732727 0.02487039216 0.02640866371 0.026631546033 
0.026824595737 0.02693776657 0.026997836487 0.027004305244 0.026957176716 0.026856960106 0.026704671806 0.026501813527 0.028161021862 
0.028410770345 0.028633429341 0.028758491516 0.028824425995 0.028830622105 0.028777060321 0.028664311754 0.028493535011 0.028266463842 
0.030055867254 0.030335940596 0.030591886741 0.030730314739 0.030802844147 0.030808736395 0.030747935884 0.030621089159 0.030429514181 
0.030175198708 0.031916188294 0.032242626797 0.032503545962 0.032689785536 0.032803581797 0.032843421679 0.032808836575 0.03270016159 
0.0325187352 0.032266619129 0.034112408043 0.034477799602 0.034770424695 0.034979935934 0.035108049124 0.035153074063 0.0351144458 
0.034992589092 0.034789029103 0.0345061282 0.036486129596 0.036895474689 0.037223493523 0.037459350403 0.037603615223 0.037654430932 
0.037611188302 0.037474299819 0.037245595294 0.036927938568 0.03904939866 0.039508570338 0.039876193781 0.040141575788 0.040303999109 
0.040361294068 0.0403126919 0.04015882663 0.039901759895 0.039544973851 0.022277568828 0.022433628778 0.022553924202 0.022636159443 
0.022680360426 0.022686258224 0.022653894387 0.022583587706 0.022476065328 0.02233225575 0.0236471419 0.023820904099 0.023959054601 
0.024049387656 0.024097609623 0.024103381921 0.02406673928 0.023988079411 0.023868153074 0.023708055047 0.025122944143 0.025316610532 
0.025475233027 0.025574560172 0.025627189615 0.025632739112 0.025591236699 0.025503121916 0.02536925124 0.025190875131 0.026713396446 
0.026929472532 0.027111359071 0.027220640953 0.027278131112 0.027283366771 0.027236363107 0.027137612173 0.026988085908 0.026789213713 
0.028427382638 0.028668631296 0.028876742182 0.028997102758 0.02905998382 0.029064827227 0.029011628178 0.028900933989 0.028733849846 
0.028512011425 0.030274128479 0.030543648163 0.030781119903 0.030913844988 0.030982737888 0.030987126046 0.03092697352 0.030802895876 
0.030616147276 0.030368606788 0.032077605001 0.032393088991 0.03264381493 0.032823240989 0.032932766241 0.03297108148 0.032937696026 
0.032832950076 0.032658007868 0.03241482589 0.034200603556 0.034552141783 0.034832363824 0.035033354469 0.03515615921 0.03519929963 
0.035162057815 0.035045030155 0.034849524971 0.034577819501 0.036485243692 0.036877375408 0.037190327864 0.03741537763 0.037553002093 
0.037601388579 0.037559969867 0.037429124438 0.037210602867 0.036906885317 0.03894145315 0.039378909741 0.039728200898 0.039980308315 
0.040134497349 0.040188782369 0.040142506409 0.039996146486 0.039751662726 0.039412066002 0.022588297043 0.022740577923 0.022856850446 
0.02293665904 0.022979169808 0.022984138966 0.022951609909 0.022881925243 0.02277572026 0.02263391604 0.023936174245 0.024105186761 
0.024237398102 0.024324871376 0.024371146379 0.024375926514 0.024339222166 0.024261475609 0.024143379392 0.023985982135 0.02538431427 
0.025572061322 0.025722459462 0.025818340522 0.025868705597 0.025873182501 0.025831807065 0.025745006613 0.025613597495 0.025438772931 
0.026940100268 0.02714882512 0.027319784198 0.027424975105 0.02747981844 0.027483888785 0.027437210535 0.027340260914 0.02719396403 
0.026999677287 0.028611225413 0.028843451073 0.02903748223 0.029152947185 0.029212715212 0.029216278004 0.029163642657 0.029055340618 
0.028892416552 0.028676417603 0.030405628198 0.030664116772 0.030883855343 0.031010705858 0.031075917407 0.031078880009 0.031019578539 
0.030898604217 0.030717138362 0.030476943334 0.032149134982 0.032453035287 0.032693225761 0.032865601332 0.032970792675 0.033007580228 
0.032975498387 0.032874855704 0.032706718978 0.032472907989 0.03419585967 0.034533087541 0.034800673575 0.034992922451 0.035110316256 
0.035151463529 0.035115850754 0.03500385005 0.034816717507 0.034556553676 0.036389478427 0.036763904868 0.037061655252 0.037276027173 
0.037407019821 0.037453086427 0.037413429021 0.037288735774 0.03708039074 0.036790825248 0.03873773736 0.039153705423 0.039484745377 
0.039723601877 0.039869690036 0.039921027298 0.039877027543 0.039738170467 0.039506282569 0.039183977973 0.022839246755 0.022987371956 
0.023099462669 0.023176703914 0.023217494986 0.023221604164 0.023189082845 0.023120248939 0.023015718592 0.022876375025 0.024161709412 
0.024325564194 0.024451832816 0.02453629576 0.024580587938 0.024584442818 0.024547906665 0.024471347995 0.024355456618 0.0242012333 
0.025578456022 0.025759881981 0.025902228065 0.025994569203 0.026042641591 0.026046122206 0.026005023664 0.025919814598 0.025791247665 
0.025620456035 0.027095950127 0.02729696601 0.027457389988 0.02755834904 0.027610520567 0.027613502524 0.027567329495 0.027472459582 
0.027329771394 0.027140549927 0.028720820313 0.028943663507 0.02912424951 0.029234714627 0.029291360152 0.029293726546 0.029241835835 
0.029136196657 0.028977800081 0.028768103106 0.030459806849 0.030706970179 0.030909897393 0.03103080524 0.031092350349 0.031093983421 
0.031035709897 0.030918092945 0.030742250375 0.030509833445 0.032141533533 0.03243349407 0.032663002678 0.03282822676 0.03292904578 
0.032964320441 0.03293361671 0.03283721084 0.032676080746 0.032451894125 0.034110318117 0.034432975948 0.03468785306 0.034871335089 
0.034983344224 0.035022594744 0.034988607856 0.034881714372 0.034703067468 0.034454590653 0.036212281456 0.036569050222 0.036851703977 
0.037055417481 0.037179827587 0.037223478729 0.037185833065 0.037067306077 0.036869216353 0.036593792499 0.038453458301 0.038848001542 
0.03916107634 0.039387147907 0.039525280437 0.039573871266 0.039532072159 0.03940063261 0.039181004516 0.038875745358 0.023035008097 
0.023178681508 0.023286542183 0.023361136659 0.023400201593 0.023403521197 0.023371145423 0.023303392066 0.023200844912 0.023064346871 
0.024329014332 0.024487428186 0.024607860789 0.024689216623 0.024731522552 0.024734526968 0.024698281556 0.024623146737 0.024509771046 
0.02435911236 0.02571141983 0.025886234685 0.026020824848 0.026109534491 0.026155314308 0.026157874831 0.026117265691 0.026033883409 
0.02590846939 0.025742099808 0.027187833808 0.027380883208 0.02753128104 0.027627990098 0.027677509278 0.027679492523 0.027633983675 
0.027541393215 0.027402613475 0.027218830834 0.028763954155 0.02897723764 0.02914514924 0.029250590736 0.029304128731 0.029305394681 
0.029254403942 0.029151644796 0.02899805419 0.028795002471 0.030445477209 0.030681194423 0.030868357341 0.03098334005 0.031041281904 
0.031041694934 0.030984600745 0.030870539195 0.030700561364 0.030476214709 0.032064732951 0.032344577999 0.032563403386 0.032721474753 
0.032817939772 0.032851740946 0.032822467695 0.032730366176 0.032576332879 0.032361889023 0.033955019531 0.034263100506 0.034505370359 
0.034680174825 0.034786876037 0.034824286469 0.034791957751 0.034690190749 0.034520023119 0.03428322268 0.035965817412 0.036305088505 
0.036572885793 0.036766150841 0.03688415029 0.03692554738 0.036889849585 0.036777413552 0.036589454502 0.036327987391 0.038101802306 
0.038475465728 0.038771066147 0.038984639854 0.039115069921 0.039160849779 0.03912143089 0.038997246941 0.038789689187 0.038501070371 
0.023180061322 0.023319070532 0.02342274614 0.023494643676 0.023531993464 0.023534597164 0.023502507256 0.023436030017 0.023335722429 
0.023202389054 0.024443186716 0.024595961308 0.024710766204 0.024788980447 0.024829318229 0.024831550511 0.024795732736 0.024722207874 
0.024611603773 0.02446482543 0.025788979216 0.025957016095 0.026084246062 0.02616928781 0.026212804477 0.026214529149 0.026174518141 
0.026093153164 0.025971143437 0.025809498367 0.027222279004 0.02740721982 0.027548207613 0.027640641045 0.02768755592 0.027688629384 
0.027643920138 0.027553851802 0.027419213972 0.027241152799 0.028747941646 0.028951577902 0.029107687933 0.029208135625 0.029258679526 
0.029258951368 0.029208999093 0.029109290824 0.028960680831 0.028764515878 0.030370766337 0.030595047341 0.030767641977 0.030876788718 
0.030931214806 0.030930525342 0.030874741113 0.030764378129 0.030600425542 0.030384330838 0.031927794931 0.0321955096 0.032403755394 
0.032554754271 0.032646934535 0.032679312799 0.032651502005 0.032563719793 0.032416782068 0.032212084116 0.033739934281 0.034033577463 
0.034263463601 0.034429765444 0.034531284951 0.034566925895 0.034536269022 0.034439581254 0.034277804327 0.034052549813 0.035660944846 
0.035983093457 0.036236412959 0.036419531782 0.036531324423 0.036570566148 0.036536799559 0.036430342267 0.036252294147 0.036004485277 
0.037694378573 0.038047773257 0.038326475158 0.038528015479 0.038651067389 0.038694259407 0.038657086419 0.03853993804 0.038344063298 
0.038071559367 0.023278742114 0.023412946945 0.02351255764 0.023581740389 0.023617403981 0.023619366614 0.023587682899 0.023522648046 
0.02342479381 0.023294884268 0.02450911276 0.024656129516 0.024765589167 0.024840657183 0.024879064998 0.024880605298 0.024845337676 
0.024773591995 0.024665965319 0.024523316619 0.025816610152 0.02597778605 0.026098128409 0.026179523569 0.026220828987 0.026221805533 
0.026182515261 0.026103325293 0.025984904627 0.025828215863 0.027205391609 0.02738219494 0.027514467705 0.027602672525 0.027647044493 
0.027647305376 0.027603517235 0.027516086617 0.027385761234 0.027213620494 0.028679574098 0.028873599639 0.029018849025 0.029114389961 
0.029162014872 0.029161402754 0.029112603771 0.029016071152 0.028872639357 0.028683516601 0.030243159698 0.03045613357 0.030615390193 
0.030718844171 0.030769927044 0.030768261428 0.030713901083 0.030607339323 0.030449505845 0.030241753473 0.031738908317 0.031994600215 
0.032192497005 0.032336568604 0.032424571734 0.032455569285 0.032429237504 0.032345746626 0.03220583678 0.032010782155 0.033473962526 
0.033753457143 0.033971279209 0.034129304426 0.034225806048 0.034259758623 0.034230769965 0.03413907461 0.033985528841 0.033771586439 