# vtk DataFile Version 5.1
vtk output
ASCII
DATASET STRUCTURED_POINTS
DIMENSIONS 10 10 20
SPACING 0.1 0.1 0.1
ORIGIN 3.25 -0.45 0.55
POINT_DATA 2000
FIELD FieldData 1
potential 1 2000 double
0.011242262853 0.010897766621 0.01056091285 0.010213997402 0.0098698671577 0.009530114526 0.0091956108883 0.0088674291973 0.0085463857593 
0.0082329698174 0.012005982584 0.011620043861 0.011240502695 0.010853995874 0.010471554417 0.010094456204 0.009724320287 0.009361955788 
0.0090084583153 0.0086641346262 0.012850535473 0.012416542824 0.011987319455 0.011555136907 0.011128597022 0.010709238947 0.010298391291 
0.0098973129188 0.0095069368783 0.0091276369496 0.013797076127 0.013306696125 0.01281928641 0.012334228488 0.011856690047 0.011388399104 
0.010930971238 0.010485526448 0.010053202474 0.0096343831899 0.01486549679 0.014308815089 0.013752646605 0.013205939524 0.012669102183 
0.012144323357 0.011633075282 0.011136838578 0.010656402999 0.010192558208 0.016074372822 0.015439503102 0.014802033186 0.014183249607 
0.013577500797 0.012987006943 0.012413575355 0.011858863272 0.011323460561 0.010808256189 0.017531087149 0.016799385509 0.016059955967 
0.015355242903 0.01466563095 0.01399446597 0.013344472119 0.012717628352 0.012115332995 0.011538081808 0.019075148187 0.018236833893 
0.017377134888 0.016575083268 0.015792502771 0.015033646849 0.014301338177 0.013597827742 0.012924057529 0.012280849776 0.020799658632 
0.01983593525 0.018838828161 0.017922578378 0.017032125586 0.016171737661 0.015344888026 0.014553605518 0.013798879034 0.013081017994 
0.022709117927 0.021598479437 0.020444572328 0.019395616784 0.018380325773 0.017403459421 0.016468435378 0.015577618891 0.014731579983 
0.013930041886 0.012980248748 0.012585528965 0.012204801299 0.011807015809 0.011412146472 0.011022036628 0.01063779256 0.010260595855 
0.0098913711689 0.00953085856 0.013873609061 0.013431374705 0.013002347119 0.012558871935 0.012119888639 0.011686898399 0.011261589697 
0.010844919993 0.010438168142 0.010041904945 0.014857430505 0.014360329413 0.01387537385 0.013379802781 0.012890352529 0.012408831802 
0.011936804397 0.011475656331 0.01102646867 0.010589996636 0.015949513916 0.015388717075 0.014838714254 0.014283099757 0.013735692017 
0.013198604216 0.012673516076 0.012161786712 0.01166475594 0.011183081404 0.017167852699 0.016532857291 0.015906605272 0.015281779504 
0.014667718968 0.014066885801 0.013481034715 0.012911757629 0.01236034913 0.011827672282 0.018530382642 0.017808700834 0.017092993806 
0.016387990978 0.015697090658 0.015022840726 0.014367526351 0.01373269299 0.013119551073 0.012529058658 0.020147912731 0.019320904133 
0.018493366856 0.017693667178 0.016910624962 0.016147815209 0.015408243644 0.014694199441 0.01400735319 0.013348450192 0.021854363678 
0.020910765173 0.019954749594 0.01904812451 0.018162974911 0.017303743741 0.016473465234 0.015674501445 0.014908492201 0.014176346725 
0.023751668518 0.02267161787 0.021568279941 0.020537163128 0.019534119623 0.018563712077 0.017629531801 0.016734011631 0.015878492874 
0.015063768924 0.025854468291 0.024614789601 0.023342883475 0.022166858778 0.021027346876 0.01992925442 0.018876367237 0.017871186677 
0.016914860925 0.016007621154 0.014647645712 0.014206732073 0.013785810944 0.013340675782 0.012898919055 0.012462103603 0.01203160841 
0.01160875272 0.011194595374 0.010790050147 0.015653762169 0.015160087803 0.014686095239 0.014190521302 0.013699505157 0.013215122293 
0.012738778486 0.012272069584 0.01181595657 0.011371458983 0.016758462288 0.016204229283 0.015669058343 0.015115868095 0.014569092619 
0.014030756616 0.013502697844 0.012986457781 0.01248317863 0.011994025426 0.017977334017 0.017353380084 0.016747282782 0.016128166862 
0.015517663375 0.01491813355 0.014331431655 0.013759362202 0.013203113492 0.012663896619 0.019327042232 0.018622325277 0.017933853891 
0.017239117216 0.016555788098 0.015886388788 0.015233172266 0.014597804895 0.013981862923 0.013386381076 0.020824715709 0.020026414308 
0.019241786908 0.018460162622 0.017693330363 0.016944150435 0.016215249691 0.015508314301 0.014824878158 0.014166100719 0.022584868593 
0.021674184334 0.020771022572 0.019887300184 0.019021211281 0.018176744395 0.017357036781 0.016564822732 0.015801689836 0.015068901395 
0.024436457358 0.02340117369 0.022362977975 0.021364455611 0.020388909019 0.019440604236 0.018523095698 0.017638931335 0.016790197086 
0.015977726363 0.026488394857 0.02530803951 0.024114838329 0.022983525448 0.021881543018 0.020814116079 0.019784915254 0.018796738844 
0.01785123601 0.01694957523 0.028760661786 0.027410856916 0.026040109261 0.024754431019 0.023506851405 0.022302715298 0.021146249108 
0.020040059646 0.018985765297 0.017984130319 0.016234759435 0.015751699645 0.015294465415 0.0148064405 0.014321751798 0.013842134896 
0.0133691823 0.012904315568 0.012448714251 0.012003456928 0.017339025729 0.016799032617 0.016284858218 0.015742109756 0.015204106484 
0.014672840721 0.014150214436 0.013637570104 0.013136316026 0.012647521939 0.018548194133 0.017943095047 0.017363387597 0.016758532112 
0.016160278138 0.015570779544 0.014992031005 0.014425817959 0.013873388714 0.013336133567 0.019876577959 0.01919677948 0.01854145624 
0.017865865601 0.017199142104 0.016543764943 0.015901833284 0.015275373075 0.014665722254 0.014074078076 0.021339712972 0.02057394505 
0.019831168815 0.019074889607 0.018330264158 0.01760008046 0.016886831494 0.016192375706 0.015518520977 0.014866334095 0.022954079301 
0.0220892375 0.021245020417 0.020396480007 0.019563027734 0.018747991677 0.017953896618 0.017182970647 0.016436787278 0.015716861196 
0.02483660564 0.023854051087 0.022887989378 0.021931347783 0.020992874504 0.020076820683 0.019186761712 0.018325279994 0.017494437223 
0.016695745957 0.026812801354 0.025699970533 0.024593808197 0.023516546935 0.022462746767 0.021437083397 0.020443352033 0.019484561182 
0.018562792686 0.017679184506 0.028995676253 0.027731514984 0.026465166734 0.025248688897 0.0240623295 0.022911405529 0.021800065447 
0.020731192803 0.019707023452 0.018728734603 0.03140716132 0.029967080753 0.028517232255 0.027139993314 0.025801491666 0.024507406472 
0.023262260067 0.022069196711 0.02092998441 0.019845766557 0.017734339116 0.017213664296 0.016724341018 0.016197795345 0.015674433741 
0.015156167368 0.014644731923 0.014141663087 0.013648340514 0.013165884248 0.01892363909 0.018342660295 0.017793147344 0.017208453449 
0.016628479068 0.01605531363 0.015490888062 0.014936896444 0.014394786324 0.013865788233 0.02022237585 0.019572636104 0.018954202069 
0.018303825806 0.017659934375 0.017024903836 0.016401058226 0.015790004078 0.015193568995 0.014612843788 0.021643967748 0.02091568475 
0.02021798033 0.019493094111 0.018777017681 0.018072458433 0.017381714393 0.016706883847 0.01604961992 0.015411229589 0.023203087748 
0.022384923618 0.021595937547 0.020786411714 0.019988513289 0.019205334194 0.018439345667 0.017692928147 0.01696781722 0.016265306417 
0.024915598487 0.023994341844 0.023099967467 0.022194177951 0.02130351972 0.02043140175 0.019580739015 0.01875383511 0.017952702234 
0.017178759574 0.026899216328 0.025856863118 0.024840395095 0.023821854011 0.022821677121 0.021844221576 0.020893382957 0.019971893775 
0.019082047221 0.018225526961 0.028978001956 0.027801261619 0.026641713564 0.025498495135 0.024378830945 0.023287668619 0.022228961833 
0.021206046287 0.020221090469 0.019275629884 0.031265786443 0.029934147339 0.028611165445 0.027324734699 0.026068510497 0.024847895957 
0.023667338955 0.022530045994 0.021438570264 0.020394102028 0.033784828111 0.032273970715 0.030764538718 0.02931369191 0.027901195468 
0.026533307247 0.025214735344 0.023948803163 0.022737961884 0.02158339055 0.019141690847 0.018587960173 0.01807088115 0.017510225163 
0.016952514697 0.016399807706 0.015853986352 0.015316722219 0.01478945558 0.014273434215 0.020403612417 0.019786924018 0.019207318346 
0.018585807574 0.017968844159 0.017358642301 0.016757242239 0.016166473011 0.015587916599 0.01502288733 0.021777931099 0.021089779478 
0.020438562828 0.019748710213 0.019065058288 0.01839037275 0.017726735842 0.017076376075 0.016440788999 0.015821433232 0.023277341724 
0.022507884499 0.021774743685 0.021007596722 0.020249025368 0.019501830694 0.018768639586 0.018051586765 0.017352444277 0.016672853777 
0.024915732929 0.02405364871 0.023226449411 0.022371906893 0.021528717511 0.020700126424 0.019888838935 0.019097401551 0.018327589131 
0.017581084483 0.02670814215 0.02574034344 0.024805120862 0.02385156649 0.022912807111 0.021992506728 0.021093703204 0.02021888952 
0.019370341505 0.018549533993 0.028771641262 0.02768094142 0.026626270172 0.025556637807 0.02450508929 0.02347637652 0.022474213174 
0.021501823993 0.020561530574 0.019655297208 0.030930198822 0.029703131008 0.028504147176 0.02730757483 0.026134153294 0.024988966541 
0.023876402121 0.022799698911 0.021761370622 0.020763282757 0.03329698236 0.031913531446 0.030550069241 0.029208479291 0.027896347674 
0.026619468108 0.025382338808 0.024188751435 0.023041094495 0.021941041894 0.035892907046 0.03432975907 0.032779448956 0.031272042389 
0.029802132622 0.028376001517 0.026998726636 0.025673910102 0.024404328844 0.023191282208 0.020453661874 0.019871399755 0.01933099415 
0.01874067125 0.018152963231 0.017570096867 0.016994039376 0.01642655825 0.015869184296 0.015323280335 0.021776603156 0.021129473442 
0.020524636229 0.019871617147 0.019222732381 0.018580388174 0.017946758058 0.017323798063 0.016713174396 0.016116325434 0.023213351317 
0.022492898966 0.02181481802 0.021091362192 0.020373899884 0.019665064591 0.018967273497 0.018282644966 0.017612971237 0.016959816958 
0.024776038893 0.023972503722 0.023210757789 0.022408228429 0.021613790677 0.020830496873 0.020061123668 0.019307794247 0.018572648887 
0.017857217195 0.026477689677 0.025579850983 0.024722482898 0.023830803508 0.022950010876 0.022083389454 0.021234030497 0.020404336383 
0.019596446459 0.018812002925 0.028332442265 0.02732760062 0.026360723012 0.02536851991 0.02439055675 0.023430553491 0.022491708549 
0.021576932166 0.020688357059 0.019827669081 0.030455009554 0.029326931417 0.028245766398 0.027135411371 0.026042620101 0.024972130426 
0.023928019151 0.02291346413 0.021931248976 0.020983168469 0.032671629406 0.031406937268 0.030181796858 0.028943829374 0.027728138495 
0.026540171617 0.025384208792 0.024263868078 0.023181787817 0.022140016022 0.035092567787 0.03367203028 0.032283321196 0.030900345453 
0.029545698636 0.028225209007 0.026943874195 0.025705334858 0.024512368901 0.023367027592 0.037736870438 0.036138550268 0.034564581353 
0.033016822965 0.031504855467 0.030035246075 0.028613160517 0.027242781643 0.025926802861 0.024666988579 0.021668631852 0.02106236243 
0.020503025525 0.019887383651 0.019274007878 0.018665179589 0.018062962513 0.017469213904 0.016885576935 0.016313453141 0.023041466193 
0.022369120657 0.021744283691 0.021064693933 0.020388772473 0.019719071156 0.019057886036 0.018407230837 0.017768890342 0.017144366807 
0.024528390267 0.023781593639 0.023082496197 0.022331296689 0.021585564546 0.020848081888 0.020121373859 0.019407657991 0.018708851002 
0.018026576151 0.026140751158 0.025309930728 0.024526335212 0.023694999514 0.022871156532 0.022058115259 0.021258477184 0.020474855652 
0.019709181154 0.018963227511 0.027890656677 0.026964957845 0.026085080507 0.025163837899 0.024252772008 0.023355331479 0.022474671842 
0.021613401573 0.020773692267 0.019957506196 0.029791286207 0.028758314133 0.027768642078 0.026746461662 0.025737646714 0.024746092747 
0.023775143941 0.022827800775 0.021906295616 0.021012657895 0.031952993829 0.030797774697 0.029701267021 0.028559910995 0.027435299348 
0.026332278318 0.025254954608 0.024206859115 0.023190655927 0.0222084141 0.034207440491 0.032916892458 0.031678059719 0.03040982061 
0.029162765311 0.027942310448 0.026753043447 0.025598579331 0.024481902139 0.023405125086 0.036659804018 0.03521575874 0.033815814791 
0.032404187967 0.031019322912 0.029667238974 0.028352914355 0.027080361152 0.025852505197 0.024671560451 0.039327130867 0.0377089009 
0.036127291489 0.034553657698 0.033013725694 0.031514133222 0.030060320804 0.028656532443 0.027305794008 0.026010302648 0.022786306465 
0.022160343533 0.021586436358 0.020949732719 0.020314845128 0.019684127182 0.019059738642 0.018443606144 0.017837435742 0.017242724861 
0.024198645515 0.023505969198 0.022866176543 0.022164814754 0.021466621418 0.020774228102 0.020089981541 0.019416017205 0.01875417063 
0.018106057563 0.025724320326 0.024956799718 0.024242355554 0.023468890414 0.022700287262 0.021939408776 0.021188884364 0.02045103039 
0.01972783998 0.019021033599 0.027373621801 0.026521972262 0.025723050629 0.024869088856 0.024022053737 0.023185067222 0.022361129618 
0.021552656244 0.020761862311 0.019990544888 0.029157913699 0.028211647285 0.027316737608 0.026372982321 0.025438524581 0.024517005968 
0.023611631469 0.02272502791 0.021859678224 0.021017452435 0.031089171871 0.030036437828 0.029032420017 0.027988268829 0.026956455497 
0.025940919467 0.024945276654 0.023972400141 0.02302484767 0.022104578411 0.033271444049 0.032098551811 0.030997000453 0.029833663493 
0.02868601025 0.027558991576 0.026456766002 0.025383004845 0.024340461452 0.02333129007 0.035545385109 0.034239642151 0.032998586727 
0.031710219254 0.03044170207 0.029198486075 0.02798521368 0.026805630081 0.025662906848 0.024559243476 0.038009014191 0.036553514981 
0.035155016796 0.033726223851 0.032322351009 0.030949496021 0.029612765748 0.028316188816 0.02706307009 0.025855689033 0.040677034856 
0.039052650064 0.037477474648 0.035890925342 0.034335613239 0.032818270415 0.031344476743 0.029918626982 0.028543949906 0.027222862652 
0.023807377729 0.023165888534 0.022581709924 0.021927977971 0.021275556318 0.020626876731 0.01998414597 0.019349359039 0.018724292763 
0.01811049424 0.025249544194 0.024541293985 0.023891418572 0.023172846895 0.022456876277 0.02174618292 0.021043205442 0.020350114114 
0.019668845444 0.019001057282 0.026803279087 0.026020328523 0.025296241257 0.024505646888 0.023719214307 0.02293991785 0.022170434408 
0.021413142043 0.020670130734 0.019943183996 0.028478004715 0.027611525028 0.026803511881 0.025932839777 0.025068253224 0.024213017935 
0.023370114148 0.022542112705 0.021731262336 0.020939485422 0.030284029838 0.029323967776 0.028421054767 0.027461305402 0.026509973589 
0.025570698338 0.024646615659 0.023740718275 0.022855347627 0.021992546294 0.032232159036 0.031167279463 0.030156892002 0.029098123456 
0.028050475319 0.027018103848 0.026004474192 0.02501277007 0.024045458309 0.023104857435 0.034417924912 0.03323593623 0.032138790593 
0.030961611693 0.029798938652 0.02865569101 0.027536267816 0.026444200545 0.025382397255 0.024353178798 0.036695076573 0.035383745595 
0.034150734046 0.032851474805 0.031570467809 0.030313230873 0.029084390297 0.027888005106 0.026727128562 0.025604131412 0.039152417545 
0.037696100329 0.036310404391 0.034874619731 0.033461777685 0.032077942656 0.030728254043 0.029416869826 0.028147256396 0.026921833568 
0.041802367163 0.040183544685 0.038627189986 0.037039026005 0.035479441014 0.033955188574 0.03247192484 0.031034105246 0.029645306593 
0.028308033271 0.024733510396 0.024080391335 0.023490134989 0.022823173549 0.022156989947 0.021494051679 0.020836621381 0.020186742928 
0.019546240666 0.01891672093 0.026196609998 0.025477173252 0.024821928357 0.024090420386 0.023360888375 0.022636054127 0.02191840177 
0.021210170029 0.020513328934 0.019829608579 0.027768656278 0.026975282382 0.026246826076 0.025443868355 0.024644346147 0.023851271107 
0.023067368971 0.022295074908 0.021536536539 0.020793601221 0.029458340625 0.028582520789 0.027771448579 0.026889383572 0.026012518266 
0.025144182576 0.024287381472 0.023444768665 0.022618661343 0.021811038103 0.031274670645 0.030306987904 0.029402793896 0.028433072609 
0.02747066873 0.026519350826 0.025582342701 0.02466255119 0.023762463627 0.022884196677 0.033227454711 0.032157315199 0.03114799363 
0.030081249233 0.029024335281 0.027981478353 0.02695623087 0.025951668786 0.024970603839 0.024015230184 0.035401339613 0.034217866384 
0.03313359595 0.031949881694 0.03077934853 0.029627071801 0.028497309696 0.027393638265 0.026319184321 0.025276205885 0.037667552559 
0.036359035632 0.035143313225 0.033841198481 0.032555677112 0.031292192674 0.030055594738 0.028849780179 0.02767794509 0.026542670722 
0.040103644723 0.03865573722 0.037292703242 0.035858909172 0.034445866246 0.033059651895 0.031705381017 0.030387478665 0.029109306947 
0.027873495174 0.042719787006 0.041116589505 0.039589717708 0.038009625741 0.036455399858 0.034933718038 0.033450227373 0.032009473814 
0.030615233239 0.029270137993 0.02556707532 0.024906004704 0.024313705664 0.023637044592 0.022960605465 0.02228688554 0.021618178111 
0.020956564288 0.020303906838 0.01966186005 0.027042999643 0.026316442082 0.025660378026 0.024919867248 0.024180678469 0.023445563544 
0.022717038959 0.021997374624 0.02128859346 0.020592467472 0.028624605091 0.0278253288 0.027097566398 0.026286630632 0.02547835895 
0.024675784529 0.023881667978 0.023098488552 0.022328429972 0.021573399067 0.030319702316 0.029439624123 0.028631200576 0.027742581911 
0.026858247916 0.025981550895 0.025115520167 0.024262848102 0.023425903124 0.022606723274 0.032136385618 0.031166667106 0.03026739967 
0.029293092447 0.028325020855 0.027366888655 0.026422017127 0.025493342032 0.024583414189 0.023694408749 0.034083104052 0.033013787186 
0.032012483859 0.030943636341 0.029883408379 0.028835782263 0.02780450902 0.026792752288 0.025803236324 0.02483827383 0.036231442052 
0.035053195511 0.033989269989 0.032805436404 0.031633491208 0.030478416296 0.029344522477 0.028235391454 0.027154208164 0.026103326232 
0.038474716906 0.037176319855 0.035985843652 0.034687892808 0.033404788966 0.032142088064 0.030904451719 0.029695859658 0.028519605512 
0.027378257154 0.040877036782 0.039445429932 0.038113606053 0.036689362664 0.035283688807 0.033902556916 0.032551232732 0.031233985597 
0.02995431494 0.02871500555 0.043446638344 0.041867426095 0.040379006595 0.038815234071 0.037274513755 0.035763467714 0.034287671264 
0.03285192914 0.031459899487 0.030114446316 0.026311091693 0.025645449237 0.025054967745 0.024371857786 0.02368840069 0.023007111681 
0.022330302881 0.021660077101 0.020998336328 0.02034676191 0.027792500454 0.027062566823 0.026410007935 0.02566408032 0.024918808626 
0.02417695548 0.023441056223 0.022713402532 0.021996050036 0.021290815384 0.029375849816 0.02857477078 0.027852526716 0.027037566049 
0.026224479914 0.025416308512 0.024615828255 0.023825538931 0.023047660503 0.02228414511 0.031068042353 0.030188250405 0.029387765694 
0.028496942682 0.027609468906 0.026728689457 0.025857645434 0.024999059088 0.024155330208 0.023328549133 0.032876256547 0.031909370376 
0.031021054344 0.030046884961 0.029077831596 0.028117584683 0.027169470428 0.026236450819 0.025321114974 0.024425689782 0.034807761844 
0.033744677295 0.03275778129 0.031692039956 0.030633562013 0.029586380123 0.028554135171 0.027540043307 0.026546891752 0.025577053619 
0.036918518828 0.035751265314 0.034714175473 0.033535773897 0.032368037903 0.031215782385 0.030083220994 0.028974124036 0.027891548239 
0.026837976634 0.0391288426 0.037846790602 0.036688371497 0.035400577924 0.034125969798 0.032869991985 0.03163724505 0.03043179246 
0.029256857522 0.02811524739 0.041487235583 0.040078506246 0.038785006942 0.03737672069 0.035984813374 0.034615296292 0.033273239631 
0.031962969182 0.030688040506 0.029451256118 0.044000112637 0.042451817171 0.041009268417 0.039468517196 0.037948094515 0.036454461043 
0.034993300147 0.033569243462 0.032186095563 0.030846809644 0.026962530163 0.026294372428 0.025709118965 0.025020945826 0.024332752444 
0.023646874397 0.022965469294 0.022290499733 0.021623749853 0.020966803671 0.028440874936 0.027709659819 0.027067807312 0.02631732372 
0.025567870656 0.024822013033 0.024082111307 0.023350306155 0.02262852119 0.021918461888 0.030017839291 0.029217118591 0.028512077159 
0.027693303916 0.026876810942 0.026065422363 0.025261717753 0.024468029758 0.023686439761 0.022918772522 0.031699952973 0.030822644532 
0.030046914954 0.029153327705 0.028263501965 0.027380546607 0.026507289471 0.025646266029 0.024799721747 0.023969613376 0.033493907385 
0.032532263942 0.031677356196 0.030701847576 0.029731850285 0.028770787008 0.027821754159 0.02688751186 0.025970480916 0.02507275042 
0.03540655806 0.034352043306 0.033408408297 0.032343255743 0.031285671451 0.030239426646 0.029207911435 0.028194125743 0.027200676727 
0.026229787601 0.037491942851 0.036346950743 0.03527189483 0.034118334694 0.032972469495 0.031838886802 0.030721491939 0.029623761392 
0.028548695598 0.027498822277 0.039660128483 0.038405021253 0.037217541601 0.035957170326 0.034707445097 0.033473190959 0.032258685351 
0.031067810002 0.029903646617 0.028768946711 0.041963870793 0.040587835333 0.039278864304 0.037901591742 0.036538311387 0.035194336195 
0.033874348997 0.032582439087 0.031321920919 0.030095711093 0.044408460873 0.042899852244 0.041459375028 0.039954437225 0.038467345683 
0.037004050389 0.035569616051 0.034168384732 0.032803960172 0.031479156032 0.027538538943 0.026871608329 0.026290754456 0.025602658962 
0.024913879398 0.024226743077 0.023543407521 0.022865853664 0.022195876714 0.021535085658 0.029009801646 0.028281595204 0.027645923497 
0.026897123621 0.026148584598 0.025402860665 0.024662304991 0.023929073039 0.02320510266 0.02249212035 0.0305752067 0.029779685507 
0.029082987333 0.028267884702 0.027454164491 0.026644632734 0.025841864783 0.02504819339 0.024265718382 0.02349629011 0.032240473655 
0.031371052161 0.030606291552 0.02971880538 0.028834033233 0.027955053352 0.027084682205 0.026225455283 0.025379636384 0.024549207375 
0.034011400739 0.033060900331 0.032220149464 0.031253698339 0.030291527348 0.029337019698 0.028393252254 0.02746297907 0.026548638774 
0.025652350037 0.03589376247 0.034854394776 0.033928769149 0.032876247384 0.031829842176 0.0307932716 0.029769895845 0.028762706287 
0.027774326011 0.026807015123 0.037926517176 0.036801288944 0.035756895091 0.03461927816 0.033487959017 0.032367292877 0.031261184849 
0.030173082996 0.029105987933 0.028062451818 0.040046432821 0.038816849701 0.037665992157 0.036426744806 0.035196234982 0.033979298099 
0.032780203219 0.031602640231 0.030449811555 0.029324411511 0.042291311683 0.04094762209 0.039682079371 0.038332063401 0.036993786332 
0.035672439115 0.034372610604 0.033098403799 0.031853132957 0.030639729543 0.044665125189 0.043196957911 0.041807873169 0.040337368715 
0.038882060746 0.037447627074 0.036039061299 0.034660695532 0.033316084691 0.032008301315 0.028036290698 0.027373079812 0.026797993543 
0.026112634527 0.025425927912 0.024740188291 0.024057568149 0.023380046703 0.022709425365 0.022047328042 0.029495131434 0.028772615 
0.028144629868 0.027400374291 0.026655613006 0.025912878426 0.025174515504 0.024442674231 0.023719298203 0.023006129773 0.031043449624 
0.030255996503 0.029569289325 0.028760913323 0.027953033161 0.027148421521 0.026349636159 0.025559008104 0.024778635242 0.024010385561 
0.032686203978 0.031827710252 0.031075710065 0.030197574695 0.029321120389 0.028449383304 0.027585151481 0.026730955119 0.025889056109 
0.025061453325 0.034428350945 0.033492204464 0.032667536281 0.031713572424 0.030762681301 0.029818191845 0.02888314206 0.027960276011 
0.027052029028 0.026160538374 0.036274747645 0.035253809982 0.034348242088 0.033311938268 0.032280335388 0.031257081084 0.030245487176 
0.029248527059 0.028268820659 0.027308647301 0.038250165802 0.037148211796 0.036136470012 0.035018597425 0.03390558555 0.032801680296 
0.031710705228 0.030636064188 0.029580733545 0.028547280482 0.040316512133 0.039115883964 0.038003663422 0.036789371574 0.035582115768 
0.034386533676 0.033206783959 0.032046533221 0.030908971215 0.029796805764 0.042497636164 0.041189671931 0.039969690025 0.038650765302 
0.037341387541 0.036046666413 0.034771160506 0.033518776526 0.032292911513 0.031096421235 0.044796370112 0.043371825358 0.042036038973 
0.040603840986 0.039184241822 0.037782709328 0.036404117471 0.035052813737 0.033732300775 0.032445693117 0.02846017395 0.027802890378 
0.027234785711 0.0265545215 0.025872261245 0.025190299171 0.024510768019 0.023835636285 0.02316670651 0.022505609711 0.029901977872 
0.029187495077 0.028568517059 0.027831317446 0.027092862277 0.026355656977 0.025622022437 0.024894093039 0.024173811017 0.023462925637 
0.031428486423 0.030651584939 0.029976294414 0.029177303422 0.028377942552 0.027580944271 0.026788836265 0.026003932357 0.025228325563 
0.024463888779 0.033043964921 0.032199001252 0.031461287422 0.030595294598 0.029729978744 0.028868323566 0.02801308072 0.02716675417 
0.026331599041 0.0255096195 0.034752597066 0.033833498936 0.033026523768 0.032087957075 0.031151293218 0.03021979374 0.029296452822 
0.028383981246 0.027484805961 0.026601069285 0.036558402506 0.035558652916 0.034674816256 0.033657729298 0.032643977059 0.031637123329 
0.030640425439 0.029656816069 0.02868890463 0.027738976525 0.038473078735 0.037397080428 0.036419335611 0.035324336318 0.034232815932 
0.033148892534 0.032076302649 0.031018384692 0.029978081045 0.028957949852 0.040481752949 0.039312807034 0.038240582939 0.037054382659 
0.035873540952 0.034702550908 0.033545464576 0.03240588004 0.03128695064 0.030191382191 0.042595580266 0.041325878761 0.040152602022 
0.038867827891 0.037590620772 0.036325878348 0.035077988839 0.033850831003 0.032647763114 0.031471646548 0.044816392001 0.043437787125 
0.04215642628 0.040765381414 0.039384430241 0.038018933136 0.03667371381 0.035352873477 0.034059992558 0.032798082857 0.028814683472 
0.028165255916 0.027605203214 0.026932107763 0.02625639179 0.02558031237 0.024905979197 0.024235346053 0.023570205654 0.022912188777 
0.03023550341 0.029531088171 0.028922260835 0.028194298453 0.027464362899 0.02673491253 0.026008239425 0.025286457123 0.02457149619 
0.023865103966 0.031736233928 0.030971998788 0.030309343329 0.02952202196 0.028733498527 0.027946454219 0.027163377203 0.026386553892 
0.025618063431 0.024859776555 0.033320500741 0.032491252348 0.031769103967 0.030917626596 0.030065858837 0.029216726168 0.028372929516 
0.027536939845 0.026710997441 0.025897101467 0.034991790577 0.034091968868 0.033304011578 0.032383271852 0.031463313292 0.030547326068 
0.029638242342 0.028738734383 0.027851207529 0.026977799083 0.036753377713 0.035777047129 0.034916279268 0.033920866366 0.032927485053 
0.031939610221 0.030960425745 0.029992818298 0.029039370766 0.028102363718 0.038604842746 0.037556952086 0.036613971184 0.035544374559 
0.034476944042 0.033415666143 0.032364168814 0.031325715681 0.030303203152 0.029299162483 0.040552942017 0.039417682281 0.038386157097 
0.037230510911 0.036078640398 0.034934885018 0.03380317577 0.032687028763 0.031589541244 0.030513406168 0.042597078283 0.041367513957 
0.040241532422 0.03899323848 0.03775061256 0.036518372428 0.035300773357 0.034101594307 0.032924148412 0.031771278639 0.044738311101 
0.043407162919 0.042180432639 0.040832645871 0.039492726632 0.038165800266 0.036856462308 0.035568775215 0.034306262334 0.033071925605 
0.029104336191 0.028464437717 0.027913368352 0.02724924376 0.026581897984 0.025913549405 0.025246275645 0.024582007162 0.023922520905 
0.023269441447 0.03050084743 0.029808236846 0.029210545583 0.028493699179 0.027774189541 0.027054427795 0.026336666002 0.025622989621 
0.024915311659 0.024215369981 0.031972519188 0.031222735219 0.030573742542 0.029800027452 0.029024316841 0.028249232257 0.027477215442 
0.026710518338 0.025951198647 0.025201114703 0.033522389482 0.032710665583 0.03200514054 0.031170152061 0.030333959802 0.02949941362 
0.028669160347 0.027845631248 0.027031036888 0.02622736543 0.035153323747 0.034274579729 0.033506708456 0.032605785245 0.031704586931 
0.030806213378 0.029913531952 0.029029166152 0.028155488179 0.027294624212 0.03686793464 0.035916780887 0.035080131517 0.034108362007 
0.033137397757 0.032170611418 0.031211107795 0.030261716056 0.029324983073 0.028403173234 0.038654584627 0.037636432786 0.036728485896 
0.035686289151 0.034645029391 0.033608547578 0.032580357469 0.031563636237 0.030561220197 0.029575607387 0.04054013306 0.039440025231 
0.038449359243 0.03732614534 0.036205232235 0.035090793663 0.033986631471 0.032896165754 0.031822429775 0.030768082316 0.042513221211 
0.041324988221 0.040246272135 0.039036150144 0.037829934109 0.036632154546 0.035446919457 0.034277902685 0.033128349627 0.032001071075 
0.04457420387 0.043291437751 0.042119061874 0.040815958638 0.039518628003 0.038231981692 0.036960450421 0.035707981354 0.034478025992 
0.033273557953 0.029333619101 0.028704680359 0.028163394166 0.027509785183 0.026852387506 0.026193372844 0.025534780569 0.02487851243 
0.024226324755 0.02357982758 0.030703070236 0.030023724563 0.029438002407 0.028733859416 0.028026401865 0.027317985941 0.026610818656 
0.025906950306 0.025208268156 0.024516495494 0.032143017826 0.031409161344 0.030774685409 0.03001619113 0.029254952739 0.028493526918 
0.027734301442 0.026979487021 0.026231111113 0.025491014828 0.033655976881 0.03286324193 0.032175200917 0.031358321734 0.030539376325 
0.029721138799 0.02890619207 0.028096918719 0.02729549509 0.026503888729 0.035244260382 0.034388016879 0.033641072431 0.032761562708 
0.031880783745 0.031001745584 0.030127240247 0.029259835094 0.028401864639 0.027555428294 0.036909899231 0.035985263171 0.035173525652 
0.034226936563 0.033280005972 0.032335998595 0.031397933955 0.030468575243 0.029550424135 0.028645718864 0.038630869629 0.03764363369 
0.036770569939 0.035757300592 0.034743826551 0.033733837969 0.03273072836 0.031737577308 0.030757150869 0.029791901407 0.040452699763 
0.03938872029 0.038438618309 0.037349207719 0.036260734324 0.035177201917 0.034102275144 0.033039267844 0.0319911399 0.030960497108 