# vtk DataFile Version 5.1
vtk output
ASCII
DATASET STRUCTURED_POINTS
DIMENSIONS 10 10 20
SPACING 0.1 0.1 0.1
ORIGIN 3.25 -0.45 0.55
POINT_DATA 2000
FIELD FieldData 1
potential 1 2000 double
0.0036284543741 0.0035033948422 0.0032610734218 0.0031606645722 0.0030637954371 0.0029702771298 0.0028799786155 0.0027928050966 0.0027086619985 
0.0026274261927 0.0037225775964 0.0035918822308 0.0033449751281 0.0032405249339 0.0031396274966 0.0030421098131 0.0029478700944 0.0028568394457 
0.0027689444455 0.0026840886632 0.0038187320369 0.0036821515605 0.0034312140414 0.0033226439823 0.0032175909777 0.0031159129715 0.0030175366158 
0.0029224288542 0.0028305442292 0.0027418323028 0.0039199080493 0.0037770412243 0.0035230291615 0.0034101444691 0.0033006921333 0.0031945678216 
0.0030917494963 0.0029922332546 0.0028960263903 0.0028031220775 0.0040279658154 0.0038783347149 0.0036227267521 0.0035052273993 0.003391016707 
0.0032800710926 0.0031724026654 0.003068074234 0.0029671244141 0.0028696129805 0.0041436513291 0.00398672424 0.0037316910027 0.0036091737431 
0.0034897724774 0.0033735265327 0.003260526575 0.0031508944338 0.0030447217955 0.0029421280212 0.0042504742597 0.0040821258925 0.0038417502464 
0.0037043526903 0.0035745449942 0.0034513188672 0.0033338273463 0.0032213516082 0.0031132619192 0.0030090613034 0.004383894139 0.0042068118683 
0.00397693529 0.0038277352924 0.0036872593657 0.0035544928076 0.0034285476512 0.0033086550351 0.0031941024768 0.0030843149274 0.0045208871196 
0.0043346240688 0.0041156449558 0.0039549284481 0.0038039724965 0.0036617319686 0.0035273172329 0.00339991221 0.0032787449346 0.0031631463454 
0.0046571938868 0.0044615618801 0.0042534792678 0.0040817515525 0.0039206882868 0.0037692445524 0.0036265165572 0.0034916616105 0.003363857841 
0.0032423649306 0.0042193092268 0.0040741471101 0.0038062755285 0.0036880054006 0.0035740544281 0.0034641915279 0.0033582225597 0.0032560136426 
0.0031574372782 0.0030623787505 0.0043351770331 0.0041831673794 0.0039087188186 0.003785418268 0.0036665197347 0.0035518074444 0.0034411203136 
0.0033343291437 0.0032313306572 0.0031320294792 0.004453618053 0.004294477683 0.0040139335824 0.0038854979519 0.0037615026459 0.0036417578976 
0.0035261309895 0.003414525549 0.0033068613031 0.0032030774997 0.0045763448542 0.0044096968459 0.0041239557634 0.0039901846728 0.0038608499264 
0.0037358039144 0.003614946487 0.0034982123213 0.0033855670273 0.0032769823673 0.004704509581 0.0045299212182 0.004240417899 0.0041010380553 
0.0039660446793 0.0038353423884 0.003708876 0.0035866323145 0.0034686181984 0.0033548456434 0.0048385532527 0.0046555458368 0.0043644033196 
0.0042190582824 0.0040780119436 0.0039412234231 0.0038087076048 0.0036805068952 0.0035566700022 0.0034372676169 0.0049614628874 0.0047671037256 
0.0044853957948 0.0043252117838 0.0041734835137 0.0040291619143 0.0038913812945 0.0037594111795 0.0036326493623 0.0035106145784 0.0051090174151 
0.0049048065107 0.0046313852444 0.0044587608862 0.0042958018966 0.0041414319107 0.0039947173534 0.0038548671622 0.0037212003197 0.0035931656481 
0.0052590601911 0.0050445746353 0.0047800325699 0.0045952443909 0.0044212316758 0.0042568738219 0.0041012043352 0.003953378117 0.0038126485753 
0.0036783862344 0.0054090473184 0.0051840249358 0.0049284899856 0.0047319361128 0.0045471571128 0.0043729975937 0.0042084679377 0.004052676594 
0.0039048293105 0.0037642242441 0.0048028503381 0.0046381699416 0.0043461573439 0.0042103659263 0.0040796405356 0.0039537094718 0.0038323459442 
0.0037153789011 0.0036026530821 0.0034940399313 0.004937943953 0.0047653254712 0.0044649928833 0.0043232509214 0.0041867257527 0.0040551656361 
0.0039283606757 0.003806146375 0.0036883838477 0.0035749567142 0.0050761867934 0.004895314505 0.0045870648925 0.0044392280115 0.0042967227896 
0.0041593189462 0.0040268349573 0.0038991224923 0.0037760685341 0.0036575750529 0.005218489653 0.0050290003951 0.0047136665386 0.0045595221632 
0.0044107892352 0.0042672679973 0.004128801949 0.0039952775969 0.0038666145623 0.003742746774 0.0053654796096 0.0051669550244 0.0048459295903 
0.0046851971526 0.0045299232626 0.0043799373134 0.0042351309837 0.0040954226449 0.0039607762212 0.0038311618759 0.0055173097693 0.0053093045659 
0.0049846408161 0.0048169917731 0.004654793572 0.0044979361406 0.0043463671308 0.0042000505766 0.0040589891275 0.0039232003054 0.0056562253819 
0.0054368378391 0.0051142126926 0.004932325407 0.0047596611449 0.0045951637227 0.0044379537048 0.0042872956293 0.0041425938099 0.0040033908331 
0.0058190520817 0.0055886867089 0.0052721287851 0.0050770894056 0.0048925761022 0.0047174607448 0.0045507947988 0.0043917656593 0.004239710313 
0.0040940756994 0.0059840280748 0.0057422499812 0.0054325460918 0.0052245978084 0.0050283502775 0.0048426477407 0.0046664732851 0.0044989620685 
0.004339363195 0.0041870599478 0.0061496089902 0.0058960868986 0.005593515838 0.0053729605259 0.0051651971941 0.0049690175793 0.004783373385 
0.0046073341015 0.0044400951299 0.0042809695979 0.0053768354708 0.0051933113141 0.0048786533408 0.0047257682018 0.0045786633551 0.0044370337284 
0.0043006314442 0.0041692494218 0.0040427064476 0.0039208524356 0.0055294720911 0.0053370195069 0.0050124979428 0.0048527871567 0.0046990836223 
0.0045510929383 0.0044085684737 0.0042713125662 0.0041391604296 0.0040119636965 0.0056857521876 0.0054840375146 0.0051499909432 0.0049832665885 
0.004822749169 0.0046681502349 0.00451924593 0.0043758486304 0.0042378131983 0.0041050080293 0.0058461222435 0.0056347695841 0.0052919691556 
0.0051180029989 0.0049504011035 0.0047889021562 0.0046333019564 0.0044834463109 0.0043392075916 0.0042004749067 0.0060108450497 0.0057894380146 
0.0054392160768 0.0052577173957 0.0050827074754 0.0049139569134 0.0047513050082 0.004594616994 0.0044437989862 0.0042987784912 0.0061798673162 
0.0059479725775 0.0055923289719 0.0054029519351 0.0052201519461 0.0050437523752 0.0048736275448 0.0047096833723 0.0045518649242 0.0044001394921 
0.0063343040412 0.0060909186614 0.0057282034947 0.0055257202734 0.0053331406269 0.0051494094159 0.0049736351151 0.0048050829975 0.0046431709235 
0.0044874524257 0.0065128565893 0.0062574018099 0.005898516588 0.0056821527268 0.0054770721063 0.0052821297053 0.0050963624452 0.0049189543253 
0.0047492362494 0.0045866616677 0.0066935194152 0.0064255204633 0.0060714855231 0.0058414129782 0.0056238985469 0.00541773586 0.0052218916497 
0.0050354716412 0.0048577291848 0.0046880402465 0.0068753257957 0.0065943994111 0.0062456711191 0.006002125281 0.0057723185862 0.0055549868538 
0.0053490375421 0.0051535228954 0.0049676106386 0.0047906143806 0.0059395302353 0.0057379118714 0.0054021503588 0.0052326793307 0.0050696685825 
0.004912789098 0.0047617684848 0.0046163704008 0.0044763978796 0.0043416671349 0.0061084511478 0.005897012501 0.005550007708 0.0053728772981 
0.0052025069127 0.0050385650233 0.0048807821342 0.0047289241618 0.0045827957045 0.0044422200112 0.0062814462825 0.0060598207877 0.005701864144 
0.0055168474547 0.0053388620545 0.0051675868063 0.005002756079 0.0048441466446 0.0046915770297 0.004544878636 0.0064586683411 0.0062264673858 
0.0058582796672 0.0056651153804 0.0054792240358 0.0053003007501 0.0051280923551 0.0049624048039 0.0048030602845 0.0046499189454 0.0066401526398 
0.0063969607312 0.006019812449 0.0058181879124 0.0056240451854 0.0054371119158 0.0052571556987 0.0050840045637 0.0049175158591 0.004757563829 
0.0068257103046 0.0065710928963 0.0061869228422 0.0059764727671 0.0057736897604 0.0055783311971 0.0053902056876 0.0052091678365 0.0050351087809 
0.0048679366523 0.0069948247262 0.0067285383282 0.0063269419172 0.0061050158458 0.0058935873343 0.0056915920222 0.0054981448871 0.0053125138748 
0.0051341280899 0.0049625521268 0.0071890601355 0.0069096507293 0.0065096462464 0.0062731125529 0.006048529818 0.0058347466771 0.0056307800836 
0.0054358173543 0.005249186224 0.0050703479243 0.0073854712852 0.007092445711 0.006695293539 0.0064442603887 0.0062065436832 0.0059809073265 
0.0057662951626 0.0055618048745 0.0053666823112 0.0051802964092 0.0075834360682 0.0072763666526 0.0068827442243 0.0066173739999 0.0063665911095 
0.006129097937 0.0059037674319 0.0056896187667 0.0054858182359 0.0052916594748 0.0064895354062 0.0062706454276 0.0059153305309 0.0057298481233 
0.0055514691016 0.0053798480022 0.0052146898301 0.0050557376633 0.0049027635624 0.004755565455 0.0066737176696 0.0064441883911 0.0060763975495 
0.005882459713 0.0056959940364 0.0055166473835 0.0053441158556 0.0051781434429 0.0050185013808 0.0048649875853 0.0068623328438 0.0066217796708 
0.0062417607669 0.006039106156 0.0058442668208 0.0056568896656 0.0054766768111 0.0053033773944 0.0051367637366 0.0049766390613 0.0070553685299 
0.0068033835304 0.0064118175415 0.006200146087 0.0059966111893 0.0058008647244 0.005612627864 0.0054316495397 0.0052577250639 0.0050906637285 
0.0072527099321 0.006988873523 0.0065869740974 0.0063659428186 0.006153344801 0.0059488542704 0.0057521996783 0.0055631597747 0.0053815413289 
0.0052071728726 0.0074540870033 0.007177962195 0.0067676007983 0.0065368157967 0.0063147404587 0.0061010762459 0.0058955732828 0.005698033017 
0.0055082949621 0.0053262085848 0.0076367517682 0.0073487143882 0.0069098099542 0.0066696507309 0.0064404787139 0.0062212356545 0.006011032154 
0.0058091578436 0.0056150464542 0.0054282798761 0.0078462704125 0.0075441318852 0.0071045629466 0.0068490937081 0.006606144701 0.0063745536919 
0.0061533372565 0.0059416781352 0.0057389094144 0.0055445068436 0.0080580807359 0.0077413231682 0.0073026051448 0.0070318752188 0.0067751097267 
0.0065310625988 0.0062986549201 0.0060769821627 0.0058652789093 0.0056629175136 0.0082717420048 0.0079399103589 0.0075029676724 0.0072170647495 
0.0069464958567 0.0066899308811 0.0064462161319 0.0062143536639 0.0059934964627 0.0057829246671 0.0070256895874 0.0067904016916 0.0064170620633 
0.0062162051737 0.0060230591366 0.005837264864 0.0056585048523 0.0054865009736 0.0053210025415 0.0051617882055 0.0072242212081 0.0069775477884 
0.006590621556 0.0063805540786 0.006178631402 0.0059844779164 0.0057977659161 0.0056182139857 0.0054455653421 0.0052795930076 0.0074274996302 
0.0071690391109 0.0067687418506 0.0065491612071 0.006338140389 0.0061352980847 0.0059403050801 0.0057528757155 0.0055727540463 0.0053997169814 
0.0076354038345 0.0073647436915 0.0069517114417 0.0067222819465 0.0065018099562 0.0062899151367 0.0060862746675 0.0058906064351 0.0057026618723 
0.0055222207027 0.0078477285482 0.0075644358975 0.0071398359131 0.0069001819153 0.0066698681797 0.0064485188623 0.0062358254045 0.0060315182346 
0.0058353593194 0.0056471423363 0.0080641496756 0.0077677871113 0.0073334168726 0.0070831157009 0.0068425205672 0.0066112701902 0.0063890725195 
0.006175681862 0.0059708792012 0.0057744681338 0.0082590130217 0.0079504220523 0.0074761243272 0.0072189998909 0.0069732392356 0.0067377907431 
0.0065117883707 0.0062945264629 0.0060854595246 0.0058841757249 0.008483204215 0.0081596172863 0.0076823490343 0.007409256547 0.0071491343096 
0.0069008229213 0.0066633434291 0.0064358838481 0.0062177831771 0.0060085255098 0.008709794979 0.0083706772792 0.0078922337036 0.0076031574372 
0.0073285828405 0.0070672471155 0.0068180756408 0.0065801500114 0.0063527063248 0.0061351256834 0.0089384567526 0.008583330358 0.0081048960226 
0.0077998627817 0.0075107888821 0.007236322006 0.0069752911677 0.0067266909714 0.0064896570811 0.0062634624645 0.0075470031964 0.0072962378844 
0.0069063517591 0.0066908168778 0.0064835635017 0.0062842125028 0.0060924313437 0.0059079229695 0.0057304222947 0.0055596776908 0.007759030042 
0.0074962095125 0.0070917207252 0.0068662615058 0.006649574881 0.0064412657821 0.0062409906005 0.0060484374193 0.0058633321791 0.0056854168296 
0.0079760768322 0.0077007852841 0.0072818832428 0.0070461576115 0.0068196868093 0.0066020668428 0.0063929417501 0.0061919960918 0.0059989504196 
0.0058135452652 0.0081979581515 0.0079097709628 0.0074770538726 0.0072306893362 0.0069940507336 0.0067667309242 0.0065483710481 0.0063386559966 
0.0061373045492 0.0059440618002 0.0084244052924 0.0081228898901 0.0076774681047 0.0074200565952 0.0071728309105 0.00693538412 0.0067073676296 
0.0064884682981 0.0062784133234 0.0060769512087 0.0086550556596 0.008339767401 0.0078833736998 0.0076144580748 0.0073561798285 0.0071081424636 
0.0068700019697 0.0066414656549 0.0064222659367 0.0062121665166 0.008860586119 0.0085326764031 0.0080252382873 0.0077524598966 0.0074913039359 
0.007240737977 0.0069999130293 0.0067681455683 0.0065449006182 0.0063297944637 0.009098694865 0.0087549926797 0.0082421893693 0.0079528387326 
0.0076767896734 0.0074128909613 0.0071601758824 0.0069178400012 0.0066852359528 0.0064618620282 0.0093392971649 0.0089792438682 0.0084631796195 
0.0081571789008 0.0078660921296 0.0075886558692 0.0073237917022 0.0070705872841 0.0068282814721 0.0065962566427 0.0095821226542 0.0092052240274 
0.0086873637967 0.008364680628 0.0080584576879 0.0077673281383 0.0074901120444 0.0072257919982 0.0069734993373 0.0067325124966 0.0080526323498 
0.0077873416896 0.0073823188106 0.0071528584695 0.0069322002152 0.0067199539323 0.006515776642 0.0063193556837 0.0061304039988 0.0059486593988 
0.0082773286209 0.007999382021 0.0075788123435 0.0073387537047 0.0071080496161 0.0068862907461 0.0066731082469 0.0064681799986 0.0062712032482 
0.0060819046526 0.0085072877793 0.0082162641394 0.0077803078034 0.0075292731635 0.0072881404127 0.0070564827072 0.0068339211095 0.0066201199507 
0.0064147694503 0.0062175864916 0.0087422741082 0.0084377422696 0.0079869624056 0.0077245431815 0.0074725679967 0.0072306020457 0.0069982565217 
0.0067751880363 0.0065610871281 0.0063556640867 0.0089819838637 0.0086635053597 0.0081989603963 0.0079247135391 0.0076614475002 0.0074087250416 
0.00716615479 0.0069333941462 0.0067101292913 0.0064960785319 0.0092260193248 0.0088931507582 0.0084164971415 0.0081299383673 0.0078548944258 
0.0075909246519 0.0073376494385 0.0070947277971 0.0068618541464 0.0066387486159 0.0094405530252 0.0090945937008 0.0085565738935 0.0082694954215 
0.0079941738441 0.0077296049632 0.0074749607351 0.0072295809587 0.0069929561992 0.0067647251568 0.0096917355507 0.0093292757692 0.008783381404 
0.0084791881902 0.008188502298 0.0079101911138 0.0076432995978 0.0073870390459 0.0071407810576 0.0069040361056 0.0099454787605 0.0095659567194 
0.009014604206 0.0086931640706 0.0083869185727 0.0080946126826 0.0078151740951 0.0075476940142 0.007291427185 0.0070457598463 0.010201545931 
0.0098044517245 0.0092494088481 0.0089106328992 0.0085886798451 0.0082821821354 0.007989954076 0.0077109766868 0.0074443832079 0.0071894505678 
0.008541844538 0.0082630092282 0.0078441805509 0.0076015891284 0.0073682726571 0.007143838268 0.006927928024 0.0067202173716 0.0065204085494 
0.0063282188247 0.0087783997863 0.0084863786357 0.0080510995349 0.00779728405 0.0075533538232 0.0073188858118 0.0070935026826 0.0068768582429 
0.0066686390907 0.0064685458821 0.0090204325457 0.0087147988935 0.008263201567 0.0079977487385 0.0077427895685 0.0074978812615 0.0072626274827 
0.0070366678045 0.0068196750775 0.0066113390616 0.0092676713438 0.0089479942586 0.0084805994151 0.0082030677394 0.0079366390076 0.0076808539323 
0.0074353063547 0.0071996240777 0.0069734677448 0.0067565227672 0.0095197803231 0.0091856201911 0.0087034345158 0.0084133445266 0.0081349711698 
0.007867843633 0.0076115435108 0.0073656957592 0.007129957328 0.0069040086639 0.0097763367047 0.0094272558345 0.0089318596533 0.0086286989977 
0.0083378639495 0.0080588829961 0.0077913355235 0.007534844375 0.0072890674497 0.0070536851372 0.0099981215596 0.0096353936504 0.0090696621764 
0.0087696666034 0.0084814385185 0.0082040010303 0.0079365599052 0.0076784790063 0.0074292806495 0.007188625968 0.01026147148 0.009881637227 
0.0093053564296 0.008987782457 0.0086837877144 0.0083922651279 0.0081122782602 0.0078430656601 0.007584013392 0.0073346562044 0.010527435006 
0.010129922683 0.0095458429018 0.0092104967864 0.00889049174 0.0085845870559 0.0082917198779 0.0080109985706 0.0077416866048 0.0074831914059 
0.010795783807 0.010380077972 0.0097902755685 0.0094370197759 0.0091008094579 0.0087802802733 0.0084742521498 0.00818170976 0.0079017969448 
0.0076337937781 0.0090140220345 0.0087226368116 0.0082912375994 0.0080363510276 0.0077911653645 0.0075552817442 0.0073283365037 0.0071099963104 
0.0068999492527 0.0066979009806 0.0092616320599 0.0089566029134 0.0085078605241 0.0082411740179 0.007984850775 0.0077384601031 0.0075016128605 
0.0072739535424 0.0070551474719 0.0068448815031 0.0095149064385 0.0091958040538 0.0087298226956 0.0084508879632 0.0081829838539 0.0079256555085 
0.0076784904314 0.0074411125276 0.0072131724203 0.0069943398968 0.0097735515201 0.0094399451311 0.0089571984979 0.0086655425148 0.0083855904658 
0.0081168657128 0.0078589400132 0.0076114211937 0.0073739463866 0.0071461736759 0.010037201192 0.0096886543456 0.0091900865713 0.0088852018368 
0.0085927001927 0.0083120913877 0.0080429320916 0.0077848189372 0.0075373797533 0.0073002656642 0.010305412253 0.0099414953361 0.0094286042577 
0.0091099456351 0.0088043539288 0.00851133356 0.0082304292753 0.0079612334978 0.0077033668754 0.007456477775 0.010532632208 0.010154418055 
0.009564152885 0.009252651184 0.0089527921234 0.0086636421981 0.0083844366608 0.0081145748177 0.0078536101572 0.0076012413545 0.010807218923 
0.010411390912 0.0098076960261 0.0094782302731 0.0091622824737 0.0088587690598 0.0085667920752 0.0082856089931 0.0080146352827 0.0077534300683 
0.011084446673 0.010670429318 0.010056395449 0.0097087210077 0.0093763872946 0.0090581781754 0.0087530530783 0.0084601402531 0.0081787198539 
0.0079082189804 0.011364087993 0.010931365632 0.010309394531 0.0099433170082 0.0095943597394 0.0092611740198 0.0089425887447 0.0086375995158 
0.0083453622516 0.0080651733617 0.0094686380667 0.0091657119314 0.0087228784805 0.0084565653133 0.0082003301373 0.0079537711316 0.0077165212181 
0.0074882390678 0.0072686032964 0.0070573085209 0.0097265072928 0.0094095444956 0.00894845803 0.0086698232007 0.0084019761641 0.0081444831259 
0.0078969466804 0.0076589991802 0.0074302952568 0.007210505587 0.0099902036755 0.0096587788516 0.0091795058505 0.008888068346 0.0086081407716 
0.0083392596135 0.0080810018058 0.0078329767167 0.0075948170629 0.007366175535 0.01025941519 0.0099130992217 0.0094160636469 0.0091113193626 
0.0088188174901 0.0085380701087 0.008268632387 0.0080100926777 0.0077620674309 0.0075241929308 0.010533752603 0.010172118702 0.009658191807 
0.0093396047852 0.0090340049832 0.0087408830199 0.0084597758058 0.0081902568543 0.0079319284942 0.0076844145755 0.010812752647 0.010435377544 
0.0099059669709 0.0095729628154 0.0092537037885 0.0089476635157 0.0086543632262 0.0083733668415 0.0081042664518 0.0078466754156 0.011043566055 
0.010651139266 0.010039835345 0.0097182515687 0.009408054139 0.0091083523897 0.0088184215023 0.0085377028774 0.0082657839276 0.0080023974807 
0.011328446326 0.010917996066 0.010290129603 0.009950282787 0.0096237492259 0.009309488963 0.0090066315019 0.0087144696207 0.0084324494886 
0.0081601618633 0.011615972864 0.011186923849 0.010545936393 0.010187530235 0.0098443229495 0.0095151265196 0.0091989305127 0.0088948856984 
0.0086022991669 0.0083206231554 0.01190591919 0.01145775486 0.010806377166 0.010429171232 0.010069009152 0.0097245616892 0.0093946770716 
0.0090783756805 0.0087748252982 0.0084833443587 0.0099052600985 0.0095918017466 0.0091385704078 0.0088617318959 0.0085952950467 0.008338861755 
0.0080920625225 0.0078545505778 0.0076259996159 0.0074060939112 0.010172599703 0.0098447776078 0.0093723357365 0.0090827074163 0.0088042380143 
0.0085364918376 0.0082790676599 0.0080315888256 0.0077937003185 0.0075650627006 0.010445910081 0.010103304938 0.0096116715422 0.0093087442628 
0.0090177481474 0.0087382151999 0.0084697139668 0.0082118421524 0.0079642193929 0.0077264838384 0.010724859737 0.010367049733 0.0098565892318 
0.0095398295624 0.0092357897688 0.0089439720315 0.0086639192325 0.0083952055635 0.0081374300352 0.0078902107174 0.01100904217 0.010635611723 
0.01010711283 0.0097759586334 0.0094583283249 0.0091537000566 0.0088615933028 0.0085815628736 0.0083131898287 0.0080560745927 0.011297977684 
0.010908513395 0.010363278496 0.010017132154 0.0096853305699 0.0093673313263 0.0090626354059 0.0087707810143 0.0084913349777 0.0082238847414 
0.011530538696 0.011125152798 0.01049663969 0.010166404381 0.0098471643894 0.0095380754247 0.0092384614071 0.0089478034144 0.0086657346816 
0.0083920274315 0.011824771783 0.011401048594 0.010752540313 0.010403833113 0.010068096963 0.00974433273 0.0094317105532 0.0091295624067 
0.008837371134 0.0085547608686 0.012121637797 0.011679003779 0.011014300891 0.010646778191 0.010294163665 0.0099553093897 0.0096292346522 
0.0093151245528 0.0090123158674 0.0087202905869 0.012420905976 0.011958851899 0.011281020108 0.010894395303 0.010524583847 0.010170284806 
0.009830378057 0.0095039030444 0.0091900561982 0.0088881787722 0.010322015132 0.010000693204 0.0095357470607 0.0092508428156 0.0089764594456 
0.0087120964997 0.0084573060914 0.0082116854929 0.0079748766721 0.0077465566192 0.010594602507 0.010258206347 0.0097691663223 0.0094734137427 
0.0091885810027 0.0089141535473 0.0086496730516 0.008394730243 0.0081489611858 0.0079120409719 0.010872640847 0.010520541902 0.010007005357 
0.0097002095411 0.0094047153731 0.0091199982391 0.0088455915024 0.0085810819288 0.0083261039087 0.0080803315619 0.01115592889 0.010787483703 
0.010249413225 0.0099313569629 0.0096249678232 0.0093297133522 0.0090451232891 0.0087707824991 0.0085063253343 0.0082514294957 0.01144422374 
0.011058784176 0.010496577529 0.010167016258 0.0098494711463 0.0095434053123 0.0092483478349 0.0089638855329 0.0086896561608 0.0084253426525 
0.011737246932 0.011334152492 0.010748724375 0.010407379356 0.010078384162 0.0097612014083 0.0094553624851 0.0091604591844 0.0088761361968 
0.0086020838989 0.012006364137 0.011585175592 0.010981128476 0.01061355982 0.01026299935 0.0099284523918 0.0096089975709 0.0093037755406 
0.0090119852664 0.0087328712789 0.012306175027 0.01186718661 0.011251306869 0.010867509116 0.010501632886 0.010152650017 0.0098196091982 
0.0095016257711 0.0091978703002 0.0089075662138 0.012609742892 0.012152459601 0.011522844174 0.011122997602 0.010741943753 0.010378624995 
0.010032064463 0.0097013535532 0.0093856422159 0.0090841316971 0.012916539341 0.012440504817 0.011795328565 0.011379607286 0.010983508891 
0.010605954177 0.010245941748 0.00990254221 0.0095748875195 0.0092621626252 0.010721541345 0.010391554469 0.0099199356428 0.0096261854652 
0.0093431800033 0.0090704243697 0.008807472865 0.0085539244879 0.0083094164075 0.008073620992 0.011001872756 0.010656603219 0.010160070746 
0.0098551385754 0.0095613838071 0.0092782959396 0.0090054157354 0.0087423328067 0.0084886769085 0.0082441146125 0.011287719611 0.010926549841 
0.010404665011 0.010088335291 0.0097836027192 0.0094899436604 0.0092068895606 0.008934020618 0.0086709632215 0.008417380944 0.011578860397 
0.011201167461 0.010653840934 0.010325876845 0.010009917433 0.0097054280094 0.0094119330485 0.0091290083944 0.0088562773466 0.0085934033452 
0.01187503891 0.01148018821 0.010907755207 0.010567893519 0.010240431985 0.0099248281926 0.0096206022991 0.0093273279992 0.0090446288216 
0.0087721700222 0.012175951191 0.011763305069 0.011166597493 0.010814543793 0.01047527423 0.010148242271 0.0098329662035 0.0095290210862 
0.0092360330579 0.0089536721504 0.012447461914 0.012016392744 0.011402313773 0.011026436018 0.010667394853 0.010324234624 0.0099960681443 
0.0096820672269 0.0093814600659 0.0090935175408 0.012754700585 0.012305652186 0.011677035227 0.011284873173 0.010910488566 0.01055288796 
0.010211149392 0.0098844149319 0.0095718810596 0.0092727918187 0.013065609143 0.012598094856 0.011953317849 0.011545009131 0.011155381676 
0.010783407319 0.01042813507 0.010088675061 0.009764198107 0.0094539243761 0.013379662132 0.012893235317 0.012230738251 0.011806417181 
0.011401646352 0.011015367867 0.010646599404 0.010294428797 0.0099580026271 0.0096365166833 0.011102341236 0.01076467363 0.010288474299 
0.00998662479 0.0096957019924 0.0094152202103 0.0091447392916 0.0088838596424 0.008632217415 0.0083894815759 0.011389546587 0.01103644497 
0.010534785105 0.010221455954 0.009919516727 0.0096284634733 0.0093478409014 0.0090772374529 0.0088162795977 0.0085646286242 0.011682300246 
0.011313162453 0.010785575323 0.010460532336 0.01014733332 0.0098454584363 0.0095544401206 0.0092738565791 0.009003326796 0.0087425068888 
0.011980363451 0.011594585118 0.011040941712 0.010703930228 0.010379208583 0.010066243224 0.0097645559006 0.0094737177985 0.0091933427926 
0.0089230833011 0.012283462608 0.011880429765 0.011301009501 0.010951750978 0.010615219307 0.010290871031 0.0099782194206 0.0096768308689 
0.0093863159508 0.0091063263399 0.012591276786 0.012170374873 0.011565933331 0.011204119566 0.010855462567 0.010519410863 0.010195472625 
0.0098832118107 0.0095822384633 0.009292205216 0.012865139677 0.012425641559 0.011803598946 0.011420307386 0.011053643719 0.010702695993 
0.010366615142 0.010044610327 0.0097359396771 0.0094399078443 0.01317885859 0.012721266473 0.012082369901 0.011682776493 0.011300774444 
0.010935409357 0.010585794525 0.010251101906 0.0099305592863 0.0096234365545 0.013496142856 0.01301997898 0.012362882761 0.01194708603 
0.011549811517 0.011170064321 0.010806922999 0.010459527913 0.010127073582 0.0098088016147 0.013816465612 0.013321295307 0.012644698015 
0.012212797477 0.011800317797 0.011406228798 0.011029577071 0.010669470806 0.010325076228 0.0099956096829 0.011464363671 0.01111997575 
0.010641149593 0.010331953526 0.010033825866 0.0097462932214 0.0094689215882 0.0092013146361 0.0089431101658 0.0086939758269 0.011757601348 
0.011397680153 0.010893085621 0.010572149423 0.010262771219 0.00996445766 0.0096767582246 0.0093992626367 0.0091315965388 0.0088734183133 
0.012056388139 0.011680355177 0.011149503493 0.010816575718 0.010495690904 0.010186336686 0.0098880485478 0.0096004038487 0.0093230188327 
0.0090555434998 0.012360475654 0.011967742004 0.011410472647 0.01106528396 0.010732618119 0.010411946435 0.010102791482 0.0098047207693 
0.0095173426653 0.0092403011876 0.012669570724 0.012259546868 0.011676088117 0.011318347187 0.010973603649 0.01064131523 0.010320994209 
0.010012200188 0.0097145358414 0.0094276415841 0.01298333656 0.012555429696 0.011946470167 0.011575857242 0.011218712556 0.010874482635 
0.010542671607 0.01022283342 0.0099145673917 0.0096175120519 0.01325951611 0.012812989399 0.01218505103 0.011795235485 0.011421802054 
0.011063886012 0.010720683363 0.010391442505 0.010075458451 0.0097720697799 0.013578800817 0.013114125538 0.012467359435 0.01206126428 
0.011672531606 0.011300251336 0.010943576819 0.010601716523 0.010273931083 0.0099595215304 0.013901524175 0.013418235532 0.012751568376 
0.012329255665 0.011925256563 0.011538617867 0.011168452296 0.010813934041 0.010474286137 0.010148777855 0.014227167002 0.013724840865 
0.013037225844 0.012598761044 0.012179533816 0.011778548451 0.011394884797 0.011027678431 0.01067612127 0.010339451644 0.011807639508 
0.011457460863 0.010977809754 0.010662022643 0.010357406993 0.010063500984 0.0097798803429 0.0095061548141 0.0092419646491 0.0089869782656 
0.01210609589 0.011740339662 0.011234814409 0.010907063093 0.010590996707 0.010286131392 0.0099920249019 0.0097082707938 0.0094344961477 
0.0091703574759 0.012410078101 0.012028183973 0.011496284014 0.011156304018 0.010828519778 0.010512428134 0.010207569513 0.0099135238044 
0.009629906152 0.0093563633374 0.012719325084 0.012320726348 0.011762262913 0.011409772602 0.011069986634 0.010742384753 0.010426492104 
0.010121876177 0.0098281426149 0.0095449298441 0.013033528765 0.012617659727 0.012032816067 0.011667512102 0.01131542012 0.010976004015 
0.010648776075 0.010333293579 0.010029153672 0.0097359886196 0.013352339551 0.012918631618 0.012308028639 0.011929582673 0.01156485582 
0.011213298027 0.010874410793 0.010547743086 0.010232885682 0.0099294664743 0.013630799057 0.013178590272 0.012546800532 0.012151336294 
0.011771972734 0.011407898092 0.011058355085 0.010722636144 0.010400077728 0.010090054014 0.013954768414 0.013484412177 0.012832122082 
0.012420441656 0.0120258539 0.011647498133 0.011284571695 0.010936324539 0.010602052177 0.010281093333 0.014282035528 0.013793080209 
0.013119482196 0.012691613321 0.01228180336 0.011889144552 0.011512791437 0.011151952454 0.01080588756 0.010473896345 0.014612083504 
0.0141041201 0.013408415745 0.012964392801 0.012539370657 0.012132397347 0.011742585355 0.011369107103 0.011011183882 0.010668081846 
0.012132270594 0.011777202789 0.011298363852 0.010976739197 0.010666349708 0.010366748465 0.010077521778 0.0097982869594 0.0095286888907 
0.0092683980574 0.012435163613 0.012064521539 0.011559877091 0.01122610271 0.010904096901 0.010593389484 0.010293546881 0.010004169154 
0.0097248864792 0.0094553558723 0.012743539159 0.012356781314 0.011825821138 0.01147962065 0.011145722653 0.010823635479 0.010512907419 
0.010213122641 0.0099238978539 0.0096448782715 0.013057119615 0.012653704899 0.012096214648 0.011737295784 0.011391214419 0.011057459119 
0.010735561428 0.010425091353 0.010125653494 0.0098368832276 0.013375586266 0.012954971134 0.012371093261 0.011999144327 0.011640569421 
0.011294839189 0.010961470068 0.010640019572 0.010330081708 0.010031283778 0.013698575753 0.013260219949 0.01265050849 0.012265194637 
0.011893793408 0.011535759674 0.011190596465 0.010857850551 0.010537107512 0.010227987445 0.013979276702 0.013522672847 0.012889038395 
0.012488780736 0.012104309155 0.011734867104 0.011379748741 0.011038294068 0.010709883534 0.010393933258 0.014307088024 0.013832388827 
0.013176842587 0.012760473449 0.012360888657 0.011977280158 0.011608893899 0.011255024459 0.010915008568 0.010588223371 0.014638041556 
0.014144809957 0.013466802781 0.013034318352 0.012619593623 0.012221770945 0.011840049956 0.01147368089 0.011121961912 0.010784228102 