# vtk DataFile Version 5.1
vtk output
ASCII
DATASET STRUCTURED_POINTS
DIMENSIONS 10 10 20
SPACING 0.1 0.1 0.1
ORIGIN 3.25 -0.45 0.55
POINT_DATA 2000
FIELD FieldData 1
potential 1 2000 double
0.00082262966855 0.00080602196132 0.00078306206744 0.00076870529414 0.00075468721865 0.00074100232899 0.00072764755029 0.00071461871571 0.00070190331666 
0.00068947715647 0.00082819991221 0.00081131789224 0.0007876753764 0.00077316016947 0.00075897688869 0.0007451185747 0.00073158398231 0.0007183699568 
0.000705464346 0.00069284440349 0.00083367975514 0.00081652836749 0.00079229274858 0.00077760840004 0.00076324743693 0.00074920450674 0.00073547790498 
0.00072206512154 0.00070895471946 0.00069612888944 0.00083977166726 0.0008223392546 0.00079761454712 0.00078273961275 0.00076817959751 0.00075392838024 
0.00073998704009 0.0007263519539 0.00071301500993 0.00069996184475 0.00084691891831 0.00082918873739 0.000804094284 0.00078900006279 0.00077420933169 
0.0007597215827 0.00074553544418 0.00073165188207 0.00071806169174 0.00070475563449 0.00085531577943 0.00083726563884 0.00081194391633 0.00079659339447 
0.00078153837185 0.00076677882904 0.00075231707274 0.00073815484145 0.00072428431271 0.00071069897807 0.00086915543612 0.00085171294851 0.00081251131819 
0.00079513607878 0.0007785040957 0.00076258190128 0.00074733750156 0.0007327346006 0.00071872704418 0.00070527077109 0.00088247322906 0.00086462724401 
0.00082719242791 0.00080941771934 0.00079238464253 0.00077606718004 0.00076043608019 0.0007454572161 0.00073108227351 0.00071726535689 0.00089628348053 
0.00087801600933 0.00084217928847 0.00082401874623 0.00080660235063 0.00078990468772 0.00077390346977 0.0007585655352 0.00074384014533 0.0007296758783 
0.00090977341217 0.00089109305551 0.00085670513212 0.00083819516403 0.00082043013592 0.00080338853335 0.00078705007358 0.0007713810164 0.00075632966638 
0.00074184109081 0.00096319508469 0.00094380660467 0.00091809961755 0.00090113101697 0.00088457954444 0.00086843554857 0.00085268783281 0.00083732883574 
0.00082234541528 0.00080772278743 0.0009715472749 0.00095180405085 0.00092530557817 0.00090810574076 0.00089131813575 0.00087493298785 0.00085894268313 
0.00084333758788 0.00082810642452 0.00081323535743 0.00097985217002 0.00095975809485 0.00093256242591 0.00091512293355 0.0008980898188 0.00088145441408 
0.00086520987882 0.00084934792558 0.00083385832146 0.00081872958994 0.00098852424504 0.00096807341823 0.0009402902165 0.00092259327296 0.00090529735893 
0.00088839496981 0.00087187940862 0.00085574335634 0.00083997867213 0.00082457625531 0.00099785801473 0.00097704157172 0.00094879790825 0.00093082122079 
0.0009132396913 0.00089604752347 0.0008792383505 0.00086280704008 0.00084674722316 0.00083105040907 0.0010079968929 0.00098680137218 0.00095824729452 
0.00093996351862 0.00092207040407 0.00090456191169 0.00088743491757 0.00087068547944 0.00085430705111 0.0008382945689 0.0010226367697 0.0010018404915 
0.00096134218809 0.0009408846226 0.00092127589724 0.00090247133142 0.00088443039783 0.00086711086654 0.00085046810596 0.00083445732951 0.0010367632328 
0.0010155275219 0.00097671836956 0.00095582987944 0.00093579222663 0.00091656609317 0.00089811103624 0.00088038575966 0.00086334563645 0.00084694692795 
0.0010511283842 0.0010294439247 0.00099216286307 0.00097086298682 0.00095041827955 0.00093078955864 0.00091193901422 0.00089382684958 0.00087640738984 
0.00085963510452 0.0010652549759 0.0010431274946 0.0010072246066 0.00098554327 0.00096472139004 0.00094471909525 0.0009255016616 0.00090702727512 
0.00088925152001 0.00087212709719 0.0011035866953 0.0010814270056 0.0010531008682 0.001033535706 0.0010144626646 0.00099586855866 0.00097773958341 
0.00096006538837 0.00094283282396 0.00092602961984 0.0011142584084 0.0010916726873 0.0010624566563 0.0010425959319 0.0010232243585 0.0010043303845 
0.000985902171 0.00096792854076 0.00095039733436 0.00093329708703 0.0011249415184 0.0011019321773 0.0010719214437 0.001051756211 0.0010320777067 
0.0010128751518 0.00099413790908 0.00097585502794 0.00095801605383 0.00094061014553 0.0011358733776 0.0011124398647 0.0010817459039 0.0010612620706 
0.0010412627743 0.0010217378063 0.001002676655 0.00098406976704 0.00096590881239 0.00094818473426 0.0011472353999 0.0011233729361 0.0010921295733 
0.0010713078162 0.0010509697646 0.0010311037922 0.0010117015159 0.00099275349451 0.00097425351072 0.00095619422451 0.0011591165238 0.0011348184262 
0.001103179337 0.0010820005352 0.0010613019577 0.0010410744474 0.001021311279 0.0010020038974 0.00098314604224 0.00096473202161 0.0011746620872 
0.0011505560017 0.0011088463032 0.0010853452791 0.001062790054 0.0010411319689 0.0010203249593 0.0010003213289 0.00098107457817 0.00096254008289 
0.0011899384232 0.0011653492234 0.0011252535632 0.0011012795872 0.0010782596985 0.0010561437662 0.0010348870552 0.0010144424455 0.00099476577125 
0.00097581035623 0.0012053467024 0.0011802683603 0.0011416274022 0.0011172044249 0.0010937389365 0.0010711857114 0.0010494989015 0.0010286337775 
0.0010085434801 0.00098918313819 0.0012206078386 0.0011950420103 0.0011577042495 0.001132857709 0.0011089747027 0.001086008661 0.0010639168353 
0.001042652485 0.0010221699112 0.00100242459 0.0012434661121 0.0012185554931 0.0011877375934 0.00116559481 0.0011440169474 0.0011229879572 
0.0011024937943 0.0010825214849 0.0010630569872 0.0010440887429 0.0012561968645 0.0012307946282 0.0011989950489 0.0011764969381 0.0011545644116 
0.0011331823598 0.0011123368151 0.0010920152328 0.0010722058172 0.0010528965068 0.0012689854979 0.0012430952529 0.0012104089389 0.0011875459367 
0.0011652501075 0.0011435056445 0.0011222998034 0.0011016199444 0.0010814559632 0.0010617968193 0.001281966719 0.0012555890718 0.0012221282518 
0.0011988895987 0.0011762176337 0.0011540982266 0.0011325186241 0.001111468344 0.0010909376121 0.001070915598 0.0012952452237 0.001268377439 
0.0012342780045 0.0012106478411 0.0011875845723 0.0011650741959 0.0011431068424 0.0011216711256 0.0011007575994 0.0010803590497 0.0013088684672 
0.0012815080924 0.0012469288534 0.001222889445 0.0011994171522 0.0011764999342 0.0011541275802 0.0011322890563 0.0011109770721 0.0010901848979 
0.0013254004581 0.0012980310195 0.0012551561028 0.0012286474804 0.0012031789542 0.0011786988094 0.0011551552727 0.0011324982812 0.0011106793745 
0.0010896509618 0.0013420405551 0.0013141398685 0.0012728063974 0.0012457797052 0.0012198031193 0.0011948229847 0.0011707898179 0.0011476542062 
0.0011253683594 0.0011038836418 0.0013587686948 0.0013303296408 0.0012903823008 0.0012628598025 0.0012363954016 0.0012109362531 0.0011864337524 
0.0011628383246 0.0011401021106 0.0011181775161 0.0013754227859 0.0013464449708 0.001307729349 0.0012797362706 0.0012528086432 0.0012268936986 
0.0012019428879 0.001177908515 0.0011547403257 0.0011323940108 0.0013825967522 0.0013549632515 0.0013217827848 0.0012970848028 0.0012730228483 
0.0012495793057 0.0012267387617 0.0012044865373 0.0011828095055 0.0011616936749 0.0013972306906 0.0013690461693 0.0013347967913 0.0013096877217 
0.0012852179093 0.0012613701792 0.0012381301638 0.0012154826999 0.0011934155231 0.0011719155442 0.0014119587272 0.00138322521 0.0013480019032 
0.001322472052 0.0012975850933 0.0012733244638 0.0012496748763 0.0012266226448 0.0012041565067 0.0011822639703 0.0014268530377 0.0013975714888 
0.0013614874504 0.0013355265017 0.0013102112112 0.0012855255773 0.001261454526 0.0012379867391 0.0012151093719 0.0011928128602 0.0014419703346 
0.0014121406037 0.0013753312618 0.0013489256934 0.001323167765 0.0012980435085 0.0012735378202 0.0012496393682 0.0012263380015 0.0012036233392 
0.0014573308776 0.0014269519009 0.0013895786593 0.0013627129626 0.0013364980754 0.0013109195783 0.0012859642473 0.0012616207737 0.0012378796425 
0.0012147325815 0.0014749119698 0.0014443326394 0.0014003043454 0.0013708247084 0.0013424777384 0.0013152078213 0.0012889606412 0.0012636827412 
0.0012393237799 0.001215833376 0.0014930378964 0.0014618738409 0.0014193240331 0.0013892777536 0.0013603756498 0.0013325621944 0.0013057827041 
0.0012799857278 0.0012551204436 0.0012311359222 0.0015112355954 0.0014794807545 0.0014382549369 0.0014076643178 0.0013782282838 0.0013498908536 
0.0013225987151 0.0012963005444 0.0012709458205 0.0012464844946 0.0015294134745 0.0014970656176 0.0014570086714 0.001425897241 0.0013959492549 
0.0013671095391 0.001339325464 0.00131254504 0.0012867179845 0.0012617960962 0.001520801444 0.0014904824309 0.0014550706267 0.0014278422412 
0.0014013190077 0.0013754828023 0.0013503176073 0.0013258074924 0.0013019373852 0.0012786933574 0.0015372415872 0.0015063143661 0.0014697528659 
0.0014420598552 0.0014150778154 0.0013887892848 0.0013631772277 0.0013382270149 0.0013139239282 0.0012902547091 0.001553802241 0.0015222680381 
0.0014846507107 0.0014564842735 0.001429034487 0.0014022831818 0.0013762148551 0.0013508154573 0.0013260701491 0.0013019662354 0.0015705197657 
0.0015383791207 0.0014998192944 0.0014711689775 0.0014432400969 0.0014160150099 0.0013894795971 0.0013636186937 0.0013384201244 0.0013138709911 
0.001587420297 0.0015546746498 0.0015153074492 0.0014861601734 0.0014577393996 0.0014300284315 0.0014030123386 0.0013766779441 0.0013510129818 
0.0013260056289 0.0016045083501 0.0015711573708 0.0015311443466 0.0015014861057 0.0014725593491 0.0014443483571 0.0014168377611 0.0013900151848 
0.0013638697936 0.0013383903443 0.0016231946396 0.0015894660338 0.0015442672178 0.0015118545783 0.001480665527 0.0014506416822 0.0014217246654 
0.0013938604199 0.0013669948346 0.0013410760333 0.0016428651051 0.0016084968085 0.0015647262226 0.0015316967354 0.0014999047636 0.0014692910874 
0.0014397984421 0.0014113723707 0.0013839598061 0.0013575084202 0.0016626067539 0.0016275924822 0.0015850944946 0.0015514711351 0.0015190965863 
0.0014879128997 0.0014578628522 0.001428892903 0.0014009501462 0.0013739820018 0.0016823679722 0.0016467050288 0.001605323566 0.0015711278447 
0.0015381921651 0.0015064583942 0.0014758706113 0.0014463751834 0.0014179188161 0.0013904507197 0.001657939122 0.0016249787531 0.0015874709659 
0.0015577383653 0.001528779169 0.0015005751424 0.0014731088003 0.001446363232 0.0014203221606 0.0013949711139 0.0016761190142 0.0016424944836 
0.0016037641562 0.0015735156375 0.0015440483734 0.0015153444638 0.0014873854783 0.0014601561971 0.0014336404544 0.0014078241383 0.0016944409843 
0.0016601529463 0.0016202916772 0.0015895183849 0.0015595340261 0.0015303199109 0.0015018593824 0.0014741364701 0.0014471359402 0.0014208447368 
0.0017129188635 0.0016779691815 0.0016370890161 0.0016057801258 0.0015752674731 0.0015455324404 0.0015165589464 0.0014883314508 0.0014608355121 
0.0014340582867 0.0017315607387 0.0016959504954 0.0016541859493 0.0016223296077 0.0015912765471 0.0015610083021 0.001531509366 0.0015027649401 
0.0014747612483 0.0014474861311 0.0017503616628 0.0017140916815 0.0016716021118 0.0016391849195 0.0016075782431 0.001576763246 0.0015467250919 
0.0015174502446 0.00148892568 0.0014611386968 0.001770208861 0.0017333992475 0.0016869876352 0.0016516828709 0.0016176902645 0.0015849489178 
0.0015533999258 0.0015229855717 0.0014936499741 0.0014653373718 0.001791445013 0.0017539393627 0.0017089199548 0.0016729481681 0.0016383040399 
0.0016049262769 0.001572756225 0.0015417366554 0.0015118118583 0.0014829275948 0.0018127572865 0.0017745500487 0.0017307658286 0.0016941490049 
0.0016588736542 0.0016248786772 0.001592106315 0.0015604991379 0.0015300022852 0.0015005620481 0.0018341190887 0.0017952068176 0.001752499743 
0.0017152589508 0.0016793726266 0.0016447799503 0.0016114231811 0.0015792467884 0.0015481949532 0.0015182134624 0.0017938892812 0.0017583381637 
0.001718874861 0.0016866659185 0.0016552983058 0.0016247519941 0.0015950092695 0.0015660521977 0.0015378645271 0.0015104287944 0.0018137594563 
0.0017774905315 0.0017367396388 0.0017039649651 0.0016720408747 0.0016409477274 0.0016106682734 0.0015811844442 0.0015524804986 0.0015245400387 
0.001833789518 0.0017968027197 0.001754854189 0.001721505002 0.0016890150863 0.0016573660634 0.0016265397287 0.0015965192896 0.0015672891991 
0.0015388340518 0.0018539808022 0.0018162776866 0.0017732414025 0.0017393067191 0.0017062403805 0.0016740240255 0.0016426400389 0.0016120721349 
0.0015823049638 0.0015533241991 0.0018743303014 0.0018359125649 0.0017919201055 0.0017573885562 0.0017237338252 0.0016909378904 0.0016589842235 
0.0016278566109 0.0015975406489 0.0015680222203 0.0018948258598 0.0018556944647 0.0018109036418 0.001775761765 0.001741505558 0.0017081175932 
0.0016755810025 0.0016438810453 0.0016130030002 0.0015829340991 0.0019158939152 0.0018760792207 0.001828392745 0.0017902375995 0.0017534820649 
0.0017180630912 0.0016839205795 0.0016509948023 0.0016192269055 0.0015885601137 0.001938691158 0.0018981249701 0.0018518099084 0.0018129373012 
0.0017754809905 0.0017393784719 0.0017045693182 0.001670994388 0.0016385954397 0.0016073169455 0.0019615730497 0.0019202483239 0.0018751480207 
0.0018355787265 0.0017974421751 0.0017606752505 0.0017252179079 0.0016910115712 0.0016579989068 0.0016261230069 0.0019845272636 0.0019424406453 
0.0018983940503 0.0018581493664 0.0018193521243 0.0017819396419 0.001745852369 0.0017110321133 0.0016774213043 0.0016449641394 0.0019285445406 
0.0018904590099 0.0018491871314 0.0018145312616 0.0017807822656 0.0017479204366 0.0017159274292 0.0016847849364 0.0016544746748 0.0016249799859 
0.0019500641638 0.0019112079915 0.0018685937921 0.0018333230846 0.0017989708146 0.001765517273 0.0017329430156 0.0017012313271 0.0016703641136 
0.0016403252217 0.0019717603911 0.0019321339153 0.0018882642398 0.001852370019 0.0018174046556 0.0017833488311 0.0017501839799 0.001717893129 
0.0016864591055 0.0016558660089 0.0019936262668 0.0019532305239 0.0019082126488 0.0018716840247 0.00183609485 0.0018014262659 0.0017676599296 
0.0017347788728 0.001702767336 0.0016716093186 0.0020156525166 0.0019744888471 0.0019284517391 0.0018912768975 0.0018550520417 0.001819758759 
0.0017853789381 0.0017518963068 0.0017192946921 0.0016875600298 0.0020378216943 0.0019958915843 0.001948989147 0.001911155975 0.0018742832551 
0.0018383521529 0.0018033459416 0.0017692485182 0.0017360446172 0.0017037199456 0.0020601778082 0.0020174429996 0.0019683991496 0.0019274371238 
0.0018879606117 0.0018499057515 0.0018132105674 0.0017778135546 0.0017436543817 0.0017106738502 0.0020845146967 0.0020409720168 0.0019932984325 
0.001951567654 0.0019113412133 0.0018725557709 0.0018351485973 0.0017990586498 0.0017642266483 0.0017305935791 0.0021089460194 0.002064589435 
0.0020181265477 0.0019756483831 0.001934692608 0.0018951951012 0.0018570939651 0.0018203284054 0.0017848401396 0.001750569286 0.0021334687182 
0.0020882936188 0.0020428786718 0.0019996739587 0.00195800806 0.0019178173506 0.0018790401632 0.0018416165557 0.0018054872697 0.0017705935133 
0.0020618032892 0.0020212454334 0.001978320974 0.0019412472107 0.0019051451652 0.0018699958442 0.001835779522 0.00180247747 0.0017700716726 
0.0017385435403 0.0020849363969 0.0020435562617 0.0019992456201 0.0019615093217 0.0019247579878 0.001888971397 0.0018541309351 0.0018202177775 
0.0017872146659 0.0017551033871 0.0021082623817 0.002066060055 0.0020204468317 0.001982038855 0.0019446279322 0.0019081944441 0.0018727196941 
0.0018381855219 0.0018045750717 0.0017718707912 0.0021317689326 0.0020887457638 0.0020419333422 0.0020028430846 0.0019647618845 0.001927670359 
0.0018915507138 0.0018563849784 0.0018221560648 0.0017888476926 0.002155441825 0.0021115984147 0.0020637132346 0.0020239286093 0.0019851655966 
0.0019474048352 0.0019106281783 0.0018748186496 0.001839959822 0.0018060356668 0.0021792601284 0.0021345999454 0.002085791307 0.0020453004821 
0.0020058428973 0.0019673999423 0.0019299538016 0.0018934878215 0.0018579862478 0.0018234335556 0.0022029812919 0.0021574190914 0.0021069194917 
0.0020631943254 0.0020210405892 0.0019803926343 0.001941187555 0.0019033620752 0.001866854581 0.0018316030713 0.0022288243344 0.0021823984057 
0.0021332876391 0.0020887438908 0.0020457911941 0.0020043657652 0.0019644030543 0.0019258410461 0.0018886179229 0.0018526729621 0.0022547739605 
0.0022074779067 0.0021595943168 0.0021142520614 0.0020705211643 0.0020283365806 0.0019876343734 0.0019483527011 0.0019104303233 0.0018738073516 
0.0022808313878 0.0022326608114 0.0021858378882 0.0021397185743 0.0020952284874 0.0020523027493 0.0020108785141 0.0019708939044 0.001932288832 
0.0018950019515 0.0021935700708 0.0021506066928 0.0021061935607 0.0020667315836 0.0020283056934 0.0019908965766 0.001954484632 0.0019190509095 
0.0018845763369 0.0018510421253 0.0022182816881 0.0021744461143 0.0021286156065 0.0020884441381 0.0020493231824 0.0020112326718 0.0019741536268 
0.0019380677116 0.0019029558435 0.0018687997811 0.0022432026735 0.0021984943927 0.0021513267612 0.0021104361128 0.0020706097127 0.0020318280358 
0.0019940720296 0.0019573234863 0.0019215642691 0.0018867763396 0.0022683175013 0.0022227375674 0.0021743316027 0.0021327113437 0.0020921690205 
0.0020526850516 0.0020142411243 0.001976819204 0.0019404016352 0.001904970941 0.0022936077512 0.0022471567495 0.0021976344902 0.0021552732102 
0.0021140030382 0.0020738054624 0.0020346620312 0.0019965550113 0.0019594672888 0.0019233821123 0.0023190503983 0.002271732244 0.0022212385931 
0.002178123883 0.002136113505 0.0020951896867 0.0020553339842 0.0020165294322 0.0019787590182 0.0019420068945 0.0023442208413 0.0022959313606 
0.0022438624354 0.0021974196946 0.0021526330659 0.0021094369869 0.0020677662253 0.0020275568711 0.0019887452634 0.0019512686716 0.0023715290274 
0.0023223205297 0.0022716812111 0.0022243698439 0.0021787366719 0.0021347151478 0.0020922417003 0.0020512519341 0.0020116826445 0.0019734710467 
0.0023989565517 0.0023488224923 0.0022994475548 0.0022512882019 0.0022048273281 0.0021599999925 0.002116741475 0.002074988165 0.0020346771029 
0.0019957463232 0.0024265069425 0.0023754432244 0.002327163335 0.0022781756611 0.0022309069016 0.0021852917198 0.0021412656059 0.0020987650652 
0.0020577281361 0.0020180927773 0.002323750298 0.0022784540091 0.0022327259062 0.0021909044551 0.0021501837141 0.0021105435534 0.0020719646225 
0.0020344275179 0.0019979127092 0.0019624005869 0.0023500063392 0.0023037885772 0.0022566265229 0.0022140497399 0.0021725885595 0.0021322234344 
0.0020929350998 0.0020547045813 0.0020175127266 0.001981340227 0.0023764885413 0.0023293487803 0.0022808282978 0.0022374859482 0.0021952743653 
0.0021541740926 0.0021141662542 0.0020752321792 0.0020373529985 0.0020005101916 0.0024031793756 0.0023551179915 0.002305333291 0.0022612148437 
0.002218242045 0.002176395865 0.0021356577332 0.0020960091244 0.0020574317893 0.0020199075478 0.0024300571792 0.0023810753026 0.0023301433428 
0.0022852372394 0.0022414918158 0.0021988881616 0.0021574079379 0.0021170331772 0.0020777460345 0.0020395288732 0.0024570969933 0.0024071982299 
0.0023552590581 0.002309552982 0.0022650225159 0.0022216490728 0.0021794143138 0.0021383009977 0.002098291785 0.0020593692068 0.0024838102528 
0.002432901094 0.0023791360358 0.0023300215639 0.0022826480358 0.0022369491852 0.0021928585439 0.0021503116906 0.0021092429682 0.002069587614 
0.0025125365188 0.0024606536099 0.0024083826143 0.0023583500925 0.0023100815651 0.0022635107887 0.0022185725011 0.0021752011825 0.0021333322232 
0.0020929012714 0.0025413955525 0.002488532401 0.0024375862291 0.0023866559572 0.002337511938 0.0022900883181 0.0022443195994 0.0022001407861 
0.0021574876006 0.0021162965019 0.0025703927614 0.0025165448851 0.0024667500525 0.0024149418696 0.0023649418317 0.0023166834554 0.002270101319 
0.002225131514 0.002181709583 0.0021397727612 0.0024522512059 0.0024046987591 0.0023578395284 0.0023136882461 0.0022707011868 0.0022288588513 
0.0021881417396 0.0021485300354 0.0021100040904 0.0020725435712 0.0024800170375 0.0024314945074 0.0023832010398 0.00233824861 0.0022944768418 
0.0022518662475 0.0022103977945 0.0021700519546 0.0021308092862 0.0020926501589 0.0025080268665 0.0024585340186 0.0024088758761 0.0023631122571 
0.0023185455517 0.0022751566453 0.0022329265537 0.002191836359 0.0021518668271 0.0021129988076 0.0025362608981 0.0024857973177 0.0024348643202 
0.0023882786992 0.0023429063286 0.0022987281511 0.0022557255872 0.0022138800413 0.0021731728536 0.0021335852234 0.0025646950198 0.0025132635735 
0.0024611659784 0.0024137469724 0.0023675572678 0.0023225783458 0.0022787917653 0.0022361793642 0.0021947229132 0.0021544039933 0.0025933043314 
0.0025409068739 0.0024877794614 0.0024395149574 0.0023924957561 0.0023467037135 0.0023021207718 0.0022587290908 0.0022165110085 0.0021754486864 
0.0026216605169 0.0025682466337 0.0025126466361 0.0024609068597 0.0024109931103 0.0023628382986 0.0023163756714 0.0022715384317 0.0022282608835 
0.0021864763932 0.002651753185 0.002597311441 0.0025432952531 0.0024905882264 0.002439731794 0.0023906586859 0.0023433028256 0.0022975978427 
0.0022534777961 0.0022108765867 0.0026819930672 0.0026265167219 0.0025739107656 0.0025202569819 0.0024684769464 0.0024185046609 0.0023702732499 
0.0023237169789 0.0022787700936 0.0022353672184 0.0027123862072 0.0026558713927 0.0026044973054 0.0025499162419 0.0024972322972 0.0024463783242 
0.0023972886089 0.0023498972416 0.0023041391709 0.0022599498697 0.0025784860827 0.0025285293549 0.0024810685171 0.0024343125186 0.0023889511107 
0.0023449260827 0.0023021826124 0.0022606688752 0.0022203367069 0.002181140748 0.0026076764614 0.0025567134565 0.0025079685136 0.0024602961996 
0.0024140512539 0.0023691741258 0.0023256088276 0.0022833026161 0.0022422061162 0.0022022732159 0.0026371004686 0.0025851255434 0.0025352334302 
0.0024866295522 0.0024394859913 0.0023937421662 0.0023493407716 0.0023062281063 0.0022643539581 0.0022236710788 0.0026667512571 0.0026137577228 
0.0025628751129 0.0025133235666 0.0024652657307 0.0024186397262 0.0023733873169 0.0023294536924 0.0022867875563 0.0022453409642 0.0026966205997 
0.0026426041487 0.002590906357 0.0025403904087 0.0024914017645 0.0024438773927 0.0023977580808 0.0023529880789 0.0023095150891 0.0022672903309 
0.0027267024287 0.0026716569758 0.0026193410097 0.0025678428957 0.002517906075 0.0024694664338 0.0024224636554 0.0023768410833 0.0023325455865 
0.0022895273239 0.0027532790465 0.0026966481152 0.0026421860777 0.0025882706156 0.0025363135787 0.0024862021454 0.0024378305109 0.0023910991675 
0.0023459163048 0.0023021955089 0.0027849807792 0.0027272888385 0.0026743242703 0.0026193130474 0.0025663080137 0.00251519439 0.0024658642255 
0.0024182171215 0.0023721582931 0.0023276002825 0.0028168952127 0.0027581387321 0.0027064879892 0.0026503997165 0.0025963642843 0.0025442647262 
0.0024939918537 0.0024454427712 0.0023985213713 0.0023531383389 0.0028490058795 0.0027891829408 0.0027386646382 0.0026815180218 0.0026264694965 
0.0025734009441 0.0025222005723 0.0024727637639 0.0024249928343 0.0023787971607 0.0027031778641 0.002651059178 0.0026027731055 0.0025538154017 
0.0025063096381 0.0024601978229 0.0024154253148 0.0023719406029 0.0023296950791 0.0022886431351 0.0027337870397 0.0026806115779 0.0026310698892 
0.0025811503002 0.00253271672 0.0024857100702 0.0024400744268 0.0023957572865 0.0023527090418 0.0023108830232 0.002764646369 0.0027104071154 
0.002659740578 0.0026088437212 0.0025594672374 0.0025115509326 0.0024650378885 0.0024198742618 0.0023760096795 0.0023333965952 0.0027957464725 
0.002740438851 0.0026887952361 0.0026369050068 0.0025865698462 0.002537728387 0.0024903227122 0.0024442980571 0.002399602911 0.002356188939 
0.0028270799839 0.0027706979037 0.0027182449184 0.0026653443187 0.0026140338954 0.0025642511223 0.0025159371066 0.0024690359896 0.0024234954014 
0.0023792660227 0.0028586372091 0.0028011755263 0.00274810129 0.0026941726991 0.0026418696738 0.0025911286836 0.0025418897239 0.0024940960613 
0.0024476943505 0.0024026344625 0.0028867731718 0.0028278257515 0.0027714390552 0.002715134567 0.0026608538709 0.0026084844124 0.0025579202637 
0.0025090614985 0.0024618157968 0.002416095913 0.0029198057191 0.0028597448431 0.0028049203534 0.0027474718371 0.0026920963958 0.0026386795749 
0.0025871132395 0.0025372965954 0.0024891345408 0.0024425385462 0.0029530567011 0.0028918783888 0.0028384372429 0.0027798631872 0.0027234104445 
0.0026689622557 0.0026164096494 0.0025656488702 0.0025165834788 0.0024691234503 0.0029865105139 0.0029242126886 0.0028719775013 0.0028122963737 
0.0027547833428 0.0026993206902 0.0026457963596 0.002594105579 0.0025441500945 0.0024958379466 0.0028259720026 0.0027717589372 0.0027226006766 
0.0026715171397 0.0026219391222 0.0025738092474 0.0025270731147 0.0024816792984 0.0024375789737 0.0023947261904 0.0028579551785 0.0028026374103 
0.00275224988 0.0027001608376 0.0026496127535 0.0026005470616 0.0025529081861 0.0025066436575 0.0024617036633 0.0024180412621 0.0028902029832 
0.0028337732683 0.002782280587 0.0027291705534 0.0026776371655 0.0026276206876 0.0025790646417 0.0025319153503 0.0024861220314 0.0024416369189 
0.0029227046399 0.0028651585667 0.0028127014012 0.0027585539942 0.0027060194044 0.0026550367266 0.0026055482806 0.0025574995019 0.0025108387046 
0.0024655170936 0.0029554514605 0.002896783144 0.0028435213813 0.0027883197075 0.0027347672305 0.0026828021373 0.0026323655744 0.0025834020359 
0.0025358587682 0.0024896861892 0.0029884325975 0.0029286376618 0.0028747504662 0.002818476874 0.0027638892889 0.0027109248286 0.0026595236166 
0.0026096292054 0.0025611879199 0.0025141492318 0.0030181278178 0.0029569273826 0.0028985000566 0.0028399071078 0.0027833979052 0.0027288602027 
0.002676187809 0.0026252809484 0.0025760456606 0.0025283952275 0.0030524617767 0.0029900984536 0.0029332877715 0.0028735045539 0.0028158558386 
0.0027602273715 0.0027065112688 0.0026546055195 0.0026044155882 0.0025558518066 0.0030870189118 0.0030234882627 0.0029681203928 0.0029071651844 
0.0028483942164 0.0027916910688 0.0027369460152 0.0026840560562 0.0026329239384 0.0025834587238 0.003121783612 0.0030570832598 0.0030029850438 
0.0029408762917 0.0028810002096 0.0028232383848 0.00276747996 0.0027136193937 0.0026615579075 0.0026112031722 0.0029467894121 0.0028905513056 
0.0028404889827 0.0027873548137 0.0027357764706 0.0026856973253 0.0026370631069 0.0025898222775 0.0025439260295 0.0024993281279 0.0029801018257 
0.0029227130023 0.0028714463814 0.002817265091 0.0027646761897 0.0027136218985 0.0026640469718 0.0026158988345 0.0025691275457 0.0025236860379 
0.0030136904922 0.0029551459955 0.0029027919596 0.0028475476255 0.0027939327837 0.0027418883666 0.0026913581779 0.0026422885436 0.0025946286853 
0.0025483304067 0.0030475458048 0.0029878392919 0.0029345324104 0.0028782086611 0.0028235519068 0.0027705018867 0.0027190012579 0.002668995445 
0.0026204326506 0.0025732637245 0.0030816560926 0.0030207830124 0.0029666752103 0.0029092552028 0.0028535399253 0.0027994680201 0.0027469811575 
0.0026960237699 0.002646543124 0.0025984892429 0.0031160096396 0.0030539646898 0.0029992285547 0.0029406945877 0.0028839034859 0.0028287928272 
0.0027753032673 0.0027233782744 0.0026729642431 0.0026240103071 0.003147254324 0.0030838668304 0.0030233002254 0.0029625192883 0.00290387677 
0.0028472605426 0.0027925646549 0.0027396890164 0.0026885391828 0.0026390276085 0.0031828584479 0.0031182617828 0.0030593564151 0.0029973408635 
0.0029375158773 0.0028797674827 0.0028239878389 0.0027700747448 0.0027179331286 0.0026674726999 0.0032186887609 0.0031528782202 0.0030954657947 
0.0030322337686 0.0029712433872 0.0029123787644 0.0028555298902 0.0028005939112 0.0027474728804 0.0026960753235 0.0032547304591 0.0031877031795 
0.0031316153376 0.0030671850092 0.0030050463198 0.0029450810166 0.0028871786122 0.0028312331691 0.0027771455624 0.0027248226329 0.0030655588258 
0.0030073654069 0.0029563803278 0.0029012703526 0.0028477635125 0.0027958035177 0.0027453365488 0.0026963112008 0.0026486784241 0.0026023918035 
0.0031001547628 0.0030407691264 0.0029886021145 0.0029324048657 0.0028778486792 0.0028248759962 0.0027734320636 0.0027234643136 0.0026749228223 
0.0026277600878 0.0031350378877 0.0030744543525 0.0030212173754 0.0029639170438 0.0029082959829 0.0028542956251 0.002801859986 0.0027509356244 
0.0027014715869 0.0026534194552 0.0031701978137 0.0031084102202 0.0030542315192 0.0029958116855 0.0029391096706 0.0028840659456 0.0028306234083 
0.0027787275964 0.0027283267155 0.0026793713808 0.0032056215892 0.0031426255802 0.0030876503424 0.0030280939083 0.0029702942981 0.0029141909253 
0.0028597256903 0.002806843184 0.0027554906092 0.0027056177157 0.0032412970365 0.0031770869714 0.0031214801246 0.0030607694613 0.003001855033 
0.0029446751908 0.0028891708538 0.0028352856749 0.0027829659164 0.002732160486 0.0032740731775 0.0032085672832 0.0031457768615 0.0030829078885 
0.0030222270173 0.0029636225266 0.0029069883499 0.0028522242001 0.0027992355506 0.0027479332351 0.0033109140651 0.003244155831 0.0031830623702 
0.0031189163876 0.0030570120272 0.0029972356581 0.0029394794126 0.0028836412668 0.0028296246462 0.0027773398217 0.0033479832099 0.0032799675477 
0.0032204086473 0.0031550035945 0.003091892624 0.0030309601581 0.0029720966118 0.0029151978377 0.0028601666458 0.0028069104845 0.0033852657121 
0.0033159895602 0.0032578021699 0.0031911560825 0.0031268554006 0.0030647827359 0.0030048263619 0.002946881372 0.0028908478855 0.0028366321235 
0.0031822146784 0.0031221386807 0.0030702215869 0.0030132098797 0.0029578456855 0.0029040733084 0.0028518391408 0.0028010918889 0.0027517823989 
0.0027038639508 0.0032180478598 0.0031567409361 0.0031036639517 0.0030455267329 0.0029890761217 0.0029342551764 0.0028810092381 0.0028292859997 
0.0027790354359 0.0027302097782 0.0032541790724 0.0031916344 0.0031375042962 0.0030782255719 0.003020672877 0.0029647881295 0.0029105156895 
0.0028578022233 0.0028065967626 0.0027568505697 0.003290595105 0.00322680779 0.0031717464915 0.0031113097015 0.003052638767 0.0029956745278 
0.0029403603152 0.0028866418221 0.0028344671045 0.0027837865769 0.0033272827571 0.0032622473642 0.0032063947933 0.0031447828558 0.0030849769931 