# vtk DataFile Version 5.1
vtk output
ASCII
DATASET STRUCTURED_POINTS
DIMENSIONS 10 10 20
SPACING 0.1 0.1 0.1
ORIGIN 3.25 -0.45 0.55
POINT_DATA 2000
FIELD FieldData 1
potential 1 2000 double
0.00047692827254 0.00047147197194 0.00045250659791 0.0004469733944 0.00044156305757 0.00043627245512 0.00043110066535 0.00042604592301 0.00042110087345 
0.0004162504494 0.00048108358022 0.00047566399001 0.00045438639055 0.00044879132256 0.00044332063532 0.0004379697739 0.0004327384023 0.00042762470807 
0.0004226209851 0.00041771248516 0.00048519018965 0.00047980767501 0.0004562427804 0.00045057885606 0.00044504083934 0.00043962478261 0.00043432905954 
0.00042915131577 0.0004240835655 0.00041911345841 0.00048965396945 0.00048430052952 0.00045848079697 0.00045273672706 0.00044712175083 0.00044163068413 
0.00043626230858 0.00043101241241 0.00042587397056 0.00042083598652 0.00049472888919 0.00048939502264 0.0004613608275 0.00045552298564 0.00044981696863 
0.00044424000386 0.00043878803633 0.0004334580361 0.00042824121903 0.00042312853773 0.00050052145487 0.00049519680143 0.00046500103072 0.00045905324863 
0.00045324244003 0.00044756570655 0.00044201962509 0.0004365999612 0.00043129742502 0.0004261033308 0.00050531933979 0.00049588507124 0.00046979038228 
0.00046366261165 0.00045769195564 0.0004518777171 0.00044621708045 0.00044070371383 0.00043532574219 0.00043007261159 0.00050780416029 0.00049842118103 
0.00047512752458 0.00046885590333 0.00046274630025 0.00045680236496 0.00045102213897 0.00044539939873 0.00043991973702 0.00043456997243 0.00051063667812 
0.00050129016928 0.00048079746361 0.00047438245591 0.00046813550246 0.00046206083906 0.00045616020083 0.00045042736213 0.0004448450829 0.00043939600455 
0.00051335262016 0.00050403910704 0.00048636017334 0.00047981321163 0.0004734385143 0.00046724277919 0.00046122895069 0.0004553896698 0.00044970660839 
0.00044415945098 0.00055718425718 0.00055056996864 0.00053118634518 0.00052459611574 0.00051815665008 0.00051186289838 0.00050570923365 0.00049969199294 
0.00049380379003 0.00048803586851 0.00056251501685 0.00055591235398 0.00053419780221 0.00052752463218 0.00052100373951 0.00051462950048 0.00050839799074 
0.00050230373292 0.00049633991746 0.00049049782174 0.00056782641021 0.00056123735077 0.00053721545518 0.00053045482405 0.00052384802014 0.00051738982534 
0.00051107602368 0.00050490125858 0.00049885876147 0.00049294049897 0.00057335584573 0.00056677750267 0.00054047966425 0.000533623273 0.00052692335037 
0.0005203748474 0.0005139729743 0.00050771223652 0.00050158616441 0.00049558756243 0.00057927064049 0.00057269952546 0.00054416598694 0.00053720445486 
0.0005304022579 0.00052375506262 0.0005172574675 0.00051090422776 0.00050468914924 0.00049860446631 0.00058564932022 0.00057908053907 0.00054836317571 
0.0005412860892 0.00053437216477 0.00052761680293 0.00052101568315 0.00051456328723 0.00050825235736 0.00050207621625 0.00059001115983 0.00057960926907 
0.00055341930002 0.00054615866814 0.00053908240469 0.00053218562351 0.00052546357546 0.000518909484 0.00051251446676 0.00050626937119 0.00059272531296 
0.00058237163439 0.00055883594246 0.0005514335342 0.00054422008162 0.00053719364553 0.00053034917726 0.00052367950056 0.00051717493557 0.00051082568191 
0.00059564071391 0.00058532133669 0.00056445032942 0.00055690708012 0.00054955848881 0.00054240264695 0.00053543558041 0.00052865051513 0.00052203616208 
0.00051558082926 0.00059848209615 0.00058818954735 0.00057000278289 0.00056232479023 0.00055484697997 0.00054756696018 0.00054048234643 0.00053358440829 
0.00052686205002 0.00052030185991 0.00063753687069 0.00062977509271 0.00060995671828 0.00060231933405 0.0005948575158 0.0005875650085 0.00058043504383 
0.00057346274224 0.0005666412839 0.00055996397789 0.00064377307292 0.00063600170719 0.00061384164004 0.00060610392988 0.00059854331861 0.00059115401352 
0.00058393016764 0.00057686585834 0.00056995435893 0.00056318902744 0.00065002818404 0.00064224994657 0.00061776809728 0.00060992607879 0.00060226347667 
0.00059477461035 0.0005874536985 0.00058029458076 0.00057329091449 0.00056643590024 0.00065643673374 0.0006486529965 0.0006218772067 0.00061392537865 
0.00060615567923 0.00059856248211 0.00059113963927 0.00058388118503 0.0005767814411 0.00056983398231 0.00066310049721 0.00065531091761 0.00062628032183 
0.0006182113441 0.0006103282397 0.00060262443473 0.00059509448009 0.00058773184848 0.00058053138784 0.00057348703673 0.00067006775341 0.00066227138655 
0.00063103457328 0.00062284250845 0.00061483868508 0.00060701782951 0.00059937490176 0.00059190332254 0.00058459716982 0.0005774505607 0.00067430471207 
0.00066295287739 0.00063645267481 0.00062806853536 0.0006198939273 0.00061192317082 0.00060415037571 0.00059656756287 0.00058916675495 0.00058194055516 
0.00067744412646 0.00066613201225 0.00064214011313 0.0006336092828 0.00062529457037 0.00061718907505 0.00060928738409 0.00060158128146 0.0005940633604 
0.00058672408975 0.00068071769955 0.0006694313381 0.00064796707609 0.0006392918536 0.00063083665229 0.00062259710936 0.00061456685535 0.00060673847592 
0.00059910231982 0.00059164910152 0.00068396236804 0.00067269076649 0.00065378140264 0.00064496473489 0.00063637359795 0.00062800267117 0.00061984702831 
0.00061189752482 0.00060414457937 0.00059657850309 0.00071781519847 0.00070891786438 0.00068864419656 0.00067996915016 0.00067149283769 0.00066320813213 
0.00065510871719 0.00064718881101 0.00063944159055 0.00063186148922 0.0007248066142 0.00071588058945 0.00069325964086 0.00068446865246 0.00067587896791 
0.00066748363488 0.00065927618955 0.00065125059037 0.00064340090682 0.00063572089066 0.00073184799453 0.000722897872 0.00069794509294 0.00068903452971 
0.00068032867583 0.00067181991659 0.00066350203467 0.00065536853626 0.0006474140327 0.00063963237256 0.00073901444727 0.00073004320692 0.00070278231835 
0.00069374896847 0.00068492266533 0.00067629661502 0.00066786419875 0.0006596196508 0.00065155736081 0.00064367070361 0.00074636375168 0.00073737270196 
0.00070783922048 0.00069867783325 0.00068972646629 0.00068097816847 0.00067242759022 0.00066406806912 0.00065589350813 0.00064789887165 0.0007539209044 
0.0007449117478 0.00071315192916 0.00070385718982 0.00069477558537 0.0006859009718 0.0006772275343 0.00066874825859 0.00066045782542 0.00065235075023 
0.00075828926806 0.00074600518488 0.00071899792091 0.00070949853907 0.00070023403072 0.00069119800697 0.00068238280822 0.00067378086979 0.00066538460114 
0.0006571863821 0.00076197738042 0.00074972140863 0.00072507682192 0.00071542377186 0.0007060117382 0.00069683294534 0.00068788068958 0.00067914723146 
0.00067062481697 0.00066230447889 0.00076576666581 0.00075352327642 0.0007312718854 0.00072146601113 0.00071190642809 0.00070258552832 0.00069349681391 
0.0006846320348 0.0006759826538 0.00066753963113 0.00076956071036 0.00075731715935 0.00073749365773 0.00072753749766 0.000717832839 0.00070837192365 
0.00069914791455 0.00069015298932 0.00068137679793 0.00067281164687 0.00079790717288 0.00078788688525 0.0007671357518 0.00075743258853 0.00074795038942 
0.00073868175971 0.00072962024176 0.00072075970542 0.00071209443542 0.00070361813492 0.00080556620704 0.00079550070401 0.00077239997711 0.00076256692504 
0.00075295784731 0.00074356548614 0.00073438370668 0.00072540556733 0.00071662563298 0.0007080376757 0.00081329992312 0.00080319393683 0.00077775481498 
0.00076778864368 0.00075805004481 0.00074853173836 0.00073922676058 0.00073012872823 0.00072123231741 0.00071253127374 0.00082114764287 0.00081100502207 
0.00078324742856 0.00077314544632 0.00076327415287 0.00075362642195 0.00074419512456 0.00073497481395 0.00072595886428 0.00071714217488 0.00082913978945 
0.00081896383693 0.00078891826968 0.00077867668792 0.00076866863461 0.00075888789463 0.00074932706752 0.00073998028309 0.00073084196506 0.00072190607358 
0.00083728613012 0.00082707951929 0.00079478889134 0.00078440359844 0.00077425540424 0.00076433762587 0.0007546436196 0.00074516716277 0.0007359025252 
0.00072684441684 0.00084199370926 0.00082879595048 0.00080110373911 0.00079049775619 0.00078015183219 0.00077005854025 0.00076020997446 0.00075059796233 
0.00074121529579 0.00073205410442 0.00084630262462 0.00083311813988 0.00080764654498 0.00079687767362 0.0007863747222 0.00077612994438 0.00076613496493 
0.00075638221271 0.00074686374906 0.00073757070833 0.00085069498367 0.00083750811534 0.0008142975533 0.00080336648553 0.00079270684059 0.00078231042956 
0.00077216924163 0.00076227547686 0.00075262062432 0.0007431958844 0.00085511480287 0.00084191136437 0.00082100542795 0.00080991365169 0.00079909842938 
0.00078855166327 0.00077826541963 0.00076823098586 0.00075843949588 0.0007488826603 0.00087773457021 0.00086660611409 0.00084535450988 0.00083463279055 
0.00082415320733 0.00081390865998 0.00080389313062 0.00079410016555 0.00078452367336 0.00077515798887 0.00088600926091 0.00087481965406 0.00085121967997 
0.00084035485547 0.00082973581183 0.00081935577923 0.00080920773016 0.00079928571638 0.00078958347179 0.00078009536699 0.00089437753536 0.00088313171845 
0.00085718993123 0.00084617961847 0.00083541895596 0.00082490038732 0.00081461757032 0.00080456453824 0.00079473462487 0.00078512211642 0.00090285821162 
0.00089156052506 0.00086329260135 0.00085213428474 0.00084122893097 0.00083056918163 0.0008201491097 0.00080996185276 0.00080000183901 0.00079026286195 
0.00091146452803 0.00090011964895 0.00086955159616 0.00085824177642 0.00084718859075 0.00083638491781 0.00082582417028 0.00081550019439 0.00080540701521 
0.00079553860266 0.00092019757027 0.00090880877567 0.00087597909579 0.00086451458502 0.00085331026961 0.00084235942841 0.0008316549242 0.00082119077182 
0.00081096132683 0.00080096046692 0.00092541200562 0.00091131954718 0.00088278523018 0.00087108144711 0.00085966272038 0.00084852103592 0.0008376473478 
0.00082703428285 0.00081667372031 0.00080655825559 0.00093037928643 0.00091628408456 0.0008898327755 0.00087795574796 0.00086637000982 0.00085506668965 
0.00084403702245 0.00083327301916 0.00082276674556 0.00081250980698 0.00093542092594 0.00092130673666 0.00089698788351 0.00088493864397 0.00087318572562 
0.00086172071157 0.00085053457648 0.00083961936542 0.00082896682178 0.00081856786518 0.0009405043647 0.00092635635403 0.00090422247223 0.00089200139497 
0.00088008209389 0.00086845578236 0.00085711375651 0.00084604778981 0.00083524849934 0.00082470764593 0.00095723931749 0.00094501870376 0.00092324465963 
0.00091151355847 0.0009000454523 0.00088883380568 0.00087787232345 0.00086715458739 0.00085667440241 0.00084642634928 0.00096609689389 0.00095379919214 
0.00092968162704 0.00091779504772 0.00090617548851 0.00089481661614 0.00088371110903 0.00087285334019 0.00086223682806 0.00085185603568 0.00097506384057 
0.00096269433171 0.00093623448264 0.00092419034242 0.00091241740341 0.00090090846571 0.00088965714899 0.00087865703735 0.00086790187691 0.00085738635955 
0.00098414628138 0.00097171059666 0.00094291960086 0.00093071524735 0.00091878608161 0.00090712474057 0.00089572488224 0.00088458003833 0.00087368405347 
0.00086303142361 0.00099334743099 0.00098085054496 0.00094974986054 0.00093738268705 0.0009252945425 0.00091347803478 0.00090192682236 0.00089063455605 
0.00087959514463 0.00086880301376 0.0010026633329 0.00099010950021 0.00095673221047 0.00094419929068 0.00093194944403 0.00091997482329 0.00090826923285 
0.00089682670585 0.00088564119394 0.00087470645941 0.001008516773 0.00099354887161 0.00096403757423 0.00095124566062 0.00093876298976 0.00092658112632 
0.00091469168295 0.00090308629895 0.00089175693635 0.00088069511496 0.0010141600363 0.00099917223905 0.00097161071621 0.00095863506855 0.00094597486758 
0.00093362098494 0.00092156496153 0.00090979825976 0.00089831255662 0.00088709978037 0.0010198717343 0.001004847898 0.00097929459392 0.00096613565578 
0.00095329770077 0.00094077150502 0.00092854872444 0.00091662032811 0.000904978119 0.00089361366667 0.0010256341893 0.0010105587162 0.00098707466267 
0.0009737325784 0.00096071708336 0.00094801875042 0.00093562892737 0.00092353933549 0.00091174054678 0.00090022352465 0.0010363744166 0.0010230788205 
0.001000762598 0.00098803126747 0.0009755839033 0.00096341345371 0.00095151408134 0.00093987931076 0.00092850348011 0.00091738004237 0.0010457933762 
0.0010324054229 0.0010077530675 0.00099485433945 0.00098224380358 0.00096991444624 0.00095786033394 0.00094607471485 0.0009345519068 0.00092328567862 
0.0010553349604 0.0010418601578 0.0010148683323 0.0010018004693 0.00098902468307 0.0009765345548 0.00096432330728 0.00095238469549 0.00094071282324 
0.00092930168309 0.0010649984718 0.0010514428659 0.0010221177371 0.0010088781079 0.00099593478395 0.00098328113541 0.00097091049321 0.00095881660347 
0.00094699339456 0.00093543510726 0.0010747812721 0.0010611504886 0.001029508061 0.0010160943983 0.0010029809628 0.00099016113089 0.00097762857657 
0.00096537680645 0.00095339996407 0.0009416920721 0.0010846754682 0.0010709743166 0.0010370428888 0.0010234522555 0.0010101660168 0.00099717769166 
0.00098448053711 0.00097206851773 0.00095993529881 0.00094807530777 0.0010912684363 0.0010754444333 0.0010448461122 0.0010309754154 0.0010174380348 
0.0010042250293 0.00099132844186 0.00097873966691 0.00096645007829 0.00095445164672 0.0010975920778 0.0010817312459 0.0010529533746 0.0010388881692 
0.0010251621594 0.0010117665299 0.00099869268222 0.00098593208707 0.00097347595 0.00096131661877 0.001103980288 0.0010880653534 0.0010611765459 
0.0010469164631 0.0010330018994 0.0010194232648 0.0010061719112 0.00099323920397 0.00098061656828 0.00096829487821 0.0011104242084 0.0010944393451 
0.0010695085029 0.0010550540092 0.0010409506838 0.0010271889443 0.0010137600466 0.0010006552516 0.00098786530858 0.00097538129673 0.0011150994362 
0.0011007471109 0.0010778724565 0.0010641501389 0.0010507316349 0.0010376107456 0.0010247815603 0.0010122379853 0.00099997366937 0.00098798307413 
0.001125064534 0.0011106044778 0.0010854041939 0.0010715027036 0.0010579099643 0.0010446194125 0.0010316243444 0.0010189193103 0.0010064978241 
0.00099435429545 0.0011351646128 0.0011206031275 0.0010930687545 0.0010789865916 0.0010652173499 0.0010517545728 0.0010385918287 0.0010257232373 
0.0010131425561 0.0010008440487 0.0011453947132 0.0011307380149 0.0011008707377 0.0010866054423 0.0010726574795 0.0010590203999 0.0010456877028 
0.0010326532447 0.0010199112952 0.0010074557233 0.0011557488779 0.0011410028649 0.0011088137018 0.0010943628089 0.0010802336536 0.0010664198476 
0.0010529147536 0.0010397123586 0.0010268063901 0.0010141914937 0.0011662166173 0.0011513867581 0.001116898209 0.0011022595968 0.0010879471071 
0.0010739539154 0.0010602738864 0.0010469008644 0.0010338287484 0.0010210517231 0.0011736205614 0.0011569606264 0.0011251895002 0.0011102495382 
0.0010956664098 0.0010814315014 0.0010675367051 0.0010539733189 0.0010407328187 0.0010278067767 0.0011806207659 0.0011639063174 0.0011338317706 
0.0011186858054 0.0011039029647 0.0010894747903 0.0010753922411 0.0010616466285 0.0010482295873 0.0010351324324 0.0011876824766 0.0011708964185 
0.0011425954365 0.0011272434873 0.0011122611116 0.0010976389687 0.0010833682071 0.0010694399168 0.0010558459584 0.0010425765461 0.0011948028566 
0.0011779283187 0.0011514785465 0.0011359208536 0.001120738574 0.0011059223913 0.0010914632614 0.0010773524121 0.0010635806386 0.0010501383496 
0.0011933762564 0.0011779865991 0.0011545428681 0.0011398379168 0.0011254566166 0.0011113935725 0.0010976425202 0.0010841975708 0.0010710530384 
0.0010582027425 0.0012038764042 0.0011883637501 0.0011626073453 0.0011477119893 0.0011331455302 0.0011189015415 0.0011049742446 0.0010913574429 
0.0010780456122 0.0010650325093 0.0012145233594 0.0011988943924 0.0011708119803 0.0011557245564 0.0011409705461 0.0011265437233 0.0011124380139 
0.0010986473773 0.0010851662405 0.0010719884364 0.0012253095607 0.0012095711983 0.001179158544 0.0011638768747 0.0011489331588 0.0011343211306 
0.0011200349956 0.0011060685648 0.0010924158421 0.0010790710869 0.001236226608 0.0012203846569 0.0011876481807 0.001172169747 0.0011570341526 
0.0011422349358 0.0011277658978 0.001113621141 0.0010997947618 0.0010862808329 0.0012472623829 0.001231323989 0.0011962801571 0.0011806029904 
0.0011652730785 0.0011502841583 0.0011356299616 0.00112130451 0.0011073019888 0.0010936164434 0.0012555220297 0.0012380465391 0.0012050436536 
0.0011890432265 0.0011734234968 0.0011581755876 0.0011432916488 0.0011287628605 0.0011145808464 0.0011007365177 0.0012631896584 0.0012456418453 
0.0012142161367 0.0011979989178 0.0011821683576 0.0011667165343 0.0011516342115 0.0011369129362 0.0011225438671 0.0011085182155 0.0012709169806 
0.0012532792896 0.0012235166313 0.0012070819418 0.001191040888 0.0011753843887 0.0011601032838 0.001145188899 0.0011306322719 0.0011164247789 
0.0012787044173 0.0012609597975 0.0012329454611 0.0012162939254 0.0012000419325 0.0011841802566 0.0011686999983 0.0011535921162 0.0011388480122 
0.0011244575432 0.0012711692671 0.00125476239 0.0012307444001 0.001215065016 0.0011997291047 0.0011847314659 0.0011700663071 0.0011557280199 
0.0011417107501 0.0011280086863 0.0012821951364 0.0012656504354 0.0012393352931 0.0012234544532 0.0012079223946 0.0011927331846 0.0011778812345 
0.0011633610623 0.00114916654 0.0011352918903 0.0012933795884 0.0012767039014 0.0012480736342 0.0012319894204 0.0012162588782 0.001200876221 
0.001185835588 0.0011711313284 0.0011567575897 0.0011427084217 0.0013047135835 0.0012879141308 0.0012569589979 0.0012406694509 0.0012247384938 
0.0012091601039 0.0011939286287 0.0011790382613 0.0011644831599 0.0011502573978 0.0013161867799 0.0012992697712 0.0012659907585 0.0012494938071 
0.0012333600644 0.0012175839536 0.0012021595103 0.0011870808359 0.0011723421252 0.0011579375522 0.0013277862757 0.0013107594735 0.0012751675336 
0.0012584609194 0.0012421222374 0.0012261460658 0.0012105262493 0.0011952570519 0.0011803324375 0.00116574679 0.0013369188526 0.0013186481579 
0.0012843816896 0.0012673299005 0.0012506822376 0.0012344306074 0.0012185664762 0.0012030815961 0.0011879671989 0.0011732146326 0.0013452417307 
0.0013268809229 0.0012940770805 0.0012767974188 0.0012599286035 0.0012434616875 0.0012273888447 0.0012117011168 0.0011963896584 0.0011814453914 
0.0013536228761 0.0013351540075 0.0013039067901 0.001286399006 0.0012693081688 0.001252626099 0.001236343918 0.0012204527397 0.0012049435057 
0.0011898072637 0.0013620648206 0.0013434706782 0.0013138736258 0.0012961372422 0.0012788245856 0.0012619268296 0.0012454349326 0.0012293397491 
0.0012136324313 0.0011983034495 0.0013484421937 0.0013310396412 0.0013064494933 0.0012898027607 0.0012735198538 0.0012575952783 0.0012420237767 
0.0012267998697 0.0012119178502 0.0011973718197 0.0013599862093 0.0013424308334 0.0013155618279 0.0012987030203 0.0012822129581 0.0012660863458 
0.001250317772 0.0012349017782 0.0012198326033 0.001205104279 0.0013717004916 0.0013539996062 0.0013248285816 0.0013077555208 0.001291056365 
0.0012747256848 0.0012587580894 0.0012431480425 0.0012278896993 0.0012129772767 0.0013835753398 0.0013657361724 0.001334248192 0.0013169589514 
0.0013000486413 0.0012835118967 0.0012673432726 0.0012515370917 0.0012360875884 0.0012209888717 0.0013955988725 0.0013776283748 0.0013438189288 
0.0013263113756 0.0013091878967 0.0012924429983 0.0012760711399 0.0012600667145 0.0012444239188 0.0012291368826 0.001407757553 0.0013896636863 
0.0013535382632 0.001335810248 0.001318471396 0.0013015162012 0.0012849389083 0.001268734049 0.0012528958416 0.0012374182018 0.0014177549423 
0.0013987094828 0.001363176014 0.0013450814028 0.0013274146403 0.0013101679106 0.0012933326564 0.0012769011023 0.0012608641285 0.001245212744 
0.0014267187765 0.0014075653715 0.001373384631 0.0013550513084 0.0013371524436 0.0013196799015 0.0013026256732 0.0012859808445 0.0012697365889 
0.0012538837408 0.0014357398198 0.0014164602529 0.0013837341782 0.0013651617333 0.0013470303166 0.0013293318806 0.0013120577993 0.0012951991915 
0.0012787470331 0.0012626922976 0.0014448224625 0.0014253989765 0.0013942286677 0.0013754167523 0.0013570528047 0.0013391280082 0.0013216335186 
0.0013045606983 0.0012879000575 0.0012716426376 0.0014251586514 0.001406782536 0.0013816304867 0.0013640237079 0.0013468006108 0.0013299563421 
0.0013134858857 0.0012973838654 0.0012816448527 0.001266262945 0.0014372141517 0.001418669974 0.0013912601465 0.0013734304296 0.0013559896854 
0.0013389329318 0.0013222552176 0.0013059511054 0.0012900150532 0.0012744412799 0.0014494519557 0.0014307477709 0.0014010513139 0.0013829966866 
0.0013653362889 0.0013480651791 0.0013311782133 0.0013146700827 0.0012985351116 0.0012827675227 0.001461861506 0.0014430044082 0.0014110017289 
0.0013927201658 0.001374838175 0.0013573506483 0.0013402524662 0.0013235382653 0.001307202443 0.0012912391418 0.0014744298498 0.0014554283737 
0.0014211086978 0.0014025982146 0.0013844925012 0.0013667865602 0.0013494751369 0.0013325528603 0.0013160141078 0.0012998529746 0.0014871441339 
0.0014680053921 0.0014313688748 0.0014126274516 0.0013942959839 0.0013763694759 0.0013588426717 0.0013417101286 0.0013249662799 0.0013086052622 
0.0014979720373 0.0014781723563 0.0014413977043 0.0014222684685 0.0014035911195 0.001385358007 0.0013675611197 0.0013501918795 0.0013332420175 
0.0013167021928 0.0015075611586 0.0014876356892 0.0014521084318 0.0014327296512 0.0014138096199 0.0013953402308 0.0013773136714 0.0013597212457 
0.0013425541017 0.0013258028731 0.0015172069873 0.00149713707 0.0014629669679 0.0014433383922 0.0014241750178 0.0014054693235 0.0013872125609 
0.001369396143 0.0013520109481 0.0013350476175 0.0015269150856 0.0015066829736 0.0014739783092 0.001454099404 0.001434692858 0.0014157500903 
0.001397262728 0.0013792217264 0.0013616180098 0.0013444424079 0.0015008646484 0.001481380736 0.0014560080256 0.0014373912177 0.0014192250352 
0.0014014920523 0.0013841759232 0.0013672612269 0.0013507338397 0.0013345805156 0.0015134020943 0.0014937304732 0.0014661208271 0.0014472630546 
0.0014288631872 0.0014109034507 0.0013933672419 0.0013762389935 0.001359504257 0.0013431497058 0.0015261368414 0.0015062857343 0.0014764143139 
0.0014573131714 0.0014386770832 0.0014204881156 0.0014027293087 0.0013853849221 0.0013684403935 0.0013518820797 0.0015390673959 0.0015190440485 
0.0014868943454 0.0014675472467 0.0014486723984 0.001430251524 0.0014122675316 0.0013947044171 0.0013775473524 0.0013607826294 0.0015521913424 
0.001532004352 0.0014975674607 0.0014779718157 0.0014588554826 0.0014401999447 0.0014219879438 0.0014042032979 0.0013868309501 0.0013698570521 
0.0015655077396 0.0015451643627 0.0015084409817 0.001488593935 0.0014692332659 0.0014503402434 0.0014318973453 0.001413888236 0.0013962977284 
0.0013791116764 0.0015757559125 0.0015550156185 0.0015184159948 0.001498301248 0.001478692386 0.0014595679975 0.0014409081642 0.0014226940658 
0.0014049089919 0.0013875367704 0.0015861243743 0.0015652510433 0.0015296659147 0.00150927858 0.0014894071482 0.0014700297607 0.0014511258561 
0.0014326768606 0.0014146648038 0.0013970735301 0.0015965553984 0.0015755275082 0.0015410850832 0.0015204252034 0.0015002911495 0.0014806604239 
0.0014615125301 0.0014428279145 0.0014245884779 0.0014067775857 0.0016070459935 0.0015858426993 0.0015526708065 0.0015317384994 0.0015113416413 
0.0014914578203 0.001472065566 0.0014531449851 0.0014346776541 0.0014166467882 0.0015763932924 0.0015559646318 0.0015299614431 0.0015104201745 
0.0014913475712 0.0014727265339 0.0014545410847 0.0014367762369 0.0014194179321 0.0014024531034 0.0015894265034 0.0015687995312 0.0015405734606 
0.0015207803266 0.0015014632869 0.0014826050478 0.0014641893076 0.0014462008894 0.0014286255331 0.0014114499162 0.0016026660466 0.001581848391 
0.0015513719014 0.0015313244934 0.0015117605651 0.001492662601 0.0014740141159 0.0014557995705 0.0014380046099 0.0014206157639 0.0016161088487 
0.0015951094707 0.0015623619816 0.0015420577983 0.0015222444259 0.0015029041057 0.001484020172 0.0014655769379 0.0014475597463 0.0014299550201 
0.0016297532162 0.0016085798269 0.0015735496584 0.001552985977 0.0015329204587 0.0015133350843 0.0014942130221 0.0014755383156 0.0014572961822 
0.0014394728003 0.0016435960221 0.0016222567077 0.001584941388 0.00156411547 0.0015437949887 0.0015239617517 0.0015045986679 0.0014856896448 
0.001467219685 0.0014491748287 0.0016543997797 0.001632865497 0.0015952631477 0.001574159357 0.0015535820279 0.0015335102077 0.0015139242689 
0.0014948055454 0.0014761374629 0.0014579038441 0.0016653826263 0.0016437009304 0.0016070026538 0.0015856161581 0.0015647662729 0.0015444316275 
0.0015245919142 0.0015052287221 0.0014863243245 0.0014678624343 0.0016764278932 0.0016545770345 0.001618916798 0.0015972475969 0.0015761250929 
0.0015555271928 0.0015354338878 0.0015158255415 0.0014966843009 0.0014779935767 0.0016875334574 0.0016654925166 0.0016310036246 0.001609051767 
0.0015876563255 0.001566795466 0.0015464478948 0.0015265940353 0.0015072155723 0.0014882953862 0.0016512715243 0.0016299093601 0.0016032465653 
0.0015828012278 0.0015628414884 0.0015433507925 0.001524313504 0.0015057149568 0.00148754124 0.0014697793954 0.0016647915819 0.0016432210193 
0.0016143456124 0.0015936378747 0.0015734233994 0.0015536853755 0.0015344078937 0.0015155760725 0.0014971758107 0.0014791939309 0.0016785258386 
0.0016567547082 0.001625636088 0.0016046635737 0.0015841918947 0.0015642039893 0.0015446838452 0.0015256162595 0.0015069869375 0.0014887825862 
0.0016924704283 0.0016705081071 0.0016371227664 0.0016158828542 0.0015951514051 0.0015749111054 0.0015551456382 0.0015358396709 0.0015169787572 
0.0014985493486 0.0017066229284 0.0016844775199 0.0016488108286 0.0016273009117 0.0016063069695 0.0015858115716 0.0015657981292 0.0015462511374 
0.0015271558784 0.0015084986971 0.0017209795975 0.0016986599045 0.0016607061551 0.0016389234926 0.001617664326 0.0015969110122 0.0015766467597 
0.0015568558868 0.0015375234978 0.0015186357187 0.0017321799968 0.0017098423335 0.0016713843032 0.0016493136948 0.0016277889954 0.0016067897114 
0.001586296394 0.0015662908605 0.0015467558598 0.0015276761053 0.0017437743963 0.0017212757264 0.0016836057202 0.0016612427213 0.0016394359086 
0.0016181643011 0.0015974081106 0.0015771484448 0.0015573684559 0.0015380515799 0.0017554306165 0.0017327489839 0.0016960065722 0.0016733511274 
0.0016512620903 0.0016297179004 0.0016086982964 0.0015881845565 0.0015681587269 0.001548604139 0.0017671469448 0.0017442612581 0.0017085850538 
0.0016856372495 0.0016632658568 0.0016414487707 0.0016201658335 0.0015993973569 0.0015791251378 0.0015593322643 0.0017254711825 0.0017031878683 
0.0016758413787 0.001654511728 0.0016336837602 0.0016133415103 0.0015934696211 0.0015740535879 0.00155507977 0.0015365353278 0.0017394695398 
0.001716967857 0.0016874155123 0.0016658133724 0.0016447206836 0.0016241212411 0.0016039995475 0.0015843408837 0.0015651313214 0.0015463579071 
0.0017536882972 0.0017309779267 0.0016991856365 0.00167730843 0.0016559485319 0.0016350894211 0.0016147154481 0.0015948116366 0.0015753639586 
0.0015563591485 0.001768124459 0.0017452138142 0.0017111557822 0.0016890009601 0.0016673712992 0.0016462500112 0.0016256211704 0.0016054696749 
0.0015857812615 0.0015665424607 0.0017827737588 0.0017596720632 0.001723330617 0.0017008956317 0.0016789935602 0.0016576073908 0.001636721019 
0.0016163191429 0.0015963873194 0.0015769119469 0.0017976320397 0.0017743477503 0.0017357154 0.0017129974999 0.0016908202552 0.0016691664443 
0.0016480197611 0.0016273647155 0.0016071867126 0.0015874719756 0.0018090514208 0.0017859011305 0.0017467561991 0.0017237406324 0.0017012893304 
0.0016793821188 0.0016579999722 0.0016371248757 0.0016167396706 0.0015968289845 0.0018212540169 0.0017979300129 0.0017594513353 0.0017361340563 
0.001713391427 0.0016912028709 0.0016695489171 0.0016484109008 0.0016277720389 0.001607615815 0.0018335170243 0.0018099972182 0.0017723299465 
0.0017487108866 0.001725676778 0.001703206598 0.0016812802166 0.0016598793431 0.0016389859848 0.001618583576 0.0018458395273 0.0018221025782 
0.001785390644 0.001761469784 0.0017381440757 0.001715391755 0.0016931931641 0.0016715287089 0.0016503803629 0.0016297311552 0.0017989671001 
0.0017757752336 0.0017477253323 0.0017255307098 0.0017038531067 0.001682676914 0.0016619872272 0.0016417698265 0.0016220111644 0.0016026985646 
0.0018134348998 0.0017900165642 0.0017597630374 0.0017372859525 0.0017153339398 0.001693891075 0.0016729423247 0.0016524731754 0.0016324699589 
0.0016129197236 0.0018281290494 0.0018044937798 0.0017720005427 0.0017492385643 0.0017270096398 0.0017052976798 0.0016840873309 0.0016633639705 
0.001643113699 0.0016233233881 0.0018430461072 0.0018192027215 0.00178444152 0.001761392115 0.0017388837093 0.0017169000645 0.0016954255775 
0.0016744454157 0.0016539455569 0.0016339126654 0.0018581810764 0.0018341391759 0.0017970900371 0.0017737505457 0.0017509600208 0.0017287020191 
0.0017069607517 0.0016857212122 0.001664969158 0.0016446910967 0.0018735295877 0.001849297646 0.0018099506349 0.0017863183608 0.0017632430114 
0.0017407079323 0.0017186971509 0.0016971954871 0.0016761885068 0.0016556625708 0.0018849721263 0.0018610002859 0.0018213573032 0.0017974180638 
0.0017740604644 0.0017512647886 0.0017290122261 0.0017072849576 0.0016860661705 0.0016653398066 0.0018977788773 0.001873621473 0.0018345174557 
0.0018102675924 0.0017866098822 0.0017635241606 0.0017409912146 0.0017189928395 0.0016975115931 0.0016765318114 0.0019106442182 0.0018862789708 
0.0018478645521 0.0018233039461 0.001799345921 0.0017759698448 0.0017531561431 0.0017308859544 0.0017091422115 0.001687908051 0.0019235675591 
0.0018989730033 0.0018613974088 0.0018365260161 0.0018122675028 0.0017886008441 0.0017655058169 0.0017429638505 0.0017209567865 0.001699467677 
0.0018717356598 0.001847649915 0.0018188794532 0.0017958385392 0.0017733292764 0.0017513365342 0.0017298456908 0.0017088427934 0.001688314455 