# vtk DataFile Version 5.1
vtk output
ASCII
DATASET STRUCTURED_POINTS
DIMENSIONS 10 10 20
SPACING 0.1 0.1 0.1
ORIGIN 3.25 -0.45 0.55
POINT_DATA 2000
FIELD FieldData 1
potential 1 2000 double
0.00038261306168 0.00037886435771 0.00037308056439 0.00036957114413 0.00036613386987 0.00036276608616 0.00035946704924 0.00035623532773 0.00035306476051 
0.00034994264949 0.00038324848771 0.00037951861083 0.00037345933266 0.00036994275558 0.0003664986966 0.00036312308427 0.00035981558683 0.00035657468066 
0.00035339391734 0.00035026089241 0.00038385043634 0.00038014137852 0.00037378745303 0.00037026061126 0.00036680635671 0.00036342092769 0.00036010277222 
0.00035684992625 0.00035365578819 0.00035051011062 0.0003847642914 0.00038107235705 0.00037440562836 0.00037086288796 0.00036739382127 0.00036399328476 
0.00036066003852 0.00035739067198 0.00035417957675 0.00035101784496 0.00038620975299 0.00038253072921 0.00037553337369 0.0003719676778 0.00036847586801 
0.00036505444195 0.00036169983384 0.00035840988073 0.00035517779733 0.00035199656267 0.00038828646123 0.00038461523764 0.00037727207889 0.00037367384537 
0.00037015132681 0.00036670056979 0.00036331865823 0.00036000274162 0.00035674600496 0.00035354202826 0.00038929173921 0.00038544355445 0.00038034832951 
0.00037681890591 0.00037334808351 0.00036993583493 0.00036658232513 0.00036328570376 0.00036003972751 0.0003568391502 0.00039240431812 0.00038856812816 
0.00038315638276 0.00037958011122 0.00037606297917 0.00037260835803 0.00036921725466 0.00036588824002 0.00036261331295 0.00035938529924 0.00039579631472 
0.00039196583817 0.00038625119235 0.00038262576413 0.00037906163101 0.00037556245059 0.00037213231778 0.00036876998236 0.00036546517727 0.00036220747805 
0.00039908587364 0.00039526290937 0.00038926721353 0.00038559861213 0.00038199254784 0.00037845463505 0.00037498990014 0.00037159602357 0.00036826193808 
0.00036497484172 0.00045216441452 0.00044758897837 0.00044113163003 0.00043681034739 0.00043258196884 0.00042844247348 0.00042438734154 0.00042041371456 
0.00041651558455 0.00041268581651 0.00045373601246 0.00044916268493 0.00044240707189 0.00043806308591 0.00043381232145 0.00042965009337 0.00042557325698 
0.00042157736195 0.00041765688634 0.00041380473687 0.00045529917688 0.00045073046823 0.00044366017183 0.00043929185702 0.00043501695644 0.00043083095409 
0.00042673032321 0.00042271070033 0.00041876664843 0.00041489168525 0.00045705877249 0.00045249384542 0.0004450931891 0.00044069631577 0.00043639380569 
0.00043218098659 0.00042805376106 0.0004240077012 0.00042003766903 0.00041613802962 0.00045916245703 0.00045460040303 0.00044685457505 0.00044242422199 
0.00043808916133 0.0004338450158 0.00042968708795 0.00042561119972 0.0004216126199 0.00041768534442 0.00046168558185 0.00045712426609 0.00044902064495 
0.00044455081871 0.00044017785359 0.00043589683691 0.00043170389996 0.00042759473986 0.00042356388965 0.0004196064365 0.00046275549568 0.0004579564111 
0.00045218922636 0.00044778346566 0.0004434599876 0.00043921573941 0.00043504881774 0.00043095636941 0.00042693407169 0.00042297749119 0.00046587886932 
0.00046109091549 0.00045502982748 0.00045057658088 0.00044620653517 0.00044191889507 0.00043771154289 0.00043358139162 0.0004295236822 0.00042553358794 
0.00046916238088 0.00046438152489 0.00045804087992 0.00045353938276 0.00044912321903 0.00044479147091 0.0004405428826 0.00043637481555 0.00043228124421 
0.00042825590485 0.00047238103816 0.00046760752532 0.00046100731939 0.00045646052928 0.0004520013202 0.00044762829859 0.00044334153192 0.00043913667865 
0.0004350079661 0.0004309477981 0.00052185325834 0.00051645041813 0.00050932042014 0.00050419372572 0.00049917828175 0.00049426927639 0.00048946138231 
0.00048475086896 0.00048013237294 0.00047560064152 0.00052414034506 0.00051872560178 0.00051127649197 0.00050611416128 0.00050106337109 0.00049611954425 
0.00049127810276 0.00048653436712 0.00048188303831 0.00047731892408 0.00052645071305 0.00052102660301 0.00051324292108 0.00050804338467 0.00050295629689 
0.00049797700606 0.00049310085011 0.00048832295655 0.00048363833351 0.000479041685 0.00052890318551 0.00052347154899 0.00051533846178 0.00051009922401 
0.00050497356426 0.00049995667386 0.00049504348436 0.00049022926048 0.00048550960926 0.00048087957659 0.00053159033823 0.00052615188714 0.00051765742189 
0.00051237452653 0.0005072071124 0.00050214936174 0.00049719668069 0.00049234384682 0.0004875869539 0.00048292143425 0.00053456135396 0.0005291163045 
0.00052024909573 0.00051491962728 0.00050970633561 0.00050460425595 0.00049960901314 0.00049471535868 0.00048991878628 0.00048521494404 0.00053576538899 
0.00053002303597 0.00052360237739 0.00051832894857 0.00051315825556 0.00050808717292 0.00050311290355 0.00049823133871 0.00049343866696 0.00048873169885 
0.0005390622232 0.00053332713496 0.00052663430187 0.00052130835174 0.00051608803603 0.00051096900493 0.000505948875 0.00050102341076 0.00049618938573 
0.00049144191288 0.00054246898416 0.00053673796588 0.00052978605008 0.00052440856883 0.00051913747262 0.00051397043063 0.00050890424421 0.00050393538746 
0.00049905882787 0.00049426997457 0.00054585347868 0.00054012492071 0.00053293225387 0.0005275043628 0.00052218506952 0.00051697119798 0.00051186075833 
0.00050684877166 0.00050193031806 0.00049710056259 0.00059153611373 0.00058530667107 0.00057750066158 0.00057157455056 0.00056577683094 0.00056010211858 
0.00055454561312 0.00054910297444 0.00054376894223 0.00053853935188 0.00059441807206 0.00058816420685 0.00058001842214 0.00057404499735 0.00056820107228 
0.00056248130786 0.00055688075132 0.00055139478234 0.00054601887773 0.00054074830426 0.00059734826521 0.00059107363475 0.00058257295136 0.00057655070999 
0.00057065976952 0.00056489411183 0.00055924889746 0.0005537190884 0.00054830061331 0.00054298882221 0.00060039566901 0.00059410287184 0.00058523302867 
0.00057916102136 0.00057322115493 0.00056740798339 0.00056171623257 0.00055614141931 0.0005506793055 0.00054532483513 0.00060361571021 0.00059730615201 
0.00058805621835 0.00058193180821 0.00057594090054 0.00057007774407 0.00056433802757 0.00055871650279 0.00055320848821 0.00054781030771 0.00060703736465 
0.00060071288043 0.00059107372976 0.0005848941616 0.00057884956763 0.00057293466008 0.000567144657 0.00056147396034 0.00055591857039 0.00055047442425 
0.00060842823903 0.00060174980062 0.00059468040032 0.00058854553454 0.0005825334358 0.00057664082642 0.0005708636128 0.00056519806546 0.00055964057787 
0.00055418764982 0.00061200267748 0.00060532578596 0.00059800418075 0.00059181091965 0.00058574302617 0.00057979596209 0.00057396642882 0.00056825057826 
0.00056264475443 0.00055714440364 0.00061566664848 0.00060898744913 0.00060142718517 0.00059517562992 0.00058905136893 0.00058304993955 0.00057716822665 
0.00057140200014 0.00056574697131 0.00056019858707 0.00061934286212 0.00061265907291 0.00060487630575 0.00059856768518 0.00059238829793 0.00058633355524 
0.0005804000571 0.00057458392015 0.00056887940109 0.00056328316196 0.00066111963559 0.00065406520558 0.00064557734789 0.00063885776245 0.00063228307805 
0.00062584779011 0.00061954710245 0.00061337650787 0.00060733177939 0.00060140824666 0.00066452805454 0.0006574386949 0.00064858938874 0.00064181210696 
0.00063518113601 0.00062869105891 0.00062233731084 0.00061611462091 0.0006100190206 0.00060404586744 0.00066800381409 0.00066088294198 0.00065165756402 
0.00064482127245 0.00063813322947 0.00063158788454 0.00062517992057 0.00061890451344 0.0006127577526 0.00060673498639 0.00067158581993 0.00066443629445 
0.00065482150538 0.00064792546402 0.00064117915802 0.00063457708192 0.00062811371009 0.00062178495793 0.00061558580813 0.00060951255678 0.00067530627096 
0.00066813070139 0.00065811548063 0.0006511580475 0.00064435160841 0.00063769129521 0.00063117128861 0.00062478710045 0.00061853456391 0.00061240918539 
0.00067918087669 0.00067198143556 0.00066155813772 0.00065453736854 0.0006476694545 0.00064094900548 0.00063437075668 0.00062792988156 0.00062162205365 
0.00061544342086 0.0006807980935 0.0006731918674 0.00066546654933 0.00065847589228 0.00065162763487 0.00064491801873 0.00063834293391 0.00063189820119 
0.00062558055152 0.00061938623137 0.0006847124354 0.00067709973493 0.00066914296956 0.00066208665799 0.00065517512592 0.00064840428689 0.00064176965711 
0.00063526757749 0.00062889423668 0.00062264509392 0.00068870935495 0.00068108670599 0.00067291140398 0.00066578962006 0.00065881470491 0.00065198220524 
0.00064528794002 0.00063872812012 0.0006322984564 0.00062599454631 0.00069274469233 0.00068510921919 0.00067673049706 0.00066954386438 0.00066250595684 
0.00065561238219 0.00064885904972 0.00064224142184 0.00063575494838 0.0006293957238 0.00073053944883 0.00072266373081 0.00071348612233 0.00070597899235 
0.00069863248484 0.00069144142467 0.0006844015329 0.00067750807185 0.0006707566265 0.00066414313072 0.00073443550969 0.00072651477594 0.00071695358847 
0.0007093789302 0.00070196679285 0.00069471228321 0.00068761019617 0.00068065621085 0.00067384573538 0.000667174727 0.00073841283855 0.00073045033056 
0.00072049108842 0.00071284819911 0.00070536995661 0.00069805071372 0.00069088581586 0.00068387088604 0.00067700098029 0.00067027196829 0.00074249300533 
0.00073449164471 0.00072412149903 0.00071640966074 0.00070886408839 0.00070147925627 0.00069425078197 0.0006871735163 0.00068024340173 0.0006734558797 
0.00074669357927 0.00073865674282 0.00072786506992 0.00072008272854 0.00071246859846 0.0007050172468 0.00069772369636 0.00069058333373 0.00068359174243 
0.00067674450253 0.00075102261044 0.00074295258087 0.00073173229117 0.00072387818499 0.00071619410918 0.00070867489702 0.00070131503936 0.00069411003257 
0.00068705569383 0.00068014751061 0.00075289836 0.00074437381934 0.00073597561754 0.00072813432871 0.00072045487705 0.00071293327051 0.00070556462444 
0.00069834551499 0.00069127194095 0.00068434055966 0.00075718661737 0.00074864671352 0.00074003941191 0.00073212455024 0.00072437419792 0.0007167836148 
0.00070934816935 0.00070206396245 0.00069492721403 0.00068793376112 0.00076155804167 0.0007529992632 0.00074419444931 0.00073620661885 0.00072838496017 
0.00072072512966 0.00071322231555 0.00070587266533 0.00069867219418 0.00069161620317 0.00076598753416 0.00075740696751 0.00074841874746 0.00074035782839 
0.00073246514625 0.00072473607594 0.00071716609145 0.00070975119566 0.00070248639707 0.00069536783975 0.00079974851499 0.00079105650908 0.00078118054452 
0.00077289142886 0.00076477848646 0.00075683710674 0.00074906285297 0.00074145110461 0.0007339974307 0.00072669803699 0.00080410926162 0.00079536208551 
0.00078508033569 0.00077671453004 0.00076852707336 0.00076051355151 0.00075266857589 0.00074498820022 0.00073746772652 0.00073010325066 0.00080856238921 
0.00079976326232 0.00078906071669 0.00078061771955 0.00077235541596 0.0007642685729 0.00075635260533 0.00074860285693 0.00074101480714 0.00073358472555 
0.0008131186979 0.00080427128657 0.00079313535692 0.00078461423003 0.00077627595889 0.00076811512703 0.00076012713491 0.00075230724799 0.00074465100535 
0.00073715450371 0.00081778715875 0.00080889476344 0.00079731508592 0.00078871496387 0.00078029972159 0.00077206388628 0.00076400279698 0.00075611178709 
0.00074838642722 0.00074082272145 0.00082257131088 0.00081363670659 0.00080160585556 0.0007929256019 0.00078443243577 0.00077612043471 0.00076798501413 
0.00076002178753 0.00075222632921 0.00074459407321 0.00082473358991 0.00081530147922 0.00080620541717 0.00079751899296 0.00078901318807 0.00078068385574 
0.000772526785 0.00076453781094 0.0007567130458 0.00074904825975 0.00082941335551 0.00081995602211 0.00081067487875 0.00080190702634 0.00079332240168 
0.00078491625208 0.00077668436777 0.00076862246226 0.00076072646707 0.00075299255969 0.00083417969381 0.00082469414588 0.00081523821927 0.00080638913395 
0.00079772531501 0.00078924197816 0.00078093503408 0.00077279982553 0.00076483245699 0.00075702881768 0.0008390194658 0.00082950260533 0.00081988471844 
0.00081095421209 0.00080221112513 0.00079365052309 0.00078526810349 0.00077705990147 0.00076902097683 0.00076114679724 0.0008687094254 0.00085920736184 
0.00084862453434 0.00083955893652 0.00083068525939 0.00082199850994 0.00081349471348 0.00080516925784 0.00079701822129 0.00078903693091 0.00087352113078 
0.00086395423483 0.00085294269357 0.00084379159192 0.00083483474288 0.00082606717228 0.00081748477239 0.00080908270153 0.0008008569958 0.00079280324212 
0.00087843408498 0.00086880548402 0.00085735026187 0.00084811342286 0.00083907285978 0.000830224088 0.00082156225299 0.00081308292869 0.00080478194664 
0.00079665506025 0.0008834532652 0.00087376668698 0.0008618549738 0.00085253141366 0.00084340645221 0.00083447539307 0.000825733443 0.00081717614022 
0.0008087991534 0.00080059841682 0.00088858260912 0.00087884155871 0.00086646245592 0.00085705153471 0.00084784127467 0.00083882694849 0.0008300040114 
0.00082136777189 0.00081291405619 0.00080463859756 0.00089382210076 0.00088402954152 0.00087117573525 0.00086167626176 0.00085237971393 0.00084328144742 
0.00083437653649 0.00082566062086 0.00081712910591 0.00080877804468 0.00089629736992 0.00088596965427 0.00087614524478 0.00086661865295 0.00085729145236 
0.00084815914904 0.00083921803372 0.00083046378703 0.00082189208638 0.00081349910451 0.00090137525238 0.00089101255645 0.00088102854617 0.00087141253024 
0.00086199815997 0.00085278111165 0.00084375714809 0.00083492208941 0.00082627149626 0.00081780193612 0.00090654489651 0.00089614369509 0.00088601018734 
0.00087630429096 0.00086680272826 0.00085750053173 0.00084839348365 0.00083947735051 0.0008307479528 0.00082220062689 0.00091180010676 0.00090135754143 
0.00089108557911 0.00088129001544 0.00087170090306 0.00086231334247 0.0008531230731 0.00084412583229 0.00083531690292 0.00082669184062 0.00093739050856 
0.0009270858128 0.00091578855474 0.0009059520412 0.00089632231761 0.00088689519968 0.00087766664484 0.00086863244096 0.00085978812659 0.00085112993289 
0.00094264444567 0.0009322651131 0.00092051625959 0.0009105855371 0.00090086451572 0.00089134864875 0.00088203322987 0.00087291456781 0.00086398808302 
0.00085524993718 0.00094800771636 0.00093755725569 0.00092534134006 0.0009153163466 0.00090550327424 0.00089589766669 0.00088649502884 0.00087729128315 
0.00086828203917 0.00085946332268 0.00095348164469 0.00094296363615 0.00093026752701 0.00092014738237 0.00091024160164 0.00090054569788 0.0008910551057 
0.00088176550162 0.00087267290672 0.00086377299611 0.0009590672318 0.00094848512868 0.00093529770269 0.00092508155958 0.00091508221044 0.00090529519739 
0.0008957158052 0.00088633979932 0.00087716271971 0.00086818087357 0.00096476213616 0.00095411915693 0.00094043228079 0.00093011960421 0.00092002613207 
0.00091014701147 0.00090047791267 0.00089101446257 0.0008817523139 0.00087268736391 0.00096757688133 0.00095636745407 0.00094577856986 0.00093541674847 
0.00092527268613 0.00091534222851 0.00090562161987 0.00089610650657 0.00088679268851 0.00087767602661 0.00097305257317 0.00096179766064 0.00095107765537 
0.00094061783151 0.00093037831847 0.00092035518249 0.00091054388511 0.00090094016163 0.00089153998888 0.00088233907859 0.00097862590558 0.00096732250106 
0.00095647986886 0.00094592196868 0.00093558712922 0.00092547068781 0.00091556832586 0.00090587564846 0.00089638888344 0.0008871028339 0.00098429532576 
0.0009729400957 0.00096198494043 0.00095132905658 0.00094089846343 0.00093068858118 0.00092069498571 0.00091091345405 0.00090133934941 0.00089196768568 
0.001005762219 0.00099466355902 0.00098264685704 0.00097204423938 0.00096166337204 0.00095150076315 0.0009415521089 0.00093181340519 0.00092228080007 
0.00091295001988 0.0010114529182 0.0010002698453 0.00098777842193 0.00097707332879 0.00096659311852 0.00095633338661 0.00094629024412 0.00093645941247 
0.00092683716188 0.00091741915421 0.0010172605974 0.0010059966585 0.00099301467845 0.00098220687568 0.00097162643957 0.00096126913793 0.00095113080826 
0.00094120729515 0.00093149480918 0.00092198905981 0.0010231843191 0.0010118434186 0.00099835697132 0.0009874457933 0.00097676449035 0.00096630878421 
0.00095607472989 0.00094605802957 0.00093625451567 0.0009266602385 0.0010292229274 0.0010178081427 0.0010038061208 0.00099279065467 0.00098200785763 
0.00097145326818 0.0009611225854 0.0009510117326 0.00094111660269 0.00093143306533 0.0010353725846 0.0010238882735 0.0010093614194 0.00099824122518 
0.00098735610446 0.00097670173583 0.00096627373364 0.00095606792906 0.00094608026988 0.00093630658042 0.0010385547809 0.0010264790219 0.0010150863987 
0.0010038935578 0.00099293721645 0.00098221303576 0.00097171750602 0.0009614462196 0.00095139512252 0.00094155954305 0.0010444234461 0.001032291398 
0.0010207985478 0.0010094997335 0.00099843964385 0.00098761484465 0.0009770206822 0.00096665311194 0.0009565077523 0.00094658023309 0.0010503966152 
0.0010382052811 0.0010266196203 0.0010152142184 0.001004050688 0.00099312463921 0.00098243155227 0.00097196725748 0.00096172731047 0.00095170755815 
0.001056475104 0.0010442213947 0.0010325512459 0.001021039726 0.0010097723163 0.00099874458005 0.00098795226419 0.0009773909489 0.00096705657403 
0.00095694369671 0.001073797264 0.0010619142033 0.0010491753018 0.0010378112806 0.0010266840125 0.0010157901864 0.0010051259183 0.00099468746346 
0.00098447086068 0.00097447218846 0.001079920482 0.0010679435314 0.00105470691 0.001043232278 0.0010319975483 0.0010209987597 0.0010102322054 
0.00099969423953 0.00098938065512 0.00097928754518 0.0010861683254 0.0010741008949 0.001060350455 0.0010487647276 0.0010374216787 0.0010263174677 
0.0010154481436 0.0010048099049 0.00099439876183 0.00098421064428 0.001092538535 0.0010803845105 0.0010661054055 0.0010544080857 0.0010429562452 
0.001031745829 0.0010207730491 0.0010100339554 0.00099952455229 0.00098924077058 0.0010990282458 0.0010867907594 0.0010719710971 0.0010601616259 
0.0010486001701 0.0010372830422 0.0010262061766 0.0010153655237 0.0010047570999 0.0009943769005 0.0011056328542 0.0010933164991 0.0010779462491 
0.0010660239264 0.0010543522494 0.0010429276332 0.0010317458395 0.0010208029336 0.001010094718 0.00099961734142 0.001109210814 0.0010962854207 
0.0010840472233 0.0010720277674 0.001060263255 0.0010487500245 0.0010374839788 0.0010264612411 0.0010156774289 0.0010051282489 0.0011154648867 
0.0011024722311 0.0010901676903 0.0010780340275 0.0010661581479 0.0010545357306 0.0010431633529 0.0010320365738 0.0010211510095 0.0010105020646 
0.0011218306003 0.0011087677341 0.0010964026591 0.0010841545924 0.0010721666381 0.0010604352196 0.0010489560662 0.001037724849 0.0010267370664 
0.0010159882949 0.0011283101875 0.001115174265 0.0011027558569 0.0010903929442 0.0010782931073 0.0010664522533 0.0010548660455 0.0010435300002 
0.0010324398526 0.0010215907206 0.0011414678968 0.0011288115073 0.0011153513034 0.0011032296344 0.0010913602525 0.0010797395649 0.0010683641587 
0.0010572304196 0.0010463345356 0.001035672529 0.0011480205993 0.0011352606419 0.0011212803036 0.0011090402305 0.0010970552174 0.0010853218464 
0.0010738365681 0.0010625957779 0.0010515956006 0.0010408319936 0.0011547055555 0.0011418455683 0.0011273281654 0.0011149689564 0.0011028677869 
0.0010910211198 0.0010794254169 0.0010680769908 0.0010569718858 0.0010461062022 0.0011615198988 0.0011485634861 0.0011334934092 0.0011210145791 
0.0011087966482 0.0010968361281 0.0010851294199 0.0010736727084 0.0010624620856 0.0010514935385 0.0011684593658 0.0011554100118 0.0011397744434 
0.0011271753565 0.0011148401246 0.00110276514 0.0010909467084 0.0010793810584 0.0010680642323 0.0010569922162 0.0011755187387 0.0011623809259 
0.0011461690153 0.0011334490496 0.0011209958405 0.0011088057587 0.001096874917 0.0010851996368 0.0010737759616 0.0010625996747 0.001179522463 
0.0011657655747 0.0011526388206 0.0011397966427 0.0011272281574 0.0011149299329 0.0011028978442 0.0010911284206 0.0010796169865 0.0010683589695 
0.0011861524083 0.0011723170416 0.0011591609111 0.0011461964773 0.0011335084482 0.0011210931752 0.0011089470986 0.0010970658042 0.0010854449359 
0.0010740798236 0.001192901364 0.0011789847214 0.0011658033722 0.0011527163832 0.0011399084912 0.0011273762226 0.0011151155197 0.0011031220719 
0.0010913914093 0.0010799190486 0.0011997727793 0.0011857719342 0.0011725709556 0.0011593611176 0.0011464334356 0.0011337838241 0.0011214081154 
0.0011093022566 0.0010974614437 0.001085881312 0.0012087463668 0.0011953285177 0.0011811521529 0.0011682768269 0.0011556689233 0.001143325382 
0.0011312430003 0.0011194182605 0.001107847597 0.0010965270529 0.00121572604 0.0012021946554 0.0011874766121 0.001174474848 0.0011617435715 
0.0011492796224 0.0011370798461 0.0011251406642 0.0011134584065 0.0011020292021 0.0012228459584 0.0012092049582 0.0011939269377 0.0011807981625 
0.0011679429138 0.0011553580634 0.0011430402832 0.0011309860946 0.0011191917007 0.0011076532189 0.0012301024836 0.0012163550642 0.0012005010769 
0.0011872447037 0.0011742649648 0.0011615585813 0.0011491222373 0.0011369523945 0.0011250453035 0.001113396996 0.0012374903637 0.0012236410846 
0.0012071966327 0.0011938121344 0.0011807072478 0.0011678787789 0.0011553232858 0.0011430372065 0.0011310167576 0.0011192579162 0.0012450049068 
0.0012310572324 0.0012140106659 0.0012004975118 0.0011872669311 0.0011743157174 0.001161640416 0.0011492373869 0.0011371028754 0.0011252328737 
0.0012494649091 0.0012348961541 0.0012208377423 0.0012071764341 0.0011938078832 0.0011807287777 0.0011679354491 0.001155423703 0.0011431896107 
0.0011312282895 0.0012564598102 0.0012418011341 0.0012277535952 0.0012139619545 0.0012004659694 0.0011872619924 0.0011743466137 0.0011617155938 
0.001149364549 0.0011372886424 0.0012635814719 0.0012488300782 0.0012347959364 0.0012208738338 0.0012072499479 0.0011939212266 0.0011808834937 
0.0011681326802 0.0011556642292 0.0011434733608 0.0012708339986 0.0012559873405 0.0012419703614 0.0012279173801 0.0012141658279 0.0012007117961 
0.0011875514951 0.0011746805265 0.0011620944307 0.0011497886629 0.0012753223008 0.0012610869825 0.0012463444764 0.0012326887383 0.0012193474418 
0.0012063085217 0.0011935606864 0.0011810932985 0.001168896691 0.0011569618262 0.0012826804541 0.0012683185544 0.0012530282521 0.001239235244 
0.0012257606879 0.0012125922864 0.0011997185919 0.0011871289033 0.0011748133331 0.0011627628304 0.0012901864391 0.00127570089 0.0012598532617 
0.0012459222837 0.0012323136299 0.0012190149332 0.0012060145032 0.0011933015476 0.0011808661409 0.001168699012 0.0012978438143 0.0012832367548 
0.0012668243456 0.0012527545741 0.0012390110188 0.0012255810788 0.0012124530119 0.0011996158571 0.0011870595172 0.0011747747172 0.001305655816 
0.0012909306041 0.0012739469628 0.0012597376115 0.0012458582246 0.0012322960601 0.0012190392921 0.0012060768605 0.0011933985251 0.0011809949439 
0.0013136274219 0.0012987863407 0.0012812272846 0.0012668773728 0.001252861157 0.0012391657715 0.0012257792178 0.0012126903591 0.0011998888959 
0.0011873652797 0.0013180486153 0.0013025772427 0.001288167792 0.0012737136483 0.0012595938113 0.0012457951778 0.0012323056068 0.0012191135898 
0.0012062091548 0.0011935824752 0.0013254868518 0.0013099205495 0.0012955053635 0.0012809057492 0.0012666450996 0.0012527100878 0.001239088165 
0.0012257682117 0.0012127392989 0.0011999917647 0.0013330726605 0.001317407944 0.0013029885167 0.0012882435815 0.0012738422222 0.0012597707117 
0.0012460167393 0.0012325684638 0.0012194149995 0.0012065464248 0.0013408017156 0.0013250350305 0.0013106161308 0.0012957260468 0.0012811839211 
0.0012669762737 0.0012530900909 0.0012395133994 0.0012262351805 0.0012132455315 0.0013417342788 0.0013267499304 0.0013112585029 0.0012968729005 
0.0012828154774 0.0012690744323 0.0012556387896 0.0012424982834 0.001229643321 0.0012170650344 0.0013495072761 0.0013343882569 0.0013183260052 
0.0013037950979 0.0012895964683 0.0012757182168 0.0012621491549 0.0012488789128 0.001235897783 0.0012231967358 0.0013574344473 0.0013421829059 
0.0013255406337 0.0013108637008 0.0012965230842 0.0012825067575 0.0012688034341 0.0012554024996 0.001242294216 0.0012294694824 0.001365518031 
0.001350137314 0.001332906712 0.0013180829907 0.0013035995485 0.0012894442176 0.0012756056154 0.001262073059 0.0012488366059 0.0012358871168 
0.0013737619268 0.001358254375 0.0013404292398 0.0013254578072 0.0013108306134 0.0012965353277 0.0012825604845 0.0012688952229 0.00125552955 
0.0012424541651 0.0013821692916 0.0013665376243 0.001348113678 0.0013329936364 0.0013182217016 0.0013037854531 0.0012896732589 0.0012758741968 
0.0012623781411 0.0012491757211 0.001387070251 0.0013707946907 0.0013554020188 0.0013401557633 0.0013252606254 0.0013107038383 0.0012964734688 
0.001282558107 0.0012689478697 0.0012556329082 0.0013948691291 0.0013784879318 0.0013631273913 0.0013477281451 0.0013326847514 0.0013179842433 
0.0013036142488 0.0012895637524 0.0012758220032 0.0012623792121 0.0014028220498 0.0013863318485 0.0013710031159 0.0013554510203 0.0013402594907 
0.0013254150873 0.0013109058731 0.0012967199076 0.0012828464881 0.0012692757058 0.0014109252141 0.0013943227023 0.0013790287262 0.0013633239223 
0.0013479841049 0.0013329962401 0.0013183474174 0.0013040258996 0.0012900207332 0.0012763217033 0.0014076734494 0.0013919463368 0.0013756886944 
0.0013605863941 0.0013458252311 0.001331393855 0.0013172815717 0.001303478396 0.0012899748693 0.0012767622333 0.0014158543941 0.0013999845021 
0.001383132003 0.0013678765713 0.0013529665438 0.0013383904168 0.0013241373243 0.0013101971553 0.0012965603476 0.0012832180092 0.0014241950019 
0.001408184393 0.0013907276848 0.0013753184178 0.0013602587151 0.0013455369234 0.0013311421514 0.001317064071 0.001303293009 0.0012898200292 
0.0014326968784 0.0014165489966 0.0013984797246 0.0013829157361 0.0013677054949 0.0013528371952 0.0013382997431 0.0013240827558 0.0013101764866 
0.0012965718314 0.0014413633469 0.0014250806018 0.0014063924898 0.001390672942 0.0013753111996 0.0013602954144 0.0013456143225 0.0013312574481 
0.0013172148623 0.0013034774217 0.0014501970836 0.0014337825294 0.0014144709872 0.0013985949603 0.0013830807794 0.0013679164732 0.0013530906611 
0.0013385927687 0.0013244127679 0.0013105413755 0.0014555981209 0.0014385270074 0.0014221201187 0.0014060951178 0.001390437353 0.0013751343905 
0.0013601744041 0.0013455463634 0.0013312397505 0.001317245482 0.0014637552376 0.0014465678375 0.0014302296053 0.0014140443482 0.001398231139 
0.001382777284 0.0013676708163 0.0013529002402 0.0013384555535 0.0013243266945 0.0014720723294 0.0014547654165 0.001438493693 0.0014221482976 
0.0014061797441 0.0013905750013 0.0013753218369 0.0013604090742 0.0013458258848 0.001331562269 0.0014805457496 0.0014631161781 0.0014469120755 
0.0014304067378 0.0014142828845 0.0013985271599 0.0013831275967 0.0013680723161 0.0013533504292 0.0013389518654 0.0014731165244 0.0014566539977 
0.0014396167944 0.0014238104578 0.0014083576501 0.001393247504 0.0013784695568 0.0013640139615 0.0013498714968 0.0013360335187 0.0014816986566 
0.0014650848858 0.0014474281895 0.0014314611809 0.0014158520237 0.0014005897096 0.0013856637208 0.0013710640841 0.0013567813879 0.0013428069462 
0.0014904446631 0.0014736830428 0.0014553968154 0.0014392682404 0.001423501889 0.0014080865476 0.0013930116266 0.0013782669882 0.0013638431941 
0.0013497313416 0.0014993569457 0.0014824498359 0.001463526053 0.0014472350749 0.0014313106607 0.001415741432 0.0014005166189 0.0013856260363 
0.0013710600954 0.0013568097712 0.0015084372995 0.0014913877919 0.0014718198697 0.0014553656809 0.0014392822858 0.0014235581752 0.0014081824826 
0.0013931449065 0.0013784357574 0.0013640459473 0.0015176880919 0.0015004986979 0.0014802827737 0.0014636644269 0.001447421068 0.0014315410663 
0.0014160134389 0.0014008277763 0.0013859743098 0.001371443851 0.0015236113528 0.0015057546673 0.0014883025187 0.0014715118717 0.0014551039106 
0.0014390664117 0.0014233878536 0.0014080573091 0.0013930643039 0.0013783996503 0.0015321236835 0.0015141402124 0.0014967919962 0.0014798340239 
0.0014632636121 0.0014470683465 0.0014312364774 0.0014157566587 0.0014006189086 0.001385813176 0.0015408011003 0.0015226878117 0.0015054396618 
0.0014883144933 0.0014715817182 0.0014552286942 0.0014392432491 0.0014236145297 0.0014083316355 0.0013933846256 0.0015496404213 0.0015313942716 
0.001514245594 0.0014969533584 0.0014800582923 0.0014635472676 0.0014474086847 0.0014316306978 0.0014162025309 0.0014011140357 0.0015380420856 
0.0015208518328 0.0015030256466 0.0014865276256 0.0014703950272 0.0014546172744 0.0014391842832 0.0014240864467 0.0014093146274 0.0013948603317 
0.0015470181762 0.0015296693765 0.0015111977744 0.0014945315399 0.0014782352668 0.0014622981707 0.0014467101183 0.0014314613073 0.0014165425547 
0.0014019451848 0.0015561622989 0.0015386579641 0.0015195313295 0.0015026961004 0.0014862352822 0.0014701380105 0.001454393936 0.001438993222 
0.0014239265411 0.0014091851175 0.0015654765202 0.0015478190936 0.0015280294233 0.0015110243584 0.0014943980961 0.0014781397025 0.0014622386734 
0.001446685048 0.0014314694462 0.0014165829669 0.0015749620572 0.0015571546879 0.0015366955443 0.0015195197248 0.0015027270896 0.0014863065883 
0.001470247614 0.0014545401109 0.0014391745628 0.001424141984 0.0015846211321 0.0015666660863 0.0015455336252 0.0015281861311 0.0015112261683 
0.0014946425633 0.0014784246069 0.0014625621472 0.0014470455549 0.001431865767 0.0015910902268 0.0015724594568 0.0015539308747 0.0015363872474 
0.0015192411681 0.001502480736 0.0014860945607 0.0014700718351 0.0014544023506 0.0014390762761 0.0015999539928 0.0015811860599 0.0015627957836 
0.0015450779973 0.0015277627175 0.0015108378115 0.0014942916941 0.0014781133744 0.0014622922403 0.0014468189652 0.0016089874575 0.0015900794774 
0.0015718219626 0.0015539301259 0.001536445709 0.0015193563323 0.0015026502486 0.0014863160427 0.0014703435918 0.0014547226563 0.0016181875212 
0.0015991366477 0.0015810096964 0.0015629439393 0.0015452904344 0.0015280366176 0.001511170327 0.0014946805635 0.0014785563888 0.00146278764 