# vtk DataFile Version 5.1
vtk output
ASCII
DATASET STRUCTURED_POINTS
DIMENSIONS 10 10 20
SPACING 0.1 0.1 0.1
ORIGIN 3.25 -0.45 0.55
POINT_DATA 2000
FIELD FieldData 1
potential 1 2000 double
0.027422522441 0.025904520594 0.024330890171 0.022924929936 0.021578725636 0.020297045459 0.019083156658 0.017938058426 0.016861605271 
0.015851888354 0.02497568313 0.023671994863 0.022315153186 0.021097513275 0.019925704371 0.018804416034 0.017736711643 0.016724390123 
0.015767723114 0.014866004956 0.02278309517 0.021659456742 0.020489421415 0.019431956364 0.018409766517 0.01742700358 0.01648665267 
0.015590822299 0.014740176638 0.013934721961 0.020832562474 0.019860013608 0.018851252765 0.017929810432 0.017035339693 0.016171541032 
0.01534150731 0.014547101657 0.013789583229 0.013069243147 0.019107606626 0.018261862778 0.017392790245 0.016586275324 0.015800200968 
0.015038222914 0.014302940092 0.013596581005 0.012920439845 0.012274999841 0.017587295266 0.016848205067 0.016099871403 0.01539006278 
0.014696004466 0.014020824423 0.013367063127 0.012736856631 0.012131460498 0.011551596295 0.016142535381 0.01550290536 0.014855706961 
0.014233043681 0.013623532043 0.013029691355 0.012453285235 0.011895776335 0.011358004242 0.010840664876 0.014970522943 0.014407634085 
0.013839478278 0.013287283212 0.012745336388 0.012215714715 0.011700204538 0.01120007033 0.010716228422 0.010249310359 0.013929381491 
0.013431656622 0.012930734216 0.012439066431 0.011955208931 0.011481055484 0.011018292735 0.01056818671 0.010131572636 0.0097089648751 
0.012992007565 0.012550206845 0.012107007807 0.011667803701 0.011234398186 0.01080865638 0.010392152 0.0099860475016 0.0095910776262 
0.0092076731285 0.031060933376 0.02938052145 0.02765678583 0.026091793588 0.024590744955 0.0231588645 0.021799753141 0.020515012421 
0.019304627745 0.01816724025 0.028391767675 0.026940685599 0.025448397702 0.024086414516 0.022773711619 0.021515573385 0.020315437111 
0.019175337816 0.01809589091 0.017076803942 0.025997695497 0.024740352517 0.023447752259 0.022258995652 0.021108440329 0.020000701491 
0.018939282639 0.017926254258 0.016962989695 0.016049596051 0.023855954627 0.022762332311 0.021642573454 0.020601825019 0.019590526916 
0.018612805297 0.017672053906 0.016770519536 0.015909625126 0.015090123323 0.021944977114 0.020989945019 0.020020337266 0.019105679793 
0.018213550736 0.017347958009 0.01651184678 0.015707805183 0.014937186712 0.014200803616 0.020242623628 0.019405284647 0.018565780996 
0.017758424861 0.016968528527 0.016199399092 0.015454262727 0.014735168625 0.014043646963 0.013380735435 0.018615859296 0.017887774889 
0.01716102979 0.016450505792 0.01575458341 0.015075821167 0.014416357336 0.01377781013 0.013161390508 0.012567934692 0.017271136552 
0.016629286403 0.015990722374 0.015359980306 0.014740476777 0.014134541866 0.013544100208 0.012970694624 0.012415516495 0.011879415159 
0.016064823797 0.015496941043 0.014933884944 0.014372122253 0.013818922956 0.013276358236 0.012746230178 0.012230052475 0.011728893647 
0.011243573277 0.014973988237 0.014469904805 0.013971930616 0.013470155552 0.012974825626 0.012487810071 0.012010804614 0.011545135388 
0.011091831133 0.010651632207 0.034361233305 0.032548770513 0.030704683634 0.029008052669 0.027377202183 0.025818417536 0.024335337771 
0.022930272708 0.021603489042 0.020354323061 0.03150785879 0.029934779733 0.028331919531 0.026848332228 0.025416126291 0.024040763538 
0.022726288274 0.021475146694 0.020288248357 0.01916570684 0.028942101303 0.027572239651 0.026178408644 0.024877618969 0.023616843569 
0.022401065437 0.021234187308 0.020118743679 0.019056133748 0.018046974337 0.026636261848 0.025439486305 0.024226978869 0.023083373066 
0.021970612322 0.02089349138 0.019855594048 0.0188595167 0.017907154599 0.016999191202 0.024565863492 0.023516673487 0.022462103935 
0.021453085832 0.020468128649 0.019511361419 0.018586183815 0.0176952657 0.01684032941 0.016022432954 0.022707783045 0.021784857508 
0.020867361244 0.019974132838 0.019099369905 0.018247046379 0.017420344425 0.016621694195 0.015852804816 0.015114932986 0.020925786149 
0.020119612779 0.019322660566 0.018534266883 0.017761330347 0.017006645825 0.01627265532 0.015561147684 0.014873636174 0.014211167482 
0.019433507428 0.018721299299 0.018019962485 0.017318795635 0.016629510503 0.01595463367 0.015296365783 0.014656473589 0.014036367017 
0.013437092392 0.018086469038 0.017455292617 0.016836257869 0.01621092525 0.015594590245 0.014989600543 0.01439796844 0.013821316659 
0.013260961344 0.012717901049 0.016864203651 0.016303235023 0.015755381641 0.015196285294 0.014643931258 0.014100442598 0.013567626718 
0.013046986973 0.01253973484 0.012046865926 0.037306071933 0.035391753978 0.033456624616 0.031655560388 0.029920394804 0.028258017049 
0.026672657525 0.025167139359 0.02374215973 0.022397507691 0.034311920904 0.032641846135 0.030953203644 0.029370823557 0.027840346391 
0.026367629188 0.02495729563 0.023611988453 0.022333361153 0.021121769566 0.031609254034 0.030148047755 0.028673769195 0.027280341536 
0.025927459722 0.024620646865 0.023364218597 0.022160805652 0.021012601123 0.019920271066 0.029169480304 0.027887306932 0.02660000895 
0.025369768997 0.024171121872 0.023009206279 0.021887753683 0.020810072621 0.019777973361 0.018792482211 0.026967111045 0.025838833219 
0.024714659734 0.023625350831 0.022560721909 0.021525153365 0.020522665722 0.019555960248 0.018626980081 0.017737065977 0.024979404983 
0.02398342653 0.023001315007 0.022033850627 0.021085452704 0.020160502495 0.019262340609 0.018393544012 0.017556193294 0.016751619086 
0.023067952195 0.022194236362 0.021336572705 0.02048042956 0.019640054015 0.018818630858 0.018018743774 0.017242529507 0.016491696842 
0.015767438332 0.02145161641 0.020677714482 0.01992153501 0.019158303879 0.01840723688 0.017671113761 0.016952355733 0.01625295889 
0.015574528415 0.014918259951 0.019985452853 0.019298136108 0.018629670492 0.017947654058 0.017274889889 0.016613882501 0.015966848808 
0.015335597231 0.014721632258 0.014126117487 0.018650848095 0.01803889657 0.017446533799 0.016835787593 0.01623195481 0.015637283706 
0.01505375309 0.014483074257 0.013926598467 0.013385508918 0.039892952782 0.03790513043 0.035907040538 0.034027245877 0.032212294886 
0.03046911065 0.02880269201 0.027216138499 0.025711013523 0.024287350177 0.036801020779 0.035057824313 0.033307188025 0.031647917882 
0.03003979059 0.028489284807 0.027001209899 0.025578740426 0.024223915297 0.022937312192 0.033997175957 0.032464914643 0.030930623786 
0.029463056607 0.028035765102 0.026654597163 0.02532407266 0.024047525147 0.022827231637 0.021664118929 0.031454387772 0.030104002922 
0.028759386685 0.02745835562 0.026188970671 0.024956498611 0.023765234572 0.02261849361 0.021518405284 0.020466336002 0.029147896871 
0.027954998169 0.02677630285 0.025620189268 0.024488656048 0.023386866069 0.022318652551 0.021287040558 0.020294313505 0.019341924556 
0.02705569315 0.0259989703 0.024965362781 0.023935101372 0.022924265589 0.021937193778 0.020977524739 0.020048108288 0.019151160215 
0.018288241986 0.025039598383 0.024108747596 0.023200095136 0.022286074468 0.021387831085 0.020508769962 0.019651729448 0.018819099178 
0.018012716918 0.017233993831 0.023320947636 0.02249415532 0.02169121267 0.020874305332 0.020069513902 0.019279939832 0.018508170585 
0.017756377156 0.01702632834 0.016319378024 0.021755430712 0.021019329228 0.020308209927 0.019576617074 0.018854234515 0.018143809934 
0.017447681006 0.016767889148 0.016106058974 0.015463537868 0.020325899768 0.019669094532 0.019037938067 0.018381500934 0.017731918008 
0.017091624504 0.016462772669 0.015847176301 0.015246450387 0.014661754088 0.042130037699 0.040094604564 0.038059292819 0.03612481918 
0.034252624614 0.032450028227 0.030722602989 0.029073835383 0.027505763885 0.026019000721 0.038979999806 0.037185979585 0.035395353638 
0.033679849504 0.032013618875 0.030403720372 0.028855186205 0.027371822163 0.025955817522 0.02460824596 0.036109297167 0.034524837467 
0.0329498352 0.031425716749 0.029940779715 0.028501145239 0.027111655983 0.025776135817 0.024496849827 0.023275210615 0.033493219849 
0.03209099266 0.030705630311 0.02934910999 0.028023468126 0.026734226571 0.02548616578 0.024282626389 0.023126103146 0.022018157638 
0.031109386516 0.029865722325 0.028647128271 0.027437103559 0.02625140033 0.02509516214 0.023972527315 0.022886760877 0.021840326105 
0.020834912739 0.028936809448 0.027831209038 0.026758869091 0.02567711367 0.024614481515 0.023575581922 0.022564209305 0.021583460553 
0.02063572229 0.019722677271 0.026839935944 0.02586211973 0.024911919737 0.023949695644 0.023002942489 0.022075232682 0.021169644682 
0.020288738235 0.019434544782 0.018608614719 0.025039162819 0.024168085375 0.023326505714 0.022464169515 0.021613739945 0.020778445199 
0.019961041338 0.019163896459 0.018388918367 0.017637651325 0.023392514547 0.022614969582 0.021868119671 0.021093989052 0.020328873189 
0.019575634005 0.018836807035 0.018114539432 0.017410650866 0.016726579977 0.021884202843 0.021188769019 0.020524691863 0.019828587836 
0.01913911642 0.018458882917 0.017790140947 0.017134954334 0.016494893028 0.015871424736 0.044032913778 0.041972941827 0.039923353762 
0.037955782292 0.03604690387 0.034204490415 0.032434446469 0.030740816559 0.029126099234 0.027591180161 0.040860004426 0.039034986863 
0.037224909159 0.035471675646 0.033765335176 0.032113182718 0.030520375164 0.028991305976 0.027528406101 0.026133135743 0.037953465043 
0.036334282004 0.03473612009 0.033171801126 0.031644889828 0.030161688229 0.028727594846 0.027346333022 0.026020641893 0.02475220553 
0.035292053272 0.033852886874 0.032442471494 0.031044452651 0.029676102987 0.028343306202 0.027050781728 0.025802193519 0.024600255005 
0.023446820632 0.032855577548 0.031574241243 0.030329486401 0.02907789392 0.027849808869 0.026650462394 0.02548422909 0.024354580936 
0.023264174893 0.022214867271 0.030625254932 0.029482158657 0.02838324266 0.027260526904 0.026156360136 0.025075459407 0.024021851345 
0.022998772591 0.02200876864 0.021053668006 0.028470103393 0.027454998246 0.026472520778 0.025471394336 0.024485117009 0.023517460247 
0.022571652704 0.021650412786 0.020755923413 0.019889914819 0.026605915648 0.025698897118 0.024826668259 0.02392698456 0.023038702503 
0.022165192046 0.021309396076 0.020473803384 0.019660489895 0.018871127972 0.024895074006 0.024083251395 0.023307529068 0.022497817322 
0.021696679519 0.020907146857 0.020131878635 0.019373177065 0.018632980868 0.017912888147 0.023322981195 0.022595090355 0.021904015947 
0.021174206957 0.020450670327 0.019736097611 0.019032993603 0.018343367107 0.017669063065 0.01701159183 0.045622197774 0.043557556605 
0.041514050859 0.039532041715 0.037604718232 0.035739976648 0.033943990161 0.032221320009 0.030574707027 0.029005603301 0.042456396715 
0.040618223357 0.038806594322 0.037032320896 0.035302038457 0.033622902342 0.032000852025 0.030440048502 0.028943483105 0.027512915837 
0.039541406627 0.037903012468 0.036297999738 0.03470815409 0.033153393071 0.031640510063 0.030174735928 0.028760186973 0.027399842402 
0.026095659857 0.03685940941 0.035397139147 0.033976003995 0.032549495587 0.031151058473 0.0297866608 0.028461192858 0.027178550064 
0.025941665221 0.024752558205 0.034393055525 0.033086029799 0.031827993837 0.03054620222 0.029286670448 0.028054824578 0.026855186352 
0.025691374335 0.024566223351 0.023481770678 0.032125695652 0.030955599648 0.0298415448 0.028687753957 0.027551648027 0.026438105105 
0.025351228213 0.024294402273 0.023270282938 0.022280894834 0.029933216592 0.02888992587 0.027884120596 0.026852866468 0.025835604223 
0.024836232627 0.023858125402 0.022904128339 0.02197658737 0.021077375925 0.028022806699 0.027087794499 0.026192694242 0.02526329879 
0.024344600284 0.023440094959 0.022552847796 0.021685496428 0.020840234836 0.020018857575 0.026263327771 0.025424097862 0.024626327046 
0.023787667713 0.02295700737 0.022137472312 0.02133185663 0.020542591593 0.019771728071 0.019020950249 0.024641434705 0.023887039348 
0.023174894446 0.022417156978 0.021665226312 0.020921861293 0.020189644462 0.019470765868 0.018767146213 0.018080410876 0.046921289505 
0.044868743263 0.042848769421 0.040868550026 0.038938507166 0.037066657608 0.035259579789 0.033521883972 0.031856778639 0.03026618786 
0.04378743728 0.041951374559 0.040154100237 0.038373387573 0.036633315293 0.034941228374 0.033302979665 0.031723136223 0.030204938714 
0.028750506568 0.040887482075 0.039243664541 0.037646074474 0.036043718663 0.034474019508 0.032943641094 0.031458049942 0.030021564503 
0.028637384388 0.027307720104 0.038206657754 0.036733448076 0.035314648032 0.033871295619 0.032454082428 0.031069044247 0.02972123334 
0.028414687991 0.027152522745 0.025936977588 0.035730504233 0.034408682229 0.033149106173 0.031847346286 0.0305664397 0.029311878223 
0.028088257519 0.026899345489 0.025748096239 0.024636745194 0.033444662766 0.032257095379 0.031138546375 0.029962817495 0.028803708438 
0.027666148539 0.026554346654 0.025471792166 0.024421281365 0.023404950729 0.03123411137 0.03017110107 0.029150468319 0.028097232716 
0.027056923505 0.026033546829 0.025030580813 0.024050995808 0.023097267074 0.022171407762 0.029293085458 0.02833748833 0.027427047706 
0.026475091575 0.025532969692 0.024604276608 0.023692182555 0.02279942043 0.021928318698 0.021080750427 0.027499191698 0.026639084228 
0.025825851758 0.024964538221 0.0241105003 0.023266967187 0.022436865444 0.021622646817 0.020826492871 0.020050214125 0.025840420548 
0.025065227425 0.024337748469 0.023557631974 0.022782661599 0.022015800892 0.021259630298 0.020516475144 0.019788342132 0.019076930554 
0.047954896849 0.045928619345 0.043946788973 0.04198190496 0.040062494982 0.038196835055 0.036391324398 0.034650932327 0.032979217505 
0.031378457604 0.044873359408 0.043052340871 0.041283009556 0.039508413804 0.037770885878 0.036077719388 0.034434956312 0.032847306015 
0.031318295597 0.029850308686 0.0420078212 0.040370352012 0.03879289065 0.037189463 0.035615901566 0.034078942353 0.032584122329 
0.031135888576 0.029737681456 0.028391912561 0.039346716896 0.037873340982 0.036468408528 0.035018471693 0.033592550689 0.032196732968 
0.03083613766 0.02951491274 0.028236332506 0.027002801367 0.036878178208 0.035551193858 0.03430068186 0.032988228222 0.031695030251 
0.030426581134 0.029187556021 0.027981822759 0.026812476227 0.025681855111 0.034590066883 0.033393790719 0.032280453313 0.03109103667 
0.029917012905 0.028763355034 0.027634323789 0.026533492 0.025463760093 0.024427387339 0.032379089235 0.031304068978 0.030276654623 
0.029208856346 0.028152794429 0.027112518095 0.026091593804 0.025093091833 0.024119601595 0.023173200732 0.030421407247 0.029452085754 
0.028533455127 0.027565551436 0.026606490747 0.025659949367 0.024729157637 0.023816953707 0.022925717518 0.022057482702 0.028605958041 
0.027731019385 0.026908695101 0.026030619045 0.025158955888 0.024297080825 0.023447921448 0.022614066348 0.02179776597 0.021000914258 
0.026921914486 0.026131325572 0.025394263098 0.024596906702 0.023804065488 0.023018663805 0.022243426313 0.02148073274 0.020732664937 
0.020000984935 0.048748318344 0.046759576471 0.044827979453 0.042889682277 0.040992171686 0.039143626706 0.037350554046 0.035618110834 
0.033950109099 0.032349154579 0.045734863714 0.043939674171 0.042209797051 0.04045188584 0.038727296019 0.037043354779 0.035406135362 
0.0338205358 0.03229024053 0.030817894425 0.042919574197 0.041298611323 0.039752033787 0.038157250517 0.036589492405 0.035055421012 
0.033560641194 0.032109727387 0.030706228962 0.029352770729 0.040293600478 0.038829345767 0.037448411194 0.036000824587 0.034575042399 
0.033177121149 0.031812212191 0.030484564968 0.029197554348 0.027953740753 0.037847484412 0.036523869433 0.035291796842 0.033976799752 
0.032679325892 0.031404886192 0.030158180035 0.028943142739 0.027762953355 0.026620077966 0.03557123286 0.034373912124 0.033274517427 
0.032078774502 0.030897105122 0.029734488832 0.028595217607 0.027482918884 0.026400559935 0.025350468133 0.033375599728 0.032295499144 
0.031268822686 0.030193163175 0.029127931187 0.028077220116 0.027044649436 0.026033354445 0.025045966652 0.024084751829 0.031413569764 
0.030436745297 0.029516700586 0.028538864309 0.027568808274 0.026610223652 0.025666412407 0.024740261282 0.023834253648 0.02295047911 
0.02958805352 0.028703871671 0.027878502744 0.026988989042 0.026105044232 0.025230035004 0.024366930408 0.023518401146 0.022686761829 
0.021873969233 0.027889389401 0.027088324225 0.026347084628 0.025537320794 0.024731298479 0.023932058201 0.023142328627 0.022364549886 
0.021600852758 0.020853088165 0.049326015613 0.047383891047 0.045512306741 0.043609540326 0.041743076049 0.039920783275 0.038149269854 
0.036433791181 0.034778368643 0.033185860187 0.046392782885 0.044632248618 0.042951393831 0.041218761962 0.039515795692 0.037849736662 
0.036226680978 0.034651578697 0.033128283867 0.03165963915 0.043640208842 0.042044195395 0.040537648759 0.038959704702 0.037405899887 
0.035882842767 0.034396137093 0.032950404546 0.03154931284 0.030195648801 0.041061947808 0.039614728547 0.038266449297 0.036828861376 
0.035410824131 0.034018340711 0.0326565609 0.031329771964 0.030041435454 0.028794242113 0.038650573696 0.037337688857 0.036132258909 
0.034821760617 0.033527044579 0.032253557458 0.031006009826 0.029788364385 0.028603865957 0.027455095502 0.036398137843 0.035206527463 
0.034128801655 0.032933192924 0.031750313591 0.030585101347 0.029441848805 0.028324209175 0.027235194201 0.026177190944 0.034231875347 
0.033152847908 0.032133918682 0.031056345818 0.029987833106 0.028932477635 0.027893932329 0.026875358052 0.025879511995 0.024908674311 
0.032276205355 0.031297475768 0.03038240599 0.029400018416 0.028424290151 0.027458944648 0.02650726766 0.025572211758 0.024656324364 
0.023761759185 0.030450646445 0.029562288634 0.028739683541 0.027843671249 0.026952261477 0.026068854908 0.025196485834 0.024337854013 
0.023495314517 0.022670900755 0.028746882701 0.027939926373 0.027199626763 0.026381865117 0.025567068295 0.024758285413 0.02395828367 
0.023169550134 0.022394268523 0.021634328158 0.049711545785 0.04782300918 0.046019122173 0.044159019098 0.042330789836 0.040542162643 
0.038799685273 0.037108673733 0.035473296169 0.03389663609 0.046867423519 0.0451484976 0.043524400282 0.041824026728 0.040149776999 
0.038508770756 0.036907056734 0.035349613214 0.033840407509 0.032382457724 0.044187177485 0.042622966596 0.041163964919 0.039609606781 
0.038076579291 0.036571376451 0.035099560313 0.033665774685 0.032273768501 0.030926455281 0.041666534194 0.040242918136 0.038934651654 
0.03751347631 0.036109635457 0.034729036626 0.033376788853 0.032057194261 0.030773783625 0.029529346811 0.039299919153 0.038004049252 
0.036832290284 0.035532319091 0.034246390832 0.03297988001 0.031737461078 0.030523111503 0.02934011521 0.028191087702 0.03708128978 
0.035901223392 0.034851885474 0.033662015048 0.032483526201 0.031321295023 0.030179589134 0.029062030537 0.027971724236 0.026911119003 
0.034956692769 0.033884127 0.032879439329 0.031805115459 0.030738508528 0.029683636442 0.028644167419 0.0276232998 0.026623819423 
0.025648082217 0.033016511031 0.032040858689 0.031136696635 0.030154559125 0.02917794105 0.028210501373 0.027255597555 0.026316193489 
0.025394872411 0.024493847712 0.03119972263 0.030311756511 0.029497338427 0.028599134147 0.027704607074 0.026817122815 0.025939729224 
0.025075150937 0.02422579133 0.02339371626 0.029499088415 0.028690388001 0.027956011993 0.027134226626 0.02631460117 0.025500192361 
0.024693797937 0.023897902327 0.023114737412 0.022346241869 0.049930653974 0.048102058294 0.046341632391 0.044532751561 0.042752664365 
0.041008379371 0.03930584383 0.037649965466 0.036044666431 0.034492938277 0.047186869907 0.045517534853 0.043912856234 0.042255898461 
0.040622320561 0.03901853099 0.03745003522 0.035921439642 0.034436495018 0.03299813321 0.044590865316 0.043067654836 0.041606811452 
0.040089741947 0.038591360286 0.037117530185 0.035673331944 0.034263076018 0.032890329238 0.031557955872 0.042139547908 0.04074990947 
0.039422054024 0.03803341031 0.036659426335 0.035305455464 0.033976182057 0.032675629292 0.031407165116 0.030173524983 0.039828507128 
0.038560840059 0.037356032721 0.036084999531 0.034825184085 0.033581471845 0.03235818001 0.031159044779 0.029987198188 0.028845360002 
0.037652647901 0.03649605398 0.035405364085 0.034241788299 0.033086513783 0.031943984663 0.030818207477 0.029712613425 0.02863019967 
0.027573470936 0.035548575324 0.034484508803 0.033530659707 0.032456528734 0.031390457606 0.030336192004 0.029297157644 0.028276351722 
0.027276375687 0.026299438288 0.033629566705 0.032659230542 0.031793494134 0.030809785944 0.029831987883 0.028863539554 0.027907556484 
0.026966795703 0.026043680175 0.025140277536 0.031829103628 0.030943898622 0.030156945303 0.029255883063 0.028358914301 0.027469176278 
0.026589506388 0.025722439001 0.02487022227 0.024034806187 0.030140369315 0.029332467182 0.028616099932 0.027790513006 0.026967496392 
0.026149878174 0.025340257243 0.024540972833 0.023754106584 0.022981477703 0.049996185848 0.048229749311 0.046542355154 0.044787140188 
0.043056594987 0.041357499325 0.039695686183 0.038076046088 0.036502559531 0.034978351473 0.047351942842 0.045733582522 0.044191089013 
0.042577769846 0.040984423475 0.039417275479 0.037881724242 0.036382356317 0.034922960277 0.033506578571 0.044840821014 0.04335887051 
0.04195095077 0.04046891549 0.039002772826 0.037558228765 0.036140272253 0.034753191662 0.033400565354 0.032085326711 0.042460975487 
0.041104479823 0.039821492976 0.038460561663 0.037111999565 0.035781028424 0.034472260745 0.03318968523 0.031936632328 0.030716009782 
0.040209549729 0.038968062615 0.037801193552 0.036551667871 0.035311494274 0.034085421798 0.032877765906 0.031692186035 0.030531877005 
0.029399512247 0.038082638651 0.036946400875 0.035887608795 0.034740331463 0.033599865544 0.032470532001 0.031356268336 0.030260512244 
0.029186248387 0.028136018822 0.036035127119 0.034986420185 0.034050833592 0.032989493338 0.031934706309 0.030890209601 0.029859380446 
0.028845207095 0.027850314621 0.026876941035 0.03414666472 0.033187636512 0.032336452759 0.031361915657 0.030392026267 0.029430198108 
0.028479518246 0.027542737927 0.026622298835 0.025720311099 0.032369450855 0.031492245394 0.030716837704 0.029821941618 0.028930082742 
0.028044348111 0.027167568944 0.026302290113 0.025450774639 0.024614997262 0.030697824371 0.029895193869 0.029187849984 0.028365968497 
0.02754573554 0.02672997576 0.025921284155 0.025121988707 0.024334197282 0.023559756515 0.049930659873 0.048228776826 0.046615571291 
0.044917278415 0.04323978773 0.041589643714 0.039972530617 0.038393288522 0.03685591415 0.035363622707 0.047388231929 0.045823662071 
0.044344999174 0.042778913643 0.041229588569 0.039703043384 0.038204544836 0.036738632233 0.035309084323 0.033919000159 0.044965320598 
0.043527836217 0.042174704734 0.040731505775 0.039301535947 0.03789032006 0.036502752403 0.035143047851 0.033814732206 0.032520891682 
0.042661212436 0.041341167133 0.040105075212 0.038775731104 0.037456561089 0.036152642189 0.034868440072 0.03360796496 0.032374560635 
0.031171059632 0.040474177406 0.039262279674 0.038135377162 0.036911235808 0.035694660922 0.034490270829 0.03330223846 0.032134227658 
0.03098940622 0.029870470779 0.038401519316 0.037289051034 0.036264165689 0.035136982421 0.034015117518 0.032902834653 0.031803956924 
0.030721889886 0.029659590739 0.028619612434 0.036415176488 0.035385143723 0.0344697598 0.033424818993 0.032384985088 0.03135392702 
0.03033497149 0.029331084765 0.028344892434 0.027378664925 0.034562884828 0.033618396997 0.032783654838 0.031821744268 0.030863247552 
0.029911518462 0.028969611168 0.028040271391 0.027125940597 0.026228745498 0.032814700556 0.031948561043 0.031186416664 0.030300966961 
0.029417493335 0.028539051315 0.027668451863 0.026808214571 0.02596061508 0.025127645945 0.031165837713 0.030371374763 0.029674623247 
0.028859525949 0.02804518536 0.027234368982 0.02642966358 0.025633406916 0.024847699829 0.024074416372 0.049751218936 0.048115263175 
0.04657643845 0.044937236137 0.043315254712 0.041716792621 0.040147362339 0.03861171313 0.037113817471 0.035656946844 0.047311428996 
0.045802480335 0.04438836318 0.042872110262 0.041369612326 0.039886675183 0.038428423506 0.036999293263 0.03560298981 0.034242770473 
0.044978575509 0.043587862796 0.042290529059 0.040889036925 0.039498267005 0.038123530223 0.036769645148 0.035440716068 0.034140304581 
0.032871399926 0.042752988029 0.041471912928 0.040283910173 0.038989200181 0.037702605922 0.036428997462 0.035172781912 0.033937824761 
0.032727475207 0.031544564927 0.040633873575 0.039454251865 0.038368643323 0.037173006582 0.035983206159 0.034803744028 0.033638675026 
0.032491597484 0.031365641587 0.030263503618 0.038619507766 0.037533511238 0.036543782096 0.035439832383 0.034339790588 0.033247790784 
0.032167563688 0.031102450925 0.030055389779 0.029028920937 0.036697618494 0.03568902775 0.034795511448 0.03376998861 0.03274817111 
0.031733646209 0.030729684218 0.029739225272 0.028764879063 0.02780892337 0.034886143309 0.033958903006 0.033142165385 0.032195798935 
0.031251654437 0.03031301657 0.029382898633 0.028464005421 0.027558775946 0.026669346876 0.033171710178 0.032319252547 0.031571836158 
0.03069864141 0.029826408145 0.028958117644 0.028096548316 0.027244212125 0.026403374114 0.025576034948 0.031550370948 0.030766588131 
0.030081790888 0.029276151032 0.028470376993 0.02766721965 0.026869219741 0.026078705549 0.025297772334 0.024528294376 0.049473540817 
0.047903876143 0.046438822824 0.044859988632 0.043295089026 0.041750152492 0.040230518449 0.038740801375 0.037284886719 0.035866185876 
0.04713591634 0.045683679035 0.044333949723 0.042869263008 0.041415563263 0.039978374955 0.03856274323 0.037172952981 0.035812735301 
0.034485215657 0.044893791496 0.043551273642 0.042310008279 0.040952326217 0.039603024624 0.038267258179 0.036949622302 0.035654170678 
0.034384404227 0.033143308775 0.042748342512 0.041508041934 0.040368680425 0.039110920073 0.037859311453 0.036618587474 0.035392994739 
0.03418631321 0.033001840506 0.031842405614 0.040699485745 0.039554131014 0.038510427272 0.037345760353 0.036185311063 0.035033422141 
0.033894033222 0.032770657558 0.031666385909 0.030583891991 0.038746235399 0.037688849488 0.036735024116 0.0356568399 0.034581219096 
0.033512160858 0.032453299407 0.031407901115 0.030378848532 0.029368670247 0.036891180492 0.035906262671 0.035035918654 0.034032272428 
0.033031000287 0.032035598294 0.031049271362 0.030074900846 0.029115077926 0.028172085472 0.035124123923 0.034216363984 0.033418916768 
0.032490549293 0.031563246258 0.030640230894 0.029724452136 0.028818588845 0.027925055684 0.027045987551 0.033447272157 0.032610691422 
0.031879238983 0.03102067772 0.030162083794 0.029306397171 0.02845634234 0.027614397346 0.026782805476 0.025963568034 0.031857375148 
0.031086369126 0.030414699549 0.029620816656 0.028825955454 0.028032813536 0.02724389334 0.026461492474 0.025687695723 0.024924375288 
0.049111564223 0.047607993726 0.046215375979 0.044697423166 0.043190374702 0.041700071465 0.040231600244 0.038789454625 0.037377506169 
0.035999025721 0.046874642981 0.045479535228 0.044193432347 0.042781357997 0.041377712606 0.039987845667 0.03861652257 0.037267960212 
0.035945814727 0.03465319882 0.044723102163 0.043429699652 0.042244103815 0.040931592848 0.039625341301 0.038330262639 0.037050795089 
0.035790875713 0.034553946545 0.033342961751 0.042658400002 0.041460078512 0.040369205209 0.039150073553 0.037935288816 0.036729392673 
0.035536497249 0.034360274825 0.033203958024 0.032070344736 0.040681076215 0.039571434501 0.0385697682 0.037437939098 0.036308814246 
0.035186579505 0.034075042446 0.032977624817 0.03189734774 0.030836858915 0.038790897068 0.037763739985 0.036846031278 0.035795604365 
0.034746484849 0.033702533924 0.032667255004 0.03164383556 0.030635105391 0.02964355978 0.037004136557 0.036044647844 0.035198520491 
0.034218734871 0.033240055503 0.032265890302 0.031299357567 0.030343301993 0.029400271674 0.028472529676 0.035284257011 0.034397782137 
0.033620673558 0.032712274306 0.031803870605 0.0308985911 0.029999315101 0.02910867637 0.028229053472 0.027362571267 0.033647947667 
0.032829060537 0.03211460398 0.031272664036 0.030429758125 0.029588758244 0.028752325405 0.027922900966 0.0271027027 0.026293719889 
0.032092664296 0.031336246637 0.030678700006 0.029898527766 0.029116566637 0.028335457975 0.027557657552 0.026785428861 0.026020834968 
0.025265738483 0.04867770317 0.047239473009 0.045917477459 0.044460342731 0.043011441242 0.041576256503 0.040159707921 0.038766146455 
0.037399356509 0.036062567389 0.046539682553 0.045201459025 0.043977681615 0.042618604578 0.041265665624 0.039923946983 0.038598032472 
0.037291998755 0.03600941533 0.034753354156 0.044477551435 0.043233494153 0.042102690351 0.040836195304 0.039573993122 0.038320789703 
0.037080848512 0.035857983738 0.034655548605 0.033476459541 0.042493324852 0.041337637083 0.040294713071 0.039115340716 0.037938656587 
0.036769011533 0.035610368991 0.03446627574 0.033339890665 0.032233973425 0.0405880948 0.039515103844 0.038555116924 0.037457485791 
0.036361172702 0.035270175367 0.034188174923 0.033118483775 0.032064061706 0.031027505266 0.038762106264 0.03776634026 0.036884542552 
0.035863393002 0.034842384278 0.033825218303 0.032815298739 0.031815704923 0.030829199868 0.029858228893 0.037044349671 0.03611162217 
0.035290514625 0.034336094597 0.033381626575 0.032430393719 0.031485431751 0.030549514171 0.029625148123 0.028714572679 0.035373590293 
0.03450982088 0.033753892918 0.032867074514 0.031979241248 0.03109342368 0.030212430923 0.029338840196 0.028474992147 0.027622987894 