# vtk DataFile Version 5.1
vtk output
ASCII
DATASET STRUCTURED_POINTS
DIMENSIONS 10 10 20
SPACING 0.1 0.1 0.1
ORIGIN 3.25 -0.45 0.55
POINT_DATA 2000
FIELD FieldData 1
potential 1 2000 double
0.00070896270306 0.00069538589715 0.0006795306993 0.00066763700871 0.00065613154646 0.00064499537157 0.00063421544276 0.00062377882338 0.00061366812466 
0.00060385368812 0.00070051049502 0.00068712001792 0.00067028755413 0.00065863000336 0.00064735415553 0.00063643831287 0.00062587174647 0.00061564171903 
0.00060572904547 0.00059610544893 0.00069187445206 0.00067865712328 0.00066086223771 0.00064944562881 0.00063840235311 0.00062771356055 0.00061736476215 
0.00060734338715 0.00059763029911 0.00058820075953 0.00068362777101 0.00067055539038 0.00065181159982 0.00064063397154 0.00062982384449 0.000619359028 
0.00060922636481 0.00059941120901 0.00058989619114 0.00058065916347 0.00067612848788 0.00066317105705 0.00064348997751 0.00063254604263 0.00062196081693 
0.00061171518791 0.00060179247826 0.0005921802918 0.0005828601243 0.00057381299972 0.00066953665979 0.00065666046116 0.00063605371894 0.0006253330778 
0.00061496457028 0.00060492854533 0.00059520973202 0.00058579501175 0.00057666629811 0.00056780616508 0.00066672789784 0.00065637083068 0.00063405065584 
0.00062383581399 0.00061385225809 0.00060409475554 0.00059456083478 0.00058524738787 0.00057614563324 0.0005672488728 0.00066177103366 0.00065148278097 
0.00062971519084 0.00061964300034 0.00060979827742 0.0006001802892 0.00059078862409 0.00058162055987 0.00057266515225 0.00056391313205 0.0006571937245 
0.00064696720338 0.00062586756005 0.00061592652386 0.00060621126459 0.00059672219561 0.00058746327228 0.00057843218225 0.00056961532313 0.00056099867252 
0.00065245395711 0.00064229605721 0.00062197190815 0.0006121642356 0.0006025798214 0.00059322248046 0.0005840973671 0.00057520155582 0.00056651966867 
0.00055803416097 0.00082388073843 0.00080845733162 0.00079049199627 0.00077665472686 0.00076326999144 0.00075031529478 0.00073776873391 0.00072561522673 
0.00071383354238 0.0007024019837 0.0008151709279 0.00079995064365 0.00078107034281 0.00076748326353 0.00075434033322 0.00074161782033 0.00072929848506 
0.00071736283945 0.00070579123582 0.00069456240867 0.00080631786852 0.0007912876513 0.00077151602035 0.00075818515231 0.00074528883795 0.00073280595159 
0.00072071714283 0.00070900370949 0.00069764668981 0.00068662578482 0.00079766034712 0.00078279667024 0.00076215727184 0.00074908326535 0.00073643626825 
0.00072419384375 0.00071233681881 0.00070084679555 0.00068970533031 0.00067889392409 0.00078944173732 0.00077471995475 0.00075323543015 0.00074041676459 
0.00072801622837 0.00071601251007 0.00070438562639 0.00069311810546 0.00068219233666 0.00067158949372 0.00078178880634 0.00076718000903 0.00074487271412 
0.00073230538768 0.00072014817088 0.00070837905137 0.00069697996085 0.0006859333504 0.00067522096412 0.00066482603357 0.00077750140633 0.00076520635931 
0.00074141652201 0.00072942022002 0.00071771251002 0.00070628317166 0.00069512556698 0.00068423341919 0.00067359927837 0.00066321640679 0.00077086630309 
0.00075868373466 0.00073552147424 0.00072370880793 0.00071218012875 0.00070092837999 0.0006899470882 0.00067922975335 0.00066876849692 0.00065855616347 
0.00076443072158 0.00075235889203 0.00072993800018 0.00071830109932 0.00070694515029 0.00069586351069 0.0006850510455 0.00067450213794 0.00066420738809 
0.00065415780582 0.00075788010222 0.00074592480326 0.00072434682498 0.00071288448578 0.00070170053866 0.00069078809043 0.00068014385925 0.00066976074331 
0.00065962931746 0.00064973850341 0.00093878884529 0.00092152741123 0.00090145408352 0.00088569199292 0.00087044080608 0.00085567553287 0.00084137184177 
0.00082751159995 0.00081407291765 0.00080103583187 0.00092946828467 0.00091243235441 0.0008915122142 0.00087601917494 0.00086102709161 0.00084651145698 
0.00083245147737 0.00081882565709 0.00080561317985 0.00079279430971 0.00092005590855 0.00090323091395 0.00088149433885 0.00086627504771 0.00085154810112 
0.00083728948208 0.00082347727602 0.00081009066393 0.00079710939747 0.00078451407412 0.0009107485864 0.00089411567639 0.00087159165152 0.00085665057175 
0.00084219196437 0.00082819262213 0.00081463041975 0.00080148488869 0.00078873749539 0.00077636904565 0.00090169899172 0.00088523637515 0.00086195838344 
0.00084729492886 0.00083310570449 0.00081936625999 0.00080605543775 0.00079315265707 0.00078064000437 0.00076849948895 0.00089299463062 0.000876676657 
0.00085267524372 0.00083829109334 0.00082437039629 0.00081089059503 0.00079783131924 0.00078517226744 0.00077289489167 0.00076098187463 0.00088734638275 
0.00087314427449 0.00084791239996 0.00083416339584 0.00082075332142 0.00080767093171 0.00079490790832 0.00078245476063 0.00077030416182 0.00075845003112 
0.00087928783724 0.00086523759048 0.00084070266813 0.00082717081938 0.00081397436878 0.0008011011922 0.00078854349543 0.000776292215 0.00076434051633 
0.00075268046696 0.00087134994094 0.00085745182755 0.00083372254145 0.00082040281764 0.00080741250701 0.00079474256452 0.00078238444787 0.00077033001583 
0.00075857038711 0.00074709798191 0.00086335284888 0.0008496105182 0.00082678231593 0.00081367153474 0.00080088617202 0.00078841656505 0.00077625579859 
0.00076439425857 0.00075282339849 0.00074153498061 0.0010534024653 0.001034315542 0.0010121440543 0.00099447712806 0.00097737582097 0.00096081364836 
0.00094476585834 0.00092921212189 0.00091412944911 0.00089949821296 0.0010432875383 0.001024450763 0.001001502416 0.00098412530294 0.00096730403645 
0.00095101199913 0.00093522682458 0.00091992576303 0.00090508804876 0.00089069339646 0.0010331198016 0.0010145197014 0.00099082983718 0.00097374682306 
0.00095721121953 0.00094119596529 0.00092567786142 0.00091063441291 0.00089604596062 0.00088189250372 0.0010230138524 0.0010046322121 0.00098023591468 
0.00096345355788 0.0009472071908 0.00093147169248 0.00091622347623 0.00090144143113 0.00088710574513 0.00087319608067 0.001013061184 0.00099487768122 
0.00096981537377 0.00095333552389 0.00093738126705 0.00092192737693 0.00090695232452 0.00089243417697 0.00087835259711 0.00086468960768 0.0010033170661 
0.00098530829611 0.00095962028803 0.00094344485487 0.00092778437649 0.00091261502022 0.00089791489112 0.00088366163998 0.00086983655852 0.00085642119068 
0.00099639526771 0.00098031406724 0.00095366244825 0.00093818488554 0.00092309358212 0.00090837709035 0.0008940244395 0.00088002628141 0.00086637472083 
0.0008530624658 0.00098708383846 0.00097119081783 0.00094529839626 0.00093006872541 0.00091522034264 0.00090074068797 0.00088662010076 0.00087284932249 
0.00085942028078 0.00084632474916 0.00097785859481 0.00096215371424 0.00093712589959 0.00092213837456 0.00090752672513 0.00089327870767 0.00087938517674 
0.00086583644372 0.0008526238435 0.00083973921141 0.00096861985766 0.00095310600644 0.00092903141491 0.000914283254 0.00089990546167 0.0008858859929 
0.00087221542334 0.00085888499745 0.00084588436269 0.00083320669312 0.0011675243698 0.0011466263114 0.0011223773043 0.0011028268493 0.0010838945382 
0.0010655530797 0.001047776876 0.0010305441106 0.0010138323145 0.00099761998263 0.0011565195877 0.001135899402 0.001110942005 0.0010917038292 
0.0010730727165 0.0010550233039 0.001037530803 0.0010205710848 0.0010041231358 0.0009881655548 0.0011454895707 0.0011251328874 0.0010995077058 
0.0010805860083 0.0010622627641 0.0010445108516 0.001027305313 0.0010106230977 0.00099444364643 0.00097874578571 0.0011344989856 0.0011143877202 
0.0010881368177 0.001069538291 0.0010515266548 0.0010340759102 0.0010171612097 0.00100076103 0.00098485328437 0.0009694184798 0.0011236029708 
0.0011037180607 0.001076886032 0.0010586142071 0.0010409174067 0.0010237713869 0.0010071512493 0.00099103504587 0.00097540229693 0.00096023267347 
0.0011128322904 0.0010931511358 0.0010657870749 0.0010478450352 0.0010304671245 0.0010136286157 0.00099730590562 0.00098147688125 0.00096612117047 
0.00095121961589 0.0011047029814 0.0010867707165 0.0010587197838 0.0010415358543 0.0010247835402 0.0010084504653 0.00099252526389 0.00097699771954 
0.00096185955226 0.00094710263472 0.001094249279 0.001076538116 0.0010493043994 0.0010323960804 0.0010159130489 0.00099984323467 0.00098417493552 
0.00096889860994 0.00095400538868 0.00093948642894 0.0010838683949 0.0010663789204 0.0010400631109 0.0010234252863 0.0010072064205 0.00099139419907 
0.00097597749051 0.00096094687178 0.00094629304857 0.00093200734887 0.0010735090158 0.0010562434164 0.0010309289621 0.0010145579643 0.000998599322 
0.00098304096606 0.00096787220838 0.00095308280995 0.00093866356274 0.00092460630515 0.0012810084438 0.0012583174988 0.0012320224103 0.0012106109238 
0.0011898679361 0.0011697652748 0.0011502794121 0.0011313851078 0.0011130593454 0.0010952805699 0.0012690684677 0.0012466841357 0.0012197469181 
0.0011986705574 0.001178251242 0.0011584637996 0.001139281497 0.0011206809156 0.0011026389546 0.0010851343601 0.0012571213523 0.0012350270004 
0.0012074940878 0.0011867577366 0.001166668993 0.0011471999374 0.0011283258778 0.0011100236388 0.0010922698645 0.0010750433433 0.0012452021899 
0.0012233804763 0.0011952992432 0.0011749095164 0.0011551549612 0.0011360089031 0.0011174475371 0.0010994467563 0.0010819849172 0.0010650403416 
0.0012333430521 0.001211775637 0.0011831966012 0.0011631569034 0.001143740735 0.0011249221063 0.0011066766966 0.0010889814198 0.0010718144691 
0.0010551547294 0.0012215609711 0.001200223824 0.0011712040102 0.0011515187952 0.0011324450309 0.0011139575294 0.0010960315486 0.0010786446959 
0.0010617757512 0.001045403602 0.0012122791276 0.0011925244962 0.0011630961081 0.0011442268202 0.0011258330199 0.001107901646 0.001090420156 
0.0010733788571 0.0010567681512 0.0010405798663 0.0012007542031 0.0011812520307 0.001152695363 0.0011341276676 0.001116028496 0.0010983846768 
0.0010811838995 0.0010644161069 0.0010480718994 0.0010321426531 0.0011893006683 0.0011700516589 0.0011424617886 0.0011241913455 0.0011063816147 
0.0010890199346 0.0010720943064 0.0010555946576 0.0010395115861 0.0010238358347 0.0011778953889 0.0011589016029 0.0011323567986 0.0011143791972 
0.0010968547021 0.0010797708957 0.001063116157 0.0010468804059 0.001031053732 0.0010156275542 0.0013937404966 0.0013692780175 0.001340980204 
0.0013177305144 0.0012951985191 0.0012733562008 0.0012521790317 0.001231641165 0.0012117187712 0.0011923896406 0.0013808470519 0.0013567180386 
0.0013278439809 0.001304952716 0.0012827671008 0.0012612619557 0.0012404095364 0.0012201862621 0.0012005679221 0.0011815325872 0.0013679589648 
0.0013441468386 0.0013147449472 0.0012922177092 0.0012703853791 0.0012492205068 0.0012286980389 0.0012087932567 0.0011894827559 0.0011707449599 
0.001355092874 0.001331581396 0.0013017056319 0.0012795473568 0.001258071967 0.001237252375 0.0012170636273 0.0011974813917 0.0011784825849 
0.0011600457363 0.0013422666209 0.0013190373052 0.0012887432741 0.0012669590137 0.0012458451286 0.0012253749116 0.0012055237239 0.0011862677359 
0.0011675842701 0.0011494517515 0.00132949049 0.0013065190892 0.0012758685494 0.0012544629724 0.0012337152351 0.0012135983933 0.0011940884336 
0.0011751622718 0.00115679752 0.0011389720457 0.0013191059395 0.0012975586308 0.0012667785855 0.0012462452989 0.0012262291136 0.0012067167416 
0.0011876963041 0.0011691568302 0.0011510884276 0.0011334816203 0.0013065582907 0.0012852930563 0.0012554353209 0.0012352289857 0.0012155317386 
0.0011963302306 0.001177612724 0.0011593681801 0.0011415867174 0.0011242592816 0.0012940857261 0.0012731042615 0.0012442582958 0.0012243740551 
0.0012049905975 0.0011860947197 0.0011676750291 0.0011497203113 0.001132220864 0.0011151676959 0.0012816825129 0.0012609865835 0.0012332255917 
0.0012136588975 0.0011945847366 0.0011759899202 0.0011578632373 0.0011401942705 0.0011229726562 0.0011061887666 0.0015056248567 0.0014794141253 
0.0014491701584 0.0014241059141 0.0013998079145 0.0013762469689 0.0013533985845 0.0013312362611 0.0013097360397 0.0012888736478 0.0014917764122 
0.0014659265092 0.0014351678909 0.0014104846575 0.0013865561957 0.0013633538449 0.0013408520667 0.0013190248909 0.0012978486572 0.0012772997063 
0.0014779407608 0.0014524346038 0.0014212144226 0.0013969192996 0.0013733654437 0.0013505261314 0.0013283749849 0.0013068870555 0.0012860386628 
0.0012658066402 0.0014641247397 0.0014389466162 0.0014073229481 0.0013834201194 0.0013602458866 0.0013377736233 0.0013159774516 0.0012948327851 
0.0012743159777 0.0012544043425 0.001450339386 0.0014254697798 0.0013935023964 0.001369997226 0.0013472072036 0.0013251062266 0.0013036691775 
0.0012828714945 0.001262690021 0.0012431021087 0.0014365874268 0.0014120029035 0.0013797587884 0.0013566556504 0.0013342543875 0.0013125294226 
0.0012914555213 0.0012710089239 0.0012511661458 0.0012319052661 0.001425150311 0.0014018408297 0.0013697422989 0.0013475654603 0.0013259460266 
0.0013048706765 0.0012843276786 0.0012643056872 0.0012447940499 0.0012257835349 0.001411613808 0.0013886160032 0.0013574855923 0.0013356598693 
0.0013143826351 0.0012936406675 0.00127342215 0.0012537160695 0.0012345116873 0.0012158003453 0.0013981591203 0.0013754740057 0.0013453973239 
0.0013239174516 0.0013029774104 0.0012825637126 0.0012626648013 0.0012432697101 0.0012243681978 0.0012059502421 0.001384791001 0.0013624207149 
0.0013334653145 0.0013123269468 0.0012917193315 0.0012716293254 0.001252045531 0.0012329570749 0.0012143533058 0.0011962247748 0.0016165777426 
0.001588644364 0.0015565242387 0.0015296698127 0.0015036273115 0.0014783702363 0.0014538715369 0.0014301052415 0.0014070458634 0.0013846697852 
0.0016017817754 0.0015742352258 0.0015416593626 0.0015152086331 0.0014895590204 0.0014646821111 0.0014405507031 0.0014171400337 0.001394424731 
0.0013723813374 0.0015870035229 0.0015598282651 0.001526852812 0.0015008131286 0.001475560487 0.0014510677184 0.001427308318 0.0014042573342 
0.0013818899819 0.0013601827722 0.0015722459682 0.0015454247518 0.0015121118617 0.0014864874803 0.0014616367531 0.001437532851 0.0014141497272 
0.0013914623273 0.0013694467698 0.0013480793593 0.0015575142469 0.0015310274053 0.0014974411642 0.0014722369777 0.0014477927729 0.0014240822803 
0.0014010795657 0.0013787600384 0.0013570994458 0.0013360752507 0.0015428069929 0.0015166315173 0.0014828426313 0.0014580641013 0.0014340315664 
0.0014107186462 0.0013881003596 0.0013661523051 0.0013448507156 0.0013241726083 0.0015303704625 0.0015053313561 0.0014719544459 0.0014481541887 
0.0014249502523 0.0014023297748 0.0013802808439 0.0013587919707 0.0013378524847 0.0013174524636 0.0015158701508 0.0014911710512 0.0014588049697 
0.0014353786573 0.0014125393069 0.0013902742278 0.0013685711685 0.0013474187791 0.0013268068101 0.0013067250351 0.0015014597951 0.001477102541 
0.0014458272263 0.0014227701795 0.0014002906818 0.001378375747 0.0013570135153 0.001336192709 0.0013159033742 0.0012961345616 0.0014871511553 
0.0014631372127 0.0014330157176 0.0014103234442 0.0013881989969 0.0013666297131 0.0013456038605 0.0013251104299 0.0013051387511 0.0012856783219 
0.0017265206774 0.0016968911116 0.0016629820037 0.0016343609798 0.0016065976615 0.0015796662339 0.0015535385556 0.001528188443 0.0015035907534 
0.0014797203942 0.001710791695 0.0016815744433 0.0016472631641 0.0016190686902 0.0015917205967 0.001565190202 0.0015394510909 0.0015144769809 
0.0014902432046 0.0014667248014 0.0016950839872 0.0016662638075 0.0016316108843 0.001603849892 0.0015769207984 0.0015507963191 0.0015254499558 
0.0015008559596 0.0014769899147 0.0014538271245 0.0016793986908 0.0016509590714 0.001616028981 0.0015887059648 0.0015622008073 0.0015364865299 
0.0015115373927 0.0014873277939 0.0014638330315 0.0014410291397 0.0016637371759 0.0016356557064 0.001600519095 0.0015736389284 0.0015475626231 
0.0015222634334 0.0014977154984 0.0014738939181 0.001450774336 0.0014283327684 0.0016480943553 0.0016203539055 0.0015850815451 0.0015586497018 
0.0015330069323 0.0015081271482 0.0014839847801 0.0014605551265 0.0014378141786 0.0014157381798 0.0016347192052 0.0016079843538 0.0015733792438 
0.0015479744939 0.0015232045845 0.0014990563643 0.0014755182251 0.0014525785817 0.0014302267878 0.0014084520086 0.0016192746886 0.0015929075963 
0.0015593514994 0.0015343436928 0.0015099601217 0.0014861888192 0.0014630173004 0.0014404344521 0.001418429345 0.001396991652 0.0016039298876 
0.0015779323846 0.0015455004142 0.0015208842704 0.001496882671 0.0014734831048 0.0014506733069 0.0014284422957 0.0014067791627 0.0013856738304 
0.0015887002072 0.0015630741632 0.0015318238662 0.0015075953656 0.0014839709664 0.0014609382204 0.001438485581 0.0014166018671 0.0013952766632 
0.0013744987189 0.0018353817779 0.0018040846364 0.0017684866457 0.0017381229606 0.0017086621401 0.0016800782136 0.0016523432542 0.0016254309961 
0.0015993154928 0.0015739715754 0.0018187353759 0.0017878769296 0.0017519252832 0.0017220110992 0.001692987144 0.0016648255854 0.0016374997761 
0.0016109839718 0.0015852521138 0.0015602792746 0.0018021156984 0.0017716791815 0.0017354394198 0.0017059801181 0.0016773968502 0.0016496624596 
0.0016227503092 0.0015966347388 0.0015712903135 0.0015466920984 0.0017855210265 0.0017554897549 0.0017190286029 0.0016900295229 0.0016618920505 
0.001634589173 0.0016080949086 0.0015823836797 0.001557430357 0.0015332102147 0.0017689501454 0.0017393019279 0.001702693179 0.0016741595961 
0.0016464725083 0.0016196059486 0.0015935339022 0.0015682309719 0.0015436723481 0.0015198336558 0.0017523971886 0.0017231149584 0.0016864327702 
0.0016583697273 0.0016311380194 0.0016047121767 0.0015790664067 0.0015541757982 0.0015300155159 0.0015065616684 0.0017381464825 0.0017097508132 
0.0016739780698 0.0016469878699 0.0016206696496 0.0015950111743 0.001570000489 0.0015456262379 0.00152187732 0.0014987433127 0.0017217743808 
0.00169377377 0.0016590838983 0.0016325126905 0.0016066029027 0.0015813417798 0.0015567181656 0.00153272048 0.0015093377009 0.0014865590063 
0.0017055121711 0.0016779086102 0.0016443713632 0.0016182143393 0.001592707596 0.0015678394068 0.0015435980474 0.0015199721243 0.0014969506393 
0.0014745229429 0.001689377605 0.0016621732745 0.0016298415673 0.0016040939247 0.0015789860144 0.001554506064 0.001530642379 0.00150738364 
0.0014847190856 0.001462637876 0.0019430894638 0.0019101556387 0.0018729848368 0.0018409006206 0.0018097658897 0.001779551997 0.001750232024 
0.0017217793794 0.0016941678583 0.0016673715762 0.0019255460696 0.0018930754703 0.0018555955676 0.0018239838405 0.0017933064009 0.0017635359407 
0.0017346456626 0.0017066093508 0.0016794009365 0.0016529946829 0.0019080334159 0.0018760097695 0.0018382889235 0.0018071540438 0.0017769388826 
0.0017476164095 0.0017191601996 0.0016915442292 0.0016647426099 0.001638730058 0.0018905504689 0.0018589555976 0.0018210634283 0.0017904107258 
0.0017606627296 0.0017317928815 0.0017037750872 0.0016765834547 0.0016501924309 0.0016245768059 0.001873092778 0.0018419053193 0.0018039183954 
0.0017737529681 0.0017444770916 0.001716064472 0.0016884892655 0.001661725958 0.0016357492195 0.0016105340752 0.0018556543008 0.0018248567407 
0.0017868524032 0.0017571793649 0.0017283803623 0.0017004295344 0.0016733011516 0.0016469701178 0.0016214114519 0.0015966000404 0.0018406002466 
0.0018105799395 0.0017737120128 0.0017451544403 0.0017173056086 0.0016901537118 0.0016636868174 0.0016378940578 0.001612764018 0.0015882856807 
0.0018233151741 0.0017937167101 0.0017579607862 0.0017298439354 0.0017024244053 0.0016756905541 0.0016496309878 0.0016242342016 0.0015994891393 
0.0015753847469 0.0018061505057 0.0017769761353 0.0017423966302 0.0017147156223 0.0016877206908 0.001661400316 0.0016357430777 0.0016107376542 
0.0015863729361 0.0015626381551 0.0017891260207 0.0017603778394 0.0017270227165 0.001699772985 0.0016731982757 0.0016472868532 0.0016220272934 
0.0015974088182 0.0015734200592 0.0015500503758 0.0020495739762 0.0020150353352 0.0019764238498 0.0019426430946 0.0019098560363 0.0018780346283 
0.001847151868 0.0018171808738 0.00178809534 0.0017598689148 0.0020311552212 0.0019971026562 0.0019582220059 0.0019249352106 0.0018926267594 
0.001861269412 0.0018308366051 0.0018013017055 0.0017726384922 0.001744820964 0.0020127725064 0.0019791910041 0.0019401099431 0.0019073217341 
0.0018754967271 0.0018446081716 0.0018146296012 0.0017855348577 0.0017572977966 0.001729892622 0.0019944234553 0.0019612924267 0.001922085801 
0.001889801305 0.0018584647172 0.0018280494749 0.0017985295054 0.0017698788642 0.0017420717802 0.0017150825159 0.0019761012373 0.0019434049209 
0.0019041480703 0.0018723724939 0.0018415290637 0.0018115917797 0.0017825347269 0.0017543322486 0.0017269588054 0.0017003888096 0.0019578052358 
0.0019255200921 0.001886294698 0.0018550332284 0.0018246878678 0.0017952329894 0.0017666430522 0.001738892608 0.0017119564318 0.0016858091888 
0.0019420266671 0.00191041912 0.0018725411933 0.0018424336016 0.0018130711567 0.001784442429 0.00175653602 0.0017293405694 0.0017028451809 
0.001677038512 0.001923841977 0.0018926825542 0.00185594071 0.0018262950307 0.0017973827741 0.0017691923995 0.0017417128178 0.0017149327917 
0.0016888411704 0.0016634266453 0.0019057886444 0.001875079701 0.0018395332427 0.0018103449228 0.0017818779911 0.0017541215683 0.0017270641965 
0.0017006948702 0.0016750023838 0.0016499755498 0.0018878878334 0.0018576320201 0.0018233237036 0.0017945880359 0.0017665622558 0.0017392350344 
0.0017125955194 0.0016866324165 0.001661334809 0.0016366917401 0.0021538365157 0.0021175417055 0.0020782404452 0.0020427718367 0.0020084100091 
0.0019751033248 0.0019428032887 0.0019114643076 0.0018810441341 0.0018515033085 0.0021344047094 0.0020986069969 0.0020591460887 0.0020242166809 
0.001990372653 0.0019575631494 0.001925740523 0.0018948601144 0.0018648803458 0.0018357626768 0.0021150002206 0.0020796818205 0.0020401444139 
0.0020057599618 0.0019724389266 0.0019401314989 0.0019087907372 0.0018783728902 0.0018488373118 0.0018201460895 0.0020956312489 0.0020607687605 
0.0020212414294 0.0019874075202 0.0019546147746 0.0019228141575 0.0018919597358 0.0018620085454 0.0018329206813 0.00180465919 0.002076303576 
0.0020418782398 0.0020024442922 0.0019691666323 0.0019369073053 0.0019056182157 0.0018752544076 0.0018457738207 0.0018171373081 0.0017893087889 
0.0020570309377 0.0020230166979 0.001983761493 0.0019510454686 0.0019193246324 0.001888551828 0.0018586829473 0.0018296768281 0.0018014952721 
0.0017741028061 0.0020416552577 0.0020082759965 0.0019703141643 0.0019384543084 0.0019074732043 0.0018773378153 0.0018480172554 0.0018194824281 
0.001791706683 0.001764664745 0.0020226024318 0.0019897170957 0.0019527502762 0.0019213999846 0.0018909115966 0.0018612525954 0.0018323924975 
0.0018043030686 0.0017769575549 0.0017503313512 0.002003725712 0.001971333586 0.0019354388102 0.0019045913983 0.0018745891221 0.0018453999537 
0.0018169941408 0.0017893436207 0.0017624222365 0.0017362058032 0.0019850312609 0.0019531317254 0.0019183722243 0.0018880212947 0.0018584987833 
0.0018297734428 0.0018018157407 0.0017745981341 0.0017480950117 0.0017222827647 0.0022577445695 0.0022198714982 0.0021792344794 0.0021421657941 
0.0021062420242 0.0020714117498 0.0020376267039 0.00200484155 0.0019730137604 0.0019421037127 0.0022374724038 0.0022001205063 0.0021593568044 
0.0021228482502 0.0020874626174 0.0020531494707 0.0020198612784 0.0019875535631 0.0019561846273 0.0019257155221 0.0022172323054 0.002180379879 
0.0021395777198 0.0021036350033 0.0020687928082 0.0020350016127 0.0020022147924 0.0019703885372 0.0019394820841 0.0019094573406 0.002197028057 
0.0021606579548 0.0021199029507 0.0020845317851 0.0020502382539 0.0020169737485 0.0019846925915 0.0019533519015 0.0019229115594 0.0018933343977 
0.002176871283 0.0021409591936 0.0021003395594 0.0020655453628 0.0020318056105 0.0019990725437 0.0019673014721 0.0019364502356 0.001906479666 
0.0018773532559 0.0021567692037 0.0021212910499 0.0020808954609 0.0020466837308 0.0020135027831 0.0019813058618 0.0019500490837 0.0019196912317 
0.0018901939221 0.0018615214883 0.0021408531818 0.0021059731403 0.0020669518903 0.002033604749 0.0020011695965 0.0019696140033 0.0019389074839 
0.0019090210965 0.0018799283122 0.0018516037519 0.0021209577106 0.0020865921892 0.0020485821778 0.0020157661826 0.0019838447205 0.0019527859725 
0.0019225597113 0.0018931378923 0.0018644939577 0.0018366031047 0.0021012442436 0.0020673928239 0.0020304678785 0.0019981763595 0.0019667621374 
0.0019361936224 0.0019064416015 0.0018774779855 0.0018492768158 0.0018218138162 0.0020817203326 0.0020483827692 0.0020126029668 0.0019808295844 
0.0019499160784 0.0019198319107 0.0018905477861 0.0018620364308 0.0018342723038 0.0018072314394 0.0023602298062 0.0023207902031 0.0022789359119 
0.0022403157345 0.0022028758645 0.0021665654092 0.0021313363014 0.002097143352 0.0020639438963 0.0020316980783 0.0023391330424 0.0023002358207 
0.0022582933194 0.0022202533141 0.0021833712191 0.002147597012 0.0021128834024 0.0020791860144 0.0020464630039 0.0020146752346 0.0023180711276 
0.0022796945543 0.0022377543087 0.0022003002748 0.0021639812186 0.0021287479948 0.0020945543706 0.0020613566287 0.0020291137097 0.0019977873933 
0.0022970472607 0.0022591743192 0.0022173246977 0.0021804620772 0.0021447112452 0.0021100239196 0.0020763545746 0.0020436604621 0.0020119014066 
0.0019810398237 0.0022760724348 0.0022386789375 0.0021970110555 0.0021607454107 0.0021255678223 0.0020914310733 0.0020582904295 0.0020261039975 
0.0019948323041 0.0019644386487 0.0022551535786 0.0022182172827 0.0021768212305 0.0021411579763 0.0021065587162 0.0020729771414 0.0020403693995 
0.0020086944682 0.0019779136977 0.0019479911102 0.0022388403203 0.0022024909118 0.0021623814229 0.0021275881186 0.0020937381368 0.0020607996822 
0.0020287424922 0.001997538088 0.0019671594991 0.0019375819077 0.002218127107 0.0021823113828 0.0021432307277 0.0021089893858 0.0020756733647 
0.0020432513255 0.0020116935988 0.0019809719399 0.0019510603653 0.001921933844 0.0021976007068 0.0021623185926 0.0021243377865 0.0020906417604 
0.0020578532263 0.0020259412055 0.0019948765417 0.0019646318326 0.001935181063 0.0019064997936 0.0021772696238 0.0021425212276 0.0021056974654 
0.0020725404703 0.0020402731218 0.0020088649129 0.0019782875226 0.0019485136717 0.0019195178791 0.0018912762836 0.0024612437214 0.002420251488 
0.0023773047095 0.0023371809078 0.0022982704443 0.0022605230621 0.0022238908186 0.0021883284706 0.0021537934111 0.0021202455787 0.0024393393107 
0.0023989066369 0.00235591599 0.0023163917315 0.002278057846 0.0022408649315 0.0022047660261 0.0021697166758 0.0021356749094 0.0021026015795 
0.0024174691017 0.002377580613 0.0023346354029 0.0022957161567 0.0022579640709 0.0022213304838 0.0021857694132 0.0021512370847 0.0021176925067 
0.0020850970797 0.0023956421691 0.0023562753812 0.0023134683158 0.0022751596431 0.0022379945347 0.0022019251685 0.0021669062611 0.0021328950367 
0.0020998512121 0.0020677369108 0.0023738636721 0.0023349981397 0.0022924212954 0.0022547287717 0.0022181557202 0.002182655185 0.0021481827873 
0.0021146965745 0.0020821570634 0.0020505272265 0.0023521416934 0.0023137514895 0.0022715019718 0.0022344309204 0.0021984548733 0.0021635277775 
0.0021296061018 0.0020966487323 0.0020646170387 0.0020334747686 0.0023355756654 0.0022977898887 0.0022565710674 0.0022203720932 0.0021851459203 
0.0021508612262 0.0021174883159 0.0020849989326 0.0020533661865 0.0020225651366 0.0023140694364 0.0022768352829 0.0022366636327 0.0022010365832 
0.0021663638123 0.0021326145292 0.0020997594799 0.0020677706862 0.0020366222163 0.00200628903 0.0022927535286 0.0022560713134 0.0022170154502 
0.0021819537715 0.002147827983 0.002114607762 0.0020822641787 0.0020507702593 0.0020200999564 0.0019902288671 0.0022716376812 0.0022355077746 
0.0021976225601 0.0021631199038 0.002129534837 0.0020968373453 0.002064999609 0.0020339945078 0.0020037966717 0.0019743821147 0.0025607447478 
0.0025182126705 0.0024743038613 0.0024327238867 0.0023923881047 0.0023532465777 0.0023152517925 0.0022783586225 0.0022425242622 0.002207708597 
0.0025380488746 0.002496096524 0.0024521885164 0.0024112263121 0.0023714850902 0.0023329156051 0.0022954713396 0.0022591077908 0.0022237830921 
0.002189457693 0.0025153885455 0.0024739987413 0.0024301848681 0.0023898461218 0.0023507046575 0.0023127121799 0.0022758227962 0.0022399929941 
0.0022051815941 0.0021713498224 0.002492772605 0.002451923061 0.0024082984516 0.0023685887214 0.0023300521377 0.0022926413672 0.0022563112891 
0.0022210191931 0.0021867247629 0.0021533899556 0.0024702056357 0.002429875972 0.002386535616 0.0023474602789 0.002309533627 0.0022727091818 
0.0022369427087 0.0022021923231 0.0021684184664 0.0021355838771 0.0024476972302 0.0024078598524 0.0023649036822 0.0023264680616 0.0022891562776 
0.0022529227433 0.0022177240771 0.0021835192336 0.0021502694312 0.0021179382102 0.0024310215282 0.0023918342024 0.0023494916713 0.0023119265506 
0.0022753620629 0.0022397675308 0.0022051135761 0.0021713721971 0.0021385167857 0.0021065219325 0.0024087467036 0.002370127684 0.002328851057 
0.0022918771343 0.0022558848384 0.0022208439529 0.0021867255688 0.002153502147 0.0021211473457 0.0020896366692 0.0023866647963 0.002348614743 
0.002308470619 0.002272081352 0.0022366548465 0.0022021613111 0.0021685723756 0.0021358607656 0.0021040010786 0.0020729686799 0.0023647863057 
0.0023273059329 0.0022883472738 0.0022525363492 0.0022176693935 0.0021837171524 0.0021506515452 0.0021184462469 0.0020870758163 0.0020565162257 
0.0026586933449 0.0026146406219 0.0025698996521 0.0025269101077 0.0024851935635 0.0024447006118 0.0024053838987 0.0023671984256 0.0023301013384 
0.0022940522634 0.0026352220486 0.0025917676988 0.0025470773075 0.002504723181 0.0024636184777 0.0024237144532 0.0023849645863 0.0023473246614 
0.0023107527057 0.0022752089761 0.0026117906992 0.002568914231 0.0025243698561 0.0024826567684 0.0024421690459 0.0024028587351 0.0023646801946 
0.002327589977 0.0022915468887 0.0022565119086 0.002588402457 0.0025460852504 0.0025017826578 0.0024607160794 0.002420850418 0.0023821385809 