# vtk DataFile Version 5.1
vtk output
ASCII
DATASET STRUCTURED_POINTS
DIMENSIONS 10 10 20
SPACING 0.1 0.1 0.1
ORIGIN 3.25 -0.45 0.55
POINT_DATA 2000
FIELD FieldData 1
potential 1 2000 double
0.00051426793767 0.00050527894094 0.0004925824375 0.00048601120952 0.00047960678145 0.00047336605962 0.00046728660552 0.00046136368565 0.00045558728224 
0.00044993778097 0.00051119381123 0.00050219693932 0.0004869115409 0.00048046126635 0.00047417434558 0.00046804578125 0.00046207460163 0.00045625619493 
0.00045057957714 0.00044502612842 0.00050804940858 0.0004990332455 0.00048116452058 0.00047483395599 0.0004686620026 0.00046264567689 0.00045678162026 
0.00045106521701 0.00044548557102 0.00044002696112 0.00050527685859 0.00049622142196 0.00047577058892 0.00046955526885 0.00046349525243 0.00045758560955 
0.00045182408699 0.00044620459208 0.00044071769652 0.0004353498562 0.00050315393058 0.00049403872475 0.00047100115511 0.00046489528843 0.00045893913126 
0.00045313034524 0.00044746426525 0.00044193679412 0.00043653779854 0.00043125638753 0.00050180704426 0.00049260948904 0.0004669749715 0.00046096931949 
0.00045510940571 0.00044939259034 0.00044381554064 0.00043837390628 0.00043305820714 0.00042785900063 0.00049695146582 0.00049162451192 0.00046392933185 
0.00045805663794 0.00045231181106 0.00044669513704 0.00044120555335 0.00043583917917 0.00043058672553 0.00042544023913 0.00049267376679 0.00048730892233 
0.00046157322812 0.00045576739665 0.00045008591472 0.0004445324787 0.00043910765635 0.00043380828524 0.00042862375071 0.00042354442557 0.00048871311702 
0.00048330845059 0.00045958884169 0.00045384366096 0.00044822111306 0.00044272549144 0.00043736091306 0.0004321248498 0.00042700483703 0.00042198792449 
0.00048464598731 0.00047920880102 0.00045755764161 0.00045187598506 0.00044631471898 0.00044088055278 0.00043557866884 0.0004304061303 0.00042534949462 
0.00042039336147 0.0006009134541 0.00059087133037 0.00057744037351 0.0005696841552 0.00056212448189 0.00055475579703 0.00054757047741 0.00054056351759 
0.00053372427904 0.0005270407807 0.00059773066602 0.00058769062786 0.0005717753239 0.00056414609006 0.00055670867785 0.00054945676755 0.00054238592762 
0.00053548827423 0.000528754343 0.00052217256561 0.00059450526555 0.00058445560913 0.0005660724961 0.00055857024475 0.00055125439208 0.00054412032669 
0.00053716247074 0.00053037352812 0.0005237446102 0.00051726505125 0.00059149989152 0.00058142303113 0.00056058459456 0.00055320619657 0.00054601009954 
0.00053899109671 0.00053214371989 0.00052546103525 0.00051893468405 0.0005125555275 0.00058890449375 0.00057878269857 0.00055549628231 0.00054823760766 
0.00054115631369 0.00053424811471 0.00052750707421 0.0005209270722 0.00051450061062 0.00050821845026 0.00058681953708 0.00057663271032 0.00055090021323 
0.00054375555729 0.00053678405741 0.00052998095033 0.00052334183421 0.00051686074182 0.00051052985486 0.00050434173029 0.00058200701851 0.00057544921311 
0.00054718355249 0.00054018639845 0.00053334589082 0.00052665813873 0.00052011977503 0.00051372605715 0.00050747026889 0.00050134572903 0.00057662476252 
0.00057004948884 0.00054378132707 0.00053687240679 0.00053011690977 0.00052351333602 0.00051705849474 0.00051074762658 0.00050457393989 0.00049853064205 
0.00057142177708 0.00056483100578 0.00054061422675 0.00053378975438 0.00052711681219 0.0005205940135 0.00051421925286 0.00050798862315 0.00050189430954 
0.0004959283085 0.00056615146506 0.00055955204601 0.00053743341207 0.00053069375633 0.00052410417345 0.0005176629144 0.00051136936812 0.00050521843953 
0.00049920255394 0.00049331231907 0.00068783940534 0.0006767545685 0.0006624013211 0.00065346544734 0.00064475408661 0.0006362597833 0.00062797372283 
0.00061988973375 0.00061199799478 0.00060428908849 0.00068427914618 0.00067320979139 0.00065647665274 0.00064767640249 0.00063909508457 0.00063072570904 
0.00062256183956 0.00061459524064 0.00060681684099 0.00059921752354 0.00068071274863 0.00066964604954 0.0006505588257 0.00064189349386 0.00063344254577 
0.00062519939264 0.00061715705386 0.00060930778865 0.00060164305255 0.0005941540654 0.00067729363493 0.00066621476685 0.0006447946306 0.00063626344569 
0.00062794150419 0.00061982274167 0.00061190008661 0.00060416617892 0.00059661386259 0.00058923468015 0.00067414220985 0.00066303484912 0.00063930149422 
0.00063090058861 0.00062270499379 0.00061470774423 0.00060690259752 0.00059928214613 0.00059183989926 0.00058456844035 0.00067132814107 0.00066017396349 
0.00063414010113 0.00062586729392 0.00061779410693 0.00060991501687 0.00060222440407 0.00059471520433 0.0005873805551 0.00058021367542 0.00066645217361 
0.00065867594506 0.00062984223468 0.00062173322716 0.00061380657975 0.00060605735774 0.00059848130107 0.00059107206441 0.00058382400807 0.00057673195245 
0.00066016120456 0.00065238598049 0.00062558352358 0.00061757954739 0.00060975629858 0.00060210794452 0.00059463073536 0.00058731870701 0.00058016682893 
0.00057316853997 0.00065399067936 0.00064622003571 0.00062149735419 0.00061359669142 0.00060587314196 0.00059832318061 0.00059094246047 0.00058372585346 
0.00057666679493 0.00056975920129 0.0006477987138 0.00064003819295 0.00061743632744 0.00060963791806 0.00060201462657 0.00059456230224 0.00058727792034 
0.0005801551771 0.000573187902 0.00056636968229 0.00077482958269 0.00076271588991 0.00074726950103 0.00073716062095 0.00072730319882 0.00071768853656 
0.00070830795199 0.00069915436078 0.00069021798824 0.00068149064934 0.00077075206421 0.00075866891797 0.00074094496626 0.00073098132969 0.00072126403358 
0.00071178443022 0.00070253524505 0.00069350808638 0.00068469480107 0.000676086794 0.0007666955543 0.00075463088513 0.00073466330967 0.00072484400578 
0.00071526700717 0.0007059232991 0.00069680531951 0.00068790478652 0.00067921447182 0.00067072610939 0.00076274997096 0.00075068918781 0.000728508185 
0.00071883391959 0.00070939601384 0.00070018686211 0.00069119864714 0.00068242416846 0.00067385622343 0.00066548635129 0.00075898845354 0.00074691569154 
0.00072255100831 0.00071301939445 0.00070371904401 0.00069464227807 0.00068578286452 0.00067713305921 0.00066868531994 0.00066043312734 0.00075545541894 
0.00074335366869 0.00071683026733 0.00070743889473 0.00069827372612 0.00068932804811 0.00068059539907 0.00067206778432 0.00066373898903 0.00065560221093 
0.00075040030981 0.00074141786632 0.00071201314768 0.00070280305242 0.00069380024573 0.00068499934612 0.00067639429499 0.00066797939654 0.00065974925145 
0.00065169843662 0.00074333101515 0.00073436667408 0.00070702123426 0.00069793171699 0.00068904719019 0.00068036129587 0.00067186902673 0.00066356480926 
0.00065544325062 0.00064749823882 0.0007363578883 0.00072741508813 0.00070217364385 0.00069320228075 0.00068443321437 0.0006758602666 0.00066747884491 
0.00065928310781 0.00065126723791 0.00064342530084 0.00072940124665 0.00072048530113 0.00069738246015 0.00068852859445 0.00067987428282 0.00067141345314 
0.00066314129223 0.00065505266148 0.00064714049305 0.00063940007575 0.00086173436543 0.00084860684953 0.00083191566185 0.00082064165958 0.00080964559568 
0.00079891809815 0.00078845013387 0.00077823405479 0.00076826116319 0.00075852255431 0.00085706666639 0.00084398734762 0.00082511705141 0.00081399902313 
0.00080315328524 0.00079257169322 0.00078224586339 0.00077216668827 0.00076232653692 0.00075271667461 0.00085243851263 0.0008393945351 0.00081838744294 
0.00080742447536 0.00079672983817 0.00078629445434 0.00077610969352 0.00076616733622 0.0007564601425 0.0007469796488 0.00084790124234 0.00083487780141 
0.00081177389671 0.00080096671704 0.00079042220412 0.00078013203575 0.00077008767552 0.00076028212925 0.00075070704896 0.00074135533122 0.00084349908766 
0.00083048116526 0.00080531836549 0.00079466567678 0.00078426986751 0.00077412389058 0.00076421920132 0.00075454853 0.00074510482441 0.00073588039127 
0.00083925785834 0.00082622858237 0.00079904353837 0.00078854363759 0.0007782957196 0.00076829234382 0.00075852596994 0.00074898923067 0.00073967519582 
0.00073057717918 0.00083390538338 0.00082373006332 0.00079374768394 0.00078344683792 0.00077337761259 0.00076353381238 0.00075390922593 0.00074449779 
0.0007352943637 0.00072629338642 0.00082614129892 0.00081599928137 0.00078810074919 0.00077793422882 0.00076799637922 0.00075828115319 0.00074878209019 
0.00073949372883 0.00073041053532 0.00072152643243 0.0008184654118 0.00080836079976 0.00078258587575 0.00077255166151 0.00076274309804 0.00075315392773 
0.00074377813965 0.00073461041234 0.00072564488849 0.00071687575077 0.00081083552848 0.00080077338354 0.0007771514619 0.00076724827106 0.00075756752039 
0.0007481031112 0.00073884936789 0.00072980033215 0.00072095023529 0.00071229377063 0.00094844269059 0.00093431879715 0.00091625051566 0.00090382031853 
0.0008916937136 0.00087986086655 0.00086831416903 0.00085704418865 0.00084604221778 0.00083529989553 0.00094314969788 0.00092909263346 0.0009089400343 
0.00089667676579 0.0008847115126 0.0008730363315 0.00086164159777 0.00085051916168 0.00083966030885 0.00082905697506 0.00093790752704 0.00092390295982 
0.00090171689887 0.00088962020899 0.00087781729692 0.00086629850604 0.00085505566103 0.00084408082298 0.00083336513455 0.00082290063571 0.00093274459301 
0.00091877786231 0.0008946070653 0.0008826775804 0.00087103590216 0.0008596732121 0.0008485819958 0.00083775365491 0.00082718068427 0.00081685483771 
0.00092768669818 0.00091374318918 0.00088763500995 0.00087587125617 0.00086439003879 0.00085318300904 0.00084224227168 0.00083156005109 0.00082112874715 
0.0008109405915 0.00092274879583 0.00090881059116 0.00088081263059 0.00086921381936 0.00085789209434 0.00084683972256 0.00083604847047 0.0008255111007 
0.0008152205012 0.00080516897761 0.00091698644574 0.00090563267673 0.00087506432384 0.00086368269904 0.00085255659346 0.00084167928879 0.00083104375414 
0.00082064463458 0.00081047610281 0.00080053303627 0.00090857995486 0.00089727407094 0.00086881132067 0.00085757680131 0.00084659472954 0.00083585818402 
0.0008253603672 0.00081509566102 0.00080505849435 0.00079524333917 0.00090026291142 0.000889009285 0.0008626862083 0.00085159734984 0.00084075710079 
0.00083015895732 0.00081979633666 0.0008096636587 0.00079975538357 0.00079006554631 0.00089201488561 0.00088081876773 0.00085665949383 0.00084571444032 
0.00083501437265 0.00082455290833 0.00081432378082 0.00080432144764 0.00079453984592 0.00078497373268 0.0010348670706 0.0010197656427 0.0010002088229 
0.00098663159709 0.00097338341952 0.00096045473322 0.00094783739734 0.00093552186865 0.00092349924698 0.00091176117856 0.0010289338958 0.0010139172878 
0.00099236862653 0.00097896965639 0.00096589403462 0.00095313397818 0.00094067928772 0.00092852204043 0.00091665310833 0.00090506438407 0.0010230585323 
0.0010081121779 0.00098462878994 0.00097140817799 0.00095850614862 0.00094591341056 0.00093362168958 0.00092162224774 0.00090990658359 0.00089846693505 
0.0010172549471 0.0010023648075 0.00097700486593 0.00096396217268 0.00095123263147 0.00093880718241 0.00092667766648 0.0009148356317 0.00090327286589 
0.00089198173178 0.0010115375543 0.00099668867737 0.00096950844667 0.00095664330207 0.00094408567806 0.00093182680214 0.00091985873391 0.0009081734191 
0.00089676298745 0.00088561977331 0.0010059153547 0.00099108967082 0.00096214569866 0.00094945738039 0.00093707114812 0.0009249780012 0.00091317045572 
0.00090164104908 0.00089038215081 0.00087938570276 0.00099964123023 0.00098712446275 0.00095596192724 0.00094351004858 0.0009313364378 0.00091943422714 
0.00090779704292 0.00089641874734 0.00088529359902 0.00087441574991 0.00099062677638 0.00097817162018 0.00094913348168 0.00093684130189 0.00092482382509 
0.00091307403474 0.00090158569834 0.00089035264956 0.00087936918572 0.00086862989288 0.00098170692563 0.00096931872225 0.00094243334007 0.00093029898756 
0.00091843544867 0.0009068358163 0.0008954941349 0.00088440409202 0.00087356020869 0.0008629570837 0.00097287467028 0.00096055869911 0.00093584491616 
0.00092386647076 0.00091215501198 0.00090070361354 0.0008895064263 0.00087855784242 0.00086785176457 0.00085738237828 0.0011209332212 0.0011048737322 
0.0010837390988 0.0010690245347 0.0010546646222 0.0010406490422 0.0010269699461 0.0010136175904 0.0010005833679 0.0009878577581 0.0011143571224 
0.0010984012394 0.0010753629347 0.001060837608 0.0010466617293 0.0010328253652 0.0010193201164 0.0010061365487 0.0009932662994 0.00098070037655 
0.0011078420988 0.0010919747564 0.0010670978166 0.0010527627389 0.0010387707866 0.001025113358 0.001011781401 0.00099876628747 0.00098605966373 
0.00097365295117 0.0011013941771 0.0010856014622 0.0010589519385 0.0010448062064 0.0010309979679 0.0010175186814 0.0010043596665 0.0009915125712 
0.00097896909441 0.00096672107038 0.0010950217642 0.001079287966 0.0010509303329 0.0010369737806 0.0010233486972 0.0010100468969 0.00099706027593 
0.00098438049749 0.00097199966545 0.00095990966133 0.0010887278555 0.0010730352406 0.0010430354484 0.0010292671113 0.0010158245291 0.0010026998956 
0.00098988499148 0.00097737208803 0.00096515305095 0.00095322035724 0.0010818552801 0.0010681916854 0.001036429494 0.0010229173052 0.0010097056629 
0.00099678764752 0.0009841572047 0.00097180808605 0.0009597342001 0.00094793019875 0.0010722554887 0.0010586676835 0.0010290452303 0.0010157046854 
0.0010026606413 0.00098990629595 0.0009774354652 0.00096524220269 0.00095332036851 0.00094166514182 0.0010627578096 0.0010492508122 0.0010217920981 
0.0010086209183 0.000995742433 0.00098314955072 0.00097083629518 0.00095879676781 0.00094702526906 0.00093551586409 0.0010533632308 0.0010399428525 
0.0010146609164 0.0010016574303 0.00098894242631 0.00097650907269 0.00096435150226 0.0009524639126 0.00094084026065 0.00092947508674 0.001206574865 
0.0011895775164 0.0011667988704 0.0011509571115 0.0011354940828 0.0011204013227 0.0011056696222 0.0010912898296 0.001077252485 0.0010635489695 
0.0011993594966 0.0011824841828 0.0011578871095 0.0011422456168 0.0011269783305 0.0011120756599 0.0010975281605 0.0010833276083 0.0010694646617 
0.0010559308449 0.0011922067565 0.0011754391249 0.0011490955098 0.0011336554886 0.001118583191 0.0011038698383 0.0010895065164 0.001075484839 
0.0010617959382 0.0010484313573 0.0011851186772 0.0011684437859 0.0011404275165 0.0011251881039 0.0011103105389 0.0010957862606 0.0010816066813 
0.0010677633413 0.0010542480908 0.0010410523169 0.0011780989206 0.0011615007733 0.001131884731 0.0011168453911 0.0011021619804 0.0010878263326 
0.0010738299211 0.0010601646444 0.0010468220608 0.0010337944897 0.0011711469346 0.0011546078764 0.0011234662915 0.0011086268728 0.001094137416 
0.0010799896208 0.0010661756723 0.0010526876074 0.0010395173529 0.0010266569107 0.0011636069921 0.0011488143255 0.0011164494422 0.0011018867117 
0.0010876461473 0.0010737212613 0.0010601060008 0.0010467941766 0.0010337799072 0.0010210575657 0.0011534371888 0.0011387339406 0.0011085222551 
0.0010941422421 0.001080080285 0.0010663300809 0.0010528852116 0.0010397396455 0.0010268878465 0.0010143240154 0.0011433781207 0.0011287701291 
0.001100729805 0.0010865306904 0.0010726455133 0.0010590676385 0.0010457909708 0.0010328095329 0.0010201180827 0.0010077101854 0.0011334360831 
0.0011189288594 0.0010930680057 0.0010790480204 0.0010653375199 0.0010519301129 0.0010388197929 0.0010260008204 0.0010134673297 0.0010012132754 
0.0012917287122 0.0012738136911 0.0012493509746 0.0012323914385 0.0012158351685 0.0011996743952 0.0011838993132 0.0011685008645 0.0011534701776 
0.0011387978346 0.0012838824244 0.0012661079934 0.0012399079047 0.0012231598925 0.0012068104985 0.0011908500981 0.0011752700708 0.0011600612762 
0.0011452152222 0.0011307226218 0.0012760993245 0.0012584510767 0.0012305931131 0.0012140575064 0.0011979140028 0.00118215389 0.0011667684572 
0.0011517489835 0.0011370871669 0.0011227739529 0.0012683791096 0.0012508424739 0.00122140722 0.0012050833461 0.0011891454438 0.001173585016 
0.0011583939113 0.0011435635054 0.0011290852767 0.0011149507628 0.0012607221371 0.0012432792842 0.0012123493424 0.0011962366239 0.0011805039886 
0.0011651430644 0.0011501455774 0.0011355034299 0.0011212083766 0.0011072519442 0.0012531248075 0.0012357614653 0.0012034172547 0.0011875155454 
0.0011719876031 0.0011568255155 0.0011420211959 0.0011275666806 0.0011134539977 0.0010996748536 0.0012448699977 0.0012289670149 0.0011960014962 
0.0011803970284 0.0011651364645 0.0011502131743 0.0011356214661 0.0011213552348 0.0011074088295 0.0010937761382 0.0012341409093 0.0012183408947 
0.0011875392771 0.0011721289436 0.001157057672 0.0011423198169 0.0011279089061 0.0011138192347 0.001100044948 0.0010865803619 0.0012235324365 
0.0012078414502 0.0011792166786 0.0011639981589 0.001149114628 0.0011345599001 0.0011203276961 0.001106412404 0.0010928081894 0.0010795096339 
0.0012130535931 0.0011974776805 0.0011710320852 0.0011560040056 0.0011413061426 0.0011269323621 0.0011128769109 0.001099134029 0.0010856983188 
0.0010725633415 0.0013763350976 0.0013575229909 0.0013313605685 0.0013132928112 0.001295652841 0.0012784329563 0.0012616237277 0.001245216275 
0.0012292014021 0.001213569963 0.001367867079 0.0013492150735 0.001321392645 0.0013035477395 0.0012861253431 0.0012691165387 0.0012525127365 
0.0012363054488 0.0012204853947 0.0012050436359 0.0013594636609 0.0013409563775 0.0013115614275 0.0012939392939 0.0012767335021 0.001259935619 
0.0012435370288 0.0012275292988 0.0012119036328 0.0011966510962 0.0013511221195 0.0013327446901 0.0013018644369 0.0012844649143 0.0012674755766 
0.0012508880473 0.0012346941906 0.0012188856219 0.0012034537777 0.0011883898974 0.0013428403619 0.0013245748708 0.0012922995 0.0012751223356 
0.0012583488456 0.0012419714187 0.0012259818585 0.0012103718974 0.0011951332135 0.0011802573199 0.0013346135791 0.001316445681 0.0012828637197 
0.0012659084275 0.0012493504511 0.0012331825177 0.0012173965593 0.0012019846643 0.0011869384771 0.0011722498872 0.0013256151196 0.0013086213234 
0.0012750627384 0.0012584254156 0.0012421530448 0.0012262398217 0.0012106798239 0.001195467356 0.0011805965728 0.0011660619021 0.0013143347406 
0.0012974575187 0.0012660711987 0.0012496388395 0.0012335668927 0.0012178490986 0.0012024802048 0.0011874542833 0.0011727655695 0.0011584082092 
0.0013031852402 0.0012864309698 0.0012572241646 0.0012409948484 0.0012251208922 0.0012095968763 0.0011944170266 0.0011795755693 0.0011650667644 
0.0011508849435 0.0012921773166 0.0012755525107 0.0012485224493 0.0012324941144 0.0012168165899 0.0012014843175 0.0011864915502 0.0011718325522 
0.0011575018142 0.0011434934584 0.0014603335773 0.0014406457253 0.0014127950355 0.0013936272097 0.0013749130156 0.0013566432424 0.0013388092956 
0.0013214022899 0.0013044130943 0.0012878323057 0.0014512556514 0.0014317468431 0.0014023108413 0.0013833773299 0.0013648906901 0.0013468425712 
0.0013292244527 0.0013120277215 0.0012952433489 0.0012788620602 0.001442242987 0.0014228979574 0.0013919706085 0.0013732706584 0.001355011361 
0.0013371845309 0.0013197819104 0.0013027950124 0.0012862149428 0.0012700327882 0.0014332925715 0.0014140953342 0.0013817709047 0.0013633043439 
0.0013452720517 0.0013276661693 0.0013104786505 0.0012937010935 0.0012773248557 0.0012613410735 0.0014243995656 0.0014053325937 0.0013717086085 
0.0013534750371 0.0013356694303 0.0013182840799 0.0013013110924 0.0012847423385 0.0012685693326 0.0012527833949 0.0014155583934 0.00139660687 
0.0013617798558 0.001343778845 0.001326199403 0.0013090340983 0.0012922750852 0.0012759145319 0.0012599442014 0.0012443553093 0.001405810995 
0.0013877467853 0.0013536096593 0.0013359475711 0.0013186715493 0.0013017762107 0.0012852557516 0.0012691050167 0.0012533180632 0.0012378890666 
0.001393985406 0.0013760513566 0.0013440924543 0.0013266460784 0.0013095807745 0.0012928912271 0.0012765721262 0.0012606177184 0.0012450223863 
0.0012297802843 0.0013823012648 0.0013645041569 0.0013347250174 0.0013174923634 0.0013006358659 0.0012841503418 0.0012680303648 0.0012522703436 
0.0012368646245 0.001221807619 0.00137077072 0.0013531172091 0.0013255096306 0.0013084888272 0.0012918394467 0.0012755560418 0.0012596331738 
0.0012440656684 0.0012288476566 0.0012139736805 0.0015436638593 0.001523121367 0.0014936217863 0.0014733631135 0.0014535827282 0.0014342720263 
0.001415422548 0.0013970253996 0.0013790716172 0.0013615517134 0.0015339884625 0.0015136433625 0.0014826305006 0.0014626166738 0.0014430744668 
0.0014239957365 0.0014053723296 0.0013871955222 0.0013694564135 0.0013521457881 0.0015243797632 0.00150421746 0.0014717904429 0.0014520208993 
0.0014327165338 0.0014138695334 0.0013954717814 0.0013775149018 0.0013599900406 0.001342888143 0.0015148333341 0.0014948361545 0.0014610977231 
0.0014415721247 0.0014225053288 0.0014038896113 0.0013857171235 0.0013679796309 0.0013506685512 0.0013337748766 0.0015053422033 0.001485495852 
0.0014505484291 0.0014312664612 0.0014124367383 0.0013940519169 0.0013761042321 0.0013585856398 0.0013414877191 0.0013248015758 0.0014959034913 
0.0014761893188 0.0014401380529 0.0014210993489 0.0014025063028 0.0013843518041 0.0013666283336 0.0013493279751 0.0013324425316 0.0013159632968 
0.0014854241832 0.0014663108502 0.0014316176107 0.0014129382505 0.0013946661362 0.0013767962455 0.0013593233301 0.001342241888 0.0013255466275 
0.0013092316173 0.0014730581389 0.0014540885397 0.0014215770953 0.0014031239185 0.0013850729558 0.0013674190444 0.0013501572096 0.0013332820321 
0.0013167879754 0.0013006691676 0.0014608445195 0.0014420257067 0.0014116920104 0.0013934632706 0.0013756314107 0.001358191831 0.0013411391557 
0.0013244681753 0.0013081732951 0.0012922487515 0.0014487964013 0.0014301356745 0.0014019658571 0.0013839595724 0.0013663452944 0.0013491179552 
0.0013322726558 0.0013158039392 0.001299706437 0.0012839746092 0.0016253059996 0.0016037528223 0.0015734971721 0.0015521425235 0.0015313345978 
0.0015110503295 0.0014912681047 0.0014719676044 0.0014531301576 0.0014347383347 0.0016149008144 0.0015935618636 0.0015619431198 0.001540854817 
0.0015203039698 0.0015002678583 0.0014807252861 0.0014616564284 0.0014430429121 0.0014248678168 0.0016045488748 0.0015834070988 0.0015505430984 
0.0015297214176 0.0015094276795 0.0014896397195 0.0014703366423 0.0014514990932 0.0014331092034 0.0014151503238 0.0015942518457 0.0015732869427 
0.0015392991053 0.0015187441927 0.0014987076845 0.0014791677511 0.0014601040341 0.0014414975525 0.001423330788 0.0014055876194 0.0015840104233 
0.0015632051518 0.0015282139226 0.0015079260277 0.001488146744 0.0014688547087 0.0014500300719 0.0014316543109 0.0014137102707 0.0013961822912 
0.0015738307103 0.0015531636147 0.0015172912628 0.0014972703924 0.0014777482959 0.0014587040752 0.0014401182781 0.0014219728423 0.0014042511169 
0.0013869376934 0.0015639818138 0.0015436709349 0.0015088459089 0.0014890566464 0.0014697511963 0.0014509108745 0.0014325182584 0.0014145568997 
0.0013970119457 0.0013798691601 0.0015510514434 0.0015309031444 0.0014982227637 0.0014786807779 0.0014596155747 0.001441008707 0.0014228428739 
0.0014051022261 0.0013877716001 0.0013708371857 0.0015383151397 0.0015183364458 0.0014877993623 0.0014685019482 0.0014496742635 0.001431298033 
0.0014133564382 0.0013958335309 0.0013787144977 0.0013619857115 0.0015257745444 0.0015059724565 0.0014775690403 0.0014585136218 0.0014399207993 
0.0014217727988 0.0014040527387 0.0013867449328 0.0013698348452 0.0013533091864 0.0017070698828 0.0016846413434 0.0016529110181 0.0016305126095 
0.0016086826178 0.0015873982665 0.0015666382792 0.0015463827136 0.0015266128972 0.0015073115103 0.0016960749832 0.001673876803 0.0016408651912 
0.0016187433228 0.0015971803728 0.00157615407 0.001555643465 0.001535629046 0.0015160925608 0.001497017003 0.0016851355265 0.0016631480373 
0.0016289794216 0.0016071343179 0.0015858385124 0.0015650701827 0.0015448088335 0.001525035239 0.0015057316419 0.0014868814851 0.0016742501592 
0.0016524566968 0.0016172553161 0.0015956872151 0.0015746586077 0.0015541481204 0.00153413574 0.0015146027235 0.0014955315865 0.0014769062672 
0.0016634228561 0.0016418026371 0.0016056954123 0.0015844043331 0.0015636429061 0.0015433901535 0.0015236265707 0.0015043337336 0.0014854946661 
0.0014670935986 0.0016526554206 0.0016311880282 0.0015943028037 0.0015732888426 0.0015527945234 0.001532799377 0.0015132842692 0.0014942312668 
0.0014756237674 0.0014574464302 0.0016422955374 0.0016209830156 0.0015855227854 0.0015647507359 0.0015444816846 0.0015246974972 0.0015053811608 
0.0014865164728 0.0014680888204 0.0014500840587 0.0016288568576 0.0016077166798 0.0015744011469 0.001553887232 0.0015338690332 0.0015143287115 
0.0014952492747 0.0014766151372 0.0014584114349 0.0014406243645 0.00161561854 0.0015946580407 0.0015634828123 0.0015432243361 0.0015234543635 
0.0015041550422 0.0014853100781 0.0014669036078 0.001448921117 0.0014313490716 0.0016025832191 0.0015818097926 0.0015527621482 0.001532756571 
0.0015132320362 0.0014941714051 0.0014755580629 0.00145737666 0.0014396128499 0.0014222531916 0.0017879765713 0.0017646686789 0.0017315734959 
0.0017081551542 0.0016853255633 0.0016630624715 0.0016413448947 0.0016201531776 0.0015994687346 0.0015792742873 0.0017763962338 0.0017533330905 
0.0017190450742 0.0016959130408 0.0016733601644 0.001651364609 0.0016299057456 0.0016089643131 0.0015885221374 0.001568562281 0.0017648721007 
0.0017420337999 0.0017066819282 0.0016838364846 0.001661560382 0.001639832204 0.0016186318907 0.0015979404544 0.0015777401032 0.0015580143866 
0.001753402144 0.001730771955 0.0016944855688 0.0016719267343 0.0016499274187 0.0016284666133 0.0016075245561 0.0015870827658 0.0015671239059 
0.001547631801 0.0017419896688 0.0017195467124 0.0016824579834 0.0016601858873 0.001638463264 0.0016172696586 0.0015965856763 0.0015763932571 
0.0015566753704 0.0015374163039 0.0017306360329 0.0017083607311 0.0016706020419 0.0016486167168 0.001627170756 0.0016062441425 0.0015858179092 
0.0015658744255 0.0015463970658 0.0015273704498 0.00171990768 0.0016976081289 0.0016614679925 0.0016397350763 0.0016185233536 0.0015978152531 
0.001577594032 0.0015578439814 0.0015385502021 0.0015196992296 0.0017059728153 0.0016838544954 0.0016498617703 0.0016283975263 0.0016074469726 
0.0015869927192 0.0015670183184 0.0015475080609 0.0015284477477 0.0015098235177 0.0016922437916 0.0016703143859 0.0016384618908 0.001617263632 
0.0015965716 0.0015763685061 0.0015566381159 0.0015373652828 0.0015185355563 0.0015001354232 0.0016787238891 0.0016569911517 0.001627263254 
0.0016063284906 0.0015858923853 0.001565937817 0.001546449093 0.0015274109366 0.0015088091794 0.0014906306126 0.0018679786954 0.0018437878257 
0.0018094592472 0.0017850441752 0.0017612371019 0.0017380163653 0.0017153612093 0.0016932520915 0.0016716706512 0.001650599656 0.0018558178253 
0.0018318836062 0.0017964576607 0.0017723384065 0.0017488173182 0.0017258731381 0.0017034856248 0.0016816356097 0.0016603049983 0.0016394770419 
0.0018437115388 0.0018200178212 0.0017836261338 0.0017598027054 0.0017365676132 0.0017138999158 0.0016917798737 0.0016701886096 0.0016491085561 
0.0016285231692 0.0018316611606 0.0018081876806 0.0017709656618 0.0017474381628 0.0017244890646 0.0017020978138 0.0016802449651 0.0016589121699 
0.0016380821756 0.0016177387763 0.0018196661772 0.0017963940486 0.0017584780635 0.0017352466278 0.001712583468 0.0016904684397 0.0016688825422 
0.0016478078204 0.0016272274093 0.0016071255332 0.001807728339 0.0017846358053 0.0017461658723 0.0017232304644 0.0017008531113 0.0016790141009 
0.0016576948351 0.0016368777623 0.0016165464403 0.0015966854662 0.0017967918438 0.0017735207667 0.0017366617271 0.0017139893404 0.0016918553761 
0.0016702426886 0.0016491350561 0.0016285170481 0.001608373953 0.0015886923462 0.0017823725173 0.0017592908373 0.0017245843113 0.0017021907437 
0.00168032788 0.0016589788148 0.0016381275044 0.0016177585506 0.0015978579157 0.0015784118733 0.0017681635102 0.0017452792918 0.0017127156061 
0.0016905982303 0.0016690038501 0.0016479157496 0.0016273179427 0.00160719573 0.0015875347455 0.0015683216464 0.0017541689869 0.0017314902766 
0.0017010512725 0.0016792075472 0.001657879088 0.0016370492106 0.0016167027041 0.0015968245028 0.0015774006489 0.0015584179708 0.0019470335568 
0.0019219543794 0.0018865446036 0.0018611556311 0.0018363929247 0.0018122351643 0.0017886620456 0.0017656542588 0.0017431934577 0.0017212625504 
0.0019342963763 0.0019094876506 0.0018730797961 0.001847995512 0.0018235276638 0.001799655214 0.0017763583756 0.0017536180862 0.0017314164933 
0.0017097367276 0.0019216131739 0.0018970574503 0.0018597889711 0.001835009542 0.0018108365316 0.0017872493766 0.0017642285283 0.0017417554477 
0.0017198125854 0.0016983834468 0.0019089849169 0.0018846618839 0.0018466730918 0.0018221986059 0.00179832038 0.0017750183308 0.0017522732573 
0.0017300669977 0.0017083824379 0.001687203423 0.0018964104447 0.0018723010942 0.0018337336482 0.001809564083 0.0017859805574 0.0017629633893 
0.0017404938069 0.0017185540456 0.0016971273395 0.0016761979119 0.0018838920752 0.0018599735656 0.0018209727708 0.0017971080918 0.0017738191274 
0.001751086618 0.0017288921983 0.0017072185068 0.0016860491414 0.0016653687164 0.0018729238861 0.0018486978698 0.0018110857023 0.0017874944759 
0.0017644580635 0.0017419598733 0.0017199840052 0.0016985153212 0.001677539468 0.0016570427126 0.0018580313232 0.0018340021172 0.0017985499184 
0.0017752473763 0.0017524917383 0.0017302665941 0.0017085562433 0.0016873457479 0.0016666207831 0.0016463682625 0.0018433528657 0.0018195288793 
0.0017862247458 0.0017632082623 0.0017407307849 0.0017187760598 0.0016973286346 0.0016763735904 0.0016558972582 0.0016358862083 0.0018288931906 
0.0018052828274 0.001774106381 0.00175137344 0.0017291715719 0.0017074847621 0.0016862975902 0.0016655957798 0.0016453654002 0.0016255933739 
0.002025099927 0.0019991301149 0.0019628078268 0.0019364670754 0.0019107699637 0.0018856956579 0.001861224085 0.0018373361673 0.0018140136707 