# vtk DataFile Version 4.0
vtk output
ASCII
DATASET POLYDATA
POINTS 477 double
375 -239 0 375 -139 0 297.15 -239 0 
297.15 -239 0 375 -139 0 287.745 -139 0 
219.301 -239 0 287.745 -139 0 200.49 -139 0 
141.451 -239 0 200.49 -139 0 102.961 -172.333 0 
141.451 -239 0 219.301 -239 0 200.49 -139 0 
375 -39 0 287.745 -39 0 375 -139 0 
375 -139 0 287.745 -39 0 287.745 -139 0 
287.745 -139 0 287.745 -39 0 200.49 -39 0 
200.49 -139 0 200.49 -39 0 113.236 -39 0 
113.236 -139 0 113.236 -39 0 64.4708 -105.667 0 
102.961 -172.333 0 113.236 -139 0 64.4708 -105.667 0 
102.961 -172.333 0 200.49 -139 0 113.236 -139 0 
113.236 -139 0 200.49 -139 0 113.236 -39 0 
287.745 -139 0 200.49 -39 0 200.49 -139 0 
113.236 -39 0 25.9808 -39 0 64.4708 -105.667 0 
219.301 -239 0 297.15 -239 0 287.745 -139 0 
163.521 -151.635 0 168.49 -139 0 140.863 -139 0 
185.35 -144.175 0 184.49 -139 0 -57.5426 -105.667 0 
-21 -69 0 -19.0526 -39 0 -57.5426 -105.667 0 
-44.8409 -139 0 -21 -69 0 -57.5426 -105.667 0 
-96.0326 -172.333 0 -44.8409 -139 0 -44.8409 -139 0 
-96.0326 -172.333 0 -21 -154 0 -21 -69 0 
-44.8409 -139 0 -21 -154 0 -134.523 -239 0 
-77.7613 -239 0 -96.0326 -172.333 0 -96.0326 -172.333 0 
-77.7613 -239 0 -21 -154 0 -21 -154 0 
-77.7613 -239 0 -21 -239 0 -21 -69 0 
21 -69 0 -19.0526 -39 0 -19.0526 -39 0 
21 -69 0 19.0526 -39 0 19.0526 -39 0 
21 -69 0 57.5426 -105.667 0 57.5426 -105.667 0 
21 -69 0 44.8409 -139 0 96.0326 -172.333 0 
44.8409 -139 0 21 -154 0 77.7613 -239 0 
21 -154 0 21 -239 0 77.7613 -239 0 
96.0326 -172.333 0 21 -154 0 77.7613 -239 0 
134.523 -239 0 96.0326 -172.333 0 21 -69 0 
21 -154 0 44.8409 -139 0 96.0326 -172.333 0 
57.5426 -105.667 0 44.8409 -139 0 -35.0526 -66.7128 0 
-34.9535 -83.0009 0 -49.5426 -91.8103 0 -46.2481 -94.3338 0 
-64.9471 -164.738 0 -69.2165 -154.872 0 -21 -122 0 
41.5426 -77.9539 0 34.9535 -83.0009 0 52.0855 -161.595 0 
69.2165 -154.872 0 80.4898 -168.536 0 82.6245 -163.603 0 
21 -101 0 31.3167 -99.2913 0 -31.3167 -99.2913 0 
-21 -101 0 375 33 0 281.25 33 0 
375 3 0 375 3 0 281.25 33 0 
281.25 3 0 281.25 3 0 281.25 33 0 
187.5 33 0 187.5 3 0 187.5 33 0 
93.75 33 0 93.75 3 0 93.75 33 0 
5.68434e-14 33 0 5.68434e-14 3 0 5.68434e-14 33 0 
-93.75 33 0 -93.75 3 0 -93.75 33 0 
-187.5 33 0 -187.5 3 0 -187.5 33 0 
-281.25 33 0 -281.25 3 0 -281.25 33 0 
-375 33 0 -375 3 0 -281.25 3 0 
-375 33 0 281.25 3 0 187.5 33 0 
187.5 3 0 187.5 3 0 93.75 33 0 
93.75 3 0 93.75 3 0 5.68434e-14 33 0 
5.68434e-14 3 0 5.68434e-14 3 0 -93.75 33 0 
-93.75 3 0 -93.75 3 0 -187.5 33 0 
-187.5 3 0 -187.5 3 0 -281.25 33 0 
-281.25 3 0 342.205 13.4944 0 314.045 22.5056 0 
248.455 13.4944 0 154.705 13.4944 0 60.9551 13.4944 0 
-32.7949 13.4944 0 -126.545 13.4944 0 -220.295 13.4944 0 
-314.045 13.4944 0 -342.205 22.5056 0 220.295 22.5056 0 
126.545 22.5056 0 32 3 0 32.7949 22.5056 0 
63.2724 12.7528 0 61.75 3 0 -60.9551 22.5056 0 
-154.705 22.5056 0 -248.455 22.5056 0 313.25 33 0 
311.728 23.2472 0 343 3 0 344.522 12.7528 0 
219.5 33 0 217.978 23.2472 0 125.75 33 0 
124.228 23.2472 0 32 33 0 30.4776 23.2472 0 
-61.75 33 0 -63.2724 23.2472 0 -155.5 33 0 
-157.022 23.2472 0 -249.25 33 0 -250.772 23.2472 0 
-343 33 0 -344.522 23.2472 0 -313.25 3 0 
-311.728 12.7528 0 249.25 3 0 250.772 12.7528 0 
155.5 3 0 157.022 12.7528 0 -32 3 0 
-30.4776 12.7528 0 -125.75 3 0 -124.228 12.7528 0 
-219.5 3 0 -217.978 12.7528 0 15 -239 0 
15 -157 0 -15 -239 0 -15 -239 0 
15 -157 0 -15 -157 0 -15 -157 0 
15 -157 0 15 -75 0 -15 -75 0 
-15 -157 0 15 -75 0 375 -3 0 
281.25 -3 0 375 -33 0 375 -33 0 
281.25 -3 0 281.25 -33 0 281.25 -33 0 
281.25 -3 0 187.5 -3 0 187.5 -33 0 
187.5 -3 0 93.75 -3 0 93.75 -33 0 
93.75 -3 0 5.68434e-14 -3 0 5.68434e-14 -33 0 
5.68434e-14 -3 0 -93.75 -3 0 -93.75 -33 0 
-93.75 -3 0 -187.5 -3 0 -187.5 -33 0 
-187.5 -3 0 -281.25 -3 0 -281.25 -33 0 
-281.25 -3 0 -375 -3 0 -375 -33 0 
-281.25 -33 0 -375 -3 0 281.25 -33 0 
187.5 -3 0 187.5 -33 0 187.5 -33 0 
93.75 -3 0 93.75 -33 0 93.75 -33 0 
5.68434e-14 -3 0 5.68434e-14 -33 0 5.68434e-14 -33 0 
-93.75 -3 0 -93.75 -33 0 -93.75 -33 0 
-187.5 -3 0 -187.5 -33 0 -187.5 -33 0 
-281.25 -3 0 -281.25 -33 0 375 239 0 
281.25 239 0 375 139 0 375 139 0 
281.25 239 0 281.25 139 0 375 39 0 
281.25 139 0 281.25 39 0 375 39 0 
375 139 0 281.25 139 0 281.25 239 0 
187.5 239 0 281.25 139 0 281.25 139 0 
187.5 239 0 187.5 139 0 281.25 39 0 
187.5 139 0 187.5 39 0 281.25 39 0 
281.25 139 0 187.5 139 0 187.5 239 0 
93.75 239 0 187.5 139 0 187.5 139 0 
93.75 239 0 93.75 139 0 187.5 39 0 
93.75 139 0 93.75 39 0 187.5 39 0 
187.5 139 0 93.75 139 0 93.75 239 0 
0 239 0 93.75 139 0 93.75 139 0 
0 239 0 5.68434e-14 139 0 93.75 39 0 
5.68434e-14 139 0 5.68434e-14 39 0 93.75 39 0 
93.75 139 0 5.68434e-14 139 0 0 239 0 
-93.75 239 0 5.68434e-14 139 0 5.68434e-14 139 0 
-93.75 239 0 -93.75 139 0 5.68434e-14 39 0 
-93.75 139 0 -93.75 39 0 5.68434e-14 39 0 
5.68434e-14 139 0 -93.75 139 0 -93.75 239 0 
-187.5 239 0 -93.75 139 0 -93.75 139 0 
-187.5 239 0 -187.5 139 0 -93.75 39 0 
-187.5 139 0 -187.5 39 0 -93.75 39 0 
-93.75 139 0 -187.5 139 0 -187.5 239 0 
-281.25 239 0 -187.5 139 0 -187.5 139 0 
-281.25 239 0 -281.25 139 0 -187.5 39 0 
-281.25 139 0 -281.25 39 0 -187.5 39 0 
-187.5 139 0 -281.25 139 0 -281.25 239 0 
-375 239 0 -281.25 139 0 -281.25 139 0 
-375 239 0 -375 139 0 -281.25 39 0 
-375 139 0 -375 39 0 -281.25 39 0 
-281.25 139 0 -375 139 0 342.205 -22.5056 0 
314.045 -13.4944 0 248.455 -22.5056 0 154.705 -22.5056 0 
60.9551 -22.5056 0 -32.7949 -22.5056 0 -126.545 -22.5056 0 
-220.295 -22.5056 0 -314.045 -22.5056 0 -342.205 -13.4944 0 
220.295 -13.4944 0 126.545 -13.4944 0 32 -33 0 
32.7949 -13.4944 0 63.2724 -23.2472 0 61.75 -33 0 
-60.9551 -13.4944 0 -154.705 -13.4944 0 -248.455 -13.4944 0 
313.25 -3 0 311.728 -12.7528 0 343 -33 0 
344.522 -23.2472 0 219.5 -3 0 217.978 -12.7528 0 
125.75 -3 0 124.228 -12.7528 0 32 -3 0 
30.4776 -12.7528 0 -61.75 -3 0 -63.2724 -12.7528 0 
-155.5 -3 0 -157.022 -12.7528 0 -249.25 -3 0 
-250.772 -12.7528 0 -343 -3 0 -344.522 -12.7528 0 
-313.25 -33 0 -311.728 -23.2472 0 249.25 -33 0 
250.772 -23.2472 0 155.5 -33 0 157.022 -23.2472 0 
-32 -33 0 -30.4776 -23.2472 0 -125.75 -33 0 
-124.228 -23.2472 0 -219.5 -33 0 -217.978 -23.2472 0 
-219.301 -239 0 -141.451 -239 0 -200.49 -139 0 
-287.745 -139 0 -200.49 -139 0 -287.745 -39 0 
-375 -39 0 -287.745 -139 0 -287.745 -39 0 
-375 -39 0 -375 -139 0 -287.745 -139 0 
-287.745 -139 0 -375 -139 0 -297.15 -239 0 
-219.301 -239 0 -287.745 -139 0 -297.15 -239 0 
-219.301 -239 0 -200.49 -139 0 -287.745 -139 0 
-64.4708 -105.667 0 -113.236 -139 0 -102.961 -172.333 0 
-64.4708 -105.667 0 -113.236 -39 0 -113.236 -139 0 
-64.4708 -105.667 0 -25.9808 -39 0 -113.236 -39 0 
-113.236 -39 0 -200.49 -39 0 -113.236 -139 0 
-113.236 -139 0 -200.49 -39 0 -200.49 -139 0 
-102.961 -172.333 0 -200.49 -139 0 -141.451 -239 0 
-102.961 -172.333 0 -113.236 -139 0 -200.49 -139 0 
-200.49 -39 0 -287.745 -39 0 -200.49 -139 0 
-375 -139 0 -375 -239 0 -297.15 -239 0 
-139.93 -159.698 0 -168.49 -139 0 -170.21 -149.349 0 

POLYGONS 241 964
3 0 1 2 
3 3 4 5 
3 6 7 8 
3 9 10 11 
3 12 13 14 
3 15 16 17 
3 18 19 20 
3 21 22 23 
3 24 25 26 
3 27 28 29 
3 30 31 32 
3 50 35 33 
3 36 37 38 
3 39 40 41 
3 42 43 44 
3 45 46 47 
3 33 48 50 
3 51 52 49 
3 48 49 50 
3 49 48 51 
3 51 34 52 
3 108 54 107 
3 56 57 58 
3 59 60 61 
3 62 111 64 
3 122 66 113 
3 68 69 70 
3 71 72 73 
3 74 75 76 
3 77 78 79 
3 80 81 82 
3 83 84 114 
3 86 87 88 
3 117 90 116 
3 92 93 94 
3 95 96 97 
3 98 99 100 
3 120 102 103 
3 104 105 106 
3 54 55 107 
3 109 110 108 
3 108 107 109 
3 109 53 110 
3 112 63 111 
3 111 62 112 
3 66 67 113 
3 115 85 114 
3 114 84 115 
3 90 91 116 
3 118 119 117 
3 117 116 118 
3 118 89 119 
3 121 101 120 
3 120 103 121 
3 123 65 122 
3 122 113 123 
3 124 172 126 
3 173 128 129 
3 130 131 174 
3 133 134 175 
3 136 137 176 
3 139 140 177 
3 142 143 178 
3 145 146 179 
3 148 149 180 
3 151 181 153 
3 182 155 156 
3 183 158 159 
3 161 162 185 
3 188 164 165 
3 189 167 168 
3 190 170 171 
3 191 192 172 
3 193 194 173 
3 195 196 174 
3 197 198 175 
3 199 200 176 
3 201 202 177 
3 203 204 178 
3 205 206 179 
3 207 208 180 
3 209 210 181 
3 211 212 182 
3 213 214 183 
3 184 186 185 
3 162 184 185 
3 186 184 187 
3 187 160 186 
3 215 216 188 
3 217 218 189 
3 219 220 190 
3 172 124 191 
3 191 125 192 
3 173 129 193 
3 193 127 194 
3 174 131 195 
3 195 132 196 
3 175 134 197 
3 197 135 198 
3 176 137 199 
3 199 138 200 
3 177 140 201 
3 201 141 202 
3 178 143 203 
3 203 144 204 
3 179 146 205 
3 205 147 206 
3 180 149 207 
3 207 150 208 
3 181 151 209 
3 209 152 210 
3 182 156 211 
3 211 154 212 
3 183 159 213 
3 213 157 214 
3 188 165 215 
3 215 163 216 
3 189 168 217 
3 217 166 218 
3 190 171 219 
3 219 169 220 
3 221 222 223 
3 224 225 226 
3 227 228 229 
3 230 231 232 
3 233 377 235 
3 378 237 238 
3 239 240 379 
3 242 243 380 
3 245 246 381 
3 248 249 382 
3 251 252 383 
3 254 255 384 
3 257 258 385 
3 260 386 262 
3 387 264 265 
3 388 267 268 
3 270 271 390 
3 393 273 274 
3 394 276 277 
3 395 279 280 
3 281 282 283 
3 284 285 286 
3 287 288 289 
3 290 291 292 
3 293 294 295 
3 296 297 298 
3 299 300 301 
3 302 303 304 
3 305 306 307 
3 308 309 310 
3 311 312 313 
3 314 315 316 
3 317 318 319 
3 320 321 322 
3 323 324 325 
3 326 327 328 
3 329 330 331 
3 332 333 334 
3 335 336 337 
3 338 339 340 
3 341 342 343 
3 344 345 346 
3 347 348 349 
3 350 351 352 
3 353 354 355 
3 356 357 358 
3 359 360 361 
3 362 363 364 
3 365 366 367 
3 368 369 370 
3 371 372 373 
3 374 375 376 
3 396 397 377 
3 398 399 378 
3 400 401 379 
3 402 403 380 
3 404 405 381 
3 406 407 382 
3 408 409 383 
3 410 411 384 
3 412 413 385 
3 414 415 386 
3 416 417 387 
3 418 419 388 
3 389 391 390 
3 271 389 390 
3 391 389 392 
3 392 269 391 
3 420 421 393 
3 422 423 394 
3 424 425 395 
3 377 233 396 
3 396 234 397 
3 378 238 398 
3 398 236 399 
3 379 240 400 
3 400 241 401 
3 380 243 402 
3 402 244 403 
3 381 246 404 
3 404 247 405 
3 382 249 406 
3 406 250 407 
3 383 252 408 
3 408 253 409 
3 384 255 410 
3 410 256 411 
3 385 258 412 
3 412 259 413 
3 386 260 414 
3 414 261 415 
3 387 265 416 
3 416 263 417 
3 388 268 418 
3 418 266 419 
3 393 274 420 
3 420 272 421 
3 394 277 422 
3 422 275 423 
3 395 280 424 
3 424 278 425 
3 426 427 428 
3 429 430 431 
3 432 433 434 
3 435 436 437 
3 438 439 440 
3 441 442 443 
3 444 445 446 
3 447 448 449 
3 450 451 452 
3 453 454 455 
3 456 457 458 
3 459 460 461 
3 462 463 464 
3 465 466 474 
3 468 469 470 
3 471 472 473 
3 475 476 474 
3 474 466 475 
3 475 467 476 

CELL_DATA 241
FIELD FieldData 1
electrode_index 1 241 int
0 0 0 0 0 0 0 0 0 
0 0 0 0 0 0 0 0 0 
0 0 0 1 1 1 1 1 1 
1 1 1 1 1 1 1 1 1 
1 1 1 1 1 1 1 1 1 
1 1 1 1 1 1 1 1 1 
1 1 2 2 2 2 2 2 2 
2 2 2 2 2 2 2 2 2 
2 2 2 2 2 2 2 2 2 
2 2 2 2 2 2 2 2 2 
2 2 2 2 2 2 2 2 2 
2 2 2 2 2 2 2 2 2 
2 2 2 2 2 2 2 2 2 
2 2 2 2 3 3 3 3 4 
4 4 4 4 4 4 4 4 4 
4 4 4 4 4 4 4 4 4 
4 4 4 4 4 4 4 4 4 
4 4 4 4 4 4 4 4 4 
4 4 4 4 4 4 4 4 4 
4 4 4 4 4 4 4 4 4 
4 4 4 4 4 4 4 4 4 
4 4 4 4 4 4 4 4 4 
4 4 4 4 4 4 4 4 4 
4 4 4 4 4 4 4 4 4 
4 4 4 4 4 4 5 5 5 
5 5 5 5 5 5 5 5 5 
5 5 5 5 5 5 5 
