# vtk DataFile Version 5.1
vtk output
ASCII
DATASET STRUCTURED_POINTS
DIMENSIONS 26 26 26
SPACING 0.08 0.08 0.08
ORIGIN -1 -1 0.5
POINT_DATA 17576
FIELD FieldData 1
potential 1 17576 double
0.0019193968944 0.001938572436 0.0019574750983 0.0019759903631 0.0019941176828 0.0020118237629 0.002029118828 0.0020460346297 0.0020626449329 
0.0020790696723 0.0020954023992 0.0021117918553 0.0021284190189 0.0021454704216 0.0021630386869 0.0021812308345 0.0022001798728 0.0022199598845 
0.0022406111802 0.0022621407829 0.002284530241 0.0023076977542 0.002331658794 0.0023562876547 0.0023815069051 0.0024072136675 0.0018987507248 
0.0019177534651 0.001936495011 0.0019548396579 0.0019727908032 0.0019903337504 0.0020074524686 0.0020242002207 0.0020406557591 0.0020569504328 
0.0020731845072 0.0020895280657 0.0021061216597 0.0021231917518 0.0021407845973 0.0021590128513 0.0021779852351 0.0021977681202 0.0022183917317 
0.0022398618798 0.0022621563596 0.0022851955174 0.0023090009585 0.0023334452323 0.0023584513268 0.0023839118079 0.0018701715188 0.0018889260682 
0.0019074997854 0.0019256271481 0.0019433621843 0.001960679177 0.0019775730439 0.0019940964673 0.0020103268717 0.002026421979 0.0020424716646 
0.0020586554109 0.002075128926 0.0020920207479 0.0021095393343 0.0021276922036 0.0021465584317 0.0021662196735 0.0021866989539 0.0022079986499 
0.0022300960446 0.0022529128301 0.0022764650552 0.0023006419327 0.0023253519731 0.0023505048777 0.0018357395141 0.0018542451356 0.0018725751722 
0.0018904571529 0.0019079444124 0.0019250060358 0.0019416652381 0.001957947751 0.0019739421537 0.0019898074407 0.0020056365842 0.002021607129 
0.0020378730014 0.002054576524 0.0020718981569 0.0020898158378 0.0021084622405 0.0021278861305 0.0021481101563 0.0021691343903 0.0021909359928 
0.00221343572 0.002236649467 0.0022604716897 0.0022848074445 0.0023095666871 0.0017978893942 0.0018161217526 0.0018341845567 0.0018518046894 
0.0018690325469 0.0018858517999 0.0019022650093 0.0019183344753 0.0019341452156 0.0019497870982 0.0019654174381 0.0019811757264 0.0019972136645 
0.002013671497 0.0020307456722 0.0020483538443 0.0020666903223 0.0020857823522 0.0021056566941 0.0021263113395 0.0021477224694 0.0021698190893 
0.0021926079348 0.0022159864997 0.0022398764572 0.0022641706751 0.0017589937765 0.0017769331826 0.001794606159 0.00181206945 0.0018290497967 
0.0018456407328 0.0018618582352 0.0018777447311 0.0018934234325 0.001908932384 0.0019244216287 0.0019400222156 0.001955864498 0.0019720845668 
0.0019888862429 0.0020061974899 0.0020241391935 0.0020428336497 0.0020622802592 0.0020824829161 0.0021034244127 0.0021250355852 0.0021473250904 
0.0021701919354 0.002193559314 0.0022173208841 0.0017210784572 0.0017387063879 0.0017560844214 0.0017732916611 0.0017900383031 0.0018064346237 
0.0018225019441 0.0018382850819 0.0018538987763 0.0018693628874 0.0018848067433 0.0019003340888 0.0019160593812 0.0019320960968 0.0019486494134 
0.001965634852 0.001983220288 0.0020014692052 0.0020204430394 0.0020401417991 0.002060550665 0.0020816102511 0.002103332706 0.0021256219866 
0.002148396371 0.0021715671943 0.0016856607151 0.0017029701945 0.0017200576849 0.0017370151996 0.0017535472328 0.00176978425 0.0017857547108 
0.0018014982341 0.0018171162944 0.0018326336538 0.0018481273512 0.0018636856483 0.0018793894662 0.0018953365044 0.0019117159323 0.0019284378964 
0.0019456884429 0.0019635118055 0.0019819857574 0.002001146278 0.0020209842252 0.0020414413287 0.0020625435796 0.0020841982787 0.0021063295419 
0.0021288453142 0.0016537825098 0.0016707962403 0.0016875940978 0.001704272753 0.0017206547269 0.0017367665012 0.0017526773416 0.0017684418844 
0.0017841417878 0.0017997722968 0.0018154168752 0.0018311011961 0.0018468892748 0.0018628499324 0.0018791571562 0.0018957034982 0.0019126717596 
0.0019301372225 0.0019481308135 0.0019667598006 0.0019860105386 0.002005840368 0.0020262859891 0.002047265211 0.0020687061996 0.0020905282826 
0.0016262004541 0.0016428832275 0.0016593938045 0.0016758464084 0.0016920595128 0.0017080772616 0.0017239730376 0.0017398050889 0.0017556336843 
0.0017714463706 0.001787290996 0.0018031921836 0.0018191580432 0.0018352390341 0.0018515852175 0.0018680639535 0.0018848448015 0.0019020183524 
0.0019196441821 0.0019377469533 0.0019564288917 0.0019756316107 0.0019954066192 0.0020156848817 0.0020364110764 0.0020575033144 0.0016033240535 
0.0016196394088 0.0016359037691 0.0016520252977 0.0016682050729 0.0016841551756 0.0017000677199 0.0017159995027 0.0017319949357 0.0017480304918 
0.0017641289657 0.0017802968852 0.0017965141122 0.0018128032025 0.0018291846202 0.0018458168523 0.0018625363956 0.0018795135795 0.0018968316206 
0.0019145505312 0.001932681306 0.0019512883426 0.0019704070805 0.0019899861466 0.0020099818971 0.0020303275177 0.0015854275878 0.0016014070557 
0.0016173912269 0.0016333075817 0.0016493211198 0.0016652665019 0.0016812194685 0.0016972693518 0.0017134544176 0.0017297339407 0.0017461153807 
0.0017625752186 0.0017791030604 0.0017956662273 0.0018122712153 0.0018290510335 0.0018458223277 0.0018627305183 0.0018798571611 0.0018972607056 
0.0019149939222 0.0019330378301 0.0019515443657 0.0019704482809 0.0019897257113 0.0020093254233 0.001572635339 0.0015883056926 0.0016039932279 
0.0016197422976 0.0016356520297 0.001651562203 0.0016675751319 0.0016837575348 0.0017001410638 0.0017166729895 0.0017333453575 0.0017501206078 
0.0017669658203 0.0017838539601 0.0018007421023 0.0018177569521 0.0018346786429 0.0018516311215 0.0018686936274 0.0018859028757 0.0019033186174 
0.0019209633418 0.0019389003281 0.0019571870542 0.0019757848876 0.001994660682 0.0015650687084 0.0015804093535 0.0015958582204 0.0016113957126 
0.0016272411676 0.0016431402771 0.0016592195096 0.0016755431968 0.0016921241263 0.0017089052036 0.0017258648728 0.0017429552343 0.0017601300346 
0.0017773384955 0.0017945542538 0.0018118557162 0.0018290048034 0.0018461048484 0.0018632217983 0.0018803688554 0.0018975929375 0.0019149261276 
0.0019324642055 0.0019501897953 0.0019681778874 0.0019863898734 0.0015627408454 0.0015777807353 0.0015929750186 0.0016083526417 0.0016241400314 
0.0016399942192 0.0016561929271 0.0016726523661 0.0016894253497 0.0017064428767 0.0017236748115 0.001741064005 0.0017585556544 0.001776091524 
0.001793625506 0.0018112522219 0.0018286768981 0.0018460194885 0.0018632575512 0.0018804591539 0.0018976338151 0.0019147895462 0.0019320354412 
0.0019493787581 0.0019668348617 0.0019844577922 0.0015656601949 0.0015803733647 0.0015953585491 0.001610598075 0.0016261304852 0.0016421845884 
0.0016584763855 0.0016750723591 0.0016920265767 0.0017092611632 0.001726741365 0.0017444039789 0.0017621890126 0.0017800286721 0.0017978756888 
0.0018158066989 0.0018335406672 0.0018511504623 0.0018686011526 0.0018859556816 0.0019031925113 0.0019203130389 0.0019374047717 0.0019544842324 
0.0019715790494 0.0019887077867 0.0015736176738 0.0015881057258 0.0016029053253 0.0016180341512 0.0016335260806 0.0016495842888 0.0016659330275 
0.0016827167073 0.0016998364832 0.0017172658649 0.001734960836 0.0017528628584 0.0017709056601 0.0017890201269 0.0018071551324 0.0018252531597 
0.0018434126219 0.0018613029802 0.0018790102234 0.0018965788142 0.001913971917 0.0019311690011 0.0019482443804 0.0019652024728 0.0019820775919 
0.0019988967338 0.0015864465646 0.0016007386073 0.0016154189611 0.0016304784431 0.0016459507091 0.0016620557514 0.0016784915752 0.001695379264 
0.0017126425762 0.0017302525264 0.0017481335187 0.0017662352191 0.0017844930405 0.0018028370157 0.0018212167628 0.0018395745037 0.0018579936915 
0.0018761735341 0.0018941834801 0.0019119655511 0.001929574078 0.0019469392711 0.001964116234 0.0019810941307 0.0019978967524 0.0020145553113 
0.0016037304991 0.0016179055329 0.0016325088396 0.0016475444289 0.0016630499917 0.0016792181226 0.0016956985376 0.0017127306461 0.0017301200051 
0.0017478497532 0.0017658721277 0.0017841397398 0.0018025611181 0.0018210812808 0.0018396536479 0.0018582185085 0.0018768714402 0.0018952801024 
0.0019135538357 0.0019315867553 0.001949448776 0.0019670443691 0.0019844143006 0.0020015311375 0.0020184032604 0.002035056764 0.0016248139291 
0.001638944167 0.0016535379924 0.0016686015899 0.001684165405 0.0017002490305 0.0017170151931 0.0017340561357 0.0017516219389 0.0017694395804 
0.0017875605108 0.0018059127529 0.0018244383494 0.0018430875112 0.0018617887501 0.0018805062112 0.0018993279715 0.0019179294526 0.0019364079254 
0.0019546902522 0.0019728051106 0.0019906590363 0.0020082802704 0.0020256260892 0.0020426922003 0.0020594845448 0.0016486744376 0.0016628525128 
0.0016775112371 0.0016926560595 0.0017083109293 0.0017244882651 0.0017413537734 0.001758489436 0.0017761251878 0.0017939979134 0.0018121686659 
0.0018305649473 0.0018491296966 0.0018678122054 0.0018865781069 0.0019053676991 0.001924295289 0.0019430275052 0.0019616710545 0.0019801851169 
0.0019984907221 0.0020166050296 0.0020345023346 0.0020521310291 0.0020694762297 0.0020865279508 0.001673832211 0.0016881908458 0.0017029409549 
0.0017182178989 0.001734002952 0.0017502917157 0.0017672534384 0.0017844524796 0.0018020926553 0.0018200247832 0.0018381865177 0.0018565533217 
0.0018750878211 0.0018937347826 0.0019124719579 0.0019312563638 0.0019500721014 0.0019690100278 0.0019877470215 0.0020064000975 0.0020248675059 
0.0020432314169 0.00206139991 0.0020793351977 0.0020970080966 0.0021144043655 0.0016983146002 0.0017128966332 0.0017278518228 0.0017433137862 
0.0017592547464 0.0017756600403 0.0017925036574 0.0018099454921 0.0018275407943 0.0018454514984 0.0018635812002 0.0018818615461 0.0019002800141 
0.001918809105 0.0019374316174 0.0019561195776 0.001974850781 0.0019937612538 0.0020125267827 0.0020312483131 0.0020498471534 0.0020683756853 
0.0020868034007 0.0021050362276 0.0021230558683 0.0021408400251 0.0017198183567 0.0017346899253 0.0017498939033 0.0017655690939 0.0017816766391 
0.0017981980593 0.0018151032274 0.0018325640348 0.0018501161856 0.0018679336431 0.0018859299465 0.0019040415197 0.0019222677055 0.0019405962362 
0.0019590120598 0.0019774922813 0.0019960548878 0.002014841896 0.0020335205544 0.0020522276696 0.0020708851426 0.0020895331328 0.0021081379406 
0.0021266492805 0.0021449992222 0.0021631736512 0.0017359741291 0.0017511589161 0.0017666399641 0.0017825333709 0.0017988040955 0.0018154276422 
0.0018323689223 0.0018498031523 0.0018672643901 0.0018848855147 0.0019026926001 0.0019205917701 0.0019385337084 0.0019565565513 0.0019746586902 
0.0019928470764 0.0020111235676 0.0020296829347 0.0020481884587 0.0020667885506 0.0020854651189 0.002104097378 0.002122837834 0.0021415396102 
0.00216019254 0.0021787306314 0.0017447712687 0.0017602477328 0.0017759886383 0.0017920951281 0.0018085077027 0.0018252007632 0.0018421399325 
0.001859508736 0.0018768277686 0.0018942395308 0.0019117746099 0.0019293098734 0.0019469097745 0.0019645255473 0.0019822067443 0.0019999813636 
0.0020178845962 0.0020361032422 0.0020543234983 0.0020727232197 0.0020912789534 0.0021098733733 0.0021286548084 0.0021474962828 0.0021663667584 
0.0021852317215 0.0021215220295 0.0021420674734 0.0021624327634 0.0021825181841 0.0022023368424 0.0022218661357 0.0022411215531 0.0022601323711 
0.0022789608411 0.0022977069215 0.0023164381741 0.0023352876765 0.0023543654431 0.0023738690822 0.002393850027 0.0024143916006 0.0024356089597 
0.0024575658179 0.0024802998558 0.0025038222004 0.0025281235494 0.0025531346963 0.0025788854642 0.0026052658602 0.0026322144856 0.0026596449862 
0.0021031285397 0.0021234691177 0.002143714168 0.0021636401539 0.002183300153 0.0022026909214 0.0022218013971 0.0022406801275 0.002259390044 
0.0022780366773 0.0022966883299 0.0023154813544 0.0023345244898 0.0023540136735 0.0023739786555 0.0023945070561 0.0024156975 0.002437610172 
0.0024602751589 0.0024837032819 0.0025078813586 0.0025327416064 0.0025583158589 0.0025845011047 0.0026112261154 0.0026384027403 0.002078809276 
0.0020989464659 0.0021190000412 0.0021387323567 0.0021582038296 0.0021773972957 0.002196334078 0.0022150389528 0.0022335774386 0.0022520769562 
0.0022705906758 0.002289260391 0.0023082076725 0.0023275328357 0.0023474225981 0.0023678694256 0.0023889435542 0.00241072338 0.0024332338436 
0.0024564834276 0.0024804587919 0.0025050934034 0.002530415538 0.0025563317487 0.0025827629592 0.0026096358494 0.0020499621864 0.0020698654785 
0.0020896994493 0.0021092084569 0.0021284639161 0.0021474476735 0.0021661872167 0.0021847007045 0.0022030558213 0.0022213793996 0.0022397258751 
0.0022582332376 0.002277018768 0.0022961973845 0.0023159253051 0.0023361664692 0.0023570457586 0.0023786099476 0.0024008846698 0.0024238768749 
0.0024475735651 0.0024719075258 0.0024969080107 0.0025224840861 0.0025485563782 0.002575051246 0.0020182611705 0.0020379119167 0.002057501059 
0.0020767751101 0.002095801698 0.0021145763494 0.0021331044373 0.0021514392437 0.002169644731 0.0021877800831 0.0022059651713 0.0022243048483 
0.0022429118923 0.0022618966962 0.0022814318281 0.0023014148625 0.0023220388287 0.0023433202887 0.0023652915299 0.0023879566761 0.0024113020341 
0.0024352688491 0.0024598775497 0.0024850407118 0.0025106960294 0.0025367535757 0.0019854099698 0.0020047907143 0.0020240146658 0.0020431575545 
0.0020619621641 0.0020805314222 0.0020988813324 0.0021170437135 0.0021351216797 0.0021531269176 0.00217117927 0.0021893777584 0.002207820429 
0.0022266132623 0.0022459319637 0.0022656857206 0.0022859814379 0.002306935103 0.0023285460369 0.0023508232738 0.0023737586364 0.0023972949083 
0.0024214545721 0.0024461521683 0.0024713220167 0.0024968925897 0.0019529628661 0.001972057412 0.001991011415 0.0020099207994 0.0020285111846 
0.0020468964491 0.0020650948454 0.002083138649 0.0021011243222 0.0021190535518 0.0021370273709 0.0021551333975 0.0021734584716 0.0021920887717 
0.0022112023471 0.0022306908052 0.0022507216231 0.002271291586 0.0022925122655 0.0023143641799 0.0023368471627 0.0023599044015 0.0023835640451 
0.0024077456889 0.0024323849471 0.0024574118865 0.0019221772506 0.0019409798799 0.0019596683076 0.0019783490208 0.0019967362144 0.0020149611677 
0.0020330443573 0.0020510110213 0.0020689464858 0.0020868613482 0.0021048206048 0.0021229000296 0.0021411647234 0.0021596917504 0.0021786458633 
0.0021979119281 0.0022176527067 0.0022378945455 0.0022587036255 0.0022801122833 0.0023021136357 0.0023246557592 0.002347777811 0.002371401607 
0.0023954687143 0.0024199042999 0.0018939935298 0.0019125307845 0.0019309547977 0.001949374629 0.0019676179036 0.0019857070224 0.002003703994 
0.0020216327197 0.0020395758981 0.0020575155847 0.0020755299045 0.0020936472476 0.002111920848 0.002130409582 0.0021492691862 0.0021683692396 
0.002187864454 0.0022078163074 0.0022282421636 0.0022491998411 0.0022707127741 0.0022927273884 0.0023152887453 0.0023383277937 0.0023617894439 
0.0023856112653 0.0018691685012 0.0018874068223 0.0019055693382 0.0019237791728 0.001941855212 0.001959832508 0.0019777686686 0.0019957053609 
0.0020136915716 0.002031711708 0.0020498168097 0.0020680372706 0.0020863847961 0.0021049075752 0.0021237458363 0.0021427506604 0.0021620665885 
0.0021817616957 0.0022018716287 0.00222240266 0.0022434453513 0.002264937415 0.0022869334542 0.0023093750395 0.0023322167967 0.0023554036826 
0.0018481516761 0.0018660573744 0.0018840003277 0.0019018939622 0.0019199347742 0.001937821512 0.0019557278679 0.0019736943503 0.0019917582615 
0.0020098927791 0.0020281334399 0.0020464886778 0.0020649729017 0.0020835933944 0.0021023740954 0.0021214655736 0.0021406878827 0.0021601880285 
0.0021800272378 0.0022002395338 0.0022208181694 0.002241816159 0.0022632639596 0.0022851137094 0.00230733697 0.0023298790224 0.0018312665289 
0.0018488740244 0.0018665322206 0.0018842668315 0.0019021369283 0.0019199922533 0.0019378895276 0.0019559014865 0.0019740636993 0.0019923373292 
0.0020107427488 0.0020292721397 0.002047929526 0.0020666974295 0.0020855858084 0.0021047278524 0.0021239316697 0.0021433264296 0.002162971992 
0.0021829024015 0.0022031471937 0.0022236688374 0.0022446058854 0.0022658946797 0.0022875116467 0.0023094199187 0.001818675512 0.0018360162211 
0.001853436866 0.0018709847566 0.0018887442629 0.001906535655 0.0019244415721 0.0019425159666 0.001960787886 0.0019792121788 0.0019977953867 
0.0020165179003 0.0020353649977 0.0020543257406 0.0020733692021 0.0020926300921 0.0021118825381 0.0021312478008 0.0021507879143 0.0021705186039 
0.0021904759389 0.0022106580848 0.0022311148381 0.0022518877826 0.0022729376746 0.0022942381577 0.0018105175542 0.0018275693859 0.001844783566 
0.0018621302469 0.0018798164162 0.0018975659587 0.0019154869455 0.0019336337827 0.001952019975 0.0019705984447 0.0019893637366 0.0020082869985 
0.002027340052 0.0020464944116 0.0020657348354 0.0020851521801 0.0021045147636 0.0021239256811 0.0021434416393 0.0021630659646 0.0021828216635 
0.0022027195968 0.002222833694 0.0022431292536 0.0022636713235 0.0022844207019 0.0018068369815 0.0018235942339 0.0018405810964 0.0018577787371 
0.0018752498342 0.0018930675555 0.0019110571417 0.0019292739697 0.0019477747172 0.0019665024809 0.0019854441999 0.0020045620827 0.0020238209842 
0.0020431817367 0.0020626141985 0.002082227945 0.0021017388274 0.0021212726005 0.0021408084109 0.0021604039069 0.0021800583203 0.0021997651344 
0.0022196073963 0.0022395736254 0.0022596638441 0.0022799240914 0.0018074975878 0.001824010128 0.0018408146671 0.0018578802323 0.001875227396 
0.0018930653095 0.0019110977983 0.0019293887589 0.0019479992338 0.0019668650466 0.0019859690834 0.0020052672808 0.0020247188228 0.0020442744855 
0.0020639038295 0.0020836991211 0.0021033926832 0.002123067482 0.0021426947629 0.0021623385046 0.0021819723951 0.0022015843509 0.0022212534477 
0.0022409697178 0.0022607451978 0.0022805849289 0.0018123560116 0.0018286825588 0.0018453354373 0.0018622799215 0.0018795680094 0.0018973739632 
0.0019154138912 0.0019338318624 0.0019525439185 0.0019715335858 0.0019907763295 0.0020102321684 0.0020298531079 0.0020495877305 0.0020694010506 
0.0020892513787 0.0021092384879 0.0021290826165 0.002148841557 0.0021685791464 0.0021882608891 0.0022078608987 0.0022274517322 0.0022470173992 
0.0022665784568 0.0022861464786 0.001821145678 0.0018373085282 0.0018538439984 0.0018707261311 0.001887970657 0.0019057846665 0.0019238624985 
0.0019423302129 0.0019611244122 0.0019802315451 0.0019995938744 0.0020191788554 0.0020389389936 0.0020588207686 0.0020787886997 0.0020988001824 
0.0021189535106 0.0021389578518 0.0021588981023 0.0021787226254 0.002198501367 0.0022181602829 0.0022377561453 0.0022572721746 0.0022767217384 
0.0022961229945 0.0018334016639 0.0018494666592 0.0018659275619 0.0018827705439 0.0019000174998 0.0019176773743 0.0019359255058 0.0019544849839 
0.0019733496549 0.0019925219454 0.0020119687322 0.0020316601926 0.0020515206045 0.0020715101319 0.0020915950242 0.0021117299326 0.0021320229172 
0.0021521547391 0.002172247055 0.0021922059567 0.002212111977 0.0022318783596 0.002251551285 0.0022711048479 0.0022905443547 0.0023098887446 
0.0018484641449 0.0018644838273 0.0018809211 0.0018977657682 0.001915029508 0.0019327332046 0.0019510421708 0.0019695604105 0.0019885531729 
0.0020077644898 0.0020272622532 0.0020469900569 0.0020669041183 0.0020869677121 0.0021071214813 0.0021273411239 0.0021477260596 0.0021679635843 
0.0021881626915 0.0022082623824 0.0022283034212 0.0022482039078 0.0022680019414 0.0022876623076 0.0023071846409 0.0023265737152 0.0018654036709 
0.0018814445613 0.001897911355 0.0019147913686 0.0019320983449 0.0019498440095 0.0019682017341 0.0019867679875 0.0020057861069 0.0020250121266 
0.0020445217658 0.0020642566914 0.0020841723971 0.0021042293025 0.0021244031655 0.0021446438141 0.0021650745406 0.002185373083 0.0022056555473 
0.0022258914775 0.0022460181764 0.0022660612512 0.0022860087635 0.0023058216769 0.0023254907553 0.0023450155616 0.0018829927516 0.0018991573543 
0.0019156561196 0.0019326072378 0.0019499840669 0.0019677844566 0.0019861870899 0.0020047717033 0.002023710969 0.0020430102056 0.002062483068 
0.0020821637197 0.0021020255112 0.0021220223099 0.0021421396365 0.0021623416675 0.002182619573 0.0022030715965 0.0022233849616 0.0022436830562 
0.0022638787052 0.0022840654018 0.0023041650286 0.0023241517881 0.0023440102147 0.0023637358984 0.0018997149718 0.0019160168246 0.0019326384557 
0.0019496975022 0.0019671601902 0.0019850172189 0.0020032516884 0.0020220380834 0.0020409472075 0.0020601554983 0.0020795796241 0.0020991622265 
0.0021189008233 0.0021387713865 0.0021587649774 0.0021788553426 0.0021990269872 0.0022194197106 0.0022397160369 0.0022600249094 0.0022802776732 
0.0023005384263 0.0023207895718 0.0023409510051 0.0023610181018 0.0023809810309 0.0019139103371 0.001930393336 0.0019471643905 0.001964348523 
0.0019819030792 0.0019998141952 0.0020180621232 0.0020368319944 0.0020556742213 0.0020747758445 0.0020940621755 0.0021134790562 0.0021330325075 
0.0021527144067 0.002172511784 0.0021924025642 0.0022124053853 0.0022326639168 0.002252849505 0.0022731048992 0.0022934222372 0.0023136673559 
0.0023340045063 0.0023543332595 0.0023746015489 0.0023948076277 0.0019239351802 0.0019406131713 0.0019575541185 0.0019748644714 0.0019925064774 
0.0020104611215 0.0020287008628 0.0020474157754 0.0020661520974 0.0020850550555 0.0021041615085 0.0021233849445 0.0021426814408 0.00216209012 
0.0021816076729 0.0022012374733 0.0022209862858 0.0022410207917 0.0022610311142 0.0022811608952 0.002301399208 0.0023216351114 0.0023420326323 
0.002362457879 0.0023829139972 0.0024033477679 0.0019284246359 0.0019452775862 0.0019623747832 0.0019798098857 0.0019975230956 0.0020154939873 
0.0020336953902 0.0020523242763 0.0020709132099 0.0020896163586 0.0021084742148 0.0021273706835 0.0021463729915 0.0021654304801 0.0021845863738 
0.0022038595279 0.0022232757841 0.0022430148422 0.0022627684505 0.0022826922611 0.0023027928196 0.0023229541648 0.0023433358553 0.0023638235217 
0.0023843894264 0.0024050388249 0.0023306899251 0.0023527021144 0.002374620001 0.002396354701 0.0024179294218 0.0024393286188 0.0024605704535 
0.0024816812342 0.00250271395 0.0025237533075 0.002544846987 0.0025661050442 0.002587613137 0.0026095444182 0.0026319276599 0.0026548267087 
0.002678341732 0.002702527101 0.0027274170651 0.0027530247047 0.0027793470278 0.0028063244853 0.002833998536 0.002862272639 0.0028910995582 
0.0029204107608 0.0023136487013 0.0023354545132 0.0023572518512 0.0023788287856 0.0024002506652 0.0024215193217 0.0024426264386 0.0024636159935 
0.0024845392039 0.0025054833684 0.0025264940741 0.0025476826852 0.0025691330721 0.002590949622 0.0026133465106 0.0026361904617 0.0026596364973 
0.0026837380001 0.0027085232739 0.0027340058041 0.0027601787876 0.0027869837209 0.0028144582857 0.0028425279655 0.0028711196117 0.0029001649783 
0.0022921518868 0.0023137591622 0.0023353720629 0.0023567659082 0.0023780119075 0.0023991000935 0.0024200533 0.0024408906034 0.0024616639309 
0.002482480231 0.0025033677992 0.0025244417951 0.0025457981157 0.0025675142242 0.002589758221 0.0026125067094 0.0026358217014 0.0026597760049 
0.0026843939993 0.0027096874811 0.0027356496757 0.0027622232117 0.0027894472268 0.002817240749 0.0028455383584 0.0028742813029 0.0022671625807 
0.0022885459716 0.002309951218 0.0023311363253 0.0023521822181 0.0023730819215 0.0023938609888 0.0024145288102 0.0024351420548 0.0024558049731 
0.0024765464089 0.0024974771686 0.0025186882625 0.0025402723093 0.0025623656506 0.0025849201079 0.0026080492054 0.0026317967783 0.0026561880306 
0.0026812335063 0.0027069268618 0.0027332100132 0.0027601247365 0.0027875819742 0.0028155374591 0.0028439143809 0.0022398577356 0.0022610023895 
0.0022821778926 0.0023031442972 0.0023239799865 0.0023446859732 0.0023652704245 0.0023857766528 0.0024062313834 0.0024267437954 0.0024473387221 
0.0024681186224 0.0024891709787 0.0025105832783 0.0025325089202 0.0025548480449 0.0025777326767 0.0026012255601 0.0026253432152 0.0026500872711 
0.002675456082 0.0027013979225 0.0027279439545 0.0027550192985 0.0027825754592 0.002810537755 0.0022114773403 0.0022323685513 0.0022531954454 
0.0022740465616 0.0022946747155 0.0023151877954 0.0023356006125 0.0023559371586 0.0023762866071 0.0023966424162 0.0024171031594 0.0024377451723 
0.0024586436285 0.0024798826442 0.0025016155844 0.0025237445663 0.0025463563002 0.0025695627542 0.0025933610015 0.002617761913 0.0026427626526 
0.0026683142892 0.0026944497121 0.0027210959643 0.002748201678 0.0027757100547 0.0021832112081 0.0022038329112 0.002224408806 0.0022450428205 
0.0022654648632 0.0022857973731 0.0023060543242 0.0023262593428 0.0023464963122 0.0023667519876 0.0023871108489 0.0024076428283 0.0024284160713 
0.0024494980092 0.002471046261 0.0024929373626 0.0025153243991 0.0025381947812 0.0025616548657 0.002585684625 0.0026102872908 0.0026354129644 
0.0026610997268 0.0026872778954 0.002713899073 0.0027409080065 0.0021560739517 0.0021764259271 0.0021967512984 0.0022171691957 0.0022373953013 
0.002257562638 0.0022776864211 0.0022977864732 0.0023179350885 0.0023381316772 0.0023584301393 0.0023788933369 0.0023995769364 0.002420539199 
0.0024419295266 0.0024636162136 0.0024857465064 0.0025083344622 0.0025314376619 0.0025550843722 0.002579268265 0.0026039419855 0.0026291526074 
0.0026548330934 0.0026809386593 0.0027074104298 0.002130870873 0.0021509792755 0.0021710571948 0.0021912218734 0.0022113043547 0.0022313249969 
0.0022513386999 0.0022713632226 0.0022914637009 0.0023116247679 0.0023319131851 0.0023523530642 0.0023729906717 0.0023938751681 0.0024151492662 
0.0024366686839 0.002458571504 0.0024809049204 0.0025036745946 0.0025269303082 0.0025506921875 0.0025749079135 0.0025996278982 0.002624792439 
0.0026503600912 0.0026762808078 0.0021083004623 0.0021281290453 0.0021479670956 0.0021679301283 0.0021878423133 0.0022077340038 0.0022276543775 
0.0022476361804 0.0022677197528 0.0022878889135 0.0023081868271 0.0023286508305 0.0023492888729 0.0023701455046 0.0023913532447 0.0024127520033 
0.0024344722017 0.0024565668542 0.0024790575358 0.0025019390794 0.002525294414 0.0025490584981 0.0025732877358 0.0025979302754 0.0026229514098 
0.0026483104877 0.0020887999504 0.0021083255964 0.0021279565312 0.0021476107967 0.0021674817843 0.0021872616447 0.0022071144379 0.0022270715402 
0.0022471647667 0.0022673664789 0.0022877149564 0.0023082233586 0.0023289102752 0.0023497844998 0.0023708678545 0.0023923040927 0.0024139029316 
0.0024357975476 0.002458035184 0.0024806355032 0.0025035807458 0.0025269169998 0.0025506720942 0.002574801111 0.0025992833639 0.0026240764878 
0.0020726945294 0.0020919541569 0.0021113182747 0.0021308192885 0.0021505115625 0.0021702359686 0.002190038894 0.0022099848055 0.0022301066339 
0.0022503653402 0.0022707871397 0.0022913744209 0.0023121371363 0.0023330675419 0.0023541748076 0.0023755916637 0.0023971203405 0.0024188771996 
0.0024409170817 0.0024632518544 0.0024859010036 0.0025088151126 0.0025321269099 0.002555771046 0.0025797278696 0.0026039698098 0.0020601743689 
0.0020791895487 0.0020983339422 0.0021176533452 0.0021372252715 0.0021568597859 0.0021766291384 0.0021965802561 0.0022167405044 0.0022370687442 
0.0022575797497 0.0022782645162 0.0022991181547 0.0023201425276 0.002341310366 0.0023627604453 0.002384265785 0.0024059420938 0.0024278443141 
0.0024499687415 0.0024723445806 0.002494955535 0.0025178410747 0.0025410369533 0.0025645035378 0.0025882198273 0.0020513667048 0.0020701206097 
0.0020890607233 0.0021081993523 0.0021276865195 0.0021472518697 0.0021669936499 0.0021869608109 0.0022071675911 0.0022275717146 0.0022481788147 
0.0022689718585 0.0022899353549 0.0023110526427 0.0023323182105 0.0023538296189 0.0023753586289 0.0023970073033 0.0024188274339 0.0024408121223 
0.002462978597 0.0024853156218 0.0025078947592 0.0025306632418 0.0025536911721 0.0025769291139 0.0020463164871 0.002064805528 0.0020835499834 
0.0021025239243 0.0021217843054 0.002141389273 0.0021611570587 0.0021811395058 0.0022013956219 0.0022218761038 0.0022425790675 0.0022634798628 
0.0022845569646 0.0023057805728 0.002327143224 0.0023487525845 0.0023703351705 0.0023920198907 0.0024137824591 0.0024356845854 0.0024577094969 
0.0024798430658 0.0025021568198 0.0025246287395 0.0025472512165 0.0025700669212 0.0020448728338 0.0020631436878 0.0020817196771 0.0021005624444 
0.0021196821371 0.0021392759845 0.0021590459216 0.0021790499418 0.0021993548167 0.00221990542 0.0022406966383 0.0022616979884 0.0022828825857 
0.0023042148521 0.0023256750265 0.0023473707121 0.0023690390291 0.0023907706803 0.0024125403755 0.0024344121491 0.002456356398 0.0024783544951 
0.0025004764531 0.0025227024775 0.0025450355885 0.002567474763 0.0020468724596 0.0020649792807 0.0020834131007 0.0021021303616 0.002121172432 
0.0021407045652 0.002160438259 0.0021805191421 0.0022008687767 0.002221481078 0.0022423440258 0.0022634312578 0.0022847085648 0.0023061379444 
0.0023276969534 0.0023493539598 0.0023712230397 0.00239302887 0.0024148369794 0.0024367149769 0.0024586293801 0.00248055217 0.0025025507005 
0.0025246018038 0.0025467179337 0.0025689033922 0.0020520329341 0.0020699906871 0.0020883098882 0.0021069545939 0.0021259304004 0.0021454370951 
0.0021651670201 0.0021852493641 0.0022056285734 0.00222630214 0.0022472250416 0.002268378163 0.0022897272829 0.0023112316257 0.0023328681367 
0.0023546052606 0.0023765517086 0.0023984264585 0.0024203224817 0.0024421946934 0.0024641174231 0.0024860187615 0.0025079545804 0.0025299047867 
0.0025518780007 0.0025738842423 0.0020598950732 0.0020777584234 0.0020959962706 0.0021145839427 0.0021335340467 0.0021528504188 0.0021727083968 
0.0021928365195 0.0022132374868 0.0022339244778 0.0022548818171 0.0022760870498 0.0022974788298 0.0023190296051 0.0023407165787 0.0023625051759 
0.0023845134111 0.0024064305967 0.0024283914651 0.002450306028 0.0024722630746 0.0024941812783 0.0025161098705 0.0025380237972 0.0025599283278 
0.0025818329589 0.0020698504051 0.0020876569085 0.0021058546882 0.0021244144442 0.0021433457442 0.0021626661112 0.0021825422029 0.0022025964761 
0.0022230706369 0.0022437617695 0.002264716205 0.0022859130009 0.0023073114763 0.0023288860175 0.0023505905857 0.0023724007208 0.0023944346405 