# vtk DataFile Version 5.1
vtk output
ASCII
DATASET POLYDATA
POINTS 10449 double
103 -22 2.2104715587e-14 105.5 -22 2.2659825405e-14 103 -19.698863983 2.2061344112e-14 
103 -19.698863983 2.2061344112e-14 105.5 -22 2.2659825405e-14 105.5 -19.5 2.2612705771e-14 
103 -19.698863983 2.2061344112e-14 105.5 -19.5 2.2612705771e-14 103 -17.397727966 2.2017972637e-14 
103 -17.397727966 2.2017972637e-14 105.5 -19.5 2.2612705771e-14 103.625 -17 2.2149253773e-14 
103 -17.397727966 2.2017972637e-14 103.625 -17 2.2149253773e-14 101.875 -17 2.17606769e-14 
101.875 -17 2.17606769e-14 103.625 -17 2.2149253773e-14 103 -15.096590042 2.1974601126e-14 
101.875 -17 2.17606769e-14 103 -15.096590042 2.1974601126e-14 101.875 -14.65625 2.1716502243e-14 
101.875 -14.65625 2.1716502243e-14 103 -15.096590042 2.1974601126e-14 103.625 -14.65625 2.2105079116e-14 
101.875 -14.65625 2.1716502243e-14 103.625 -14.65625 2.2105079116e-14 103 -12.795454979 2.1931229669e-14 
103 -12.795454979 2.1931229669e-14 103.625 -14.65625 2.2105079116e-14 103.625 -12.3125 2.2060904458e-14 
103 -12.795454979 2.1931229669e-14 103.625 -12.3125 2.2060904458e-14 101.875 -12.3125 2.1672327586e-14 
101.875 -12.3125 2.1672327586e-14 103.625 -12.3125 2.2060904458e-14 103 -10.494318008 2.1887858176e-14 
101.875 -12.3125 2.1672327586e-14 103 -10.494318008 2.1887858176e-14 101.875 -9.96875 2.1628152928e-14 
101.875 -9.96875 2.1628152928e-14 103 -10.494318008 2.1887858176e-14 103.625 -9.96875 2.2016729801e-14 
101.875 -9.96875 2.1628152928e-14 103.625 -9.96875 2.2016729801e-14 103 -8.1931819916 2.1844486701e-14 
103 -8.1931819916 2.1844486701e-14 103.625 -9.96875 2.2016729801e-14 103.625 -7.625 2.1972555144e-14 
103 -8.1931819916 2.1844486701e-14 103.625 -7.625 2.1972555144e-14 101.875 -7.625 2.1583978271e-14 
101.875 -7.625 2.1583978271e-14 103.625 -7.625 2.1972555144e-14 103 -5.8920450211 2.1801115208e-14 
101.875 -7.625 2.1583978271e-14 103 -5.8920450211 2.1801115208e-14 101.875 -5.28125 2.1539803614e-14 
101.875 -5.28125 2.1539803614e-14 103 -5.8920450211 2.1801115208e-14 103.625 -5.28125 2.1928380487e-14 
101.875 -5.28125 2.1539803614e-14 103.625 -5.28125 2.1928380487e-14 103 -3.5909099579 2.1757743751e-14 
103 -3.5909099579 2.1757743751e-14 103.625 -5.28125 2.1928380487e-14 103.625 -2.9375 2.188420583e-14 
103 -3.5909099579 2.1757743751e-14 103.625 -2.9375 2.188420583e-14 101.875 -2.9375 2.1495628957e-14 
101.875 -2.9375 2.1495628957e-14 103.625 -2.9375 2.188420583e-14 103 1.0113635063 2.1671000773e-14 
101.875 -2.9375 2.1495628957e-14 103 1.0113635063 2.1671000773e-14 99.75 -1.3125 2.0993157849e-14 
99.75 -1.3125 2.0993157849e-14 103 1.0113635063 2.1671000773e-14 99.75 -2.1316282073e-14 2.0968420041e-14 
99.75 -2.1316282073e-14 2.0968420041e-14 103 1.0113635063 2.1671000773e-14 100.5 1.0113635063 2.1115890955e-14 
99.75 -2.1316282073e-14 2.0968420041e-14 100.5 1.0113635063 2.1115890955e-14 99.75 1.3125 2.0943682233e-14 
99.75 1.3125 2.0943682233e-14 100.5 1.0113635063 2.1115890955e-14 100.5 3.3125 2.1072519471e-14 
99.75 1.3125 2.0943682233e-14 100.5 3.3125 2.1072519471e-14 98 3.3125 2.0517409653e-14 
105.5 -19.5 2.2612705771e-14 105.5 -17 2.2565586136e-14 103.625 -17 2.2149253773e-14 
103.625 -17 2.2149253773e-14 103.625 -14.65625 2.2105079116e-14 103 -15.096590042 2.1974601126e-14 
103.625 -12.3125 2.2060904458e-14 103.625 -9.96875 2.2016729801e-14 103 -10.494318008 2.1887858176e-14 
103.625 -7.625 2.1972555144e-14 103.625 -5.28125 2.1928380487e-14 103 -5.8920450211 2.1801115208e-14 
105.5 -2.9375 2.2300538193e-14 105.5 -0.85416680574 2.2261271834e-14 103.625 -2.9375 2.188420583e-14 
103.625 -2.9375 2.188420583e-14 105.5 -0.85416680574 2.2261271834e-14 103 1.0113635063 2.1671000773e-14 
105.5 -0.85416680574 2.2261271834e-14 105.5 1.2291667461 2.2222005468e-14 103 1.0113635063 2.1671000773e-14 
103 1.0113635063 2.1671000773e-14 105.5 1.2291667461 2.2222005468e-14 103 3.3125 2.1627629289e-14 
103 1.0113635063 2.1671000773e-14 103 3.3125 2.1627629289e-14 100.5 3.3125 2.1072519471e-14 
105.5 1.2291667461 2.2222005468e-14 105.5 3.3125 2.2182739108e-14 103 3.3125 2.1627629289e-14 
99.75 1.3125 2.0943682233e-14 98 3.3125 2.0517409653e-14 97.259025574 1.3125 2.0390576489e-14 
97.259025574 1.3125 2.0390576489e-14 98 3.3125 2.0517409653e-14 95.5 3.3125 1.9962299835e-14 
97.259025574 1.3125 2.0390576489e-14 95.5 3.3125 1.9962299835e-14 94.768074036 1.3125 1.9837475827e-14 
94.768074036 1.3125 1.9837475827e-14 95.5 3.3125 1.9962299835e-14 93 3.3125 1.9407190016e-14 
94.768074036 1.3125 1.9837475827e-14 93 3.3125 1.9407190016e-14 92.277099609 1.3125 1.9284370082e-14 
92.277099609 1.3125 1.9284370082e-14 93 3.3125 1.9407190016e-14 90.5 3.3125 1.8852080198e-14 
92.277099609 1.3125 1.9284370082e-14 90.5 3.3125 1.8852080198e-14 89.786148071 1.3125 1.873126942e-14 
89.786148071 1.3125 1.873126942e-14 90.5 3.3125 1.8852080198e-14 88 3.3125 1.829697038e-14 
89.786148071 1.3125 1.873126942e-14 88 3.3125 1.829697038e-14 87.295173645 1.3125 1.8178163675e-14 
87.295173645 1.3125 1.8178163675e-14 88 3.3125 1.829697038e-14 85.5 3.3125 1.7741860562e-14 
87.295173645 1.3125 1.8178163675e-14 85.5 3.3125 1.7741860562e-14 84.804222107 1.3125 1.7625063013e-14 
84.804222107 1.3125 1.7625063013e-14 85.5 3.3125 1.7741860562e-14 83 3.3125 1.7186750743e-14 
84.804222107 1.3125 1.7625063013e-14 83 3.3125 1.7186750743e-14 82.313247681 1.3125 1.7071957269e-14 
82.313247681 1.3125 1.7071957269e-14 83 3.3125 1.7186750743e-14 80.5 3.3125 1.6631640925e-14 
82.313247681 1.3125 1.7071957269e-14 80.5 3.3125 1.6631640925e-14 79.822303772 1.3125 1.6518858301e-14 
79.822303772 1.3125 1.6518858301e-14 80.5 3.3125 1.6631640925e-14 78 3.3125 1.6076531107e-14 
79.822303772 1.3125 1.6518858301e-14 78 3.3125 1.6076531107e-14 77.331321716 1.3125 1.5965750862e-14 
77.331321716 1.3125 1.5965750862e-14 78 3.3125 1.6076531107e-14 75.5 3.3125 1.5521421289e-14 
77.331321716 1.3125 1.5965750862e-14 75.5 3.3125 1.5521421289e-14 74.840377808 1.3125 1.5412651894e-14 
74.840377808 1.3125 1.5412651894e-14 75.5 3.3125 1.5521421289e-14 73 3.3125 1.496631147e-14 
74.840377808 1.3125 1.5412651894e-14 73 3.3125 1.496631147e-14 72.349403381 1.3125 1.485954615e-14 
72.349403381 1.3125 1.485954615e-14 73 3.3125 1.496631147e-14 70.5 3.3125 1.4411201652e-14 
72.349403381 1.3125 1.485954615e-14 70.5 3.3125 1.4411201652e-14 69.858421326 1.3125 1.4306438711e-14 
69.858421326 1.3125 1.4306438711e-14 70.5 3.3125 1.4411201652e-14 68 3.3125 1.3856091834e-14 
69.858421326 1.3125 1.4306438711e-14 68 3.3125 1.3856091834e-14 67.367477417 1.3125 1.3753339743e-14 
67.367477417 1.3125 1.3753339743e-14 68 3.3125 1.3856091834e-14 65.5 3.3125 1.3300982016e-14 
67.367477417 1.3125 1.3753339743e-14 65.5 3.3125 1.3300982016e-14 64.876502991 1.3125 1.3200233999e-14 
64.876502991 1.3125 1.3200233999e-14 65.5 3.3125 1.3300982016e-14 63 3.3125 1.2745872198e-14 
64.876502991 1.3125 1.3200233999e-14 63 3.3125 1.2745872198e-14 62.385551453 1.3125 1.2647133336e-14 
62.385551453 1.3125 1.2647133336e-14 63 3.3125 1.2745872198e-14 60.5 3.3125 1.2190762379e-14 
62.385551453 1.3125 1.2647133336e-14 60.5 3.3125 1.2190762379e-14 59.894573212 1.3125 1.2094026745e-14 
59.894573212 1.3125 1.2094026745e-14 60.5 3.3125 1.2190762379e-14 58 3.3125 1.1635652561e-14 
59.894573212 1.3125 1.2094026745e-14 58 3.3125 1.1635652561e-14 57.403625488 1.3125 1.154092693e-14 
57.403625488 1.3125 1.154092693e-14 58 3.3125 1.1635652561e-14 55.5 3.3125 1.1080542743e-14 
57.403625488 1.3125 1.154092693e-14 55.5 3.3125 1.1080542743e-14 54.912651062 1.3125 1.0987821185e-14 
54.912651062 1.3125 1.0987821185e-14 55.5 3.3125 1.1080542743e-14 53 3.3125 1.0525432925e-14 
54.912651062 1.3125 1.0987821185e-14 53 3.3125 1.0525432925e-14 52.421672821 1.3125 1.0434714594e-14 
52.421672821 1.3125 1.0434714594e-14 53 3.3125 1.0525432925e-14 50.5 3.3125 9.9703231063e-15 
52.421672821 1.3125 1.0434714594e-14 50.5 3.3125 9.9703231063e-15 49.930725098 1.3125 9.8816147787e-15 
49.930725098 1.3125 9.8816147787e-15 50.5 3.3125 9.9703231063e-15 48 3.3125 9.415213288e-15 
49.930725098 1.3125 9.8816147787e-15 48 3.3125 9.415213288e-15 47.439750671 1.3125 9.3285090343e-15 
47.439750671 1.3125 9.3285090343e-15 48 3.3125 9.415213288e-15 45.5 3.3125 8.8601034698e-15 
47.439750671 1.3125 9.3285090343e-15 45.5 3.3125 8.8601034698e-15 44.948799133 1.3125 8.775408372e-15 
44.948799133 1.3125 8.775408372e-15 45.5 3.3125 8.8601034698e-15 43 3.3125 8.3049936515e-15 
44.948799133 1.3125 8.775408372e-15 43 3.3125 8.3049936515e-15 42.457824707 1.3125 8.2223026276e-15 
42.457824707 1.3125 8.2223026276e-15 43 3.3125 8.3049936515e-15 40.5 3.3125 7.7498838333e-15 
42.457824707 1.3125 8.2223026276e-15 40.5 3.3125 7.7498838333e-15 39.966876984 1.3125 7.6692028124e-15 
39.966876984 1.3125 7.6692028124e-15 40.5 3.3125 7.7498838333e-15 38 3.3125 7.194774015e-15 
39.966876984 1.3125 7.6692028124e-15 38 3.3125 7.194774015e-15 37.475898743 1.3125 7.116096221e-15 
37.475898743 1.3125 7.116096221e-15 38 3.3125 7.194774015e-15 35.5 3.3125 6.6396641968e-15 
37.475898743 1.3125 7.116096221e-15 35.5 3.3125 6.6396641968e-15 34.984947205 1.3125 6.5629955588e-15 
34.984947205 1.3125 6.5629955588e-15 35.5 3.3125 6.6396641968e-15 33 3.3125 6.0845543786e-15 
34.984947205 1.3125 6.5629955588e-15 33 3.3125 6.0845543786e-15 32.493976593 1.3125 6.0098906614e-15 
32.493976593 1.3125 6.0098906614e-15 33 3.3125 6.0845543786e-15 30.5 3.3125 5.5294445603e-15 
32.493976593 1.3125 6.0098906614e-15 30.5 3.3125 5.5294445603e-15 30.003000259 1.3125 5.4567844935e-15 
30.003000259 1.3125 5.4567844935e-15 30.5 3.3125 5.5294445603e-15 28 3.3125 4.9743347421e-15 
30.003000259 1.3125 5.4567844935e-15 28 3.3125 4.9743347421e-15 27.512050629 1.3125 4.9036842548e-15 
27.512050629 1.3125 4.9036842548e-15 28 3.3125 4.9743347421e-15 25.5 3.3125 4.4192249238e-15 
27.512050629 1.3125 4.9036842548e-15 25.5 3.3125 4.4192249238e-15 25.021076202 1.3125 4.3505785103e-15 
25.021076202 1.3125 4.3505785103e-15 25.5 3.3125 4.4192249238e-15 23 3.3125 3.8641151056e-15 
[...]
CELL_DATA 3483
FIELD FieldData 4
electrode_index 1 3483 int
0 0 0 0 0 0 0 0 0 
0 0 0 0 0 0 0 0 0 
0 0 0 0 0 0 0 0 0 
0 0 0 0 0 0 0 0 0 
0 0 0 0 0 0 0 0 0 
0 0 0 0 0 0 0 0 0 
0 0 0 0 0 0 0 0 0 
0 0 0 0 0 0 0 0 0 
0 0 0 0 0 0 0 0 0 
0 0 0 0 0 0 0 0 0 
0 0 0 0 0 0 0 0 0 
0 0 0 0 0 0 0 0 0 
0 0 0 0 0 0 0 0 0 
0 0 0 0 0 0 0 0 0 
0 0 0 0 0 0 0 0 0 
0 0 0 0 0 0 0 0 0 
0 0 0 0 0 0 0 0 0 
0 0 0 0 0 0 0 0 0 
0 0 0 0 0 0 0 0 0 
0 0 0 0 0 0 0 0 0 
0 0 0 0 0 0 0 0 0 
0 0 0 0 0 0 0 0 0 
0 0 0 0 0 0 0 0 0 
0 0 0 0 0 0 0 0 0 
0 0 0 0 0 0 0 0 0 
0 0 0 0 0 0 0 0 0 
0 0 0 0 0 0 0 0 0 
0 0 0 0 0 0 0 0 0 
0 0 0 0 0 0 0 0 0 
0 0 0 0 0 0 0 0 0 
0 0 0 0 0 0 0 0 0 
0 0 0 0 0 0 0 0 0 
0 0 0 0 0 0 0 0 0 
0 0 0 0 0 0 0 0 0 
0 0 0 0 0 0 0 0 0 
0 0 0 0 0 0 0 0 0 
0 0 0 0 0 0 0 0 0 
0 0 0 0 0 0 0 0 0 
0 0 0 0 0 0 0 0 0 
0 0 0 0 0 0 0 0 0 
0 0 0 0 0 0 0 0 0 
0 0 0 0 0 0 0 0 0 
0 0 1 1 1 1 1 1 1 
1 1 1 1 1 1 1 1 1 
1 1 1 1 1 1 1 1 1 
1 1 1 1 1 1 1 1 1 
1 1 1 1 1 1 1 1 1 
1 1 1 1 1 1 1 1 1 
1 1 1 1 1 1 1 1 1 
1 1 1 1 1 1 1 1 1 
1 1 1 1 1 1 1 1 1 
1 1 1 1 1 1 1 1 1 
1 1 1 1 1 1 1 1 1 
1 1 1 1 1 1 1 1 1 
1 1 1 1 1 1 1 1 1 
1 1 1 1 1 1 1 1 1 
1 1 1 1 1 1 1 1 1 
1 1 1 1 1 1 1 1 1 
1 1 1 1 1 1 1 1 1 
1 1 1 1 1 1 1 1 1 
1 1 1 1 1 1 1 1 1 
1 1 1 1 1 1 1 1 1 
1 1 1 1 1 1 1 1 1 
1 1 1 1 1 1 1 1 1 
1 1 1 1 1 1 1 1 1 
1 1 1 1 1 1 1 1 1 
1 1 1 1 1 1 1 1 2 
2 2 2 2 2 2 2 2 2 
2 2 2 2 2 2 2 2 2 
2 2 2 2 2 2 2 2 2 
2 2 2 2 2 2 2 2 2 
2 2 2 2 2 2 2 2 2 
2 2 2 2 2 2 2 2 2 
2 2 2 2 2 2 2 2 2 
2 2 2 2 2 2 2 2 2 
2 2 2 2 2 2 2 2 2 
2 2 2 2 2 2 2 2 2 
2 2 2 2 2 2 2 2 2 
2 2 2 2 2 2 2 2 2 
2 2 2 2 2 2 2 2 2 
2 2 2 2 2 2 2 2 2 
2 2 2 2 2 2 2 2 2 
2 2 2 2 2 2 2 2 2 
2 2 2 2 2 2 2 2 2 
2 2 2 2 2 2 2 2 2 
2 2 2 2 2 2 2 2 2 
2 2 2 2 2 2 2 2 2 
2 2 2 2 2 2 2 2 2 
2 2 2 2 2 2 2 2 2 
2 2 2 2 2 2 2 2 2 
2 2 2 2 2 2 2 2 2 
2 3 3 3 3 3 3 3 3 
3 3 3 3 3 3 3 3 3 
3 3 3 3 3 3 3 3 3 
3 3 3 3 3 3 3 3 3 
3 3 3 3 3 3 3 3 3 
3 3 3 3 3 3 3 3 3 
3 3 3 3 3 3 3 3 3 
3 3 3 3 3 3 3 3 3 
3 3 3 3 3 3 3 3 3 
3 3 3 3 3 3 3 3 3 
3 3 3 3 3 3 3 3 3 
3 3 3 3 3 3 3 3 3 
3 3 3 3 3 3 3 3 3 
3 3 3 3 3 3 3 3 3 
3 3 3 3 3 3 3 3 3 
3 3 3 3 3 3 3 3 3 
3 3 3 3 3 3 3 3 3 
3 3 3 3 3 3 3 4 4 
4 4 4 4 4 4 4 4 4 
4 4 4 4 4 4 4 4 4 
4 4 4 4 4 4 4 4 4 
4 4 4 4 4 4 4 4 4 
4 4 4 4 4 4 4 4 4 
4 4 4 4 4 4 4 4 4 
4 4 4 4 4 4 4 4 4 
4 4 4 4 4 4 4 4 4 
4 4 4 4 4 4 4 4 4 
4 4 4 4 4 4 4 4 4 
4 4 4 4 4 4 4 4 4 
4 4 4 4 4 4 4 4 4 
4 4 4 4 4 4 4 4 4 
4 4 4 4 4 4 4 4 4 
4 4 4 4 4 4 4 4 4 
4 4 4 4 4 4 4 4 4 
5 5 5 5 5 5 5 5 5 
5 5 5 5 5 5 5 5 5 
5 5 5 5 5 5 5 5 5 
5 5 5 5 5 5 5 5 5 
5 5 5 5 5 5 5 5 5 
5 5 5 5 5 5 5 5 5 
5 5 5 5 5 5 5 5 5 
5 5 5 5 5 5 5 5 5 
5 5 5 5 5 5 5 5 5 
5 5 5 5 5 5 5 5 5 
5 5 5 5 5 5 5 5 5 
5 5 5 5 5 5 5 5 5 
5 5 5 5 5 5 5 5 5 
5 5 5 5 5 5 5 5 5 
5 6 6 6 6 6 6 6 6 
6 6 6 6 6 6 6 6 6 
6 6 6 6 6 6 6 6 6 
6 6 6 6 6 6 6 6 6 
6 6 6 6 6 6 6 6 6 
6 6 6 6 6 6 6 6 6 
6 6 6 6 6 6 6 6 6 
6 6 6 6 6 6 6 6 6 
6 6 6 6 6 6 6 6 6 
6 6 6 6 6 6 6 6 6 
6 6 6 6 6 6 6 6 6 
6 6 6 6 6 6 6 6 6 
6 6 6 6 6 6 6 6 6 
6 6 6 6 6 6 6 6 6 
6 6 6 6 6 6 6 6 6 
6 6 6 6 6 7 7 7 7 
7 7 7 7 7 7 7 7 7 
7 7 7 7 7 7 7 7 7 
7 7 7 7 7 7 7 7 7 
7 7 7 7 7 7 7 7 7 
7 7 7 7 7 7 7 7 7 
7 7 7 7 7 7 7 7 7 
7 7 7 7 7 7 7 7 7 
7 7 7 7 7 7 7 7 7 
7 7 7 7 7 7 7 7 7 
7 7 7 7 7 7 7 7 7 
7 7 7 7 7 7 7 7 7 
7 7 7 7 7 7 7 7 7 
7 7 7 7 7 7 7 7 7 
7 7 7 7 7 7 7 7 7 
7 7 7 7 7 7 7 7 7 
7 7 7 7 7 7 7 7 7 
7 7 7 7 7 7 7 7 7 
7 7 7 7 7 7 7 7 7 
7 7 7 7 7 7 7 7 8 
8 8 8 8 8 8 8 8 8 
8 8 8 8 8 8 8 8 8 
8 8 8 8 8 8 8 8 8 
8 8 8 8 8 8 8 8 8 
8 8 8 8 8 8 8 8 8 
8 8 8 8 8 8 8 8 8 
8 8 8 8 8 8 8 8 8 
8 8 8 8 8 8 8 8 8 
8 8 8 8 8 8 8 8 8 
8 8 8 8 8 8 8 8 8 
8 8 8 8 8 8 8 8 8 
8 8 8 8 8 8 8 8 8 
8 8 8 8 8 8 8 8 8 
8 8 8 8 8 8 8 8 8 
8 8 8 8 8 8 8 8 8 
8 8 8 8 8 8 8 8 8 
8 8 8 8 8 8 8 8 8 
8 8 8 8 8 8 8 8 8 
8 8 9 9 9 9 9 9 9 
9 9 9 9 9 9 9 9 9 
9 9 9 9 9 9 9 9 9 
9 9 9 9 9 9 9 9 9 
9 9 9 9 9 9 9 9 9 
9 9 9 9 9 9 9 9 9 
9 9 9 9 9 9 9 9 9 
9 9 9 9 9 9 9 9 9 
9 9 9 9 9 9 9 9 9 
9 9 9 9 9 9 9 9 9 
9 9 9 9 9 9 9 9 9 
9 9 9 9 9 9 9 9 9 
9 9 9 9 9 9 9 10 10 
10 10 10 10 10 10 10 10 10 
10 10 10 10 10 10 10 10 10 
10 10 10 10 10 10 10 10 10 
10 10 10 10 10 10 10 10 10 
10 10 10 10 10 10 10 10 10 
10 10 10 10 10 10 10 10 10 
10 10 10 10 10 10 10 10 10 
10 10 10 10 10 10 10 10 10 
10 10 10 10 10 10 10 10 10 
10 10 10 10 10 10 10 10 10 
10 10 10 10 10 10 10 10 10 
10 10 10 10 10 10 10 10 10 
10 10 10 10 10 10 10 10 10 
10 10 10 10 10 10 10 11 11 
11 11 11 11 11 11 11 11 11 
11 11 11 11 11 11 11 11 11 
11 11 11 11 11 11 11 11 11 
11 11 11 11 11 11 11 11 11 
11 11 11 11 11 11 11 11 11 
11 11 11 11 11 11 11 11 11 
11 11 11 11 11 11 11 11 11 
11 11 11 11 11 11 11 11 11 
11 11 11 11 11 11 11 11 11 
11 11 11 11 11 11 11 11 11 
11 11 11 11 11 11 11 11 11 
11 11 11 11 11 11 11 11 11 
11 11 11 11 11 11 11 11 11 
11 11 11 11 11 11 11 11 11 
11 11 11 11 11 12 12 12 12 
12 12 12 12 12 12 12 12 12 
12 12 12 12 12 12 12 12 12 
12 12 12 12 12 12 12 12 12 
12 12 12 12 12 12 12 12 12 
12 12 12 12 12 12 12 12 12 
12 12 12 12 12 12 12 12 12 
12 12 12 12 12 12 12 12 12 
12 12 12 12 12 12 12 12 12 
12 12 12 12 12 12 12 12 12 
12 12 12 12 12 12 12 12 12 
12 12 12 12 12 12 12 12 12 
12 12 12 12 12 12 12 12 12 
12 12 12 12 12 12 12 12 12 
12 12 12 12 12 12 12 12 12 
12 12 12 12 12 12 12 12 12 
12 12 12 12 12 12 12 12 12 
12 12 12 12 12 12 12 12 12 
12 12 12 12 12 12 12 12 12 
12 12 12 12 12 12 12 12 12 
12 12 12 12 12 12 12 12 12 
12 12 12 12 12 12 12 12 12 
12 12 12 12 13 13 13 13 13 
13 13 13 13 13 13 13 13 13 
13 13 13 13 13 13 13 13 13 
13 13 13 13 13 13 13 13 13 
13 13 13 13 13 13 13 13 13 
13 13 13 13 13 13 13 13 13 
13 13 13 13 13 13 13 13 13 
13 13 13 13 13 13 13 13 13 
13 13 13 13 13 13 13 13 13 
13 13 13 13 13 13 13 13 13 
13 13 13 13 13 13 13 13 13 
13 13 13 13 13 13 13 13 13 
13 13 13 13 13 13 13 13 13 
13 13 13 13 13 13 13 13 13 
13 13 13 13 13 13 13 13 13 
13 13 13 13 13 13 13 13 14 
14 14 14 14 14 14 14 14 14 
14 14 14 14 14 14 14 14 14 
14 14 14 14 14 14 14 14 14 
14 14 14 14 14 14 14 14 14 
14 14 14 14 14 14 14 14 14 
14 14 14 14 14 14 14 14 14 
14 14 14 14 14 14 14 14 14 
14 14 14 14 14 14 14 14 14 
14 14 14 14 14 14 14 14 14 
14 14 14 14 14 14 14 14 14 
14 14 14 14 14 14 14 14 14 
14 14 14 14 14 14 14 14 14 
14 14 14 14 14 14 14 14 14 
14 14 14 14 14 14 14 14 14 
14 14 14 14 14 14 14 14 14 
14 14 14 14 14 14 14 14 14 
14 14 14 14 14 14 14 15 15 
15 15 15 15 15 15 15 15 15 
15 15 15 15 15 15 15 15 15 
15 15 15 15 15 15 15 15 15 
15 15 15 15 15 15 15 15 15 
15 15 15 15 15 15 15 15 15 
15 15 15 15 15 15 15 15 15 
15 15 15 15 15 15 15 15 15 
15 15 15 15 15 15 15 15 15 
15 15 15 15 15 15 15 15 15 
15 15 15 15 15 15 15 15 15 
15 15 15 15 15 15 15 15 15 
15 15 15 15 15 15 15 15 15 
15 15 15 15 15 15 15 15 15 
15 15 15 15 15 15 15 15 15 
15 15 15 15 15 15 15 15 15 
16 16 16 16 16 16 16 16 16 
16 16 16 16 16 16 16 16 16 
16 16 16 16 16 16 16 16 16 
16 16 16 16 16 16 16 16 16 
16 16 16 16 16 16 16 16 16 
16 16 16 16 16 16 16 16 16 
16 16 16 16 16 16 16 16 16 
16 16 16 16 16 16 16 16 16 
16 16 16 16 16 16 16 16 16 
16 16 16 16 16 16 16 16 16 
16 16 16 16 16 16 16 16 16 
16 16 16 16 16 16 16 16 16 
16 16 16 16 16 16 16 16 16 
16 16 16 16 16 16 16 16 16 
16 16 16 16 16 16 16 16 16 
16 16 16 16 16 16 16 17 17 
17 17 17 17 17 17 17 17 17 
17 17 17 17 17 17 17 17 17 
17 17 17 17 17 17 17 17 17 
17 17 17 17 17 17 17 17 17 
17 17 17 17 17 17 17 17 17 
17 17 17 17 17 17 17 17 17 
17 17 17 17 17 17 17 17 17 
17 17 17 17 17 17 17 17 17 
17 17 17 17 17 17 17 17 17 
17 17 17 17 17 17 17 17 17 
17 17 17 17 17 17 17 17 17 
17 17 17 17 17 17 17 17 17 
17 17 17 17 17 17 17 17 17 
17 17 17 17 17 17 17 17 17 
17 17 17 17 17 17 17 17 18 
18 18 18 18 18 18 18 18 18 
18 18 18 18 18 18 18 18 18 
18 18 18 18 18 18 18 18 18 
18 18 18 18 18 18 18 18 18 
18 18 18 18 18 18 18 18 18 
18 18 18 18 18 18 18 18 18 
18 18 18 18 18 18 18 18 18 
18 18 18 18 18 18 18 18 18 
18 18 18 18 18 18 18 18 18 
18 18 18 18 18 18 18 18 18 
18 18 18 18 18 18 18 18 18 
18 18 18 18 18 18 18 18 18 
18 18 18 18 18 18 19 19 19 
19 19 19 19 19 19 19 19 19 
19 19 19 19 19 19 19 19 19 
19 19 19 19 19 19 19 19 19 
19 19 19 19 19 19 19 19 19 
19 19 19 19 19 19 19 19 19 
19 19 19 19 19 19 19 19 19 
19 19 19 19 19 19 19 19 19 
19 19 19 19 19 19 19 19 19 
19 19 19 19 19 19 19 19 19 
19 19 19 19 19 19 19 19 19 
19 19 19 19 19 19 19 19 19 
19 19 19 19 19 19 19 19 19 
19 19 19 19 19 19 19 19 19 
19 19 19 19 19 19 19 19 19 
19 19 19 19 19 19 19 19 19 
19 19 19 19 19 19 19 19 19 
20 20 20 20 20 20 20 20 20 
20 20 20 20 20 20 20 20 20 
20 20 20 20 20 20 20 20 20 
20 20 20 20 20 20 20 20 20 
20 20 20 20 20 20 20 20 20 
20 20 20 20 20 20 20 20 20 
20 20 20 20 20 20 20 20 20 
20 20 20 20 20 20 20 20 20 
20 20 20 20 20 20 20 20 20 
20 20 20 20 20 20 20 20 20 
20 20 20 20 20 20 20 20 20 
21 21 21 21 21 21 21 21 21 
21 21 21 21 21 21 21 21 21 
21 21 21 21 21 21 21 21 21 
21 21 21 21 21 21 21 21 21 
21 21 21 21 21 21 21 21 21 
21 21 21 21 21 21 21 21 21 
21 21 21 21 21 21 21 21 21 
21 21 21 21 21 21 21 21 21 
21 21 21 21 21 21 21 21 21 
21 21 21 21 21 21 21 21 21 
21 21 21 21 21 21 21 21 21 
21 21 21 21 21 21 21 21 21 
21 21 21 21 21 21 21 21 21 

area 1 3483 double
2.8764200211 3.125 2.8764200211 1.1541199684 0.34801197052 1.6654837132 1.318359375 0.38529753685 1.6281956434 
0.732421875 0.42258560658 1.5909092426 1.318359375 0.45987200737 1.5536220074 0.732421875 0.49715924263 1.5163356066 
1.318359375 0.53444564342 1.4790475368 0.732421875 0.57173371315 3.455255568 5.1097299755 2.1328125 1.2642043829 
0.4921875 0.86292618513 2.5 2.34375 0.732421875 0.732421875 0.732421875 1.9531248696 4.3531011604 
2.6041669399 2.8764206171 2.8764206171 2.6041665673 2.4909744263 2.5 2.4909515381 2.5 2.4909744263 
2.5 2.4909515381 2.5 2.4909744263 2.5 2.4909515381 2.5 2.4909744263 2.5 
2.4909439087 2.5 2.4909820557 2.5 2.4909439087 2.5 2.4909744263 2.5 2.4909820557 
2.5 2.4909439087 2.5 2.4909744263 2.5 2.4909515381 2.5 2.490978241 2.5 
2.4909477234 2.5 2.4909744263 2.5 2.490978241 2.5 2.4909477234 2.5 2.4909744263 
2.5 2.4909515381 2.5 2.4909744263 2.5 2.4909477234 2.5 2.490978241 2.5 
2.4909515381 2.5 2.4909706116 2.5 2.4909763336 2.5 2.4909496307 2.5 2.4909744263 
2.5 2.4909572601 2.5 2.4909610748 2.5 2.4909667969 2.5 2.4909610748 2.5 
2.4909648895 2.5 2.4909629822 2.5 2.4909644127 2.5 2.4909653664 2.5 2.4909625053 
2.5 2.49096407 2.5 2.4909640402 2.5 2.4909641743 2.5 2.4909625053 2.5 
2.4909653664 2.5 2.4909639359 2.5 2.4909629822 2.5 2.4909629822 2.5 2.4909648895 
2.5 2.4909648895 2.5 2.4909610748 2.5 2.4909591675 2.5 2.4909744263 2.5 
2.4909515381 2.5 2.4909744263 2.5 2.4909477234 2.5 2.490978241 2.5 2.4909706116 
2.5 2.4909515381 2.5 2.490978241 2.5 2.4909477234 2.5 2.4909744263 2.5 
2.4909515381 2.5 2.4909744263 2.5 2.4909477234 2.5 2.490978241 2.5 2.4909744263 
2.5 2.4909515381 2.5 2.4909744263 2.5 2.4909515381 2.5 2.4909744263 2.5 
2.4909439087 2.5 2.4909820557 2.5 2.4909744263 2.5 2.4909439087 2.5 2.4909820557 
2.5 2.4909439087 2.5 2.4909744263 2.5 2.4909515381 2.5 2.4909744263 2.5 
2.4909515381 2.5 2.4909744263 2.5 2.4909439087 2.5 2.4909820557 2.0447201729 2.0239167213 
2.0446953773 2.0238981247 2.044713974 2.0239167213 2.044713974 2.0238981247 2.0447015762 2.0239167213 2.0447201729 
2.0238981247 2.044713974 2.0239167213 2.0446953773 2.0238919258 2.0447201729 2.0239229202 2.0446953773 2.0238919258 
2.0447201729 2.0239167213 2.044713974 2.0239229202 2.0447201729 2.0238919258 2.0446953773 2.0239167213 2.044713974 
2.0238981247 2.0447015762 2.0239198208 2.044713974 2.0238950253 2.0447170734 2.0239167213 2.0446984768 2.0239198208 
2.044713974 2.0238950253 2.0447201729 2.0239167213 2.0446953773 2.0238981247 2.0447170734 2.0239167213 2.0447201729 
2.0238950253 2.0446953773 2.0239198208 2.0447170734 2.0238981247 2.0447170734 2.0239136219 2.0446953773 2.0239182711 
2.0447201729 2.023896575 2.0447155237 2.0239167213 2.0447000265 2.0239027739 2.0447093248 2.0239058733 2.0447124243 
2.0239105225 2.0447077751 2.0239058733 2.0447093248 2.0239089727 2.0447116494 2.023907423 2.0447108746 2.0239085853 
2.0447093248 2.0239093602 2.0447110683 2.0239070356 2.0447094217 2.0239083068 2.0447100997 2.0239082826 2.0447096154 
2.0239083916 2.0447110683 2.0239070356 2.04470855 2.0239093602 2.0447116494 2.0239081979 2.04470855 2.023907423 
2.0447108746 2.023907423 2.0447124243 2.0239089727 2.0447093248 2.0239089727 2.0447077751 2.0239058733 2.0447077751 
2.0239043236 2.0447170734 2.0239167213 2.0446969271 2.0238981247 2.0447155237 2.0239167213 2.0447201729 2.0238950253 
2.0446953773 2.0239198208 2.0447170734 2.0239136219 2.0447170734 2.0238981247 2.0446953773 2.0239198208 2.0447201729 
2.0238950253 2.0447170734 2.0239167213 2.0446953773 2.0238981247 2.0447201729 2.0239167213 2.044713974 2.0238950253 
2.0446984768 2.0239198208 2.0447170734 2.0239167213 2.044713974 2.0238981247 2.0447015762 2.0239167213 2.044713974 
2.0238981247 2.0446953773 2.0239167213 2.0447201729 2.0238919258 2.044713974 2.0239229202 2.0447201729 2.0239167213 
2.0446953773 2.0238919258 2.0447201729 2.0239229202 2.0446953773 2.0238919258 2.044713974 2.0239167213 2.0447201729 
2.0238981247 2.0447015762 2.0239167213 2.044713974 2.0238981247 2.044713974 2.0239167213 2.0446953773 2.0238919258 
2.0447201729 2.0239229202 1.318359375 1.318359375 1.318359375 1.71875 1.6796879768 2.8764200211 3.125 
2.8764200211 2.8764206171 1.5500708669 2.0239973068 2.0361471176 2.0240035057 2.0361409187 2.0239973068 2.0361471176 
2.0239973068 2.0361471176 2.0239787102 2.0361471176 2.0239973068 2.0361409187 2.0239973068 2.0361471176 2.0239973068 
2.0361471176 2.0239973068 2.0361409187 2.0239787102 2.0361471176 2.0240221024 2.0361409187 2.0239787102 2.0361533165 
2.0239973068 2.0361409187 2.0239973068 2.0361471176 2.0239973068 2.0361471176 2.0239973068 2.0361223221 2.0239787102 
2.0361471176 2.0240221024 2.0361409187 2.0239787102 2.0361471176 2.0239942074 2.0361471176 2.0240004063 2.0361471176 
2.0240004063 2.0361440182 2.0239942074 2.0361440182 2.0240004063 2.0361440182 2.0239787102 2.0361471176 2.0239973068 
2.0361440182 2.0240004063 2.0361471176 2.0239973068 2.0361440182 2.0239973068 2.0361471176 2.0240004063 2.0361440182 
2.0239973068 2.0361440182 2.0239787102 2.0361471176 2.0239973068 2.0361455679 2.0239988565 2.0361378193 2.0239988565 
2.0361455679 2.0239957571 2.0361455679 2.0239957571 2.0361424685 2.0239957571 2.0361463428 2.0239942074 2.0361455679 
2.023996532 2.0361424685 2.0239942074 2.0361455679 2.023996532 2.0361453742 2.0239963382 2.0361443572 2.0239946432 
2.036144454 2.0239957087 2.0361449867 2.0239947885 2.0361455679 2.023996532 2.0361432433 2.0239942074 2.0361455679 
2.023996532 2.0361455679 2.0239957571 2.0361424685 2.0239957571 2.0361455679 2.0239957571 2.0361424685 2.0239942074 
2.0361471176 2.0239957571 2.0361409187 2.0239942074 2.0361471176 2.0239973068 2.0361455679 2.0239973068 2.0361455679 
2.0240004063 2.0361440182 2.0239973068 2.0361471176 2.0239787102 2.0361440182 2.0239973068 2.0361440182 2.0240004063 
2.0361440182 2.0239973068 2.0361471176 2.0239973068 2.0361471176 2.0239973068 2.0361471176 2.0239787102 2.0361440182 
2.0240221024 2.0361440182 2.0239787102 2.0361254215 2.0239942074 2.0361440182 2.0240004063 2.0361471176 2.0239973068 
2.0361409187 2.0239973068 2.0361533165 2.0239787102 2.0361409187 2.0240221024 2.0361471176 2.0239787102 2.0361409187 
2.0239973068 2.0361471176 2.0239973068 2.0361471176 2.0239973068 2.0361409187 2.0239973068 2.0361471176 2.0239787102 
2.0361471176 2.0240221024 2.0361471176 2.0239787102 2.0361409187 2.0239973068 2.0361471176 2.0239973068 1.4980468154 
1.550071314 1.4980468154 1.5500700474 1.4980471134 1.5500721335 1.4980465174 1.5500706434 1.4980471134 1.5500712395 
1.4980471134 1.5500712395 1.4980471134 1.5500712395 1.4980459213 1.5500700474 1.4980471134 1.5500712395 1.4980471134 
1.5500712395 1.4980471134 1.5500771999 1.4980471134 1.5500640869 1.4980459213 1.5500771999 1.4980483055 1.5500617027 
1.4980459213 1.550078392 1.4980459213 1.5500640869 1.4980483055 1.550078392 1.4980459213 1.5500617027 1.4980483055 
1.5500760078 1.4980459213 0.048954933591 0.037286281586 0.81918992888 3.0863651661 3.0649366947 3.124628067 0.095596313477 
0.094086867291 0.095596313477 0.037286281586 2.2126558009 3.1123733521 3.0527575364 3.0527293636 3.0406995784 2.9947805405 
3.0965995789 3.1942641735 2.34375 0.72968373931 0.72147816597 0.72148620727 0.77592075226 3.2510650158 2.0916259289 
0.056819915771 0.19530415535 0.72147816597 0.72968488807 0.721719405 0.72968488807 0.79466360604 0.70224267448 0.75359779471 
0.78322340731 0.71416686292 0.72968488807 0.77130160306 0.72610535647 0.75358914671 0.75935268402 0.73803758621 0.72969292937 
0.74743952777 0.74995074247 0.75359841243 0.73551591371 0.76189104583 0.72968431369 0.72357565368 0.77381461655 0.75359964785 
0.71165257067 0.78574246794 0.72968488807 0.69972484928 0.79767257351 0.75359779471 0.68779474372 0.80960029489 0.72968488807 
0.6963186264 0.72968373931 0.72968373931 0.72968373931 0.72968316493 0.72968488807 0.6963186264 0.72209644318 0.82619380951 
0.69632506371 0.72302150726 0.82527828217 0.85105609894 0.6963186264 0.72393870354 0.82436108589 0.85105609894 0.6963186264 
0.72485256195 0.82344245911 0.85106396675 0.69632720947 0.72575855255 0.82252216339 0.85105609894 0.6963186264 0.72666835785 
0.82162666321 0.85105609894 0.6963186264 0.72758483887 0.82071495056 0.85106658936 0.6963186264 0.72850990295 0.81978988647 
0.85105609894 0.69632613659 0.7294254303 0.81886482239 0.85105609894 0.6963186264 0.73034131527 0.81795847416 0.85105609894 
0.6963186264 0.73125648499 0.81704092026 0.85106527805 0.6963186264 0.7321767807 0.81611824036 0.85105609894 0.69632506371 
0.7330994606 0.81519794464 0.85105609894 0.6963186264 0.73401427269 0.81428313255 0.85105609894 0.69631969929 0.73493051529 
0.81336688995 0.85106396675 0.6963186264 0.7358341217 0.81244659424 0.85105741024 0.69632613659 0.73675680161 0.81154060364 
0.85105609894 0.6963186264 0.73767030239 0.81062710285 0.85105609894 0.6963186264 0.73858308792 0.80971193314 0.85106527805 
0.6963186264 0.73950815201 0.80879163742 0.85105609894 0.69632613659 0.74042844772 0.80786657333 0.85105609894 0.69631808996 
0.74133956432 0.80695545673 0.85105609894 0.69631969929 0.74225658178 0.80604201555 0.85106527805 0.6963186264 0.74317729473 
0.80511891842 0.85105544329 0.69632345438 0.74409890175 0.80419850349 0.85105741024 0.69632077217 0.74500852823 0.80328172445 
0.85105609894 0.69632023573 0.74592137337 0.80237364769 0.8510619998 0.69632077217 0.74683874846 0.80145746469 0.85105872154 
0.69632023573 0.74775481224 0.80054020882 0.85105806589 0.69632077217 0.74867099524 0.79962402582 0.85105872154 0.73274112127 
0.7369555197 0.76044011495 0.75660538294 0.85105872154 0.73274112127 0.73932349303 0.75807273767 0.75660538294 0.73274143013 
0.74169056145 0.7557050732 0.75660567013 0.73274112127 0.74405765154 0.75333798311 0.75660538294 0.73274112127 0.77592334422 
0.7214731845 0.72028890252 3.125 0.097656995058 2.1892754734 3.125 0.056817531586 2.34375 0.75660538294 
0.85105806589 0.79870796204 0.74958765507 0.75359779471 0.75359779471 0.75359903014 0.75359903014 0.75359903014 0.75359779471 
0.77617154425 0.75359779471 0.77591210426 0.75359903014 0.77591210426 0.12903521274 0.056819915771 2.9947805405 2.9675452926 
0.77710643411 0.19530415535 2.0703208447 3.2617270947 0.12859171629 2.9573457837 2.9947805405 0.078125 0.078125 
2.9947805405 3.0859375 3.1836020947 2.34375 0.64676403999 0.70986515284 0.71126830578 0.78613865376 0.64676517248 
0.75814568996 0.76562207937 0.74218189716 0.64676403999 0.66537618637 0.83820343018 0.76562207937 0.56933921576 1.4583277702 
0.2291727066 0.48567175865 0.64676403999 0.64675724506 0.64676517248 0.3190048933 1.4583444595 0.64676403999 0.40886044502 
1.0885465145 0.76562207937 1.307056814 0.50708207533 1.0358866747 1.3070444163 0.47226628696 1.070702463 0.20109614765 
0.43744032628 1.1055284237 1.3070588803 0.40262882955 1.1403399205 0.20109837301 0.36781701491 1.1751517351 1.3070454495 
0.33300138549 1.2099673645 0.2010963066 0.298176299 1.244792451 1.307056814 0.26336345122 1.2796052988 0.20109821405 