# vtk DataFile Version 5.1
vtk output
ASCII
DATASET STRUCTURED_POINTS
DIMENSIONS 26 26 26
SPACING 0.08 0.08 0.08
ORIGIN -1 -1 0.5
POINT_DATA 17576
FIELD FieldData 1
potential 1 17576 double
0.0064735119141 0.0063603639166 0.0062520209956 0.0061486860791 0.0060504182255 0.0059571868348 0.0058687536352 0.0057847581593 0.0057047423556 
0.0056282106049 0.0055547752749 0.0054838450204 0.0054150825091 0.0053482263661 0.0052828721774 0.0052186416154 0.005155181688 0.0050921413421 
0.0050292108054 0.0049662254537 0.0049030817715 0.0048397563196 0.0047762923326 0.004712835613 0.0046495253949 0.0045865553519 0.0063513264765 
0.00624267821 0.0061391310491 0.0060408233933 0.0059478013551 0.0058598835998 0.0057766985862 0.0056977237262 0.0056223165804 0.0055498993355 
0.0054797020369 0.0054112815557 0.0053443628559 0.005278598629 0.0052137289443 0.0051495304758 0.0050857629759 0.0050221835756 0.00495867067 
0.0048951278141 0.0048315200556 0.0047678579183 0.0047042681536 0.0046408582293 0.0045777988083 0.0045152817319 0.0062008809389 0.0060970765679 
0.0059986630715 0.0059057758343 0.0058183482376 0.0057361050138 0.005658530386 0.0055849219252 0.0055145319038 0.005446362793 0.0053797955646 
0.0053142551356 0.0052494870083 0.0051852042867 0.0051212484664 0.0050575051176 0.0049939012493 0.004930271449 0.0048666157981 0.0048029060246 
0.0047392111431 0.0046755866397 0.0046121582288 0.0045490715536 0.004486506854 0.0044246702989 0.0060287570751 0.005930062498 0.0058370835644 
0.0057498699208 0.005668285963 0.0055919378588 0.0055201735281 0.0054521771472 0.0053867518314 0.0053230343663 0.0052602339325 0.005197752534 
0.0051353707473 0.0050728668061 0.0050101822268 0.0049473404954 0.0048842472476 0.0048209630597 0.0047575678613 0.0046941093119 0.0046306789793 
0.0045673943253 0.0045044161813 0.0044419474591 0.0043801130037 0.0043191635592 0.0058428891704 0.0057495401724 0.0056621745759 0.0055807936793 
0.005505167882 0.0054348826802 0.0053689010948 0.0053062640852 0.0052458022194 0.0051864450286 0.005127363688 0.0050679528473 0.0050080430347 
0.004947497112 0.0048863785948 0.0048246152002 0.0047624141333 0.0046998586361 0.004637069951 0.0045742137081 0.0045113550704 0.0044487050882 
0.0043864403936 0.0043247576444 0.0042638717169 0.0042040076397 0.0056511138686 0.0055632728317 0.0054816268021 0.0054061233628 0.005336540835 
0.0052720048243 0.005211630826 0.0051541875723 0.0050983986635 0.00504312509 0.0049874738193 0.0049310543303 0.0048735569327 0.0048150124727 
0.0047555861621 0.0046951917021 0.0046341182981 0.0045725412228 0.0045106352489 0.0044485821726 0.0043865669885 0.0043247990152 0.0042634820005 
0.0042028345988 0.0041430894193 0.0040844885163 0.0054602177106 0.0053779280072 0.0053020071641 0.0052324359557 0.005168539204 0.00510961351 
0.0050545063084 0.0050018566911 0.0049503125914 0.004898720552 0.004846268371 0.0047924975199 0.0047373268494 0.0046807864622 0.0046229162034 
0.0045639752901 0.0045041839161 0.004443772575 0.0043829607191 0.0043219648391 0.0042610190317 0.0042003421754 0.0041401696019 0.0040807443932 
0.0040223050954 0.0039651029225 0.0052753568469 0.0051987327267 0.0051284752671 0.0050644648629 0.0050061588347 0.004952491704 0.0049022153667 
0.0048538645274 0.0048060621952 0.0047576747381 0.0047079129543 0.0046565791984 0.0046035236691 0.0045487325973 0.0044924799356 0.0044350076701 
0.0043765746617 0.0043174429063 0.0042578683742 0.004198085938 0.0041383681288 0.0040789527085 0.0040200836661 0.0039620213443 0.0039050282686 
0.003849366037 0.0051004191083 0.0050291583179 0.0049644212167 0.0049058508684 0.0048527183888 0.0048038878281 0.0047579415498 0.0047133451306 
0.0046687670451 0.0046231098811 0.0045757298352 0.0045265221993 0.0044752109189 0.0044220630392 0.0043673272647 0.0043112770085 0.0042542120459 
0.0041964103393 0.0041381439318 0.0040796975026 0.0040213220286 0.0039632783323 0.0039058342596 0.003849256447 0.003793807087 0.0037397874858 
0.0049375921423 0.0048716802939 0.0048122585244 0.0047588412388 0.004710532459 0.0046660700964 0.0046239290232 0.0045825839388 0.0045406934568 
0.0044972909239 0.004451960468 0.00440446713 0.0043547248503 0.0043030339183 0.0042496794869 0.0041949686681 0.0041392324641 0.0040827423344 
0.0040258272338 0.0039687512442 0.0039117863124 0.003855198163 0.0037992528369 0.0037442415402 0.0036904267144 0.0036381139176 0.004788748915 
0.0047279898807 0.0046736200828 0.0046250035588 0.0045811004912 0.0045405114848 0.0045016263739 0.0044630030582 0.0044233779668 0.0043818753556 
0.0043382189551 0.0042920909508 0.0042436815887 0.0041932709616 0.004141152518 0.0040876759947 0.0040331775969 0.0039779667987 0.0039223660741 
0.0038666688302 0.0038111358971 0.0037560394063 0.0037016553156 0.0036482482576 0.0035961235282 0.0035455600282 0.0046550353889 0.0045991932694 
0.0045495535656 0.0045053420761 0.0044653687186 0.0044281082881 0.0043920224802 0.0043556295833 0.0043178105166 0.0042778940094 0.004235471547 
0.0041905269204 0.0041432497517 0.0040939190266 0.0040429020173 0.0039905410987 0.0039371862833 0.0038832036778 0.0038288851385 0.0037745306265 
0.0037204154227 0.0036668039272 0.0036139780731 0.0035621975026 0.003511766991 0.0034629652147 0.0045372354582 0.0044860127883 0.004440737411 
0.0044004875434 0.0043639166287 0.0043295277483 0.0042957074083 0.0042610868627 0.0042247233719 0.0041859330744 0.0041445348048 0.0041005597865 
0.0040542360317 0.0040058719938 0.0039558341201 0.0039044926446 0.0038522050736 0.0037993518857 0.0037462348423 0.0036931588319 0.0036404070588 
0.003588248154 0.0035369361755 0.0034867707006 0.0034380154369 0.0033908819661 0.0044359224507 0.0043889448762 0.0043476047149 0.0043108108952 
0.0042771908752 0.0042451242854 0.0042130831152 0.0041799328699 0.0041445099897 0.0041066068099 0.0040660129516 0.0040228221525 0.0039772972417 
0.0039297653523 0.003880605853 0.0038301763868 0.0037788946405 0.0037270955774 0.003675107942 0.0036232421378 0.0035717746266 0.0035209929968 
0.0034710711812 0.0034224509679 0.003375319114 0.0033295828851 0.0043515278178 0.0043083776773 0.0042704447069 0.0042366303806 0.0042053963302 
0.0041751380688 0.0041445294379 0.0041122166261 0.0040775352687 0.004040265714 0.0040002792537 0.0039577179568 0.0039128698246 0.0038660826394 
0.0038176991605 0.0037681513272 0.0037177879603 0.0036669728904 0.0036159636535 0.0035652262328 0.0035149766801 0.0034654760635 0.0034170233368 
0.0033694810948 0.0033238938087 0.0032801429523 0.0042842348822 0.0042443822551 0.0042094129814 0.0041779943792 0.0041485807031 0.0041197209066 
0.0040899062358 0.0040581374118 0.0040239822927 0.0039871300014 0.0039475870347 0.0039055314309 0.0038612670897 0.0038151345842 0.0037674136641 
0.0037186749335 0.0036691863729 0.0036193057763 0.0035693666561 0.0035196848103 0.0034705619727 0.0034218689365 0.0033746993194 0.0033289039427 
0.0032847405001 0.0032425052066 0.0042340180615 0.0041970139748 0.0041643832085 0.0041347703177 0.004106723553 0.0040785931359 0.0040492281631 
0.0040177563518 0.0039838191232 0.0039472061978 0.0039078944594 0.003866250367 0.0038225029097 0.0037769637736 0.0037300505247 0.0036820902961 
0.003633450868 0.0035844698886 0.0035354827742 0.0034868001636 0.0034383097134 0.0033911367481 0.0033451317313 0.0033005626982 0.0032576891669 
0.0032167991361 0.0042006868646 0.0041658542319 0.004134947233 0.0041066281112 0.0040792180688 0.0040513268608 0.0040220656034 0.0039905889228 
0.0039566624391 0.0039201501213 0.0038811271664 0.0038398360768 0.0037965393869 0.0037516189175 0.003705398272 0.0036582122765 0.0036104094115 
0.0035623180913 0.003513838487 0.0034661258358 0.003419039452 0.0033728900069 0.0033279448494 0.0032844742879 0.0032427433689 0.0032030357962 
0.0041832968727 0.0041500082941 0.004120250856 0.0040924392415 0.0040651962351 0.0040372721202 0.0040077092393 0.0039760608577 0.0039419855446 
0.0039054485439 0.0038665738796 0.0038255737665 0.0037827706462 0.0037384455937 0.0036929288391 0.0036465285103 0.0035991437939 0.0035519531406 
0.0035048228615 0.0034580374191 0.0034119124901 0.0033667221854 0.0033227456462 0.0032802550765 0.0032395447889 0.0032008165992 0.0041804990209 
0.0041481339868 0.0041186632028 0.0040908335915 0.0040632688644 0.0040348808034 0.0040048145495 0.0039727300679 0.0039383850463 0.0039017481747 
0.0038629954026 0.0038223006404 0.0037799777975 0.0037362871838 0.0036915043305 0.0036454972733 0.0035994326133 0.0035531576836 0.0035069472004 
0.0034611109907 0.0034159131792 0.0033716344862 0.003328553605 0.0032869389713 0.0032470868894 0.0032091890695 0.0041897442782 0.0041574213663 
0.0041277096585 0.0040992837987 0.0040709535444 0.0040416930924 0.004010962311 0.0039783269399 0.0039436450875 0.0039069224082 0.0038682778406 
0.0038279638401 0.0037861730501 0.0037427121307 0.0036987255625 0.0036540402832 0.0036089096395 0.0035635933446 0.0035183482421 0.0034734598273 
0.0034291840337 0.003385790898 0.0033435505577 0.0033027265962 0.003263613517 0.0032266557144 0.0042069654419 0.0041741629839 0.0041435988417 
0.004114129399 0.0040846891607 0.0040543901925 0.0040227968682 0.0039895419171 0.0039545152503 0.0039177063053 0.00387928536 0.0038389317515 
0.003797767647 0.0037555316933 0.0037124448114 0.0036687216382 0.0036246031681 0.0035802941335 0.0035360657609 0.0034921548179 0.0034487923063 
0.0034062796024 0.0033648447036 0.0033247821648 0.0032865475759 0.0032498791338 0.0042269863003 0.0041931532569 0.0041613309726 0.0041304938562 
0.0040997267195 0.0040682686489 0.0040357726433 0.0040019155364 0.0039665736365 0.0039293412421 0.0038912375068 0.0038518956612 0.0038114680953 
0.0037701165103 0.0037280273464 0.0036853693844 0.0036423379077 0.0035991244027 0.0035559717177 0.0035130819354 0.0034706985837 0.0034290586584 
0.0033886687571 0.003349291199 0.0033113929405 0.0032751818235 0.0042433998851 0.0042082459284 0.004174923532 0.0041425675512 0.0041103512782 
0.0040778020027 0.004044464233 0.0040096293159 0.0039741374466 0.0039375443161 0.0038998899773 0.0038612410959 0.0038217042165 0.0037813950787 
0.0037404416069 0.0036989662447 0.0036571251397 0.0036151091039 0.0035730903678 0.0035312756814 0.0034898911279 0.0034494059498 0.0034095495264 
0.0033708754747 0.0033334962106 0.0032976819833 0.0042495837045 0.0042130204668 0.0041781802827 0.0041443468278 0.0041108381434 0.0040767867377 
0.0040427793553 0.0040080772147 0.0039726465498 0.0039364069617 0.0038993905638 0.0038616279772 0.0038231606037 0.0037840626846 0.0037443997081 
0.0037042438811 0.0036637306793 0.0036229967365 0.0035821959115 0.0035417846996 0.0035014248053 0.0034616073733 0.0034226233431 0.0033845656665 
0.003347723781 0.0033122944577 0.004239742457 0.004201902055 0.0041657179614 0.0041300748377 0.004095577217 0.0040612556002 0.0040267864598 
0.003992043598 0.0039568814341 0.0039212278341 0.0038850764856 0.0038484070766 0.0038112136779 0.003773509286 0.0037353032567 0.0036966180486 
0.0036575521714 0.0036181966241 0.0035789589646 0.0035394683142 0.0035001932273 0.0034613416134 0.0034231881862 0.0033858303583 0.0033495408062 
0.0033145012631 0.007148187382 0.0070262540087 0.0069089852002 0.0067965110111 0.0066888419623 0.0065859336423 0.0064875770429 0.0063934832757 
0.0063032945516 0.0062166196821 0.0061331558165 0.0060523215112 0.0059739505399 0.0058976693449 0.0058231557715 0.0057500809108 0.0056781487145 
0.0056070601703 0.0055365428877 0.0054664469643 0.0053966626744 0.0053271429423 0.0052578951433 0.0051890214385 0.0051206137031 0.0050528166251 
0.0070214164462 0.006903953286 0.0067913467761 0.0066836606403 0.0065808977942 0.0064828803035 0.0063892998871 0.006299757014 0.0062137715271 
0.0061309288584 0.00605058696 0.0059723778328 0.0058960545598 0.0058212748901 0.0057477822624 0.0056753574739 0.0056037737858 0.0055328025547 
0.0054623286403 0.0053922515895 0.005322520458 0.005253119314 0.0051841395479 0.0051156509348 0.0050477791932 0.004980672245 0.0068739422062 
0.0067612168112 0.0066535186413 0.0065509257031 0.0064533131131 0.0063604339859 0.006271876408 0.0061871159212 0.0061056337304 0.0060266550306 
0.0059497257774 0.0058743582943 0.005800316617 0.0057272955266 0.0056551043903 0.0055835987729 0.0055126821954 0.0054421720094 0.0053720502806 
0.0053022682253 0.0052328691987 0.0051638781037 0.0050953851154 0.0050274990522 0.0049603581185 0.0048941268164 0.0067100236044 0.0066022344412 
0.0064996886957 0.0064023554054 0.0063100684883 0.0062224806486 0.006139085497 0.006059308024 0.0059822444539 0.0059073046785 0.0058338898588 
0.0057614918954 0.0056898898944 0.0056188346211 0.0055481912634 0.0054779281783 0.0054079008278 0.0053381267533 0.0052686489233 0.0051994807005 
0.0051306794367 0.0050623272557 0.0049945480591 0.0049275062219 0.0048612868347 0.0047960992299 0.0065349947187 0.0064323234001 0.0063350484911 
0.0062430928672 0.0061562098744 0.0060740630842 0.0059958120932 0.0059207993731 0.0058482034561 0.0057772624233 0.0057073483591 0.005637942499 
0.0055688550702 0.0054998851316 0.0054310117473 0.0053620806223 0.0052932297895 0.0052244797799 0.0051559018524 0.0050876163299 0.0050196471208 
0.0049521652758 0.0048853080109 0.0048192322868 0.0047541124834 0.0046901318975 0.0063543958296 0.0062569621759 0.0061650297624 0.0060784750788 
0.00599708173 0.0059200951112 0.0058468819267 0.0057765688085 0.0057082672058 0.005641161153 0.0055745536262 0.0055081144825 0.0054414997484 
0.0053746568558 0.0053076415581 0.0052402801773 0.0051727743417 0.0051052284365 0.0050377568828 0.0049704893279 0.0049035639027 0.0048371462381 
0.0047713981327 0.0047064968178 0.0046426320173 0.0045800058627 0.006173376982 0.0060811941691 0.005994591735 0.0059134929183 0.0058372653141 
0.0057653700649 0.0056969645139 0.0056310922116 0.0055668099438 0.0055033276675 0.0054398645697 0.0053761373531 0.0053119607145 0.005247261714 
0.0051819684169 0.005116234449 0.005050190863 0.0049839870098 0.0049177824568 0.0048517308952 0.0047860323787 0.004720843754 0.0046563616885 
0.0045927859882 0.0045303120068 0.0044691459377 0.0059961663906 0.0059093264956 0.0058279879809 0.0057519970908 0.0056808913201 0.0056138298665 
0.0055499274716 0.0054881565453 0.0054275501167 0.0053672661256 0.0053066538193 0.0052455183396 0.0051836305195 0.0051208611084 0.0050573624207 
0.0049932668991 0.0049287404398 0.004863967571 0.0047991374196 0.0047344335461 0.0046700789473 0.0046062478037 0.0045431576308 0.004481018118 
0.0044200467548 0.0043604536343 0.0058262592601 0.0057444544285 0.0056682443237 0.0055972732723 0.0055309425644 0.005468399113 0.0054086342728 
0.0053505716515 0.0052932697253 0.0052358858433 0.0051778732227 0.0051191010115 0.0050591928972 0.0049982882467 0.0049365088241 0.0048740160226 
0.004811013461 0.00474771184 0.0046843118715 0.0046210446481 0.0045581147853 0.0044957363995 0.0044341326498 0.0043735253185 0.0043141304373 
0.004256200171 0.0056657953407 0.0055890061478 0.0055177366697 0.0054515434165 0.0053897163237 0.0053313328791 0.0052753139528 0.0052205894373 
0.0051661790562 0.0051113246153 0.0050556639689 0.0049989071614 0.0049408530736 0.004881665104 0.0048214974863 0.0047605529994 0.0046990416303 
0.0046371885964 0.0045752530256 0.0045134482781 0.0044520009424 0.0043911336815 0.0043310696928 0.0042720563921 0.0042143080551 0.0041580830863 
0.00551674272 0.0054447781985 0.0053782123761 0.0053164990587 0.0052588428716 0.0052042346896 0.005151532518 0.0050997334853 0.0050478956974 
0.0049952901596 0.0049416660655 0.0048866247575 0.004830223184 0.0047726049325 0.0047139282936 0.0046544288781 0.0045943497694 0.0045339159902 
0.004473424608 0.0044130888814 0.004353139199 0.0042938087227 0.0042353332791 0.0041779353149 0.0041218758622 0.0040673816568 0.0053803835277 
0.0053130218447 0.0052508718268 0.005193307777 0.0051394365134 0.005088164555 0.0050384339978 0.004989163378 0.0049395105216 0.0048889043858 
0.0048369184371 0.0047834371818 0.004728500722 0.0046722827409 0.0046149798302 0.0045568331273 0.0044980993147 0.0044390707843 0.0043799820997 
0.004321087719 0.0042626247832 0.0042048225542 0.0041479266271 0.0040921594696 0.004037780277 0.0039850183126 0.0052576129109 0.0051945809476 
0.0051365301191 0.0050827408499 0.0050322218785 0.0049839371459 0.0049367374588 0.004889623009 0.0048418614704 0.0047928301071 0.0047422974137 
0.0046901797467 0.0046365641838 0.0045816169555 0.0045255744694 0.0044686999969 0.0044112430524 0.0043535252253 0.0042957852795 0.0042382825466 
0.004181263545 0.0041249639052 0.0040696073291 0.0040154563723 0.0039627344016 0.003911604769 0.0051490581608 0.0050900152914 0.0050357087927 
0.0049852574463 0.0049377377599 0.0048919892718 0.0048469245556 0.0048017244207 0.0047553848206 0.0047077142968 0.0046584278901 0.0046074942609 
0.0045550335488 0.0045012368362 0.0044463553076 0.0043906387229 0.0043344127174 0.0042779433216 0.0042214941853 0.0041653317254 0.0041096941895 
0.0040548375107 0.0040009058858 0.0039483085257 0.0038971946445 0.0038474264195 0.0050551363254 0.0049997150306 0.0049486662436 0.0049012006484 
0.0048562189177 0.0048125875686 0.0047693862828 0.0047255215511 0.0046804344787 0.0046338857069 0.0045856528065 0.0045357469048 0.0044843161949 
0.0044315760306 0.0043777473683 0.0043231609848 0.0042680773761 0.0042127874642 0.0041574892834 0.0041025992181 0.0040482922788 0.0039948027999 
0.0039423928427 0.0038908969464 0.0038413235315 0.0037935382484 0.0049759008671 0.0049236832471 0.0048755553593 0.004830578904 0.004787673257 
0.0047458424269 0.004703934364 0.0046611533279 0.0046171234357 0.0045714864341 0.0045241408693 0.0044751318592 0.004424627903 0.0043728444392 
0.0043199460803 0.0042664089996 0.0042124172287 0.004158258106 0.0041042057201 0.0040505258751 0.0039974781734 0.0039448885482 0.0038938454991 
0.0038441400448 0.0037960048273 0.0037496941966 0.00491130624 0.004861850112 0.0048161301267 0.0047731649811 0.0047319913399 0.0046913790593 
0.0046504784255 0.0046085634282 0.0045652987067 0.0045203957178 0.0044737180837 0.0044255005841 0.0043758434207 0.004324941832 0.0042731050854 
0.0042205744854 0.0041676375984 0.004114569099 0.004061642771 0.0040091203471 0.0039568463063 0.0039059036254 0.0038561127165 0.0038077021825 
0.0037608968986 0.0037159430042 0.0048608554443 0.004813640411 0.0047698280964 0.0047285029912 0.0046884428147 0.0046486407815 0.0046084527664 
0.0045671317776 0.0045244266382 0.0044801137821 0.0044341497957 0.0043866504983 0.0043377578717 0.004287746674 0.0042368403762 0.0041852966736 
0.0041333913877 0.0040813894985 0.0040291383259 0.0039777409155 0.0039270154701 0.0038772285864 0.0038286094442 0.0037813900491 0.0037357959153 
0.0036920666536 0.0048234809091 0.0047780222518 0.0047356986582 0.0046953574953 0.0046560512462 0.004616863904 0.0045770265902 0.0045361475726 
0.0044938416053 0.0044499860652 0.0044045797202 0.0043577183466 0.0043096134364 0.0042604500377 0.0042104662591 0.0041599027106 0.0041085927192 
0.0040576560707 0.0040069087567 0.0039565882158 0.0039069659448 0.0038582737115 0.0038107491663 0.0037646228179 0.0037201452591 0.0036774728523 
0.0047977817054 0.0047536268047 0.0047120937598 0.0046723529315 0.0046334178617 0.0045944804626 0.0045548260818 0.0045141340339 0.0044721054326 
0.0044286111418 0.0043837156913 0.0043374841216 0.0042901307669 0.004241828681 0.004192777982 0.0041427820405 0.0040929485262 0.0040430744431 
0.0039933876599 0.0039441539044 0.0038955947636 0.0038479488496 0.0038014523111 0.0037563297003 0.0037128306745 0.003671121725 0.0047814175922 
0.0047378702194 0.0046967696365 0.0046571873992 0.004618275799 0.0045792354647 0.0045396226165 0.0044990025106 0.0044571657812 0.0044140270813 
0.0043696030551 0.0043240492834 0.0042774717517 0.0042296024665 0.0041815193128 0.0041329936721 0.0040842291551 0.0040354406176 0.0039868425449 
0.0039386790743 0.0038911685542 0.0038445374817 0.003799014634 0.0037548200998 0.0037121972291 0.0036715433839 0.0047709717511 0.0047276909202 
0.0046865684688 0.004646815793 0.0046076558193 0.0045683791856 0.0045286147044 0.0044879826046 0.0044463067663 0.0044034933913 0.0043596233989 
0.0043142947513 0.004268554714 0.0042220798837 0.0041750374624 0.0041275952773 0.0040799525516 0.0040322752536 0.0039847985848 0.0039377193923 
0.0038912339672 0.0038456036642 0.0038010165507 0.0037577200764 0.0037161265044 0.0036759218238 0.0047624927127 0.0047190752139 0.0046776444174 
0.004637475632 0.0045978288392 0.0045582607919 0.0045182894444 0.0044776328253 0.0044361106992 0.0043932461863 0.0043499833298 0.00430588893 
0.0042610572011 0.0042155995202 0.004169660526 0.0041233714188 0.0040768960705 0.0040303929466 0.0039840725757 0.0039381037191 0.0038926949744 
0.00384804647 0.0038046250743 0.0037621515035 0.0037210484004 0.0036814738338 0.0047513351978 0.004707574356 0.0046656486753 0.0046249352504 
0.0045847929112 0.0045448529252 0.0045046943829 0.0044635596977 0.0044223396373 0.0043804354502 0.0043378625474 0.0042946359983 0.0042508187253 
0.004206490841 0.0041617511881 0.0041166966218 0.0040714588267 0.0040262031978 0.0039810743576 0.003936248849 0.0038919191445 0.0038485215372 
0.0038057768681 0.0037641072887 0.0037236749734 0.0036846747078 0.0047328822202 0.0046886923865 0.0046462340344 0.0046049770304 0.0045643803935 
0.0045236570329 0.0044834184559 0.0044429162233 0.004402082008 0.0043607933074 0.0043190418003 0.0042768181527 0.0042341396079 0.0041910584218 
0.0041476250099 0.0041038981835 0.0040600039197 0.0040160441583 0.0039721653247 0.0039287901952 0.003885549939 0.0038429011481 0.0038010985304 
0.0037601974815 0.0037204480249 0.0036820065317 0.0047031279212 0.0046585675773 0.0046156637242 0.0045734378596 0.0045325942257 0.0044922264717 
0.0044520312692 0.0044118775057 0.0043715962045 0.0043310863376 0.0042903142421 0.0042492386911 0.004207841443 0.0041661309616 0.0041241171465 
0.0040818226896 0.0040393416271 0.0039967528612 0.0039544482205 0.0039120159258 0.0038699074367 0.0038282915203 0.0037874071929 0.0037473157947 
0.0037082485288 0.003670364612 0.00784184894 0.0077106126834 0.0075839758674 0.0074620111671 0.0073446936905 0.0072319705011 0.0071236542538 
0.0070195049561 0.0069192316823 0.0068225141193 0.0067291113782 0.0066384908468 0.0065505202081 0.0064648581262 0.0063812170089 0.0062993084752 
0.0062188798716 0.0061396715198 0.0060614411397 0.0059840528484 0.0059073956719 0.005831407222 0.0057560685597 0.00568144744 0.0056075965972 
0.0055346209426 0.0077078436176 0.007581114898 0.0074590940829 0.0073417921111 0.0072291874741 0.007121110246 0.0070173012904 0.0069174453006 
0.0068211681611 0.0067281621323 0.0066378744629 0.0065499985878 0.0064643211371 0.0063805186868 0.0062983495033 0.0062176049853 0.0061380726588 
0.006059537153 0.0059818896161 0.0059050278974 0.0058288897624 0.0057534390607 0.0056787381977 0.0056048267433 0.0055317903003 0.0054597382737 
0.0075587276422 0.0074367074894 0.0073194790728 0.0072070720442 0.0070993462141 0.0069960831728 0.0068969490686 0.0068015412629 0.006709486984 
0.0066201541066 0.0065332008182 0.0064482105532 0.0063649770511 0.0062832005589 0.0062026835803 0.0061232652481 0.0060448417869 0.005967219344 
0.0058903672571 0.005814221129 0.0057388036973 0.0056641145277 0.0055902138874 0.0055171770931 0.0054451061273 0.0053741272553 0.0073973096691 
0.0072801392855 0.0071678895939 0.0070604866362 0.0069577588595 0.0068594147045 0.006765149077 0.0066742576382 0.0065863127917 0.00650079989 
0.0064172503606 0.0063352313628 0.0062545421307 0.006174931777 0.0060962284251 0.0060183760218 0.0059411924642 0.0058646680076 0.005788817725 
0.0057136276634 0.005639126681 0.0055653665264 0.005492474233 0.0054204715026 0.0053495173406 0.0052797442213 0.0072272437895 0.0071150581918 
0.0070078628714 0.0069055443629 0.0068078681047 0.0067145721672 0.0066249615694 0.0065385741185 0.0064548046177 0.006373092057 0.0062929426145 
0.006213912581 0.0061358247949 0.0060584546729 0.0059817368837 0.0059054700148 0.0058297403666 0.0057545282644 0.005679903841 0.0056058326802 
0.0055324218167 0.0054597679751 0.0053879731251 0.0053171581084 0.0052474600408 0.0051790236503 0.0070524898281 0.0069453735488 0.0068432761085 
0.0067460483119 0.0066535052178 0.006564996821 0.0064800672014 0.006398073745 0.0063183703523 0.0062403485131 0.0061634516553 0.00608741185 
0.0060118878307 0.0059367887184 0.0058621067772 0.005787624975 0.0057134679218 0.0056396923963 0.0055663651607 0.0054935726628 0.0054214128919 
0.0053500129909 0.0052794970131 0.0052100043383 0.0051416894135 0.005074704709 0.0068769434658 0.0067748847429 0.0066778595791 0.0065857807455 
0.0064980666722 0.0064143184163 0.0063339053839 0.006256128309 0.0061803015495 0.0061058434301 0.0060321046704 0.0059588503068 0.0058858832997 
0.005813082031 0.0057402998198 0.0056676270132 0.0055951255661 0.0055228853072 0.0054510131144 0.0053796154348 0.0053088488692 0.0052388293914 
0.0051697185533 0.0051016626394 0.0050348316338 0.00496938537 0.0067039825627 0.0066070601412 0.0065150383163 0.0064278238598 0.0063448888162 
0.0062657042825 0.0061895832681 0.0061157788942 0.0060435838558 0.0059723554872 0.0059015580291 0.0058310256499 0.0057605068336 0.0056898062842 
0.0056190010168 0.005548146596 0.0054773381557 0.0054066975138 0.0053363476357 0.00526645625 0.0051971681166 0.0051286267271 0.0050610085911 
0.0049944828495 0.0049292258064 0.004865405009 0.0065366118561 0.006444512147 0.0063573678319 0.006274856608 0.0061964958089 0.0061216352758 
0.0060495242341 0.0059794111819 0.0059105706812 0.0058423626747 0.0057743290703 0.005706350585 0.0056380107913 0.0055693756425 0.0055004838334 
0.005431416004 0.0053623021593 0.005293289076 0.0052245217895 0.0051561825358 0.0050884311382 0.0050214396123 0.0049553901462 0.0048904635058 
0.0048268340819 0.0047647091179 0.0063767412746 0.0062894469047 0.0062070107458 0.0061290491497 0.0060550022784 0.0059841822014 0.0059157985395 
0.0058490759259 0.0057832690652 0.0057177899785 0.0056524123457 0.0055866104351 0.0055203630736 0.0054536726652 0.0053866053204 0.0053192795067 
0.0052518308742 0.0051844201246 0.0051172511398 0.0050504892443 0.0049843175992 0.0049189179188 0.0048544732591 0.0047911902895 0.0047292410486 
0.004668839294 0.0062262653494 0.0061435958215 0.0060656545331 0.0059919897961 0.0059219875218 0.0058549011067 0.0057898903633 0.005726237886 
0.0056632237742 0.0056002522502 0.005537113789 0.0054733874644 0.0054090619961 0.0053441925478 0.0052788461938 0.0052131722231 0.0051473380077 
0.0050815023627 0.005015913149 0.0049507314706 0.0048861475872 0.0048223561649 0.004759553827 0.0046979236239 0.0046376847321 0.0045790190196 
0.0060864647827 0.0060082156354 0.0059345167187 0.0058648675608 0.0057985905742 0.0057348764202 0.0056729727164 0.0056120699096 0.0055515426274 
0.005490872788 0.0054296794943 0.0053678232597 0.0053052542093 0.0052420545378 0.0051783257767 0.0051142226023 0.0050499253877 0.0049856600694 
0.00492161261 0.0048579860583 0.0047949795358 0.0047327845168 0.004671610381 0.0046116415531 0.0045530964808 0.0044961599572 0.0059582541476 
0.0058841772098 0.0058144446649 0.0057484944608 0.0056855799761 0.0056249643719 0.0055657999983 0.0055073384248 0.0054490136488 0.0053902774303 
0.0053308970004 0.0052707342973 0.0052097921037 0.0051481427564 0.0050859271999 0.0050233032131 0.0049605018887 0.0048977224534 0.0048351734898 
0.0047730549949 0.0047115876465 0.0046509669614 0.0045913817814 0.0045330585262 0.0044761814224 0.0044208705045 0.0058422640318 0.005772052825 
0.0057059752771 0.0056433592558 0.0055835266165 0.0055256321944 0.0054688783992 0.0054126700569 0.0053561430522 0.0052991441223 0.005241375636 
0.0051827386631 0.00512326502 0.0050630500779 0.0050022519488 0.0049410351822 0.0048796502924 0.0048182991527 0.0047571912419 0.0046965452546 
0.0046365711506 0.0045774674563 0.0045193676314 0.004462627654 0.0044069942958 0.0043534172656 0.0057388881796 0.0056722256176 0.0056093897746 
0.0055498074833 0.0054926727787 0.0054371518673 0.0053825969418 0.0053281106153 0.0052732386235 0.0052177626232 0.0051614244676 0.0051041620561 
0.0050460330962 0.0049871488746 0.0049276685398 0.0048678114828 0.0048077748593 0.0047477864504 0.004687989368 0.0046287563108 0.0045702197165 
0.0045125791915 0.0044560632182 0.0044004734736 0.0043467802595 0.0042948090227 0.0056481261125 0.005584652459 0.0055247855633 0.0054678312798 
0.0054130059735 0.0053596082109 0.0053067408724 0.0052537643458 0.0052003779667 0.0051462257637 0.0050911568436 0.0050351379465 0.0049782470405 
0.0049205842366 0.0048622974492 0.0048037155609 0.0047449736579 0.0046862987169 0.0046279115533 0.004570031586 0.004512877635 0.0044562399467 
0.0044011707312 0.0043474279645 0.0042952084339 0.0042447263848 0.0055698605393 0.0055092058747 0.005451877674 0.0053971567863 0.0053443784498 
0.0052925951151 0.0052411734928 0.0051895214181 0.0051373478209 0.0050843490001 0.0050303300322 0.0049754445766 0.0049197043711 0.0048632171104 
0.0048062100849 0.0047488495102 0.0046913595722 0.0046339536405 0.0045768546789 0.0045202784459 0.0044640290538 0.004409149774 0.0043554262914 
0.0043030520532 0.0042522155819 0.00420312319 0.0055035243883 0.0054452586221 0.0053900635348 0.0053372964702 0.0052860290277 0.0052355130839 
0.0051852905583 0.0051347164668 0.0050835624543 0.0050315752071 0.0049786469248 0.0049248128613 0.0048701301964 0.0048147911644 0.0047589435556 
0.0047027760164 0.0046465028521 0.0045903340338 0.004534068409 0.0044787622613 0.0044241934887 0.0043705900873 0.0043181441699 0.0042670510658 
0.0042175274246 0.0041696863611 0.005448034782 0.0053917777141 0.0053384015914 0.0052870303931 0.0052369946585 0.0051876101252 0.0051382637538 
0.0050886353498 0.0050383464846 0.0049872355092 0.0049352326149 0.004882357082 0.0048287402782 0.0047744918888 0.004719780454 0.0046647838626 
0.0046092800498 0.0045543350161 0.004499722103 0.0044456330353 0.0043922997441 0.0043399151799 0.0042886789872 0.0042387836129 0.0041904412264 
0.0041437605849 0.0054020944087 0.0053475095257 0.0052953903066 0.0052451067434 0.0051959958204 0.0051474310303 0.0050988227258 0.0050499057131 
0.0050003536416 0.0049500311948 0.0048988749133 0.0048469329016 0.0047943277532 0.0047411646341 0.0046871401545 0.0046333270879 0.0045794559683 