# vtk DataFile Version 5.1
vtk output
ASCII
DATASET STRUCTURED_POINTS
DIMENSIONS 26 26 26
SPACING 0.08 0.08 0.08
ORIGIN -1 -1 0.5
POINT_DATA 17576
FIELD FieldData 1
potential 1 17576 double
0.0050719038529 0.0051497990245 0.0052270624686 0.0053034006056 0.0053787229206 0.005452895847 0.0055259891677 0.0055982303405 0.0056700366691 
0.0057420068781 0.0058148850099 0.0058895149915 0.0059668481635 0.0060478057554 0.0061333245121 0.0062242571677 0.0063212266422 0.0064247901812 
0.0065352798416 0.0066528326861 0.0067774171722 0.0069088439863 0.0070468838956 0.0071909940587 0.0073407922434 0.0074957122346 0.0049938355054 
0.0050699441125 0.0051453640756 0.0052197823009 0.0052931012372 0.0053652087532 0.005436143613 0.0055061733749 0.0055757534246 0.0056455351746 
0.0057163037929 0.0057889523702 0.0058643886538 0.005943540302 0.0060272435967 0.0061162839608 0.0062111859105 0.0063124460384 0.006420347206 
0.0065350107644 0.0066564016479 0.0067843450906 0.0069186417171 0.0070587881903 0.0072043956458 0.0073549183267 0.0048950515755 0.0049691722538 
0.0050425841278 0.0051149173391 0.0051859665582 0.00525575565 0.0053242805612 0.0053918196707 0.005458850468 0.0055260605098 0.0055942652342 
0.0056643790727 0.0057373265737 0.0058139760602 0.0058951394584 0.0059815539985 0.0060736771215 0.0061719554644 0.0062766372071 0.0063878257617 
0.0065054885482 0.0066294615442 0.0067594975078 0.0068953001915 0.0070363186438 0.0071821181939 0.0047804258564 0.0048524001455 0.0049235609162 
0.0049936237392 0.0050623834134 0.0051296820478 0.0051957703053 0.0052607486365 0.0053251493524 0.0053896662705 0.0054551143994 0.0055224031528 
0.0055924494272 0.0056661241878 0.0057441825712 0.0058273427556 0.0059160571145 0.0060107295731 0.0061115963476 0.0062187535 0.00633216809 
0.0064516864343 0.0065770761378 0.0067080672034 0.0068441122316 0.0069848004039 0.0046556527159 0.0047253667146 0.0047942263876 0.0048619539832 
0.004928341912 0.0049932486274 0.0050568643072 0.005119418736 0.0051813547175 0.0052433247041 0.0053061558412 0.005370622975 0.0054376538476 
0.0055081035108 0.0055827310584 0.0056622041525 0.0057470273918 0.0058375887723 0.0059341315031 0.0060367647586 0.0061454528454 0.006260067764 
0.0063803896938 0.0065060979131 0.0066368668569 0.0067721040128 0.0045264137023 0.0045937938776 0.0046603118426 0.0047256967109 0.0047897717759 
0.0048524661509 0.0049138036203 0.004974183422 0.00503399701 0.005093783689 0.0051542524779 0.0052161766275 0.0052803643529 0.0053476340853 
0.0054187859233 0.0054943816659 0.0055750452169 0.0056611471762 0.0057529763351 0.005850665695 0.0059542236672 0.0060635393235 0.0061784163381 
0.0062985547053 0.0064236470384 0.0065531204979 0.0043976507553 0.0044626465731 0.0045267817347 0.0045898720107 0.0046517322901 0.0047123322429 
0.004771788597 0.0048302834462 0.0048883791063 0.0049464506253 0.0050050959396 0.0050649384728 0.0051266922355 0.005191087421 0.0052588510898 
0.0053306458688 0.0054070857702 0.0054885654452 0.0055754562965 0.0056679719468 0.0057660944086 0.0058697926394 0.0059789054351 0.0060931646182 
0.006212218091 0.0063357090627 0.0042731167615 0.004335710478 0.0043975396025 0.0044583968629 0.0045181514481 0.0045768546458 0.0046346340742 
0.0046917411315 0.0047484431486 0.0048052911498 0.004862619777 0.0049209380301 0.0049807945146 0.005042816072 0.0051076510775 0.0051759467522 
0.0052483539989 0.0053252772197 0.0054071832216 0.0054943310986 0.0055868404287 0.0056847039958 0.0057878127087 0.0058959405152 0.0060087744011 
0.0061259479517 0.0041556248688 0.0042158149988 0.0042753421426 0.0043340374602 0.0043918609588 0.004448859521 0.0045052080484 0.0045611274309 
0.0046168933628 0.0046729106511 0.0047294302673 0.0047867558687 0.0048452978575 0.0049055355164 0.0049680119359 0.0050333089669 0.0051020711303 
0.0051747532156 0.0052518352849 0.0053337157878 0.0054205842044 0.0055125164581 0.0056094795058 0.0057113078776 0.0058177355889 0.005928411094 
0.0040470865338 0.0041048725643 0.004162138995 0.0042187721916 0.004274769815 0.0043302354789 0.0043853583963 0.0044404021023 0.00449559662 
0.0045510148947 0.0046070814464 0.0046638862048 0.0047216428197 0.0047806922883 0.0048414390741 0.0049043634154 0.0049700093943 0.0050389681753 
0.0051116489561 0.0051884946194 0.0052698738711 0.0053559332504 0.0054467308396 0.0055421889948 0.0056421114215 0.0057461971207 0.0039488405202 
0.0040042127471 0.0040592981167 0.0041139469271 0.0041682343153 0.0042223147934 0.0042764005564 0.0043307251908 0.0043854623222 0.0044407474337 
0.0044965606347 0.0045531755293 0.0046105486416 0.0046689292052 0.0047285440638 0.0047897595005 0.0048530036539 0.0049188302247 0.0049876429291 
0.0050599711432 0.0051361748231 0.0052165921244 0.0053013635773 0.0053905069462 0.0054839193634 0.0055813760159 0.0038618129649 0.0039148338569 
0.0039677555519 0.0040205127607 0.0040731994445 0.0041260213254 0.0041791967561 0.0042329326925 0.0042873667597 0.0043425436175 0.0043984695809 
0.0044550126483 0.0045123702997 0.0045704786518 0.0046294770337 0.0046895553179 0.0047510861834 0.0048144937931 0.0048801382643 0.004948547111 
0.0050201638275 0.0050953265504 0.0051743721483 0.0052574033327 0.0053444273867 0.005435316862 0.0037869251707 0.0038373610074 0.0038881966989 
0.0039391516241 0.0039903522565 0.0040420211292 0.0040943893835 0.0041476269707 0.0042018262494 0.004256971669 0.0043129974129 0.0043698025427 
0.0044271979914 0.0044853378519 0.0045441030949 0.0046035962736 0.00466402414 0.0047256629378 0.0047889033734 0.0048541301967 0.0049218157757 
0.0049923787193 0.0050661522147 0.005143445141 0.0052243517961 0.0053088531724 0.0037240905456 0.0037726172824 0.0038211408303 0.0038703678396 
0.0039201885245 0.0039708115244 0.0040224511273 0.0040752690703 0.0041292681909 0.0041844056163 0.0042405594452 0.0042975733162 0.0043551961273 
0.0044134839971 0.0044722844168 0.0045315523334 0.0045913696554 0.004651905173 0.0047134617439 0.0047762836983 0.0048408012165 0.0049074699085 
0.0049766520781 0.0050487260014 0.0051239549338 0.0052024328722 0.0036739605455 0.0037203438766 0.0037672528697 0.0038148922588 0.003863161695 
0.0039128172701 0.0039638028746 0.0040161976613 0.0040700039956 0.0041251167865 0.0041813735258 0.0042385764997 0.0042965295624 0.0043549621387 
0.0044138918656 0.0044731700117 0.0045327250432 0.0045926346199 0.004653083146 0.004714221051 0.0047764018986 0.0048399914745 0.0049054088632 
0.0049730388414 0.0050431782459 0.0051161125712 0.0036364326235 0.0036810773956 0.0037262390083 0.003772398972 0.0038197610418 0.0038685811642 
0.0039186941074 0.0039707080737 0.0040243082652 0.0040793530462 0.0041356520827 0.0041929796033 0.0042511109131 0.0043098234774 0.0043688216149 
0.0044281785813 0.0044877007552 0.0045473208224 0.0046070989933 0.0046672097101 0.0047277636731 0.004789118957 0.0048515831821 0.0049155631187 
0.0049814253268 0.0050494776656 0.0036120308277 0.0036546069324 0.0036984751086 0.0037433033126 0.0037896366068 0.0038376534438 0.0038874950499 
0.0039388934295 0.0039922594995 0.0040471754923 0.0041034202236 0.004160773032 0.004218983017 0.0042778112435 0.0043370476998 0.0043964041987 
0.0044559658575 0.004515485155 0.0045749540823 0.0046344461316 0.0046939820147 0.0047537788489 0.0048141182134 0.0048753271416 0.0049377702723 
0.0050018076255 0.0036002946776 0.0036412215279 0.0036834799647 0.0037271941416 0.0037729003451 0.003820240161 0.0038695846316 0.0039208497869 
0.0039739337876 0.0040283961643 0.0040845200368 0.0041417747589 0.0041999305874 0.0042587430995 0.0043179941495 0.004377485302 0.0044369445114 
0.0044964535497 0.0045557898737 0.004614966885 0.0046739155448 0.0047327744516 0.0047917213611 0.0048510000012 0.0049109221659 0.0049718419572 
0.0036003659745 0.0036400962192 0.0036812609634 0.0037240850078 0.0037688383169 0.0038155554958 0.0038646723095 0.0039155878113 0.0039683497263 
0.0040227640834 0.0040785969344 0.0041353666831 0.0041933265031 0.0042519574229 0.0043110651233 0.0043704471893 0.0044299411916 0.0044892597407 
0.0045485170095 0.0046074837505 0.0046661877516 0.0047245421109 0.0047826829428 0.0048407618231 0.0048990104932 0.0049577332175 0.003611034579 
0.0036498447561 0.003690223116 0.0037324033786 0.0037766339006 0.003823000032 0.0038714864227 0.0039222345353 0.0039746369512 0.0040285753432 
0.0040840048089 0.0041406028009 0.0041981402506 0.0042561646296 0.0043149300564 0.0043740505283 0.0044332943874 0.0044925281806 0.0045515180939 
0.004610377496 0.0046689242052 0.0047270412578 0.0047847924476 0.0048422449032 0.0048995467708 0.0049569211552 0.0036301509687 0.0036684420738 
0.0037083711294 0.0037501946198 0.0037940625619 0.0038401011931 0.0038882425285 0.0039383728244 0.0039903300195 0.0040440655149 0.0040989445037 
0.0041549586881 0.0042118896748 0.0042695515488 0.004327445089 0.0043860132255 0.0044448062353 0.0045036693828 0.0045625007061 0.0046210364331 
0.0046794155512 0.0047374625272 0.0047950723272 0.0048522930535 0.0049091997131 0.0049659310451 0.0036543161567 0.0036927102125 0.0037325203164 
0.0037742208215 0.0038179331499 0.0038637487441 0.003911577115 0.0039612884526 0.004012699792 0.0040656113253 0.0041197743705 0.0041752225793 
0.0042313274185 0.0042881319939 0.0043454987575 0.0044032835759 0.0044611571199 0.004519421247 0.0045777435614 0.0046360206385 0.0046940652713 
0.0047519424077 0.00480951029 0.0048667274153 0.0049236011585 0.0049802192014 0.0036796907309 0.0037183190559 0.003758322553 0.0038001299695 
0.0038438604233 0.0038894988472 0.0039370273495 0.0039862689512 0.004037058483 0.0040891925363 0.0041424825188 0.0041967144387 0.0042517459178 
0.0043076423545 0.0043638891815 0.0044205991959 0.0044776832698 0.004535065097 0.0045924523779 0.0046501574472 0.0047078893075 0.0047655430508 
0.0048230209672 0.0048803078692 0.0049373489935 0.004994198304 0.0037009374548 0.0037399083026 0.0037805225475 0.0038225948247 0.0038664083901 
0.0039119315472 0.0039591336073 0.0040078514808 0.0040579052774 0.0041091078507 0.004161309423 0.0042143120441 0.0042680088487 0.0043223049511 
0.0043771367165 0.0044326315222 0.0044883986978 0.0045445909887 0.0046011486032 0.0046580169553 0.0047149373058 0.0047721840794 0.0048295475706 
0.0048867940605 0.0049440381607 0.0050012106103 0.0037128262529 0.0037524841252 0.0037934306223 0.003836037045 0.0038799602622 0.0039253594872 
0.0039721789885 0.0040202573782 0.0040694445358 0.0041195564871 0.0041704461409 0.0042220002998 0.0042740840166 0.0043266701333 0.0043797469979 
0.0044333258683 0.0044876027014 0.0045422681974 0.0045974799966 0.0046532156134 0.0047094316676 0.0047660502974 0.0048228185897 0.0048800465948 
0.0049373538003 0.0049948604864 0.0037108231866 0.0037511690373 0.003792645454 0.0038355734283 0.0038795629216 0.0039247779129 0.0039710966449 
0.0040184304005 0.004066608056 0.0041154564844 0.004164845227 0.0042146630733 0.0042648713746 0.0043154312735 0.0043664121905 0.0044178968188 
0.0044699884805 0.0045227688742 0.0045764617523 0.0046307595783 0.0046857988657 0.004741521964 0.0047978537262 0.0048547503392 0.0049118940563 
0.0049695545317 0.0055831999621 0.0056676561953 0.0057519971594 0.0058360114823 0.0059196855127 0.0060029507867 0.0060859159012 0.0061688083452 
0.0062519982943 0.006335991096 0.0064214013158 0.0065089346971 0.0065993391508 0.0066934113355 0.0067919148936 0.0068955606706 0.0070048624234 
0.0071203096292 0.0072422126902 0.0073707283484 0.0075058770218 0.0076475438829 0.0077955879999 0.0079495647741 0.0081091941181 0.0082740166854 
0.0055029745709 0.0055855511588 0.005667969834 0.0057500026739 0.0058316359366 0.0059128263028 0.0059936498319 0.0060743634097 0.0061553537126 
0.0062371485071 0.0063203713987 0.0064057387683 0.0064939855287 0.0065858762307 0.0066821266096 0.0067833959661 0.0068901365829 0.0070028017132 
0.0071216667736 0.0072468772416 0.0073784474229 0.0075162702565 0.0076602247044 0.0078099004599 0.0079649983713 0.0081250728886 0.0054074131443 
0.0054879499595 0.0055682768608 0.0056482563644 0.0057276361181 0.0058065464031 0.0058850564029 0.005963392017 0.0060419585569 0.0061212977078 
0.006202038237 0.006284895749 0.0063706082753 0.0064598844979 0.0065534095805 0.0066518276654 0.0067555384221 0.0068649620108 0.0069803504139 
0.00710183633 0.007229436743 0.0073630522752 0.0075025102566 0.0076475989889 0.0077978547769 0.0079529369485 0.0052997542027 0.0053781203928 
0.005456235766 0.0055339120643 0.0056110398556 0.0056875371684 0.0057636899208 0.0058395775904 0.0059156418379 0.0059924225659 0.0060705386793 
0.0061506897712 0.0062335940826 0.0063199574663 0.0064104021797 0.0065055563702 0.006605820517 0.0067115788819 0.0068230770042 0.0069404434592 
0.0070636957665 0.0071927439607 0.0073274288871 0.007467560371 0.0076126776726 0.0077624606234 0.0051838655192 0.0052599706975 0.0053357928956 
0.0054111554509 0.0054859446561 0.0055600909735 0.0056338140911 0.0057073181689 0.0057809571522 0.0058552385494 0.0059308042853 0.0060082307452 
0.0060882440465 0.0061715236024 0.0062586865417 0.0063502531034 0.0064467991186 0.0065485557405 0.0066558165064 0.0067687208513 0.0068872825713 
0.0070114364211 0.0071410349358 0.0072758368052 0.0074156010579 0.0075598264024 0.0050638119639 0.0051375965399 0.0052110934627 0.0052841299518 
0.0053566159263 0.0054285406085 0.0054999467643 0.00557120031 0.0056426118055 0.0057145990217 0.0057877194254 0.0058625742396 0.005939790273 
0.0060200101274 0.0061038760475 0.0061918289897 0.0062844079893 0.006381940807 0.0064847073827 0.0065928615289 0.006706454672 0.0068254350791 
0.0069496770312 0.0070789593591 0.0072129942654 0.0073514960736 0.004943374499 0.0050147992561 0.0050859325815 0.0051566789541 0.0052269290342 
0.005296692322 0.005366087078 0.0054352558488 0.0055046886428 0.0055746809253 0.0056456934309 0.0057182557572 0.0057929263518 0.0058702758314 
0.0059508716413 0.0060352333293 0.0061238808404 0.0062170794606 0.0063152214583 0.0064184647386 0.006526930874 0.0066405278652 0.0067591970334 
0.0068827468076 0.007010910034 0.0071434210479 0.0048256411776 0.0048946920996 0.0049635383788 0.0050320450685 0.0051001365791 0.0051678824905 
0.0052353912285 0.005302865356 0.0053705126812 0.0054388244168 0.0055080778005 0.0055787115988 0.0056511793052 0.005725983489 0.0058036270484 
0.0058846062772 0.0059694341711 0.0060584077291 0.0061519219931 0.0062502049969 0.0063533810886 0.0064614694847 0.0065744216783 0.0066920800439 
0.0068142138868 0.0069405152285 0.0047131112238 0.0047798098007 0.0048463751238 0.0049127023793 0.0049787843755 0.0050446626695 0.0051104737597 
0.0051763776134 0.0052426050819 0.0053095287566 0.0053773837173 0.0054464591484 0.0055171205449 0.0055897721331 0.005664844673 0.0057427813196 
0.0058240308814 0.0059090568135 0.00599809473 0.006091493851 0.0061894371309 0.0062919961385 0.0063991721288 0.0065108573586 0.0066268611234 
0.0067469196023 0.0046076502595 0.00467200083 0.0047363298117 0.0048005702348 0.0048647298281 0.0049288824639 0.0049931595927 0.0050577632835 
0.0051228847604 0.0051885920276 0.0052553261197 0.0053232020139 0.0053924408947 0.0054633579543 0.0055362908033 0.0056116161537 0.0056897334902 
0.0057710967633 0.0058559761055 0.0059447029954 0.0060375719057 0.0061346954499 0.0062361354025 0.0063418504571 0.0064517024483 0.0065654759476 
0.0045106307385 0.0045726360743 0.0046348133389 0.0046970409533 0.0047593811101 0.0048219367272 0.0048848486205 0.0049482884962 0.0050124130008 
0.0050773372767 0.0051431183229 0.0052100570076 0.0052781977839 0.005347771667 0.0054189924173 0.0054921666998 0.0055676196508 0.0056457672659 
0.005726881585 0.0058113401684 0.0058993934916 0.0059913025385 0.0060871707723 0.0061870188044 0.0062907836645 0.0063983028205 0.0044230441778 
0.0044827797797 0.0045428092213 0.0046031338059 0.0046637553139 0.0047248289094 0.0047864945493 0.0048488989084 0.0049121663917 0.0049763663138 
0.00504156577 0.0051077074736 0.0051750529304 0.0052436049953 0.0053135095734 0.0053849447153 0.0054582224537 0.0055336671003 0.0056115096106 
0.0056921321925 0.0057758386329 0.0058628506681 0.005953423701 0.0060476249676 0.0061454617129 0.0062468471505 0.0043458563342 0.0044031245074 
0.004461103749 0.0045195741104 0.0045785848883 0.0046382763291 0.0046987972416 0.0047602700214 0.0048227794474 0.0048863505501 0.0049509878413 
0.0050166751266 0.0050833085255 0.0051511136229 0.0052200230618 0.0052901746189 0.0053617164016 0.0054349105385 0.0055100375904 0.0055873555786 
0.0056671936613 0.0057498293659 0.0058354804811 0.0059243701638 0.0060165539697 0.0061120165998 0.0042789824293 0.004334421096 0.0043901602255 
0.0044468609783 0.0045043604755 0.0045627729422 0.0046222351119 0.0046828691421 0.0047446858437 0.0048076914351 0.0048718404928 0.0049370660936 
0.0050033065613 0.005070406754 0.0051385778588 0.0052077250097 0.0052779503559 0.0053494089586 0.0054223489373 0.0054969265951 0.0055734474395 
0.0056522268034 0.0057334883439 0.0058174902911 0.0059044124126 0.0059943088053 0.0042230267815 0.0042764260979 0.0043305863271 0.004385661025 
0.004441473872 0.0044986793196 0.0045571638112 0.0046169769967 0.004678141499 0.0047406090394 0.0048042967359 0.0048690969612 0.0049349052233 
0.0050015390995 0.0050690924501 0.00513748223 0.0052066820465 0.0052767895107 0.0053479778463 0.0054203469506 0.0054941659951 0.0055696876024 
0.0056471892924 0.0057269202089 0.0058090591725 0.0058938086012 0.0041777659933 0.0042295398169 0.0042819857816 0.0043355251683 0.0043902768367 
0.0044464106809 0.0045037070512 0.0045627628052 0.0046232954481 0.0046852261429 0.0047484453017 0.0048128153196 0.0048782004552 0.0049444642785 
0.005011391182 0.0050791253858 0.0051475333625 0.0052165910401 0.0052863791997 0.0053570631349 0.0054287119297 0.0055015821802 0.0055759363575 
0.0056519846751 0.0057299818878 0.0058101193884 0.0041435965282 0.0041933924765 0.0042443051458 0.0042966918527 0.0043502498164 0.0044053357504 
0.0044620520344 0.0045201173003 0.0045800410695 0.00464141711 0.0047041231847 0.0047680232389 0.004832950564 0.0048987479228 0.0049652820103 
0.0050323380963 0.0051000449913 0.0051682736423 0.0052369958088 0.0053063269626 0.005376284451 0.0054470460558 0.005518827411 0.0055918464888 
0.0056663453632 0.0057425551822 0.0041198804837 0.0041680881207 0.0042176272463 0.0042685435563 0.0043212886507 0.0043754442602 0.0044313602466 
0.0044889729071 0.0045482331408 0.0046087704132 0.004670945934 0.0047343099569 0.0047987106718 0.0048639791654 0.0049299684203 0.0049965495883 
0.0050635168163 0.0051310091057 0.0051988596257 0.0052670730661 0.0053357513093 0.0054048862742 0.0054746739079 0.0055452940513 0.0056169632388 
0.0056899180089 0.0041056195067 0.0041526376967 0.0042010177025 0.0042509006243 0.0043024802977 0.0043557518508 0.0044111356306 0.0044680775278 
0.0045266791721 0.0045868214902 0.0046483434747 0.0047108394156 0.0047746332805 0.0048392753735 0.0049046345027 0.0049705723184 0.0050369867976 
0.005103650152 0.0051707318181 0.0052380538843 0.0053056847363 0.0053735648946 0.0054418341152 0.0055106199689 0.005580097896 0.0056504846715 
0.0040995651632 0.0041455912504 0.0041930520065 0.0042421220823 0.0042929050644 0.0043455396108 0.0043999974032 0.0044564647072 0.0045143984948 
0.004573751994 0.0046345519604 0.0046965448923 0.0047595659191 0.0048232228637 0.0048878262414 0.0049530447212 0.0050187013241 0.0050847162657 
0.0051509100631 0.0052174481252 0.005284197412 0.0053510838256 0.0054181989264 0.0054856181452 0.0055534710582 0.0056219287002 0.0040997506604 
0.004145081247 0.0041918744908 0.0042403019903 0.0042904617512 0.0043424681422 0.0043962800402 0.0044518370375 0.0045090401378 0.0045679126129 
0.0046278864361 0.0046890153762 0.0047511377868 0.0048141194198 0.004877509482 0.0049417960313 0.0050065750027 0.0050717384211 0.0051372317325 
0.0052029401106 0.0052687577972 0.0053348512753 0.0054010606356 0.005467464436 0.0055341445501 0.0056012278592 0.0041033195562 0.0041484548166 
0.0041948151966 0.0042427927243 0.0042924676709 0.00434393171 0.004397129149 0.0044519866887 0.0045083838355 0.0045661905374 0.0046252156133 
0.0046855491539 0.0047466119675 0.0048084899291 0.0048710838653 0.0049342855919 0.0049978014035 0.0050619697162 0.0051264997608 0.0051913280987 
0.0052563179489 0.005321580419 0.0053870229493 0.0054526430269 0.00551847858 0.0055846263723 0.0041074220062 0.0041523795786 0.0041985291151 
0.0042462240485 0.0042955508842 0.004346505997 0.0043991058155 0.0044532294986 0.0045087729408 0.0045655929532 0.0046235562033 0.004682497026 
0.0047423147022 0.0048031059387 0.0048643866228 0.0049262916965 0.0049887587188 0.0050517364081 0.0051149629302 0.005178785917 0.0052429553725 
0.0053074113272 0.005372102113 0.0054370584141 0.0055022629238 0.0055677936359 0.0041081268681 0.004152930613 0.0041992179823 0.004246745364 
0.0042957699284 0.0043462719722 0.0043982569789 0.0044516133673 0.0045062169449 0.0045619352752 0.0046186676273 0.004676257642 0.0047346310936 
0.0047937169292 0.0048534679359 0.0049140229511 0.004975002255 0.0050365719848 0.0050986916902 0.0051613333957 0.0052242695895 0.0052878225185 
0.0053518184374 0.005416067671 0.0054807283171 0.0055457605427 0.0041017841299 0.0041467374914 0.004192860502 0.0042404735416 0.0042892204873 
0.0043392717354 0.0043906031906 0.0044431019682 0.0044966674085 0.0045511649745 0.0046064920092 0.0046625700845 0.0047192902945 0.0047766385724 
0.0048346062588 0.0048932005751 0.0049524371666 0.0050125296724 0.0050731187017 0.0051343736858 0.0051962782322 0.0052587892173 0.0053216934777 
0.0053853415716 0.0054493933465 0.0055140005158 0.004085259285 0.0041303729215 0.0041765408775 0.0042240522693 0.0042724922083 0.0043220551788 
0.0043726423021 0.004424208047 0.0044766273448 0.0045297730069 0.0045835555118 0.0046378953281 0.0046927722313 0.0047481499683 0.0048040852824 
0.0048606375685 0.0049178845324 0.0049758887355 0.0050347047078 0.0050945202011 0.0051550056882 0.0052162968022 0.0052783552987 0.0053411757992 
0.0054046400422 0.0054686391365 0.0061117782406 0.0062032106035 0.0062950098735 0.0063870287234 0.006479310335 0.0065718312188 0.0066647231403 
0.0067582080793 0.0068526174925 0.0069483850988 0.0070460260417 0.0071461266886 0.007249303964 0.0073562199172 0.0074675088002 0.0075837667626 
0.0077054185997 0.0078328954238 0.0079664842827 0.0081063512688 0.0082525536688 0.0084050348163 0.0085637267871 0.008728270328 0.0088984768126 
0.0090739909751 0.00602757687 0.0061170116184 0.0062067738579 0.0062967492014 0.0063868429878 0.0064771957646 0.0065678570416 0.0066590702169 
0.0067511706709 0.0068445988929 0.0069398636797 0.0070375509174 0.0071382611102 0.0072426270078 0.0073512569372 0.0074647049946 0.0075833554921 
0.0077076178127 0.0078377530104 0.0079739191233 0.0081161659618 0.0082644400996 0.0084186263084 0.0085785752209 0.0087438895012 0.0089142759961 
0.0059320376704 0.0060193499846 0.0061069441385 0.0061947518013 0.0062825827757 0.0063706107793 0.0064589231117 0.0065477267614 0.0066373667645 
0.0067282862625 0.0068209876285 0.006916046646 0.0070140621031 0.0071156148543 0.0072212815569 0.0073316178277 0.0074469658537 0.007567710905 
0.0076940969355 0.0078262718232 0.0079642874255 0.0081080950642 0.008257584965 0.0084126172897 0.0085728091623 0.0087379059085 0.0058273659069 
0.0059124524989 0.0059977856221 0.0060832482279 0.0061687916029 0.00625438269 0.0063403201255 0.0064266550544 0.0065137728268 0.0066021080009 
0.0066921493026 0.0067844530074 0.0068795949327 0.0069781528518 0.0070806389036 0.0071875995764 0.0072993766377 0.0074163250606 0.0075386841019 
0.0076665979788 0.0078001179787 0.0079392024999 0.0080837600311 0.008233582263 0.0083884986474 0.0085480745171 0.0057162367634 0.0057990275254 
0.0058820347182 0.0059651524228 0.006048327515 0.0061315948955 0.0062149969439 0.0062989017819 0.0063835315725 0.0064693131224 0.0065567471898 
0.0066462787008 0.0067384946904 0.0068339449835 0.0069331354991 0.0070365095223 0.0071445493714 0.0072574849143 0.007375597693 0.0074990135765 
0.00762780283 0.0077619368225 0.0079013249798 0.0080457922251 0.0081951710513 0.0083490421106 0.0056015913657 0.0056820412586 0.0057626989911 
0.0058434595654 0.0059242884517 0.0060052096373 0.0060862728146 0.0061678162038 0.006250092514 0.0063334337957 0.0064182906738 0.0065051435539 
0.0065944921763 0.0066868542662 0.0067827186125 0.0068825510068 0.0069866991616 0.0070954867945 0.0072091739658 0.0073279182964 0.0074517948215 
0.0075807916346 0.00771483576 0.0078537691676 0.0079973768374 0.0081454485754 0.0054863127953 0.0055643921028 0.0056426673556 0.0057211023584 
0.0057996309634 0.0058782929565 0.0059572038691 0.0060364783227 0.0061165539019 0.0061976583725 0.0062801700669 0.0063645236145 0.0064511718843 
0.0065405742672 0.00663318548 0.0067294260838 0.0068297313062 0.006934307217 0.0070435101691 0.0071574875573 0.0072763725254 0.0074001037343 
0.0075286698847 0.0076619328017 0.0077996994732 0.0079417786391 0.0053728731595 0.0054485790661 0.0055245461711 0.0056007046446 0.0056770115594 
0.0057534944818 0.0058303242837 0.0059076490054 0.0059856325792 0.006064715662 0.0061451215515 0.0062272239732 0.0063114034917 0.0063980688958 
0.0064876250366 0.0065804672113 0.0066770147411 0.0067774890547 0.0068822298997 0.0069914349675 0.0071052230152 0.0072236294545 0.0073466406724 
0.0074741495908 0.0076059888135 0.0077419244746 0.0052634050542 0.005336765832 0.0054104335102 0.0054843471628 0.0055585223479 0.0056330007738 
0.0057078974031 0.005783345868 0.005859615107 0.0059368074691 0.006015374991 0.0060954929366 0.0061774825352 0.0062616863129 0.0063484558785 
0.0064381435484 0.0065311023486 0.0066277064036 0.006728118992 0.006832636468 0.0069414139432 0.0070545195167 0.0071719733531 0.0072937060722 
0.0074195823001 0.0075494046502 0.0051595894677 0.0052306058159 0.0053020321182 0.0053737983475 0.0054459334613 0.0055184982297 0.005591595243 
0.005665393452 0.005740056272 0.0058156430654 0.0058925810667 0.0059709908599 0.0060510767325 0.0061331237084 0.0062174172639 0.0063042614776 
0.0063939691899 0.0064869016138 0.0065832432713 0.0066832525003 0.006787172075 0.0068950875276 0.0070070583608 0.0071230642423 0.0072430084623 
0.0073667345916 0.0050627224951 0.0051314288302 0.00520067691 0.0052703662767 0.0053405540722 0.0054113184009 0.0054827643204 0.0055550304395 
0.0056282550924 0.0057025540201 0.0057779992602 0.0058549102859 0.0059333465609 0.0060135361993 0.0060956704377 0.0061800086888 0.0062668074957 
0.0063563979656 0.0064489640415 0.006544795817 0.0066440715059 0.0067470005596 0.0068536591105 0.0069640664896 0.0070781826758 0.0071958899336 
0.0049737683166 0.0050402376784 0.0051073266568 0.0051750458949 0.005243380374 0.0053124503029 0.0053823553202 0.0054532113078 0.0055251337407 
0.0055982027574 0.0056725073699 0.0057480390268 0.0058250854126 0.0059036803884 0.0059839653616 0.006066101909 0.0061503568625 0.0062369399517 
0.006326147311 0.0064181259466 0.0065131433334 0.0066113476343 0.0067129428043 0.0068179690066 0.0069264330865 0.0070382735026 0.0048936831486 
0.004957721408 0.0050227510997 0.0050885472375 0.0051551316772 0.0052226023528 0.0052910661553 0.0053606188366 0.0054313421328 0.0055032824518 
0.0055764840279 0.0056509796181 0.0057267123476 0.0058039542668 0.0058826567519 0.0059629654707 0.0060450103737 0.0061290117386 0.0062152145698 
0.0063037137054 0.0063948345593 0.0064887422938 0.0065855821673 0.0066855251822 0.0067886004456 0.0068947936741 0.0048223540699 0.0048845912418 
0.0049476617167 0.0050113395676 0.0050762692719 0.0051422417778 0.0052093532183 0.0052777046944 0.0053473124326 0.0054182101535 0.0054904010829 
0.0055638741134 0.0056386252286 0.0057145523551 0.0057919063675 0.0058706185492 0.0059507967374 0.0060325794446 0.0061161745638 0.0062016775254 
0.0062893354209 0.0063793282521 0.0064718698073 0.0065670533514 0.006665092523 0.0067659652038 0.0047603414053 0.0048205941037 0.004881782675 
0.0049440187335 0.0050071287776 0.005071673731 0.0051375189262 0.0052047001307 0.005273252515 0.0053431634053 0.0054144017628 0.0054869203455 
0.0055606768912 0.0056356286648 0.0057116789353 0.0057890250598 0.0058675849341 0.005947462061 0.0060287648629 0.0061117042445 0.0061963443197 
0.0062829126704 0.0063716042182 0.0064625864863 0.006555967978 0.0066519004605 0.0047073572215 0.0047660182379 0.0048254705403 0.0048860997827 
0.0049479778788 0.0050112118179 0.0050756031165 0.0051416919863 0.0052092328812 0.0052781879019 0.0053485022419 0.0054201002069 0.0054929096408 
0.0055668557746 0.0056418802511 0.0057178705131 0.0057950344098 0.0058732697624 0.0059526635765 0.0060333671169 0.0061154167557 0.0061990142753 
0.0062843518614 0.0063715604662 0.0064608157051 0.0065522403572 0.004663721849 0.0047204221914 0.0047783019224 0.0048376767076 0.0048981949412 
0.0049601720748 0.0050236883619 0.0050884669546 0.0051550425962 0.0052230552131 0.0052924385922 0.0053631182504 0.0054349901402 0.0055079579755 
0.0055819454521 0.005656892163 0.0057326631895 0.0058094712428 0.0058872082174 0.005965995773 0.0060458415788 0.0061268920152 0.0062093125744 
0.0062932551144 0.0063788859962 0.00646635998 0.0046287334453 0.004683833047 0.0047402737065 0.0047980544353 0.0048575780355 0.0049183926551 
0.0049808351861 0.005044854062 0.005110433321 0.00517725079 0.0052457232458 0.0053154618349 0.0053863745225 0.0054583506282 0.0055312987708 
0.0056051411946 0.0056797194089 0.0057552118409 0.0058314847359 0.0059085645378 0.0059865603749 0.0060654571165 0.0061454227935 0.0062265913435 
0.0063091185411 0.0063931649617 0.0046013798666 0.0046552328714 0.0047104107515 0.0047670037874 0.0048251604365 0.0048848496462 0.0049464879457 
0.0050095421 0.0050741512947 0.0051402461155 0.0052077242129 0.0052762334434 0.0053461546027 0.005417093511 0.0054889698765 0.0055616942039 
0.0056352101683 0.0057094342483 0.0057842674458 0.0058598679989 0.0059362235292 0.0060132853769 0.0060911865792 0.0061700309687 0.0062499531005 
0.0063311051574 0.0045805025759 0.0046332469378 0.0046873554613 0.0047429401898 0.0048000723381 0.0048588706663 0.0049193119641 0.0049813819024 