# vtk DataFile Version 5.1
vtk output
ASCII
DATASET STRUCTURED_POINTS
DIMENSIONS 26 26 26
SPACING 0.08 0.08 0.08
ORIGIN -1 -1 0.5
POINT_DATA 17576
FIELD FieldData 3
potential 1 17576 double
0.43638596767 0.43639099824 0.43639296571 0.43639193202 0.43638785059 0.43638111298 0.43637140568 0.43635939629 0.43634577188 
0.43633162321 0.43631754683 0.43630497994 0.43629509575 0.43628944167 0.43628762095 0.43629007402 0.43629690459 0.43630725381 
0.43632026121 0.43633502496 0.43635045019 0.43636536169 0.43638002505 0.43639358458 0.43640564141 0.43641598813 0.40484230905 
0.40484866464 0.40485260738 0.40485439055 0.40485379117 0.40485070616 0.40484600045 0.40483884616 0.40483017365 0.40482081762 
0.40481108127 0.40480223771 0.40479490518 0.40479064727 0.40478916394 0.40479063579 0.40479538356 0.40480286609 0.40481258914 
0.40482370599 0.40483559539 0.40484724152 0.40485906324 0.40487013847 0.40488030737 0.40488927521 0.3743686359 0.37437635544 
0.37438230858 0.37438672533 0.37438939306 0.37439002869 0.37438945068 0.3743866307 0.37438207312 0.37437693048 0.37437078163 
0.37436485072 0.37435958448 0.37435655959 0.37435488099 0.37435548409 0.37435843158 0.37436346104 0.3743703028 0.3743783393 
0.37438716761 0.37439594854 0.37440517625 0.37441407954 0.37442246081 0.37443014213 0.34545450375 0.34546353162 0.34547150747 
0.34547844857 0.34548412048 0.34548835705 0.34549131898 0.34549233249 0.34549152688 0.34548980983 0.34548664307 0.345483065 
0.34547944496 0.34547715629 0.34547524737 0.3454751226 0.34547646543 0.34547936805 0.34548373841 0.34548913253 0.34549531288 
0.3455015755 0.34550850726 0.34551544144 0.34552220734 0.34552863669 0.31856211536 0.31857240798 0.31858231716 0.31859162626 
0.31860004402 0.31860745838 0.31861371591 0.31861810206 0.31862094717 0.31862181799 0.31862116938 0.31861951602 0.31861751351 
0.31861543576 0.31861336145 0.31861233076 0.31861237755 0.31861352965 0.318615689 0.31861877827 0.31862264945 0.31862673128 
0.3186315888 0.31863671337 0.31864201923 0.31864730393 0.29408904172 0.29410067032 0.29411241063 0.29412379438 0.29413477173 
0.29414497217 0.29415421881 0.29416140892 0.29416722355 0.29417064719 0.29417228779 0.29417216022 0.29417120485 0.29416935684 
0.29416735686 0.29416575322 0.29416436372 0.29416401588 0.29416430392 0.29416537863 0.29416721185 0.29416932665 0.29417236121 
0.29417586839 0.29417981174 0.29418403231 0.27234115396 0.27235400893 0.27236732629 0.27238072527 0.27239395396 0.27240664101 
0.27241816353 0.27242823066 0.2724364973 0.27244212205 0.27244562163 0.2724469319 0.27244700174 0.27244552787 0.27244341773 
0.27244110487 0.27243883804 0.27243711571 0.27243578834 0.27243511237 0.27243514098 0.27243549977 0.27243688449 0.27243892257 
0.27244157841 0.27244479236 0.25352773153 0.25354168341 0.25355644473 0.2535715775 0.25358683487 0.25360160853 0.25361536318 
0.25362759376 0.25363792982 0.25364543916 0.25365057611 0.25365322691 0.25365417978 0.25365322834 0.25365111186 0.25364839564 
0.2536454097 0.25364237782 0.25363976658 0.25363755724 0.25363602492 0.25363478303 0.25363467505 0.25363534383 0.25363682416 
0.25363904038 0.23777580106 0.2377908258 0.23780681445 0.23782343293 0.23784043493 0.23785697155 0.23787239176 0.23788652892 
0.23789859458 0.23790768321 0.23791426239 0.23791809176 0.23791998287 0.23791959179 0.23791776384 0.23791473491 0.23791107209 
0.23790732632 0.23790348469 0.23790009411 0.2378971738 0.23789453451 0.23789306411 0.23789248251 0.23789281589 0.23789414847 
0.22515298903 0.22516876934 0.225185801 0.2252036684 0.2252220524 0.22524003165 0.22525688352 0.22527262436 0.22528584014 
0.22529640317 0.22530406032 0.22530896337 0.22531176071 0.22531204918 0.22531059893 0.22530762586 0.22530380842 0.22529935791 
0.2252946855 0.22529025478 0.22528617312 0.22528231574 0.22527963432 0.22527788471 0.22527719936 0.22527763682 0.215688545 
0.21570489672 0.21572279028 0.21574167127 0.21576104613 0.21578014468 0.21579804294 0.21581484777 0.2158290898 0.21584068115 
0.21584930301 0.21585517689 0.21585894417 0.21585989665 0.21585921507 0.21585631923 0.21585249388 0.21584779076 0.21584259681 
0.21583737476 0.21583244829 0.21582758774 0.21582385473 0.21582106699 0.21581942703 0.21581902044 0.20939063431 0.20940756285 
0.20942600742 0.20944565655 0.20946566906 0.20948551476 0.20950416164 0.20952117553 0.20953659491 0.20954892435 0.20955835301 
0.20956547566 0.20956964026 0.2095713794 0.20957138447 0.20956903965 0.20956545428 0.20956065422 0.20955543564 0.20954980182 
0.20954428285 0.20953865572 0.20953407625 0.20953040167 0.20952789676 0.20952670159 0.20625843435 0.20627557419 0.20629434291 
0.20631437389 0.20633478934 0.20635488508 0.20637402191 0.2063914147 0.20640741619 0.20642007588 0.20643008698 0.20643787824 
0.20644280462 0.20644530896 0.2064460777 0.20644442322 0.20644138098 0.20643709334 0.20643192471 0.20642618229 0.20642029298 
0.20641433568 0.20640910955 0.20640476122 0.20640152516 0.20639961258 0.2062883164 0.20630528966 0.2063242524 0.2063444076 
0.20636483361 0.20638497155 0.2064041427 0.20642161772 0.20643786291 0.20645063832 0.20646104275 0.20646937354 0.20647493955 
0.20647818543 0.20647976378 0.20647889055 0.20647657942 0.20647294715 0.20646826358 0.20646285096 0.20645699494 0.20645081511 
0.20644537241 0.20644054852 0.20643676112 0.20643430581 0.20947765557 0.20949434426 0.20951303016 0.20953295629 0.20955313674 
0.20957295969 0.20959186153 0.20960908605 0.20962519823 0.20963800434 0.20964861283 0.20965732341 0.209663407 0.20966747326 
0.20966975639 0.20966974429 0.20966828776 0.20966547666 0.20966140907 0.20965675739 0.20965139835 0.20964541216 0.20964002272 
0.20963507037 0.20963094504 0.20962804074 0.21582433705 0.21584074258 0.21585891651 0.21587828489 0.21589792708 0.21591706933 
0.21593537846 0.21595226962 0.21596785616 0.21598045335 0.21599107849 0.21600002215 0.21600653019 0.21601119464 0.21601435653 
0.21601514695 0.21601466514 0.21601286243 0.2160099069 0.21600598276 0.2160013981 0.21599602132 0.21599091934 0.21598620053 
0.21598202632 0.21597872778 0.22532469674 0.22534037543 0.22535770659 0.22537621228 0.22539486665 0.22541313897 0.22543055552 
0.22544669087 0.22546167042 0.22547390818 0.22548433579 0.22549336752 0.22550018547 0.22550541162 0.22550932369 0.22551128979 
0.2255115855 0.2255108704 0.22550907685 0.22550625717 0.22550267877 0.22549823318 0.22549383534 0.22548960957 0.22548572924 
0.22548248453 0.23796499359 0.23797964178 0.23799589765 0.23801321577 0.23803067145 0.2380476806 0.23806394371 0.2380790525 
0.23809317933 0.23810485083 0.23811543286 0.23812396426 0.23813100047 0.23813669418 0.23814131009 0.23814417964 0.23814554153 
0.2381460639 0.23814552698 0.23814402122 0.23814165483 0.2381383777 0.23813498937 0.23813148187 0.23812828328 0.2381254223 
0.25371073634 0.25372415822 0.25373902773 0.25375490667 0.25377083709 0.25378637129 0.25380131773 0.25381503403 0.25382771842 
0.25383917218 0.25384917099 0.25385751523 0.25386464896 0.25387074195 0.25387604047 0.25387979541 0.25388227629 0.25388406351 
0.25388489007 0.25388480923 0.25388389605 0.25388200583 0.25387988151 0.25387747019 0.25387492212 0.25387293092 0.27248979479 
0.27250187016 0.2725150095 0.27252918432 0.27254331788 0.2725572512 0.27257045251 0.27258266677 0.27259415095 0.27260459944 
0.27261398164 0.27262199118 0.27262913466 0.27263566127 0.27264152523 0.27264624745 0.27264983464 0.2726529478 0.27265523238 
0.27265674548 0.27265742134 0.27265707437 0.27265643675 0.27265535044 0.27265388129 0.272652742 0.29417111135 0.29418157774 
0.29419287648 0.29420487941 0.29421712127 0.29422919285 0.29424034838 0.29425090583 0.2942609729 0.29427031788 0.29427892768 
0.29428654018 0.29429358871 0.29430049592 0.29430693687 0.29431258127 0.29431739377 0.29432193137 0.29432579682 0.29432897898 
0.29433152763 0.29433275723 0.29433374402 0.29433413791 0.29433399553 0.29433391646 0.318542782 0.31855105101 0.31856061521 
0.3185703425 0.31858039987 0.31859025327 0.31859935927 0.31860798934 0.31861640771 0.3186245083 0.31863217359 0.31863923667 
0.31864613848 0.31865329104 0.31866043132 0.31866709466 0.31867358455 0.31867932155 0.31868490002 0.31868988034 0.31869425819 
0.31869736638 0.3187000808 0.31870191915 0.31870341247 0.31870451137 0.3452981846 0.3453045341 0.34531193478 0.34531932266 
0.34532678226 0.34533437535 0.34534131027 0.34534771071 0.34535429801 0.34536140294 0.34536750098 0.3453738836 0.345380755 
0.34538798587 0.3453958522 0.34540364674 0.34541156604 0.3454190292 0.34542654248 0.34543350115 0.34543979579 0.34544506701 
0.34544951509 0.34545307305 0.34545610781 0.34545816743 0.37404272404 0.37404707897 0.37405211756 0.37405701468 0.37406206276 
0.37406687417 0.37407129871 0.37407540687 0.3740799201 0.37408528656 0.37409009848 0.37409566946 0.37410230512 0.3741098283 
0.37411853605 0.3741276203 0.3741372144 0.37414666266 0.37415629497 0.37416544807 0.37417391626 0.37418124603 0.37418762261 
0.37419295614 0.37419756589 0.37420093596 0.40432211079 0.40432443405 0.40432724344 0.40432945652 0.40433175813 0.40433379657 
0.40433549959 0.40433700487 0.40433917997 0.40434257313 0.40434596857 0.40435055277 0.40435687571 0.40436478254 0.40437446649 
0.4043850882 0.40439667461 0.40440840357 0.40442047214 0.40443207453 0.40444287596 0.40445247686 0.40446079155 0.40446795392 
0.40447413291 0.40447824525 0.4356629106 0.43566319191 0.43566353028 0.43566329639 0.43566255481 0.43566140776 0.43566029816 
0.43565897678 0.43565850546 0.4356596605 0.43566133708 0.43566482208 0.43567082251 0.43567919392 0.4356900915 0.43570259726 
0.43571658652 0.4357309909 0.43574584455 0.43576023239 0.43577364034 0.43578562747 0.43579602578 0.43580498908 0.43581263554 
0.43581794484 0.43540639188 0.43541320756 0.43541711529 0.4354181938 0.43541640959 0.435412165 0.43540514057 0.43539597956 
0.43538530198 0.43537407276 0.43536269812 0.43535249815 0.43534399402 0.43533888725 0.43533651269 0.4353372999 0.43534146761 
0.43534837686 0.43535743013 0.43536798168 0.43537915412 0.43538993518 0.43540069878 0.43541065557 0.43541943808 0.43542684872 
0.40755830827 0.40756593381 0.40757122628 0.40757442434 0.40757532792 0.40757385408 0.40757088202 0.407565596 0.40755890561 
0.40755157469 0.40754377671 0.40753660197 0.40753047234 0.40752663388 0.40752508036 0.40752556245 0.40752859403 0.40753376795 
0.40754075925 0.40754889643 0.40755771257 0.40756631589 0.40757517031 0.40758354068 0.40759117266 0.4075978306 0.38063122379 
0.38063975766 0.380646498 0.38065170204 0.38065515304 0.38065660401 0.38065692729 0.38065513244 0.38065175639 0.38064793135 
0.38064315449 0.3806385097 0.38063428386 0.38063189761 0.38063035293 0.38063054151 0.38063254441 0.38063617278 0.38064126142 
0.38064730914 0.38065402124 0.3806606511 0.38066775547 0.38067463459 0.38068110245 0.38068700739 0.35504385778 0.35505334299 
0.35506153974 0.35506867703 0.35507447355 0.35507881001 0.35508192295 0.35508322504 0.35508292375 0.35508195272 0.35507973012 
0.3550771822 0.35507488509 0.35507301947 0.35507157304 0.35507153438 0.35507257714 0.35507482246 0.35507823698 0.35508245097 
0.35508730097 0.35509215092 0.35509764162 0.35510314889 0.35510853147 0.35511364113 0.33118406728 0.33119435504 0.33120408772 
0.33121305398 0.33122099176 0.33122785371 0.33123359276 0.33123762061 0.33124038878 0.33124153126 0.33124146566 0.33124068412 
0.33123964154 0.33123848764 0.33123719132 0.33123680565 0.3312369828 0.33123810194 0.33123997478 0.33124255997 0.33124575995 
0.33124905203 0.3312530422 0.33125725678 0.33126163545 0.33126599543 0.30939004133 0.30940130215 0.30941243549 0.3094229806 
0.30943292657 0.30944198796 0.30945012359 0.30945639272 0.30946163199 0.30946492369 0.30946688354 0.30946745827 0.3094674596 
0.30946690623 0.30946572294 0.30946503919 0.30946438076 0.30946454267 0.30946511577 0.30946626757 0.30946799762 0.3094698616 
0.30947252748 0.30947557608 0.30947896877 0.30948263574 0.28993608406 0.28994823791 0.28996055372 0.28997263512 0.28998436415 
0.28999539477 0.29000529319 0.29001396296 0.29002123331 0.29002639021 0.29002994716 0.29003181567 0.29003281899 0.29003251328 
0.29003167157 0.29003060806 0.29002949138 0.29002873845 0.29002819786 0.29002810481 0.29002853862 0.29002912571 0.29003058705 
0.29003257105 0.29003505997 0.29003800407 0.27302818312 0.27304112595 0.27305452746 0.2730679647 0.27308125969 0.27309393358 
0.27310563747 0.27311607994 0.27312507534 0.27313181664 0.27313679171 0.27313984841 0.27314167458 0.27314193492 0.27314123828 
0.27314002334 0.27313851571 0.27313686176 0.27313545724 0.27313430913 0.27313363437 0.27313305144 0.27313342802 0.27313441537 
0.27313606114 0.27313829716 0.25880993431 0.25882368316 0.25883799266 0.25885256005 0.25886722686 0.25888129774 0.25889445031 
0.25890637328 0.2589168301 0.25892491424 0.25893111591 0.25893520343 0.25893786785 0.25893866655 0.25893832672 0.25893696162 
0.25893530601 0.25893297891 0.25893073912 0.2589287861 0.25892712734 0.25892555351 0.25892494827 0.25892503602 0.25892584985 
0.25892747173 0.24737501938 0.24738928667 0.24740436089 0.24741987362 0.24743561585 0.24745084221 0.2474650506 0.24747847879 
0.24748989361 0.24749926863 0.24750638915 0.24751137876 0.24751481916 0.24751621584 0.24751623967 0.24751500461 0.24751305713 
0.24751053361 0.24750775 0.2475050995 0.24750264062 0.24750021537 0.24749875557 0.24749801798 0.247498098 0.24749911385 
0.23877993388 0.23879457143 0.23881027314 0.23882655122 0.23884304593 0.23885918307 0.23887426747 0.23888862053 0.23890094656 
0.23891121263 0.23891915909 0.23892499076 0.2389291559 0.23893117139 0.23893187935 0.23893068935 0.23892879043 0.2389261367 
0.2389230341 0.23891985209 0.23891684859 0.23891374663 0.23891156077 0.23891008338 0.23890953371 0.23890995858 0.2330561759 
0.23307122805 0.23308727757 0.23310414998 0.23312111347 0.23313785678 0.23315360777 0.23316855709 0.23318153609 0.23319247389 
0.23320112536 0.23320805793 0.2332125689 0.23321514669 0.23321640654 0.23321566798 0.23321396377 0.23321124005 0.23320820274 
0.23320477396 0.23320140153 0.23319779568 0.23319504331 0.23319299432 0.23319185135 0.23319174743 0.23021966354 0.23023467364 
0.23025106206 0.2302681718 0.23028544002 0.2303023871 0.23031860639 0.23033347491 0.23034748179 0.23035872306 0.23036789286 
0.2303753922 0.23038053434 0.23038371654 0.2303855766 0.23038538854 0.23038409341 0.23038180792 0.23037881303 0.23037533665 
0.2303717242 0.23036796385 0.23036481771 0.23036233848 0.2303607248 0.23036015369 0.23027573339 0.23029064176 0.23030702124 
0.23032417862 0.23034143087 0.23035843649 0.23037473181 0.23038974864 0.23040404273 0.23041541501 0.23042494944 0.23043291473 
0.23043856229 0.23044235487 0.23044485117 0.23044524157 0.23044450276 0.23044274552 0.23044011451 0.23043694349 0.23043338995 
0.23042951245 0.23042629018 0.23042353186 0.23042158896 0.23042070381 0.23322228851 0.23323715338 0.23325322453 0.23327017154 
0.23328731797 0.23330400035 0.23332013691 0.2333350145 0.23334926495 0.23336071904 0.23337046175 0.2333787617 0.2333848533 
0.2333893345 0.23339234361 0.23339340896 0.23339333285 0.23339217683 0.23339016446 0.2333874414 0.23338427394 0.23338061279 
0.23337750058 0.23337472385 0.2333726131 0.23337128546 0.23905063127 0.23906500211 0.23908071258 0.23909707653 0.23911370855 
0.23912995675 0.23914566794 0.23916036099 0.23917422317 0.23918555291 0.23919534642 0.23920386138 0.23921030866 0.23921527934 
0.23921900163 0.23922067747 0.23922135886 0.23922098146 0.23921969407 0.23921765338 0.23921512703 0.23921192302 0.23920905989 
0.23920654424 0.23920445999 0.23920305456 0.24774132735 0.24775506491 0.24776996963 0.24778570617 0.24780154063 0.24781713484 
0.24783217298 0.24784630667 0.24785972849 0.24787081332 0.24788047066 0.24788908068 0.24789579194 0.24790123723 0.24790555781 
0.24790822475 0.24790945825 0.24790993346 0.24790955145 0.24790836017 0.24790660401 0.24790412058 0.24790182733 0.24789972334 
0.24789791933 0.24789661608 0.25925944377 0.25927232031 0.25928632532 0.25930112229 0.25931601897 0.25933062606 0.25934477881 
0.25935811672 0.25937088889 0.2593815497 0.25939144701 0.25939958719 0.2594064918 0.25941233624 0.25941722431 0.25942062237 
0.25942272519 0.2594241735 0.25942477609 0.25942474771 0.25942378521 0.2594222227 0.2594206899 0.25941912672 0.25941788879 
0.25941691369 0.27354542059 0.27355730751 0.27357019634 0.27358385903 0.27359755951 0.27361110179 0.27362417124 0.27363641303 
0.27364838281 0.27365855894 0.27366798505 0.27367598975 0.27368298592 0.27368917985 0.2736946245 0.27369874431 0.2737017486 
0.27370422296 0.27370590918 0.27370686813 0.27370717861 0.27370669021 0.27370612671 0.27370540028 0.27370460792 0.27370436252 
0.29050359555 0.29051443673 0.29052593841 0.29053809033 0.29055056968 0.2905628183 0.29057457583 0.29058562588 0.29059621731 
0.29060601783 0.29061496163 0.29062270423 0.29062972173 0.29063624057 0.29064220537 0.29064713313 0.29065103595 0.2906545855 
0.29065744268 0.29065968009 0.29066124472 0.29066195616 0.29066254024 0.29066281906 0.29066282224 0.29066314511 0.30998923267 
0.30999882185 0.31000889116 0.31001949804 0.31003034959 0.31004116707 0.31005127741 0.31006103227 0.31007047842 0.31007940079 
0.31008773294 0.31009517283 0.31010212301 0.31010898344 0.31011542294 0.31012111115 0.31012601977 0.3101307365 0.31013487477 
0.31013843254 0.31014153526 0.31014345998 0.31014529996 0.31014671713 0.31014768988 0.31014882132 0.3317970535 0.33180484834 
0.3318136413 0.33182246916 0.33183163427 0.33184070995 0.33184917184 0.33185740292 0.33186553065 0.33187347991 0.3318810593 
0.33188806881 0.33189491595 0.33190198902 0.3319090211 0.33191555315 0.33192190791 0.33192753408 0.33193307981 0.33193808623 
0.33194262672 0.33194604469 0.33194924101 0.33195168143 0.33195393108 0.33195589312 0.35565572008 0.35566202812 0.3556691598 
0.35567618029 0.35568344367 0.35569061817 0.35569742236 0.35570381752 0.3557104956 0.35571774284 0.35572398702 0.35573046589 
0.35573735802 0.35574447699 0.3557521188 0.3557595639 0.35576707646 0.35577410454 0.35578120276 0.35578781399 0.35579386881 
0.35579903693 0.35580353968 0.35580731331 0.35581070965 0.35581325681 0.38123396069 0.38123872803 0.38124402402 0.38124911827 
0.38125438561 0.38125949459 0.38126431549 0.38126890381 0.38127393601 0.38127980874 0.38128505078 0.38129090779 0.38129763259 
0.381305013 0.38131334641 0.38132184885 0.38133070441 0.381339326 0.38134811467 0.38135647397 0.38136422279 0.38137103353 
0.38137682386 0.38138215531 0.38138671912 0.38139018829 0.40815562079 0.40815883526 0.4081624418 0.40816544384 0.40816857425 
0.40817152216 0.40817420013 0.40817674217 0.40817994809 0.40818429033 0.40818839234 0.40819358356 0.40820010383 0.40820782796 
0.40821694938 0.40822666921 0.40823710767 0.40824750767 0.40825821029 0.40826849037 0.40827808535 0.40828664304 0.40829410873 
0.40830061841 0.40830633234 0.40831015025 0.43602096388 0.4360226231 0.4360243327 0.43602550736 0.43602625368 0.43602669411 
0.43602722315 0.43602758566 0.43602875528 0.43603140685 0.43603431645 0.43603864413 0.4360449823 0.43605311527 0.43606319725 
0.43607437507 0.43608664992 0.43609911111 0.43611195926 0.43612437364 0.43613597028 0.4361463536 0.43615538848 0.43616322771 
0.43616996561 0.43617457868 0.43394242053 0.43395104323 0.43395693793 0.43396015476 0.43396067825 0.43395890907 0.43395450472 
0.43394806699 0.43394013768 0.43393156016 0.43392257722 0.43391431096 0.43390708605 0.43390242874 0.43389957672 0.43389895253 
0.43390085515 0.43390480712 0.43391041115 0.43391722666 0.43392456197 0.43393155399 0.43393868423 0.43394523731 0.43395088832 
0.43395561558 0.40935277062 0.40936174591 0.40936846376 0.40937316213 0.40937567748 0.40937590911 0.40937473996 0.40937134339 
0.40936658788 0.40936116036 0.4093551204 0.40934941169 0.40934430801 0.40934106738 0.40933915351 0.40933874862 0.40934025789 
0.40934337647 0.40934791239 0.40935333839 0.40935932051 0.40936508027 0.40937114419 0.40937690615 0.40938208419 0.4093864888 
0.38555053806 0.38555999238 0.38556765939 0.38557380424 0.38557822502 0.38558069696 0.38558210828 0.3855814875 0.38557936677 
0.38557684029 0.3855733312 0.38556981352 0.38556645723 0.38556456686 0.38556316256 0.38556282654 0.38556392978 0.38556624843 
0.38556970098 0.38557388347 0.38557859479 0.38558317227 0.38558823835 0.38559314429 0.38559773887 0.38560189384 0.36289822731 
0.36290824108 0.36291690177 0.36292447101 0.36293064511 0.36293540911 0.36293899457 0.36294084004 0.36294122111 0.36294105436 
0.36293971676 0.36293805053 0.36293646402 0.36293524319 0.36293424231 0.36293402466 0.36293468754 0.36293624505 0.36293870357 
0.36294175529 0.36294530015 0.36294876263 0.36295283995 0.3629569048 0.36296093568 0.36296473016 0.34172973089 0.34174019013 
0.34174997856 0.34175889909 0.34176671926 0.34177342836 0.34177908398 0.34178313006 0.34178570137 0.34178762923 0.34178814195 
0.3417880581 0.34178774733 0.34178725939 0.34178648486 0.341786419 0.34178666728 0.34178762353 0.34178912097 0.34179112801 
0.34179361062 0.34179608004 0.34179917801 0.34180246277 0.34180589796 0.34180932056 0.32233945362 0.32235056027 0.3223613716 
0.32237144553 0.32238081009 0.32238924461 0.32239679699 0.32240261996 0.3224076357 0.32241097718 0.32241325821 0.32241438392 
0.32241508386 0.32241528171 0.32241481335 0.32241475002 0.32241455647 0.32241500294 0.32241568119 0.3224167687 0.32241828591 
0.32241981449 0.32242204627 0.32242458573 0.3224274158 0.32243047446 0.3049742283 0.30498591738 0.30499758691 0.30500884335 
0.30501960967 0.30502952952 0.30503842222 0.30504625152 0.30505294543 0.30505785873 0.30506151757 0.3050638044 0.30506546952 
0.30506621642 0.30506601949 0.30506582253 0.30506549444 0.3050654082 0.30506539228 0.30506567291 0.30506633349 0.30506701246 
0.30506844772 0.30507028692 0.3050725517 0.30507518697 0.28982994053 0.2898421729 0.28985460843 0.28986686612 0.28987881478 
0.28989008427 0.2899004009 0.28990967376 0.28991779953 0.28992404981 0.28992893446 0.28993226349 0.2899347186 0.28993582422 
0.2899361237 0.28993596908 0.28993551304 0.28993484631 0.28993432526 0.28993392846 0.28993386657 0.289933755 0.28993446361 
0.28993565132 0.28993737338 0.2899395705 0.27705395542 0.27706676263 0.27707984145 0.27709292848 0.27710594011 0.27711829199 
0.27712979322 0.27714031427 0.27714962318 0.27715702807 0.27716297121 0.27716722561 0.27717042878 0.27717206439 0.27717277874 
0.27717260799 0.27717219929 0.2771711144 0.27717005315 0.27716917688 0.27716846905 0.27716770464 0.27716775857 0.27716835406 
0.27716953336 0.27717135805 0.26675204433 0.26676519882 0.26677882072 0.26679260969 0.26680644863 0.26681971645 0.26683205645 
0.26684369363 0.2668539813 0.2668625238 0.26686920917 0.26687425498 0.26687814633 0.26688033485 0.26688142296 0.26688144601 
0.26688087399 0.26687977392 0.26687839957 0.26687709205 0.26687587253 0.26687455427 0.26687404838 0.2668741006 0.26687479939 
0.26687626067 0.25899597285 0.25900933379 0.25902336111 0.25903775757 0.25905215762 0.25906615147 0.25907921711 0.25909179535 
0.2591027126 0.25911199973 0.2591194302 0.25912519785 0.25912971631 0.25913244887 0.25913418107 0.2591342545 0.25913378724 
0.25913264729 0.2591311323 0.25912949609 0.25912795939 0.25912622223 0.2591252504 0.25912481891 0.25912513062 0.2591262224 
0.25383170942 0.25384518839 0.2538594609 0.25387427212 0.25388900667 0.25390349783 0.25391712648 0.25393021958 0.25394173527 
0.2539516033 0.25395963975 0.25396641081 0.25397110346 0.25397437659 0.25397658372 0.25397706024 0.25397677862 0.25397592246 
0.25397423995 0.25397248268 0.25397075978 0.253968712 0.25396739239 0.25396661468 0.25396655425 0.25396732466 0.25128561025 
0.25129912447 0.25131364084 0.25132859863 0.25134356105 0.25135819955 0.25137225834 0.25138524338 0.25139773312 0.25140787686 
0.2514163829 0.25142364204 0.2514288776 0.25143264504 0.25143535035 0.25143629141 0.25143635024 0.25143560285 0.25143428154 
0.25143253067 0.25143066005 0.25142859729 0.2514270518 0.25142603009 0.25142569203 0.25142618417 0.2513696387 0.25138300563 
0.25139745787 0.25141244494 0.2514273723 0.25144207086 0.25145622311 0.25146937835 0.25148202976 0.25149243839 0.25150127818 
0.25150894483 0.25151466617 0.25151887614 0.2515221021 0.25152350059 0.2515240111 0.25152370447 0.25152268256 0.25152120267 
0.25151945558 0.25151733172 0.25151582867 0.25151465144 0.2515141607 0.25151446913 0.25408229314 0.2540956314 0.2541097939 
0.25412456243 0.25413943089 0.2541538641 0.25416792666 0.25418101026 0.25419380821 0.25420418953 0.25421323421 0.25422119857 
0.25422729474 0.25423206972 0.2542357146 0.25423765437 0.2542386898 0.25423885405 0.25423847115 0.25423724438 0.25423579905 
0.25423389974 0.25423253084 0.25423142327 0.25423084912 0.25423087603 0.25941025567 0.25942316505 0.25943702782 0.25945129847 
0.2594657399 0.25947984117 0.25949360582 0.2595066122 0.25951911363 0.25952942937 0.25953854747 0.25954671126 0.25955311015 
0.25955831716 0.25956250776 0.25956493718 0.25956657412 0.25956735444 0.25956740507 0.25956685547 0.2595659378 0.25956441834 
0.25956326338 0.25956242214 0.25956191964 0.25956194503 0.26732479104 0.26733716316 0.26735033925 0.26736411457 0.26737791143 
0.26739153289 0.26740475924 0.2674173749 0.26742955833 0.26743971635 0.26744874547 0.2674570094 0.26746363592 0.26746923707 
0.26747393866 0.26747717772 0.26747922085 0.26748067198 0.26748143941 0.26748155466 0.26748123817 0.26748029658 0.2674796042 
0.26747910853 0.26747886298 0.2674790068 0.27777833706 0.27779000411 0.27780245348 0.27781548188 0.27782854954 0.27784139868 
0.27785396618 0.27786595294 0.27787764077 0.27788748891 0.27789682736 0.27790464675 0.27791144628 0.27791737891 0.27792254794 
0.2779263976 0.27792911914 0.27793134822 0.27793288917 0.27793394792 0.27793421405 0.27793399575 0.27793389267 0.27793380318 
0.27793383598 0.27793444972 0.29069804594 0.29070892853 0.29072049031 0.29073263383 0.29074476773 0.2907568147 0.29076854502 
0.29077965942 0.29079072246 0.29080010157 0.29080919249 0.29081692013 0.29082380235 0.29083003883 0.29083566286 0.29084009538 
0.29084354337 0.29084657367 0.29084898982 0.29085079517 0.29085208548 0.2908526999 0.29085334143 0.29085389127 0.29085441694 
0.29085530482 0.30597825032 0.3059883385 0.3059988326 0.3060097504 0.30602095606 0.30603201731 0.30604272378 0.3060529189 
0.30606280782 0.30607212027 0.30608068941 0.30608822242 0.30609513824 0.30610165203 0.30610772716 0.30611280217 0.30611696736 
0.30612087624 0.30612418062 0.30612702009 0.30612929006 0.30613082838 0.30613235008 0.30613365669 0.30613474701 0.30613616162 
0.32347277491 0.32348190355 0.32349125598 0.32350100208 0.32351095757 0.32352093595 0.32353032464 0.32353949788 0.32354850383 
0.32355711222 0.32356524352 0.32357254004 0.32357940213 0.3235861628 0.323592664 0.32359837186 0.3236033496 0.32360819341 
0.3236125349 0.32361638995 0.32361989642 0.32362234515 0.32362482138 0.32362677787 0.32362877119 0.32363075912 0.34298894989 
0.34299661339 0.34300505874 0.3430134215 0.34302209312 0.34303072121 0.34303882666 0.34304680375 0.34305477152 0.3430626327 
0.34307018171 0.34307714439 0.34308394396 0.34309094045 0.34309786307 0.34310426903 0.34311046887 0.34311596546 0.34312142452 
0.34312641433 0.34313105266 0.34313462741 0.34313814415 0.34314100776 0.34314377126 0.34314595491 0.3642854942 0.36429202759 
0.36429921617 0.36430620441 0.36431341564 0.36432056881 0.36432742735 0.36433393718 0.36434077608 0.36434819587 0.36435459719 
0.36436115236 0.36436806005 0.36437506535 0.36438248349 0.36438960706 0.36439672711 0.36440333054 0.36441001302 0.36441625817 
0.36442203054 0.36442702391 0.36443147701 0.36443532632 0.36443890677 0.36444171508 0.38707736047 0.38708273435 0.38708852219 
0.38709405049 0.38709974191 0.38710530993 0.38711063198 0.38711575212 0.38712131552 0.38712767404 0.38713330884 0.38713942559 
0.38714619465 0.38715342105 0.38716139304 0.3871693483 0.38717751375 0.38718536018 0.38719334864 0.38720094024 0.38720800115 
0.38721423726 0.38721959383 0.38722462533 0.38722902211 0.38723191408 0.41104428042 0.411048494 0.41105305367 0.41105713884 
0.41106106637 0.41106483481 0.41106867625 0.41107222715 0.41107640926 0.4110815943 0.41108637723 0.41109200148 0.41109865226 
0.41110617043 0.41111475635 0.41112364622 0.41113302583 0.41114222269 0.411151673 0.4111607068 0.41116915036 0.41117668705 
0.41118328167 0.41118911955 0.41119428384 0.41119770877 0.4358434269 0.4358465373 0.43584974524 0.43585234048 0.43585460069 
0.43585659801 0.4358587044 0.43586062642 0.43586326795 0.43586721771 0.43587108641 0.43587614812 0.43588270198 0.43589055679 
0.43589987617 0.43590986084 0.4359206102 0.43593134785 0.43594236493 0.4359529779 0.43596289221 0.43597175092 0.43597946062 
0.43598617726 0.43599198744 0.43599585291 0.43207326031 0.43208367614 0.43209150898 0.43209678441 0.43209957433 0.43210017833 
0.43209825031 0.43209434279 0.43208891847 0.43208271049 0.43207582539 0.4320692286 0.43206309806 0.43205882954 0.43205559269 
0.432053806 0.43205382402 0.43205528815 0.43205795226 0.43206153697 0.43206549092 0.43206912194 0.4320729711 0.43207641538 
0.43207916627 0.43208124164 0.41035865118 0.41036898857 0.41037722546 0.41038339825 0.4103875378 0.41038948266 0.41039009741 
0.41038853219 0.41038559701 0.41038193201 0.41037746215 0.41037305163 0.41036883398 0.41036612435 0.41036387242 0.41036270501 
0.41036290381 0.41036424189 0.41036655564 0.4103696589 0.4103730971 0.41037628833 0.41037981539 0.41038314058 0.4103860241 
0.410388442 0.38931663864 0.3893270765 0.38933572867 0.38934293122 0.38934842776 0.38935202704 0.38935461635 0.38935522459 
0.38935436295 0.38935308151 0.38935073805 0.38934821854 0.38934594588 0.38934399201 0.38934274078 0.38934197051 0.38934226906 
0.38934340004 0.38934537554 0.38934786436 0.38935074453 0.38935342737 0.38935659514 0.38935964825 0.38936247101 0.3893649812 
0.36926319757 0.36927384326 0.36928310785 0.36929126242 0.36929801248 0.36930338857 0.36930762317 0.36931017789 0.36931133397 
0.36931199179 0.36931148791 0.36931059866 0.36930966209 0.36930888825 0.36930807808 0.36930776278 0.36930803143 0.36930891754 