# vtk DataFile Version 5.1
vtk output
ASCII
DATASET STRUCTURED_POINTS
DIMENSIONS 26 26 26
SPACING 0.08 0.08 0.08
ORIGIN -1 -1 0.5
POINT_DATA 17576
FIELD FieldData 1
potential 1 17576 double
0.0018629618655 0.0018503522946 0.0018381609958 0.001826411822 0.0018150060719 0.0018042023399 0.0017937695035 0.0017836975131 0.0017739412448 
0.0017645429762 0.0017552611599 0.0017461268391 0.0017371152142 0.0017281091415 0.0017192582378 0.0017104335432 0.0017016528327 0.0016927633388 
0.0016838003447 0.0016747382446 0.0016655671301 0.0016562346809 0.0016468580439 0.0016374051133 0.0016278985257 0.0016183707893 0.0018424052012 
0.0018301505676 0.0018183657908 0.0018069607851 0.0017961550853 0.0017858902938 0.0017759669533 0.0017664062481 0.0017571240033 0.0017481529029 
0.0017391873515 0.0017302893779 0.0017214247818 0.0017124717035 0.0017035945516 0.0016947364768 0.001685756609 0.0016767058328 0.0016675653617 
0.0016583285389 0.0016489410228 0.0016395204855 0.0016300326516 0.0016204962012 0.0016109421224 0.0016013996206 0.0018139572129 0.0018021019614 
0.0017906597753 0.001779860057 0.0017695904367 0.0017598883677 0.0017505329732 0.0017415247056 0.0017328668206 0.0017242217302 0.0017156186118 
0.0017069938482 0.0016983135613 0.0016894579739 0.0016806069891 0.0016717125159 0.0016626620287 0.0016535087061 0.0016442526842 0.0016348986496 
0.0016254028506 0.0016158941716 0.0016063392917 0.001596762968 0.0015871963607 0.0015776761809 0.0017795760996 0.0017680451836 0.0017571973501 
0.0017469280431 0.0017372226404 0.0017281048356 0.0017193394772 0.0017109107891 0.0017027540121 0.0016945564375 0.0016863237687 0.0016779862171 
0.0016695114694 0.0016607873767 0.0016520576312 0.0016431249181 0.0016340535337 0.0016248522112 0.0016155365328 0.0016061216613 0.0015965689799 
0.0015870181175 0.0015774393355 0.0015678660774 0.001558324479 0.0015488558179 0.0017415852429 0.0017305193489 0.0017201774113 0.0017104559126 
0.0017013860705 0.0016928176327 0.001684626434 0.001676727426 0.0016690654875 0.0016612950196 0.0016534167092 0.0016453563893 0.001636981794 
0.0016285622214 0.0016198755146 0.0016109928007 0.0016019427324 0.001592741539 0.0015834140995 0.0015739265955 0.0015644230699 0.0015548726745 
0.0015453093372 0.0015357672361 0.001526284324 0.001516899239 0.0017021462729 0.001691676058 0.0016818566647 0.001672684049 0.00166420296 
0.0016561868683 0.001648544739 0.0016412536818 0.0016339324801 0.0016265415082 0.0016189719384 0.0016111646404 0.00160297255 0.0015946960413 
0.0015861287955 0.0015773212012 0.001568319322 0.0015591526636 0.0015498499076 0.0015403800174 0.001530904351 0.0015213910766 0.0015118784735 
0.0015024041374 0.0014930092133 0.0014837353592 0.0016634222691 0.0016534387821 0.0016441391507 0.0016355301367 0.0016275785984 0.0016200974357 
0.0016129578399 0.0016061055061 0.0015991669605 0.0015920928801 0.001584784548 0.0015771748757 0.0015692129913 0.0015610041343 0.0015525324468 
0.0015438084096 0.001534871613 0.0015257614552 0.0015165116748 0.0015070957296 0.0014976786829 0.0014882332118 0.0014788007331 0.0014694226302 
0.0014601409356 0.0014509344547 0.001626758319 0.0016172857117 0.0016084997155 0.001600456925 0.0015929826833 0.00158596333 0.0015792613203 
0.0015727822171 0.0015661519144 0.001559325299 0.0015522018743 0.0015448176725 0.0015369174732 0.0015288146778 0.001520428606 0.001511781983 
0.0015029172248 0.001493875612 0.0014846971868 0.001475353283 0.0014660188488 0.0014566656535 0.0014473373602 0.0014380772704 0.0014289310886 
0.0014198788874 0.0015932075046 0.0015841988997 0.0015759082258 0.001568358008 0.0015613538631 0.001554760026 0.0015484229719 0.0015422424705 
0.0015358496443 0.0015291944062 0.0015222178928 0.0015149384276 0.0015071233716 0.0014990924467 0.001490774378 0.0014821899371 0.0014733951368 
0.0014644257267 0.0014552565208 0.0014460696835 0.0014368333066 0.0014275890742 0.0014183830345 0.0014092596791 0.0014001956776 0.0013913825218 
0.0015633910538 0.0015548511792 0.0015470322714 0.0015399394839 0.0015333573144 0.0015271292386 0.0015211957458 0.0015151380737 0.0015089008748 
0.0015023697895 0.0014955384968 0.0014882585099 0.0014804883083 0.0014725005613 0.0014642252271 0.0014556889589 0.0014469495582 0.0014380484341 
0.0014289577791 0.0014198630447 0.0014107333534 0.0014016095139 0.0013925369156 0.001383562617 0.0013746641003 0.0013660324127 0.001537761181 
0.0015296689547 0.0015223584635 0.0015156132551 0.0015093989209 0.0015034746436 0.0014977590156 0.0014918634167 0.0014857387795 0.0014793306692 
0.0014724697001 0.0014652098447 0.0014574514819 0.0014494781261 0.0014412211333 0.0014327154468 0.0014240156767 0.0014151712679 0.0014061515804 
0.0013971486027 0.0013881266559 0.0013791274603 0.0013701970226 0.0013613073885 0.0013526532974 0.0013442104866 0.001516583704 0.0015089137651 
0.0015020062907 0.0014956586997 0.0014897218713 0.0014840245909 0.0014784855212 0.0014726929369 0.0014666102167 0.0014602144643 0.0014533499865 
0.0014459502892 0.0014382990431 0.0014303141676 0.0014220562024 0.0014135590695 0.0014048871966 0.0013960116317 0.0013871284901 0.0013782086398 
0.0013692911348 0.0013604133521 0.0013516239884 0.0013428921524 0.0013344129722 0.0013261612833 0.0015000149391 0.0014927367059 0.0014861905183 
0.001480157052 0.0014744564593 0.0014690505349 0.0014635058811 0.0014577548397 0.0014517294662 0.0014452489092 0.0014383445955 0.0014309019215 
0.0014232147617 0.0014152013741 0.0014069258395 0.0013984266192 0.0013897664965 0.0013809192974 0.0013720883562 0.0013632368427 0.0013544117121 
0.0013456511829 0.0013369201476 0.0013284170795 0.0013201095129 0.0013120398827 0.0014881576353 0.0014812933366 0.0014749906784 0.001469202779 
0.0014636974849 0.0014584014693 0.0014529000491 0.0014472046269 0.0014410730571 0.0014345343817 0.0014275658542 0.001420060612 0.0014123206209 
0.0014042650352 0.0013959612488 0.0013874474101 0.0013787875381 0.0013699593899 0.0013611663176 0.0013523773552 0.0013436289505 0.0013349687209 
0.0013263560472 0.0013179955119 0.0013098505397 0.0013019809494 0.0014810614757 0.0014744956403 0.0014684292771 0.001462846789 0.0014575734705 
0.0014522161219 0.0014467647135 0.0014409518867 0.0014347427831 0.0014281179984 0.0014210657573 0.0014134836651 0.0014056804926 0.0013975777453 
0.0013892398039 0.0013807057427 0.0013719582756 0.0013632190878 0.0013544484841 0.0013457063937 0.0013370284632 0.0013283769957 0.0013199561692 
0.0013117400658 0.001303741356 0.0012960221955 0.0014787199422 0.0014723786694 0.0014665166058 0.0014610600727 0.0014558365388 0.0014504680806 
0.0014449578765 0.0014390501054 0.0014327375716 0.0014260045179 0.0014188547347 0.0014111874795 0.0014033168058 0.0013951602303 0.0013867807211 
0.0013782250773 0.0013694698988 0.0013607378964 0.0013519941757 0.0013432868951 0.0013346648774 0.0013261023011 0.0013177719137 0.0013096518011 
0.0013017807991 0.0012942073189 0.001481118691 0.0014749015802 0.0014691999892 0.0014637553074 0.00145851823 0.0014531416594 0.0014474589358 
0.0014414273261 0.0014349844702 0.0014281314166 0.0014208678206 0.0014131123413 0.001405174558 0.0013969702593 0.0013885650888 0.0013799054802 
0.0013712330733 0.0013625082135 0.0013537848359 0.0013451085115 0.0013364641654 0.0013280243249 0.0013197668769 0.0013117355596 0.0013039708434 
0.0012965167894 0.0014879910884 0.0014818704381 0.0014762170796 0.0014708615606 0.0014654969812 0.001459927401 0.0014540958697 0.0014479050076 
0.0014413129305 0.0014343320124 0.0014268288837 0.0014191261215 0.0014111276333 0.0014028819005 0.0013944538658 0.0013857860055 0.0013771171549 
0.0013684079087 0.0013597222635 0.001351076543 0.0013424539382 0.0013340614542 0.0013258612629 0.0013178972994 0.0013102135169 0.0013028524979 
0.0014990599976 0.0014929620951 0.0014872705924 0.0014818832666 0.0014763152854 0.001470575385 0.0014645530418 0.0014581872906 0.0014514436955 
0.0014443194889 0.0014367112208 0.0014289336639 0.0014208838318 0.0014126100007 0.0014041731689 0.0013955085718 0.0013868728799 0.0013781873689 
0.0013695167251 0.0013608242371 0.0013523209084 0.0013439697526 0.0013358148307 0.0013279009939 0.0013202722792 0.0013129732881 0.001513787762 
0.0015076648913 0.0015018063421 0.0014962505333 0.0014904798708 0.0014845310173 0.0014782989185 0.0014717369088 0.0014648301843 0.0014575692228 
0.001449863993 0.0014420201993 0.0014339360185 0.0014256557722 0.0014171359875 0.0014086029971 0.0013999836079 0.0013913380387 0.0013826256368 
0.0013740607582 0.0013655993198 0.0013572869302 0.0013491708793 0.0013412930229 0.0013337008086 0.001326432321 0.001531287541 0.0015250069829 
0.0015191151543 0.0015131474738 0.0015071216843 0.0015009179648 0.0014944567618 0.0014876984511 0.0014806316155 0.0014732539954 0.0014654694361 
0.001457584056 0.0014494864928 0.0014412334353 0.0014327439313 0.0014242412128 0.0014156784934 0.001407092307 0.0013984398471 0.0013899301474 
0.0013815186784 0.0013732498046 0.0013651687785 0.0013573168741 0.0013497428744 0.0013424763245 0.0015502517313 0.0015437900291 0.0015375558241 
0.0015312921226 0.0015249733987 0.00151849663 0.0015117978749 0.0015048429769 0.0014976274121 0.0014901538996 0.0014823097116 0.0014744219255 
0.0014663404597 0.0014580176326 0.0014496887233 0.0014412615722 0.0014327846843 0.0014241965095 0.0014157077846 0.0014072702364 0.0013989163842 
0.0013907001658 0.0013826550668 0.0013748284439 0.0013672502026 0.0013599836936 0.0015689771887 0.0015622529785 0.0015555776431 0.0015489825043 
0.0015423497518 0.0015355927083 0.0015286614883 0.0015215253238 0.0015141844743 0.001506504647 0.001498783032 0.001490895957 0.0014828659428 
0.0014746178809 0.0014663862891 0.0014580677319 0.0014496990433 0.0014412222762 0.0014328406889 0.001424495453 0.0014162268322 0.0014080698064 
0.0014000597947 0.0013922578307 0.0013846915342 0.0013773920591 0.0015852880367 0.0015781644732 0.0015711315755 0.0015641908222 0.0015572430193 
0.0015502186846 0.0015430742324 0.0015358025915 0.001528366502 0.0015206289496 0.0015129193026 0.0015050876656 0.0014971498946 0.0014890218638 
0.0014809277008 0.0014727530482 0.0014644448484 0.0014561975339 0.0014479443798 0.0014397146777 0.0014315445573 0.0014234530622 0.0014155056811 
0.001407733729 0.00140017201 0.001392847574 0.0015969597666 0.0015894826274 0.0015821000744 0.0015748279239 0.0015675887648 0.0015603436159 
0.0015530203542 0.0015456150145 0.0015381238615 0.0015303887854 0.001522733667 0.0015150053686 0.0015071041523 0.0014992416495 0.0014913270567 
0.0014832527703 0.0014752162172 0.0014671441801 0.0014590508226 0.0014509511363 0.0014428962583 0.001434908707 0.0014270313688 0.0014192944814 
0.0014117438609 0.0014044334521 0.0016022687513 0.0015943589986 0.001586657826 0.0015791133768 0.0015716278763 0.0015641708432 0.0015567157304 
0.0015492420646 0.0015417436158 0.0015340594097 0.001526509326 0.0015189297894 0.0015112146347 0.0015035642023 0.0014958758936 0.0014880315898 
0.0014802207367 0.001472356825 0.0014644399406 0.0014565162262 0.0014485999991 0.0014407239194 0.0014329266428 0.0014252425189 0.0014177137737 
0.0014103930873 0.0020570051462 0.0020433614421 0.0020301001544 0.0020172378086 0.0020046714013 0.0019926591803 0.001980975702 0.0019696217566 
0.0019585667394 0.00194786761 0.0019372946596 0.0019268850183 0.0019166200709 0.0019063818234 0.0018963235821 0.0018863216081 0.0018764004162 
0.0018664143712 0.0018564042509 0.0018463475947 0.0018362348976 0.0018260118914 0.0018157917772 0.0018055373976 0.0017952655069 0.0017850022801 
0.0020377847697 0.002024459982 0.0020115569974 0.0019989774324 0.0019869363996 0.0019753772339 0.0019641101595 0.0019531737048 0.001942506357 
0.0019321634349 0.0019218573515 0.0019116603155 0.0019015418033 0.001891379621 0.0018813384929 0.0018713602365 0.0018613057523 0.0018512274935 
0.0018411079137 0.0018309403943 0.0018206692007 0.0018104090172 0.0018001210969 0.0017898204911 0.0017795312975 0.001769277168 0.0020126768683 
0.0019997079026 0.0019870883701 0.0019750443704 0.0019634535367 0.001952358666 0.0019415543366 0.001931064597 0.001920924261 0.0019108266643 
0.0019008239285 0.0018908648675 0.0018809186748 0.0018708632093 0.0018608735804 0.0018508973371 0.0018408186667 0.001830688102 0.0018205034997 
0.0018102670094 0.0017999317994 0.0017896228143 0.0017793019198 0.0017689898979 0.0017587112819 0.0017484972205 0.001982974629 0.0019702796528 
0.001958192284 0.0019465976787 0.001935477874 0.001924863109 0.0019145381185 0.0019045196295 0.0018947825704 0.001885051806 0.0018753597255 
0.0018656496367 0.0018557847727 0.0018459660375 0.0018361108725 0.0018261202645 0.0018160515377 0.0018059076445 0.0017956991761 0.0017854366855 
0.0017750770308 0.0017647549593 0.0017544357362 0.001744147422 0.0017339104643 0.0017237600669 0.001950258514 0.0019379732996 0.0019263224081 
0.0019151924248 0.0019046124918 0.0018944429771 0.0018845859963 0.0018749969036 0.0018656673532 0.0018562938906 0.0018469035025 0.0018374393376 
0.0018277633969 0.0018181385862 0.0018083326577 0.001798405472 0.001788377838 0.0017782566538 0.0017680604702 0.0017577492037 0.0017474610986 
0.0017371597616 0.0017268734855 0.0017166306674 0.0017064632285 0.0016964034526 0.0019160367523 0.0019042879072 0.0018930875932 0.0018824224623 
0.0018723379197 0.0018626234597 0.0018532214087 0.0018441565411 0.0018350997873 0.0018260550584 0.0018169404751 0.0018077062726 0.0017982021808 
0.0017887258113 0.0017790352211 0.0017691922356 0.0017592242753 0.0017491517455 0.0017389952085 0.0017287166024 0.0017184706018 0.0017082191888 
0.0016979944839 0.0016878278668 0.0016777535402 0.0016678079359 0.0018820113365 0.0018706876626 0.0018599344226 0.0018497491137 0.0018401087312 
0.0018308434283 0.0018218670366 0.0018131789681 0.0018044605153 0.0017957098826 0.0017868362933 0.0017777937458 0.001768519674 0.0017591067352 
0.0017495253524 0.0017397731413 0.0017298791845 0.0017198709539 0.0017097760763 0.0016995582036 0.0016893801182 0.0016792031242 0.0016690636907 
0.0016589965789 0.0016490370174 0.0016391565898 0.0018492729605 0.0018383967918 0.001828085346 0.0018183901552 0.0018091471376 0.0018002722774 
0.0017916761797 0.0017833224934 0.001774891856 0.0017663779247 0.0017576987697 0.0017488913205 0.0017396908102 0.0017303957427 0.0017209106781 
0.001711245001 0.0017014298342 0.0016914969663 0.0016814100287 0.0016713377885 0.0016612441667 0.0016511603651 0.0016411254963 0.0016311752506 
0.0016213481348 0.0016116151889 0.0018187759702 0.001808301384 0.0017984156238 0.0017891410318 0.0017803003649 0.001771795273 0.0017636335876 
0.0017554545325 0.0017472624278 0.0017389337565 0.001730421804 0.0017217432491 0.0017126508439 0.0017034482024 0.0016940482497 0.001684458021 
0.0016747207647 0.0016648677653 0.0016548620948 0.0016448793196 0.0016348824138 0.0016249062102 0.0016149901303 0.0016051716982 0.0015954202054 
0.0015859185465 0.0017911412665 0.0017810729675 0.0017715925854 0.0017627104294 0.001754235533 0.0017460563051 0.001738172327 0.0017302254101 
0.0017222078896 0.0017140327224 0.0017057004325 0.0016970550381 0.0016880395531 0.0016789084047 0.0016695748474 0.0016600524035 0.0016503842766 
0.0016406064139 0.0016306829598 0.0016207932052 0.0016109006737 0.0016010403595 0.0015912514282 0.0015815743884 0.0015719780968 0.0015626470734 
0.0017668611393 0.0017571794321 0.0017481452602 0.0017395537845 0.0017314026908 0.0017235028964 0.0017158350067 0.0017080687679 0.0017001978996 
0.0016921855062 0.0016838667217 0.001675284859 0.0016663179555 0.0016572357013 0.0016479497454 0.0016384805587 0.0016288711386 0.0016191605985 
0.0016093163223 0.0015995201546 0.0015897331587 0.0015799921853 0.0015703373677 0.0015607343701 0.0015513715236 0.0015422149821 0.0017462512162 
0.001736933069 0.0017282441665 0.0017200032404 0.0017120982575 0.0017045237908 0.0016969381801 0.001689300209 0.0016815210728 0.0016735710292 
0.0016652978859 0.0016566213067 0.001647804 0.0016387498617 0.0016294961882 0.0016200636439 0.0016105045809 0.0016007810315 0.0015910822387 
0.0015813740118 0.0015716911392 0.0015620668248 0.0015525446126 0.0015430892023 0.0015338874283 0.0015249062715 0.0017295079681 0.0017205266673 
0.0017121492227 0.0017041836359 0.0016964965421 0.0016891105618 0.0016816535995 0.0016741075793 0.0016664308625 0.0016584504943 0.0016501903087 
0.0016415197506 0.0016327128114 0.0016236683259 0.0016144325571 0.0016050300732 0.0015955074914 0.0015858329435 0.001576201214 0.0015665702115 
0.0015569827986 0.0015474730922 0.0015380032998 0.0015287655739 0.00151972163 0.0015109059555 0.0017167553399 0.0017081370684 0.0016999632335 
0.0016922147961 0.0016847180706 0.0016774606008 0.0016700860383 0.0016626470866 0.0016549219969 0.0016469413105 0.0016386714079 0.0016299880402 
0.0016211727337 0.0016121266431 0.0016028986911 0.0015935120207 0.0015839387698 0.0015743876403 0.0015648122806 0.0015552572188 0.0015457539422 
0.001536346548 0.00152699091 0.0015178871171 0.0015089930668 0.0015003611507 0.0017080422654 0.0016996781706 0.0016917065034 0.0016841513003 
0.0016768960248 0.0016696083045 0.0016623327567 0.0016548354205 0.0016470945644 0.0016390873874 0.0016307886373 0.0016220777189 0.0016132435483 
0.0016041894984 0.001594962464 0.0015855879081 0.0015760361117 0.0015665184851 0.0015569881594 0.001547495817 0.0015380726881 0.0015286824149 
0.0015195189864 0.0015105543886 0.0015017968187 0.0014933026674 0.001703321621 0.0016951627962 0.0016874149253 0.0016799460199 0.0016727631873 
0.0016655089038 0.0016582326575 0.0016507047046 0.0016429249777 0.0016348697705 0.001626527708 0.0016177795679 0.0016089201277 0.0015998497402 
0.0015906147355 0.00158124915 0.0015717175961 0.0015622326248 0.0015527510174 0.0015433139105 0.0015339642994 0.0015246691707 0.0015156040014 
0.0015067354516 0.0014980997462 0.0014897388412 0.0017025802087 0.001694509164 0.001686879259 0.0016794749283 0.0016723165099 0.00166510975 
0.0016577270501 0.0016501433878 0.0016422998948 0.0016341846102 0.001625781553 0.0016169910708 0.0016081043567 0.0015990212598 0.0015897916118 
0.0015803504054 0.0015709270614 0.0015614742219 0.0015520355916 0.0015426500476 0.0015332961357 0.0015241393531 0.0015151562717 0.0015063818072 
0.001497852317 0.001489605395 0.0017054524534 0.0016974717842 0.0016898990656 0.0016826199723 0.0016753870659 0.0016680541881 0.0016605955331 
0.0016529250859 0.001644998394 0.0016368140581 0.0016282223204 0.0016195275667 0.0016106169908 0.0016015243486 0.0015922997369 0.0015828755817 
0.0015734801268 0.0015640641905 0.0015546845234 0.0015453494348 0.0015360367337 0.001526945607 0.0015180327477 0.0015093361745 0.001500893671 
0.00149274069 0.0017116261586 0.0017036822814 0.0016961038939 0.0016888450398 0.0016814769594 0.001674050656 0.0016664801887 0.0016587092964 
0.0016506903244 0.00164242622 0.0016337772263 0.0016250475521 0.0016161188627 0.0016070263475 0.0015978170099 0.0015884177583 0.0015790751819 
0.0015697024729 0.0015603567188 0.0015509941733 0.0015418188411 0.0015327871189 0.0015239364135 0.0015153048193 0.0015069292834 0.0014988468375 
0.0017205514316 0.0017126208815 0.0017049311812 0.0016975752177 0.0016900881144 0.0016825397256 0.0016748423832 0.0016669503837 0.0016588396972 
0.0016504864361 0.0016417847678 0.0016330246606 0.001624090544 0.0016150145595 0.0016057428356 0.0015964923783 0.0015871820894 0.0015778648036 
0.0015684930519 0.0015592743323 0.0015501579802 0.0015411828052 0.0015323890765 0.0015238112983 0.0015154890806 0.0015074517455 0.001731414861 
0.0017233921876 0.0017157493992 0.0017080741062 0.0017004278587 0.0016927188721 0.0016848785291 0.0016768656405 0.0016686564694 0.0016602368925 
0.0016514956215 0.0016427247328 0.0016338009225 0.0016247704037 0.0016155435139 0.0016063355929 0.0015970930582 0.0015878462501 0.0015785461883 
0.00156939532 0.0015603439406 0.0015514286468 0.0015426879601 0.0015341562216 0.0015258718205 0.0015178575605 0.0017431274243 0.0017350165273 
0.0017271351052 0.0017192730796 0.0017114413504 0.0017035585803 0.0016955664684 0.0016874298896 0.0016791308382 0.0016706607653 0.0016618938606 
0.0016531452041 0.0016442548315 0.0016351665745 0.0016261084156 0.0016169822209 0.0016078310057 0.0015985880499 0.0015894594916 0.0015803896264 
0.0015714069764 0.001562558412 0.0015538715771 0.0015453828707 0.0015371172238 0.0015291277946 0.0017543946363 0.0017461372769 0.0017379371929 
0.0017298651184 0.0017218310739 0.0017137704975 0.0017056315474 0.0016973807749 0.0016890091038 0.001680371415 0.0016717537397 0.00166302301 
0.0016541940344 0.0016451848998 0.0016362247972 0.0016272055201 0.0016181612697 0.0016090296254 0.0016000093841 0.0015910369802 0.0015821472286 
0.0015733690263 0.0015647310165 0.0015562867452 0.001548055754 0.0015400603995 0.0017636281333 0.0017551014873 0.0017466757367 0.00173838409 
0.0017301505936 0.0017219178471 0.0017136446311 0.0017053200381 0.0016968973972 0.0016882324149 0.0016796448522 0.0016709776848 0.0016622409743 
0.0016533464902 0.001644515268 0.0016356308426 0.0016266380725 0.0016177286889 0.0016088327411 0.0015999753297 0.0015911870607 0.0015824825519 
0.0015739211496 0.0015655218731 0.0015573173845 0.0015493245947 0.0017692743344 0.0017605263204 0.0017518813272 0.0017433798562 0.0017349617576 
0.0017265970737 0.0017182146504 0.0017098076433 0.0017013655985 0.0016927235233 0.0016841990338 0.0016756319161 0.0016669212228 0.00165827598 
0.001649605162 0.0016408015035 0.0016320642473 0.0016233131711 0.0016145662525 0.0016058327995 0.0015971590976 0.001588561932 0.0015800776819 
0.0015717296819 0.0015635563167 0.0015556038371 0.0017702116334 0.0017611533379 0.001752309056 0.0017436442646 0.0017350737276 0.0017265735886 
0.0017181169372 0.0017096815969 0.0017012559378 0.0016926737327 0.0016842497141 0.0016758173914 0.0016672697022 0.0016588078563 0.0016503320667 
0.0016417275048 0.0016331858966 0.0016246216082 0.0016160353111 0.0016074641278 0.0015989232177 0.0015904374385 0.0015820388434 0.0015737549117 
0.0015656188043 0.0015576815247 0.0022574609484 0.002242716457 0.0022283277862 0.0022143060322 0.0022005457076 0.0021873053692 0.0021743642242 
0.0021617307491 0.002149384203 0.0021373914977 0.0021255315644 0.0021138475613 0.002102324752 0.0020908483739 0.0020795748989 0.0020683852044 
0.0020573090664 0.0020462063768 0.002035122269 0.0020240371038 0.0020129421973 0.0020017822572 0.0019906676659 0.0019795573881 0.001968463371 
0.0019574071211 0.0022387409623 0.002224287011 0.0022102187178 0.0021964325218 0.0021831419427 0.002170292427 0.0021577021991 0.0021454219169 
0.002133405077 0.002121721827 0.002110097173 0.0020986114578 0.002087238576 0.0020758580817 0.0020646367525 0.002053516395 0.0020423600366 
0.0020312216644 0.0020200849582 0.0020089435711 0.0019977409153 0.0019865894202 0.0019754466754 0.0019643250801 0.0019532424996 0.0019422177938 
0.0022156012406 0.002201468303 0.0021876388534 0.0021743336704 0.0021614296241 0.0021489741946 0.0021367733914 0.0021248681833 0.002113313509 
0.0021018226953 0.0020904633658 0.0020791942165 0.0020679887982 0.0020567257524 0.0020455796004 0.0020344933011 0.0020233523828 0.0020122049066 
0.0020010472478 0.0019898797055 0.0019786530601 0.0019674890034 0.0019563456598 0.001945239407 0.0019341898727 0.0019232228683 0.0021889152152 
0.002175016273 0.0021616684998 0.0021487530126 0.0021362499514 0.0021242019084 0.002112421201 0.0021008966398 0.0020896797518 0.0020785021836 
0.0020674143374 0.0020563701757 0.0020452361176 0.0020342139322 0.0020232145152 0.0020121387891 0.002001036149 0.0019899070954 0.0019787584814 
0.001967597284 0.0019563766919 0.0019452272874 0.0019341139293 0.0019230476089 0.0019120569168 0.001901166104 0.0021597812352 0.0021462478467 
0.0021332829838 0.0021207691636 0.0021087375777 0.0020970588713 0.0020856553339 0.0020745082714 0.0020636378273 0.002052770785 0.0020419500147 
0.0020311302516 0.0020201762524 0.0020093479127 0.0019984079641 0.0019874104575 0.001976368443 0.0019652847452 0.0019541765037 0.0019429858074 
0.00193185901 0.001920750646 0.0019096840447 0.0018986824137 0.0018877721918 0.0018769798652 0.0021292569683 0.0021162128405 0.0021036429577 
0.0020915309311 0.0020799265471 0.0020686335813 0.0020576181165 0.0020469358088 0.0020362904395 0.0020257139338 0.0020151436701 0.0020045390935 
0.0019937511737 0.0019830727306 0.001972253534 0.0019613528061 0.0019503852865 0.0019393662507 0.0019283100241 0.0019171728231 0.0019061036717 
0.0018950592299 0.0018840661755 0.0018731503035 0.0018623403685 0.0018516654857 0.0020986897763 0.0020860218966 0.0020738438296 0.002062152671 
0.0020509491588 0.0020400211297 0.0020293756284 0.0020190240146 0.0020086823097 0.0019983766659 0.0019880341803 0.0019776160641 0.0019670588798 
0.0019564572077 0.0019457489407 0.0019349473439 0.0019240650934 0.0019131221102 0.0019021392343 0.0018910739115 0.0018800828419 0.001869121631 
0.0018582214943 0.0018474095363 0.001836716777 0.001826107501 0.0020689344269 0.0020566655462 0.0020448744027 0.0020336193352 0.0020227319808 
0.0020121657974 0.0020018555644 0.0019918070987 0.0019817340044 0.0019716564999 0.0019615081125 0.0019513288378 0.0019408555162 0.0019303741384 
0.0019197814974 0.0019090775109 0.0018982845493 0.001887426578 0.0018764605656 0.0018655479966 0.001854647537 0.0018437842543 0.0018329912649 
0.0018222981129 0.0018117368571 0.0018012717713 0.002040814089 0.0020288984623 0.0020174810709 0.0020065885235 0.001996059003 0.0019858210409 
0.0019759173085 0.0019660300679 0.0019561886506 0.0019463019041 0.0019363323521 0.0019262987497 0.0019159487979 0.0019055764469 0.0018950842653 
0.0018844694484 0.0018737659493 0.0018629972208 0.0018521195053 0.0018413019713 0.001830501754 0.0018197478325 0.0018090736615 0.0017985105318 
0.0017880214413 0.0017777812346 0.0020148928258 0.0020033372447 0.0019922770379 0.0019817305154 0.0019715268427 0.0019615854381 0.0019519440482 
0.0019422848092 0.0019326278717 0.0019229135327 0.0019131423914 0.0019031667837 0.0018929175574 0.0018826390336 0.0018722332902 0.0018617031929 
0.0018510826522 0.0018403996764 0.0018296117145 0.0018188918955 0.0018081982232 0.0017975601189 0.001787010974 0.0017765851342 0.0017662448541 
0.0017561671929 0.0019916541023 0.0019804399049 0.0019697802699 0.0019594859653 0.0019495755195 0.001939895393 0.0019304665717 0.0019209961934 
0.001911507285 0.0019019802234 0.001892255654 0.0018823732587 0.0018722020717 0.0018619995447 0.0018516654977 0.0018412092473 0.0018306641616 
0.0018199868199 0.0018093615249 0.0017987406762 0.0017881545219 0.0017776351518 0.0017672168412 0.0017568595443 0.0017467448378 0.0017368316076 
0.001971419624 0.0019605272895 0.0019501749271 0.0019401979658 0.001930512698 0.0019211510937 0.0019118120473 0.0019024901098 0.0018931835612 
0.0018836930244 0.0018740485926 0.0018641071138 0.0018541185594 0.0018439750791 0.0018337006559 0.0018233047264 0.0018128296595 0.0018022291685 
0.001791686235 0.0017811603943 0.0017706818842 0.0017602787059 0.0017499896435 0.0017397738138 0.001729811531 0.0017200625957 0.0019543996678 
0.0019438060023 0.0019337320963 0.0019240065386 0.001914528096 0.0019053586631 0.0018961661258 0.0018869653135 0.0018777361393 0.001868315165 
0.0018587253659 0.0018488285398 0.0018388863543 0.0018287853857 0.0018185583614 0.0018082188056 0.0017978019148 0.0017872687082 0.0017768077548 
0.0017663675171 0.0017559895841 0.0017457023933 0.0017354634912 0.0017254596342 0.0017156465973 0.0017060518349 0.0019407244246 0.0019304605442 
0.0019205616887 0.0019110416125 0.001901752532 0.0018927255454 0.0018836425946 0.0018745855649 0.00186535152 0.0018559728304 0.001846416217 
0.0018365470053 0.0018266339276 0.0018165650239 0.0018063763419 0.0017960793411 0.0017856360192 0.0017752462498 0.0017648566538 0.001754503891 
0.0017442212496 0.0017340387129 0.0017239148649 0.0017140396677 0.0017043833246 0.0016949470582 0.0019304405359 0.0019204054424 0.0019106940586 
0.0019013580366 0.0018923203513 0.0018832870052 0.0018743385265 0.0018652663492 0.0018560618827 0.0018467045375 0.0018371634823 0.0018273078182 
0.0018174133137 0.0018073678136 0.0017972130784 0.0017869556206 0.0017765581744 0.0017662232781 0.0017558962696 0.0017456229814 0.0017354279421 
0.0017252705562 0.0017153400587 0.0017056036903 0.0016960642498 0.0016867716107 0.001923557596 0.0019136408694 0.0019041455909 0.0018949021544 
0.0018859563447 0.0018769889828 0.001868083607 0.0018590293422 0.0018498358481 0.0018404787549 0.0018309393195 0.001821087295 0.0018112042705 
0.0018011784425 0.0017910420035 0.0017808206508 0.0017704676005 0.0017601869742 0.0017499281855 0.0017397258812 0.0017296173586 0.0017195645631 
0.0017097379999 0.0017000994542 0.0016906797522 0.0016815145577 0.0019198352392 0.0019100684933 0.0019006950581 0.0018915336027 0.0018826432973 
0.0018737666087 0.0018648036513 0.0018557469152 0.001846541865 0.0018371737574 0.0018276179749 0.0018177634646 0.0018078884909 0.0017978807626 
0.0017877785908 0.0017775062539 0.001767284706 0.0017570572362 0.0017468605186 0.001736726819 0.0017266287555 0.0017167262258 0.0017069906046 
0.001697451551 0.0016881398545 0.0016790868385 0.0019190989041 0.001909428161 0.0019001290891 0.0018911229845 0.00188220055 0.0018732491179 
0.0018642664981 0.0018551790558 0.0018459445127 0.0018365563878 0.00182685569 0.0018171348417 0.0018072692308 0.0017972809777 0.0017872095845 
0.0017769777624 0.0017668048244 0.0017566338065 0.0017465142573 0.0017364479871 0.0017264066913 0.0017165835836 0.001706929783 0.0016974776269 
0.0016882607094 0.0016793028514 0.0019209670468 0.0019113538575 0.0019020812732 0.0018931392103 0.0018841352806 0.0018751499934 0.0018661167915 
0.0018569879033 0.0018477151524 0.0018382954479 0.0018285794906 0.0018188594589 0.0018090061453 0.0017990442019 0.0017890107639 0.0017788240665 
0.0017687224458 0.0017586116017 0.0017485429312 0.0017384652807 0.0017285767067 0.0017188276853 0.0017092496412 0.0016998745814 0.0016907340038 
0.0016818545787 0.0019249293964 0.0019153674386 0.0019060963796 0.0018970513611 0.0018879921629 0.0018789517743 0.0018698570859 0.001860670345 
0.0018513573297 0.0018418999505 0.0018321651502 0.0018224473636 0.0018126156231 0.0018026926254 0.0017926326481 0.0017825945737 0.0017725404486 