# vtk DataFile Version 5.1
vtk output
ASCII
DATASET STRUCTURED_POINTS
DIMENSIONS 26 26 26
SPACING 0.08 0.08 0.08
ORIGIN -1 -1 0.5
POINT_DATA 17576
FIELD FieldData 1
potential 1 17576 double
0.0023874503914 0.0023660785293 0.0023454772165 0.0023256857058 0.0023070066581 0.0022887986546 0.0022713984319 0.0022546875523 0.0022385745905 
0.0022228950846 0.0022077422309 0.0021928681223 0.0021782547653 0.0021637902408 0.0021495368456 0.0021353679171 0.0021209702375 0.0021067699911 
0.0020925001553 0.0020781086514 0.0020635804522 0.0020489977853 0.0020342136284 0.0020193460189 0.0020044320045 0.0019895215718 0.0023582341504 
0.0023374846203 0.0023175829071 0.0022988531512 0.0022807037722 0.0022633657466 0.0022468302876 0.0022309618729 0.0022156264064 0.0022006746455 
0.0021860118858 0.0021715289234 0.0021571642116 0.0021428020729 0.002128526478 0.0021139841343 0.002099629305 0.0020852153312 0.0020706971815 
0.0020560634992 0.0020414021552 0.0020265468509 0.0020116209025 0.0019966546774 0.0019816951056 0.001966789145 0.0023188020347 0.0022987488078 
0.0022799207634 0.0022617326942 0.0022444844796 0.0022280821203 0.0022124892587 0.0021975331341 0.0021830216848 0.0021688150177 0.0021547520205 
0.0021407249893 0.0021266739562 0.0021124903677 0.0020982798917 0.0020836920863 0.0020692669903 0.0020547208535 0.0020400520075 0.0020252662702 
0.0020104731359 0.0019955122248 0.0019805130729 0.0019655149145 0.0019505656394 0.0019357206145 0.002271649445 0.0022526551954 0.0022343525833 
0.0022170649406 0.0022007677362 0.0021853414988 0.0021707309224 0.0021567687816 0.0021430580904 0.0021295969807 0.0021161528611 0.0021026101566 
0.0020889132564 0.0020749657588 0.0020606106316 0.0020463558373 0.0020319274282 0.0020173364337 0.0020026055059 0.001987756672 0.0019729119197 
0.0019579170803 0.0019429121321 0.0019279488455 0.0019130673259 0.0018983304307 0.0022197443795 0.0022015533976 0.0021841218979 0.0021677669325 
0.0021524006069 0.0021380693818 0.0021244223806 0.0021113156172 0.0020984334295 0.0020856895236 0.0020728438694 0.0020597758883 0.0020463670975 
0.0020324686528 0.0020185840189 0.0020044403445 0.0019900770529 0.0019755187561 0.0019608017515 0.0019460662197 0.0019311421999 0.0019161799892 
0.001901230699 0.0018863465782 0.0018715851473 0.0018570054162 0.0021663002849 0.0021486425032 0.0021321092477 0.0021166940303 0.0021023597192 
0.0020889272817 0.0020762067219 0.0020638817495 0.0020518249195 0.0020397280107 0.0020274137142 0.0020147857619 0.0020016861398 0.0019880763741 
0.0019744094627 0.0019604184509 0.0019461656026 0.0019316952683 0.0019170511474 0.0019023821731 0.0018875348831 0.0018726631479 0.0018578245791 
0.0018430765285 0.0018284810915 0.0018141016079 0.0021131923824 0.0020963852618 0.00208075082 0.0020663352533 0.002052870733 0.002040347875 
0.0020284787426 0.0020169116712 0.0020055133584 0.0019939680946 0.0019821145246 0.0019698209814 0.0019567930114 0.0019436890366 0.001930212274 
0.0019163888217 0.0019022750237 0.0018879292897 0.0018734033388 0.0018588579879 0.0018441359832 0.0018294030391 0.0018147213846 0.001800153879 
0.0017857641329 0.00177180516 0.0020626008886 0.0020467219092 0.002031976871 0.0020183508219 0.0020058230355 0.0019941309132 0.0019830171636 
0.0019721014833 0.0019612475587 0.0019501467014 0.0019386109888 0.0019263837303 0.0019138632595 0.0019009682959 0.001887668432 0.0018740061582 
0.0018600435875 0.0018458429387 0.0018314648652 0.0018170729006 0.0018025142456 0.0017879588626 0.0017734719027 0.0017591193121 0.0017449699525 
0.0017312810301 0.0020159310621 0.0020008285826 0.0019869479143 0.001974177636 0.0019624632666 0.0019515154086 0.0019410466241 0.0019306660862 
0.0019202451271 0.0019094448559 0.0018982184893 0.0018862086283 0.0018738710071 0.0018611347263 0.0018479839928 0.0018344625419 0.0018206484668 
0.001806599498 0.0017924938262 0.0017781680202 0.0017637975838 0.0017494461092 0.0017351824423 0.0017210740983 0.0017073829713 0.0016937957651 
0.0019738946797 0.0019596190613 0.0019465662038 0.0019345969155 0.0019236222276 0.0019133239008 0.0019033221875 0.0018934382843 0.0018832965567 
0.0018727756441 0.0018614698172 0.001849875364 0.0018376588822 0.001825036282 0.0018119970865 0.0017985937444 0.0017849087333 0.0017710063412 
0.0017570657126 0.0017429210699 0.0017287527743 0.0017146234559 0.0017006008618 0.0016867564628 0.0016733544865 0.0016600780843 0.0019371332266 
0.001923651612 0.001911334872 0.0019001433801 0.0018898234969 0.0018800759247 0.0018704569193 0.0018608941456 0.0018510202166 0.0018403839261 
0.0018294564739 0.0018179458677 0.0018057984361 0.0017932458972 0.0017802811289 0.0017669683668 0.0017533880199 0.0017396149841 0.0017258287125 
0.0017118644972 0.0016979005491 0.0016840003358 0.0016702324619 0.0016568632858 0.0016435622877 0.001630608337 0.001906001359 0.0018932734806 
0.0018816764244 0.0018711470559 0.0018613845031 0.0018520339046 0.00184279375 0.0018334531733 0.0018237114662 0.0018131549264 0.0018022766632 
0.0017907081783 0.0017786715814 0.001766147871 0.0017532269711 0.0017399724693 0.0017264776131 0.0017129352538 0.0016991675962 0.0016853709307 
0.0016716058032 0.0016579302187 0.0016444155882 0.0016313258694 0.0016183276693 0.0016056999735 0.0018807154492 0.001868691427 0.0018577472554 
0.0018477906009 0.0018384410686 0.001829415585 0.0018204752293 0.0018112635478 0.0018013034441 0.0017910418432 0.0017801550329 0.0017685723398 
0.001756528563 0.0017440083687 0.0017311054184 0.0017178904056 0.0017044563152 0.0016910034074 0.0016773550768 0.0016637047297 0.0016501204574 
0.0016366616997 0.0016235948738 0.0016105724257 0.0015978721195 0.0015855566663 0.001861422897 0.00184998424 0.0018396599283 0.0018301295157 
0.0018211994945 0.0018124182033 0.0018036116846 0.0017941768141 0.0017844840228 0.0017741862719 0.0017632514443 0.0017516226148 0.0017395445642 
0.0017270051426 0.001714102611 0.0017009089902 0.0016875170976 0.0016741373643 0.0016605875256 0.0016470700909 0.0016336433516 0.0016203768564 
0.0016075286024 0.001594761008 0.0015823447709 0.0015703763975 0.0018482059476 0.0018373225902 0.0018274150998 0.001818320959 0.0018095841363 
0.001801019212 0.0017919805198 0.0017827997385 0.0017730417583 0.0017626625551 0.001751647581 0.0017399488941 0.0017278191412 0.0017152508655 
0.0017023389837 0.0016891555266 0.001675925962 0.0016624719099 0.0016489950441 0.001635587314 0.0016223046428 0.0016094202038 0.0015965730942 
0.0015840688581 0.0015719117347 0.0015602010572 0.0018410738071 0.001830588239 0.0018211212626 0.0018122979244 0.0018037120772 0.0017951945752 
0.0017861280059 0.0017768546609 0.001766988688 0.0017564922319 0.0017453735924 0.001733590115 0.0017214000406 0.0017087919286 0.0016958568834 
0.0016826808362 0.00166948249 0.0016560780828 0.0016426811965 0.0016293654551 0.0016162039819 0.0016034995756 0.0015908263408 0.0015784968932 
0.0015665702303 0.0015551169654 0.0018398457056 0.0018298338062 0.001820636761 0.0018119615409 0.0018034220306 0.0017945822062 0.0017856810507 
0.001776267026 0.0017662483633 0.0017556119607 0.0017443627364 0.0017324874465 0.0017202355909 0.0017075947956 0.0016946596016 0.0016816328279 
0.0016683323412 0.0016549766081 0.0016416472243 0.0016284152731 0.0016156040545 0.0016027746905 0.0015902481197 0.0015780891733 0.0015663585939 
0.0015551221283 0.0018445698231 0.0018347875238 0.0018257354464 0.0018170234895 0.0018082175549 0.001799513615 0.0017904340025 0.0017808231 
0.0017706199787 0.0017598286755 0.0017483690956 0.0017364994294 0.0017241935727 0.0017115267838 0.0016985937104 0.0016855936882 0.0016723347959 
0.0016590377716 0.0016458089019 0.0016326581472 0.0016199083877 0.0016071856229 0.001594780596 0.0015827587981 0.0015711852388 0.0015601236565 
0.0018547325969 0.0018450570088 0.0018360108107 0.0018269358401 0.0018182513956 0.0018093359775 0.0018000097213 0.0017901734945 0.0017797724199 
0.0017688061831 0.001757223795 0.001745276867 0.0017329282573 0.0017202538717 0.0017073418778 0.001694384878 0.0016812179746 0.0016679906968 
0.0016548099368 0.0016419697959 0.0016290862631 0.0016164594158 0.0016041563305 0.0015922439003 0.0015807889416 0.0015698538358 0.0018696833823 
0.0018599686484 0.0018507878403 0.0018415115834 0.0018325641972 0.0018233693101 0.0018137611587 0.0018036634466 0.0017930490217 0.0017819108542 
0.0017702158563 0.0017582024814 0.0017458343679 0.0017331819051 0.0017204614531 0.0017074617229 0.0016943435332 0.001681208096 0.0016683522187 
0.0016553802004 0.0016425915803 0.0016300556547 0.0016178426246 0.0016060167259 0.001594648281 0.0015837934527 0.0018883224884 0.0018784191848 
0.0018686240627 0.0018593816797 0.0018500846253 0.0018405370948 0.0018306146272 0.001820249685 0.0018094232998 0.001798138561 0.0017863549778 
0.0017743071864 0.0017619497366 0.0017493776596 0.0017367353067 0.0017238023182 0.0017107984885 0.0016977819259 0.0016850456132 0.0016721865403 
0.0016595032437 0.0016470627647 0.0016349328709 0.0016231771012 0.0016118672136 0.0016010393911 0.0019090258833 0.001898514739 0.0018886190721 
0.0018789617218 0.0018692507589 0.0018593179108 0.0018490625433 0.0018384281131 0.001827404386 0.0018160015057 0.001804156781 0.0017921424465 
0.0017798366821 0.0017674755348 0.0017548070924 0.0017420147791 0.0017291655081 0.0017165362791 0.0017037101087 0.0016909870338 0.0016784189288 
0.0016660852168 0.0016540385747 0.0016423497803 0.001631056105 0.0016202655824 0.0019293095127 0.0019185737604 0.0019082796761 0.0018981459889 
0.0018879838488 0.0018776509255 0.0018670676218 0.0018561838289 0.0018449962099 0.0018334366332 0.0018216818009 0.001809684709 0.001797481213 
0.0017852609344 0.0017727632169 0.0017601583138 0.0017474974385 0.0017350591256 0.0017224172183 0.0017098578932 0.0016974416494 0.0016852234625 
0.0016732488378 0.0016616242813 0.0016503834572 0.0016395754187 0.0019471135385 0.0019358726664 0.0019250606083 0.0019144251403 0.0019038051837 
0.0018930905294 0.0018822065913 0.0018711493733 0.0018598411054 0.0018482100515 0.0018364969155 0.0018246068595 0.0018125647666 0.0018005490642 
0.0017882791697 0.0017759121282 0.001763733381 0.0017512894717 0.0017388625087 0.0017264987385 0.001714253096 0.0017021503682 0.001690302061 
0.0016787477213 0.0016675400201 0.0016567217367 0.0019594026589 0.0019476519358 0.0019363296318 0.001925211773 0.001914170067 0.0019031504179 
0.0018920167317 0.0018807708342 0.0018694012635 0.0018577974467 0.0018461890437 0.001834475459 0.001822820875 0.0018109133208 0.0017989321473 
0.0017871109187 0.0017749793315 0.0017628160458 0.0017506470448 0.0017384898405 0.0017264383225 0.0017145202057 0.0017027993626 0.0016913225672 
0.0016801560242 0.0016694193892 0.0019637432404 0.0019515981474 0.0019398140412 0.001928310509 0.0019169161877 0.0019055871636 0.0018942761212 
0.0018829476856 0.0018715898312 0.0018600855904 0.0018486565123 0.0018371872022 0.0018258326303 0.0018142603183 0.0018026340009 0.0017911710588 
0.0017793911374 0.0017675543678 0.0017556576541 0.0017437879602 0.0017319619992 0.0017202299763 0.0017086504146 0.0016972745849 0.0016861640433 
0.0016754364366 0.0026362038233 0.0026131124257 0.002590738704 0.0025691094551 0.0025485193556 0.0025283269992 0.0025088770841 0.0024900683822 
0.0024718326401 0.0024540292811 0.0024367704668 0.0024198184133 0.0024031685109 0.0023867061676 0.0023705017042 0.0023544373796 0.0023382112331 
0.0023222598003 0.0023063243649 0.002290356989 0.0022743423826 0.0022583587112 0.0022422523659 0.0022261327034 0.002210027101 0.0021939752938 
0.0026081505145 0.0025856327602 0.0025638904488 0.0025432335063 0.0025230637143 0.0025036140586 0.0024848906417 0.0024667856168 0.00244920103 
0.002432024036 0.0024151887241 0.0023986028151 0.0023822113144 0.002365898901 0.0023497503168 0.0023334114868 0.0023173387473 0.0023012880351 
0.0022852158905 0.0022691104413 0.0022530565648 0.0022368830105 0.0022207055693 0.0022045478639 0.0021884462997 0.002172438692 0.0025724815652 
0.0025505985087 0.0025298436214 0.0025096250373 0.0024902276452 0.0024715653282 0.0024536254686 0.0024362734343 0.0024193674808 0.002402816843 
0.0023864973236 0.0023703213417 0.0023542341971 0.0023381239004 0.002322089091 0.002305772937 0.0022897095356 0.0022736112194 0.0022574724284 
0.002241294587 0.0022251817264 0.0022089672067 0.002192772637 0.002176630133 0.0021605775379 0.0021446611705 0.0025308392336 0.0025099416381 
0.0024896199016 0.0024701803019 0.002451592559 0.0024337475491 0.0024166212767 0.0024000983715 0.0023838454965 0.0023679202518 0.0023521328891 
0.0023363888374 0.0023205613758 0.0023047674608 0.0022886165481 0.0022726772715 0.0022566650091 0.0022405815208 0.0022244413552 0.0022082589926 
0.002192148812 0.002175949044 0.0021597913789 0.002143718942 0.0021277627861 0.002111976196 0.0024852380928 0.0024650620549 0.0024455072283 
0.0024268740275 0.0024090711105 0.0023921613824 0.002375836046 0.002360015475 0.0023444588197 0.0023291465973 0.002313882011 0.0022985688886 
0.0022830826818 0.0022672639916 0.0022515991936 0.0022357982498 0.002219887393 0.0022038769091 0.0021877926656 0.0021717646463 0.0021556139107 
0.0021394816417 0.0021234099411 0.0021074418777 0.0020916254697 0.0020760097915 0.0024380521174 0.0024183211014 0.0023995555355 0.0023817337888 
0.0023648196114 0.0023486592998 0.0023331160271 0.0023179497497 0.0023031157832 0.0022883755706 0.0022735947698 0.0022586919747 0.002243503905 
0.0022279829357 0.0022125399642 0.0021969109533 0.002181133615 0.0021652376659 0.0021492538571 0.0021333196613 0.0021172713403 0.0021012527072 
0.0020853116159 0.0020694956296 0.0020538561919 0.002038447941 0.0023905645082 0.0023715913501 0.0023536139046 0.0023366643762 0.0023204878461 
0.0023051053577 0.0022902959207 0.0022757937779 0.0022615525825 0.0022473322489 0.0022329852883 0.0022184124157 0.0022033009621 0.002188288741 
0.0021730571878 0.0021576117294 0.0021419915447 0.0021262368505 0.0021103886474 0.0020945926985 0.0020786870524 0.0020628206417 0.0020470474383 
0.0020314199383 0.0020159911758 0.0020010027589 0.0023446266314 0.0023264855158 0.0023092876667 0.0022930100221 0.0022776482942 0.002262987177 
0.002248846156 0.0022349377806 0.0022212126673 0.002207424194 0.0021934141018 0.0021789273235 0.0021643460513 0.0021495657622 0.00213453221 
0.002119266421 0.0021038123494 0.0020882169582 0.0020726359261 0.0020568965457 0.00204116073 0.0020254763974 0.0020099013788 0.0019944898183 
0.0019792994428 0.0019645736561 0.0023015145242 0.0022840547651 0.0022676145674 0.0022520821234 0.0022374298934 0.0022234281481 0.0022098061148 
0.0021964796533 0.0021831929153 0.0021697308442 0.0021560662982 0.0021418385553 0.0021274801832 0.0021128947791 0.0020980410664 0.0020829406787 
0.0020676517139 0.0020522230696 0.0020368152839 0.0020212547988 0.0020057082493 0.0019902285919 0.0019748743113 0.001959702109 0.0019449622144 
0.001930328945 0.0022619373469 0.0022452089755 0.0022294946925 0.0022146634517 0.002200665025 0.0021872528359 0.0021741415806 0.0021612486444 
0.0021482747435 0.0021351419815 0.0021214559797 0.0021077003208 0.0020935171326 0.0020790934477 0.0020643918988 0.0020494437063 0.0020343082865 
0.0020190406931 0.0020038070197 0.0019884320529 0.001973087007 0.0019578253518 0.0019427051251 0.0019277875394 0.0019133238311 0.0018989868846 
0.0022265856422 0.002210557693 0.0021954841315 0.0021813433725 0.0021679329945 0.0021550360712 0.0021423080171 0.0021297690313 0.0021171199851 
0.0021039388601 0.0020907024783 0.0020771014799 0.0020630496257 0.0020487533815 0.0020341753883 0.0020193565622 0.0020043586798 0.0019892402323 
0.0019741765769 0.0019589878122 0.0019438465189 0.0019288084288 0.0019139331603 0.0018994769634 0.0018850996204 0.0018710656534 0.0021958761045 
0.002180511749 0.0021660695648 0.0021525188383 0.0021396189264 0.0021270355914 0.0021147824313 0.0021025147771 0.0020900745858 0.0020770553509 
0.0020639490952 0.0020503654847 0.0020364937358 0.0020222916275 0.0020078126994 0.0019930990876 0.0019782247395 0.0019633678019 0.0019483399016 
0.0019333289631 0.0019183887169 0.0019035705802 0.0018889381606 0.0018747477622 0.001860654522 0.0018469250218 0.002170075232 0.0021553303326 
0.0021414645745 0.0021284282062 0.0021159151697 0.0021037394259 0.002091759504 0.0020796979403 0.0020671202211 0.0020544849919 0.0020414568187 
0.0020279394401 0.0020141362647 0.0020000008321 0.0019855984092 0.0019709771491 0.0019562053226 0.0019414727741 0.0019265900574 0.0019117419211 
0.0018969899335 0.0018823872849 0.0018681953159 0.0018540580157 0.0018402438106 0.0018268034132 0.002149356717 0.0021351194117 0.0021218123307 
0.0021091601195 0.0020970615733 0.002085162541 0.0020733816202 0.0020611820985 0.0020489661425 0.0020363894593 0.0020234025729 0.002009920677 
0.0019961564165 0.0019820683699 0.0019677258008 0.0019531769418 0.0019386238513 0.0019238761769 0.0019091234633 0.0018944315439 0.0018798511138 
0.0018654461267 0.0018514688493 0.0018375755005 0.00182402812 0.0018109120453 0.002133801321 0.002120051917 0.0021071103734 0.0020948775867 
0.0020829901167 0.0020713598397 0.0020594280048 0.0020475789822 0.0020353989405 0.0020228383928 0.0020098612677 0.0019963904301 0.0019826471803 
0.0019685949521 0.0019543009508 0.0019398153864 0.0019253437553 0.0019106918701 0.0018960489355 0.0018814947514 0.0018670770379 0.0018530679988 
0.0018390951308 0.0018254594485 0.0018121583034 0.0017992828789 0.0021233207598 0.0021099821544 0.0020974578318 0.0020854924464 0.002073795088 
0.0020622857622 0.0020504214063 0.0020385852156 0.0020264026245 0.0020138234438 0.0020008316125 0.0019873548227 0.0019736208832 0.0019595908034 
0.0019453292455 0.0019309017513 0.0019165077455 0.0019019478725 0.0018874222766 0.0018729935186 0.0018587255949 0.0018449103251 0.0018311252399 
0.0018176666512 0.0018045892708 0.0017919541292 0.0021178730005 0.0021049113057 0.0020926478824 0.0020808613691 0.0020692736102 0.0020575337932 
0.0020459425608 0.0020340772015 0.0020218506056 0.0020092296889 0.0019961940982 0.0019827011943 0.0019689714508 0.0019549668726 0.0019407568823 
0.0019265257251 0.0019120726478 0.0018976029102 0.0018831826752 0.0018688722618 0.0018549846598 0.0018410714729 0.0018274493661 0.0018141716894 
0.001801292467 0.0017888678758 0.0021172420299 0.0021045029222 0.0020924025307 0.0020806386607 0.0020688719384 0.0020573770736 0.0020457263587 
0.0020337823705 0.0020214795181 0.002008800283 0.0019956380415 0.0019822222542 0.0019684999455 0.0019545228311 0.001940361968 0.0019262002889 
0.001911829461 0.0018974548799 0.0018831709382 0.0018689753683 0.0018551817732 0.0018414052697 0.0018279277178 0.0018148056745 0.0018020949432 
0.0017898487846 0.0021209147562 0.0021083075022 0.0020962675296 0.0020842267991 0.0020726928053 0.0020611123503 0.0020493434757 0.0020372956502 
0.0020248980974 0.0020121425444 0.0019989368595 0.0019855104042 0.0019718013308 0.0019578645315 0.0019437660433 0.0019296846423 0.0019154399832 
0.0019011684977 0.0018869650513 0.0018731123547 0.0018592161907 0.0018455660722 0.0018322189078 0.0018192313749 0.0018066596796 0.0017945549883 
0.002128222789 0.002115640381 0.0021035574932 0.0020914328828 0.002079771593 0.0020680527853 0.0020561376388 0.0020439512805 0.002031451778 
0.0020186091032 0.0020053647456 0.0019919323027 0.0019782532343 0.0019643784048 0.001950507226 0.001936413993 0.0019222466088 0.0019080945001 
0.0018942433164 0.0018802872876 0.001866515336 0.0018529862687 0.0018397595629 0.0018268883303 0.0018144311413 0.0018024310344 0.0021381557435 
0.0021254924061 0.0021129267075 0.0021009853121 0.0020891312102 0.0020772132537 0.0020651243227 0.0020527939787 0.0020401845951 0.0020272792072 
0.0020140133154 0.0020005994007 0.0019869726733 0.0019732113035 0.001959445349 0.0019454422498 0.0019314105764 0.0019173984244 0.0019036886544 
0.0018898686842 0.0018762282328 0.00186282273 0.0018497095412 0.0018369414036 0.0018245753755 0.0018126367499 0.0021493607359 0.0021362414703 
0.0021237436213 0.0021115647488 0.0020994713848 0.0020873297691 0.0020750489021 0.0020625685689 0.0020498591679 0.0020369119464 0.0020236433064 
0.0020103065119 0.0019967636753 0.0019832368008 0.0019694627106 0.0019556147103 0.0019417507433 0.0019281390599 0.0019143555815 0.0019006892203 
0.0018871846739 0.0018739107538 0.0018609105993 0.0018482401812 0.001835927583 0.0018240661942 0.00215986373 0.0021467083885 0.0021340107037 
0.0021215526297 0.0021091890153 0.002096815055 0.002084345819 0.0020717276959 0.0020589424841 0.0020459045947 0.0020327732988 0.0020194862957 
0.0020060667904 0.0019926931967 0.0019790966179 0.0019654392655 0.0019517671053 0.0019383511838 0.0019247587681 0.0019112680767 0.0018979310577 
0.0018847932854 0.0018718899459 0.0018593161961 0.0018470936056 0.0018352581163 0.0021683384703 0.0021548892892 0.0021418877481 0.0021291326142 
0.0021165000104 0.002103899077 0.0020912591257 0.0020785707482 0.0020657394547 0.002052683624 0.0020396284149 0.0020264673298 0.0020132157958 
0.0020000450122 0.0019866695545 0.0019732421619 0.0019600440039 0.001946617542 0.001933239029 0.0019199479001 0.0019067905567 0.0018937844625 
0.0018810324433 0.0018685545758 0.0018564011846 0.0018445996528 0.0021725890542 0.002158844823 0.0021455450497 0.0021325052955 0.0021196251035 
0.0021068648405 0.0020940905317 0.0020812992111 0.0020684691258 0.0020554787096 0.0020425479508 0.0020295651671 0.0020166916034 0.0020036113974 
0.0019905024912 0.0019775976852 0.0019644286845 0.0019512640559 0.0019381330888 0.0019250447543 0.0019120852213 0.0018992733668 0.0018866631796 
0.0018742910745 0.001862212164 0.0018505346294 0.0021709349718 0.002156995555 0.0021434282642 0.0021301806546 0.0021171016345 0.0021041579859 
0.0020913027927 0.0020784976777 0.0020657225858 0.0020528523215 0.002040100836 0.0020273479275 0.0020147465468 0.0020019655695 0.0019891718573 
0.0019765863323 0.0019637316936 0.0019508679329 0.0019379914208 0.0019251764339 0.0019124389805 0.001899817849 0.0018873615784 0.0018751111928 
0.0018631152914 0.0018514876092 0.0028930059349 0.0028680844007 0.0028438429658 0.0028202991265 0.0027977424089 0.0027755326659 0.002754020861 
0.0027331180165 0.0027127716722 0.0026928576385 0.0026735018223 0.0026544771974 0.0026357861297 0.0026173199879 0.0025991551661 0.0025811816403 
0.0025631063336 0.0025453735631 0.0025277313215 0.0025101354982 0.0024925713727 0.0024751146112 0.0024576069277 0.0024401508677 0.0024227658482 
0.0024054837763 0.0028650572701 0.0028406732032 0.0028170118152 0.0027943736646 0.0027721584016 0.0027506017814 0.0027297220186 0.0027094306615 
0.0026896537105 0.0026703022992 0.0026513306177 0.0026326600033 0.0026142430648 0.0025959679384 0.0025779228451 0.0025597548483 0.0025419228009 
0.0025241852499 0.0025065003755 0.0024888562651 0.0024713357296 0.0024537638531 0.0024362501896 0.0024188132213 0.0024014798358 0.002384279908 
0.002831399783 0.0028076032426 0.0027848658526 0.0027625878647 0.0027410519585 0.002720179324 0.0026999750405 0.0026803315322 0.0026611392981 
0.0026423392334 0.0026238322156 0.0026055467128 0.0025874352968 0.0025693874664 0.0025515010927 0.0025334137164 0.0025156595515 0.002497947738 
0.0024802701277 0.0024626248921 0.0024451117199 0.0024275588909 0.0024100815854 0.0023927047177 0.0023754582138 0.0023583798772 0.0027931383246 
0.0027702705227 0.0027478940083 0.0027263071681 0.0027054777226 0.0026853131302 0.0026658683068 0.0026468848033 0.002628249419 0.0026099975176 
0.0025919684129 0.0025740846734 0.0025562247083 0.0025385072268 0.0025205321341 0.0025028660726 0.0024852134121 0.002467571448 0.0024499486806 
0.002432353703 0.002414894635 0.0023974033106 0.0023800101173 0.002362732015 0.0023456114903 0.0023286853784 0.0027516693439 0.0027294595805 
0.0027077712549 0.0026868973416 0.0026667496158 0.0026474068801 0.0026285923934 0.0026102680534 0.0025922390863 0.0025745321917 0.0025569777462 
0.0025394975854 0.0025219714417 0.0025042359611 0.002486768441 0.0024692698713 0.0024517547527 0.002434226165 0.0024167075201 0.0023993010542 
0.0023818400954 0.0023644513843 0.0023471690703 0.0023300279628 0.0023130674242 0.0022963274389 0.0027087880677 0.0026869551531 0.0026659736606 
0.0026458167793 0.0026264550544 0.0026077572723 0.0025896244041 0.0025718658605 0.0025544888327 0.0025372996819 0.0025201947814 0.0025031073793 
0.0024858760665 0.0024684461769 0.0024512149438 0.0024339129523 0.0024165592695 0.002399174832 0.0023817803769 0.0023645039723 0.0023471732926 
0.0023299234196 0.002312793567 0.0022958224843 0.0022790530465 0.0022625285897 0.0026653230443 0.002644176032 0.0026238999923 0.002604525468 
0.0025858071046 0.0025677904394 0.0025503079798 0.0025331454008 0.0025163112393 0.0024996102095 0.0024829233142 0.0024661627722 0.0024490146282 
0.0024321138431 0.002415106321 0.0023980061945 0.0023808317939 0.0023636112319 0.0023463746247 0.0023292575795 0.0023120889221 0.0022950082985 
0.0022780613409 0.0022612887261 0.0022447366668 0.0022286353261 0.0026228211872 0.0026024339019 0.0025828553991 0.0025640728152 0.0025460754233 
0.0025287063578 0.0025118266375 0.0024952127578 0.0024788687291 0.0024625905125 0.0024462445458 0.002429581755 0.0024129832972 0.0023963279594 
0.0023795479891 0.0023626491923 0.0023456614749 0.0023286192465 0.002311667437 0.0022946216755 0.0022776357933 0.0022607478251 0.002244006185 
0.0022274554232 0.0022111432705 0.0021953023798 0.0025823885477 0.0025626105882 0.0025437117028 0.0025255867914 0.0025082324569 0.002491461811 
0.0024750598195 0.0024590092018 0.0024430981785 0.0024271591358 0.0024111811756 0.002394807189 0.0023784606397 0.0023620303854 0.002345458423 
0.0023287504391 0.0023119497366 0.0022950926019 0.0022783283625 0.0022614737539 0.002244685866 0.0022280084231 0.0022114905659 0.0021951793029 
0.0021793146855 0.0021635597165 0.0025446603763 0.0025255439148 0.0025072983895 0.0024898049652 0.0024730449466 0.0024568211891 0.0024409094474 
0.0024252905972 0.0024097108911 0.0023941337374 0.0023781692332 0.0023623101328 0.0023461800745 0.0023299504351 0.0023135657834 0.002297040229 
0.0022804182812 0.0022637422466 0.0022471672298 0.0022305086872 0.0022139287979 0.0021974722525 0.0021811880697 0.0021651279087 0.0021495325093 
0.0021340640268 0.0025103125936 0.0024918292662 0.0024741567945 0.0024572956191 0.002441078767 0.0024253452251 0.0024098146749 0.0023945666695 
0.0023793489927 0.0023637675679 0.0023483071203 0.0023326529201 0.0023167041652 0.002300648118 0.002284428322 0.0022680678169 0.002251612958 
0.0022352274673 0.0022187215587 0.0022022606951 0.0021858907035 0.0021696596345 0.0021536181542 0.002138013283 0.0021224951522 0.0021073168398 
0.0024797696063 0.0024618873085 0.0024447887379 0.002428469133 0.0024127329641 0.0023973058738 0.0023822654219 0.0023673242466 0.00235209196 
0.0023370053916 0.0023217332274 0.0023061559342 0.0022904430129 0.0022745329901 0.0022584584761 0.0022422435179 0.0022259461272 0.0022097305746 
0.0021933998763 0.0021771308371 0.0021609701391 0.0021449612156 0.0021291601307 0.0021138142781 0.0020985695354 0.0020836812108 0.0024533137648 
0.0024359939664 0.0024194228149 0.0024035829262 0.0023882195013 0.0023732091523 0.0023584736872 0.0023437883017 0.0023287532518 0.0023138414422 
0.0022987164942 0.0022832697594 0.0022676854354 0.0022518970157 0.0022359484844 0.0022198705436 0.0022037123407 0.002187653006 0.0021714930308 
0.002155402985 0.0021394413928 0.0021236527995 0.002108290978 0.0020929923698 0.0020780159818 0.0020634018751 0.0024311258734 0.002414264541 
0.0023982108469 0.0023827387263 0.0023677913986 0.0023530831991 0.0023385932298 0.0023238319279 0.0023092302836 0.0022944480914 0.0022794356123 
0.0022640914786 0.0022486082775 0.0022329234839 0.002217085844 0.0022011249351 0.0021852263881 0.0021691863766 0.0021531829422 0.0021372705833 
0.0021214992234 0.0021059149139 0.0020907714624 0.0020757115246 0.0020610215109 0.0020466888295 0.0024132828563 0.0023968721256 0.0023811628738 
0.002366100146 0.0023513829659 0.002336984505 0.0023224036685 0.0023080643745 0.0022935741403 0.0022788869517 0.0022639577995 0.0022486929149 
0.0022332929775 0.0022176971762 0.0022019624208 0.0021861108184 0.0021703348737 0.0021544268773 0.0021385635995 0.0021228165636 0.0021072235258 
0.0020920495354 0.0020769155127 0.0020621148366 0.0020476367366 0.0020335625823 0.0023996315467 0.0023836549576 0.0023683538341 0.0023535714332 
0.0023390786826 0.0023248564024 0.0023104156841 0.0022961696121 0.0022817592344 0.0022671332742 0.0022522638625 0.0022370608965 0.0022217314956 
0.0022062174516 0.0021905599402 0.0021748118636 0.0021591542996 0.0021433749655 0.002127662031 0.0021120678271 0.0020966474241 0.00208168441 
0.0020667494657 0.0020521310904 0.0020378758575 0.0020240353771 0.0023902488313 0.0023745927283 0.0023595618487 0.0023449891913 0.0023306587125 
0.0023162780068 0.0023021913534 0.0022880038754 0.0022736357392 0.0022590492259 0.0022442101421 0.0022290574466 0.0022137913289 0.0021983542188 
0.0021827971791 0.0021672871838 0.0021516102131 0.0021359567971 0.0021203818376 0.0021049352476 0.0020899203502 0.002074880873 0.002060125099 
0.002045698396 0.0020316464119 0.0020180159577 0.0023847512781 0.002369329929 0.0023544926238 0.0023399939952 0.0023255554029 0.0023115042401 
0.0022974508181 0.0022832773848 0.002268921713 0.0022543581405 0.0022394650535 0.0022244531618 0.002209250415 0.0021938899542 0.0021784258688 
0.0021630253119 0.0021474663509 0.0021319417024 0.0021165343543 0.0021012318474 0.0020863378499 0.0020714589957 0.0020568682114 0.0020426134351 
0.0020287444297 0.0020152962769 0.0023826720992 0.0023674189571 0.0023526965448 0.0023379945089 0.0023238769737 0.0023098383915 0.0022957676546 
0.0022815876671 0.0022672268568 0.0022526674316 0.0022378006374 0.0022228383103 0.0022077005426 0.0021924252923 0.002177062876 0.0021617778401 
0.0021463773011 0.0021309856244 0.0021156882263 0.002100756185 0.0020857866641 0.0020710596161 0.0020566227852 0.0020425236147 0.0020288096741 
0.0020155179841 0.0023833903507 0.0023682259007 0.0023532616549 0.0023388513811 0.0023247118764 0.0023106450566 0.0022965356491 0.0022823203973 
0.0022679439764 0.0022533811591 0.002238535161 0.0022236224602 0.0022085613116 0.002193387357 0.0021783193949 0.0021630191734 0.0021477234367 