# vtk DataFile Version 5.1
vtk output
ASCII
DATASET STRUCTURED_POINTS
DIMENSIONS 26 26 26
SPACING 0.08 0.08 0.08
ORIGIN -1 -1 0.5
POINT_DATA 17576
FIELD FieldData 1
potential 1 17576 double
0.0098803976964 0.0098067300703 0.0097331025865 0.0096600787771 0.0095881614843 0.0095177685821 0.0094491317611 0.009382338031 0.0093171683385 
0.0092531720046 0.009189696337 0.0091259694511 0.0090611643658 0.0089945323528 0.0089253800609 0.008853202432 0.0087776525765 0.008698551962 
0.0086158844014 0.0085297666539 0.0084404226701 0.0083481541377 0.008253330201 0.0081563826812 0.0080577079717 0.0079577982229 0.010026019991 
0.0099485148174 0.0098709677139 0.0097939569277 0.0097180964586 0.0096439121315 0.0095717326437 0.0095016745272 0.0094336107163 0.0093670602199 
0.0093013218599 0.0092355512736 0.0091688798706 0.0091004829932 0.0090296718458 0.0089558826177 0.0088787574117 0.0087981002743 0.008713866383 
0.0086261432957 0.0085351244353 0.0084410864649 0.0083443812006 0.0082453993497 0.0081446018831 0.0080424148732 0.01014534874 0.01006395854 
0.0099822572359 0.0099009146706 0.0098208094468 0.0097424944639 0.009666418679 0.009592809325 0.0095215347747 0.0094522095284 0.0093840880562 
0.0093162770267 0.009247843073 0.0091778911052 0.009105656263 0.0090305963896 0.008952233255 0.0088703598838 0.0087848914322 0.008695880589 
0.0086034891936 0.0085079678169 0.0084096504077 0.0083089046266 0.0082061650065 0.0081019229067 0.010252646465 0.010167032123 0.010080843446 
0.0099949235599 0.0099101006876 0.0098270351909 0.0097464577873 0.0096686126622 0.0095934942012 0.0095207254577 0.0094496668425 0.0093793963991 
0.0093089346832 0.0092373300351 0.0091637383582 0.0090875080972 0.0090081248276 0.0089252989131 0.0088388895868 0.0087488974079 0.0086554468866 
0.0085587412781 0.0084590885478 0.008356849752 0.0082524418143 0.0081463294853 0.010363919828 0.010273746803 0.010182643506 0.010091562349 
0.010001406183 0.0099130202176 0.0098270118943 0.0097439726054 0.009663957112 0.0095867365429 0.0095117426118 0.0094381183737 0.0093649357746 
0.0092911819686 0.0092159357508 0.0091384059891 0.0090580549128 0.0089744113937 0.0088872778105 0.0087965627357 0.0087023270929 0.0086047360533 
0.0085040496976 0.0084006025925 0.0082947949968 0.0081870821367 0.010494075919 0.010399104286 0.010302611742 0.010205757083 0.010109555196 
0.010014916553 0.0099226252366 0.0098332425367 0.0097469878599 0.0096639489756 0.0095836680613 0.0095054694336 0.0094284359096 0.0093516361501 
0.0092740750806 0.0091948441061 0.0091132587124 0.0090287702583 0.0089409767223 0.0088497112021 0.008754933709 0.0086567312821 0.0085553045735 
0.0084509428856 0.0083440174432 0.0082349667394 0.010655627275 0.010555084134 0.010452644434 0.010349382233 0.010246502034 0.010144697773 
0.010044987283 0.0099480553839 0.0098543494644 0.009764024289 0.0096768610711 0.0095925429031 0.0095102832891 0.0094291603046 0.0093482590943 
0.0092665757007 0.0091832404626 0.0090975934299 0.0090090484326 0.0089172827027 0.0088221189305 0.0087235326752 0.0086216342273 0.0085166473101 
0.0084088901151 0.0082987704864 0.010856939054 0.010750500645 0.010641527438 0.01053115343 0.010420486675 0.010310596608 0.010202578424 
0.010096920222 0.009994388436 0.0098953519405 0.0097999143066 0.0097078923831 0.009618741322 0.0095318599682 0.0094462693754 0.00936103455 
0.009275146698 0.0091877617863 0.0090981707382 0.0090057852611 0.0089102737502 0.0088114529816 0.0087093084028 0.0086039584212 0.0084956510621 
0.0083847348255 0.011103159831 0.010990296397 0.010874167868 0.010755965557 0.010636865768 0.010517978912 0.010400350541 0.010284886708 
0.010172505363 0.010063477357 0.0099583214511 0.0098571074065 0.0097596349583 0.0096653525475 0.0095736526883 0.0094835221952 0.0093940104151 
0.0093040727608 0.0092128260995 0.0091195224675 0.0090235434131 0.0089245282758 0.0088222854813 0.0087167961854 0.0086081913729 0.0084967538385 
0.011396734992 0.011276879043 0.011152936812 0.011026166125 0.01089781086 0.010769058034 0.01064104382 0.010514792392 0.010391235703 
0.01027113777 0.010155223982 0.010043546841 0.0099363223277 0.0098333234622 0.0097340255751 0.0096375829455 0.0095431442196 0.0094496128684 
0.0093559313953 0.0092611488311 0.0091643893545 0.009065068865 0.0089627733323 0.0088572906587 0.0087486111433 0.008636885829 0.011738261006 
0.011610729654 0.011478265739 0.011342144153 0.011203700107 0.011064221561 0.010924931975 0.010787020532 0.01065154607 0.010519457965 
0.010391553815 0.010268409992 0.010150479316 0.010037495087 0.0099293100136 0.0098253343746 0.0097246575951 0.0096263431044 0.0095292439075 
0.0094321998777 0.0093341894209 0.0092342716089 0.009131825459 0.0090263993871 0.0089177793838 0.0088059616103 0.012126872036 0.011991070624 
0.011849237645 0.011702923843 0.011553512423 0.011402426035 0.011251009056 0.011100583614 0.010952404092 0.010807587641 0.010667118216 
0.010531761028 0.010402043262 0.010278337781 0.010160282328 0.01004762411 0.0099396776048 0.0098354914871 0.0097338419021 0.0096336705477 
0.0095336898297 0.0094327124268 0.0093298521978 0.0092243857715 0.0091158590144 0.0090040628113 0.01256099714 0.012416053035 0.012264074299 
0.012106567822 0.01194524432 0.011781587792 0.011617148454 0.011453410406 0.011291806281 0.01113363637 0.010980049183 0.010831981226 
0.010690128225 0.010554887043 0.010426355881 0.010304444103 0.010188334412 0.010077334546 0.009970357142 0.0098660742449 0.0097633092422 
0.0096606928247 0.0095569695429 0.0094512072723 0.0093426643922 0.0092308869842 0.013038422811 0.01288336371 0.012720152325 0.012550492953 
0.012376095699 0.012198845792 0.012020428889 0.011842545783 0.011666805503 0.011494730067 0.011327612191 0.011166540682 0.011012339869 
0.010865528768 0.010726319219 0.0105945944 0.010469924912 0.010351710223 0.010238656237 0.010129693863 0.010023397115 0.0099183357391 
0.0098132331523 0.0097067416512 0.0095979073045 0.0094860152601 0.013556476395 0.013390123294 0.013214412888 0.013031274873 0.012842686831 
0.012650602838 0.012457143043 0.012264195216 0.012073605093 0.011887096513 0.011706132474 0.011531932998 0.011365424629 0.011207198945 
0.011057521754 0.010916315879 0.010783186808 0.010657441927 0.010538110042 0.010424112525 0.010313824541 0.010205827196 0.010098657309 
0.0099909251547 0.0098813491755 0.0097689778936 0.014111986358 0.013932890988 0.013743195407 0.01354506217 0.013340746093 0.01313256367 
0.012922770755 0.012713726413 0.012507500761 0.012306022957 0.012110959764 0.011923653107 0.011745105895 0.011575936841 0.011416403683 
0.011266389024 0.011125450136 0.010992859845 0.010867585151 0.010748409839 0.010634083251 0.010522785645 0.010413141047 0.010303623792 
0.010192714312 0.010079383446 0.014701051698 0.014507432172 0.014301917335 0.014087150689 0.013865336597 0.013639352114 0.013411883069 
0.013185480461 0.012962701225 0.012745693437 0.012536304292 0.012336032515 0.012145929713 0.01196660464 0.011798245844 0.011640590009 
0.011493060053 0.011354751355 0.011224528473 0.011101041704 0.010982850634 0.010868444316 0.010756212225 0.010644467434 0.010531780261 
0.010416802773 0.015319573726 0.015109206943 0.014885618726 0.014651591756 0.014410137957 0.014164368419 0.013917423456 0.013672330348 
0.013432063971 0.013198858299 0.012974938987 0.012761964234 0.012561006796 0.012372627193 0.012196861392 0.01203331519 0.011881000127 
0.011738804884 0.011605312647 0.011478953671 0.011358112331 0.011241133414 0.011126376217 0.011012369252 0.010897446344 0.0107803153 
0.015961576438 0.015731730363 0.0154873995 0.015231597631 0.014967902958 0.014699954264 0.014431412437 0.014165831219 0.013906445431 
0.01365630343 0.013417628721 0.013192271371 0.012981573003 0.01278558666 0.012604329269 0.01243700676 0.012282368925 0.012138791091 
0.012004445347 0.011877401123 0.011755731439 0.011637608698 0.011521290556 0.011405190396 0.011287802833 0.011168072392 0.016620424589 
0.016367760103 0.016099149881 0.015817992953 0.015528785419 0.015235656493 0.014942966503 0.014654761199 0.014374983069 0.014106740164 
0.013853001334 0.013615691601 0.013396005882 0.013194254413 0.013009922671 0.012841703786 0.012688096273 0.012546414617 0.012414420866 
0.012289654213 0.012169748642 0.012052567686 0.011936211908 0.011819031684 0.01169963958 0.011576844885 0.017285100035 0.017005693932 
0.016708891685 0.016399015516 0.016080784311 0.015759164382 0.015439190122 0.015125742821 0.014823157108 0.014535734678 0.014266175384 
0.014017238655 0.013790152985 0.013584988201 0.013400597264 0.01323520398 0.013086211941 0.012950553665 0.012824974521 0.012706279549 
0.012591702673 0.012478291316 0.012364082482 0.012247293606 0.012126656675 0.012001108301 0.017943639748 0.01763271444 0.017303008661 
0.016959424717 0.016607551324 0.016253152912 0.015902132401 0.015560229567 0.015232803589 0.014924536935 0.014639215901 0.014379335212 
0.01414649605 0.013940450332 0.01375969076 0.013601490152 0.013461746595 0.013337299541 0.01322308417 0.013115121934 0.013009643973 
0.012903539047 0.012794303288 0.012680269929 0.01255971645 0.012431973651 0.018580746636 0.018233085072 0.017865062777 0.017482467351 
0.017091692867 0.01669955145 0.016312927788 0.015938635477 0.015583060499 0.0152518356 0.014949517852 0.014679258923 0.014442482694 
0.014238893722 0.014066097708 0.013920471362 0.013796849973 0.013689538435 0.01359275356 0.013501090345 0.013409675564 0.013314891889 
0.013214036376 0.013104913449 0.012986234542 0.012857331221 0.019180662083 0.018790446493 0.018378018918 0.017950180436 0.017514402088 
0.0170785873 0.016650887909 0.016239371167 0.015851725471 0.015494723558 0.015174024879 0.014893475656 0.014654836392 0.014457465879 
0.014298150374 0.014171523051 0.014070592482 0.013987822544 0.01391547293 0.013846574818 0.013775264194 0.013696943196 0.013608329215 
0.013507269416 0.013392378307 0.013263459284 0.019730415796 0.019291194505 0.018827609263 0.018347536412 0.017859692294 0.01737332827 
0.016898020176 0.016443357514 0.016018562262 0.015632088431 0.015290979129 0.01500008942 0.014761664282 0.014574663553 0.014434795719 
0.014334682505 0.014264897002 0.014215108894 0.0141752429 0.014136322481 0.01409121308 0.014034400602 0.013962192033 0.013872324824 
0.013763879602 0.013636749888 0.020225281348 0.01973008434 0.019207747676 0.018667569928 0.018119597616 0.017574616613 0.017043932407 
0.016538947051 0.016070852347 0.015650047203 0.015285419555 0.014983386297 0.014746977523 0.014574840122 0.0144611304 0.014395991964 
0.014366643178 0.014359262371 0.014360757254 0.014359806937 0.014347550922 0.014317600208 0.014266013274 0.014190560375 0.014090586408 
0.013966504259 0.010937490039 0.010857822444 0.010777670899 0.010697506044 0.010617737998 0.010538704461 0.010460588645 0.010383482324 
0.010307242057 0.010231565715 0.010156004994 0.010080016805 0.010003003334 0.009924409644 0.0098437008793 0.0097604820287 0.0096744687352 
0.0095855018115 0.0094935497858 0.0093986899483 0.0093010923043 0.0092009975949 0.0090987117917 0.0089946038697 0.0088890087499 0.0087823583034 
0.011142150075 0.011058276339 0.010973812822 0.010889224902 0.010805010529 0.010721590197 0.010639221661 0.010558013594 0.01047791904 
0.010398630366 0.010319690907 0.010240530716 0.01016054323 0.010079122801 0.0099957515266 0.0099099708923 0.009821483023 0.0097301076874 
0.009635782961 0.0095385564737 0.0094385676477 0.0093360317046 0.0092312349614 0.0091245060669 0.0090162384376 0.0089067951728 0.011331672891 
0.011243514139 0.011154475924 0.011065098424 0.010976118253 0.010887957454 0.010800968822 0.010715350973 0.010631046058 0.010547853959 
0.010465304103 0.01038281925 0.010299770734 0.010215519356 0.01012949026 0.010041264207 0.0099504279557 0.0098567917611 0.0097602534991 
0.0096608247506 0.0095586114187 0.0094537999243 0.0093466508181 0.0092374789335 0.0091266331937 0.0090145411325 0.011516054738 0.011423247266 
0.011329291064 0.011234877872 0.011140678742 0.011047201045 0.010955054289 0.010864431272 0.010775379974 0.010687699242 0.010601030759 
0.010514792775 0.010428345507 0.010341042171 0.01025226023 0.010161503641 0.010068343904 0.0099725213801 0.0098738845705 0.0097723950942 
0.0096681206351 0.0095611973112 0.0094518607212 0.0093403973644 0.0092271488627 0.0091125041959 0.011706571012 0.011608763664 0.011509456366 
0.011409443054 0.011309457309 0.011210178683 0.011112077758 0.011015671652 0.010921038472 0.010828091007 0.010736491895 0.010645786218 
0.010555334739 0.010464482949 0.010372586542 0.010279051602 0.010183470014 0.010085427303 0.0099847359522 0.0098812750663 0.0097750533235 
0.0096661683767 0.0095548044989 0.009441216298 0.0093257220979 0.0092086939636 0.011914064662 0.011810997631 0.011705866044 0.011599665991 
0.011493240974 0.011387334212 0.011282587317 0.011179471026 0.011078193636 0.010978932203 0.010881424831 0.010785282026 0.010689927954 
0.010594784615 0.010499168739 0.010402435823 0.010304078418 0.010203664318 0.01010082985 0.0099954069209 0.009887317172 0.0097765862843 
0.0096633394842 0.009547782639 0.0094301984709 0.0093109366367 0.012148365494 0.012039243656 0.01192772648 0.011814719751 0.011701284275 
0.011587932769 0.011475552068 0.011364727419 0.011255863508 0.011149147634 0.011044477154 0.010941748131 0.010840459326 0.010740020869 
0.010639856252 0.010539268093 0.010437634471 0.010334468271 0.010229288268 0.01012181053 0.010011850969 0.0098993394957 0.0097843196918 
0.0096669331157 0.0095474067663 0.009426050888 0.012416626125 0.012301093778 0.01218259182 0.012062098271 0.011940566095 0.01181891887 
0.011698123981 0.011578568366 0.011460950539 0.011345617933 0.011232716005 0.011122181821 0.011013674178 0.010906867153 0.010801102743 
0.010695775408 0.010590178234 0.010483712906 0.010375845346 0.010266093144 0.010154164354 0.010039865069 0.0099231353606 0.0098040209698 
0.0096826809056 0.0095593630667 0.012723908669 0.012601394992 0.012475261033 0.012346549459 0.01221629399 0.012085474944 0.011955024037 
0.011825744459 0.011698471296 0.01157341195 0.011451051038 0.011331522626 0.011214708943 0.011100261176 0.010987836746 0.010876735331 
0.010766320744 0.010655885889 0.010544764082 0.010432399694 0.010318285553 0.010202104846 0.01008365721 0.0099628749364 0.0098398116693 
0.0097146508798 0.013073254981 0.012943138161 0.012808675006 0.012670981118 0.012531169613 0.012390311703 0.01224944019 0.012109481231 
0.011971269137 0.011835475159 0.011702750714 0.011573115669 0.011446813401 0.011323720586 0.011203497455 0.011085556829 0.010969353643 
0.010854120099 0.010739106023 0.010623619478 0.010506976416 0.010388710385 0.010268456854 0.01014599775 0.010021265124 0.0098943374953 
0.013466173648 0.013327705807 0.013184154432 0.013036656857 0.012886426434 0.012734645582 0.012582441495 0.012430905243 0.012280989331 
0.01213352751 0.011989212894 0.01184868586 0.011711920512 0.011579118223 0.011450082018 0.011324403156 0.011201424916 0.011080517508 
0.010960864595 0.010841620367 0.010722032654 0.010601363564 0.010479115848 0.010354892372 0.010228478241 0.010099806735 0.013902801895 
0.013755313321 0.013601765207 0.013443573546 0.013282002106 0.013118372556 0.012953935303 0.012789904296 0.012627430851 0.012467491583 
0.012310946929 0.01215844957 0.012010444801 0.011867272265 0.011728596013 0.011594263809 0.011463768963 0.011336412611 0.011211279131 
0.011087643373 0.01096454089 0.010841064042 0.010716535649 0.010590373155 0.01046217297 0.010331719415 0.014382543076 0.014225081578 
0.014060693417 0.013890749955 0.013716841151 0.013540346963 0.013362716 0.013185318664 0.013009461146 0.012836304068 0.012666855288 
0.012501921503 0.012342091579 0.012187690519 0.012038791908 0.011895340671 0.011756621837 0.011622126874 0.01149102068 0.011362284694 
0.011235079522 0.011108362943 0.0109811744 0.010852793429 0.010722619284 0.01059025599 0.014904082547 0.014735591528 0.014559212308 
0.01437649899 0.014189037714 0.013998595996 0.013806742644 0.013615049726 0.013424983743 0.013237915816 0.01305498937 0.012877154809 
0.012705117497 0.012539307427 0.012379880871 0.012226712143 0.012079421912 0.011937521636 0.011799902418 0.011665751369 0.011533951665 
0.011403412531 0.011273189912 0.011142228192 0.011009795867 0.010875317094 0.01546556653 0.015284791692 0.015095091041 0.014898233784 
0.014696053771 0.014490366531 0.014283152001 0.014076145349 0.013871030314 0.013669366301 0.013472459145 0.01328138662 0.013096954397 
0.012919660539 0.01274970353 0.012586981657 0.012431114117 0.012281474323 0.012137342316 0.011997454196 0.011860780385 0.011726196738 
0.011592464503 0.011458550659 0.011323499573 0.011186548177 0.016064579043 0.015870017734 0.015665467396 0.01545291128 0.015234437629 
0.015012193471 0.014788259876 0.014564811072 0.014343731181 0.014126766523 0.013915417671 0.013710882034 0.013514044844 0.013325437538 
0.013145256996 0.012973362976 0.012809319321 0.01265244376 0.012501792372 0.0123562882 0.012214876216 0.012075989728 0.011938555751 
0.011801373247 0.011663246076 0.011523426716 0.016697979058 0.01648782331 0.016266574541 0.016036671492 0.015800120362 0.015559585933 
0.015317535047 0.015076294198 0.014838202181 0.014605200207 0.014378956794 0.014160823027 0.013951739005 0.013752240549 0.013562473551 
0.013382174002 0.013210788039 0.013047464655 0.012891148058 0.012740601671 0.012594535712 0.012451568147 0.012310531612 0.012169824352 
0.012028392668 0.011885192883 0.017362510573 0.017134571044 0.016894401294 0.016644558721 0.016387808948 0.016127000528 0.015865000532 
0.015604505878 0.015348399979 0.015098511666 0.014856924825 0.014625143761 0.014404137319 0.014194413443 0.01399599601 0.013808529638 
0.013631091682 0.013462654595 0.013301910896 0.013147405607 0.012997657861 0.012851163636 0.012706467911 0.012562321066 0.012417315223 
0.012270425216 0.018053320912 0.01780498065 0.017543326058 0.017271118336 0.016991639525 0.016708202626 0.016424134615 0.016142650962 
0.01586667058 0.015598977413 0.015341556726 0.01509609744 0.014863843054 0.014644823402 0.014439079281 0.014245921811 0.014064228608 
0.013892529628 0.013729157696 0.013572337425 0.01342028695 0.013271316759 0.01312382617 0.01297638697 0.012827680575 0.012676871161 
0.018765477996 0.018493621166 0.018207142478 0.017909159891 0.017603820399 0.017294854181 0.016986210766 0.016681529587 0.016384373679 
0.016097519885 0.015823669071 0.015564560355 0.015321294527 0.015094185209 0.014882814704 0.014686051449 0.014502623328 0.014330101378 
0.014166500336 0.014009587314 0.013857186494 0.013707312119 0.013558185491 0.013408264143 0.013256274273 0.013101162603 0.019490733771 
0.019191783789 0.018876875055 0.018550018425 0.01821552311 0.017877884629 0.017541639659 0.017211061898 0.016890366956 0.016583101908 
0.016291755521 0.016018862488 0.015765554195 0.015531941546 0.01531705478 0.015119409438 0.014936779567 0.014766500914 0.014605707889 
0.014451544171 0.014301511755 0.014152846271 0.014003705414 0.013852416856 0.01369764457 0.013538492795 0.020221519468 0.019891161305 
0.019543547545 0.019183178399 0.018815226616 0.018444885461 0.018077462771 0.017718106015 0.017371595796 0.017042102097 0.016732989805 
0.016446469106 0.016184021964 0.0159454862 0.015729639324 0.015534211553 0.015355675136 0.015191476267 0.015037185555 0.014889207874 
0.014744248404 0.014599412982 0.014452335975 0.014301378851 0.014144828182 0.013981976133 0.020949014932 0.020582570267 0.020197308515 
0.019798623654 0.019392369153 0.018984722564 0.018581859186 0.018189867947 0.017814417575 0.017460474295 0.017132032372 0.016831848615 
0.016561189456 0.016319793988 0.016106002825 0.015916518117 0.015747233636 0.015593343294 0.015449922751 0.015312275995 0.015176046069 
0.015037934779 0.014895386161 0.014746220103 0.014589075394 0.014423167199 0.02166589338 0.021258102714 0.020829683356 0.020386976949 
0.01993683828 0.019486429824 0.019043071901 0.018613977573 0.018205817571 0.017824587274 0.017475131047 0.01716072089 0.01688286211 
0.016641079274 0.016432786913 0.016253656209 0.0160980004 0.015959649664 0.015832112043 0.01570941274 0.015586375547 0.015458796745 
0.015323542994 0.015178415206 0.015021885722 0.014853538184 0.022368514473 0.02191347448 0.021435726123 0.020942621305 0.020442161919 
0.019942741529 0.019452942887 0.018981265196 0.018535753786 0.018123671192 0.017750957252 0.017421591067 0.017137389839 0.016897490798 
0.016698492807 0.016534554096 0.016398193639 0.016281098917 0.016174988444 0.016072253463 0.015966644456 0.015853100995 0.015728040122 
0.015589071972 0.015435003843 0.015265384744 0.023060508393 0.022551734695 0.022017686695 0.02146700949 0.02090892698 0.020353248117 
0.019810027558 0.019289376313 0.018800943343 0.018353508527 0.017954373093 0.017608625573 0.017318538419 0.017082897816 0.01689709547 
0.016753527911 0.01664229965 0.016552551179 0.016473733315 0.016396366875 0.016312698576 0.016216813435 0.016104779607 0.015974084268 
0.015823621436 0.015653286849 0.012018400939 0.011932396795 0.011845426097 0.011757887536 0.01167012622 0.011582428345 0.0114949522 
0.011407803283 0.011320899877 0.011234050041 0.011146954706 0.011059242095 0.010970488337 0.010880298857 0.010788272999 0.010694116444 
0.01059760984 0.01049862501 0.010397132569 0.010293189818 0.010186931579 0.010078554057 0.0099683135286 0.0098565267778 0.009743475554 
0.0096295402269 0.012275056791 0.012184474528 0.012092804453 0.012000427608 0.011907761742 0.011815159738 0.011722841613 0.011630922415 
0.011539418075 0.011448142082 0.011356805615 0.011265031856 0.011172408389 0.011078504127 0.010982946261 0.010885380479 0.010785576918 
0.010683388419 0.010578757436 0.010471713978 0.010362364339 0.0102508805 0.010137498832 0.010022496858 0.0099062114424 0.0097889501426 
0.012524875657 0.012429604133 0.012332944799 0.012235340019 0.012137429804 0.012039553207 0.011942009746 0.011844992758 0.011748502427 
0.011652463601 0.011556586327 0.011460505608 0.011363808425 0.011266050954 0.01116684451 0.011065808635 0.010962686017 0.010857299745 
0.010749556714 0.010639454156 0.010527066863 0.010412538793 0.010296080733 0.010177953222 0.010058447961 0.0099379330635 0.012775133801 
0.012674784198 0.012572775125 0.012469689833 0.012366013835 0.012262381588 0.012159110663 0.012056445104 0.011954482311 0.011853137744 
0.011752234289 0.011651411784 0.011550260403 0.011448357493 0.011345244323 0.011240598474 0.011134050725 0.011025407299 0.010914534654 
0.010801386764 0.010686004215 0.010568482429 0.010449008023 0.0103278085 0.010205169839 0.010081415318 0.013034065087 0.012928264814 
0.012820464782 0.012711340535 0.012601506823 0.01249153471 0.012381814337 0.012272825862 0.012164672572 0.01205737162 0.011950745218 
0.011844555263 0.011738400065 0.011631857837 0.011524490079 0.011415868434 0.01130570247 0.011193654962 0.011079575139 0.010963344602 
0.010844956274 0.010724470967 0.010602024915 0.010477816336 0.010352101284 0.010225185087 0.013309763312 0.013198231377 0.013084160792 
0.01296842412 0.012851741458 0.012734742449 0.012617978544 0.012501870054 0.0123866293 0.012272501624 0.012159359353 0.012047002377 
0.01193508018 0.011823251226 0.011711055905 0.011598045273 0.011483861407 0.0113681797 0.011250701015 0.011131284005 0.011009847474 
0.010886391465 0.010760998829 0.010633821085 0.010505078192 0.010375049528 0.013610033667 0.013491949643 0.013371041394 0.013248241289 
0.013124015429 0.012999234952 0.012874535919 0.012750440329 0.012627333604 0.012505436408 0.012384737851 0.012265281635 0.012146760845 
0.012028810723 0.011911077235 0.011793086044 0.011674398179 0.011554670636 0.011433523894 0.011310732536 0.011186134854 0.011059653365 
0.010931301515 0.010801170806 0.010669432412 0.010536322147 0.013940872673 0.013815855209 0.013687491084 0.013556636053 0.01342411992 
0.013290910447 0.013157415662 0.013024416795 0.012892415997 0.012761758989 0.012632636569 0.012505015496 0.012378905366 0.01225396776 
0.01212982932 0.01200610829 0.011882309066 0.011758015351 0.011632835991 0.01150638887 0.011378439927 0.011248816007 0.011117447172 
0.010984344798 0.010849614728 0.010713437318 0.014306953397 0.014174391766 0.014037903153 0.013898408926 0.013756826312 0.013614028661 
0.013470853358 0.013328179382 0.013186323019 0.013045919503 0.012907300822 0.012770646791 0.012635934526 0.012502959295 0.012371563324 
0.012241260804 0.012111635342 0.011982190897 0.011852444593 0.011721985909 0.011590410662 0.011457461157 0.011322957855 0.011186821129 
0.011049067671 0.010909817286 0.014711482554 0.014570709972 0.014425366284 0.01427644864 0.014124957763 0.013971861801 0.013818100524 
0.013664521841 0.013511870634 0.013360925761 0.013211847393 0.013065106501 0.012920837034 0.012779008075 0.012639420927 0.012501671509 
0.012365426178 0.012230139576 0.012095275021 0.011960328437 0.011824766627 0.011688229351 0.011550414027 0.011411123663 0.011270276009 
0.011127906155 0.015156422213 0.015006691832 0.01485168901 0.014692496105 0.014530209843 0.014365912945 0.014200639847 0.014035390898 
0.013871033011 0.013708321214 0.013547884439 0.013390324191 0.013235612779 0.013083993338 0.012935360886 0.012789447633 0.012645780629 
0.012503942984 0.012363345292 0.012223359335 0.012083418713 0.011942967198 0.011801593112 0.011658971831 0.011514908876 0.011369319571 
0.015642760023 0.015483229393 0.015317614195 0.015147210543 0.014973170973 0.014796713996 0.014618991818 0.014441121073 0.014264156718 
0.014088976297 0.013916356475 0.013746884687 0.013580967217 0.013418946837 0.013260532363 0.013105667851 0.012953991187 0.012804985349 
0.012657968822 0.012512429911 0.012367636602 0.012222878135 0.01207764083 0.011931455706 0.011783984072 0.011635028229 0.016170487201 
0.016000198303 0.015823072721 0.015640357544 0.015453525649 0.015263847647 0.015072665165 0.014881240353 0.01469076873 0.014502301392 
0.014316744239 0.014134818051 0.01395704955 0.013783737129 0.013614963036 0.013450728725 0.013290423505 0.01313369072 0.012979888971 
0.012828221538 0.012678085109 0.012528667965 0.01237921428 0.012229167831 0.012078043142 0.011925507363 0.016739120993 0.01655695886 
0.016367121136 0.016171032834 0.015970149828 0.015766118801 0.015560387745 0.015354405234 0.015149517009 0.014946956444 0.014747766456 
0.014552793657 0.014362667193 0.01417776992 0.013998245792 0.013823996394 0.013654713382 0.013490024738 0.013328984148 0.013170954087 
0.013015119278 0.012860554217 0.012706575014 0.012552328685 0.012397253336 0.012240863317 0.017347592678 0.017152256146 0.016948337174 
0.016737460777 0.01652132131 0.016301592326 0.016080112129 0.015858472353 0.015638212919 0.015420754542 0.015207276726 0.014998749264 
0.014795894076 0.014599152955 0.01440870548 0.014224459001 0.014046084967 0.013873048439 0.01370476074 0.013540134499 0.013378344288 
0.013218497994 0.013059597574 0.012900841136 0.012741475977 0.012580898784 0.017994296632 0.017784255045 0.017564702517 0.01733746415 
0.017104465587 0.016867687242 0.016629043719 0.016390535938 0.016153882183 0.015920672269 0.015692268101 0.015469752301 0.015253924132 
0.015045261128 0.014843938354 0.014649831083 0.014462548897 0.014281491552 0.014105831909 0.01393464338 0.013767053474 0.013601707096 
0.013437760507 0.013274247487 0.013110195947 0.01294505205 0.018676981389 0.018450431796 0.018213403071 0.01796815696 0.017716510596 
0.017460929455 0.017203618414 0.016946873541 0.016692663743 0.016442809409 0.016198825696 0.015961942292 0.015733014717 0.015512533012 
0.015300635757 0.015097087971 0.014901399225 0.014712808438 0.014530378208 0.014353014436 0.014179593178 0.014008920834 0.013840037243 
0.013671561338 0.013502661363 0.013332501881 0.019393450409 0.019148257051 0.018891578193 0.018625773013 0.018353383808 0.018077019317 
0.01779929875 0.017522673632 0.017249793575 0.016982280878 0.016722046456 0.016470464835 0.016228424235 0.015996401166 0.01577443871 
0.015562240869 0.015358982123 0.015163758098 0.014975403202 0.014792617261 0.014614083558 0.014438471936 0.014264511208 0.014091145326 
0.013917170697 0.013741751375 0.02014023584 0.019873898613 0.019595111082 0.019306411475 0.0190108186 0.018711356572 0.018411051769 
0.018112822242 0.01781929975 0.01753298756 0.017255828041 0.01698919574 0.016734316972 0.016491214245 0.016259981807 0.016040041953 
0.015830425626 0.015629842581 0.015436819175 0.015249770036 0.015067097682 0.014887286513 0.014708902923 0.014530683372 0.014351540988 
0.014170610635 0.020914326415 0.020623922598 0.020319579617 0.020004888221 0.019683213393 0.019357841549 0.019032486171 0.018710428246 
0.018394888469 0.018088355339 0.017793283296 0.017511262244 0.017243312868 0.016989768639 0.016750321815 0.016524015283 0.016309822684 
0.016105581169 0.015909577325 0.015719836528 0.01553440894 0.015351502386 0.015169500395 0.014987000043 0.014802855234 0.014616138422 
0.02171021818 0.021392445047 0.021059761263 0.020715888174 0.020364771966 0.020010495436 0.019657157025 0.019308594838 0.018968606689 
0.018640378045 0.018325937752 0.01802814247 0.017747534407 0.017484450208 0.017238096728 0.0170072727 0.01679011333 0.016584348519 
0.01638750401 0.016197078474 0.016010871122 0.01582635028 0.015641843778 0.015455803895 0.015266972857 0.015074537914 0.022524137954 
0.02217502846 0.021809776637 0.021432546197 0.021048084174 0.020661093656 0.020276355834 0.019898484229 0.01953174774 0.019179859081 
0.018845715596 0.018531587458 0.01823856826 0.01796669224 0.017715009009 0.017481494546 0.01726369017 0.017059077487 0.016863966499 
0.016675250388 0.016490042213 0.016305724389 0.0161201304 0.015931724574 0.015738839423 0.015540781995 0.023352211856 0.022967489112 
0.022565123984 0.022150112988 0.021727808828 0.021303807094 0.02088365255 0.020472776651 0.020076207592 0.019698314403 0.019342637342 
0.019011533256 0.018706308619 0.018426703377 0.018171499287 0.017938022509 0.017722937781 0.017522268468 0.017331880988 0.017147758668 
0.016966071041 0.016783881925 0.016598847107 0.016408877609 0.016212615919 0.016009227626 0.024192918615 0.02376775476 0.023323218289 
0.022865173805 0.022399874317 0.021933823158 0.021473547137 0.021025461871 0.020595423784 0.020188659855 0.019809360482 0.019460373781 