# vtk DataFile Version 5.1
vtk output
ASCII
DATASET STRUCTURED_POINTS
DIMENSIONS 26 26 26
SPACING 0.08 0.08 0.08
ORIGIN -1 -1 0.5
POINT_DATA 17576
FIELD FieldData 1
potential 1 17576 double
0.0035516351514 0.003507552843 0.0034652111407 0.0034246876466 0.0033859438304 0.0033490793293 0.0033139402825 0.0032803762976 0.0032482004245 
0.0032172076008 0.0031869980123 0.0031578476018 0.003129368938 0.003101453964 0.003073968934 0.0030467690636 0.0030198077053 0.0029928212826 
0.0029657126136 0.0029384608034 0.002911033827 0.0028834277112 0.0028556798687 0.0028278503265 0.0028000075633 0.0027722415667 0.003500888031 
0.0034582120686 0.0034174134551 0.0033784867668 0.0033415681303 0.0033065247541 0.0032731990442 0.0032413837081 0.0032108155597 0.0031809906904 
0.0031521402715 0.0031238146196 0.0030958955924 0.0030682521336 0.0030407989624 0.0030135372523 0.0029862492974 0.0029588558761 0.0029313604804 
0.0029037353084 0.0028759736362 0.002848098999 0.0028201662071 0.0027922303353 0.0027643742002 0.0027366851542 0.0034347458355 0.0033936238211 
0.0033544534722 0.0033174068756 0.0032824008711 0.0032493243001 0.0032179636087 0.0031880394542 0.0031589639664 0.0031309004928 0.0031033038113 
0.0030759462893 0.0030487153922 0.003021500221 0.0029942542793 0.0029670877911 0.0029396518435 0.0029120914108 0.0028843951998 0.0028565666059 
0.0028286349923 0.0028006450881 0.0027726543084 0.0027447345707 0.002716971268 0.0026894619352 0.0033568827217 0.0033173695572 0.0032800744322 
0.0032449579892 0.0032119689902 0.0031809481106 0.0031516360106 0.0031234138822 0.0030963706577 0.0030698662924 0.00304357251 0.0030172497722 
0.0029907974886 0.0029641286907 0.0029373954583 0.0029102579371 0.0028829039222 0.00285534497 0.0028276177177 0.0027997561364 0.0027718057637 
0.0027438343497 0.0027159121891 0.0026881338007 0.0026605688073 0.0026333296513 0.0032716885081 0.0032339494001 0.0031985478738 0.003165430814 
0.0031345066491 0.0031053092736 0.0030780377043 0.0030519910104 0.0030266870848 0.0030016967128 0.0029766773639 0.0029513836451 0.0029257270603 
0.0028998491857 0.0028733909031 0.0028465619819 0.0028194239378 0.0027920186184 0.002764406145 0.002736656881 0.0027088271357 0.0026809978071 
0.0026532595076 0.002625704924 0.0025984354986 0.0025715563006 0.0031834144974 0.0031475852647 0.0031141303081 0.0030830344375 0.00305389796 
0.0030270177537 0.0030017054014 0.0029774600233 0.0029537716888 0.0029301715402 0.0029063013552 0.0028819874646 0.0028571917502 0.0028318445023 
0.0028058981606 0.0027794620484 0.002752632867 0.002725488119 0.0026981054549 0.0026705653255 0.002642966246 0.0026153896899 0.0025879383407 
0.0025607140578 0.0025338261132 0.0025073869754 0.0030958912525 0.003061934719 0.0030304345529 0.0030010637265 0.0029742182442 0.0029492827104 
0.0029257885947 0.0029031808632 0.0028809227843 0.0028585386164 0.0028357008763 0.0028123236122 0.0027882392385 0.0027633813522 0.0027379140565 
0.002711902941 0.0026854416472 0.0026586316662 0.0026315666159 0.0026043468222 0.002577068529 0.0025498360698 0.0025227586138 0.0024959477953 
0.0024695157835 0.0024435446011 0.0030118544614 0.0029794815848 0.0029499327192 0.0029228061556 0.0028978866281 0.0028747539769 0.0028529012017 
0.0028317272928 0.0028106879763 0.0027893200034 0.0027674171135 0.0027447523698 0.0027211690759 0.0026968384228 0.0026718311394 0.002646240531 
0.0026201734643 0.0025937409254 0.0025670516986 0.0025402099364 0.0025133268984 0.0024865122643 0.0024598796637 0.0024335468112 0.0024076351055 
0.0023822310726 0.0029330022825 0.0029028104243 0.0028751536184 0.0028498940736 0.0028267473505 0.0028052505024 0.0027848343087 0.0027648742013 
0.0027448417981 0.0027244054882 0.0027030738414 0.0026809723878 0.0026578846519 0.0026339927219 0.0026093949644 0.0025841938288 0.0025585181738 
0.0025324782613 0.0025061937824 0.0024797758443 0.0024533362296 0.0024269890995 0.0024008554209 0.0023750554152 0.0023496725094 0.0023249203462 
0.0028612526604 0.0028328891733 0.0028070534728 0.002783555142 0.0027620425661 0.0027419986347 0.0027228072786 0.0027038587361 0.0026847416804 
0.0026648079924 0.0026441071404 0.002622342092 0.0025996358946 0.0025760989472 0.0025518443986 0.0025269905217 0.0025016769914 0.0024760262109 
0.0024501463308 0.0024241665066 0.0023981975799 0.0023723530436 0.0023467519263 0.0023215221457 0.0022967475415 0.002272641951 0.0027971797195 
0.0027705800693 0.0027464716492 0.0027246043241 0.002704562915 0.0026857798693 0.0026677427722 0.0026495882848 0.0026309575488 0.0026115928564 
0.0025911606892 0.0025697141681 0.0025472906377 0.0025240291846 0.0025000504686 0.0024754930591 0.002450497235 0.0024252026777 0.0023997141041 
0.0023741714394 0.002348678746 0.0023233506254 0.0022983078852 0.0022736284679 0.0022495259698 0.0022260885635 0.0027413476755 0.0027164312265 
0.0026939332882 0.0026735493389 0.0026547966488 0.0026372131898 0.0026198641468 0.0026023190827 0.0025841267521 0.0025650806939 0.0025449079112 
0.0025236617554 0.0025014490673 0.0024783833827 0.0024546223138 0.0024303044471 0.0024055939767 0.0023806100647 0.0023554928954 0.0023303650982 
0.0023053382794 0.0022805197331 0.0022560331306 0.0022319511605 0.0022084860845 0.0021857243005 0.0026941190172 0.002670783709 0.002649763315 
0.0026306944834 0.0026131899444 0.0025963181211 0.0025796033468 0.0025624897891 0.0025446626808 0.0025257380651 0.0025057106635 0.0024845944805 
0.0024625153799 0.0024395983506 0.0024160051781 0.0023918877045 0.0023674130336 0.0023427081161 0.0023179209225 0.0022931718106 0.0022685797808 
0.0022442542251 0.0022202606676 0.0021968088836 0.0021739725986 0.0021518587783 0.0026557512347 0.00263385616 0.002614156394 0.0025963771157 
0.002579624225 0.0025634158312 0.0025471450951 0.0025304048652 0.0025126350929 0.0024938048651 0.0024738431222 0.0024527915622 0.0024307912641 
0.002407975753 0.0023845142244 0.0023605686018 0.0023362883735 0.002311829398 0.002287335385 0.0022629337988 0.0022387351021 0.0022148608637 
0.0021913552266 0.0021684593126 0.0021462268411 0.0021248760374 0.0026264120581 0.0026058052357 0.0025873959474 0.0025703878661 0.0025543347993 
0.0025385976976 0.002522693161 0.0025059793071 0.0024882511793 0.0024694240154 0.0024494608316 0.0024284232815 0.0024064635503 0.0023837251294 
0.002360378511 0.0023365678395 0.0023124598773 0.0022882207787 0.0022639672894 0.0022398719954 0.0022160360314 0.0021925251275 0.0021695499972 
0.0021472718187 0.0021255973632 0.002104750988 0.002606155495 0.0025868160777 0.0025691756574 0.0025528868413 0.0025373167144 0.0025218519201 
0.002506061919 0.0024893269438 0.0024715609564 0.0024526628583 0.0024326464495 0.0024115874041 0.0023896449042 0.0023669585374 0.0023436869773 
0.0023200072303 0.0022960662581 0.0022720282134 0.0022480311667 0.0022242094321 0.0022006931739 0.0021776556898 0.0021550896158 0.0021331695116 
0.002112001638 0.0020917087367 0.0025951011632 0.0025764901337 0.0025595592724 0.0025437583503 0.0025284587513 0.0025131837664 0.002497243856 
0.0024803965358 0.0024624895226 0.0024434660785 0.0024233366034 0.0024022344712 0.0023802984788 0.0023576747904 0.0023345123155 0.0023109596928 
0.0022871921308 0.0022633490492 0.0022395774683 0.002216009187 0.0021928362051 0.0021700571763 0.0021478505188 0.002126330229 0.0021056045285 
0.0020857900452 0.0025926946912 0.0025747281992 0.0025582659687 0.0025427113838 0.0025275787057 0.0025120893814 0.0024959663768 0.0024788950438 
0.0024607783133 0.002441591286 0.0024213586484 0.0024002198626 0.0023783022538 0.0023557320423 0.0023326785233 0.0023092737154 0.0022856833759 
0.0022620453447 0.002238607231 0.0022152810784 0.002192262259 0.0021697692856 0.0021478739754 0.0021266920882 0.0021063372584 0.0020869233809 
0.0025985652403 0.0025809947565 0.0025647278854 0.0025492912407 0.0025339119456 0.0025181790469 0.0025017261994 0.0024843741619 0.0024660039803 
0.0024466146558 0.0024262645049 0.0024050948335 0.0023831929367 0.0023607072343 0.0023377879757 0.002314553908 0.0022912780137 0.0022678580642 
0.0022445441319 0.0022214165485 0.002198699156 0.0021764687125 0.0021548459524 0.0021339490059 0.0021138980606 0.0020947949755 0.0026118342673 
0.0025943632 0.0025780262789 0.0025623609014 0.0025466361832 0.0025305116491 0.0025136571477 0.0024959373161 0.0024772798936 0.0024576789019 
0.0024372203925 0.0024160240962 0.0023941766797 0.0023718172517 0.0023490612683 0.0023261577288 0.0023029998846 0.0022798302192 0.0022567238934 
0.0022339053829 0.0022114434566 0.0021894623057 0.0021680854604 0.002147428996 0.0021276169531 0.002108744547 0.0026309497661 0.002613295619 
0.0025967173699 0.0025805004184 0.002564255276 0.0025475851539 0.0025302684844 0.0025121544203 0.0024932010843 0.0024734194433 0.0024528923643 
0.0024317054491 0.0024099578873 0.0023878801338 0.0023653379265 0.0023425743364 0.0023196975609 0.0022968178375 0.0022740027368 0.0022514648463 
0.0022292704634 0.0022075395252 0.0021863920312 0.0021659429392 0.0021463177645 0.0021275182686 0.00265361795 0.0026356068729 0.0026183518941 
0.0026014907174 0.0025845915035 0.0025673121269 0.0025494747709 0.0025309535514 0.0025117205281 0.0024918053386 0.0024712346018 0.0024502380479 
0.0024286511072 0.0024066809705 0.0023844354937 0.0023619903984 0.0023394546727 0.0023168646977 0.0022944285959 0.0022722038947 0.0022502886204 
0.0022288206721 0.0022078978716 0.0021876458311 0.0021680680545 0.0021494741268 0.0026768041353 0.0026580132681 0.0026400115398 0.0026223773772 
0.0026047426669 0.0025868157411 0.0025684564029 0.0025495538155 0.0025300994354 0.0025101886502 0.0024896700093 0.0024687038353 0.0024473580362 
0.0024256962118 0.0024038118691 0.0023817573966 0.0023596172273 0.0023374255125 0.0023153751945 0.0022935041427 0.0022719204508 0.0022507262068 
0.0022299406098 0.0022098755928 0.0021905238381 0.0021719942547 0.002696547648 0.0026769531727 0.0026581025098 0.0026396382108 0.0026212346034 
0.0026026945566 0.0025838544884 0.0025647589348 0.0025451432614 0.002525099255 0.0025047077689 0.0024839835362 0.0024629737183 0.0024417199759 
0.0024202863289 0.0023987014834 0.0023769871351 0.0023553105493 0.0023336933071 0.0023122225186 0.0022909974375 0.0022700076431 0.0022495710809 
0.0022296939138 0.0022104715424 0.0021919955847 0.0027090266429 0.0026886005267 0.0026689037889 0.0026496367843 0.0026305342174 0.0026115637767 
0.0025923271666 0.0025728909287 0.0025532061091 0.0025332591682 0.002513099902 0.0024927301755 0.0024721567302 0.0024514197069 0.0024305339301 
0.0024094644878 0.0023883564558 0.0023672140444 0.0023460938613 0.0023249689242 0.0023041389397 0.0022835906307 0.0022634345508 0.0022437576953 
0.0022246711588 0.0022062709415 0.0027108325706 0.0026896509435 0.0026691936649 0.0026493458498 0.0026296745226 0.0026101374545 0.0025906410877 
0.002571093964 0.0025514749075 0.0025317478879 0.002511945227 0.0024920440974 0.0024720305541 0.0024519137921 0.0024316799786 0.0024112684645 
0.0023908046679 0.0023702662372 0.0023495933331 0.0023290766957 0.0023086854293 0.002288510808 0.0022686554807 0.0022492111535 0.0022302816747 
0.0022119576842 0.0039213729122 0.003873831628 0.0038279432738 0.0037837592256 0.0037412242914 0.0037004351507 0.0036612527285 0.0036235586807 
0.0035872099946 0.003552047255 0.0035177085019 0.0034844802139 0.0034520285007 0.0034202168845 0.0033889380514 0.0033580659192 0.0033275757156 
0.0032972245339 0.0032669301004 0.0032366778334 0.0032064336897 0.0031761846421 0.0031459539712 0.0031157842977 0.0030857249447 0.0030558458899 
0.0038709536544 0.0038247511409 0.0037802998606 0.0037375661342 0.0036966704124 0.003657483172 0.0036198746056 0.0035836898876 0.0035487348234 
0.0035145758806 0.0034814982837 0.0034490861412 0.0034172345753 0.0033858147981 0.0033547434965 0.0033240217819 0.0032934370804 0.0032629150775 
0.0032324615184 0.0032020467972 0.0031716576744 0.0031413069392 0.0031110347541 0.0030808815957 0.0030509108694 0.0030211919164 0.0038090907434 
0.0037643475005 0.0037213836142 0.0036803520116 0.0036411438333 0.0036036612396 0.0035677349793 0.0035331593509 0.0034994432594 0.0034668428189 
0.0034348842473 0.0034033786689 0.0033722236713 0.003341302213 0.0033105551885 0.0032800801257 0.0032495187704 0.0032190077328 0.003188528016 
0.0031580741559 0.0031276646839 0.0030973314686 0.0030671168196 0.0030370778282 0.0030072814843 0.0029778078045 0.0037381882094 0.003694935223 
0.003653688132 0.0036143748458 0.003576932077 0.003541219755 0.0035070385456 0.0034738698332 0.0034419229662 0.0034106730049 0.0033798735382 
0.0033493251367 0.0033189210284 0.0032885912435 0.0032584315112 0.0032280894265 0.0031977314633 0.0031673514066 0.003136970234 0.0031066072506 
0.0030762933556 0.003046081165 0.0030160251701 0.002986203337 0.0029566681174 0.0029275139758 0.003661215581 0.0036195995538 0.0035800651107 
0.003542526974 0.0035068862736 0.0034727091894 0.0034402736966 0.0034090034607 0.003378560056 0.003348642737 0.0033189931483 0.0032894076131 
0.0032597897383 0.003230258336 0.0032004226612 0.0031704588883 0.00314040192 0.0031102670698 0.0030800939404 0.0030499336108 0.0030198247102 
0.0029898309008 0.0029600256523 0.0029304843105 0.0029012905224 0.0028725309085 0.0035811728526 0.0035413151008 0.0035035353243 0.0034677885708 
0.0034336772386 0.0034015451171 0.0033708068788 0.0033411082454 0.0033120987535 0.0032834432895 0.0032548660301 0.0032262210418 0.0031974589955 
0.0031684825459 0.0031391925825 0.0031096735604 0.0030799845239 0.0030501745506 0.0030202964383 0.0029904088184 0.0029605901938 0.0029309031629 
0.002901432017 0.0028722603074 0.0028434779129 0.0028151802546 0.0035010042669 0.0034628580144 0.0034268364204 0.0033925875957 0.0033605253775 
0.0033300987376 0.00330096632 0.0032727384167 0.0032450459257 0.0032175584365 0.0031899751325 0.0031622711836 0.0031342433836 0.0031057861637 
0.0030770201423 0.0030479704339 0.0030186965649 0.0029892664784 0.0029597512445 0.0029302240138 0.00290076892 0.0028714614541 0.0028423944617 
0.0028136603338 0.0027853517773 0.0027575304118 0.0034229508943 0.0033862207964 0.0033519543962 0.0033197352081 0.003289379568 0.0032605582479 
0.0032329120909 0.0032060188346 0.0031795018822 0.0031530173942 0.0031264158811 0.0030994731095 0.0030720016496 0.003044127039 0.0030158731798 
0.0029872912663 0.0029584525522 0.0029294381688 0.0029003267925 0.0028712136957 0.0028421774576 0.0028133062837 0.0027847002224 0.0027564551353 
0.0027286720483 0.0027014134813 0.003348512656 0.0033137944537 0.0032812289596 0.0032506773184 0.0032219070151 0.0031945698673 0.0031682594939 
0.0031425497596 0.0031170598638 0.0030915655543 0.0030656147418 0.0030393235489 0.0030124334748 0.002985076269 0.0029573004304 0.0029291650904 
0.0029007611187 0.0028721774865 0.002843502975 0.0028148283624 0.0027862476325 0.0027578551661 0.0027297526192 0.0027020403021 0.0026747807759 
0.0026481648356 0.0032795951746 0.0032465360156 0.0032156089308 0.0031866389598 0.0031593491706 0.0031333603631 0.0031082382743 0.0030835587325 
0.0030590571125 0.0030341700916 0.0030089678978 0.002983130522 0.0029567330217 0.0029298303878 0.0029024834024 0.0028747688044 0.0028467813899 
0.0028186249269 0.0027903821791 0.0027621633244 0.0027340617301 0.002706173503 0.0026785995661 0.0026514487879 0.0026247826672 0.0025987944069 
0.0032168402345 0.0031853785693 0.0031560078486 0.0031285127518 0.003102576634 0.0030777905816 0.0030538326677 0.0030300190004 0.0030061213233 
0.0029819393724 0.0029571502284 0.0029317723386 0.0029057848428 0.0028792736432 0.0028523029204 0.0028249657575 0.0027973660873 0.0027696116796 
0.0027417982328 0.0027140363041 0.0026864188585 0.0026590455986 0.0026320207805 0.0026054042473 0.0025793904331 0.0025540430518 0.0031608991589 
0.0031309604854 0.0031030432723 0.0030769034214 0.0030521763001 0.003028571385 0.0030053629197 0.0029822675318 0.002958957557 0.0029352585827 
0.0029108906806 0.0028858647791 0.0028602253724 0.002834040337 0.0028073982379 0.0027803959044 0.0027531601598 0.0027257817178 0.0026983794236 
0.0026710596192 0.002643920484 0.0026170565758 0.0025905772325 0.0025645405592 0.0025391381658 0.0025144344019 0.0031122050721 0.0030836976816 
0.0030571223734 0.0030321970182 0.0030086773815 0.0029858197079 0.0029633361806 0.0029408223299 0.0029180460437 0.0028946469132 0.002870596972 
0.0028458611059 0.002820505507 0.0027945953083 0.0027682378704 0.0027415410675 0.0027146263669 0.0026875988572 0.002660581661 0.0026336784253 
0.0026069953177 0.002580629957 0.0025546376839 0.0025292128148 0.0025044123501 0.0024803218764 0.0030710519074 0.0030438480053 0.0030184868668 
0.0029947803972 0.0029720131024 0.0029498905504 0.0029279845864 0.0029060154745 0.002883485991 0.0028603699539 0.0028365633722 0.0028120544444 
0.0027869234418 0.0027612468972 0.0027351392974 0.0027087171242 0.0026820875913 0.0026553913846 0.0026287323916 0.0026022262656 0.0025759691904 
0.0025500717984 0.0025245678111 0.002499686092 0.0024754651922 0.0024521033947 0.0030376035659 0.0030115712841 0.0029874129947 0.0029644562679 
0.0029424323161 0.0029208914821 0.0028995157827 0.0028777669171 0.0028554807482 0.002832562113 0.0028089330878 0.0027845993058 0.0027596534216 
0.0027341829325 0.0027083056904 0.0026821238463 0.0026557664096 0.0026293688842 0.0026030236023 0.0025768826028 0.0025510305528 0.0025255271449 
0.0025005657979 0.0024762981632 0.0024526184301 0.0024297381434 0.0030120380233 0.0029870129955 0.0029635813396 0.0029413570756 0.0029199015334 
0.0028987829639 0.0028777136336 0.0028561545638 0.0028340403551 0.0028112473098 0.0027877425049 0.0027635447013 0.002738755307 0.0027134609306 
0.0026877699898 0.0026618203491 0.0026357226039 0.0026096107881 0.0025835977555 0.0025577969117 0.00253232124 0.0025073248419 0.0024828030918 
0.0024589038412 0.002435724897 0.0024133720839 0.0029938752641 0.0029697017517 0.0029469807789 0.0029253067426 0.0029042530983 0.0028835093762 
0.0028625064524 0.0028410578417 0.002819018928 0.0027962965938 0.0027728524675 0.0027487634938 0.0027241133837 0.002698998955 0.0026735215232 
0.0026477941984 0.0026219568057 0.0025961226512 0.0025704109997 0.0025449329889 0.0025198617351 0.002495178573 0.0024710515352 0.0024475766933 
0.0024248494039 0.0024029694635 0.0029829754362 0.0029594449745 0.0029372405844 0.0029159352863 0.0028952259426 0.0028744874303 0.0028535388958 
0.0028321017501 0.0028100693433 0.0027873767858 0.0027639975574 0.0027400166303 0.0027155096506 0.002690557706 0.0026652853898 0.0026397932473 
0.0026142151981 0.0025886609923 0.0025633550502 0.0025381873073 0.0025133353377 0.0024889976938 0.0024652302086 0.0024421326125 0.0024198022337 
0.00239833473 0.0029786991113 0.0029556246437 0.0029337314202 0.002912719362 0.0028919876721 0.0028712573306 0.00285023464 0.0028287585866 
0.0028066858306 0.0027839829374 0.0027606468381 0.0027367708723 0.0027123948561 0.0026876266908 0.0026625749405 0.0026373314678 0.0026121394131 
0.0025868721872 0.0025617571125 0.0025368537166 0.0025123660748 0.0024883521074 0.0024649141773 0.0024421521684 0.0024201675074 0.0023990424821 
0.0029801377569 0.0029572967634 0.0029355203196 0.0029145160009 0.0028937087406 0.0028728670535 0.0028517130626 0.0028301146599 0.0028079719761 
0.002785235288 0.0027619419251 0.0027381644582 0.0027139468608 0.0026893907253 0.0026645792302 0.0026397329869 0.0026147210196 0.002589763278 
0.0025649143366 0.0025403789308 0.002516206722 0.0024925028018 0.0024693713984 0.0024469087802 0.0024252182533 0.0024043702395 0.0029858621996 
0.0029630551583 0.002941299399 0.0029200404717 0.002899024553 0.0028779420079 0.002856605353 0.0028348586581 0.0028126265981 0.0027898803815 
0.0027666574103 0.0027430013592 0.0027189740007 0.0026947731807 0.0026702374904 0.0026455856601 0.0026209045535 0.0025962850873 0.0025717762083 
0.0025475718356 0.0025237218128 0.0025003256165 0.0024774843612 0.0024552933456 0.0024338536029 0.0024131466511 0.0029939616342 0.0029710979995 
0.002948999117 0.002927446357 0.0029061215232 0.0028847500933 0.0028631746121 0.0028412602387 0.0028189457273 0.0027962235787 0.0027730807339 
0.0027497107785 0.0027259181203 0.0027018828487 0.0026776901709 0.0026533961446 0.0026290921562 0.002604798082 0.002580706783 0.002556856954 
0.0025333319392 0.0025102508365 0.0024876934638 0.002465761829 0.0024444408239 0.0024240152173 0.0030021260514 0.0029788533146 0.0029563977204 
0.0029344598125 0.0029127464845 0.0028910697567 0.0028692499022 0.0028471806184 0.0028248256265 0.0028022470717 0.0027792610517 0.0027559981394 
0.0027325013995 0.0027088129807 0.0026850092049 0.002661126866 0.0026372384568 0.0026133641562 0.0025896830565 0.0025662184105 0.0025430624887 
0.0025203003208 0.0024979327986 0.002476251579 0.0024552283054 0.0024349491122 0.0030074411708 0.0029837777107 0.0029608923458 0.0029385262262 
0.0029164263897 0.0028944338412 0.0028723939165 0.0028503503797 0.0028279818419 0.0028053872662 0.0027826099103 0.0027596417836 0.0027365114276 
0.0027132459859 0.0026898983245 0.0026664876828 0.0026430267213 0.0026196727856 0.002596436148 0.0025733908105 0.0025506205373 0.0025281007891 
0.0025061362476 0.0024846940717 0.0024638703733 0.0024437284288 0.0030072812907 0.0029832051208 0.002959888565 0.0029371081529 0.0029146534618 
0.0028925207223 0.0028703179549 0.0028481029825 0.0028258085778 0.0028034006235 0.0027809107174 0.002758320811 0.0027356298728 0.0027128691635 
0.002690049181 0.0026671317635 0.0026442612722 0.0026214256052 0.0025986824558 0.0025759897245 0.002553632547 0.002531581836 0.0025099306456 
0.0024887480162 0.0024681257827 0.0024481403899 0.0029993107773 0.0029748685507 0.0029511720741 0.0029281611585 0.002905442849 0.002882996631 
0.002860732213 0.0028385528599 0.0028164236345 0.002794293526 0.0027721814048 0.0027500549066 0.0027278955467 0.0027057125766 0.0026834956481 
0.002661188032 0.0026389167817 0.0026166572241 0.0025943457437 0.0025722520135 0.0025503404417 0.0025286829094 0.0025073645489 0.002486459493 
0.0024660501996 0.0024462183715 0.0043025797394 0.0042513606914 0.0042017374928 0.0041537415599 0.0041073065655 0.0040625284788 0.0040192799345 
0.0039774651933 0.0039369711181 0.0038976696221 0.0038592267293 0.0038219487796 0.0037855172956 0.0037498088312 0.0037147296087 0.0036801693394 
0.0036461201823 0.0036123551054 0.0035788038826 0.0035454579224 0.0035122830674 0.0034792604987 0.0034464031421 0.003413739907 0.0033813042727 
0.0033491504893 0.0042509524275 0.0042010298014 0.0041527712936 0.0041061242314 0.0040612015481 0.0040178788639 0.0039760486796 0.0039355927073 
0.0038963623628 0.0038579708062 0.0038207404999 0.0037842831032 0.0037485088468 0.0037132968419 0.0036785706946 0.0036443346136 0.0036103819571 
0.0035766432777 0.0035431267377 0.0035098019827 0.0034766512149 0.0034436790224 0.0034109135055 0.0033783836527 0.0033461353999 0.0033142223469 
0.0041907859148 0.0041422570823 0.0040953890225 0.0040503164708 0.0040069258736 0.0039651324055 0.0039248002237 0.0038857750595 0.003847628202 
0.0038106748305 0.0037744900908 0.0037389161885 0.0037038647069 0.0036692218576 0.0036349270287 0.003601068635 0.0035672883842 0.0035337165211 
0.0035003288389 0.0034671132381 0.0034340796434 0.0034012493188 0.0033686520843 0.0033363309746 0.0033043377041 0.0032727360471 0.0041236868318 
0.0040765632826 0.004031294814 0.0039877931146 0.0039459921591 0.0039057784297 0.0038667383588 0.0038291869813 0.0037926448552 0.003756915181 
0.0037218070724 0.003687154028 0.0036528588117 0.003618854817 0.0035852197189 0.0035515965661 0.003518132554 0.0034848117131 0.0034516433433 
0.0034186352407 0.0033858062631 0.0033531961336 0.003320856951 0.0032888168402 0.0032571491987 0.0032259183806 0.0040517052792 0.0040061181348 
0.0039624313129 0.0039205450527 0.0038803656556 0.0038414906604 0.0038042567553 0.0037681687006 0.0037329771133 0.003698467286 0.003664435513 
0.0036307116404 0.0035972067428 0.0035640313213 0.0035307788778 0.0034976067167 0.0034645283587 0.0034315439055 0.0033986885567 0.0033659602389 
0.0033334206185 0.0033011058631 0.0032690742629 0.0032373855182 0.0032061070183 0.0031753084461 0.003976979519 0.0039330388101 0.0038909671523 
0.0038507088795 0.0038118798218 0.0037748647918 0.0037391518815 0.0037044816353 0.0036706035195 0.0036372685014 0.0036042597123 0.0035714587567 
0.0035388190755 0.0035062299242 0.0034735673109 0.0034409012371 0.0034082577999 0.003375667983 0.003343165221 0.0033107902694 0.0032786047196 
0.00324665478 0.0032150083989 0.0031837325877 0.0031529012978 0.0031225890135 0.0039017734778 0.0038594248853 0.0038189696488 0.0037800522677 
0.0037431027356 0.0037076278698 0.0036733752821 0.003640059264 0.0036074164881 0.0035752024935 0.0035431712128 0.0035113189403 0.0034794396509 
0.0034474131304 0.0034153206561 0.0033831732294 0.003351000076 0.0033188456271 0.003286759858 0.0032547965961 0.0032230219039 0.0031914938799 
0.003160289703 0.0031294797458 0.0030991439934 0.0030693236968 0.003827872027 0.0037868186121 0.0037479774789 0.0037109522822 0.0036755461287 
0.0036415423743 0.0036086651474 0.0035766100627 0.0035451054693 0.0035138893014 0.0034828592016 0.0034518033907 0.0034205291546 0.003389133104 
0.0033576111733 0.0033259847624 0.0032942976852 0.003262606605 0.0032309724324 0.0031994588199 0.0031681378021 0.0031370759753 0.0031063557478 
0.0030760551849 0.0030462569491 0.0030170043987 0.0037565185602 0.0037173537636 0.0036800787855 0.0036445672392 0.0036106330516 0.003578010268 
0.0035463993029 0.003515502059 0.0034850274648 0.0034548360879 0.003424510682 0.0033941725471 0.0033635467884 0.0033327362044 0.0033017565578 
0.0032706355979 0.0032394354975 0.0032082205362 0.0031770578698 0.0031460190324 0.0031151799393 0.0030846175021 0.0030544159055 0.0030246575406 
0.0029953865985 0.0029667730311 0.0036895023735 0.0036518769627 0.0036161150652 0.0035820646503 0.0035495092781 0.0035181647416 0.0034877141815 
0.0034578548296 0.0034284126861 0.0033988997306 0.0033693994394 0.0033396076941 0.0033095625169 0.003279289807 0.0032488150794 0.0032181817369 
0.0031874555156 0.0031567152542 0.0031260225523 0.0030954689487 0.0030651306909 0.0030350872435 0.0030054226755 0.0029762282328 0.0029475467172 
0.0029195510654 0.0036274381569 0.0035912959508 0.0035569751808 0.0035242995038 0.003493023482 0.0034628449642 0.0034335645732 0.00340461464 
0.0033758565298 0.0033471432973 0.0033181685584 0.0032889399304 0.0032594083207 0.0032296231219 0.0031996113786 0.0031694315011 0.0031391574671 
0.0031088669535 0.0030786497747 0.0030485835851 0.0030187500504 0.0029892339179 0.0029601230398 0.002931460614 0.0029034225995 0.0028760525715 
0.0035709859168 0.003536260449 0.0035032947333 0.0034718943923 0.0034417815167 0.0034127802586 0.0033842894025 0.0033561353564 0.0033281685169 
0.0032999620773 0.0032715280693 0.0032427727649 0.0032137035782 0.0031843506095 0.0031547627206 0.0031250015944 0.0030951632705 0.0030653117954 
0.0030355487809 0.0030059592221 0.0029766275361 0.0029476333903 0.0029190717816 0.0028909849383 0.002863546745 0.0028368017757 0.0035205981361 
0.0034872083888 0.0034555029984 0.0034252623306 0.0033963402401 0.0033681146428 0.0033404193943 0.0033129514424 0.0032855452889 0.0032578692835 
0.0032298933384 0.0032015584876 0.0031728948169 0.0031439282707 0.0031147259073 0.0030853668199 0.0030559207561 0.0030264873545 0.0029971639955 
0.0029680293836 0.0029391818143 0.0029107029899 0.002882634603 0.0028551561384 0.0028283080218 0.0028021567719 0.0034765767476 0.0034444095115 
0.0034138534484 0.0033848087068 0.0033566533027 0.0033292217521 0.0033022028377 0.0032754069721 0.0032483932543 0.003221145648 0.0031935570141 
0.003165584729 0.0031372712033 0.0031086523327 0.0030798033383 0.0030508048943 0.0030217330761 0.0029927021307 0.0029637941058 0.0029351046293 
0.0029067228242 0.0028787320849 0.0028511655731 0.0028242284974 0.0027980502312 0.0027725094605 0.0034390775861 0.0034080228303 0.0033786384948 
0.003350338757 0.0033229733409 0.0032962122755 0.0032698475896 0.0032434188614 0.003216802752 0.0031899107831 0.0031626482532 0.0031349888346 
0.00310698627 0.0030786827523 0.0030501725325 0.0030215079468 0.0029927921694 0.0029641342931 0.0029356036204 0.0029073353509 0.0028793962795 
0.0028518328104 0.0028248251384 0.0027985113273 0.0027727711697 0.0027477985957 0.0034082494785 0.0033781689933 0.0033495062141 0.0033219744268 
0.003295254147 0.0032690317288 0.003243121829 0.0032170462971 0.003190768605 0.0031641634911 0.0031371755839 0.0031097894528 0.0030820674735 
0.003054065397 0.0030258286429 0.0029974885532 0.0029691156774 0.0029408186226 0.002912687798 0.0028848172628 0.0028573032166 0.0028302847583 
0.0028037438718 0.0027778145641 0.0027525800181 0.0027281293215 0.0033835799413 0.0033543454961 0.0033264229743 0.0032995116526 0.0032733048133 
0.0032476043319 0.0032219271324 0.0031961392676 0.0031701110477 0.0031437406887 0.0031169634749 0.0030898209891 0.0030623586853 0.0030346356827 
0.0030067182961 0.0029786871534 0.0029506554653 0.0029227096464 0.0028949474088 0.002867460307 0.0028404037921 0.0028137438023 0.0027876334083 
0.0027621542296 0.0027373866328 0.0027134138254 0.0033648862125 0.0033363302414 0.0033089943914 0.0032825612297 0.0032568444993 0.0032313223241 
0.0032058867807 0.0031802977796 0.003154455252 0.0031282792163 0.0031017143388 0.0030748103209 0.0030476060475 0.0030201471647 0.0029925257266 
0.0029648124922 0.002937114866 0.0029095188436 0.0028822272008 0.002855110989 0.0028283297099 0.0028020652524 0.002776357684 0.0027512912082 
0.0027269537486 0.0027034046555 0.0033515242344 0.0033235057494 0.0032965968662 0.0032706079971 0.0032450496159 0.0032197341001 0.0031944278969 
0.0031689960578 0.0031432945395 0.003117271727 0.0030908924521 0.0030642175894 0.0030372519984 0.0030100710167 0.0029827532123 0.0029553634422 
0.0029281202194 0.0029008748342 0.002873835903 0.0028470424229 0.0028206812 0.0027947931501 0.0027694640052 0.0027447770805 0.0027208177967 
0.0026976454319 0.0033426489853 0.0033149977428 0.0032884741912 0.0032625846566 0.0032371638761 0.0032119585456 0.0031867375669 0.0031613896184 
0.0031357953381 0.003109906327 0.0030836966091 0.0030572364011 0.0030305280079 0.0030036436634 0.0029767561945 0.0029497129281 0.0029227104507 