# vtk DataFile Version 5.1
vtk output
ASCII
DATASET STRUCTURED_POINTS
DIMENSIONS 26 26 26
SPACING 0.08 0.08 0.08
ORIGIN -1 -1 0.5
POINT_DATA 17576
FIELD FieldData 1
potential 1 17576 double
0.0028551886321 0.0028793805891 0.0029030406402 0.0029261322433 0.002948788362 0.0029710350687 0.0029929116452 0.0030148792992 0.0030369574893 
0.0030594501925 0.0030825899232 0.0031065685062 0.0031315354151 0.003157610671 0.0031848867982 0.0032134243716 0.0032432750611 0.0032744662999 
0.0033069826041 0.0033408056581 0.0033758775346 0.0034120732937 0.0034493185457 0.0034874605586 0.0035263219024 0.0035657374486 0.0028536069923 
0.0028774196937 0.0029005948523 0.0029230677097 0.0029450202751 0.0029663973987 0.0029876374728 0.0030087873318 0.0030302143574 0.0030522267273 
0.0030751034941 0.0030990635185 0.0031242645079 0.003150813668 0.0031787561594 0.0032081326117 0.0032389415812 0.0032711586024 0.0033047559951 
0.0033396733015 0.0033757971201 0.0034130223501 0.0034512326904 0.0034902423125 0.0035298908338 0.0035700087421 0.0028410959182 0.0028644022675 
0.002886923187 0.0029087501752 0.0029297960107 0.0029504525021 0.0029707395644 0.0029910422959 0.0030117147876 0.00303318382 0.0030557221654 
0.0030795840947 0.0031049265659 0.0031318346039 0.0031603308305 0.0031904152371 0.0032220339953 0.0032551641801 0.0032897040271 0.0033255621221 
0.0033626374536 0.0034007660745 0.0034398544773 0.0034796370109 0.0035199646522 0.0035606146934 0.0028207981364 0.0028435157858 0.0028654461697 
0.002886512225 0.0029066960558 0.0029264305147 0.002945802276 0.0029652529103 0.002985205961 0.0030061319664 0.0030283455941 0.0030521064728 
0.0030775621222 0.00310478066 0.0031337546974 0.0031644333339 0.0031967809425 0.0032306954768 0.0032660452187 0.0033027558746 0.0033406966157 
0.0033796204149 0.0034194200867 0.0034598809955 0.0035007825208 0.0035419397727 0.0027964471354 0.0028186799113 0.0028399227697 0.0028601064729 
0.0028795917171 0.0028983913557 0.002916903852 0.0029355970402 0.0029549595552 0.0029754562324 0.0029974546067 0.0030211932535 0.0030468091244 
0.0030743476511 0.003103763653 0.0031350132298 0.0031680048039 0.0032025921403 0.0032387415769 0.0032761945235 0.0033148298714 0.0033544648977 
0.0033949153876 0.0034359527348 0.0034773849477 0.0035189568748 0.0027718173103 0.0027934853411 0.0028139549882 0.0028335373058 0.0028521703938 
0.0028701850656 0.0028879936858 0.0029060942928 0.0029250633117 0.0029453468438 0.0029673153254 0.0029911945883 0.0030170833546 0.0030450132229 
0.0030749171819 0.0031067248362 0.0031403746941 0.003175609559 0.0032123846241 0.0032505085007 0.0032898024518 0.0033300669477 0.0033710898115 
0.0034126647831 0.0034545436348 0.003496470676 0.0027499246593 0.0027709108103 0.0027908353187 0.0028097329358 0.0028276835765 0.0028450677065 
0.0028623663675 0.0028801256449 0.0028989516155 0.0029192762806 0.0029414475026 0.0029656665221 0.0029920019788 0.0030204294184 0.0030509607555 
0.0030833717639 0.0031175786521 0.0031534671835 0.0031908790295 0.0032296308118 0.0032695312969 0.0033103604145 0.0033519227598 0.0033939701186 
0.0034362431297 0.0034784754516 0.0027330177811 0.0027534763232 0.0027728816117 0.0027911300104 0.0028085241407 0.0028254663059 0.0028424958061 
0.0028601760379 0.0028791284006 0.0028997640587 0.0029223966424 0.0029471806614 0.0029741840317 0.0030032965039 0.0030344588437 0.0030675334922 
0.0031024268125 0.0031389831845 0.0031770328985 0.0032163950764 0.0032568738932 0.0032982451769 0.0033403018013 0.0033827787248 0.0034254138094 
0.0034680178084 0.0027225702274 0.0027427108537 0.0027615639466 0.0027793430992 0.0027963574221 0.002813064528 0.0028300374592 0.0028479155284 
0.0028672717656 0.0028884754895 0.0029118644572 0.0029374158379 0.002965205563 0.0029951505029 0.0030271144343 0.0030610073091 0.0030966616136 
0.0031339333161 0.00317265143 0.0032126358481 0.0032536968663 0.0032955996174 0.003338128344 0.0033810205911 0.0034240913868 0.0034667752201 
0.0027197535281 0.0027394934506 0.0027579548821 0.0027754058505 0.0027922176515 0.0028089080231 0.0028260877909 0.0028444037409 0.002864391332 
0.0028864551341 0.0029106927043 0.0029372292597 0.0029660201986 0.0029969673925 0.0030298990748 0.0030647138412 0.0031012270012 0.003139299955 
0.0031787510544 0.0032194028873 0.0032610702882 0.0033035127636 0.0033465233113 0.0033899201633 0.003433157144 0.0034761911799 0.0027251023592 
0.0027444685919 0.0027626582623 0.0027799342294 0.0027967302763 0.0028136218235 0.0028312380334 0.0028502849232 0.0028711276936 0.0028941273809 
0.0029194420212 0.0029471140958 0.0029770661174 0.0030091204395 0.0030431752189 0.0030790459983 0.0031165349186 0.0031555089045 0.0031957767078 
0.0032371725608 0.0032794893888 0.0033225411333 0.003366063974 0.0034097826348 0.0034534731151 0.0034967967327 0.0027388081252 0.0027579551618 
0.0027760007112 0.0027932645064 0.0028102371642 0.0028276066864 0.0028458765629 0.0028657271481 0.0028876082158 0.0029117536543 0.0029383068419 
0.0029672380466 0.0029984201641 0.0030317571161 0.0030670231378 0.0031040398055 0.0031426378383 0.0031826181465 0.0032238005292 0.0032660209114 
0.0033090950617 0.00335276998 0.0033968295301 0.0034410657092 0.0034851684283 0.0035288279672 0.0027610366891 0.0027800891168 0.0027981347953 
0.0028155578176 0.0028329716621 0.0028508730061 0.0028700014283 0.0028908972057 0.0029139579991 0.0029393968641 0.0029672819719 0.0029975630876 
0.0030300905897 0.0030647459915 0.0031013030845 0.003139580326 0.0031793528436 0.0032204410027 0.0032626520255 0.0033058062676 0.0033496944537 
0.0033940810106 0.0034388156722 0.0034836159295 0.0035282019737 0.0035722672992 0.002791809448 0.0028108971661 0.002829172741 0.0028469328979 
0.0028648384412 0.0028835428361 0.0029036927791 0.0029257751183 0.0029501526372 0.0029769686885 0.003006258545 0.003037915543 0.0030718673663 
0.0031078930676 0.0031458010827 0.0031853603636 0.0032263845401 0.0032686663534 0.0033120032798 0.0033561808279 0.0034010649121 0.0034462307278 
0.0034917193895 0.0035371824014 0.0035823500815 0.0036269272003 0.0028311241838 0.0028503931671 0.0028689178262 0.0028872018313 0.0029058624743 
0.0029255471036 0.0029468732621 0.0029702700398 0.0029960478652 0.0030243031781 0.0030550057302 0.0030881280177 0.0031234901473 0.0031609094229 
0.0032001654058 0.0032410514764 0.0032833588347 0.0033268765657 0.0033713913769 0.003416757998 0.0034625419063 0.0035087603596 0.0035551227362 
0.0036013777939 0.0036472509547 0.0036924544453 0.0028786629707 0.0028982722409 0.0029173073981 0.0029363058673 0.0029559028903 0.0029767335051 
0.0029993590462 0.0030241758307 0.0030514180012 0.003081144553 0.0031133033825 0.0031478557436 0.0031846158475 0.0032234026094 0.0032639916466 
0.0033061996415 0.0033497969218 0.0033945781304 0.0034403834923 0.0034867764732 0.0035337933596 0.0035810878226 0.0036284563693 0.0036756402333 
0.0037223660115 0.0037683567576 0.0029341976466 0.0029543443915 0.0029740878113 0.0029939871811 0.0030146925802 0.0030368158246 0.0030608640726 
0.0030871636243 0.003115901645 0.003147071058 0.003180702981 0.0032166530352 0.0032547878212 0.0032948817965 0.0033367672575 0.0033802414584 
0.0034251091268 0.0034712025998 0.0035180941581 0.0035658061002 0.0036140193799 0.0036625114589 0.0037110100856 0.0037592687892 0.0038070188464 
0.0038539731245 0.0029972422561 0.0030181272872 0.0030387883637 0.0030598015951 0.0030817933077 0.0031053363986 0.0031308842219 0.0031587031113 
0.0031888964267 0.0032215576489 0.0032565851071 0.0032938970649 0.0033333002162 0.003374637461 0.0034177384898 0.003462441816 0.0035085773556 
0.0035557287575 0.0036039357442 0.003652882722 0.0037023343026 0.0037520431261 0.0038017696219 0.0038512445495 0.0039001838248 0.0039483033745 
0.0030670187323 0.0030888689976 0.003110657664 0.003132973138 0.0031563995694 0.0031814773041 0.0032085760321 0.0032379300763 0.0032696071186 
0.0033036877776 0.0033400594331 0.0033785942626 0.0034191732146 0.0034616478819 0.0035058520655 0.0035516469929 0.0035988074881 0.0036471917542 
0.003696569516 0.0037467235852 0.0037974249175 0.0038484167232 0.0038994549723 0.0039502588884 0.0040005261362 0.0040500091477 0.0031422673683 
0.00316531303 0.0031884519315 0.0032122558896 0.0032372645803 0.0032639817718 0.0032926621831 0.0033234827953 0.0033566118169 0.0033920030497 
0.0034295621396 0.0034692112974 0.0035108458831 0.0035543093911 0.0035995059381 0.0036462342488 0.003694415703 0.0037438365971 0.0037943035373 
0.0038456127672 0.0038975360232 0.0039498189967 0.0040022185879 0.0040544466195 0.0041062156074 0.0041572271959 0.0032211690833 0.0032456602658 
0.0032703456391 0.0032957733191 0.0033224471601 0.0033507766282 0.0033810213121 0.0034132945937 0.003447735546 0.0034843169216 0.0035229553385 
0.0035635778866 0.0036060719459 0.0036503742175 0.0036963586821 0.0037439487425 0.0037929875937 0.0038433130876 0.0038947601868 0.003947136228 
0.0040002183644 0.0040537726502 0.0041075470399 0.0041612478419 0.004214602817 0.0042673065451 0.0033010561026 0.0033271472447 0.003353527724 
0.0033806807185 0.0034090794246 0.0034390444935 0.0034707526681 0.0035044181504 0.0035400904602 0.0035776803619 0.00361719153 0.0036585533266 
0.0037017529576 0.0037466545015 0.0037932801989 0.0038414954674 0.0038912223204 0.0039422943217 0.0039945751986 0.0040479051698 0.0041020706911 
0.0041568424693 0.0042119709083 0.0042671754268 0.0043221771181 0.0043766828255 0.0033783401746 0.0034061862788 0.0034343698195 0.0034633295842 
0.0034934389847 0.0035249258204 0.0035580797739 0.0035929865957 0.0036296438489 0.0036680647353 0.0037082195869 0.0037501475782 0.0037938501367 
0.003839082392 0.0038860796169 0.0039346963929 0.003984865516 0.0040365000356 0.0040894686098 0.0041436154834 0.0041987609925 0.0042546686513 
0.0043111031391 0.0043677952829 0.0044244648192 0.0044808314754 0.0034489174922 0.003478570382 0.0035085709491 0.0035392816502 0.0035710172651 
0.0036039531902 0.0036383838931 0.0036742807256 0.0037117373384 0.003750719359 0.003791329283 0.003833530089 0.003877311707 0.0039227614997 
0.0039698744254 0.0040186399876 0.0040690424548 0.0041210271283 0.0041744880966 0.0042292935678 0.0042852704526 0.0043421941251 0.0043998497646 
0.0044579694401 0.0045162859154 0.0045745239542 0.0035085094332 0.0035399137334 0.0035716477566 0.0036039889377 0.0036371449828 0.003671432778 
0.0037068611513 0.0037435455379 0.0037815125538 0.0038208673586 0.0038616195157 0.0039037871548 0.0039474801497 0.003992755131 0.0040396899828 
0.0040883333971 0.0041387139772 0.0041908226809 0.00424457906 0.0042998711765 0.0043565337813 0.0044143582421 0.004473128448 0.004532561156 
0.0045924405918 0.0046523898973 0.0035534748015 0.0035864845695 0.0036197610333 0.0036535428285 0.0036879478226 0.0037232624032 0.0037594728474 
0.0037966454966 0.0038349426024 0.0038743511252 0.0039149236421 0.0039568065181 0.0040000713063 0.0040448631724 0.0040913228873 0.0041395632458 
0.004189670037 0.0042416520375 0.0042954981538 0.0043510971837 0.0044082904587 0.0044668745051 0.0045266302472 0.0045872865286 0.0046486245995 
0.0047102943626 0.0031519681153 0.0031786443762 0.0032049807339 0.0032309589317 0.0032567215402 0.003282289998 0.0033076809609 0.0033333137322 
0.0033591525719 0.0033854427922 0.0034123664708 0.0034400799241 0.0034687109813 0.0034983685148 0.0035291371081 0.0035610705914 0.003594214413 
0.0036285925324 0.0036641909036 0.0037009985208 0.0037389704227 0.0037779997329 0.0038180333835 0.0038589430559 0.0039005777316 0.0039428006198 
0.0031582248424 0.0031846923668 0.0032107513938 0.0032363585541 0.0032617067504 0.0032867326731 0.0033118410339 0.0033370188284 0.0033625545093 
0.003388674393 0.0034155896371 0.0034434746887 0.0034724658314 0.0035026587614 0.0035341202325 0.0035668785342 0.003600945617 0.0036363055802 
0.0036729416654 0.0037108074043 0.0037498069963 0.0037898556991 0.0038308527417 0.0038726610192 0.0039151246137 0.0039581116801 0.0031564332976 
0.0031825870795 0.0032082236013 0.0032334633675 0.0032582282156 0.0032828970662 0.0033074452156 0.0033321754685 0.0033573383952 0.0033832557355 
0.0034101168435 0.0034381254802 0.0034674190546 0.0034980843525 0.0035301572689 0.0035636550737 0.0035985424158 0.0036348147582 0.0036723894881 
0.0037111953544 0.0037511529793 0.0037921221259 0.0038340018789 0.0038766525698 0.0039198562845 0.0039634554859 0.0031487033309 0.0031744688187 
0.0031997777775 0.0032245541479 0.0032488005772 0.0032729293024 0.0032969653013 0.0033212468336 0.0033460692025 0.0033717785482 0.0033985957266 
0.0034267282306 0.0034563072738 0.0034874130538 0.003520056833 0.0035542147535 0.0035898778382 0.0036269700899 0.0036653853685 0.0037050743431 
0.0037459321428 0.0037877384972 0.003830414292 0.0038737748184 0.0039176317622 0.0039618352259 0.0031376174373 0.0031631307695 0.0031880077227 
0.0032122101436 0.0032361055288 0.0032596752505 0.0032832369931 0.0033071323956 0.0033317014672 0.0033572726192 0.0033841134289 0.0034124252427 
0.0034423258428 0.0034738802449 0.0035070840007 0.0035418845482 0.003578266191 0.003616111616 0.0036553683893 0.0036958571471 0.0037374691597 
0.0037800513757 0.0038234503986 0.003867470394 0.0039119543725 0.0039566858993 0.003125941055 0.0031511213489 0.0031754957557 0.0031994043111 
0.0032227841522 0.003245918502 0.0032691173121 0.0032927309252 0.0033171729669 0.0033427501553 0.0033697426823 0.0033983384229 0.0034286372019 
0.0034606944302 0.0034944728452 0.0035299387933 0.00356706338 0.0036056222018 0.0036456012363 0.0036868403045 0.0037291918378 0.0037724882754 
0.0038165508518 0.0038612086185 0.0039062505513 0.0039514671076 0.003115985465 0.0031407202253 0.0031648193905 0.0031883396155 0.003211352389 
0.0032341650148 0.003257134919 0.0032806422247 0.0033051236076 0.0033308784993 0.003358174944 0.0033871937158 0.0034180153002 0.003450645716 
0.0034851326522 0.0035212869491 0.0035590586248 0.0035983619404 0.0036390717168 0.0036810339087 0.0037240910535 0.0037680543878 0.0038127642778 
0.0038580106089 0.0039035756078 0.0039492375885 0.0031096198395 0.0031340638064 0.0031579082272 0.0031810634239 0.0032038006289 0.0032264314017 
0.0032493471855 0.0032729322784 0.0032976396657 0.003323759869 0.0033515475348 0.0033811506268 0.0034126627192 0.0034460121272 0.0034811795065 
0.003518063008 0.0035565999632 0.0035966632161 0.0036381105725 0.0036807903434 0.0037245370148 0.00376915869 0.0038144854749 0.0038602920285 
0.0039063606879 0.0039525514313 0.0031081850259 0.003132546971 0.0031560947663 0.0031790426834 0.0032016475689 0.003224251963 0.0032472740649 
0.0032711288916 0.0032962672906 0.0033229429577 0.0033513961332 0.0033817889884 0.0034140606848 0.0034482333404 0.0034842155964 0.0035219544773 
0.0035613098271 0.0036021721114 0.0036443856703 0.0036877965788 0.0037322442662 0.0037775247966 0.0038234583384 0.003869823485 0.0039164818493 
0.0039630075606 0.0031128696629 0.0031370626686 0.003160462422 0.0031833206401 0.003205933015 0.0032286783648 0.0032519846816 0.0032763125169 
0.0033020508173 0.0033295216629 0.0033588028775 0.0033900448847 0.0034232517033 0.0034583796943 0.0034953072858 0.0035339738283 0.0035742245277 
0.003615946129 0.0036589771868 0.0037031606875 0.0037483349604 0.0037942877494 0.0038408461468 0.0038878118508 0.0039349457455 0.0039818289221 
0.0031242882954 0.0031483334293 0.0031716905146 0.0031945862205 0.0032173541932 0.003240409411 0.0032641887289 0.0032892184579 0.0033157363734 
0.0033440402493 0.0033742884101 0.0034065683258 0.0034408311677 0.0034769949519 0.0035149933534 0.0035546902416 0.0035959217844 0.0036385794371 
0.0036824922864 0.0037275109184 0.003773447931 0.0038201160528 0.0038673582946 0.0039149509477 0.0039624795687 0.004009927832 0.0031427227886 
0.0031667660273 0.0031901891811 0.0032132581932 0.0032363346881 0.0032599298845 0.0032843528451 0.0033101142791 0.0033375625435 0.0033668861733 
0.0033982439591 0.0034316533715 0.0034670489616 0.0035043995667 0.0035435362524 0.0035843294279 0.0036266475096 0.0036703193534 0.0037151855229 
0.0037610985831 0.0038078907868 0.0038553298617 0.00390331578 0.003951409731 0.0039996160074 0.004047594908 0.0031684089827 0.0031925654651 
0.0032161789865 0.0032395583209 0.0032631677378 0.0032873136847 0.0033125444299 0.0033392500608 0.0033677445471 0.0033982202628 0.0034307721519 
0.0034654039117 0.0035020308739 0.0035405995529 0.0035809433183 0.0036229324952 0.0036663806065 0.0037111429123 0.0037570499231 0.0038039405851 
0.0038516225166 0.0038999684795 0.003948582043 0.0039974840699 0.0040463495524 0.0040949304184 0.003201402831 0.0032257823401 0.0032497945381 
0.0032736282831 0.0032977804122 0.0033227071618 0.0033488739194 0.0033766390722 0.0034063037484 0.0034380084829 0.003471825661 0.0035077070597 
0.0035456450145 0.0035854854904 0.0036270941038 0.0036702918872 0.0037149367487 0.0037608571492 0.0038078752971 0.0038558101069 0.0039045366719 
0.003953652859 0.0040032224946 0.0040529279186 0.004102541752 0.0041518254582 0.0032417005309 0.0032664247263 0.0032908209322 0.0033152592046 
0.0033401777874 0.0033660225081 0.0033932509193 0.0034221849434 0.0034530950528 0.0034860899241 0.0035211843198 0.0035584109893 0.0035976549584 
0.0036387821629 0.0036816718609 0.0037261260961 0.0037719947408 0.0038191051304 0.0038672841365 0.0039163921433 0.0039660333695 0.0040162624275 
0.0040667912828 0.0041174062245 0.0041678744509 0.0042179629189 0.0032889190859 0.0033141303728 0.0033391368779 0.003364326854 0.0033901473348 
0.0034170441479 0.0034454329994 0.0034756285388 0.0035078450733 0.0035421657597 0.0035785888826 0.0036171363737 0.003657685178 0.0037001140154 
0.0037442522962 0.0037899662012 0.0038370696888 0.0038853969398 0.0039348234694 0.0039849447646 0.0040358262261 0.0040871487997 0.0041387402388 
0.0041903724989 0.0042418144391 0.0042928433054 0.0033427648815 0.0033686171692 0.0033943892128 0.0034204700262 0.0034473238163 0.0034753849227 
0.0035050375615 0.0035365488456 0.0035701052113 0.0036057311585 0.003643511355 0.0036833613815 0.0037252071561 0.0037688788171 0.0038142585465 
0.0038611946857 0.0039095191908 0.0039591194388 0.00400959724 0.0040610102964 0.0041130734352 0.0041655716921 0.0042183450328 0.0042711074581 
0.0043236609114 0.0043757738989 0.0034026428565 0.0034292906207 0.0034559824717 0.0034831203412 0.0035111428787 0.0035404658476 0.0035714436003 
0.0036043046114 0.0036391650371 0.003676156295 0.0037152313251 0.0037563655596 0.0037994207004 0.0038442906887 0.0038908503534 0.0039389807363 
0.0039884875286 0.0040391809861 0.004090947248 0.0041435678306 0.0041968506703 0.004250579839 0.0043045582162 0.0043585606074 0.0044123530724 
0.0044657105291 0.003467689046 0.0034953009419 0.0035230652616 0.0035513926193 0.0035806906629 0.003611365839 0.0036437074158 0.0036779355548 
0.0037141358084 0.0037524372391 0.0037927748079 0.003835075492 0.003879270096 0.0039252569105 0.0039729059962 0.0040221203684 0.0040727084288 
0.0041245625842 0.0041774871285 0.0042313007596 0.0042858124657 0.0043408065037 0.0043960835306 0.0044514123479 0.0045065465829 0.0045613030839 
0.0035366336565 0.0035653707705 0.0035943642449 0.003624013821 0.0036546938267 0.0036868013637 0.0037205351889 0.0037560677725 0.0037935946957 
0.003833114153 0.0038745809671 0.0039179653877 0.0039632064661 0.0040101866252 0.0040588449497 0.0041090119473 0.0041606394366 0.0042135443209 
0.0042675651983 0.0043225328392 0.0043782569685 0.0044345256521 0.0044911431979 0.0045478749687 0.0046044941742 0.0046607699177 0.0036078169535 
0.0036378532706 0.0036682038661 0.0036992542774 0.0037313695036 0.0037648695971 0.0037999779491 0.0038368172057 0.0038755459375 0.0039161902618 
0.0039587073902 0.0040030660814 0.0040491903558 0.0040970490508 0.0041465439932 0.0041976242172 0.0042501572564 0.0043040094008 0.0043590419941 
0.0044150948219 0.0044719839925 0.0045295158224 0.0045874874832 0.0046456688541 0.0047038270251 0.0047617525729 0.0036790144394 0.0037104299203 
0.0037422231819 0.0037747343645 0.0038083195481 0.0038432311142 0.003879622937 0.0039177220575 0.0039576065017 0.0039992269305 0.0040426239015 
0.0040877612299 0.0041346552337 0.0041831937555 0.0042334190299 0.0042852148563 0.0043385218838 0.0043931941864 0.0044491289649 0.0045061731164 
0.0045641702001 0.0046229253245 0.0046822383279 0.0047418809556 0.0048016417187 0.0048612984695 0.0037474506633 0.0037803403461 0.0038136394659 
0.0038476654378 0.0038826986452 0.0039189179075 0.0039565976561 0.0039958381985 0.0040366649597 0.0040791237297 0.0041232156518 0.0041690060653 
0.0042164508874 0.0042655187481 0.0043162580248 0.0043685857348 0.0044224636649 0.0044778128199 0.0045345222676 0.0045924630734 0.0046514891469 
0.0047114044984 0.0047720212159 0.0048331249221 0.0048944977002 0.0049559292105 0.0038101821477 0.0038445664715 0.0038793673902 0.0039148515123 
0.0039512632705 0.0039887416041 0.0040275738533 0.0040677445711 0.0041093735465 0.0041524507096 0.0041971027436 0.004243309997 0.0042910722695 
0.004340480464 0.0043915289546 0.0044442057945 0.0044984967953 0.004554355102 0.004611690503 0.0046703954445 0.0047303281649 0.0047913070779 
0.0048531617723 0.0049156760777 0.0049786453069 0.0050418592335 0.0038642554207 0.0039000871103 0.0039363203724 0.0039731694263 0.004010789561 
0.0040494336187 0.0040892227514 0.0041301751524 0.0041723710323 0.0042159371274 0.0042609000644 0.0043072851618 0.0043552025255 0.0044046988828 
0.0044558373252 0.0045086512955 0.0045631608057 0.0046193518446 0.0046771594114 0.0047364924717 0.0047972181722 0.0048591682088 0.0049221732832 
0.0049860026242 0.0050504976532 0.005115343344 0.0039072271877 0.0039443938889 0.0039819199603 0.0040199964767 0.0040587088477 0.0040983333365 
0.0041388439568 0.0041803341718 0.0042229791146 0.0042667819271 0.0043118049843 0.0043581940115 0.0044060074888 0.0044553655253 0.0045063764334 
0.0045591203169 0.0046136585034 0.0046699897627 0.0047281109006 0.0047879286025 0.0048493223147 0.0049121297757 0.0049761803999 0.0050412555709 
0.0051071908041 0.0051736972225 0.0034587198578 0.0034879936964 0.003517103945 0.0035460312099 0.0035749256234 0.003603801072 0.0036326544573 
0.0036618731143 0.0036913817981 0.0037213841283 0.0037520249704 0.0037834317176 0.0038157120705 0.0038489615456 0.0038832552721 0.0039186401451 
0.0039551563442 0.0039928253609 0.0040316346561 0.0040715792963 0.0041126249706 0.0041546800114 0.0041977096232 0.0042416070427 0.0042862450123 
0.0043315178243 0.0034714167326 0.0035006387577 0.0035296473456 0.0035584111097 0.003587125828 0.0036157152657 0.0036445557257 0.0036735903933 
0.0037030535314 0.0037331160488 0.0037639413716 0.0037956692916 0.003828415208 0.0038622625037 0.0038972822639 0.0039334969487 0.0039709246027 
0.0040095553353 0.0040493810361 0.0040903668308 0.0041324319789 0.0041755094424 0.0042195179837 0.0042643471632 0.0043098628806 0.0043559621035 
0.0034781682969 0.0035072465169 0.0035360318058 0.0035646578075 0.0035930465581 0.0036215592108 0.00365013307 0.0036790134759 0.0037083820293 
0.0037384916586 0.0037694747036 0.0038014960298 0.0038346726236 0.0038690852875 0.0039047747335 0.0039417633528 0.0039800307868 0.0040195844252 
0.0040603566476 0.0041022928837 0.0041453323291 0.0041893557617 0.0042342852318 0.0042800062801 0.004326328368 0.004373123927 0.0034804207551 
0.0035092943843 0.0035379655801 0.0035663719211 0.0035945075018 0.0036227766637 0.00365113962 0.0036798663266 0.0037091716521 0.0037393207832 
0.0037704709609 0.0038027890158 0.003836387357 0.0038713457726 0.0039076827888 0.0039454052963 0.003984480477 0.0040248907933 0.0040665372718 
0.0041093910821 0.004153369737 0.0041982767073 0.0042440590617 0.0042905561812 0.004337615535 0.0043851151241 0.0034800024998 0.0035088172992 
0.0035372788912 0.0035653609885 0.0035934235106 0.003621414569 0.0036495917112 0.0036782105328 0.0037075017381 0.003737750671 0.0037691140122 
0.0038017687504 0.0038358180651 0.0038713301211 0.0039083146696 0.0039467393123 0.0039866079234 0.0040278283552 0.0040703716177 0.0041140797489 
0.0041588715521 0.0042046194231 0.0042511978235 0.0042984409757 0.0043462240869 0.0043943662968 0.003478978498 0.003507659297 0.0035358434227 
0.0035638792695 0.0035916899965 0.0036195150552 0.0036475900534 0.0036761683143 0.0037055600061 0.0037359811594 0.0037676475104 0.003800712507 
0.0038352670592 0.0038713748722 0.003909016371 0.0039481826369 0.0039888669806 0.004030871016 0.0040742056494 0.0041187368041 0.004164343763 
0.004210887191 0.0042582183895 0.0043061985188 0.0043546518954 0.0044034070238 0.0034791137673 0.0035076481156 0.0035356815959 0.0035635775113 
0.0035912580445 0.0036190018712 0.0036470704695 0.0036757363524 0.0037053281714 0.0037360562506 0.0037681301712 0.0038017039785 0.0038368565196 
0.0038736087731 0.0039120278034 0.0039519521833 0.003993356751 0.0040361812241 0.0040803262467 0.0041256643046 0.0041720656162 0.004219370929 
0.0042674522326 0.0043161305911 0.0043652342802 0.0044145753061 0.0034819194435 0.0035102647039 0.0035383572881 0.0035661046765 0.0035937412895 
0.0036215181596 0.0036497015373 0.0036785878157 0.0037085120528 0.0037396812954 0.0037723008046 0.0038064964846 0.0038423836102 0.0038798956028 
0.0039190442951 0.0039597549214 0.0040019907706 0.0040456500502 0.0040906157556 0.0041367619301 0.0041839506755 0.0042320195921 0.004280831326 
0.0043301964785 0.004379937263 0.004429957945 0.0034885441129 0.0035170028369 0.0035450050053 0.0035727510876 0.0036004502895 0.0036283619975 
0.0036567939073 0.0036860520105 0.0037164530154 0.003748205325 0.0037814998547 0.0038164927389 0.0038531383307 0.0038914852536 0.0039314958776 
0.0039730763356 0.0040161833735 0.0040607087906 0.0041065209191 0.0041534902813 0.0042014823609 0.0042503223111 0.0042998628615 0.0043499194344 
0.0044003388143 0.0044509114281 0.0035001014195 0.0035285808581 0.0035566290428 0.0035844721057 0.0036123446617 0.0036405293807 0.0036693358463 
0.0036991058106 0.0037301270439 0.0037626690547 0.0037967548639 0.0038325661927 0.0038701205242 0.0039094069282 0.0039503385465 0.003992886329 
0.0040369238679 0.0040823625099 0.0041290638118 0.0041768933284 0.0042257139063 0.0042753409083 0.0043256332103 0.0043764292838 0.0044275331348 
0.0044785749695 0.0035172011957 0.0035457142872 0.0035738979708 0.0036019436581 0.0036301077583 0.0036586981328 0.0036880284468 0.0037185078642 
0.0037502847591 0.0037836049337 0.0038186113347 0.0038554042148 0.0038939649497 0.0039342491764 0.0039762287314 0.0040198024532 0.0040648367389 
0.0041112483998 0.0041588897326 0.0042076323419 0.004257311563 0.0043077666717 0.0043588702063 0.0044104354115 0.0044620908956 0.0045138706643 
0.0035401415479 0.0035688302879 0.0035972430486 0.0036256021725 0.003654180565 0.003683372565 0.0037133620191 0.0037445488843 0.0037772039977 
0.003811474175 0.0038475143706 0.0038853638182 0.0039249888891 0.0039664092611 0.0040094879074 0.0040541361064 0.0041002547121 0.0041476981537 
0.0041963359858 0.0042460354181 0.0042966367278 0.0043479876218 0.0043999584222 0.0044521656474 0.0045046561074 0.0045571412903 0.0035692066873 
0.0035981585481 0.0036269049811 0.0036556898371 0.003684876613 0.0037146486966 0.0037454306237 0.0037775106348 0.0038111366813 0.0038464736332 
0.0038836213483 0.0039226106771 0.0039633936041 0.0040059691156 0.0040502053587 0.004096015395 0.0041432470968 0.0041917856918 0.0042414866902 
0.0042921978396 0.0043437927388 0.0043961232886 0.004448835937 0.0045019853146 0.0045552883767 0.0046085480526 0.0036044456864 0.0036337613443 
0.0036630261262 0.0036923558742 0.0037221305924 0.0037526824498 0.0037843581687 0.0038174252808 0.0038521325013 0.0038886022824 0.0039269222046 
0.003967075519 0.0040090960585 0.0040528752236 0.0040983228216 0.0041453005974 0.0041937028131 0.0042433898151 0.0042942015204 0.0043460082654 
0.0043986906167 0.0044518670634 0.0045056364719 0.0045597105494 0.0046139076693 0.0046680296199 0.0036458593426 0.0036756415659 0.0037053883025 
0.0037353788268 0.0037659353058 0.0037973757277 0.003830047575 0.0038641944085 0.0039000465084 0.003937706936 0.003977210412 0.0040186247363 
0.0040618780608 0.004106880142 0.0041535583122 0.0042017511831 0.0042513471977 0.0043022019813 0.0043541855057 0.0044071771124 0.0044608056545 
0.0045151540684 0.0045699633134 0.0046250532403 0.0046802318134 0.0047353158368 0.003693044158 0.0037234101131 0.0037538343471 0.003784604909 
0.0038160466319 0.0038484824851 0.0038822300944 0.003917536781 0.0039545897379 0.0039934754837 0.0040342174027 0.0040768744587 0.0041213666549 
0.0041676169812 0.0042154962461 0.0042649129382 0.0043157155801 0.004367773656 0.0044209940034 0.004475002167 0.0045298922688 0.004585374599 
0.0046413080102 0.0046974997429 0.0047537601606 0.0048099163105 0.0037456761494 0.0037767492336 0.0038079728446 0.0038396281903 0.0038720564318 
0.0039055768062 0.0039404847468 0.003976997595 0.0040152831526 0.0040553774936 0.004097393417 0.0041412847314 0.0041870191292 0.0042344687095 
0.0042835559746 0.004334166676 0.0043861704506 0.0044394866609 0.0044937502849 0.0045490503265 0.0046051332375 0.0046618162983 0.004718973649 
0.0047763573192 0.0048338125988 0.0048911586768 0.0038031363658 0.0038350347268 0.0038671742406 0.0038998445683 0.0039333642266 0.0039680435386 
0.0040041619075 0.0040419088877 0.0040813937617 0.0041227638734 0.0041660028517 0.0042111235845 0.0042580273562 0.0043066461525 0.0043568955229 
0.0044086882084 0.0044618651352 0.0045162690725 0.0045718182627 0.0046283266545 0.0046856353931 0.0047435635274 0.0048019512759 0.0048606145161 
0.0049193662581 0.0049780313287 0.0038645734727 0.0038974232568 0.0039305895763 0.0039643699771 0.0039990583543 0.0040349673477 0.0040723247598 
0.0041113232906 0.0041520470237 0.0041946273882 0.0042390966299 0.0042853464659 0.0043333675562 0.0043830967794 0.0044344344836 0.0044873168837 
0.0045415831512 0.004597155514 0.0046538713968 0.004711579654 0.0047701240805 0.0048293256989 0.0048890250767 0.0049490350628 0.0050091744405 
0.0050692641752 0.0039288101983 0.0039627252566 0.0039970450837 0.0040320209601 0.0040679534807 0.0041051566784 0.0041437766388 0.0041839702908 