# vtk DataFile Version 5.1
vtk output
ASCII
DATASET STRUCTURED_POINTS
DIMENSIONS 26 26 26
SPACING 0.08 0.08 0.08
ORIGIN -1 -1 0.5
POINT_DATA 17576
FIELD FieldData 1
potential 1 17576 double
0.0035191538412 0.0035520789265 0.0035842509266 0.0036156722256 0.0036463307055 0.0036764404384 0.0037062833378 0.0037361783392 0.0037665598287 
0.0037978184298 0.0038303004984 0.0038642693928 0.0038998966084 0.0039372887396 0.0039765019583 0.0040175481101 0.0040604228303 0.0041050906026 
0.0041515176756 0.0041995217185 0.0042490042579 0.0042997755038 0.0043516199185 0.0044043008482 0.0044575420679 0.0045110657806 0.0035285563864 
0.0035610002236 0.0035925186419 0.0036230442388 0.0036526651153 0.0036816447888 0.0037102880139 0.0037390943298 0.003768584645 0.0037992672559 
0.0038315691815 0.0038657962883 0.0039021303612 0.0039406502265 0.0039813490366 0.004024189121 0.0040690865067 0.0041159721327 0.0041646348575 
0.0042149562011 0.0042667383777 0.0043197393229 0.0043737253248 0.0044284086441 0.0044835006528 0.0045386015201 0.0035250947749 0.0035569930983 
0.0035877275343 0.0036172099859 0.0036456612259 0.0036733184222 0.0037006566981 0.0037282527318 0.0037567459105 0.0037867807573 0.0038188425165 
0.0038532731545 0.0038902489514 0.0039298122086 0.0039719063148 0.0040164317098 0.0040632693057 0.0041121842304 0.0041630041515 0.0042155295652 
0.0042694956799 0.0043246368898 0.0043805778469 0.004437194857 0.0044940590505 0.0045508340812 0.0035130182311 0.0035442951302 0.0035740918918 
0.0036024916106 0.0036296926428 0.0036560026115 0.0036820181815 0.0037084258242 0.0037359912233 0.003765444773 0.0037973419483 0.0038320354574 
0.0038696830245 0.0039102919906 0.0039537519256 0.0039999347445 0.0040485704952 0.0040994611691 0.0041523563784 0.0042069852686 0.0042629498692 
0.0043201594814 0.004378183461 0.0044366672212 0.0044952511952 0.0045535434123 0.0034971176897 0.0035276663786 0.0035565451073 0.0035838685007 
0.0036098259037 0.0036348952448 0.0036597106473 0.0036851142482 0.003711975435 0.0037410854969 0.0037730371249 0.0038081719741 0.0038466266956 
0.003888366064 0.0039332654515 0.003981043617 0.0040314863303 0.0040843111978 0.0041390985559 0.0041957850613 0.0042539144093 0.0043131383836 
0.0043730964144 0.0044334086917 0.0044936671176 0.0045534554131 0.0034819601983 0.003511823759 0.0035398406512 0.0035661163489 0.0035909942329 
0.0036149971541 0.0036388943158 0.0036636154916 0.0036901265093 0.0037192581839 0.0037515988234 0.0037874714376 0.0038269573375 0.0038699926798 
0.0039164114269 0.0039658837335 0.0040180248326 0.0040727905327 0.0041297036947 0.0041884191852 0.004248573497 0.0043097838812 0.0043716600774 
0.0044337764356 0.0044957022202 0.0045569425222 0.0034715043794 0.003500688972 0.0035278977391 0.0035532989632 0.0035773064233 0.0036005317634 
0.0036238678245 0.0036483349255 0.0036749579758 0.0037045563443 0.0037376900106 0.0037746492047 0.0038154691752 0.0038600575289 0.0039079805027 
0.0039592726331 0.0040134728683 0.0040702103562 0.0041291484008 0.0041899052602 0.004252088455 0.0043152901509 0.0043790812131 0.0044429718291 
0.0045065782016 0.0045693357388 0.0034685510075 0.0034971766053 0.0035237216614 0.0035484518206 0.0035718375141 0.003594638064 0.0036178512953 
0.0036425383432 0.003669755592 0.0037002941191 0.0037346666834 0.0037730952486 0.0038154317024 0.0038617872123 0.0039117525927 0.0039650315831 
0.0040212466114 0.0040800589916 0.0041410848692 0.0042039266677 0.0042681771794 0.0043333934949 0.0043990876165 0.0044648706494 0.0045301646914 
0.0045944885042 0.0034750928191 0.0035032572546 0.0035293333461 0.003553624571 0.0035767211063 0.0035994862516 0.0036229974792 0.0036483915345 
0.0036767011713 0.0037086390963 0.0037444947965 0.0037847965503 0.0038292445624 0.0038776598619 0.0039297684665 0.003985196535 0.0040435991559 
0.0041046010914 0.0041678077169 0.0042328143431 0.0042991913339 0.0043664362594 0.0044341810864 0.0045018404058 0.0045689315291 0.0046349352978 
0.0034922934009 0.003520177919 0.0035459851552 0.0035701130154 0.0035932625776 0.0036164034854 0.0036406813372 0.003667246772 0.0036970753191 
0.0037306550603 0.0037687594374 0.0038112087144 0.0038579290157 0.003908680306 0.0039631476711 0.0040209391863 0.0040816926007 0.0041450324903 
0.0042105461524 0.0042778198877 0.0043463675603 0.004415823081 0.0044856229191 0.0045552913427 0.0046243071666 0.0046920407275 0.0035208329148 
0.0035486281481 0.0035744046215 0.0035986674703 0.0036222308043 0.0036461607175 0.0036716399695 0.0036996198921 0.0037313888536 0.0037673398202 
0.0038077910132 0.0038527092092 0.0039019755493 0.0039553002482 0.0040123225807 0.0040726808592 0.0041359629043 0.0042017947298 0.0042697589421 
0.0043393803092 0.0044103178515 0.0044820057377 0.0045540408584 0.0046258499121 0.0046968592825 0.0047664743329 0.0035610516718 0.0035889557709 
0.0036149582843 0.0036396738782 0.0036640200687 0.0036889403202 0.0037160368962 0.0037462007243 0.0037802600634 0.0038187398902 0.0038617945019 
0.0039094176377 0.0039614306189 0.0040175082624 0.004077279944 0.004140358687 0.0042063506837 0.0042748426674 0.0043453473193 0.0044175329109 
0.0044909460137 0.0045650903493 0.0046394718134 0.004713534401 0.0047867051483 0.0048583684605 0.0036130256717 0.0036412727599 0.0036677842039 
0.0036932836147 0.0037185771599 0.0037452722194 0.0037743614625 0.0038068614902 0.0038435381898 0.0038847450828 0.0039306451902 0.0039811573109 
0.0040360754127 0.0040950424418 0.0041577022742 0.0042236580946 0.0042924901342 0.0043637260239 0.004437016363 0.0045119171927 0.0045879761414 
0.0046647044509 0.0047415854906 0.0048180786098 0.004893593577 0.0049675028494 0.0036766988907 0.0037055451606 0.0037326498885 0.0037592790922 
0.003786303748 0.0038149432152 0.0038463611739 0.003881519944 0.0039210019197 0.0039651610581 0.0040140660638 0.0040676135292 0.0041255290805 
0.0041874942362 0.0042531326486 0.0043220442331 0.0043937644904 0.0044679531316 0.0045441585583 0.0046219243023 0.0047007689302 0.0047802525578 
0.0048598267881 0.0049389464541 0.0050170187077 0.0050934211397 0.0037516663043 0.0037813942526 0.0038098483668 0.0038379586828 0.003866870206 
0.0038977954576 0.003931842852 0.003969875767 0.0040123821361 0.0040596348358 0.0041116660525 0.0041682929898 0.0042292787596 0.0042942855229 
0.0043629568712 0.0044348291077 0.0045095800608 0.0045867857447 0.0046659877734 0.0047467319458 0.0048285801571 0.0049109768134 0.0049934401756 
0.0050754113398 0.0051562814987 0.0052354151703 0.0038380690721 0.00386898561 0.003898918569 0.0039288691129 0.0039600140731 0.0039935411002 
0.0040304989336 0.0040715780377 0.0041172476921 0.0041676796077 0.0042228710851 0.0042826170907 0.0043466797737 0.0044147286931 0.0044863621504 
0.0045612849846 0.0046390909256 0.0047193506428 0.0048016021688 0.0048854449734 0.0049703723506 0.0050558698874 0.0051414330494 0.0052264875555 
0.005310417787 0.0053925937937 0.0039352211243 0.003967675472 0.0039994517719 0.0040315916336 0.0040653039968 0.0041017350281 0.0041417682812 
0.0041860622071 0.0042349742507 0.0042886402333 0.0043469655334 0.0044097996928 0.0044768862313 0.0045478754279 0.0046225147174 0.0047004380173 
0.0047812441874 0.0048645191286 0.0049498880906 0.0050368566048 0.0051249719301 0.0052138022271 0.0053026600182 0.0053910351486 0.0054783165013 
0.0055638523941 0.0040423828375 0.0040767414734 0.0041107392237 0.0041454523053 0.0041820455321 0.0042215959739 0.004264889898 0.0043124834327 
0.0043646700756 0.0044215073368 0.0044829254759 0.0045487632323 0.0046187298825 0.0046926251407 0.0047701425002 0.0048510234776 0.0049347337135 
0.0050210245275 0.0051094462055 0.0051995802853 0.0052909569996 0.0053830714543 0.0054753821351 0.0055673093961 0.0056582198137 0.0057474651337 
0.0041584406937 0.0041951006625 0.0042316956336 0.0042693186579 0.0043090905406 0.0043519367791 0.0043985938681 0.0044495185456 0.0045049565293 
0.0045649710864 0.0046293539764 0.0046979919538 0.0047707396203 0.00484736478 0.0049275850794 0.0050111059996 0.0050976235816 0.0051867770593 
0.0052781968979 0.0053714667857 0.0054661323272 0.0055616891944 0.0056575974963 0.0057532679952 0.0058480297393 0.0059413271672 0.0042816113007 
0.0043209729519 0.0043605540139 0.0044014435264 0.0044445940317 0.0044909821912 0.0045410562624 0.0045952920637 0.0046538273136 0.0047167023603 
0.0047838245621 0.0048551433196 0.0049304370803 0.0050095535639 0.0050922396716 0.0051782366151 0.0052673345788 0.0053592102933 0.0054535093488 
0.0055498439761 0.0056477736266 0.0057468057143 0.0058464102637 0.0059459965137 0.006044941241 0.006142585654 0.0044094017292 0.0044519246841 
0.0044948255646 0.0045391777662 0.0045858778318 0.0046356896144 0.004689136213 0.004746555358 0.0048080143998 0.0048736118946 0.0049432798641 
0.0050169533513 0.0050945133451 0.0051757902506 0.0052606672555 0.0053489389227 0.0054403985048 0.0055347842667 0.0056317933456 0.0057310673989 
0.0058321794239 0.0059346769559 0.0060380268402 0.0061416263476 0.0062449040758 0.0063471907603 0.0045381863627 0.0045840469467 0.0046305460342 
0.0046784981868 0.0047288212993 0.0047821161668 0.0048388455144 0.004899224714 0.0049634147769 0.005031413493 0.005103278516 0.0051789751317 
0.0052583984164 0.005341496244 0.005428190129 0.0055183619781 0.0056119003878 0.0057085241632 0.0058079996577 0.0059100407723 0.0060142356785 
0.0061201377419 0.0062272314404 0.0063349465754 0.0064426941412 0.0065498388461 0.0046629657299 0.0047124532432 0.0047626793346 0.0048143954762 
0.0048683060788 0.0049249642402 0.0049847208685 0.0050478073021 0.0051143364759 0.0051844246908 0.0052581052261 0.0053353586007 0.005416198152 
0.0055006780451 0.0055887492814 0.0056804170602 0.0057755939718 0.0058741450689 0.0059758596474 0.0060804515988 0.0061875749435 0.0062967842027 
0.0064075749368 0.00651941089 0.0066317030276 0.0067438461138 0.0047782370615 0.0048314311749 0.0048853684082 0.0049407065982 0.0049980328751 
0.0050578057586 0.0051202917409 0.0051857010609 0.0052542269255 0.0053259528124 0.0054009329822 0.0054792432699 0.0055610201339 0.0056463425355 
0.005735325984 0.0058280265278 0.0059244640412 0.0060245687468 0.0061281858965 0.0062350719228 0.0063448947439 0.0064572326422 0.0065716183293 
0.0066875150443 0.0068043625127 0.0069215694 0.0048781833036 0.0049349294498 0.0049924198133 0.0050511509071 0.0051116120407 0.0051741038339 
0.005238905987 0.0053062583348 0.0053762931792 0.0054491169361 0.0055248732301 0.0056037277385 0.0056858549694 0.0057714752381 0.005860811042 
0.0059540371014 0.0060512674842 0.0061525231039 0.0062577018813 0.0063665994696 0.0064788988633 0.0065941985169 0.0067120350884 0.0068317974099 
0.0069531002368 0.0070753930539 0.0049578376479 0.0050178829153 0.0050785801424 0.0051403285451 0.0052034891706 0.0052682766557 0.005334950931 
0.0054037439665 0.0054747598322 0.0055481549266 0.0056241329527 0.0057029192011 0.0057848073994 0.0058701364785 0.0059592597677 0.0060524851183 
0.0061500423067 0.006251959436 0.0063583450461 0.0064689528911 0.0065834810807 0.0067015323918 0.0068226366066 0.0069463493588 0.0070719699866 
0.0071990638547 0.0038869977629 0.003923601707 0.0039597542293 0.0039954808467 0.0040307772761 0.0040658402063 0.0041009033534 0.0041362066983 
0.0041720856161 0.0042088313401 0.0042467104041 0.0042859365128 0.0043266601947 0.0043689848565 0.0044129708615 0.0044586344688 0.0045059740841 
0.0045549578145 0.0046055595388 0.0046576112145 0.0047110350128 0.0047656681176 0.0048213270052 0.004877810831 0.0049348824314 0.0049923060348 
0.0039085302935 0.0039449786815 0.0039808690257 0.0040161634587 0.0040509588942 0.0040854941313 0.0041200057193 0.0041548809926 0.0041905005832 
0.0042272338009 0.0042653995861 0.0043052416665 0.0043469222899 0.0043905241801 0.0044360775107 0.0044835549442 0.0045329013737 0.004584070274 
0.004636873941 0.0046912191579 0.0047469368672 0.004803817389 0.0048616600084 0.0049202238358 0.0049792545904 0.0050384008042 0.003920766693 
0.0039570329889 0.0039925742769 0.0040273419855 0.0040615642607 0.0040954442801 0.0041293657493 0.0041637539368 0.0041990630276 0.0042357580719 
0.0042741905628 0.0043146322329 0.0043572457287 0.00440209648 0.0044491683738 0.004498406169 0.0045497331163 0.0046029534927 0.0046579314994 
0.0047145032832 0.0047724406118 0.0048315158257 0.0048914894918 0.0049519938611 0.0050129336857 0.0050739275581 0.0039266533865 0.0039626649745 
0.0039977670564 0.0040320046299 0.0040656107827 0.0040988446238 0.0041321810768 0.004166114529 0.0042011804371 0.0042378944785 0.0042766602972 
0.0043177590866 0.0043613437398 0.0044074632164 0.0044560609806 0.0045070705778 0.0045602796651 0.0046155422411 0.0046726555161 0.0047313933669 
0.0047914013215 0.0048526324753 0.0049147014308 0.004977301472 0.005040124605 0.0051028354877 0.0039295287494 0.0039652561784 0.0039999071961 
0.0040336412484 0.0040666484114 0.0040993372648 0.0041321855416 0.0041658007236 0.0042007834738 0.0042376865759 0.0042769401753 0.0043188351935 
0.0043635040716 0.0044109690769 0.0044611432161 0.0045139160115 0.0045690467478 0.0046263344523 0.0046854424451 0.0047463336197 0.0048086098377 
0.004871972119 0.0049361103012 0.0050006976696 0.0050653835091 0.0051298147464 0.0039326885471 0.0039681635481 0.0040024575493 0.0040357179577 
0.0040682743433 0.0041005518785 0.0041331241697 0.0041666466456 0.0042017888639 0.0042391345679 0.0042791215455 0.0043220234528 0.0043679470714 
0.0044168956721 0.004468781203 0.0045233575752 0.0045803133102 0.004639671625 0.0047010161334 0.0047640584349 0.0048284893871 0.0048939802095 
0.0049601959538 0.0050267695259 0.0050933327091 0.0051594636328 0.0039392067796 0.0039744440194 0.0040084348679 0.0040413780463 0.0040736576559 
0.0041057456559 0.0041383004383 0.0041720346998 0.0042076633326 0.0042457665346 0.0042867704271 0.0043309399166 0.0043783523058 0.004428993262 
0.0044825175949 0.0045390444922 0.0045981904856 0.0046596521499 0.004723157428 0.0047883824993 0.0048549939482 0.0049226397954 0.004990951224 
0.0050595020947 0.0051279783141 0.0051959268211 0.0039514132345 0.0039865341618 0.004020357464 0.0040531645919 0.0040853595849 0.0041175281579 
0.004150391988 0.0041846810125 0.0042211421066 0.0042603464584 0.004302703131 0.0043484307693 0.0043974418318 0.0044499365718 0.0045055998664 
0.0045642224717 0.0046255041284 0.0046891743584 0.0047549113841 0.0048223773481 0.0048912230667 0.0049610647902 0.0050314785776 0.0051021435738 
0.0051725578692 0.0052423250154 0.0039711430336 0.0040062433139 0.004040078136 0.0040729438731 0.0041053277891 0.004137876983 0.0041713618233 
0.0042065653593 0.0042442350033 0.004284889825 0.0043289169778 0.0043763569561 0.0044274961974 0.004482084549 0.0045399469252 0.004600798466 
0.0046643680697 0.0047303554192 0.0047984178087 0.0048682093835 0.0049393592866 0.0050114251615 0.0050841041626 0.0051568835012 0.0052293616891 
0.0053010968904 0.0039995914746 0.0040348446524 0.0040688698466 0.0041020281678 0.0041348768683 0.0041681277057 0.0042025893484 0.0042390695712 
0.004278272917 0.0043205328194 0.004366582554 0.0044162870879 0.0044696629671 0.0045265763061 0.0045868151938 0.0046500790683 0.0047160811206 
0.0047845123693 0.004855017265 0.004927236617 0.0050007398152 0.0050752200414 0.0051501802987 0.0052252309616 0.0052998877644 0.0053737022842 
0.0040375494005 0.0040731346729 0.004107561958 0.0041412645185 0.0041748694945 0.0042091474751 0.0042449282582 0.0042828329255 0.0043239123598 
0.0043684407727 0.0044167289895 0.0044688193785 0.0045246538128 0.0045840994649 0.0046468804763 0.0047127306137 0.0047813157449 0.0048523266499 
0.0049254034394 0.0050001223438 0.0050761953487 0.0051531239582 0.0052305429126 0.005307967344 0.005384952955 0.0054609631535 0.0040854796383 
0.004121579108 0.0041566325053 0.0041911464792 0.0042258056688 0.0042612282193 0.0042986594897 0.0043386806725 0.0043819268906 0.004428837802 
0.0044795878528 0.0045342497951 0.0045927520503 0.0046548843694 0.004720381549 0.0047889507888 0.0048602776755 0.0049340156911 0.0050097348619 
0.0050871550833 0.0051658743521 0.0052454525249 0.0053254440812 0.0054054191745 0.0054848490338 0.0055632458942 0.0041435532631 0.0041803813599 
0.0042163056711 0.0042519033169 0.0042877087873 0.0043249815014 0.0043643645747 0.0044065988252 0.0044522924588 0.0045017552219 0.0045551911861 
0.0046126096046 0.0046739154463 0.0047388652342 0.0048072082934 0.0048786421354 0.0049528249489 0.0050293558403 0.00510794366 0.0051881978694 
0.0052697182849 0.0053520554153 0.0054348062247 0.0055174581442 0.0055995322333 0.005680516707 0.0042117624414 0.0042495420464 0.0042863801734 
0.0043233452447 0.0043610067306 0.0044002250335 0.0044418326005 0.0044865548704 0.00453485738 0.0045870821545 0.0046433577523 0.0047036787386 
0.0047678820597 0.0048357618846 0.0049070426371 0.0049814161073 0.0050584990128 0.005138020766 0.0052195902714 0.0053028115123 0.0053872546055 
0.0054725382058 0.0055581790866 0.0056437102775 0.0057286353238 0.0058124507042 0.0042896981472 0.0043286730295 0.0043671225818 0.0044057392627 
0.0044453390483 0.0044867745777 0.0045308544233 0.0045782460055 0.0046293596974 0.0046844838094 0.0047437244773 0.0048070012614 0.0048741872087 
0.0049450556383 0.0050193345566 0.0050966621812 0.0051767900251 0.0052593645786 0.0053440026724 0.005430278062 0.0055178285211 0.0056061956335 
0.0056949195372 0.0057835369061 0.0058715389852 0.0059584120164 0.0043774324254 0.0044178644103 0.0044579912216 0.0044985420578 0.0045403496298 
0.0045842571519 0.0046310464308 0.0046812559985 0.0047353133557 0.0047934276771 0.0048556800962 0.0049219689668 0.0049921625197 0.0050660313127 
0.005143265444 0.0052236530578 0.0053068629991 0.0053925352136 0.0054802733934 0.0055697399915 0.0056604917803 0.0057520802238 0.005844076209 
0.0059359886745 0.0060273052823 0.0061175219965 0.0044741807625 0.0045163506479 0.0045584426271 0.0046011942607 0.0046454695666 0.0046920928982 
0.0047417219369 0.0047949038957 0.0048519870984 0.0049131599125 0.0049784179672 0.0050477121026 0.005120886271 0.0051976849877 0.0052779393354 
0.00536135957 0.0054476194914 0.0055363684349 0.0056272961339 0.0057199733833 0.0058140145438 0.0059089774914 0.006004499779 0.0060999172435 
0.006194808953 0.0062886542985 0.004579067939 0.0046232608949 0.0046676032681 0.0047128541997 0.0047598367142 0.0048093403849 0.0048619684908 
0.004918203744 0.0049783558378 0.0050425462144 0.0051107968611 0.0051830432585 0.005259088295 0.0053388166513 0.005421997583 0.005508443441 
0.005597697054 0.0056895351263 0.0057836075028 0.0058795461732 0.0059769557445 0.0060754016828 0.006174429412 0.0062735573349 0.0063722673329 
0.0064700480449 0.0046908708264 0.0047373836535 0.0047842512526 0.0048322436523 0.0048821599389 0.0049346775803 0.0049903904494 0.0050497168081 
0.0051129320586 0.0051801782451 0.0052513300872 0.0053263664157 0.0054052252052 0.005487753965 0.0055737250446 0.0056629182961 0.0057550834329 
0.0058499168682 0.0059471079624 0.006046303433 0.0061471182945 0.0062491263921 0.006351877242 0.0064548853895 0.0065576017387 0.0066596144164 
0.0048077993261 0.0048569153302 0.0049065847538 0.0049575829289 0.0050105662972 0.005066309568 0.0051251566563 0.0051875693539 0.0052537297825 
0.0053237520722 0.0053976269572 0.0054753838097 0.0055568745132 0.0056420106855 0.0057305961025 0.0058224237963 0.0059173335303 0.0060150526261 
0.0061152808308 0.0062176905441 0.0063219096427 0.0064275245064 0.0065340969906 0.0066411439133 0.0067481685027 0.006854659336 0.0049275826121 
0.0049796344396 0.0050323253741 0.0050864349381 0.0051426065821 0.0052014387353 0.0052633840708 0.00532879123 0.0053977579381 0.0054704729636 
0.0055469363447 0.0056271518266 0.005711060604 0.0057985445012 0.0058895309566 0.0059838548738 0.0060813490625 0.0061817951878 0.006284937906 
0.006390474931 0.0064980475041 0.0066072797877 0.0067177318613 0.0068289324127 0.0069403719022 0.0070515973566 0.005047201376 0.0051022438839 
0.0051581320572 0.0052154232581 0.0052748222349 0.0053368029441 0.0054017822063 0.0054699932304 0.0055416445645 0.005616799173 0.005695576672 
0.0057779981842 0.0058640047151 0.0059535802941 0.0060466758408 0.0061431997987 0.0062430685883 0.0063460331567 0.0064519248728 0.0065604462304 
0.0066713101957 0.0067841277454 0.0068984769103 0.0070138920394 0.007129916345 0.0072460607354 0.0051627636536 0.0052209916333 0.0052801373985 
0.0053407357495 0.0054033228729 0.0054683590781 0.0055361662676 0.0056069970119 0.005681010558 0.0057583765985 0.005839178827 0.0059234385928 
0.0060112112727 0.0061025353861 0.0061974165305 0.0062958137443 0.006397705246 0.006502958831 0.0066113976375 0.0067227831714 0.0068368314449 
0.006953173631 0.0070713968704 0.0071910723504 0.007311735518 0.0074329234798 0.0052703474776 0.0053317966323 0.0053941635782 0.0054579366807 
0.0055235767539 0.0055914749 0.0056618833763 0.0057350333886 0.0058111613103 0.0058903906564 0.005972814038 0.0060585323677 0.0061476915631 
0.0062403678901 0.0063366656604 0.0064366286606 0.0065402713887 0.0066475324877 0.0067582826855 0.0068723222912 0.0069893799311 0.0071091129146 
0.0072311450833 0.0073550434919 0.0074803715672 0.0076066718534 0.0053659440447 0.0054304886207 0.0054959505761 0.005562728548 0.0056312153503 
0.0057016796533 0.0057743991905 0.0058495665879 0.0059274223555 0.0060080979577 0.0060917523894 0.0061785579962 0.0062686795139 0.0063623078706 
0.0064596257245 0.0065607675598 0.0066658199006 0.0067747921207 0.0068876028233 0.0070040881908 0.0071239945107 0.0072470006244 0.0073727376633 
0.0075007012664 0.0076306233849 0.0077620809849 0.0054462295531 0.0055136758351 0.0055819948514 0.005651505628 0.0057225138875 0.0057952242924 
0.0058698622695 0.0059467230199 0.0060259289218 0.0061076639829 0.0061921453049 0.0062795895167 0.0063702551469 0.0064644207774 0.0065623636153 
0.0066643153289 0.0067704474742 0.0068807614135 0.0069953756924 0.0071140835121 0.0072366550895 0.0073627795722 0.0074920872745 0.0076242434065 
0.0077586630796 0.0078950361036 0.0042666891069 0.0043071406933 0.0043473444891 0.0043874236424 0.0044273440132 0.0044672818713 0.0045074299687 
0.0045479686524 0.0045891625359 0.0046312325396 0.0046743864366 0.0047187971217 0.0047645922422 0.0048118656352 0.0048606753355 0.0049110385019 
0.0049629555898 0.0050163987916 0.0050713495501 0.0051276527331 0.0051852483823 0.0052439970686 0.0053037433915 0.0053643184286 0.0054255203139 
0.005487155216 0.0042985277863 0.0043390901785 0.0043794040814 0.0044194451615 0.0044593065647 0.0044991973721 0.004539297759 0.0045799132306 
0.0046213283732 0.0046638185323 0.004707626471 0.0047529462778 0.0047999169426 0.0048486168897 0.0048990883171 0.0049513151071 0.0050052597626 
0.0050608934284 0.0051180482849 0.0051766531137 0.0052365643206 0.0052976013026 0.0053595947997 0.0054223421794 0.0054856255154 0.0055491363148 
0.0043236785357 0.0043643835514 0.0044047256503 0.0044446717344 0.004484441716 0.004524199616 0.0045642543528 0.0046049250135 0.0046465430502 
0.004689456054 0.0047339236092 0.004780161452 0.0048283109139 0.004878442007 0.0049305603615 0.0049846335237 0.0050406186878 0.0050983488198 
0.0051577182105 0.0052185937695 0.0052807798782 0.0053440833723 0.0054083018822 0.0054731075914 0.0055384485496 0.0056039901643 0.0043442474375 
0.0043850458009 0.0044253511159 0.0044652243357 0.0045048765832 0.0045445385132 0.0045845672722 0.0046253308678 0.00466721872 0.0047106076687 
0.0047557977458 0.0048030115665 0.0048523847259 0.0049039809266 0.0049577722853 0.0050137010973 0.0050716932393 0.0051315432517 0.0051931209154 
0.0052562386337 0.005320580718 0.0053861402558 0.0054525744384 0.005519618312 0.0055870165732 0.0056544829041 0.0043626190489 0.0044034981986 
0.0044437711293 0.004483609802 0.0045231823272 0.0045628288768 0.0046029107848 0.0046438775552 0.0046861543362 0.0047301561677 0.0047761888649 
0.0048244919218 0.00487518795 0.0049283217795 0.0049838472639 0.00504170233 0.0051016943793 0.0051636719219 0.0052273444151 0.0052927173821 
0.0053594391552 0.0054272550025 0.0054959014799 0.0055651013604 0.0056345572831 0.0057039743026 0.0043812055227 0.004422207595 0.0044625475723 
0.0045023799459 0.0045419999286 0.0045817455003 0.0046220490868 0.004663386418 0.0047062395157 0.0047510320367 0.004798093942 0.0048476494577 
0.004899804838 0.0049545951648 0.0050119807821 0.005071772897 0.0051337136155 0.0051978801995 0.0052639073794 0.0053315560129 0.0054005656432 
0.005470656825 0.0055415457893 0.0056129198609 0.0056844696609 0.0057558370557 0.0044023939414 0.0044435216221 0.004483995139 0.0045239773685 
0.0045637766756 0.0046037962628 0.0046445170037 0.0046864525444 0.0047301207074 0.0047759423936 0.0048242440866 0.0048752524989 0.0049290554177 
0.0049856803689 0.0050448355566 0.0051067033273 0.0051709587332 0.0052373552646 0.005305674696 0.0053756454598 0.0054469859477 0.0055193969614 
0.0055925651362 0.0056661650024 0.0057398199394 0.0058132745805 0.004428067263 0.0044694713669 0.0045101712543 0.0045504342641 0.0045905922395 
0.0046311112868 0.0046724879825 0.0047152795841 0.0047600202079 0.0048071298814 0.0048569315835 0.0049096129338 0.0049651299036 0.0050237114739 
0.0050851116798 0.0051491854311 0.0052156945789 0.0052844267815 0.0053551155676 0.0054274765885 0.0055012143863 0.005576000504 0.0056514694286 
0.0057273632973 0.0058032496663 0.0058788087003 0.0044598240874 0.0045015773812 0.0045426815383 0.0045834011726 0.0046241306164 0.0046653601328 
0.0047076546215 0.0047515912195 0.0047976819781 0.0048463506497 0.0048979005679 0.0049523642767 0.0050100625925 0.0050708034172 0.0051344670771 
0.0052008718311 0.0052697744284 0.0053409451981 0.0054140969612 0.0054889376608 0.005565150832 0.0056423508816 0.0057202955872 0.005798539098 
0.0058767646115 0.0059545800735 0.0044987726735 0.004541037843 0.0045827034525 0.0046240789517 0.0046656047895 0.0047078131779 0.0047512933747 
0.0047966330772 0.004844351193 0.0048946783261 0.0049482567449 0.0050049990407 0.0050649530955 0.0051280505695 0.0051941513639 0.0052630250677 
0.0053344497118 0.0054081755375 0.0054839023076 0.0055613243548 0.0056400654423 0.0057198757375 0.0058003210197 0.0058810807683 0.0059617488805 
0.0060419652943 0.0045457050116 0.0045886461047 0.0046310575932 0.0046733019792 0.0047158627166 0.0047593114446 0.004804250238 0.0048510842153 
0.0049006976351 0.0049532667601 0.0050090712808 0.0050681753261 0.0051305756107 0.0051962102266 0.0052648789359 0.0053363876312 0.0054104685038 
0.0054868719994 0.0055652943865 0.0056453646265 0.0057268481413 0.005809305226 0.0058924326234 0.0059758173855 0.0060590968283 0.0061418276166 
0.0046011190893 0.0046448998558 0.0046882528747 0.0047315894208 0.0047754291758 0.0048201749094 0.0048668408215 0.0049158037257 0.0049675532383 
0.0050224503961 0.0050806581643 0.005142284273 0.0052073162707 0.0052756270894 0.0053470213641 0.0054212827193 0.0054981641373 0.0055773789625 
0.0056585574842 0.0057415014638 0.005825773892 0.0059110679347 0.0059969913707 0.0060831801459 0.0061691899046 0.0062546302985 0.0046652303712 
0.0047100382392 0.0047545425653 0.0047991988838 0.0048443557768 0.0048910458553 0.0049396849568 0.0049908254957 0.0050449515206 0.0051023183719 
0.0051631339613 0.0052274522172 0.0052952435541 0.0053663493697 0.0054405903927 0.0055177409533 0.005597527366 0.0056796114223 0.0057637916585 
0.0058496395212 0.0059368915201 0.0060251400857 0.0061140415483 0.0062031578053 0.0062920966114 0.0063804471445 0.004738049922 0.0047840803005 
0.0048297385998 0.0048759517151 0.0049230809584 0.0049717567845 0.0050225935031 0.0050761480047 0.005132786292 0.0051928137356 0.0052563798169 
0.0053235310267 0.0053941757741 0.0054681864878 0.0055453655105 0.0056254785636 0.0057082109387 0.0057933547097 0.0058805810756 0.0059695350577 
0.006059869269 0.0061512417551 0.0062432439841 0.0063354814683 0.0064275509923 0.0065190356914 0.0048191712109 0.0048666332887 0.0049141005748 
0.0049620988029 0.0050112292596 0.0050621120401 0.0051153526903 0.0051714727188 0.0052308054998 0.0052936238661 0.0053600642695 0.0054301051221 
0.0055036921417 0.0055806747612 0.0056608606795 0.0057439568991 0.0058297830762 0.0059180504598 0.0060084285332 0.0061005603401 0.0061941353904 
0.006288759216 0.006384041089 0.0064795959685 0.006575006493 0.0066698656999 0.0049086429207 0.0049577546461 0.0050070446361 0.0050570581394 
0.0051084041457 0.0051617014045 0.0052175488732 0.0052763614718 0.0053385122655 0.0054042113061 0.0054735793148 0.0055465770136 0.0056231449082 
0.0057031284902 0.0057862901183 0.0058724887327 0.0059614564529 0.0060528957123 0.0061464708876 0.0062419039498 0.006338813115 0.0064368152046 
0.0065355529178 0.0066346170548 0.0067335896952 0.0068320765499 0.0050056453876 0.0050566348492 0.0051079774598 0.0051602135453 0.0052139822161 
0.0052698966436 0.0053284510155 0.0053900974371 0.0054551467154 0.005523802239 0.0055961060097 0.0056720721715 0.005751614862 0.0058345498871 
0.0059207760698 0.0060100682405 0.0061021641453 0.006196771173 0.0062936391082 0.0063923991666 0.0064927291913 0.0065942552283 0.006696690139 
0.006799455552 0.0069022285302 0.0070046015325 0.0051092775976 0.0051623678256 0.0052159834569 0.0052706788626 0.0053270576462 0.0053857156803 
0.0054471173959 0.0055116707594 0.0055796679025 0.0056512547653 0.0057265031291 0.0058054106804 0.0058878473242 0.0059737869281 0.0060629886524 
0.0061553973699 0.0062505894219 0.0063483983059 0.0064485314282 0.0065506809083 0.006654515684 0.0067596718317 0.0068657734991 0.0069724283187 
0.0070792211586 0.0071857542977 0.0052183403773 0.0052737565876 0.0053298494404 0.0053871833902 0.0054463497779 0.0055078537951 0.0055721744003 
0.0056396759316 0.0057106232934 0.0057851322531 0.0058633424852 0.005945064379 0.0060303965115 0.006119178559 0.0062113055051 0.0063065882134 
0.0064048284567 0.0065057745229 0.0066091722771 0.0067147252756 0.0068221135251 0.0069309827952 0.0070409637779 0.0071516634353 0.0072626803276 
0.0073735937803 0.005331176085 0.0053891232532 0.0054479220323 0.005508079322 0.005570116241 0.0056346546997 0.0057019397401 0.005772398483 