# vtk DataFile Version 5.1
vtk output
ASCII
DATASET STRUCTURED_POINTS
DIMENSIONS 26 26 26
SPACING 0.08 0.08 0.08
ORIGIN -1 -1 0.5
POINT_DATA 17576
FIELD FieldData 1
potential 1 17576 double
0.0032698884707 0.0033119068228 0.0033534652565 0.0033943904166 0.0034345431263 0.003473956213 0.0035126293563 0.003550675509 0.0035883034367 
0.0036258133177 0.0036635359016 0.00370193253 0.0037413129157 0.0037822288466 0.0038249174996 0.0038698269875 0.0039172145211 0.003967306748 
0.004020229502 0.0040760208165 0.0041346477173 0.0041959895081 0.004259809908 0.0043261836109 0.0043946567125 0.0044650210534 0.0032292846633 
0.0032706186206 0.0033114680762 0.0033516488694 0.0033910585107 0.0034296265175 0.0034674563849 0.0035046523144 0.0035414464968 0.0035781720061 
0.0036151843848 0.0036529120054 0.0036918333588 0.0037323199725 0.0037746205618 0.0038191605007 0.0038661472789 0.0039157805022 0.0039681601123 
0.0040233175233 0.0040812112826 0.0041417246074 0.0042046326835 0.0042699517813 0.0043373531422 0.0044066404411 0.0031752524416 0.0032158442952 
0.0032558304025 0.0032951474633 0.0033336617273 0.0033712863534 0.0034081440376 0.0034443476405 0.003480144458 0.0035159014643 0.0035519862924 
0.0035888437751 0.0036268977761 0.0036666049871 0.0037082600633 0.0037520767321 0.003798319557 0.0038471630164 0.0038986886035 0.0039529173483 
0.0040098057528 0.0040692387326 0.0041311097431 0.0041950914153 0.0042612075788 0.0043290925257 0.0031111007122 0.0031508133952 0.0031898801867 
0.0032282613957 0.0032658044284 0.0033024716018 0.0033382851593 0.0033734622841 0.0034082292733 0.003442962179 0.0034780347211 0.0035138913162 
0.0035509533971 0.0035896112482 0.0036302777232 0.0036731342818 0.0037183313399 0.0037660809767 0.0038164589011 0.0038694803636 0.00392509956 
0.0039832017505 0.0040436828653 0.0041062258784 0.0041708482849 0.0042371902915 0.0030407213983 0.0030794910481 0.0031175930231 0.0031550010113 
0.0031915571464 0.0032272441899 0.0032621108692 0.003296287852 0.0033301288718 0.0033639093634 0.0033980401457 0.0034329105452 0.0034689374813 
0.0035065043697 0.0035459532841 0.0035876562811 0.0036315752839 0.0036779835928 0.0037269633814 0.0037785292185 0.0038326335958 0.0038891728888 
0.0039480405378 0.0040090464359 0.0040718550376 0.0041364652511 0.0029679433162 0.0030057268809 0.0030429002575 0.0030792670043 0.0031148683653 
0.0031496294548 0.0031836328393 0.0032170372984 0.0032500742591 0.0032831090122 0.0033164599471 0.0033504955795 0.0033855833672 0.0034220906421 
0.0034603697854 0.0035006265558 0.0035432699541 0.0035881663191 0.0036355500212 0.0036854474 0.0037378284461 0.0037925953251 0.0038496489991 
0.0039088049521 0.0039697343538 0.004032436396 0.0028960597939 0.0029328240076 0.0029689921941 0.0030044011483 0.0030390987114 0.0030730354533 
0.0031063080448 0.0031390911525 0.0031715872328 0.0032041228928 0.0032369613311 0.0032703999865 0.0033047606417 0.0033403636831 0.0033775424837 
0.0034165262124 0.0034576723753 0.0035010253113 0.0035466961192 0.0035947920728 0.0036452871731 0.0036981102344 0.0037531752553 0.0038103098329 
0.0038693139131 0.0039298234507 0.0028275658386 0.0028632993889 0.002898485448 0.0029329680837 0.0029668266745 0.0030000469401 0.0030327436716 
0.0030650854773 0.0030973129481 0.0031295539692 0.0031621442902 0.0031952701127 0.0032291714591 0.0032641208095 0.0033004111287 0.0033382656297 
0.0033779772981 0.0034197878946 0.0034637631124 0.0035099691942 0.0035584772104 0.0036092315108 0.0036621713274 0.0037171395614 0.0037739515741 
0.0038323849513 0.0027644134754 0.0027989646653 0.0028331786392 0.0028668308614 0.0028998770389 0.0029324870133 0.0029647396321 0.0029968074149 
0.0030289134143 0.003061175306 0.003093721556 0.0031268012811 0.0031605325237 0.0031951149381 0.0032307927434 0.003267755976 0.0033062959439 
0.0033465924974 0.0033889686836 0.0034333089608 0.0034797977443 0.0035284183109 0.003579142744 0.0036318408292 0.0036863451889 0.0037424497912 
0.0027075125555 0.0027410299171 0.0027742928287 0.0028071106938 0.0028394667288 0.0028715639256 0.0029034932601 0.0029354389549 0.0029675687792 
0.0029999747172 0.0030327727077 0.003065982615 0.0030998025519 0.0031343066736 0.0031696723961 0.0032060397344 0.0032436536975 0.003282757149 
0.0033235066928 0.0033662087948 0.0034107326987 0.0034572265204 0.003505704249 0.0035560735505 0.0036082011277 0.0036618967232 0.0026578161006 
0.0026904395849 0.0027226482055 0.0027546840527 0.0027864093895 0.0028180790953 0.0028497878116 0.0028817094917 0.002913978618 0.0029466551955 
0.0029797945699 0.0030133553912 0.0030474668389 0.0030821372191 0.0031174444745 0.0031535546968 0.0031905731924 0.0032287554687 0.003268253704 
0.0033092811329 0.0033521031994 0.0033965598227 0.0034428345307 0.0034908798699 0.0035406020836 0.0035918463273 0.0026158543584 0.0026474639123 
0.0026788077905 0.0027100776379 0.0027413007213 0.0027725584123 0.0028041228365 0.0028360925672 0.0028685800257 0.0029015992622 0.0029351623675 
0.0029692405844 0.0030037390368 0.0030387619112 0.0030742756489 0.0031103694819 0.0031471119645 0.0031846999301 0.0032232639488 0.0032630187729 
0.0033041330431 0.0033468500809 0.0033910436745 0.0034368379455 0.0034841901473 0.0035329893462 0.0025818647914 0.0026125850413 0.0026431842983 
0.0026736850437 0.0027043885008 0.0027353505774 0.0027668320419 0.0027989020532 0.0028316466942 0.0028650466092 0.0028990745569 0.0029336616587 
0.0029687453241 0.0030041882422 0.0030400791068 0.0030763973267 0.0031131379468 0.0031504259728 0.0031884100894 0.0032272240931 0.0032670589606 
0.0033080598938 0.0033504997221 0.0033941998649 0.0034392892691 0.0034857071778 0.0025562730483 0.0025859611371 0.002615839201 0.0026458141827 
0.0026759936882 0.0027067026276 0.0027381442079 0.0027703531462 0.0028033710875 0.0028371591673 0.0028716582087 0.0029067711289 0.0029424024666 
0.0029784391388 0.0030147509886 0.0030514482449 0.0030884030459 0.0031256886888 0.0031634039675 0.0032016294597 0.0032405291111 0.0032802641377 
0.0033209915745 0.0033629570136 0.0034059726593 0.0034501644109 0.002539124474 0.0025679176726 0.0025969549822 0.0026263641448 0.0026562602003 
0.002686864867 0.0027182287497 0.0027505808676 0.0027838723835 0.0028180324128 0.0028529791005 0.0028885931903 0.0029247529504 0.0029613414272 
0.0029982373629 0.0030353365127 0.0030726483637 0.003110131964 0.0031478384354 0.0031857956648 0.0032241334878 0.0032629683791 0.0033024801224 
0.0033428205625 0.0033841287039 0.00342630335 0.0025305385693 0.0025584173765 0.0025867897474 0.0026157027389 0.0026453160778 0.0026756785979 
0.0027071714878 0.0027396677749 0.0027732191523 0.002807717818 0.0028430668705 0.0028791322919 0.0029157788358 0.0029528628708 0.0029902679652 
0.0030279187887 0.0030655973346 0.0031034156217 0.0031412933059 0.0031792692064 0.0032173588168 0.0032556716907 0.0032943392823 0.0033334914221 
0.0033732737378 0.0034138407072 0.0025302353379 0.0025574616327 0.0025852149731 0.0026137167064 0.0026430938585 0.0026734842262 0.0027048949543 
0.002737585124 0.0027713613585 0.0028061543135 0.002841838809 0.0028782846255 0.002915343973 0.0029528680108 0.002990727521 0.0030288060443 
0.0030669611986 0.0031051714945 0.0031433633823 0.0031815231202 0.0032196269313 0.0032577227266 0.0032959185794 0.0033343102706 0.0033730179962 
0.00341217897 0.0025380611879 0.0025646851042 0.0025920510005 0.002620255752 0.0026494266451 0.0026797860386 0.0027112726926 0.0027440194561 
0.0027780002726 0.0028131081145 0.0028490676502 0.0028858075429 0.0029231861215 0.0029610538094 0.0029992807615 0.0030377425045 0.0030763653826 
0.0031149024547 0.0031534528051 0.0031919126491 0.003230205043 0.0032683457763 0.0033063938807 0.0033444052279 0.0033824742012 0.0034207141089 
0.0025534126858 0.0025796421512 0.0026067075619 0.0026347387872 0.0026639042505 0.0026942773113 0.0027259106101 0.0027586861682 0.0027928266295 
0.0028280250994 0.0028641589077 0.0029011699653 0.0029387587562 0.002976853041 0.0030153330066 0.0030540739837 0.003093008184 0.0031319497812 
0.0031707697953 0.0032095403476 0.0032481507348 0.0032865131352 0.003324666388 0.0033626227897 0.0034004383337 0.0034382053727 0.002575337117 
0.002601349106 0.0026282851876 0.0026562778785 0.0026854792755 0.002715975441 0.002747762011 0.0027807736868 0.0028148489964 0.0028501175611 
0.0028863336348 0.0029233424015 0.0029610045394 0.002999267153 0.0030378601724 0.0030767586751 0.00311587455 0.0031550415188 0.0031942096139 
0.0032332175632 0.0032721501122 0.0033108268548 0.0033492538372 0.0033874038485 0.0034252953109 0.0034629794773 0.0026022752041 0.0026282932794 
0.0026552853853 0.0026833844822 0.0027127091799 0.0027433385387 0.0027752455037 0.002808398692 0.0028425234411 0.0028777715633 0.0029139628001 
0.0029509164028 0.0029885188146 0.0030266437268 0.0030652453961 0.003104120989 0.0031432741824 0.0031825349628 0.003221863416 0.0032611703838 
0.0033002991495 0.0033393309161 0.003378115857 0.0034166183223 0.0034548250426 0.0034927466238 0.0026319783258 0.0026582290769 0.0026854138354 
0.0027137480048 0.0027432924897 0.0027740987228 0.0028061247163 0.002839327191 0.0028735399305 0.0029086438564 0.0029446849677 0.0029814012119 
0.0030187703393 0.0030566650646 0.003094989244 0.0031336713524 0.0031727145779 0.0032119433411 0.0032512757405 0.0032906798677 0.0033300599366 
0.0033693170246 0.0034084690308 0.0034474012396 0.0034860682599 0.0035244615689 0.002661311065 0.0026879936311 0.0027155766403 0.0027442640601 
0.0027740997031 0.0028050964115 0.0028372368036 0.0028704223353 0.002904598234 0.0029395531369 0.002975206115 0.0030116146626 0.003048580742 
0.0030859972614 0.0031239105504 0.0031621954273 0.0032008218844 0.0032397872185 0.0032790209739 0.0033183705284 0.0033578423399 0.0033973355285 
0.0034367485333 0.0034761077151 0.0035152994701 0.0035542964665 0.0026867109934 0.0027140054857 0.0027420603145 0.0027711704406 0.0028013207555 
0.0028325106386 0.0028647121462 0.0028978335893 0.0029318102554 0.0029664413579 0.00300166933 0.0030375601022 0.0030739416875 0.0031107733144 
0.00314803023 0.0031856702356 0.0032237316662 0.0032622191963 0.003301017313 0.0033401291786 0.0033795693104 0.0034191160789 0.0034588144055 
0.0034984598983 0.0035381549835 0.0035777770922 0.0027044592304 0.002732391855 0.0027610402135 0.0027905524172 0.0028210074483 0.0028523573604 
0.0028845597567 0.0029175199478 0.0029511900448 0.0029854386778 0.0030201288987 0.0030552198267 0.0030908161579 0.003126802342 0.0031631876156 
0.0031999929011 0.0032372330603 0.0032750113372 0.0033132218568 0.0033518898386 0.0033909806965 0.0034304309704 0.0034702374841 0.0035102214708 
0.0035502572806 0.0035904618895 0.0027112828804 0.0027399106798 0.0027690845202 0.0027990069133 0.0028297140628 0.0028611527221 0.0028932657351 
0.0029259728673 0.0029592210246 0.0029928852532 0.0030268391342 0.0030611651665 0.0030956644717 0.0031305809205 0.0031658559234 0.0032015578066 
0.0032377665898 0.0032746186447 0.0033119721452 0.0033499867758 0.0033885993922 0.0034277601868 0.0034674098808 0.0035074896631 0.0035479444198 
0.0035885397517 0.003605169041 0.0036506166945 0.0036958561604 0.003740753054 0.0037852042355 0.0038292700921 0.003872963839 0.0039163913879 
0.003959730884 0.0040032302426 0.0040471528275 0.0040918299819 0.0041376595108 0.0041849531771 0.0042339323488 0.0042849836006 0.0043383176262 
0.0043941330332 0.0044525478534 0.0045136102737 0.0045773113201 0.0046435639004 0.0047121719942 0.0047832514978 0.0048563946285 0.0049314397184 
0.0035660252075 0.0036108363355 0.0036553281512 0.0036995065596 0.0037432592128 0.0037865453481 0.0038294801859 0.0038721543714 0.0039147571588 
0.0039575529706 0.0040008133006 0.0040448790254 0.0040901465759 0.0041369105633 0.0041853761969 0.0042359055414 0.0042886799473 0.0043438826966 
0.0044016131874 0.0044619159491 0.004524773496 0.0045901008106 0.0046577087166 0.0047276583732 0.0047996584137 0.0048735592247 0.0035168548637 
0.0035608929386 0.0036045920746 0.0036479671153 0.0036908955531 0.0037333699978 0.0037754128744 0.0038172293424 0.0038589770874 0.0039009416611 
0.0039433933425 0.0039866784919 0.0040311327368 0.0040771401475 0.0041249407863 0.0041747096198 0.0042266890626 0.004281045546 0.0043378658823 
0.0043971874521 0.0044589918404 0.0045231954853 0.0045897269388 0.0046583015461 0.0047289807165 0.0048014446666 0.003459867849 0.0035030585463 
0.0035458966324 0.0035883883677 0.0036304275281 0.0036720085926 0.0037131629128 0.0037540842186 0.0037949405971 0.003836020873 0.003877595951 
0.0039200064881 0.0039635799877 0.0040086333201 0.0040555205371 0.0041043870519 0.004155363965 0.0042086588789 0.0042643559344 0.0043224889605 
0.0043830385442 0.0044459220836 0.0045110717138 0.0045782106154 0.0046473967551 0.0047183158312 0.00339772941 0.0034400218162 0.003481948309 
0.0035235333892 0.0035646637932 0.0036053515402 0.003645649634 0.0036856610478 0.0037256795049 0.00376589634 0.0038066238802 0.0038481551887 
0.0038908112759 0.003934897253 0.0039806940521 0.0040285096058 0.0040783446626 0.0041304045685 0.0041847995434 0.0042415618709 0.004300670848 
0.0043620554438 0.0044256459547 0.0044912925105 0.0045587034187 0.0046279220172 0.0033331864239 0.003374543464 0.0034155987601 0.0034562054832 
0.0034964451802 0.00353626534 0.0035757446067 0.0036150088271 0.0036542317333 0.0036937048563 0.003733665348 0.0037743973927 0.0038161847282 
0.0038593166579 0.0039040762302 0.0039506189597 0.0039993189598 0.004050028054 0.0041029808483 0.0041582177675 0.004215733016 0.00427546044 
0.0043373379683 0.0044012221591 0.0044669521442 0.0045342049753 0.0032687628251 0.0033091563989 0.0033492641627 0.0033889675345 0.0034283491972 
0.003467369348 0.0035061106535 0.0035447089731 0.0035833133725 0.0036221965369 0.0036615497375 0.0037016235075 0.0037426696591 0.0037849386818 
0.0038286948504 0.0038741058729 0.0039214100549 0.0039708367743 0.0040222709977 0.004075887352 0.0041317030758 0.0041896495232 0.0042496845513 
0.0043116767678 0.0043754715943 0.0044407551496 0.0032065209777 0.0032459419344 0.0032851239314 0.0033239479963 0.0033625158002 0.0034008112565 
0.0034389224818 0.0034769738398 0.0035151576612 0.003553560514 0.0035924841253 0.0036320819291 0.0036725534624 0.0037141187332 0.0037570086233 
0.0038013812131 0.0038474698706 0.0038954703606 0.0039454195834 0.0039973736384 0.0040514102193 0.0041074909801 0.0041655889119 0.0042255849179 
0.0042873396813 0.0043506739887 0.0031482286354 0.003186533966 0.0032247994492 0.0032628313575 0.0033005951728 0.003338244747 0.0033758234855 
0.0034134463761 0.00345130326 0.0034894831098 0.0035281017363 0.0035674060463 0.0036074958506 0.0036485432788 0.0036907465063 0.00373423634 
0.0037792174501 0.0038258775366 0.0038743825563 0.0039247392065 0.0039769923398 0.0040311752286 0.0040872817538 0.0041452154071 0.0042048517892 
0.0042660342258 0.0030947796561 0.0031321203623 0.0031694901141 0.0032067191802 0.0032437872478 0.0032808672234 0.0033180016093 0.0033553239927 
0.0033929668337 0.003431010083 0.0034695765708 0.0035087014905 0.0035485929432 0.0035893206857 0.0036310379787 0.0036738424826 0.0037179163386 
0.0037634424644 0.0038105161099 0.0038593952267 0.0039099190832 0.0039622247555 0.0040163339207 0.0040721790404 0.0041296599248 0.0041886408739 
0.0030471720925 0.0030836932502 0.0031200644725 0.0031565376728 0.0031929581327 0.0032295380047 0.0032663161627 0.0033034166504 0.0033409498359 
0.0033789638581 0.0034175460893 0.0034567377078 0.0034965278263 0.0035371166085 0.0035785159987 0.003620872406 0.0036642483088 0.0037088392324 
0.0037547389408 0.0038020938195 0.003851121728 0.0039016320505 0.0039537961105 0.0040075750501 0.0040629052622 0.004119669639 0.0030059983362 
0.0030415852679 0.0030772515284 0.0031128765456 0.0031487683724 0.003184851759 0.003221339773 0.0032582828406 0.0032957766638 0.003333841574 
0.0033725211313 0.003411827848 0.0034517062166 0.0034922992298 0.0035335851709 0.003575654359 0.0036185529982 0.0036624358123 0.0037073769272 
0.0037535268254 0.0038009927442 0.0038499680592 0.0039002939653 0.0039520879486 0.0040053142284 0.0040598936327 0.0029715418004 0.0030063301161 
0.0030411979256 0.0030761739252 0.0031115112946 0.0031472061443 0.0031834589643 0.0032202989121 0.0032578003576 0.0032959612802 0.0033347916267 
0.0033742697244 0.0034143813358 0.003455032379 0.0034963433142 0.003538315603 0.0035809285648 0.003624300423 0.0036685345242 0.0037137096418 
0.0037599538001 0.0038073501002 0.0038561256413 0.003906067254 0.0039572962116 0.0040097659195 0.0029442420362 0.0029780794096 0.0030122894379 
0.0030467474179 0.0030815178907 0.0031168591589 0.0031529179495 0.0031896963428 0.0032272335928 0.003265514758 0.0033045221217 0.0033442086284 
0.0033845245699 0.0034254222738 0.0034667951336 0.0035087886189 0.0035512911693 0.0035943754619 0.0036381189408 0.0036825675825 0.0037278297718 
0.0037740068592 0.0038211969388 0.0038695971575 0.0039189910329 0.0039694983823 0.0029241570205 0.0029571511668 0.0029905683328 0.0030244653738 
0.0030589107699 0.003094030325 0.0031298563674 0.0031665842002 0.003204171185 0.0032425759796 0.0032817607447 0.0033216569402 0.0033621946931 
0.003403306916 0.003444916106 0.0034869564573 0.0035294647737 0.0035724156274 0.0036158612553 0.0036598089644 0.0037043557222 0.0037495727956 
0.0037955774459 0.0038424670543 0.0038903355119 0.0039390566101 0.002911234971 0.0029434359049 0.0029762305447 0.0030096225142 0.0030437118838 
0.0030784867595 0.0031142869603 0.0031509727369 0.0031886104071 0.0032271260424 0.0032664680949 0.0033065525288 0.0033472945034 0.0033885991362 
0.003430394705 0.003472646863 0.0035151721991 0.0035581087496 0.0036013919107 0.0036450620836 0.0036891212704 0.003733641384 0.0037787298062 
0.0038244432369 0.0038708824051 0.0039181604678 0.0029052162384 0.0029368358294 0.0029690976914 0.0030019966891 0.0030357746165 0.0030704569973 
0.003106020653 0.0031427171641 0.0031803899397 0.0032189924295 0.003258449962 0.0032986805958 0.0033395843896 0.0033810587479 0.0034230173651 
0.0034653847581 0.0035081211864 0.0035510404808 0.0035942913997 0.0036378108756 0.0036815801016 0.0037256344849 0.0037700631161 0.0038149163924 
0.0038602698935 0.0039062147355 0.0029058005052 0.002936868907 0.0029686907095 0.0030013078402 0.0030347888004 0.0030693116341 0.0031047965558 
0.0031413838374 0.0031790761958 0.0032178057018 0.0032573426591 0.0032976616443 0.0033386655118 0.0033802474793 0.0034223173835 0.0034647897454 
0.003507628043 0.003550616702 0.003593888173 0.003637340825 0.0036809834175 0.0037247720126 0.0037687825528 0.0038130513455 0.0038576404953 
0.0039026231087 0.0029122952677 0.0029429863402 0.0029744825528 0.003006855968 0.0030402216399 0.0030746321693 0.0031100956467 0.0031465484539 
0.0031842324876 0.0032228850426 0.0032624244359 0.0033028366827 0.0033438630831 0.0033854704107 0.0034275738256 0.0034700847495 0.0035129687266 
0.0035560730309 0.0035993007934 0.0036427537827 0.0036863474774 0.003730014932 0.003773806018 0.0038177328334 0.0038618381049 0.0039061888965 
0.0029237293959 0.0029541713145 0.0029854709066 0.0030177092816 0.0030509714433 0.0030853424384 0.0031208144955 0.0031573463272 0.003194812753 
0.003233384576 0.0032728578838 0.003313117538 0.0033540611773 0.0033956697499 0.0034377050338 0.0034801723079 0.003523013451 0.0035660921679 
0.0036093888475 0.0036527730466 0.0036963588226 0.0037399941151 0.0037837075481 0.003827487254 0.0038713565793 0.0039153569057 0.0029386794372 
0.0029690327779 0.0030002690195 0.0030324641205 0.0030656990588 0.0031000407944 0.0031354744495 0.0031719984264 0.003209373289 0.0032477935709 
0.0032871171886 0.0033271994301 0.0033679589659 0.0034092988454 0.0034511998145 0.0034934842519 0.0035361804687 0.0035791447418 0.0036223634568 
0.0036657707858 0.0037092574494 0.0037529173021 0.0037966361801 0.0038404049754 0.0038842252212 0.003928120444 0.0029552838251 0.0029857041857 
0.0030169563837 0.0030492030225 0.0030824749224 0.0031168196557 0.0031522127745 0.0031886430879 0.0032260463258 0.0032641457914 0.0033032190491 
0.0033429707255 0.0033834061484 0.0034244218445 0.003465942821 0.0035079167188 0.003550365712 0.0035931343558 0.0036361646537 0.0036794460286 
0.0037229142964 0.0037664993775 0.003810251433 0.0038540848096 0.0038979826436 0.0039419563459 0.0029711157849 0.0030017340089 0.0030331546039 
0.0030655341275 0.0030988928134 0.0031332472411 0.0031685981144 0.0032048789133 0.0032420702977 0.0032799961272 0.0033186075245 0.0033579894412 
0.003397967921 0.003438451073 0.003479502362 0.0035210066957 0.00356294885 0.0036053386796 0.0036481225512 0.0036911685302 0.0037345076877 
0.0037780674395 0.0038217768837 0.0038656945677 0.00390973751 0.0039539047933 0.0029836132159 0.0030145588204 0.0030461834843 0.0030787411797 
0.0031122001739 0.003146564545 0.0031818266061 0.0032179242004 0.0032548253354 0.0032923611209 0.0033305024511 0.0033693386411 0.0034087155155 
0.0034486042495 0.0034889872993 0.0035298265938 0.0035711645146 0.0036130117568 0.0036552632401 0.0036979376405 0.0037410633285 0.003784465184 
0.003828196834 0.0038720898091 0.0039162798633 0.003960672001 0.0029901855743 0.0030214639621 0.0030533985619 0.0030861078543 0.0031196578483 
0.0031540078239 0.0031891325656 0.0032249670207 0.003261491827 0.0032986047712 0.0033361947972 0.0033742401893 0.0034128591377 0.0034519411161 
0.0034914938399 0.0035315323726 0.0035721056973 0.0036131924226 0.0036548114618 0.0036969576719 0.0037396136846 0.0037827389997 0.0038263574367 
0.0038703195199 0.0039145301656 0.0039591335039 0.0029885627541 0.0030202379272 0.0030524254344 0.0030853051793 0.0031189088865 0.0031531888603 
0.0031881050312 0.0032236043138 0.0032596607089 0.0032961766029 0.0033330494168 0.0033703789642 0.0034079750207 0.0034460791388 0.0034846208991 
0.0035236501216 0.0035632275158 0.003603474999 0.0036442836492 0.0036857047617 0.0037278025987 0.0037705109323 0.0038137963612 0.0038576281089 
0.003901925783 0.003946640078 0.0039521091052 0.004001213388 0.0040503427601 0.0040993921012 0.0041482846913 0.0041970989604 0.0042458551063 
0.0042946510963 0.0043436408233 0.0043930327049 0.0044430388224 0.004493931722 0.0045460468593 0.0045996345293 0.0046548577811 0.0047120526806 
0.0047713913178 0.0048330475128 0.0048971300053 0.0049636920002 0.0050327414267 0.0051042172746 0.0051779569284 0.0052541113079 0.0053323140717 
0.0054124538468 0.0039130810907 0.0039615343112 0.004009907557 0.0040582355577 0.0041064411523 0.0041544936236 0.0042025153213 0.0042505843051 
0.0042988583921 0.0043475539021 0.004396882843 0.004447121463 0.0044986019432 0.004551540948 0.0046061486818 0.0046626881403 0.0047213297347 
0.0047822390715 0.0048455110293 0.0049111974106 0.0049792980086 0.0050497529262 0.0051225194883 0.0051973480328 0.0052743307877 0.0053532445 
0.0038665333998 0.00391421606 0.0039618069 0.0040093539765 0.0040567628463 0.0041040441867 0.0041512233557 0.0041984887202 0.0042459610328 
0.0042938711533 0.0043424235333 0.0043918950686 0.0044425549944 0.0044947283167 0.0045486076956 0.0046043289858 0.0046621119402 0.0047221096223 
0.0047844078284 0.0048490531556 0.0049160450687 0.0049853248044 0.0050568509388 0.0051303740118 0.0052059911734 0.0052834242086 0.0038139779775 
0.0038608290296 0.0039075818213 0.0039542771508 0.0040008356909 0.0040472732703 0.0040936198559 0.0041400456258 0.004186683557 0.004233763007 
0.0042814866327 0.004330123798 0.0043799341074 0.0044311761051 0.0044841543179 0.0045389811082 0.0045957621087 0.0046546957961 0.0047158663391 
0.0047793176384 0.0048450484332 0.004913000768 0.0049831398778 0.0050553324119 0.0051293253281 0.0052051993107 0.0037572787476 0.0038032568152 
0.0038491286044 0.0038949529263 0.0039406438767 0.0039862247985 0.0040317577349 0.0040773128298 0.004123130137 0.0041693924922 0.0042162990576 
0.0042640904897 0.0043130219742 0.0043633395768 0.0044152753629 0.0044690464789 0.0045247893199 0.0045825373173 0.0046424567191 0.0047045775384 
0.0047689077403 0.0048353965212 0.0049040034505 0.0049746123951 0.0050469700628 0.0051211591077 0.0036984313487 0.0037435059062 0.0037885401593 
0.0038334202375 0.0038782518995 0.0039229936964 0.0039677181686 0.0040125272044 0.0040575549037 0.0041030417385 0.004149167712 0.0041961570325 
0.0042442338452 0.0042936310991 0.0043445730705 0.004397202289 0.0044518357512 0.0045083184455 0.0045668792783 0.0046275641527 0.0046903818778 
0.0047552884677 0.004822250032 0.0048911564286 0.0049618848906 0.0050341535067 0.0036393646772 0.0036835104307 0.0037276330561 0.0037716405849 
0.0038156309479 0.0038595750551 0.0039035431366 0.0039476447341 0.0039919924707 0.0040368163601 0.0040822627482 0.0041285352327 0.0041758369294 
0.0042243692535 0.0042743467407 0.0043258957897 0.0043792189685 0.004434521776 0.0044916769086 0.0045508577592 0.0046120909525 0.0046753262422 
0.004740547921 0.0048076539805 0.0048765302427 0.004946904036 0.0035817388719 0.0036249533006 0.0036681814045 0.0037113344133 0.0037545202637 
0.0037977137367 0.003840999232 0.0038844714797 0.0039282880503 0.0039725032189 0.0040173874292 0.0040630618709 0.0041096956343 0.0041574662528 
0.0042065636559 0.0042571030419 0.0043092781935 0.0043632533136 0.0044190440507 0.0044766960156 0.0045362885615 0.0045977954045 0.0046612106733 
0.0047264443377 0.0047933927516 0.0048619183388 0.0035270902534 0.003569231538 0.003611574723 0.0036539456595 0.0036963154616 0.0037388284283 
0.0037815050714 0.0038244353847 0.003867768016 0.0039115905808 0.0039559856321 0.0040011896042 0.0040472844886 0.0040944176866 0.0041427548905 
0.0041923896067 0.0042434854692 0.0042961926593 0.0043506470093 0.0044068351394 0.0044647929002 0.0045245567283 0.0045861346137 0.004649454049 
0.0047144240002 0.0047809250912 0.0034762044864 0.0035174570324 0.0035589042469 0.0036004812343 0.0036421349734 0.0036840212433 0.0037261554461 
0.003768642166 0.0038115888533 0.0038550656965 0.0038991839859 0.0039439860794 0.0039896741272 0.0040363089181 0.0040840245667 0.0041328897298 
0.0041830505367 0.0042346506875 0.0042877493759 0.0043425741392 0.0043989449633 0.0044569909232 0.004516738207 0.0045781356468 0.0046411100344 
0.0047055621514 0.0034300444537 0.0034704945896 0.0035110029338 0.003551828145 0.0035928047468 0.0036341211696 0.0036757856219 0.0037178932873 
0.0037605359571 0.0038037566095 0.0038476483075 0.0038922641059 0.0039376044333 0.0039838734659 0.0040310784335 0.0040793488906 0.0041287201293 
0.004179352197 0.0042313019919 0.004284678832 0.0043396709449 0.0043960693016 0.0044540378204 0.0045135440153 0.0045745431733 0.0046369487902 
0.0033891967485 0.0034287660839 0.003468597999 0.0035085741134 0.0035489849668 0.0035897260469 0.0036309773215 0.0036727624767 0.0037151649531 
0.0037582050499 0.0038019381475 0.0038464023788 0.0038915590153 0.0039375757044 0.0039844301243 0.0040322119861 0.0040809517837 0.0041307555596 
0.0041817310149 0.0042339239719 0.0042874292374 0.0043424098254 0.0043986899222 0.0044563811223 0.00451545606 0.0045758576438 0.0033539593707 
0.0033927780103 0.0034318383638 0.0034711604014 0.0035109732302 0.0035512399419 0.0035921274828 0.0036336414658 0.0036758479633 0.0037187527649 
0.0037623860496 0.0038067533887 0.003851866527 0.0038976647517 0.0039442786355 0.0039917208861 0.0040399677111 0.0040891228793 0.0041392717889 
0.0041904390449 0.0042427378365 0.0042962101213 0.0043510547892 0.0044070422324 0.0044642900359 0.0045227628494 0.0033247570148 0.0033626728601 
0.0034010093376 0.0034398964913 0.0034790930243 0.003518914888 0.0035594771182 0.0036007623013 0.0036428072889 0.0036856087431 0.0037291750764 
0.0037734901612 0.0038185374222 0.0038643002736 0.0039106980549 0.0039578938265 0.0040057846283 0.0040544406428 0.0041039255764 0.0041542609761 
0.0042055329162 0.0042577891525 0.0043111189212 0.0043656672607 0.0044212284781 0.0044779001548 0.0033016313828 0.0033387564041 0.0033764092136 
0.0034146212466 0.0034534404499 0.0034929447514 0.0035331416939 0.0035742122786 0.0036161163304 0.0036588299092 0.003702343129 0.0037466212248 
0.0037916297948 0.0038373239955 0.0038836925913 0.0039306586252 0.0039782877682 0.0040265630421 0.0040755119328 0.0041251979055 0.0041756285754 
0.0042268690683 0.0042790047374 0.0043321028353 0.0043862335078 0.004441259048 0.003284495945 0.0033208698875 0.0033579110382 0.0033955966746 
0.003433992042 0.0034730466259 0.0035130892228 0.003553958103 0.003595731849 0.0036383575848 0.0036818138374 0.0037260513954 0.00377102158 
0.0038166649765 0.003862935928 0.003909846773 0.0039572194848 0.004005214042 0.0040537744768 0.0041029402243 0.0041527038388 0.0042031180216 
0.0042542644561 0.0043061711795 0.0043589119293 0.0044125791714 0.0032730484955 0.0033088704546 0.0033453769683 0.0033825325937 0.0034205432763 
0.0034594037122 0.003499071902 0.0035397973138 0.0035814350347 0.003623963262 0.0036673384932 0.0037115136183 0.0037564243432 0.0038020029376 
0.0038481958036 0.0038949513467 0.0039422740582 0.0039899817492 0.0040382447661 0.004087008953 0.0041362571695 0.0041860169952 0.0042363617217 
0.0042873197411 0.0043389416267 0.0043912950578 0.003266952937 0.0033022337268 0.0033382802359 0.0033751009097 0.0034127296492 0.0034513179468 
0.003490773699 0.0035312402619 0.0035727371099 0.0036152225823 0.0036584991029 0.0037025752967 0.003747388173 0.0037928641182 0.0038389448769 
0.0038855740833 0.0039327424222 0.0039802589591 0.0040282763975 0.0040767093523 0.0041255763891 0.0041748374454 0.0042245635044 0.0042747787939 
0.004325528186 0.00437686093 0.0032655155513 0.0033004009384 0.0033360772623 0.0033725810271 0.0034099949157 0.0034483504848 0.0034876496115 
0.0035278373697 0.0035691752245 0.003611428062 0.0036545495646 0.0036985537882 0.0037432157148 0.003788533484 0.0038344510815 0.0038809077812 
0.0039278953166 0.0039752797853 0.0040230050932 0.0040711749542 0.0041197271964 0.0041686072821 0.00421787034 0.0042675271331 0.0043176133751 
0.0043681747403 0.0032678364105 0.0033024180193 0.003337825032 0.0033740939166 0.0034112871056 0.0034494736683 0.0034886446241 0.0035288246063 
0.0035697531137 0.0036118091361 0.0036547009768 0.0036984105734 0.0037428423464 0.0037880053134 0.0038336929201 0.0038799192072 0.0039266661372 