# vtk DataFile Version 5.1
vtk output
ASCII
DATASET STRUCTURED_POINTS
DIMENSIONS 26 26 26
SPACING 0.08 0.08 0.08
ORIGIN -1 -1 0.5
POINT_DATA 17576
FIELD FieldData 1
potential 1 17576 double
0.0087529566483 0.0088308890265 0.0089043137054 0.0089734786579 0.009038894303 0.0091014249485 0.0091622178482 0.0092226157497 0.0092839742527 
0.009347428423 0.0094137212478 0.0094831310534 0.0095555071648 0.0096304127151 0.0097072414743 0.0097853262258 0.0098640176766 0.0099426987564 
0.010020786122 0.010097734601 0.010173011903 0.010246098209 0.01031650361 0.010383762233 0.010447414818 0.010507063927 0.0088647996793 
0.0089417103279 0.0090132376551 0.0090796675734 0.0091416835594 0.0092004103393 0.0092573430136 0.0093142897146 0.0093730815864 0.0094352416421 
0.0095017516187 0.0095729542381 0.0096486281938 0.0097281477672 0.0098106611423 0.0098952497947 0.0099809931418 0.010067024386 0.010152545556 
0.010236809761 0.010319120213 0.010398822444 0.010475321957 0.010548048218 0.010616495966 0.010680200415 0.0089536659847 0.0090292684982 
0.0090985052412 0.0091617181069 0.0092198195379 0.0092741809331 0.0093267425298 0.0093798150934 0.0094357239726 0.00949644449 0.0095631810309 
0.0096363175317 0.0097155114826 0.0097999120735 0.0098883968379 0.0099797708612 0.010072825397 0.010166458693 0.010259633504 0.010351415034 
0.010440940934 0.010527423614 0.010610174966 0.010688487181 0.010761789829 0.010829559613 0.0090317478092 0.0091058438671 0.0091725346911 
0.0092323028255 0.0092862097124 0.009335952473 0.0093839717832 0.0094330946911 0.0094861874651 0.0095456129003 0.009612815499 0.0096881821969 
0.0097712224084 0.0098608487824 0.0099556496554 0.010054123374 0.010154809092 0.010256329523 0.010357430405 0.010456979313 0.010553977143 
0.010647443948 0.010736578673 0.010820622547 0.010898897624 0.010970797951 0.0091128475486 0.00918538231 0.0092494894744 0.0093057833677 
0.0093555314856 0.0094008420872 0.0094445646745 0.0094901250506 0.0095408696985 0.0095995136618 0.009667663965 0.0097456931265 0.0098329789959 
0.0099281974769 0.01002965684 0.010135574373 0.010244212344 0.010353931962 0.010463287343 0.010570888094 0.010675570366 0.010776264903 
0.010872017476 0.010961969493 0.011045352884 0.011121485842 0.0092100832158 0.0092812222718 0.0093429363105 0.0093959990999 0.0094419942675 
0.0094834055921 0.0095235953768 0.0095664412747 0.0096157068982 0.0096743882314 0.0097441776265 0.0098254345389 0.0099173836842 0.010018536033 
0.010126960396 0.010240606906 0.010357508419 0.010475720586 0.010593563506 0.010709505871 0.010822179706 0.010930363238 0.011032973435 
0.011129037119 0.011217693763 0.011298203064 0.0093344554446 0.0094044328125 0.0094641364962 0.009514525957 0.0095575181813 0.0095959712633 
0.0096337423708 0.0096751194894 0.0097241628999 0.0097839639627 0.0098562379015 0.0099413318038 0.010038381403 0.010145731851 0.010261358629 
0.010382921677 0.01050821753 0.010635134734 0.010761737073 0.010886282707 0.011007215301 0.011123151208 0.011232863361 0.011335286683 
0.011429398751 0.011514395923 0.0094939367758 0.0095632668476 0.0096215730045 0.009670076157 0.0097110200669 0.009747766615 0.0097845926395 
0.0098260215714 0.0098762815885 0.0099384605978 0.010014226486 0.010103834734 0.010206396128 0.010320182812 0.010443024506 0.01057254981 
0.010706326406 0.010842044871 0.010977552682 0.011110887078 0.011240298584 0.011364218565 0.01148129613 0.011590242128 0.011690023226 
0.011779632038 0.0096938518462 0.0097631583953 0.0098208661036 0.0098684838526 0.009908662467 0.0099451782432 0.0099826342377 0.01002579848 
0.010078884577 0.010144792185 0.010225126051 0.010319965111 0.010428425851 0.010548792684 0.010678907557 0.01081629957 0.010958470779 
0.011102931217 0.011247341998 0.011389540742 0.011527558751 0.011659666187 0.011784244031 0.011899958055 0.012005533706 0.01209994656 
0.0099373233513 0.010007391605 0.01006545313 0.010113363375 0.010154189104 0.010192104661 0.010231972166 0.010278611736 0.010336066662 
0.010407118536 0.010493049771 0.010593895889 0.010708731531 0.010835894848 0.01097324484 0.011118344289 0.01126867198 0.011421664716 
0.011574825735 0.011725807639 0.011872468245 0.0120127746 0.012145024481 0.012267597888 0.012379157485 0.012478484871 0.010225938205 
0.010297670154 0.010357177108 0.010406689979 0.010449696193 0.010490719551 0.010534769514 0.010586649876 0.010650067943 0.010727520478 
0.010820103428 0.010927747781 0.011049500009 0.011183683769 0.011328268294 0.011480919521 0.011639112587 0.011800299444 0.011961904725 
0.012121465525 0.01227656 0.012425056068 0.012564945233 0.012694477074 0.012812089177 0.012916423436 0.01056021637 0.010634626533 
0.01069677669 0.010749306423 0.01079609682 0.010841995277 0.010891971083 0.010950642129 0.011021491273 0.011106638169 0.01120693989 
0.011322173977 0.011451338753 0.011592882689 0.011744787663 0.011904847821 0.012070654024 0.012239674262 0.012409331974 0.012577055361 
0.012740311382 0.012896743834 0.013044173238 0.013180602065 0.013304266442 0.013413623387 0.01093994877 0.011018152102 0.011084248164 
0.011141278255 0.011193536476 0.011245909178 0.011303459627 0.011370483749 0.011450095674 0.011544085925 0.011653049385 0.011776636271 
0.011913814441 0.01206304156 0.012222447889 0.012389936285 0.0125631465 0.012739691987 0.012916980179 0.013092381235 0.013263372969 
0.013427413446 0.013582102599 0.013725239382 0.013854828878 0.01396912052 0.011364426665 0.011447630499 0.011519097133 0.01158216444 
0.011641417074 0.011701938192 0.011768583491 0.011845316092 0.011934861262 0.01203868319 0.012157144367 0.012289782647 0.012435531286 
0.012592892872 0.012760072293 0.012935043439 0.01311563726 0.01329947727 0.013484015959 0.013666729193 0.013844969748 0.014016136186 
0.014177682997 0.014327183466 0.01446242502 0.014581373297 0.011832567648 0.011922063228 0.012000237323 0.012070891489 0.012138778093 
0.012208958578 0.012286058 0.01237366036 0.012474113987 0.012588579721 0.012717231432 0.012859509383 0.013014342069 0.013180268499 
0.013355563568 0.013538311681 0.013726341501 0.013917368258 0.0141089902 0.014298686573 0.014483724483 0.014661540167 0.014829433341 
0.014984831655 0.015125297296 0.015248643832 0.012342685873 0.012439842628 0.012526265785 0.012606046974 0.012684063292 0.012765271328 
0.012853977788 0.012953393209 0.013065508846 0.013191222174 0.013330575063 0.013482953141 0.013647296777 0.01382219085 0.014006007406 
0.014196812941 0.014392531498 0.014590890569 0.014789605614 0.014986111494 0.015177786406 0.015361851963 0.015535612431 0.015696362509 
0.015841490382 0.015968639328 0.012892699525 0.012998964653 0.013095146059 0.013185512481 0.013275036142 0.013368434423 0.013469673005 
0.013581579472 0.013705844723 0.013843182228 0.013993531263 0.01415629655 0.014330455129 0.014514696755 0.014707316167 0.014906573763 
0.015110395137 0.01531653929 0.0155226222 0.015726077349 0.015924235919 0.016114046335 0.016293298541 0.016458877021 0.016608078936 
0.016738350952 0.01347954525 0.013596397781 0.013703830624 0.013806251773 0.013908483818 0.014014996364 0.014129396461 0.01425417247 
0.014390750192 0.014539792386 0.014701199277 0.014874387261 0.015058546626 0.015252330327 0.015454208174 0.015662111087 0.015874561794 
0.016088996348 0.016302938435 0.01651375083 0.016718668432 0.01691484068 0.017099373221 0.01726940061 0.017422080269 0.017554768279 
0.014098987283 0.014227920077 0.014348003313 0.01446369418 0.014579591084 0.014699844085 0.014827694422 0.014965371811 0.01511414211 
0.015274369191 0.015446592039 0.015630155073 0.015824196187 0.016027672103 0.016239094805 0.016456704267 0.016678427721 0.016901884405 
0.017124466112 0.01734336432 0.017555639274 0.017758272958 0.017948229084 0.018122508093 0.018278409789 0.018412811656 0.014744637352 
0.014887072701 0.015021135289 0.015151190167 0.015281434895 0.015415438028 0.015556600516 0.015706792979 0.015867217687 0.016038569943 
0.016221071678 0.01641447227 0.016618225361 0.016831385561 0.017052630532 0.017280441511 0.017512196063 0.017745652185 0.017977940778 
0.018205993186 0.018426588161 0.018636445944 0.018832311775 0.019011003004 0.019169494993 0.019304960115 0.01540805785 0.015564978785 
0.015714009428 0.015858899966 0.016003599292 0.016151606529 0.016305571005 0.016467438973 0.016638788871 0.016819986177 0.017011864782 
0.0172143833 0.017427315443 0.017650004927 0.017881329312 0.01811953779 0.018362375104 0.018607080368 0.01885049081 0.019089152468 
0.019319413594 0.019537682298 0.019740338942 0.019924074711 0.020085423539 0.020221591003 0.016076764335 0.016249621476 0.016414200266 
0.016574410328 0.016733366268 0.016894399794 0.01706002263 0.017232208343 0.017412439793 0.017601964408 0.017801645641 0.018012116426 
0.018233507351 0.018465523417 0.018707190394 0.018956807591 0.019212080824 0.019469615923 0.019726122605 0.019977325541 0.020219174232 
0.020447503938 0.020658267028 0.02084764525 0.021012228463 0.02114892387 0.016736069024 0.01692501484 0.017105230033 0.017279900978 
0.017452176096 0.017624907937 0.017800482467 0.017981004136 0.018168362535 0.018364150843 0.018569922215 0.018786868738 0.019015765144 
0.019256762811 0.019509287771 0.019771380101 0.020040505677 0.020313093912 0.020584873841 0.020851127357 0.021106996683 0.02134760344 
0.021568251854 0.021764741575 0.021933266905 0.02207055862 0.017367568713 0.017572383789 0.017767562129 0.017955818759 0.018139815257 
0.018322229413 0.018505470369 0.018691898988 0.018883765646 0.019083390131 0.019293036767 0.019514845823 0.019750175153 0.019999884559 
0.020263629292 0.02053972076 0.020825144069 0.021115601967 0.021405955574 0.021690515827 0.021963427637 0.022218962648 0.022451780911 
0.022657045229 0.022830572151 0.022968807624 0.017953882768 0.018173645519 0.018382437992 0.018582429824 0.018775998525 0.018965572169 
0.019153706596 0.019343022447 0.019536519527 0.019737115746 0.019948143595 0.020172726496 0.020413445935 0.020671898154 0.020948185077 
0.021240582218 0.021545494304 0.021857704119 0.022170830238 0.022477910512 0.022771830962 0.023045816672 0.023293643694 0.023510003039 
0.023689770678 0.02382928802 0.018481152704 0.018714277035 0.018934706867 0.019144134952 0.019344572563 0.019538431001 0.019728272459 
0.019917241021 0.020108954371 0.020307527231 0.020517445083 0.020743187174 0.020988687841 0.021256628934 0.021547654694 0.021859905857 
0.022188947241 0.022528379956 0.022869783386 0.023204704872 0.023524539504 0.023821227872 0.024087494853 0.024317042818 0.024504677213 
0.024646176567 0.0096858471026 0.0097738044752 0.0098579781567 0.0099386205001 0.010016175594 0.0100913457 0.010165009375 0.010238153579 
0.010311751042 0.010386611578 0.010463281234 0.010541991375 0.010622667563 0.010705011876 0.010788571583 0.010872811327 0.010957180021 
0.011041128846 0.011124123144 0.011205657007 0.011285234669 0.011362373195 0.011436620553 0.011507549351 0.011574738782 0.011637829274 
0.009845759943 0.0099340157034 0.010017848149 0.010097559845 0.010173756954 0.010247352576 0.010319473782 0.010391427907 0.010464500341 
0.01053975208 0.010617893169 0.010699214752 0.010783616815 0.010870682527 0.010959804481 0.011050258956 0.011141294043 0.011232166133 
0.011322168235 0.011410622779 0.011496889145 0.011580361505 0.011660487995 0.011736745188 0.011808663255 0.011875819036 0.0099921517054 
0.010080582622 0.01016387697 0.010242411923 0.010317006969 0.010388762652 0.010459132374 0.010529751886 0.010602210712 0.01067786883 
0.010757584015 0.010841696889 0.010930052317 0.011022103735 0.011117053883 0.011213997348 0.011311958488 0.011410012259 0.011507252295 
0.011602841049 0.011695990785 0.011785973963 0.011872130904 0.011953868206 0.012030590829 0.012101841217 0.010133666008 0.010222216336 
0.010304898589 0.01038222413 0.010455149376 0.010525025556 0.010593665705 0.010663031137 0.010735051513 0.010811322494 0.010892876101 
0.010980075222 0.011072691094 0.011170044986 0.011271145061 0.011374867658 0.011480055151 0.011585560715 0.011690300042 0.011793265125 
0.011893549409 0.011990244384 0.012082607283 0.012169930179 0.012251582567 0.012327005488 0.010280157308 0.010368910109 0.010451067312 
0.010527294452 0.010598712229 0.010666988716 0.010734189817 0.010802681126 0.010874688123 0.010952032577 0.01103585408 0.011126551983 
0.011223812264 0.011326815613 0.011434394507 0.011545211842 0.011657923767 0.011771166257 0.011883709795 0.011994312629 0.012101923821 
0.01220555777 0.012304326365 0.012397427232 0.012484144187 0.012563847121 0.010441311092 0.010530525469 0.01061244866 0.010687894296 
0.010758240788 0.010825415104 0.010891830394 0.010960126433 0.011032803448 0.011111885587 0.011198589007 0.011293298627 0.01139562495 
0.011504644224 0.011619016295 0.01173723388 0.011857771536 0.011979029198 0.012099581525 0.012218082765 0.012333298818 0.01244410638 
0.012549498233 0.012648564155 0.01274050001 0.01282462556 0.010625788734 0.010715770972 0.010797894957 0.010873123072 0.010943093021 
0.011009957519 0.011076463409 0.011145516959 0.011219832654 0.011301512403 0.011391808105 0.011491119541 0.011598991911 0.011714366004 
0.011835856959 0.011961718834 0.012090252972 0.012219747583 0.012348573517 0.012475212185 0.012598271971 0.012716485673 0.012828716337 
0.012933971278 0.01303129276 0.013119918711 0.010840389834 0.010931700808 0.011014652409 0.011090412777 0.011160823447 0.011228398535 
0.011296148507 0.011367117726 0.01144417208 0.011529449764 0.011624207983 0.011728777338 0.011842680374 0.011964779066 0.012093548138 
0.012227234847 0.012363953346 0.012501847647 0.012639122842 0.012774088594 0.012905195423 0.013031020521 0.013150323978 0.013261903082 
0.013364799836 0.013458079743 0.011090156384 0.011183446713 0.01126800767 0.011345210461 0.011417167578 0.011486647781 0.011556861244 
0.011631045631 0.011712104017 0.011802074928 0.011902188448 0.012012750197 0.012133154433 0.012262281613 0.012398587125 0.012540206749 
0.012685198159 0.012831572277 0.012977384468 0.01312079811 0.013260093321 0.013393725564 0.013520215648 0.013638338266 0.013746911229 
0.013844990845 0.011378461732 0.01147452392 0.011561603728 0.011641307837 0.011716010473 0.011788722491 0.011862816049 0.011941595424 
0.012027884227 0.012123730153 0.012230175116 0.012347396112 0.012474849525 0.01261138043 0.012755404683 0.012905047579 0.013058325134 
0.013213172652 0.013367530924 0.013519422646 0.013667005428 0.013808481459 0.013942329762 0.014067076607 0.014181484898 0.014284471358 
0.011707374043 0.011807102063 0.01189772823 0.011981100854 0.012059850317 0.012137195977 0.012216603164 0.012301417888 0.012394263654 
0.012497044734 0.01261071986 0.012735429694 0.012870492952 0.013014788506 0.013166737865 0.01332450574 0.013486057048 0.013649316022 
0.013812152263 0.0139725026 0.014128293373 0.014277683995 0.014418893054 0.014550358974 0.01467068923 0.01477864406 0.012077935634 
0.01218232048 0.012277606301 0.01236590104 0.012450060418 0.012533512681 0.012619674821 0.012711803927 0.012812465732 0.012923330716 
0.013045216443 0.01317811789 0.013321387259 0.013473885054 0.01363401697 0.013800002706 0.013969856573 0.01414146954 0.014312684109 
0.014481334052 0.014645264859 0.014802458543 0.014951020641 0.015089215447 0.015215466191 0.015328413384 0.012490394087 0.012600512569 
0.012701657743 0.012796179381 0.012887191157 0.012978079099 0.013072389612 0.013173194938 0.013282853686 0.013402858299 0.013533848895 
0.013675725056 0.013827798626 0.013988899284 0.014157526193 0.014331942277 0.014510138481 0.014690091275 0.014869578134 0.015046350741 
0.015218269302 0.015383155258 0.015538968016 0.015683792818 0.015815906109 0.015933789808 0.01294438102 0.01306137552 0.01316968666 
0.013271783131 0.013370939538 0.013470698222 0.013574476179 0.013685171352 0.013804920513 0.013935018909 0.014075946798 0.014227514558 
0.014388987362 0.014559208815 0.014736703922 0.014919750147 0.01510647266 0.0152947911 0.01548246951 0.015667322353 0.015847059824 
0.016019455007 0.016182335414 0.016333630852 0.016471457405 0.016594079034 0.013439022565 0.013564100602 0.013680766158 0.013791791821 
0.013900512851 0.014010453969 0.014124918605 0.014246593535 0.014377396382 0.014518427973 0.014670034382 0.014831940375 0.015003391853 
0.015183237597 0.015370031359 0.015562120472 0.015757576035 0.015954356145 0.016150342118 0.016343217625 0.016530696941 0.016710395139 
0.016880136456 0.017037687534 0.017180996605 0.017308238846 0.013972706076 0.014107128672 0.014233526125 0.01435481767 0.014474399425 
0.014595743037 0.01472197283 0.014855572017 0.014998241384 0.015150903311 0.015313806687 0.015486620569 0.015668581175 0.015858550907 
0.016055148909 0.016256665658 0.016461230959 0.016666775323 0.016871224918 0.017072252297 0.017267508468 0.017454530374 0.017630984455 
0.017794556705 0.017943051582 0.018074530446 0.014543341641 0.014688407013 0.014825859032 0.014958675272 0.015090330599 0.015224146995 
0.015363065787 0.015509346139 0.015664506408 0.015829342203 0.016004014296 0.016188195145 0.016381127371 0.016581743228 0.016788551455 
0.017000003515 0.017214203706 0.017429086442 0.017642449667 0.017851931513 0.018055098615 0.018249463452 0.018432288301 0.018601690835 
0.018755104739 0.0188904269 0.015147826133 0.015304833824 0.015454626909 0.015600254191 0.015745063763 0.015892255579 0.016044575142 
0.016204081828 0.016372120293 0.016549462994 0.016736224572 0.016932058084 0.017136376014 0.017348033273 0.017565675474 0.017787398239 
0.018011883265 0.018236712968 0.018459593397 0.018678069717 0.018889597827 0.019091574255 0.019281404807 0.019456575528 0.019614650545 
0.019753440351 0.01578201787 0.015952249864 0.016115575855 0.016275070412 0.016433933561 0.016595192359 0.016761382677 0.016934421724 
0.01711554007 0.017305228846 0.017504198164 0.017711980695 0.017927882579 0.018150994887 0.018380004712 0.018613243355 0.01884879035 
0.019084417448 0.019317687032 0.01954598223 0.019766579317 0.019976705884 0.020173608411 0.020354616414 0.020517412703 0.020659316642 
0.016440016305 0.016624669715 0.016802665728 0.016977022342 0.017150651817 0.017326163749 0.017506389084 0.017692967329 0.017887088825 
0.018089541154 0.01830066752 0.018520330199 0.018748075347 0.018983038046 0.019223977234 0.019469470964 0.019717021735 0.019964542584 
0.020209351363 0.02044859415 0.020679288623 0.020898417028 0.021103012719 0.021290214711 0.021457363681 0.02160204927 0.017114666674 
0.017314522819 0.017508045264 0.017697729348 0.017886395581 0.018076732461 0.018270933859 0.018470797977 0.018677767866 0.018892351414 
0.019115379699 0.019346824197 0.019586451157 0.019833594772 0.020087144951 0.020345406377 0.020606235191 0.020867041081 0.021124882342 
0.021376565212 0.021618727133 0.02184807777 0.022061316006 0.022255336693 0.022427427178 0.022574803463 0.017796064883 0.018012459981 
0.018222079297 0.018427731266 0.018631566372 0.018836253194 0.01904392707 0.019256391774 0.019475051036 0.019701094965 0.019935300919 
0.02017817895 0.020429717595 0.020689490684 0.020956444151 0.021228880329 0.02150460772 0.021780447549 0.022053237515 0.022319414417 
0.022574946716 0.022816153863 0.023039363428 0.023241125897 0.023418403739 0.02356850094 0.018473777019 0.018706929706 0.018932940213 
0.019154075101 0.019372704801 0.019591146117 0.019811457744 0.020035551978 0.020265163393 0.020501702036 0.020746475885 0.021000373917 
0.02126384712 0.021536762459 0.02181815575 0.022106423491 0.022398766588 0.022691985937 0.0229821907 0.023265116194 0.023536386262 
0.023791599719 0.024026515854 0.024237363239 0.024420745682 0.024573796025 0.019135252884 0.019385279479 0.019627495085 0.019863906365 
0.020096577399 0.020327755565 0.020559556503 0.020794100323 0.021033394062 0.021279400024 0.021533936471 0.021798596258 0.022074156818 
0.022360941826 0.022658224093 0.022964166203 0.023275871644 0.023589406482 0.023900169005 0.024203099771 0.024492991756 0.024764736703 
0.025013559789 0.025235125556 0.025425714575 0.025582194542 0.019769795006 0.020036384705 0.020294303111 0.020545125821 0.020790832594 
0.02103352413 0.021275448575 0.021519015028 0.021766781553 0.022021137644 0.022284704997 0.022559732511 0.022847863252 0.023149824312 
0.023465089741 0.023791682489 0.02412618026 0.024463903216 0.024799259789 0.02512617494 0.025438415076 0.025730008243 0.025995432025 
0.0262299787 0.026429043203 0.026589421356 0.02036961849 0.020652251576 0.020924975736 0.021189203304 0.021446686494 0.021699524428 
0.021950263569 0.02220146972 0.022456314713 0.022718139379 0.022990369845 0.023276172836 0.023578044662 0.023897329399 0.024233708716 
0.024584956791 0.024946934467 0.025314086582 0.025679161546 0.026034961004 0.026374070087 0.026689460303 0.026974717938 0.027224251125 
0.02743344677 0.027598577173 0.010642851436 0.010741032841 0.010836020652 0.010928026093 0.011017417202 0.011104746176 0.011190673941 
0.011275921677 0.011361188054 0.011447050041 0.011533902273 0.011621921047 0.011711060258 0.011801103731 0.01189170119 0.011982416343 
0.012072781037 0.012162311319 0.012250523167 0.012336952527 0.012421141282 0.012502642714 0.012581040674 0.012655943492 0.012726965628 
0.01279378489 0.010845193781 0.010944884943 0.011040906079 0.011133532092 0.011223267093 0.01131082701 0.011397048298 0.011482877958 
0.011569227603 0.011656841828 0.011746228896 0.011837612957 0.011930942638 0.012025922873 0.012122101967 0.012218905045 0.012315713402 
0.012411891628 0.012506818965 0.012599887194 0.012690513388 0.012778141801 0.012862264834 0.012942403628 0.013018125466 0.013089046135 
0.011041019488 0.01114222323 0.011239238451 0.011332411379 0.011422433303 0.011510154676 0.011596652711 0.011683094524 0.011770584158 
0.011860074928 0.011952172677 0.012047145103 0.012144915033 0.012245108647 0.012347143347 0.012450311689 0.012553832283 0.012656928221 
0.012758814308 0.012858748989 0.012956021732 0.013049968814 0.01313998527 0.013225526462 0.013306042276 0.013381117774 0.011236673849 
0.01133945274 0.01143751922 0.011531347679 0.011621716376 0.011709718039 0.011796640953 0.01188387641 0.011972756672 0.012064381027 
0.012159484412 0.012258356659 0.012360880512 0.01246660699 0.012574811213 0.012684649964 0.012795179544 0.012905465863 0.013014575476 
0.013121622903 0.013225798306 0.013326271038 0.013422363949 0.013513421903 0.013598870509 0.013678195369 0.011439426523 0.011543962287 
0.011643269854 0.011737963685 0.011828964887 0.011917555365 0.012005229372 0.012093650282 0.01218433289 0.012278538095 0.012377062847 
0.012480241606 0.012587906729 0.012699516862 0.012814234292 0.012931046638 0.013048895862 0.01316665855 0.013283296601 0.013397715362 
0.0135089838 0.013616208269 0.013718576463 0.013815350567 0.013905872203 0.013989565669 0.011656590853 0.011763218419 0.011864126367 
0.011960054083 0.012052128616 0.012141809509 0.012230833696 0.012321034474 0.012414117621 0.01251148162 0.012613991031 0.012721970518 
0.012835204757 0.012953088206 0.013074657082 0.013198779941 0.013324263999 0.013449791607 0.013574164607 0.013696216075 0.013814851563 
0.01392905765 0.014037915715 0.014140590011 0.01423634258 0.01432455436 0.011895021259 0.012004093751 0.012107077282 0.012204840832 
0.012298612487 0.012390087658 0.012481206073 0.012573980082 0.012670271961 0.012771532778 0.01287866153 0.012992009201 0.01311131347 
0.013235859056 0.013364664208 0.013496397513 0.013629733301 0.0137632808 0.013895674409 0.014025605725 0.014151848451 0.014273265531 
0.014388824694 0.014497591831 0.014598768045 0.014691579959 0.012160392907 0.012272512918 0.012378191479 0.012478439075 0.012574703619 
0.012668882582 0.012763027226 0.012859323968 0.012959729025 0.013065735298 0.013178264808 0.013297598478 0.013423509379 0.013555159318 
0.013691457608 0.013831079887 0.013972541568 0.014114340058 0.014254978432 0.014393009464 0.014527078505 0.014655917508 0.014778410854 
0.014893458781 0.01500019237 0.015097759459 0.012457225509 0.012573049436 0.012682188992 0.012785793874 0.01288549967 0.012983334472 
0.013081571572 0.013182493012 0.013288035045 0.013399723928 0.013518455264 0.013644521958 0.013777522039 0.013916676677 0.014060848466 
0.014208606004 0.014358411952 0.014508653202 0.014657711657 0.014804026128 0.01494610361 0.015082583604 0.015212136698 0.015333661362 
0.015446086117 0.015548552648 0.012788799452 0.012909116038 0.013022584597 0.013130515612 0.013234715176 0.01333736746 0.013440854556 
0.013547488803 0.013659257988 0.013777691936 0.013903482883 0.014036915492 0.014177616035 0.014324752759 0.014477126819 0.0146332706 
0.014791602111 0.014950435589 0.015108055974 0.015262788497 0.015413049525 0.015557258389 0.015694074239 0.015822174694 0.015940452241 
0.016047939823 0.013157344362 0.013283030836 0.013401796739 0.013515115126 0.013624951313 0.013733623554 0.013843576532 0.013957184124 
0.014076301304 0.014202349124 0.014336090261 0.0144777038 0.014626710263 0.014782288896 0.014943214026 0.015108024461 0.015275062008 
0.0154426173 0.015608907914 0.015772188951 0.015930672377 0.016082769885 0.016226912786 0.016361724143 0.016485970686 0.016598554304 
0.013564181762 0.013696196809 0.013821305853 0.013941145778 0.014057820392 0.014173795695 0.014291459867 0.014413144671 0.014540726695 
0.014675470542 0.014818057832 0.014968551504 0.015126501349 0.015291052172 0.015460920826 0.015634663816 0.015810636082 0.015987067359 
0.016162138501 0.016333979261 0.016500806782 0.016660810438 0.016812372706 0.016953976888 0.017084241039 0.017201979378 0.014009857518 
0.01414923695 0.014281807427 0.014409352185 0.014534150712 0.014658585545 0.014785190054 0.01491617681 0.015053302578 0.015197738897 
0.015350045637 0.015510214937 0.015677756099 0.015851761381 0.0160310076 0.016214054238 0.016399192096 0.016584702339 0.016768651106 
0.016949161281 0.017124335567 0.017292315825 0.017451339582 0.017599749775 0.017736057036 0.017858955111 0.014494276145 0.014642111243 
0.014783359438 0.014919834739 0.015053903099 0.015188085238 0.015324823012 0.015466234514 0.015613948665 0.015769013234 0.015931883813 
0.01610248296 0.01628027243 0.016464332669 0.016653441131 0.016846132708 0.017040792965 0.017235608104 0.017428619116 0.017617915424 
0.017801534555 0.017977519602 0.018144011109 0.018299223312 0.018441551124 0.018569565642 0.015016795557 0.015174231594 0.015325252383 
0.015471886235 0.015616515443 0.015761641509 0.015909650296 0.016062537262 0.016221800885 0.016388369488 0.016562600781 0.016744347582 
0.016933046013 0.017127760277 0.017327272961 0.017530151341 0.017734693792 0.017939090075 0.018141460493 0.018339754223 0.018531956807 
0.018715980449 0.018889953396 0.019051953962 0.019200236526 0.019333269999 0.015575998203 0.015744219794 0.015906287947 0.016064306291 
0.01622068475 0.016377898359 0.016538227565 0.016703552983 0.016875240287 0.017054097492 0.017240414328 0.017433992892 0.017634247821 
0.017840236892 0.018050775435 0.018264352849 0.018479292907 0.018693729483 0.018905800433 0.019113411211 0.019314467434 0.019506785438 
0.019688334092 0.019857118301 0.020011271652 0.020149182893 0.016169992382 0.016350210207 0.016524545486 0.016695106102 0.01686437337 
0.017034719524 0.017208318451 0.017386925538 0.017571787099 0.017763629885 0.0179626706 0.018168708467 0.018381145172 0.018599082296 
0.018821200347 0.019046118078 0.01927211529 0.019497303993 0.019719676017 0.019937081846 0.020147323536 0.02034817722 0.020537197631 
0.020712819901 0.020872817444 0.021015437242 0.016795951906 0.016989370544 0.017177161944 0.017361474352 0.017544680352 0.017729093439 
0.01791678002 0.018109368637 0.018307995113 0.01851338571 0.018725709778 0.018944728598 0.019169982409 0.019400448622 0.019634962158 
0.019871715308 0.020109558164 0.020346239052 0.020579646589 0.020807528791 0.021027568118 0.02123741473 0.021434757197 0.021617394124 
0.021783231514 0.02193043476 0.017450219884 0.017658027031 0.017860386309 0.018059468487 0.018257540679 0.018456819832 0.018659246924 
0.018866375238 0.019079300357 0.019298638094 0.019524413848 0.019757024757 0.019995574167 0.020239294007 0.02048693236 0.020736954054 
0.020987576114 0.021236728807 0.021482159542 0.021721455944 0.021952125824 0.022171652243 0.022377563159 0.022567497115 0.022739266373 
0.022891170662 0.018127778916 0.018351095488 0.018569209672 0.018784024672 0.01899774401 0.019212278418 0.019429900407 0.019651935498 
0.019879411649 0.020113065411 0.020353193564 0.020599777508 0.020852296527 0.021109959796 0.021371590806 0.021635849781 0.021900372562 
0.022163230185 0.022421935736 0.022673863782 0.022916281488 0.023146445218 0.023361681824 0.023559444527 0.023737410151 0.023893526125 
0.018822990867 0.01906256986 0.019297136599 0.019528368756 0.019758303299 0.019988986974 0.020222160338 0.020459334651 0.020701786194 
0.02094992221 0.021204538439 0.021465436527 0.021732443679 0.022004830935 0.022281489274 0.022560784308 0.022840687862 0.02311878228 
0.023392350701 0.023658464325 0.023914053501 0.024156138505 0.02438174111 0.024588090933 0.024772810831 0.024933484197 0.019528341122 
0.019785578448 0.020037398135 0.020285875164 0.020532474182 0.020779305541 0.021028099199 0.021280378758 0.021537345053 0.021800017808 
0.022069041282 0.022344664893 0.022626815345 0.022914910625 0.023207832284 0.023503938854 0.02380103359 0.024096254309 0.024386675 
0.024669068991 0.024939748033 0.025195404019 0.02543274784 0.025648687269 0.025840560057 0.026006023614 0.020236755011 0.020512070688 
0.0207817316 0.021047381217 0.021310806821 0.021573839449 0.021838176288 0.022105422177 0.022377051738 0.022654228205 0.022937904544 
0.023228721319 0.02352681318 0.023831788369 0.024142528034 0.024457396346 0.024773713679 0.025088528025 0.025398304567 0.02569920333 
0.025987304415 0.02625866574 0.026509490365 0.026736427255 0.026936477188 0.027107148167 0.020939843417 0.021233740868 0.021521552557 
0.021804784762 0.022085046775 0.022364106448 0.022643788772 0.022925860814 0.023211981161 0.02350371345 0.023802417138 0.024109081418 
0.024424294676 0.024747651325 0.025078243972 0.025414151891 0.025752612791 0.026090026953 0.02642227309 0.026744857887 0.027053167755 