# vtk DataFile Version 5.1
vtk output
ASCII
DATASET STRUCTURED_POINTS
DIMENSIONS 26 26 26
SPACING 0.08 0.08 0.08
ORIGIN -1 -1 0.5
POINT_DATA 17576
FIELD FieldData 1
potential 1 17576 double
0.0013424023876 0.001330933266 0.0013198857245 0.0013092505179 0.0012990471444 0.0012891700129 0.0012798236327 0.0012709158241 0.001262378889 
0.001254157152 0.0012461251944 0.0012383903318 0.0012307276012 0.0012231270574 0.0012155259096 0.0012078755403 0.0012001358883 0.0011922728818 
0.0011842700537 0.0011761201414 0.0011678271507 0.001159402711 0.0011508690763 0.0011422687421 0.0011335965991 0.0011249032397 0.0013386383142 
0.0013271938822 0.0013161187257 0.0013055121067 0.0012953591826 0.0012856700136 0.0012763071362 0.0012674564554 0.0012590019984 0.0012508512491 
0.0012429307432 0.0012351050679 0.00122747866 0.0012198380127 0.0012121711416 0.0012044377939 0.0011965997871 0.0011886359982 0.0011805327163 
0.0011722871286 0.0011639049204 0.001155400176 0.0011467958335 0.00113811586 0.0011294081515 0.0011206710741 0.0013293629203 0.0013178572726 
0.001306823077 0.0012962641071 0.0012861881068 0.0012765904981 0.0012673319568 0.0012586189104 0.0012502435209 0.0012421897115 0.0012343481604 
0.001226578879 0.0012189840929 0.0012113501825 0.001203666489 0.0011959043692 0.0011880241127 0.0011800118317 0.0011718580825 0.0011635631724 
0.0011551355425 0.0011465908549 0.0011379524309 0.0011292445234 0.0011204979871 0.0011117636338 0.0013159438818 0.001304488397 0.0012935603535 
0.0012830524467 0.001273067862 0.0012635574792 0.0012544116098 0.0012458099956 0.0012375666642 0.0012295791846 0.0012218189268 0.0012141158885 
0.0012065263455 0.0011989732044 0.001191314776 0.0011835595452 0.0011756825313 0.0011676678008 0.0011595096211 0.0011512102905 0.0011427799457 
0.0011342343413 0.0011255975756 0.0011168962338 0.0011081598891 0.00109942284 0.0013003018325 0.0012890181284 0.0012780694142 0.0012676502333 
0.0012577593701 0.0012483606428 0.0012392961219 0.0012307802828 0.0012226131582 0.001214716843 0.00120701013 0.0011993868629 0.0011917726837 
0.0011842201659 0.001176642464 0.0011689200519 0.0011610804234 0.001153099962 0.0011449765348 0.0011367115526 0.0011283160024 0.0011198066428 
0.0011112068929 0.0011025437728 0.001093848545 0.0010851550069 0.0012841803882 0.001273001554 0.0012622409129 0.0012518119212 0.0012420096794 
0.0012326883792 0.0012237007664 0.0012152286363 0.001207075948 0.0011991892704 0.0011914822512 0.0011838885092 0.0011762524548 0.001168709912 
0.0011611700516 0.0011534879873 0.0011456956662 0.0011377742474 0.0011297116956 0.0011215111933 0.0011131830453 0.0011047423765 0.0010962120929 
0.0010876187482 0.0010789938051 0.0010703715069 0.001268867569 0.0012579942372 0.0012473256723 0.0012371197898 0.0012272674074 0.0012179978792 
0.0012091512508 0.0012005571495 0.0011923819734 0.001184439194 0.0011766554403 0.0011689983857 0.0011614036901 0.0011537442553 0.0011461583042 
0.0011385450343 0.0011307942494 0.0011229350165 0.0011149484758 0.0011068340099 0.001098597677 0.0010902524931 0.0010818192554 0.0010733236667 
0.0010647956568 0.0010562686755 0.0012558880456 0.001245121758 0.0012345458444 0.0012244146196 0.0012146004458 0.0012053506019 0.0011965020534 
0.0011878495803 0.0011795792371 0.0011715144336 0.0011636064131 0.0011558196136 0.0011480969627 0.0011403796044 0.0011327118901 0.0011250832417 
0.0011173519434 0.0011095403156 0.0011016309491 0.0010936093668 0.0010854794661 0.00107724855 0.0010689342782 0.0010605590714 0.0010521518114 
0.001043744033 0.0012457631161 0.0012348805295 0.001224618249 0.0012145509423 0.0012049014951 0.0011955063207 0.0011865832124 0.0011778240161 
0.0011694196951 0.0011611735585 0.0011530697797 0.0011450847135 0.0011371902143 0.0011293654378 0.0011215553343 0.001113785311 0.0011060761509 
0.0010982820499 0.0010904260779 0.0010824934247 0.0010744715109 0.0010663638539 0.0010581823145 0.0010499450721 0.0010416754804 0.0010334088441 
0.0012389884641 0.0012281747373 0.0012179981308 0.0012079818741 0.0011983412391 0.0011889047316 0.0011798851798 0.0011709765732 0.0011623641114 
0.0011538897429 0.0011455538479 0.0011373138067 0.0011291766438 0.0011211460491 0.0011131574812 0.0011052732152 0.0010974556047 0.0010896344302 
0.0010817993981 0.0010739291598 0.0010660025238 0.0010580149097 0.0010499702507 0.0010418798954 0.0010337637481 0.0010256506185 0.0012357506814 
0.0012250439812 0.0012147227818 0.001204966111 0.0011953125354 0.0011859385411 0.0011766594086 0.0011675694653 0.0011587276616 0.0011499895502 
0.0011413497037 0.0011328146073 0.0011244016487 0.0011161003089 0.0011078735166 0.001099805667 0.0010918208403 0.0010839276029 0.0010760632288 
0.001068213849 0.0010603571492 0.0010524719927 0.0010445567234 0.0010366124899 0.0010286550207 0.0010207044074 0.001236224551 0.0012256230992 
0.0012153679081 0.0012056348544 0.0011959450101 0.0011864769121 0.0011771350092 0.0011678585252 0.0011586459632 0.0011496176365 0.0011406657805 
0.0011318009338 0.0011230554777 0.0011144567497 0.0011059977245 0.0010976250459 0.0010894480336 0.0010813952713 0.0010734432779 0.0010655639548 
0.0010577318569 0.0010499169366 0.0010421093265 0.0010342995608 0.0010264947974 0.0010187072144 0.0012404649305 0.0012299614976 0.0012197617785 
0.0012100320939 0.0012002864864 0.001190698484 0.0011811795682 0.0011716724085 0.0011621871313 0.0011528530095 0.0011435733327 0.0011343682523 
0.0011252797475 0.001116329763 0.001107550473 0.0010988995415 0.001090467642 0.0010822083151 0.0010741441726 0.0010661350637 0.0010582693079 
0.0010504822301 0.0010427430267 0.0010350431889 0.001027374025 0.0010197387821 0.0012484793868 0.0012381028499 0.0012279002476 0.0012179320257 
0.0012083288865 0.0011986000801 0.0011889201742 0.0011792203566 0.0011693575963 0.0011597123547 0.0011500996874 0.0011405493194 0.0011311099238 
0.0011218107302 0.0011126921859 0.0011037582887 0.0010949823913 0.0010864823851 0.0010781715649 0.001070089284 0.0010621009742 0.0010542681204 
0.0010465520928 0.0010389189496 0.0010313543803 0.0010238535549 0.0012602393363 0.0012499292261 0.0012397393168 0.0012297301249 0.0012200261377 
0.0012101340855 0.0012002400527 0.0011902797057 0.0011801260412 0.001170165864 0.0011602220804 0.001150329632 0.0011405423836 0.0011308946855 
0.0011214324555 0.0011121651081 0.0011030737469 0.0010942722833 0.0010857112241 0.0010774342462 0.0010693229338 0.0010613723804 0.0010536107266 
0.0010459941771 0.0010384878953 0.0010310794911 0.0012756757065 0.0012654029184 0.0012552011006 0.001245121552 0.0012352879523 0.0012252116647 
0.001215085856 0.0012048929049 0.0011944980466 0.0011841392074 0.0011738719717 0.0011636482432 0.001153525107 0.0011435389672 0.0011337395254 
0.0011241402679 0.0011147279905 0.0011056219048 0.001096780631 0.001088204718 0.0010799394597 0.0010718344848 0.0010639763412 0.0010563114443 
0.0010487977202 0.0010414344696 0.0012946769096 0.0012844075685 0.0012742017791 0.0012639668952 0.001253752501 0.0012436908893 0.0012333165958 
0.001222849053 0.0012121617868 0.0012015837954 0.0011909200692 0.0011803818791 0.0011699419724 0.0011596381977 0.0011495217667 0.001139604298 
0.0011299282043 0.0011204675306 0.001111334341 0.0011024855631 0.0010939633194 0.0010856825242 0.0010776453522 0.0010698662401 0.0010622974372 
0.001054906906 0.0013170480514 0.0013067282833 0.0012964276353 0.001286049285 0.0012756432152 0.0012653462997 0.0012547100202 0.0012439623009 
0.0012329810891 0.0012221106274 0.0012111489177 0.0012003251204 0.0011895947297 0.0011790003385 0.0011685930453 0.0011583867236 0.0011484177872 
0.0011386671208 0.0011292470926 0.0011201184614 0.001111291035 0.0011028021098 0.0010945684481 0.0010865961939 0.0010788984335 0.0010714296729 
0.0013424743924 0.0013320415281 0.0013215854573 0.0013110138498 0.0013003747326 0.0012896003492 0.0012789038469 0.0012678738685 0.0012567600717 
0.0012454660451 0.0012343163691 0.0012231465738 0.0012121530596 0.0012013030286 0.0011906415546 0.0011801759249 0.0011699495703 0.001159934505 
0.0011502437443 0.0011408440173 0.0011317476412 0.0011229973037 0.0011145176094 0.0011063383491 0.0010984183468 0.0010908042901 0.0013704340488 
0.0013598101479 0.0013491321744 0.001338359487 0.0013274038236 0.0013163499858 0.0013053645053 0.0012940482996 0.0012826591611 0.0012711004535 
0.0012597054645 0.0012483031035 0.0012370925603 0.001226030496 0.0012151573061 0.0012044807507 0.0011940307594 0.0011838350023 0.0011738618973 
0.0011642170267 0.0011548642809 0.0011458153439 0.0011371099658 0.0011286757279 0.00112054388 0.0011126726741 0.0014001548658 0.0013892509669 
0.001378276683 0.0013671876248 0.0013559126796 0.001344537621 0.0013332509163 0.0013216511517 0.001310001038 0.0012982062611 0.0012866008848 
0.0012750882085 0.001263621792 0.001252394606 0.001241362999 0.0012305277851 0.0012199173804 0.0012095453608 0.0011993813975 0.0011895261316 
0.0011799402452 0.0011706449476 0.0011616787319 0.0011529740341 0.001144571347 0.0011364620404 0.0014304737028 0.0014191927016 0.0014078413162 
0.0013963790991 0.00138474553 0.0013730323413 0.0013612193356 0.0013495552051 0.0013376599352 0.0013256896687 0.0013138677514 0.0013022043237 
0.0012906125596 0.0012792764156 0.0012681480706 0.0012572164187 0.0012465119628 0.0012360198574 0.0012257196979 0.0012157022669 0.0012059297305 
0.0011964179906 0.0011871731289 0.0011782357105 0.0011695474423 0.0011611431827 0.0014598333427 0.0014480887952 0.0014362931955 0.001424411838 
0.0014123857601 0.0014003158939 0.0013881886607 0.0013762546328 0.0013641352626 0.0013519809419 0.0013400285987 0.0013282629375 0.0013166787357 
0.001305222192 0.0012940645232 0.0012831071057 0.001272361059 0.0012618222775 0.0012514923084 0.0012413301672 0.0012314251643 0.001221737606 
0.0012122793293 0.0012030984039 0.0011941332995 0.0011854166166 0.0014863672921 0.0014741167011 0.0014618246875 0.0014494840604 0.0014370886735 
0.0014246101173 0.0014121726515 0.0013999871936 0.0013876685925 0.0013753687628 0.001363324672 0.0013515135137 0.0013399257179 0.0013284969563 
0.0013173862071 0.001306481787 0.0012957821822 0.0012852734166 0.0012749417752 0.0012647422693 0.0012547533249 0.0012449357514 0.0012353066173 
0.0012259094441 0.0012166905966 0.0012076810543 0.0015081920321 0.0014953640173 0.001482571972 0.0014697560277 0.0014569400424 0.0014441024546 
0.0014313678642 0.0014189476057 0.0014064609208 0.0013940576718 0.0013820011354 0.0013701761324 0.0013586531926 0.001347403211 0.0013363497509 
0.0013255844775 0.0013150187852 0.0013046220828 0.0012943679882 0.0012842026213 0.001274196648 0.0012643112653 0.0012545603815 0.0012449509086 
0.0012355358464 0.0012262584894 0.001523644209 0.0015102608845 0.0014969285536 0.0014836663509 0.001470440926 0.0014572546093 0.0014442431443 
0.0014314049892 0.001418997053 0.0014065327246 0.0013944864129 0.001382737877 0.0013713515066 0.0013602881882 0.0013494536621 0.001338920697 
0.00132858125 0.0013183829933 0.0013082868831 0.0012982685349 0.0012882771884 0.001278383536 0.0012685621992 0.0012588249532 0.0012492241187 
0.0012397093777 0.001485701681 0.0014733925052 0.0014614712942 0.0014499209353 0.0014387543069 0.0014278617098 0.0014174470483 0.0014074224786 
0.0013977294355 0.0013883249592 0.0013790979752 0.0013701690027 0.0013613276566 0.0013525732935 0.0013438535596 0.0013351282168 0.0013263636741 
0.0013175298955 0.0013086117645 0.0012996008948 0.0012904981867 0.0012813108011 0.001272055698 0.0012627696504 0.0012534417275 0.001244116637 
0.001485080791 0.0014727672591 0.001460784611 0.0014492229155 0.0014380598733 0.0014273010106 0.0014168093536 0.001406777024 0.0013971007587 
0.0013877050773 0.0013785348852 0.0013694717609 0.0013606339254 0.0013518185083 0.0013430225618 0.0013342106455 0.0013253485889 0.0013164168526 
0.0013074012992 0.0012982968951 0.0012891056925 0.0012798371492 0.0012705086197 0.0012611394882 0.0012517709111 0.0012423958407 0.0014803833524 
0.0014679748906 0.001455993619 0.0014444344984 0.0014332954913 0.0014225675987 0.0014121131648 0.0014021466004 0.0013924762191 0.0013831066011 
0.0013739501913 0.0013648864578 0.0013560327046 0.001347186396 0.0013383440505 0.0013294811564 0.0013205598852 0.0013115661325 0.0013024885958 
0.0012933243535 0.0012840775825 0.0012747589639 0.0012653858124 0.0012559784192 0.0012465601092 0.0012371763627 0.0014724642676 0.0014600679854 
0.0014481505837 0.0014365931946 0.0014254901313 0.0014147878248 0.0014043790226 0.0013944540703 0.0013848455191 0.0013754739501 0.0013663340934 
0.0013572765782 0.0013483687914 0.001339559404 0.0013306996866 0.0013218066511 0.0013128564168 0.0013038319841 0.0012947249078 0.0012855335383 
0.0012762631879 0.0012669242061 0.0012575349322 0.0012481159961 0.0012386909088 0.0012292878156 0.0014626719687 0.0014504065932 0.0014384232271 
0.0014269045252 0.0014158405038 0.0014051915974 0.0013948043419 0.0013849059766 0.001375316642 0.0013659817167 0.0013568142801 0.0013478130172 
0.0013388340486 0.0013299699471 0.0013211420443 0.0013122349587 0.0013032787367 0.001294248211 0.0012851389135 0.0012759479499 0.0012666812714 
0.0012573499124 0.0012479711939 0.0012385658312 0.0012291586536 0.0012197769209 0.0014522493672 0.001440045437 0.0014282035666 0.0014166257492 
0.0014055990553 0.0013949765201 0.0013846180419 0.0013747204877 0.0013651084677 0.0013557501405 0.0013465787197 0.0013375442032 0.0013285047229 
0.0013196148474 0.0013107696759 0.0013018537684 0.0012928946029 0.0012838744926 0.0012747794262 0.0012656092158 0.0012563693416 0.0012470692079 
0.0012377254362 0.0012283579669 0.0012189912181 0.0012096530902 0.001442136369 0.001430192355 0.0014183955808 0.0014068960659 0.0013958698643 
0.001385256946 0.0013750047656 0.0013649603947 0.0013553102467 0.0013458872459 0.0013366303355 0.0013275209174 0.0013185036488 0.0013094608742 
0.0013005396916 0.0012916473195 0.0012826798266 0.0012736688389 0.0012645968853 0.00125546094 0.0012462644028 0.0012370140645 0.0012277249735 
0.0012184161032 0.0012091102608 0.0011998333953 0.0014336717283 0.0014217872378 0.0014100359158 0.0013986624661 0.0013875363826 0.0013769100084 
0.0013666341968 0.0013565229287 0.0013467811409 0.0013372470843 0.0013278812342 0.0013186535125 0.0013095115708 0.0013004024459 0.0012913780993 
0.0012824365479 0.0012734443815 0.0012644302367 0.00125537992 0.0012462817022 0.0012371362985 0.0012279472007 0.0012187273798 0.0012094926079 
0.0012002645679 0.0011910667255 0.001427314921 0.00141526524 0.0014037799829 0.0013924270453 0.001381429394 0.0013706328312 0.0013602715729 
0.0013500584637 0.0013402009057 0.0013305133485 0.0013209828756 0.0013115887227 0.0013022989893 0.0012930952292 0.0012839270596 0.0012748274116 
0.0012658237365 0.0012567863955 0.0012477385668 0.0012386718923 0.0012295757037 0.0012204519968 0.0012113089255 0.0012021591652 0.001193019248 
0.0011839162512 0.0014235746792 0.0014115424847 0.0014000952037 0.0013887518349 0.0013777313287 0.0013668753443 0.0013564158832 0.0013460673939 
0.0013360298867 0.0013261523741 0.0013164345215 0.0013068288685 0.0012973368521 0.0012879588398 0.0012786309368 0.0012694204355 0.0012602968136 
0.0012512007574 0.0012421313435 0.0012330752112 0.0012240164002 0.0012149522788 0.0012058856794 0.0011968245208 0.0011877816627 0.0011787806986 
0.0014226824431 0.001410703591 0.0013990637663 0.001387940044 0.0013768788801 0.001366072891 0.0013553585351 0.0013448493822 0.0013346169145 
0.0013245191036 0.0013145471574 0.0013047134071 0.0012949815355 0.001285378436 0.0012758481878 0.0012664762084 0.0012571919643 0.0012480124647 
0.0012388864025 0.0012298095569 0.0012207685883 0.001211748336 0.0012027491346 0.0011937711385 0.0011848274364 0.001175930585 0.0014248637642 
0.0014129341137 0.0014013113954 0.0013901734958 0.001379051896 0.0013681434618 0.0013573762726 0.0013465896559 0.0013361385054 0.0013257964238 
0.0013155640053 0.001305440735 0.0012954467609 0.001285600028 0.0012758854276 0.0012662469822 0.0012567954398 0.0012474653281 0.0012382424525 
0.0012291097363 0.0012200527752 0.001211050849 0.00120209988 0.0011931944214 0.0011843393587 0.0011755431719 0.0014302151659 0.0014183255299 
0.0014067094858 0.0013955383044 0.001384340129 0.0013733088039 0.0013623768519 0.0013515017199 0.0013406996533 0.0013300966495 0.001319586663 
0.0013091771298 0.0012988966053 0.0012887548384 0.0012787743103 0.0012689069019 0.0012592397026 0.0012497297002 0.0012404053 0.0012311359558 
0.0012220212194 0.0012130073541 0.0012040745898 0.0011952195666 0.0011864368025 0.0011777284263 0.0014387694194 0.0014269463819 0.0014152796824 
0.0014038354088 0.0013927620739 0.001381589782 0.0013705120537 0.0013594719119 0.0013483289063 0.0013374573182 0.0013266613781 0.001315957112 
0.0013053789066 0.0012949433577 0.0012846792739 0.0012745310907 0.0012646198945 0.001254910272 0.0012453671472 0.0012360372284 0.0012267951902 
0.0012177139244 0.0012087662359 0.0011999279605 0.0011911913482 0.0011825541683 0.0014505040229 0.0014386862924 0.0014269843173 0.0014154682215 
0.0014042804603 0.0013929477749 0.0013816731581 0.0013704001327 0.001359000873 0.0013478536615 0.0013367693409 0.0013257686869 0.0013148913017 
0.0013041585074 0.0012936036331 0.0012832272013 0.0012730027204 0.0012630395449 0.0012532988555 0.0012437916335 0.0012344116345 0.0012252395509 
0.0012162265078 0.0012073687451 0.0011986428791 0.0011900420361 0.0014653338815 0.0014534949078 0.0014417383502 0.0014301222023 0.0014187948958 
0.0014072845565 0.0013957969484 0.0013842825363 0.0013727103889 0.0013612001924 0.001349830291 0.0013385383987 0.0013273675908 0.0013163415649 
0.0013054974281 0.0012948394556 0.0012843457628 0.0012741291096 0.0012641443186 0.0012543910392 0.0012449168986 0.0012355770537 0.0012264681983 
0.0012175458823 0.001208779399 0.0012001771306 0.001483119548 0.0014712269689 0.0014594249782 0.0014476327187 0.001435920081 0.0014244340667 
0.0014127182148 0.0014009914683 0.001389121186 0.0013774233755 0.0013656898196 0.0013541174505 0.0013426656171 0.0013313601801 0.0013202399906 
0.0013093079682 0.0012985973142 0.0012880754148 0.001277848074 0.001267868983 0.0012581792613 0.0012486929746 0.0012394265821 0.0012303934524 
0.0012215587785 0.001212900596 0.0015036206946 0.0014916290883 0.0014796991215 0.0014677494894 0.0014558465805 0.0014441391302 0.0014321831483 
0.0014202015593 0.0014080653865 0.001396102701 0.001384098626 0.001372268312 0.0013605545938 0.0013489890104 0.0013376108561 0.001326426273 
0.0013154631942 0.001304694284 0.0012942264047 0.0012840147737 0.0012740665403 0.0012644170625 0.0012549849455 0.001245780733 0.0012368245837 
0.0012280792174 0.0015264844685 0.00151434402 0.0015022380822 0.0014900905707 0.0014779636938 0.0014660161796 0.0014538050126 0.0014415674933 
0.0014292118915 0.0014169599511 0.0014047898234 0.00139263472 0.0013806789461 0.0013688799737 0.0013572715164 0.001345854767 0.0013346649702 
0.0013236673513 0.0013129685363 0.0013025296335 0.0012923581928 0.0012824933721 0.001272858267 0.0012634834132 0.0012543311144 0.0012454541244 
0.0015511802826 0.0015388322443 0.0015265002484 0.0015141155029 0.0015017351458 0.0014893138559 0.0014770583353 0.0014645595751 0.0014520616375 
0.0014394535578 0.0014270544248 0.0014146809053 0.0014025211017 0.0013905224304 0.0013787173199 0.0013671065806 0.0013557138623 0.0013445609399 
0.0013336106048 0.001322962816 0.0013125762338 0.001302457755 0.0012926433503 0.0012830584968 0.001273734369 0.0012646316351 0.0015769999238 
0.0015643807715 0.0015517692232 0.0015391371348 0.001526422205 0.0015137102273 0.0015011820005 0.0014884258937 0.001475684796 0.0014628552113 
0.0014502557999 0.0014377784247 0.0014253669973 0.0014132063231 0.001401246369 0.0013894825491 0.0013779384601 0.0013666232497 0.0013555019247 
0.0013446700634 0.0013340837606 0.0013237584713 0.0013137278794 0.0013039216093 0.0012943734455 0.0012850779418 0.0016029706813 0.0015900128204 
0.0015770642937 0.0015641011765 0.0015510682816 0.0015380549166 0.001525246779 0.0015122325977 0.0014992643638 0.0014862686934 0.0014734559669 
0.0014608258625 0.0014482832798 0.0014360055418 0.0014239402026 0.0014120726523 0.0014004304731 0.0013889959464 0.0013777470218 0.0013667668965 
0.0013560167324 0.0013455061526 0.0013352707507 0.0013252409448 0.001315458789 0.0013059210037 0.0016278945616 0.0016145403884 0.0016012113765 
0.0015878868741 0.0015745113333 0.0015611841675 0.0015478784058 0.0015348318238 0.0015216519291 0.0015084755511 0.0014955276844 0.0014827836727 
0.0014702316181 0.001457813454 0.0014456957854 0.0014337792182 0.0014220763717 0.0014105814361 0.0013992946322 0.0013881725824 0.0013773008668 
0.001366635135 0.0013561816913 0.0013459827389 0.0013359712491 0.0013261751027 0.0016504268761 0.0016366560281 0.0016229114551 0.0016091978092 
0.0015955117413 0.0015818197218 0.0015682355138 0.0015549563341 0.0015415851418 0.0015282597169 0.0015152063589 0.0015023939695 0.0014898073829 
0.001477379697 0.0014652697368 0.0014533677629 0.0014416748185 0.0014301791919 0.0014188680749 0.0014076956697 0.0013967374761 0.0013859506032 
0.0013753472972 0.001364961666 0.0013547375011 0.0013446990326 0.001669286656 0.0016550390947 0.0016408834858 0.0016267699027 0.0016127233114 
0.0015987169821 0.0015848648339 0.0015713665839 0.0015578285011 0.0015443882372 0.0015312996798 0.0015184366792 0.0015058689942 0.0014935659607 
0.0014814544427 0.0014696317449 0.0014580165882 0.0014465825621 0.0014353086742 0.0014241414224 0.0014131496593 0.001402290639 0.0013915726984 
0.0013809964426 0.0013706082335 0.0013603453167 0.0016833580977 0.0016686539506 0.0016540461308 0.0016395595808 0.0016251608457 0.001610847404 
0.0015967431011 0.001582836944 0.001569372324 0.0015558510559 0.0015427367464 0.0015299018967 0.0015174077487 0.0015052172137 0.0014932433449 
0.0014815697209 0.001470100554 0.0014587941696 0.001447619141 0.0014365523391 0.0014255435241 0.0014146587302 0.0014038666103 0.0013931720082 
0.0013826195263 0.001372153572 0.0016335970564 0.0016203877211 0.0016075392924 0.0015950284851 0.0015828635948 0.0015709324597 0.0015594390616 
0.0015482991236 0.0015374608127 0.0015268903397 0.0015164872335 0.0015063826577 0.001496376749 0.0014864783722 0.0014766437244 0.0014668398518 
0.0014570388556 0.0014472144838 0.0014373533278 0.0014274467458 0.0014174936998 0.0014074981329 0.0013974728892 0.0013874500425 0.0013774136961 
0.0013674038911 0.0016354268913 0.0016221868551 0.0016092472764 0.0015966915581 0.0015844927226 0.0015726536344 0.0015610386563 0.0015498446595 
0.0015389772765 0.0015283726205 0.0015179883493 0.0015077185451 0.0014976923259 0.00148771617 0.0014777952819 0.0014678994247 0.0014579986775 
0.0014480757482 0.0014381170142 0.0014281163605 0.0014180734285 0.0014079942396 0.0013978917677 0.001387781357 0.0013776985743 0.0013676314762 
0.0016342238825 0.0016208584074 0.0016078861965 0.0015952952024 0.0015830781886 0.0015712239599 0.0015595969423 0.001548417711 0.0015375054682 
0.001526878316 0.0015164632658 0.0015061535746 0.0014960780888 0.0014860438328 0.0014760569513 0.0014660898753 0.0014561156283 0.0014461186224 
0.0014360871564 0.0014260165523 0.001415908127 0.001405768856 0.0013956117322 0.0013854523044 0.0013753088717 0.0013652216665 0.0016305167883 
0.0016171294386 0.0016041435863 0.0015915539625 0.0015793158908 0.0015674527717 0.0015558230601 0.0015446339938 0.0015337339521 0.0015230572152 
0.0015126139045 0.001502269027 0.0014921011301 0.0014820704448 0.0014720309463 0.0014620114055 0.0014519835687 0.0014419335802 0.0014318519901 
0.0014217349858 0.0014115847084 0.0014014075661 0.0013912180057 0.001381029715 0.0013708634876 0.0013607408237 0.0016252820594 0.0016119887253 
0.0015989381486 0.0015863052067 0.0015740750642 0.0015622071607 0.0015505524907 0.0015393467942 0.0015284228455 0.0015177431095 0.0015072339106 
0.0014969082909 0.0014866340623 0.0014765128933 0.001466473114 0.001456404314 0.001446338543 0.0014362520159 0.0014261399067 0.0014159951405 
0.0014058224689 0.0013956282243 0.0013854251027 0.0013752287648 0.0013650586619 0.0013549364229 0.0016194175632 0.0016061467886 0.0015931973429 
0.0015804640612 0.0015682295851 0.0015563474598 0.0015446831416 0.0015334434634 0.0015224664792 0.0015117346688 0.0015011949396 0.0014908093132 
0.0014804463111 0.0014702688302 0.0014601786136 0.001450066682 0.0014399626223 0.0014298507207 0.00141971688 0.0014095592516 0.0013993804454 
0.0013891860279 0.0013789880446 0.0013688013176 0.0013586448421 0.0013485403037 0.001613595357 0.0016005433871 0.0015875988606 0.0015749197673 
0.0015626328087 0.0015507243775 0.0015391366863 0.001527726782 0.0015166939045 0.0015058838494 0.0014952467515 0.0014847732584 0.0014744160407 
0.0014640726088 0.0014538724765 0.0014437524005 0.0014336049812 0.0014234645515 0.0014133148698 0.0014031523567 0.0013929784052 0.0013827965632 
0.001372617808 0.0013624555216 0.0013523277939 0.0013422540001 0.0016089796036 0.0015959457014 0.0015830055352 0.0015703989852 0.0015579923891 
0.0015460586409 0.0015344108073 0.0015229215525 0.0015117921128 0.0015008714793 0.0014901282262 0.0014795266585 0.0014690540809 0.0014586277684 
0.0014483164643 0.0014381236542 0.0014279212449 0.0014177419977 0.0014075745679 0.0013974082017 0.0013872431778 0.001377080787 0.0013669305229 
0.0013568036225 0.0013467163818 0.0013366862052 0.0016059385743 0.0015926964885 0.0015799816435 0.0015673582939 0.0015550499457 0.0015429085635 
0.001531178083 0.0015195997722 0.0015083448243 0.0014972831312 0.0014863907596 0.0014756495184 0.0014650291339 0.0014545132598 0.0014440547938 
0.0014336914761 0.0014234557766 0.0014132234967 0.0014030222281 0.0013928465986 0.0013826872685 0.0013725456656 0.0013624277331 0.0013523424883 
0.0013423018775 0.0013323263157 0.0016049077552 0.0015916792765 0.001578962084 0.0015663136341 0.0015539555607 0.0015417376305 0.001529902942 
0.0015181805786 0.0015067730607 0.0014955575764 0.0014844873956 0.0014735607478 0.001462761388 0.0014520890497 0.0014414807585 0.0014310065984 
0.0014206406244 0.0014103291436 0.0014000767804 0.0013898749567 0.0013797110884 0.0013695839997 0.001359496064 0.0013494529201 0.0013394635324 
0.0013295462356 0.0016062414976 0.0015929808776 0.0015802534705 0.0015675688923 0.0015551464274 0.0015429275507 0.0015308751022 0.0015189998891 
0.0015074193876 0.0014959952392 0.0014847177606 0.0014735957132 0.0014625884334 0.0014517190453 0.0014409299262 0.0014303069905 0.001419782748 
0.0014093783971 0.0013990504292 0.001388798727 0.0013786152561 0.0013684898372 0.0013584231144 0.0013484152516 0.0013384769065 0.0013286164224 
0.0016100623955 0.0015968033026 0.0015838303263 0.0015713226036 0.0015588187521 0.0015465263133 0.0015343857367 0.0015222470247 0.0015104726367 
0.0014988327112 0.0014873288298 0.0014759542356 0.0014647218183 0.0014536439883 0.0014427009738 0.0014318352117 0.0014211581235 0.0014106465561 
0.001400174624 0.0013898482523 0.0013796206403 0.0013694760661 0.0013594145845 0.0013494323856 0.0013395338509 0.0013297247889 0.001616524278 
0.0016032570706 0.0015902509989 0.0015776801408 0.0015650813489 0.0015526599057 0.0015403603034 0.0015281491065 0.0015160467078 0.0015041781049 
0.0014924324042 0.001480809631 0.0014693299286 0.0014579957993 0.001446823085 0.0014357599866 0.0014248917423 0.0014141768844 0.0014036476718 
0.001393177946 0.0013828745302 0.0013726900107 0.0013626101643 0.0013526354757 0.0013427621572 0.0013329916528 0.0016256732616 0.0016124242694 
0.0015993280326 0.0015864572141 0.0015739672647 0.0015614014134 0.0015489639275 0.0015366051069 0.0015241888457 0.0015120799574 0.0015000826453 
0.0014882022516 0.0014764638594 0.0014648752362 0.0014534576409 0.0014421498867 0.0014310694621 0.0014201799896 0.0014094480323 0.0013988949386 
0.001388488255 0.0013782192026 0.0013680977569 0.0013581036403 0.0013482359871 0.0013384875728 0.0016374913241 0.0016242004809 0.0016110324285 
0.0015980632329 0.0015854461269 0.0015727189808 0.0015600942541 0.0015475206219 0.0015348704016 0.0015225168012 0.0015102632572 0.0014981211033 
0.0014861200422 0.0014742713584 0.0014626018492 0.0014511034031 0.0014397451725 0.0014286335403 0.0014177287998 0.001407044427 0.001396477332 
0.0013861137837 0.0013759113108 0.0013658725185 0.0013559794071 0.0013462286802 0.0016518881615 0.0016385313347 0.001625274466 0.0016121833904 
0.0015994168058 0.0015865134405 0.0015736871654 0.0015608904322 0.0015480904572 0.0015354006673 0.0015228906841 0.0015104883917 0.0014982267287 
0.0014861199194 0.0014741958217 0.0014624522251 0.0014508606849 0.001439529723 0.0014284118417 0.0014175063432 0.0014068624753 0.0013963392848 
0.001386038533 0.0013759218601 0.0013659646867 0.0013561804033 0.0016687141091 0.0016552628909 0.0016419310395 0.0016286464272 0.0016154890839 
0.0016026147589 0.0015895716897 0.0015765818006 0.001563505579 0.0015506521512 0.0015378042137 0.0015251482978 0.0015126337695 0.0015002770173 
0.0014881083161 0.0014761229264 0.0014643481342 0.0014527457789 0.0014414180594 0.0014303166883 0.0014194824382 0.0014088311034 0.0013983824789 
0.001388154729 0.0013781187558 0.0013682582085 0.0016877177812 0.0016741345784 0.0016606522334 0.0016471990087 0.0016338507714 0.0016207631122 
0.0016074952 0.0015942677403 0.0015809459044 0.0015678487962 0.0015547519803 0.0015418601653 0.0015291065138 0.0015165134391 0.0015041122089 
0.001491901601 0.0014799032519 0.0014680844993 0.0014565477361 0.0014452450557 0.0014341816847 0.0014233926317 0.0014127979142 0.001402410992 
0.001392257385 0.0013823017512 0.0017085502353 0.0016947962924 0.0016811251933 0.0016674709891 0.0016539043712 0.0016405888042 0.0016270819817 
0.0016136167381 0.0016000936289 0.00158672445 0.0015734800376 0.0015602803284 0.0015473013029 0.0015344922031 0.0015218791339 0.001509456719 
0.0014972543049 0.001485231836 0.0014734918114 0.0014619911053 0.0014507345103 0.0014397592409 0.0014289879374 0.0014184520098 0.001408118657 
0.0013980361958 0.0017307180634 0.0017167494398 0.001702858969 0.0016889694849 0.0016751604177 0.001661388082 0.0016478550532 0.0016341474048 
0.0016204980651 0.0016067896328 0.0015933262137 0.0015799191968 0.0015667461728 0.001553747179 0.001540950226 0.0015283439308 0.0015159533521 