# vtk DataFile Version 5.1
vtk output
ASCII
DATASET STRUCTURED_POINTS
DIMENSIONS 26 26 26
SPACING 0.08 0.08 0.08
ORIGIN -1 -1 0.5
POINT_DATA 17576
FIELD FieldData 1
potential 1 17576 double
0.0017554617611 0.0017400028029 0.0017250584597 0.0017107297028 0.0016970384997 0.0016839754584 0.0016714199134 0.0016595629585 0.0016481990408 
0.0016372323563 0.0016266568948 0.0016159577353 0.0016055633606 0.001595174662 0.0015847039436 0.0015740890461 0.0015632807588 0.0015522419398 
0.0015409578443 0.0015294274633 0.0015176645334 0.001505692924 0.0014935490641 0.0014813394511 0.0014689772502 0.0014565789039 0.0017521225806 
0.0017365726191 0.0017217204409 0.0017074603711 0.0016938784554 0.0016809796126 0.0016687001045 0.0016568953156 0.0016457145901 0.0016349143787 
0.0016243742792 0.0016140727539 0.0016035087969 0.00159311795 0.0015826069694 0.0015719225491 0.0015610209259 0.0015498796986 0.0015384886083 
0.0015268521553 0.0015149863813 0.0015029178881 0.0014906842495 0.0014783248226 0.0014659526745 0.0014534849989 0.0017414851686 0.0017262943961 
0.0017115218009 0.0016973475232 0.0016839186571 0.0016712039548 0.0016591343957 0.0016476828441 0.0016365896119 0.0016259939006 0.0016156294457 
0.0016054665706 0.001595001386 0.0015846711731 0.0015741816881 0.001563502044 0.0015525796577 0.0015414043541 0.0015299713802 0.0015182893399 
0.0015063777017 0.0014942651204 0.0014819899883 0.0014695919046 0.0014571185764 0.0014446868926 0.0017261843064 0.0017110805172 0.0016963680268 
0.0016824297972 0.0016691770147 0.0016566271869 0.0016447806 0.0016335517414 0.0016228033144 0.0016122703041 0.0016020791222 0.001592062458 
0.0015819276935 0.0015714805939 0.0015610678743 0.0015504339582 0.0015395485113 0.0015283980101 0.0015169823082 0.0015053125444 0.0014934105157 
0.0014813048432 0.0014690349936 0.0014566435515 0.0014441770769 0.001431687342 0.001708316292 0.0016930547021 0.001678758396 0.0016649831475 
0.0016519097273 0.0016395835581 0.0016278969012 0.0016168484999 0.0016062641989 0.0015960055672 0.0015859365681 0.0015758019293 0.0015658529359 
0.0015557077767 0.0015451715251 0.0015346104764 0.0015238049455 0.0015127241699 0.0015013749271 0.0014897668378 0.0014779224596 0.0014658719325 
0.0014536537373 0.0014413110999 0.0014288924074 0.0014164492415 0.0016901298656 0.0016750474311 0.0016606347186 0.0016472931749 0.0016343874476 
0.0016222188597 0.0016107025047 0.0015997632669 0.0015892292795 0.001579022501 0.001568986755 0.001559015249 0.0015489668533 0.0015388616622 
0.0015283966187 0.0015179116734 0.0015071879898 0.0014962068984 0.0014849549023 0.0014734459469 0.0014617007614 0.0014497472392 0.0014376229552 
0.0014253704168 0.0014130382278 0.0014006785773 0.0016737512204 0.0016586438809 0.0016443876939 0.0016308794051 0.0016184705976 0.0016064136341 
0.0015949846557 0.0015840541149 0.0015735277684 0.0015632628953 0.0015531230165 0.0015430762184 0.0015330158202 0.0015228356826 0.0015125803745 
0.0015019381552 0.0014912800626 0.0014803937263 0.0014692539032 0.0014578686283 0.0014462525219 0.0014344299498 0.0014224352759 0.0014103095286 
0.0013980992412 0.0013858558334 0.0016602583161 0.0016453145839 0.0016312124224 0.0016178379148 0.0016054986702 0.001593498048 0.0015821031793 
0.0015711065491 0.0015604555597 0.0015500224312 0.0015397198283 0.0015294863156 0.0015192314303 0.00150905863 0.0014985914086 0.0014879258868 
0.0014772945361 0.0014664725834 0.0014554420847 0.0014441850107 0.0014327139965 0.0014210451785 0.001409207969 0.0013972385588 0.0013851816333 
0.0013730858866 0.0016507276263 0.0016360903046 0.0016219918421 0.0016087289261 0.0015961367326 0.0015844532139 0.0015729479899 0.0015618011643 
0.0015509676554 0.0015402662233 0.0015296710704 0.001519140703 0.0015086381592 0.0014981193352 0.0014876965708 0.0014769844005 0.0014661159707 
0.0014553085746 0.0014443435342 0.0014332050752 0.0014218769409 0.0014103709629 0.0013987077491 0.0013869170904 0.0013750363464 0.0013631169934 
0.0016457229188 0.0016312458076 0.0016172793576 0.0016041023288 0.0015915325568 0.0015797946094 0.0015681477499 0.0015567730996 0.0015456115483 
0.0015345607308 0.001523620652 0.0015127008935 0.0015018267054 0.0014910018265 0.0014803008853 0.0014694880455 0.0014583524056 0.0014474901131 
0.0014365396275 0.0014254755706 0.0014142675416 0.0014029162049 0.0013914300841 0.0013798286752 0.0013681437611 0.0013564178054 0.0016455388211 
0.0016312220579 0.0016175131396 0.0016042521186 0.0015916636132 0.0015795084801 0.0015679726189 0.0015563128343 0.0015447915822 0.0015333275773 
0.0015219046147 0.0015105273166 0.0014992376263 0.0014879936427 0.0014769211632 0.0014658297342 0.0014547673549 0.0014434303003 0.0014324169933 
0.0014213603504 0.0014102350241 0.0013990095369 0.0013876869299 0.0013762720832 0.0013647883857 0.0013532673747 0.0016503153889 0.0016361529733 
0.0016225390985 0.0016093044359 0.0015966547504 0.001584345613 0.0015723089683 0.0015605816734 0.0015486328699 0.0015367089472 0.0015247943783 
0.001512904545 0.0015010823789 0.0014893874416 0.0014777872798 0.0014663851006 0.0014550281554 0.0014437780334 0.0014322582085 0.0014211342463 
0.0014100203474 0.001398871929 0.001387679341 0.0013764318951 0.0013651400921 0.0013538237532 0.0016600840262 0.0016460594986 0.0016325194653 
0.0016192740523 0.0016065241147 0.0015940130028 0.0015816825208 0.0015695782474 0.0015571868684 0.0015447734412 0.0015323381976 0.0015199121038 
0.0015075523831 0.0014952987554 0.0014832002711 0.0014713733861 0.0014596172238 0.0014480395296 0.00143643309 0.0014249903947 0.0014137992904 
0.0014026666629 0.0013915462779 0.001380428582 0.0013693029485 0.0013581755935 0.0016748133434 0.0016609085247 0.0016474040064 0.0016342536224 
0.0016212159496 0.0016084622395 0.0015957458254 0.0015830417819 0.0015704241836 0.0015575080905 0.001544539836 0.0015315662513 0.0015186546061 
0.0015058551312 0.0014932282021 0.0014807919848 0.0014686571651 0.0014567124635 0.0014449622615 0.0014332453434 0.0014217548052 0.0014105160898 
0.0013994034882 0.0013883526016 0.0013773476442 0.0013663812715 0.0016944261475 0.0016805996561 0.0016670921426 0.0016538513785 0.0016406260537 
0.0016275869851 0.0016145048993 0.0016013660678 0.0015882676523 0.0015748384043 0.0015613369688 0.0015478185817 0.0015343580806 0.0015210126059 
0.0015078502407 0.0014948963672 0.0014822707051 0.0014698467396 0.0014577063248 0.0014456894675 0.0014340841637 0.0014225627987 0.0014113440755 
0.0014002866497 0.0013893347897 0.0013784707687 0.0017187935714 0.0017049951763 0.0016914379718 0.0016780545072 0.0016645900825 0.001651227654 
0.0016377471067 0.0016241043667 0.0016103314223 0.0015966304383 0.0015826058927 0.0015685581426 0.0015545665161 0.0015406909458 0.0015270041276 
0.0015135361741 0.0015004124491 0.0014875176191 0.001474942293 0.0014626884478 0.0014506082173 0.0014388321844 0.0014274518047 0.001416297022 
0.0014052944164 0.0013944637403 0.001747736161 0.001733904149 0.0017202406954 0.0017066362335 0.0016930200653 0.0016791518705 0.0016652451338 
0.0016511362442 0.0016368744367 0.0016224405633 0.0016081436207 0.0015935925627 0.001579099852 0.0015647267118 0.0015505468808 0.0015365880675 
0.0015229099357 0.0015096159107 0.0014965911013 0.0014839156694 0.0014714259249 0.0014594619452 0.0014477102867 0.0014363607998 0.0014252571808 
0.0014143462405 0.001780956463 0.0017670013302 0.0017531437449 0.0017392716091 0.0017253076337 0.0017110256791 0.0016966667556 0.0016820830625 
0.0016673272741 0.00165241134 0.001637633498 0.0016226213652 0.0016076698381 0.0015928430909 0.0015782132823 0.0015638107301 0.0015496847434 
0.001535945313 0.0015224814655 0.0015093773363 0.0014966506289 0.001484132002 0.0014721512219 0.0014604086274 0.0014490908294 0.0014380449708 
0.0018180135416 0.0018038283133 0.0017896746789 0.0017754470899 0.001761067667 0.0017464685378 0.0017314918802 0.00171642853 0.0017011778825 
0.0016858341485 0.0016703933194 0.0016551855283 0.0016398191785 0.0016245961737 0.0016095762978 0.0015947789074 0.0015802614851 0.0015661198281 
0.0015522470345 0.0015387333195 0.0015255944423 0.0015126757811 0.0015003142126 0.0014883275066 0.0014765659991 0.0014652911213 0.0018581835488 
0.001843636996 0.0018290788085 0.0018144175812 0.0017995502769 0.0017844633528 0.0017689886184 0.0017534417996 0.0017377325253 0.0017219549433 
0.0017061194816 0.0016905434898 0.0016748420498 0.0016592946385 0.00164395543 0.0016288401906 0.0016139883475 0.0015994419706 0.0015852808019 
0.0015713977043 0.0015578716164 0.0015447223277 0.0015317932844 0.0015194134632 0.0015074097853 0.0014956332144 0.0019004349814 0.0018853817108 
0.0018702930443 0.0018550733326 0.00183964917 0.0018240078895 0.0018080179118 0.0017919941865 0.0017758541719 0.0017596923459 0.0017435235649 
0.0017274352357 0.0017116841078 0.0016958904033 0.0016803200667 0.0016649767632 0.0016498949803 0.0016350923528 0.0016206488129 0.0016064544234 
0.0015925782925 0.001579058059 0.001565734973 0.0015529425251 0.0015405229669 0.0015284679654 0.0019432078701 0.0019274885038 0.0019117401194 
0.0018958708659 0.0018798279584 0.0018636085419 0.0018472295848 0.0018306036241 0.001814063642 0.0017975196354 0.0017811134065 0.0017647973965 
0.0017488648688 0.0017329235268 0.0017172240657 0.0017017540181 0.001686551383 0.0016715842779 0.0016569457911 0.0016425175895 0.001628369818 
0.0016145268797 0.0016009988277 0.001587638936 0.0015747853897 0.0015622771224 0.0019844272053 0.0019679051204 0.0019513879383 0.0019347973309 
0.0019180849474 0.0019012628499 0.0018843598292 0.0018672911904 0.0018503927488 0.0018335663792 0.0018169636804 0.0018005092421 0.0017842831419 
0.0017685123126 0.0017527980141 0.0017373183269 0.0017220777184 0.0017070649159 0.0016922761567 0.0016777676024 0.0016634329447 0.0016493322781 
0.0016354861836 0.0016217628979 0.0016084893187 0.0015955093278 0.0020215680638 0.0020042221867 0.001986856559 0.0019694852111 0.0019520808182 
0.0019346465204 0.0019172347171 0.0018997608876 0.0018825538836 0.0018655151687 0.0018487927595 0.0018322993516 0.0018161046367 0.0018004146438 
0.0017848131741 0.001769454701 0.0017543226779 0.001739386274 0.0017246215457 0.0017100741571 0.0016956255781 0.0016813380546 0.0016672388642 
0.0016531927693 0.0016395372124 0.0016261141603 0.002052240596 0.0020338718604 0.0020157032693 0.0019975335093 0.0019794294154 0.0019614057008 
0.0019435167953 0.0019256789706 0.0019082254103 0.0018910522787 0.001874252711 0.0018578775229 0.001841834793 0.0018261561161 0.0018110096227 
0.001795915073 0.0017810315676 0.0017663043086 0.0017516886551 0.0017372150508 0.0017227581449 0.0017083783671 0.0016941008694 0.0016799402362 
0.0016657843101 0.0016519507578 0.0020742100607 0.0020549062072 0.0020357910112 0.0020169240972 0.0019981494808 0.0019795677879 0.0019612469549 
0.0019432377437 0.0019254716253 0.0019082447243 0.0018915137803 0.0018753167957 0.001859549885 0.0018442256532 0.0018294772133 0.001814798209 
0.0018003124784 0.0017859315724 0.0017715918612 0.0017572525094 0.0017429466776 0.0017285654592 0.001714186959 0.0016998341923 0.0016853975295 
0.001671201419 0.0019377127505 0.0019209623287 0.0019046752243 0.0018889406264 0.001873771195 0.0018591525041 0.0018449655008 0.0018314101917 
0.001818297917 0.001805554824 0.0017931983365 0.0017807350393 0.0017686140485 0.0017565494336 0.0017444669232 0.0017323142074 0.0017200488749 
0.0017076371042 0.0016950639072 0.001682324914 0.0016694281299 0.0016563901614 0.0016432393347 0.0016300736404 0.0016167979055 0.0016035201347 
0.0019391852559 0.0019222884199 0.0019060289671 0.0018902876376 0.0018751397131 0.0018605847154 0.0018465619755 0.0018329400154 0.0018198907611 
0.0018071998098 0.0017947766962 0.0017826261017 0.0017702678581 0.0017581512373 0.0017459942985 0.0017337487109 0.0017213740168 0.0017088478189 
0.0016961572406 0.0016833019564 0.0016702915418 0.001657145063 0.0016438915962 0.0016305632211 0.0016172634371 0.0016039015863 0.0019351713561 
0.0019185696542 0.001902315861 0.0018865757057 0.0018714826075 0.0018570001353 0.0018430644765 0.0018296651871 0.0018165714908 0.0018039576476 
0.0017915928656 0.0017794773112 0.0017671295621 0.0017550008584 0.0017428055908 0.0017305164557 0.0017180812584 0.0017054872996 0.001692725237 
0.0016797974526 0.0016667160467 0.0016535015889 0.0016401832368 0.0016267942952 0.0016133715478 0.0016000239959 0.0019276382695 0.0019110527512 
0.0018947797273 0.0018791839143 0.0018641638263 0.0018497321297 0.001835896221 0.0018225920856 0.0018097158631 0.0017970421684 0.0017847352969 
0.0017726595133 0.0017605407905 0.0017482131959 0.0017360177513 0.0017237065179 0.001711248355 0.0016986260141 0.0016858335688 0.0016728749253 
0.0016597637036 0.0016465198001 0.0016331736978 0.0016197589243 0.001606312999 0.0015928786653 0.0019179396261 0.0019011207836 0.0018851791068 
0.0018696527796 0.0018547097554 0.0018403926491 0.0018266047381 0.0018133704613 0.0018005524398 0.0017880527818 0.0017756393233 0.0017634869055 
0.0017514684211 0.001739350607 0.0017269478496 0.0017146293677 0.0017021766694 0.0016895548829 0.0016767654452 0.0016638102857 0.0016507034702 
0.0016374659392 0.0016241266714 0.0016107192927 0.0015972825771 0.0015838584852 0.0019076754321 0.0018909553412 0.0018748108933 0.0018596251835 
0.0018447528085 0.0018304957761 0.0018167851109 0.0018035758417 0.0017907344021 0.0017782210124 0.0017659120033 0.0017537254347 0.0017415388512 
0.0017293945726 0.0017169747435 0.0017046504685 0.0016921968488 0.0016795950183 0.0016668265822 0.001653899213 0.0016408254852 0.001627624099 
0.0016143228483 0.0016009541772 0.0015875562519 0.001574171669 0.0018985230925 0.0018816944226 0.0018656188278 0.0018504426066 0.0018357116673 
0.001821483492 0.0018077896222 0.0017945344738 0.0017816620221 0.001769064004 0.001756626565 0.001744337069 0.0017321007183 0.0017198223719 
0.0017075566719 0.0016950009074 0.0016825320951 0.0016699399999 0.0016571994331 0.0016443137601 0.0016312921409 0.0016181495195 0.0016049111034 
0.0015916076931 0.0015782751853 0.0015649539783 0.0018913256633 0.0018745733346 0.0018585637229 0.001843168844 0.0018286934193 0.0018144541491 
0.0018007455791 0.0017873973629 0.0017743934046 0.0017616335073 0.0017490465882 0.001736579104 0.0017241454898 0.0017118547201 0.0016993387662 
0.0016867033406 0.0016741901063 0.0016615816979 0.0016488634735 0.0016360192158 0.001623056662 0.0016099855296 0.0015968275631 0.0015836089391 
0.0015703636131 0.0015571285791 0.0018870863234 0.001870550246 0.0018544562402 0.0018390903569 0.0018242910353 0.0018103153365 0.0017964667088 
0.0017829641194 0.0017697956128 0.0017568011674 0.0017439612957 0.0017312376591 0.0017185858513 0.0017059621736 0.0016934825178 0.001680770016 
0.0016679639185 0.0016553061193 0.0016425732521 0.0016297589854 0.0016168487305 0.001603851377 0.0015907815753 0.0015776607182 0.0015645160105 
0.0015513869863 0.0018863934099 0.001869923918 0.0018538734616 0.0018385145463 0.0018236745474 0.0018096036807 0.0017955994962 0.0017818817204 
0.0017684206393 0.0017551283593 0.0017420049271 0.0017289516585 0.0017159830563 0.0017030949596 0.001690359769 0.0016775464555 0.0016644527579 
0.0016516877596 0.0016389025512 0.0016260822085 0.0016132030725 0.0016002679331 0.0015872832032 0.0015742629774 0.0015612289092 0.0015482153104 
0.0018896074477 0.0018732011077 0.001857319256 0.0018418010463 0.0018268866713 0.0018123688397 0.0017984734127 0.0017844951952 0.0017707210769 
0.0017570767849 0.0017435410801 0.0017301379465 0.0017167909334 0.0017035468583 0.0016904886229 0.0016774249126 0.0016644092623 0.0016511489496 
0.0016382565001 0.0016253785734 0.001612501913 0.0015996031357 0.0015866878029 0.0015737590919 0.0015608361186 0.0015479397861 0.0018969417175 
0.0018805889198 0.001864712725 0.0018491492527 0.0018341249538 0.0018194314291 0.001805043519 0.0017910099436 0.0017768800574 0.0017628417973 
0.0017488886256 0.00173501765 0.0017212512241 0.0017076316893 0.0016941124762 0.0016807901525 0.0016675122982 0.0016543473413 0.0016409313591 
0.001627944188 0.0016150157365 0.0016021145007 0.0015892389863 0.0015763838099 0.0015635564222 0.0015507712187 0.0019084885198 0.0018921698229 
0.0018762785896 0.0018606358566 0.001845469189 0.0018305611078 0.0018158932859 0.0018015399722 0.0017870015048 0.0017725391672 0.0017581382384 
0.0017438086748 0.0017295851637 0.0017154866577 0.0017015453708 0.0016878666346 0.0016742432587 0.0016607857731 0.0016472946136 0.0016339749016 
0.0016209302071 0.001607983084 0.0015951027729 0.0015822873886 0.0015695308604 0.0015568379096 0.0019242555366 0.001907949731 0.0018920070855 
0.0018763949128 0.0018609051921 0.0018457482669 0.0018307141563 0.0018158012396 0.0018010899331 0.0017861874372 0.0017713220157 0.0017565178109 
0.0017418183392 0.0017272523588 0.0017128608881 0.0016987246339 0.0016847131585 0.001670944343 0.0016573460815 0.0016437667028 0.0016304118983 
0.0016173233386 0.0016043917705 0.0015915670162 0.001578842882 0.0015662160123 0.001944179349 0.0019278442718 0.0019118129004 0.0018960527588 
0.0018803472365 0.0018649049115 0.0018495289741 0.0018342220129 0.0018190813769 0.0018037237069 0.0017883873214 0.0017731039367 0.0017579246544 
0.0017428848805 0.0017280319178 0.0017133761774 0.0016990244992 0.0016848426698 0.0016709371617 0.0016570689966 0.0016434802635 0.0016302378589 
0.001617167782 0.0016042800232 0.0015915369263 0.001578927662 0.001968116425 0.0019517056581 0.0019355462149 0.0019195908701 0.001903625424 
0.0018878664894 0.0018721192827 0.0018564001781 0.0018405825734 0.0018250053018 0.0018092006163 0.0017934448441 0.001777794034 0.001762287043 
0.0017469758813 0.0017318754895 0.0017170968982 0.0017025144411 0.0016882120935 0.001674189804 0.0016603027682 0.0016466891722 0.0016334544114 
0.0016204425019 0.0016075965606 0.0015949498319 0.0019958552786 0.0019793117481 0.0019629738828 0.0019467573813 0.0019306285947 0.0019143770651 
0.0018982338326 0.001882037316 0.0018658268395 0.001849563164 0.001833532567 0.001817320952 0.0018012181359 0.001785265522 0.001769516677 
0.0017539851215 0.0017387157834 0.0017238009401 0.0017091162472 0.0016947362852 0.0016804956334 0.0016667321096 0.0016531538965 0.0016399484578 
0.0016269788484 0.0016142068879 0.0020270455283 0.002010293812 0.0019937033827 0.0019771922123 0.0019607150498 0.0019440700102 0.0019275077529 
0.0019108741605 0.0018942117605 0.0018775056728 0.0018610323511 0.0018443969417 0.0018278729521 0.0018115063475 0.0017953501288 0.0017794220899 
0.0017637579049 0.0017484547654 0.0017333929844 0.0017186480768 0.0017042331642 0.0016899762644 0.0016762091025 0.0016626387306 0.0016494620353 
0.0016365380718 0.0020612014035 0.0020441565141 0.0020272327036 0.0020103557204 0.001993475794 0.0019764037695 0.0019593984516 0.001942325163 
0.0019251830757 0.0019081011005 0.0018909940513 0.0018741891563 0.0018572756461 0.0018405390372 0.0018240208695 0.0018077306348 0.001791712901 
0.0017760527015 0.0017606334874 0.001745536658 0.0017307706434 0.0017161755872 0.0017020855183 0.0016883194799 0.0016747330676 0.0016615966483 
0.0020975931735 0.0020801562692 0.0020628183794 0.0020455123829 0.0020281802637 0.002010796272 0.0019931946427 0.0019756749185 0.0019581249024 
0.0019406148848 0.001923132335 0.0019059737818 0.0018887369192 0.0018716858243 0.0018548619095 0.0018382699286 0.0018219394924 0.0018059035419 
0.0017902330462 0.0017748125199 0.0017597128044 0.0017449463842 0.0017303512113 0.0017162526248 0.0017024777024 0.0016888812683 0.0021352791736 
0.0021173473849 0.0020995045244 0.00208168576 0.0020638359285 0.0020459452824 0.002027871733 0.0020099133875 0.0019919556616 0.0019740778755 
0.0019562700346 0.0019386006122 0.0019213103557 0.0019040071933 0.0018869466461 0.0018701239956 0.0018535663699 0.0018372846189 0.0018213514977 
0.001805649658 0.0017902409046 0.0017751542943 0.0017602239579 0.0017457786484 0.001731650934 0.0017178372509 0.0021729567446 0.0021544196129 
0.0021359811708 0.0021175804748 0.0020991765037 0.0020807648543 0.0020622114622 0.0020438175569 0.0020254820131 0.0020072287034 0.0019891786574 
0.0019712674868 0.0019537748533 0.0019362989125 0.0019190830157 0.0019021095344 0.0018854122458 0.001868955078 0.0018528285033 0.0018369030637 
0.001821247028 0.0018058752072 0.0017906295181 0.0017758348229 0.0017613426378 0.0017471472144 0.002209032322 0.0021898005516 0.0021706960681 
0.0021516665759 0.0021326722007 0.0021137234283 0.0020948291213 0.0020758842589 0.0020572012439 0.0020386603112 0.0020203941734 0.0020023127321 
0.0019844856737 0.0019671339327 0.0019498520837 0.0019328181712 0.0019160391456 0.0018995015649 0.0018831997986 0.0018671862023 0.0018513488396 
0.0018357403718 0.0018203727146 0.0018051052382 0.0017902559507 0.0017756617907 0.0022416792729 0.0022217673803 0.0022019442839 0.0021822456578 
0.0021626507213 0.0021431555912 0.0021237964103 0.0021044669425 0.0020854767385 0.002066704329 0.0020482814748 0.0020301083469 0.0020122466241 
0.0019948990892 0.0019776512996 0.0019606615413 0.0019439181599 0.0019273943889 0.0019110678514 0.0018949827094 0.0018790159015 0.0018632231877 
0.0018476240364 0.0018320692338 0.0018168909208 0.0018019210382 0.0022693142845 0.0022485404012 0.0022280557896 0.0022076769262 0.0021874738389 
0.0021674536785 0.002147654415 0.0021279739023 0.0021087239605 0.0020897818731 0.0020712272337 0.0020530932551 0.0020352897567 0.002017847342 
0.0020009410012 0.0019841017791 0.001967500861 0.0019510915205 0.0019348366648 0.001918767109 0.0019027542604 0.0018868515747 0.0018710748506 
0.0018554283151 0.0018397893023 0.0018244653855 0.0022904363158 0.0022688829133 0.0022475891895 0.0022266251674 0.0022058356179 0.0021853136736 
0.0021651087622 0.0021452563014 0.0021256669479 0.0021066180158 0.0020880510383 0.0020699941445 0.0020523411914 0.0020351108459 0.0020184503899 
0.0020018736412 0.0019855249929 0.001969333346 0.0019532464797 0.0019372255255 0.0019213023666 0.001905360125 0.001889466382 0.0018736324286 
0.0018577363657 0.0018420927112 0.0021256580639 0.0021075289544 0.0020898227537 0.002072619627 0.00205592606 0.0020397249474 0.0020238995778 
0.0020086570121 0.0019938210478 0.001979333638 0.0019652294077 0.0019510323844 0.0019372064234 0.0019234792716 0.0019097878802 0.0018960888089 
0.0018823459421 0.0018685289542 0.0018546235179 0.001840623375 0.0018265325577 0.0018123621869 0.0017981341012 0.001783939146 0.0017696749469 
0.0017554426464 0.0021309987596 0.0021126723157 0.0020949362953 0.00207766195 0.002060918064 0.0020447015899 0.0020289556851 0.0020135589675 
0.0019986990046 0.0019841812932 0.001969936183 0.0019559876462 0.0019418723786 0.0019280518316 0.0019142547654 0.0019004389663 0.0018865682064 
0.001872621515 0.0018585850906 0.0018444556302 0.0018302381002 0.0018159457624 0.0018016008564 0.0017872290299 0.0017729256758 0.0017585930142 
0.0021321688055 0.0021140788311 0.0020962837879 0.0020789387627 0.0020621699697 0.0020459392357 0.0020301880903 0.0020149187041 0.0019999197695 
0.0019853884392 0.001971117785 0.0019571292049 0.0019429589982 0.0019290706744 0.0019151934671 0.0019012882464 0.0018873224425 0.0018732775415 
0.0018591420348 0.0018449144093 0.0018306015342 0.0018162177782 0.001801785437 0.0017873305406 0.0017728823486 0.0017585420978 0.0021307092028 
0.0021125712702 0.0020947440302 0.0020774093209 0.0020605989205 0.0020443612293 0.0020286179803 0.0020133485125 0.0019984743128 0.0019837945518 
0.0019694985043 0.0019554726472 0.0019414595566 0.0019273096119 0.0019133640138 0.0018993943173 0.0018853574857 0.0018712402913 0.001857033827 
0.00184273755 0.0018283594125 0.0018139127638 0.0017994215346 0.001784909698 0.0017704094545 0.0017559542882 0.0021274908875 0.0021090511765 
0.0020914241123 0.0020741372602 0.0020573519972 0.0020411115142 0.0020253287926 0.0020100456561 0.0019951480167 0.0019805664208 0.0019660917019 
0.001951920445 0.0019379423563 0.0019239366889 0.0019097264394 0.0018956854709 0.0018815968188 0.0018674257472 0.0018531713782 0.0018388292472 
0.0018244096677 0.0018099262489 0.0017954006317 0.0017808586581 0.0017663310027 0.0017518512895 0.0021236671685 0.0021052537353 0.0020873486246 
0.0020703237106 0.0020535294712 0.0020372705844 0.0020214900616 0.0020061629743 0.0019911804546 0.0019765279649 0.0019621046634 0.0019478472401 
0.001933647933 0.0019195600573 0.001905274004 0.0018911671526 0.0018770165992 0.0018628044508 0.0018485107309 0.0018341394188 0.0018196978923 
0.0018051984628 0.0017906616573 0.001776112036 0.0017615795481 0.0017470977252 0.0021205700894 0.0021019725715 0.0020840605235 0.002067005493 
0.0020502429596 0.0020339433429 0.0020181192581 0.0020026959158 0.0019876418856 0.0019728718665 0.0019582909811 0.0019439008653 0.0019296178214 
0.0019153643434 0.0019011763482 0.0018867836919 0.0018725586913 0.001858293616 0.0018439636688 0.0018295701596 0.0018151183346 0.0018006176328 
0.0017860866815 0.0017715479141 0.0017570298442 0.0017425632716 0.0021188212574 0.0021002230886 0.0020823001635 0.0020649178389 0.0020483786278 
0.0020320465251 0.0020161261277 0.0020005778988 0.0019853731617 0.0019704313526 0.0019556954957 0.001941093001 0.0019266293832 0.0019123342395 
0.0018978738713 0.0018833598073 0.0018690390438 0.0018546988475 0.0018403272722 0.0018259084545 0.0018114484525 0.0017969530427 0.0017824383387 
0.0017679235044 0.0017534343899 0.0017389990321 0.0021193105033 0.0021008488246 0.0020827656557 0.0020653415676 0.0020484187146 0.002032266824 
0.0020162104771 0.0020005280032 0.0019851220738 0.0019699555158 0.0019549818887 0.001940166699 0.0019254668103 0.001910839825 0.0018964041583 
0.0018817883363 0.0018671370363 0.0018526978895 0.0018382529242 0.0018237990052 0.00180932262 0.0017948310946 0.0017803353238 0.0017658509928 
0.0017513983222 0.0017370072406 0.0021225831147 0.0021041131762 0.0020859981064 0.0020685143922 0.0020514968012 0.0020352115966 0.0020189797284 
0.0020030485837 0.0019873943167 0.001971989004 0.0019567275624 0.0019416153104 0.0019266272735 0.0019117563915 0.0018970741567 0.001882351966 
0.0018673926141 0.001852810992 0.0018382653715 0.0018237467231 0.0018092354977 0.0017947359237 0.0017802532502 0.0017657979078 0.0017513856719 
0.0017370431203 0.0021290269105 0.0021105315817 0.0020923687039 0.0020748035643 0.0020576633781 0.0020409553743 0.0020247671786 0.0020085787189 
0.0019926388497 0.0019768811705 0.0019612839724 0.0019458653995 0.0019305411932 0.0019153507001 0.0019003720887 0.0018854131501 0.0018705299507 
0.0018554350917 0.0018407493957 0.0018261259195 0.0018115576975 0.0017970289387 0.0017825442918 0.0017681069477 0.001753732318 0.0017394351286 
0.002138867384 0.0021203388183 0.0021022483629 0.0020844365651 0.0020671435699 0.0020501826668 0.0020335527698 0.0020173232206 0.0020010585662 
0.0019849457723 0.001968977702 0.0019531418743 0.0019374485973 0.0019219299641 0.0019065307714 0.0018913431107 0.0018762142258 0.0018610225686 
0.0018459908717 0.00183122625 0.0018165611019 0.001801970791 0.0017874593602 0.0017730235794 0.0017586700471 0.001744409269 0.0021522292226 
0.0021336481114 0.0021154693544 0.002097521364 0.0020800481571 0.0020628552732 0.0020459476908 0.0020294176518 0.0020127754553 0.0019962822071 
0.0019799157685 0.0019636740648 0.0019475777655 0.0019316330992 0.0019158607509 0.0019003585732 0.0018849155983 0.0018696429602 0.001854345789 
0.0018392347249 0.0018244228553 0.0018097416865 0.0017951682603 0.0017807060727 0.0017663514471 0.0017521081531 0.002169143775 0.0021504888866 
0.0021321867897 0.0021142169673 0.0020963880535 0.0020789341407 0.0020616669903 0.0020445997996 0.002027822359 0.0020109272116 0.0019941441537 
0.0019774793432 0.0019609608533 0.0019446025596 0.0019284325672 0.0019125214735 0.0018967324468 0.0018811805126 0.0018657949896 0.0018502932448 
0.0018352953995 0.0018204439314 0.0018057762641 0.0017912484631 0.0017768629486 0.0017626119952 0.0021895586901 0.0021707900138 0.0021523319063 
0.002134164632 0.0021160927548 0.0020983462077 0.0020807474535 0.0020633100807 0.0020461330333 0.0020288269147 0.0020116176556 0.0019945215468 
0.0019775733382 0.0019607921014 0.0019442130151 0.0019278330551 0.0019117509086 0.0018958271934 0.0018801660675 0.001864531495 0.0018491693664 
0.0018341542826 0.0018193214359 0.0018046899808 0.0017902301077 0.0017759363329 0.0022133288134 0.0021944042682 0.0021757556036 0.0021573512707 
0.0021389978882 0.002120932158 0.0021029757466 0.0020851509439 0.0020673295084 0.0020498405901 0.0020322032343 0.0020146771887 0.0019973018088 
0.0019801002112 0.0019631094246 0.0019463331118 0.0019298715441 0.0019135920906 0.0018975743253 0.0018818170277 0.0018661774615 0.0018507987331 
0.0018357934216 0.0018210144205 0.0018064138722 0.0017920324166 0.002240233874 0.0022211038161 0.0022022225758 0.0021835232117 0.0021649922838 
0.0021464375117 0.0021280991482 0.0021098238357 0.0020916397101 0.0020734977368 0.0020556687661 0.0020377225898 0.002019932154 0.0020023232853 
0.0019849354985 0.0019677698449 0.0019508613344 0.0019342932506 0.0019179354827 0.0019018589775 0.0018858975899 0.0018703907665 0.0018550517214 
0.0018400746172 0.0018253310091 0.0018107910585 0.0022699142369 0.0022505163821 0.0022313405143 0.0022123233851 0.00219343878 0.0021744996379 
0.0021557632596 0.0021370740801 0.0021184657148 0.0020999096476 0.0020816660728 0.0020633239853 0.0020451405647 0.0020271468725 0.0020093828157 
0.0019918542847 0.0019745868097 0.0019576688678 0.0019409739071 0.0019245722104 0.0019084736506 0.0018925057025 0.0018770013996 0.0018616723214 
0.0018467228673 0.0018320155877 0.0023018940001 0.0022821620105 0.0022626272089 0.0022432350199 0.0022239528925 0.0022046027401 0.0021854456547 
0.0021663415775 0.0021472777022 0.0021283678505 0.0021095128957 0.0020910201133 0.0020724653014 0.002054120104 0.0020360138395 0.0020181454366 
0.0020005500931 0.0019833044039 0.0019662853916 0.0019495678502 0.0019331557702 0.0019168864001 0.0019010923605 0.0018855941304 0.0018702548292 
0.001855337379 0.0023354972843 0.0023153570415 0.0022954144588 0.0022755932073 0.0022558731345 0.0022362343716 0.0022165066618 0.0021969812229 