# vtk DataFile Version 5.1
vtk output
ASCII
DATASET STRUCTURED_POINTS
DIMENSIONS 26 26 26
SPACING 0.08 0.08 0.08
ORIGIN -1 -1 0.5
POINT_DATA 17576
FIELD FieldData 1
potential 1 17576 double
0.4406152878 0.44080377418 0.44105272076 0.44135554984 0.44170408489 0.4420883905 0.44249657996 0.44291465734 0.44332646568 
0.44371321315 0.44405635527 0.44433532973 0.44453174991 0.4446305332 0.4446238298 0.44451117982 0.44429985337 0.44400423599 
0.44364331586 0.44323817238 0.44281005575 0.4423792674 0.44196224322 0.44157457548 0.44122867687 0.44093471118 0.47415662467 
0.47430734899 0.47450740097 0.47475107711 0.47503152245 0.47534055532 0.4756681022 0.47600320343 0.47633286731 0.47664211104 
0.47691660502 0.47714020839 0.47729889814 0.47738075368 0.47738038065 0.47729666029 0.47713470979 0.47690496027 0.4766214369 
0.47630029229 0.47595801875 0.47561103745 0.47527267346 0.47495606825 0.47467189893 0.47442900243 0.50698506247 0.50710297395 
0.5072605612 0.50745299034 0.50767462796 0.50791884621 0.50817761521 0.50844244691 0.50870321732 0.50894828544 0.50916669705 
0.50934579581 0.50947471212 0.50954392728 0.50954943385 0.50948979285 0.50936838118 0.50919265035 0.5089728849 0.50872130091 
0.50845066778 0.5081741386 0.50790234297 0.50764628533 0.50741497251 0.50721603203 0.53850933108 0.53859888357 0.53871977893 
0.53886804428 0.53903915176 0.53922785385 0.53942830255 0.539633931 0.53983726731 0.54002941285 0.54020221872 0.54034569677 
0.54045119141 0.54051120272 0.54052227086 0.54048265163 0.54039452412 0.5402630049 0.54009556078 0.53990135708 0.53969019474 
0.53947253553 0.53925673256 0.53905191073 0.5388655791 0.53870420122 0.56813450932 0.56819974582 0.56828906788 0.56839948047 
0.56852741567 0.56866903132 0.56882010357 0.56897608129 0.56913115606 0.569280278 0.56941597073 0.56953084213 0.56961788548 
0.56967106287 0.56968718137 0.56966426808 0.56960347466 0.56950811549 0.56938363 0.56923668049 0.56907476013 0.56890614248 
0.56873725192 0.5685755973 0.56842737737 0.56829797946 0.5953278904 0.59537235647 0.59543483676 0.59551301082 0.59560435116 
0.59570620185 0.59581586278 0.59593042507 0.59604598208 0.59615926446 0.5962645786 0.59635628738 0.5964285793 0.59647667182 
0.59649682045 0.59648765169 0.59644923816 0.59638350196 0.59629419605 0.59618613935 0.59606495024 0.5959371105 0.59580745882 
0.59568210657 0.59556609465 0.59546386155 0.61966720547 0.61969411269 0.61973391562 0.6197849634 0.6198455666 0.61991419831 
0.61998944316 0.62006978581 0.62015279627 0.62023662701 0.62031700581 0.62038959701 0.62044968666 0.62049315776 0.62051660144 
0.62051849152 0.62049811344 0.62045644339 0.62039588524 0.62031978229 0.6202322353 0.62013826463 0.62004138747 0.61994653023 
0.6198577143 0.61977854683 0.64085395848 0.6408663338 0.64088729432 0.64091579818 0.64095096652 0.64099223049 0.64103928175 
0.64109168868 0.64114815066 0.64120789121 0.64126772304 0.64132434821 0.64137390618 0.64141298204 0.64143841208 0.64144863356 
0.64144239575 0.64141999114 0.64138268257 0.64133264368 0.64127276487 0.64120683313 0.64113727973 0.64106800471 0.6410021644 
0.64094260445 0.65869880564 0.65869936831 0.6587050096 0.65871518568 0.6587297579 0.65874894854 0.6587733282 0.6588033604 
0.6588385053 0.65887873183 0.65892167233 0.65896480189 0.65900502685 0.65903950557 0.65906542406 0.65908130131 0.65908563003 
0.6590780307 0.65905905288 0.65902994463 0.65899254794 0.65894965319 0.65890275648 0.65885488802 0.65880842693 0.65876559332 
0.67309350131 0.67308495114 0.67307858008 0.67307435083 0.67307275425 0.67307470869 0.67308144636 0.67309395324 0.67311243722 
0.6731370976 0.67316631229 0.67319801982 0.6732297881 0.67325932067 0.67328417601 0.6733030792 0.67331439471 0.67331752684 
0.67331236914 0.67329948314 0.67327991603 0.67325560999 0.67322727297 0.673197169 0.67316702233 0.67313843533 0.68398360773 
0.68396849622 0.68395327142 0.68393833075 0.68392469736 0.68391387278 0.68390752214 0.68390702202 0.68391285102 0.68392549735 
0.683943668 0.68396577429 0.68398973397 0.68401405089 0.68403629297 0.68405578228 0.68407077287 0.68408065155 0.68408499825 
0.68408390015 0.68407780116 0.68406796539 0.68405444111 0.68403882587 0.68402225354 0.68400577517 0.6913462951 0.69132705647 
0.69130601697 0.69128391066 0.69126215577 0.69124269734 0.69122746838 0.69121806972 0.69121481823 0.69121858438 0.69122819464 
0.6912422338 0.69125930813 0.69127799129 0.69129635721 0.69131402444 0.69132962474 0.69134251497 0.69135217785 0.69135855456 
0.69136168846 0.6913623345 0.69136003341 0.69135581002 0.69135026763 0.69134395649 0.69517480216 0.69515404879 0.69513022401 
0.69510439629 0.69507831037 0.69505412623 0.69503393618 0.69501926058 0.69501033674 0.69500811962 0.69501140191 0.69501898877 
0.69502977723 0.69504261695 0.69505597592 0.6950698475 0.69508314708 0.69509545854 0.69510651351 0.69511612732 0.69512426914 
0.69513143793 0.69513675392 0.69514085179 0.69514384645 0.69514583232 0.69546979075 0.69545017363 0.69542654917 0.69540044596 
0.69537371742 0.69534862247 0.6953271662 0.69531069733 0.69529915889 0.69529363646 0.6952926626 0.69529521354 0.69530038364 
0.6953072575 0.69531465085 0.69532291945 0.69533133065 0.69533983232 0.69534844036 0.69535721035 0.69536615892 0.69537577228 
0.69538503773 0.69539425906 0.69540321637 0.69541161052 0.69223470568 0.69221883442 0.69219860535 0.69217571454 0.69215205359 
0.69212977581 0.6921106596 0.69209571173 0.69208460373 0.69207818082 0.692074891 0.69207372267 0.69207390761 0.69207472627 
0.6920752896 0.69207633037 0.6920774818 0.6920791223 0.69208172346 0.69208563851 0.69209128447 0.69209924422 0.69210863806 
0.6921196461 0.69213181116 0.69214453205 0.68547600178 0.6854665551 0.68545302641 0.68543694778 0.68542011308 0.6854043962 
0.68539119207 0.68538100962 0.68537325978 0.68536833114 0.68536457756 0.68536093126 0.68535670833 0.68535133821 0.685344168 
0.68533644546 0.68532808856 0.68531999544 0.68531310993 0.68530839166 0.68530665231 0.68530887755 0.68531445663 0.68532370787 
0.68533612323 0.68535102292 0.67520688775 0.67520705738 0.67520380201 0.67519820915 0.6751920915 0.67518679257 0.67518312829 
0.67518107338 0.6751795281 0.67517850279 0.67517608793 0.67517114002 0.67516299636 0.67515122044 0.67513541171 0.67511717002 
0.67509709065 0.67507637829 0.67505668011 0.67503954995 0.67502641657 0.67501883279 0.6750166381 0.67502047749 0.67503001212 
0.67504452052 0.66145741186 0.66147042317 0.66148107126 0.66149008197 0.66149881172 0.66150794286 0.66151762809 0.66152713994 
0.66153479816 0.6615401345 0.66154079849 0.66153580278 0.66152412788 0.66150555219 0.66147995391 0.66144940701 0.66141502257 
0.66137866465 0.66134266324 0.66130932793 0.66128079719 0.66125934048 0.6612454163 0.66124014522 0.66124356464 0.66125508187 
0.64428894649 0.64431831644 0.64434686075 0.64437479614 0.64440276217 0.64443065358 0.64445770363 0.6444825459 0.64450274398 
0.64451690239 0.64452273851 0.64451870134 0.64450375523 0.64447777074 0.64444092726 0.64439582832 0.6443442478 0.64428879701 
0.64423267463 0.64417906958 0.64413103111 0.6440915937 0.64406199012 0.64404395881 0.64403812032 0.64404389764 0.62381621361 
0.62386574152 0.6239165103 0.62396803036 0.62402000559 0.62407138797 0.62412032498 0.62416453223 0.62420074425 0.62422677159 
0.62423980252 0.62423786836 0.62421979183 0.62418541725 0.62413551646 0.62407310107 0.6240007815 0.62392218415 0.62384155275 
0.6237631859 0.62369114138 0.62362941228 0.62358012246 0.62354570847 0.62352738299 0.62352512025 0.60023465825 0.60030846634 
0.60038619176 0.6004664407 0.60054757537 0.60062757111 0.60070344832 0.60077167083 0.60082796296 0.60086919279 0.60089177857 
0.60089320677 0.60087200047 0.60082800987 0.60076254072 0.60067924419 0.60058182902 0.60047514276 0.60036478532 0.60025639133 
0.60015526307 0.60006659955 0.59999342129 0.59993898723 0.59990516383 0.59989246779 0.57384751112 0.57395028806 0.57405994411 
0.5741744241 0.57429063189 0.57440514746 0.57451363686 0.57461119969 0.57469230303 0.57475263005 0.57478751329 0.57479369174 
0.57476923517 0.57471394439 0.57462966102 0.57452097287 0.57439287371 0.57425204303 0.57410559139 0.57396092113 0.57382487837 
0.57370400643 0.57360241066 0.5735243565 0.57347201534 0.57344675868 0.54508004665 0.5452166584 0.54536414649 0.54551909233 
0.54567698635 0.54583259971 0.54598029509 0.54611343542 0.54622496952 0.54630888271 0.54635949906 0.54637205553 0.54634404799 
0.54627524669 0.54616797994 0.54602811517 0.54586240848 0.54567970998 0.54548936663 0.54530090039 0.54512310507 0.5449639453 
0.5448289863 0.54472328253 0.54464971045 0.54461059952 0.51446550072 0.51464164618 0.51483335645 0.51503574736 0.51524262239 
0.51544710934 0.51564164753 0.51581775546 0.5159663984 0.51607958155 0.5161497925 0.51617069622 0.51613875981 0.51605350527 
0.51591791605 0.51573949555 0.51552738711 0.51529329583 0.51504946716 0.51480816054 0.51458047965 0.51437620276 0.51420230146 
0.51406478539 0.51396716694 0.51391217065 0.4825962665 0.48281844318 0.48306167033 0.48331942272 0.48358377287 0.48384591753 
0.48409620556 0.48432390108 0.48451758789 0.48466673182 0.48476131401 0.48479298612 0.48475653302 0.48465106277 0.48448033339 
0.48425403242 0.48398451024 0.48368725912 0.48337834033 0.48307343325 0.48278642798 0.48252922985 0.48231034997 0.48213649873 
0.48201204496 0.48194018557 0.45005741567 0.45033309493 0.45063608212 0.45095821452 0.45128972433 0.45161968396 0.45193589261 
0.45222522036 0.45247322586 0.45266619852 0.45279089781 0.45283600872 0.45279416895 0.45266365612 0.45244920125 0.45216338234 
0.45182288303 0.45144822463 0.4510604107 0.4506793967 0.45032234993 0.45000352198 0.4497329582 0.4495182752 0.44936427128 
0.44927430504 0.42830147227 0.42847092846 0.42869404102 0.42896448063 0.42927441293 0.42961439612 0.42997328783 0.43033821885 
0.43069471719 0.43102639048 0.43131785975 0.43155232186 0.43171546008 0.43179560173 0.43178714514 0.43168996928 0.43150970542 
0.43125754742 0.43094850846 0.43059966563 0.4302287551 0.4298532835 0.42948762933 0.42914595948 0.42883975827 0.42857861968 
0.45827871066 0.45841544195 0.45859637938 0.45881607062 0.45906797739 0.45934431975 0.45963557612 0.45993158537 0.4602205514 
0.46048921925 0.46072555561 0.46091615222 0.46104981467 0.46111725523 0.46111408788 0.46104006282 0.4608991312 0.46069968644 
0.46045311627 0.46017280604 0.45987270683 0.45956711431 0.45926769302 0.45898639538 0.45873302382 0.45851585901 0.48752790491 
0.48763610151 0.48778025394 0.48795578182 0.48815730629 0.48837848017 0.48861160763 0.48884865043 0.48908021611 0.48929581692 
0.48948612792 0.48964048793 0.48975010606 0.48980727076 0.48980915349 0.48975466202 0.48964663928 0.48949127001 0.48929711157 
0.48907448574 0.4888343427 0.48858824032 0.488345504 0.48811613601 0.48790839239 0.48772937761 0.51557386201 0.51565733266 
0.51576964283 0.51590699681 0.51606507568 0.51623877153 0.51642232468 0.51660928583 0.51679248262 0.51696368459 0.51711586172 
0.51724051081 0.51733049124 0.51738000663 0.51738631583 0.51734817199 0.51726753854 0.51714878617 0.5169982729 0.51682388071 
0.51663411938 0.51643826572 0.51624366201 0.51605861276 0.51588999557 0.51574380768 0.54194687088 0.54200916654 0.54209401483 
0.542198608 0.54231949125 0.54245281046 0.54259419382 0.54273889039 0.54288101847 0.54301579768 0.54313647378 0.54323680075 
0.54331104609 0.54335440027 0.54336458098 0.54334006896 0.54328213917 0.54319363207 0.54307934026 0.54294507336 0.54279741981 
0.54264378207 0.54248980946 0.5423423555 0.54220709558 0.54208901755 0.56621881408 0.56626302732 0.56632456599 0.56640125342 
0.56649058274 0.5665897294 0.56669562156 0.56680487602 0.56691321318 0.56701732949 0.56711196625 0.56719233479 0.56725370255 
0.56729206231 0.56730546795 0.56729220412 0.5672528695 0.56718928252 0.56710483011 0.56700379764 0.56689118639 0.56677284908 
0.56665303898 0.56653735238 0.56643039925 0.56633630362 0.58803166882 0.58806063445 0.58810251773 0.58815574773 0.58821857794 
0.58828912839 0.58836542001 0.58844524095 0.58852557718 0.58860434064 0.5886774695 0.58874127446 0.5887919317 0.58882628545 
0.58884177913 0.58883753293 0.58881321374 0.58876990031 0.58870988706 0.58863622539 0.58855263245 0.58846368613 0.58837247614 
0.588283533 0.58820054119 0.58812683704 0.60710942914 0.60712583885 0.60715145174 0.60718524422 0.60722613925 0.60727308412 
0.6073250251 0.60738067694 0.60743802626 0.60749593301 0.60755129219 0.60760127536 0.60764274808 0.60767312677 0.60769004267 
0.60769260991 0.60768006862 0.6076529933 0.60761272742 0.60756137616 0.60750162111 0.6074369773 0.60736958643 0.60730305606 
0.6072402851 0.60718390645 0.62325483436 0.62326110866 0.62327356704 0.62329160406 0.62331475766 0.62334261624 0.62337487837 
0.6234110193 0.62344977364 0.62349069084 0.6235314061 0.62356975631 0.62360321189 0.62362962648 0.62364688594 0.62365416215 
0.62365042764 0.6236358985 0.62361117859 0.62357767225 0.62353720081 0.62349243448 0.62344470054 0.62339683843 0.62335104624 
0.62330938736 0.63633578473 0.63633433374 0.63633656437 0.6363422806 0.63635151797 0.63636442241 0.63638123889 0.63640196639 
0.6364260565 0.63645332085 0.63648211762 0.63651065658 0.63653696 0.63655928472 0.63657576819 0.63658571593 0.63658801733 
0.63658254188 0.63656953791 0.63654980911 0.63652453112 0.63649567458 0.63646390544 0.63643140254 0.63639977738 0.63637055869 
0.64626960021 0.64626269454 0.64625749003 0.64625411543 0.64625300427 0.64625476505 0.64626001303 0.64626914955 0.64628195887 
0.64629858509 0.6463177379 0.64633805901 0.64635791563 0.64637594179 0.64639047619 0.64640120273 0.64640684146 0.64640722239 
0.646402334 0.64639259768 0.646378714 0.64636211366 0.64634292938 0.64632278143 0.64630280251 0.6462840101 0.65300814031 
0.65299792881 0.6529879581 0.65297859098 0.65297050823 0.65296466737 0.65296194135 0.6529628968 0.65296754925 0.65297621148 
0.65298783546 0.65300121429 0.65301525404 0.65302886671 0.65304046756 0.65305002986 0.65305654958 0.65305976059 0.65305953013 
0.65305616992 0.65305005905 0.65304222964 0.65303242928 0.65302183607 0.65301113433 0.65300093962 0.65652616635 0.6565150343 
0.65650289014 0.65649050893 0.65647872181 0.65646863331 0.65646128317 0.65645735053 0.65645658281 0.65645976318 0.65646575466 
0.65647356794 0.65648236132 0.65649124954 0.6564989561 0.65650572745 0.65651071985 0.65651380821 0.65651502864 0.6565145358 
0.65651265209 0.65651021445 0.65650666374 0.65650287954 0.65649918542 0.65649583789 0.65681449109 0.65680461648 0.656793035 
0.65678062016 0.65676829865 0.65675723766 0.65674844154 0.65674253577 0.65673908718 0.65673909866 0.65674122315 0.65674464867 
0.65674870298 0.6567527007 0.65675563278 0.65675801975 0.65675928656 0.65675955606 0.6567590341 0.65675804848 0.65675691212 
0.65675645969 0.65675603904 0.65675629867 0.65675733186 0.6567591126 0.65387612905 0.65386969317 0.65386135782 0.65385191767 
0.65384226322 0.65383342296 0.65382630406 0.65382130317 0.65381783707 0.65381675502 0.65381667164 0.65381679944 0.65381659463 
0.65381549616 0.65381283452 0.65380935777 0.65380479727 0.65379959973 0.65379431041 0.65378948812 0.65378569254 0.65378384812 
0.65378339055 0.65378489486 0.65378830366 0.65379348985 0.6477257648 0.64772533963 0.64772310704 0.64771970155 0.64771590695 
0.64771254325 0.64771020394 0.64770893845 0.64770802374 0.64770793223 0.64770722945 0.64770508718 0.64770104006 0.6476946413 
0.64768545954 0.64767466606 0.64766222111 0.64764900315 0.64763594487 0.64762403378 0.64761417809 0.64760754455 0.64760381258 
0.64760365635 0.64760699752 0.64761361073 0.63839424638 0.63840242803 0.63840933045 0.63841510105 0.63842051151 0.63842594114 
0.63843153804 0.63843695545 0.63844108295 0.63844408338 0.638444306 0.63844086588 0.63843331904 0.6384213253 0.63840471288 
0.63838492241 0.63836253962 0.63833867908 0.63831487093 0.63829258681 0.63827322791 0.63825839953 0.63824813424 0.638243345 
0.63824409973 0.63825015893 0.62593533466 0.6259548637 0.62597396895 0.62599243037 0.62601058415 0.62602826937 0.62604511976 
0.62606022895 0.62607201519 0.6260802412 0.62608286255 0.62607917577 0.6260683879 0.62605035141 0.6260251833 0.62599471547 
0.62596000449 0.62592272725 0.62588501874 0.62584895653 0.62581663194 0.62579014245 0.62577002574 0.62575757999 0.62575316414 
0.62575663622 0.61043699778 0.6104708633 0.61050555859 0.61054037809 0.61057503049 0.61060872143 0.61064029367 0.61066837812 
0.61069063261 0.61070627483 0.61071309076 0.61070995065 0.6106960626 0.61067135631 0.61063625695 0.61059303841 0.61054335404 
0.6104895437 0.61043449567 0.61038108815 0.61033209814 0.61029036385 0.61025703433 0.61023390189 0.61022179952 0.61022053295 
0.59203595854 0.59208740173 0.59214136002 0.59219658052 0.5922517416 0.59230549531 0.59235572227 0.59240024946 0.59243613165 
0.59246160037 0.59247428048 0.59247258865 0.59245562778 0.59242338457 0.59237661419 0.59231816328 0.59225034536 0.59217639299 
0.59210010518 0.59202533292 0.59195572831 0.59189496003 0.59184494457 0.59180805272 0.59178559673 0.59177788629 0.5709335434 
0.57100610687 0.57108336922 0.57116323673 0.57124345912 0.57132166866 0.57139487278 0.5714598087 0.5715126427 0.57155080448 
0.57157125887 0.57157197511 0.57155182344 0.57151081865 0.57145021544 0.57137340886 0.57128366919 0.57118528045 0.57108321131 
0.57098246832 0.57088780117 0.57080393252 0.57073356097 0.57067977758 0.57064442858 0.57062823553 0.54740841998 0.54750619133 
0.54761100473 0.54772029883 0.54783057586 0.54793828116 0.54803925056 0.54812904592 0.54820273926 0.54825674642 0.54828711802 
0.54829123519 0.54826763215 0.54821632463 0.54813906532 0.54804005685 0.54792364934 0.54779570291 0.54766244427 0.54753039071 
0.54740563659 0.54729409666 0.54719943553 0.54712563089 0.54707479575 0.54704839977 0.52181965788 0.52194686239 0.52208435114 
0.52222842053 0.52237435466 0.52251713085 0.52265137212 0.52277112896 0.52287019766 0.52294352821 0.52298642996 0.52299503142 
0.52296748779 0.52290389724 0.52280644256 0.52268041782 0.52253163853 0.52236775369 0.52219683659 0.52202720385 0.521866615 
0.52172222366 0.52159902218 0.52150171887 0.52143305991 0.52139543163 0.49459420767 0.49475581659 0.49493149566 0.49511630259 
0.49530411073 0.49548836195 0.49566210059 0.49581774051 0.49594738509 0.49604435257 0.49610250594 0.49611679566 0.49608467914 
0.49600617356 0.49588409297 0.49572509228 0.4955368916 0.49532943159 0.49511312344 0.4948985492 0.49469542467 0.49451251537 
0.49435618862 0.49423172258 0.49414281727 0.49409213331 0.46619789618 0.46639953285 0.46661965302 0.46685188676 0.4670885962 
0.46732152059 0.46754185513 0.46774006812 0.46790626192 0.46803169957 0.46810835599 0.46812964147 0.46809199215 0.46799527836 
0.46784305735 0.4676437526 0.46740757466 0.46714737649 0.4668765831 0.46660854059 0.46635531687 0.46612753319 0.46593289596 
0.46577770058 0.46566618957 0.46560164791 0.43709883635 0.43734686539 0.43761837793 0.43790552973 0.43819903678 0.43848873363 
0.43876353418 0.43901187213 0.43922132482 0.43938064239 0.43947935698 0.43950894818 0.43946440213 0.43934531595 0.43915620197 
0.43890774476 0.43861337782 0.43828970983 0.43795392543 0.43762276285 0.43731104184 0.43703146696 0.43679321313 0.43660352579 
0.43646716445 0.43638768281 0.4161999387 0.41635053718 0.41654819171 0.41678692366 0.41705938587 0.41735680658 0.41766898153 
0.41798433784 0.41829016349 0.41857235469 0.41881832123 0.4190143836 0.41914933228 0.41921410422 0.41920469253 0.4191211847 
0.41896798727 0.41875388966 0.41849081047 0.41819256021 0.41787383862 0.41754957856 0.41723212837 0.4169341375 0.41666601381 
0.41643641111 0.44307600609 0.44319860744 0.44336033352 0.44355604908 0.44377963195 0.44402383096 0.44427984441 0.44453847788 
0.44478923884 0.44502056666 0.44522248916 0.44538389525 0.44549585764 0.44555094739 0.44554607189 0.44548108288 0.44535919715 
0.44518719629 0.44497432749 0.44473164434 0.44447085855 0.4442042966 0.44394200358 0.44369469178 0.4434712144 0.44327919329 
0.46923542077 0.46933350598 0.46946374489 0.46962183008 0.46980270712 0.47000041892 0.47020776583 0.47041736439 0.4706207198 
0.47080854416 0.47097300682 0.47110513688 0.47119782387 0.4712447802 0.47124409676 0.47119490285 0.47109962905 0.47096340346 
0.47079333074 0.47059809217 0.4703870065 0.47017014396 0.46995556554 0.46975224942 0.46956766294 0.46940832543 0.49428697023 
0.49436375006 0.49446663946 0.49459206767 0.4947359362 0.49489340482 0.49505897147 0.49522655038 0.49538952333 0.49554044962 
0.49567335365 0.49578098283 0.49585757014 0.49589815347 0.49590099965 0.49586516498 0.49579231115 0.49568620515 0.49555224315 
0.49539717183 0.49522832774 0.49505387769 0.4948801896 0.49471473341 0.49456375973 0.49443274443 0.51784755322 0.51790607186 
0.51798531507 0.51808263902 0.51819472592 0.51831781613 0.51844761808 0.5185794843 0.51870829112 0.51882816985 0.51893463734 
0.51902185913 0.51908510548 0.51912048795 0.51912639851 0.51910167471 0.51904756887 0.51896658411 0.51886290875 0.51874157954 
0.5186083655 0.5184698501 0.51833093881 0.51819783922 0.51807569666 0.51796908166 0.53956385521 0.53960677201 0.5396659392 
0.53973928454 0.53982434147 0.53991824219 0.54001780247 0.54011952934 0.54021913635 0.54031352322 0.54039789737 0.54046815726 
0.54052037546 0.54055133144 0.54055970427 0.54054419239 0.54050551808 0.54044537728 0.54036681726 0.54027363709 0.54017027233 
0.54006199021 0.53995248936 0.53984686739 0.53974931468 0.53966361353 0.55913024989 0.55916001756 0.55920226516 0.55925545819 
0.55931777695 0.55938717073 0.5594614045 0.55953796482 0.55961364717 0.55968637501 0.55975236208 0.5598084247 0.55985138983 
0.55987846599 0.55988863974 0.55988052415 0.55985434724 0.55981122977 0.55975332962 0.55968342613 0.55960487699 0.55952185901 
0.5594370642 0.55935464374 0.55927796693 0.55921009766 0.57629808119 0.57631706583 0.57634532377 0.57638181066 0.57642529061 
0.57647442037 0.57652772134 0.57658350509 0.57663942698 0.57669422908 0.57674494732 0.57678911427 0.57682414015 0.57684800652 
0.57685889954 0.57685639344 0.57684004964 0.57681060959 0.57676943871 0.57671853887 0.57666040145 0.5765982929 0.57653408763 
0.57647112819 0.57641207578 0.57635936385 0.59087662731 0.59088693851 0.59090392586 0.59092689004 0.59095512234 0.59098780668 
0.59102412632 0.59106304983 0.59110287403 0.591142996 0.59118108442 0.59121524613 0.59124336943 0.59126380192 0.59127491756 
0.59127633929 0.59126739768 0.59124856035 0.59122057212 0.59118487149 0.59114322766 0.59109819417 0.59105094754 0.59100416035 
0.59095987548 0.5909200122 0.60272687375 0.60273063761 0.60273890973 0.60275132998 0.60276759759 0.60278736025 0.60281027038 
0.60283584 0.60286282194 0.60289107595 0.60291884327 0.60294457014 0.60296659116 0.60298357301 0.60299407128 0.60299780033 
0.60299401149 0.60298286878 0.60296483914 0.60294086393 0.60291218148 0.60288076065 0.60284722261 0.60281367197 0.60278163957 
0.6027525806 0.61175300453 0.61175220476 0.61175419061 0.61175887219 0.61176623984 0.61177633212 0.61178912464 0.61180442183 
0.61182157257 0.61184049922 0.61185989577 0.6118785579 0.61189511764 0.61190853782 0.61191750017 0.61192203814 0.61192120214 
0.61191511471 0.61190403251 0.61188856873 0.61186957641 0.61184858522 0.61182577577 0.61180278437 0.61178074063 0.61176065342 
0.61789288704 0.61788948137 0.61788751771 0.61788713071 0.61788850123 0.61789195283 0.61789769083 0.61790569929 0.61791559369 
0.6179274695 0.61794027975 0.61795295128 0.61796470008 0.61797441094 0.61798106175 0.61798481012 0.61798492676 0.61798135387 
0.61797438195 0.61796438124 0.61795199426 0.61793841601 0.61792353137 0.6179086163 0.61789443035 0.61788164938 0.62111047776 
0.62110638862 0.62110271393 0.62109983551 0.62109802016 0.62109770056 0.62109925015 0.62110280055 0.62110774086 0.62111469555 
0.62112253637 0.62113039586 0.62113770443 0.62114352655 0.62114705781 0.62114867096 0.62114772801 0.62114431661 0.62113869016 
0.62113120947 0.62112242563 0.62111338108 0.62110371117 0.62109446619 0.62108612045 0.62107906309 0.62139007987 0.62138727243 
0.62138425817 0.62138146483 0.62137918574 0.62137790761 0.62137799389 0.62137957734 0.6213820071 0.62138594428 0.62139031209 
0.62139434504 0.62139753706 0.62139937306 0.62139900543 0.6213971039 0.62139323436 0.62138766117 0.62138074364 0.62137297308 
0.62136488766 0.62135749313 0.62135038997 0.62134442963 0.62133994384 0.6213370766 0.61873423887 0.61873457987 0.61873454071 
0.61873440023 0.61873441263 0.61873491661 0.61873622894 0.61873832426 0.61874039707 0.61874324184 0.61874554664 0.61874665734 
0.61874618572 0.6187437072 0.61873869117 0.61873196055 0.61872332956 0.61871331481 0.61870250596 0.61869166952 0.61868140159 
0.61867283899 0.61866563521 0.61866060854 0.61865796227 0.61865783215 0.61316274514 0.6131684597 0.61317384529 0.61317898862 
0.61318401818 0.61318910228 0.61319431909 0.61319936892 0.6132033869 0.61320685334 0.61320844433 0.61320748088 0.61320364981 
0.61319662956 0.61318606432 0.61317318865 0.61315796462 0.61314127258 0.61312404529 0.61310729209 0.61309198382 0.61307940171 
0.61306940105 0.61306288508 0.6130600516 0.61306097917 0.60471632058 0.60472962681 0.60474303483 0.60475613111 0.60476904516 
0.60478156605 0.60479339714 0.60480395808 0.60481206658 0.6048179617 0.60482014576 0.6048179047 0.6048109497 0.60479905093 
0.60478209007 0.60476150502 0.60473785019 0.60471215266 0.60468586349 0.60466038636 0.60463709407 0.60461762156 0.6046021071 
0.60459164546 0.60458656244 0.60458693493 0.59346131586 0.59348455285 0.59350858447 0.59353264272 0.59355646775 0.59357938941 
0.59360070205 0.59361935872 0.5936338071 0.59364395332 0.59364795586 0.59364531127 0.59363539234 0.59361815238 0.59359373526 
0.59356392566 0.59352967276 0.59349250022 0.59345436964 0.59341719358 0.59338293276 0.59335361745 0.59332980121 0.59331289137 
0.59330356101 0.5933016501 0.57949744263 0.57953316578 0.57957070258 0.57960884513 0.57964678335 0.57968331876 0.57971707336 
0.5797466497 0.57976983483 0.57978613357 0.57979342062 0.57979097964 0.57977814707 0.5797549528 0.57972181544 0.579680911 
0.57963370921 0.57958229959 0.57952930532 0.57947731603 0.57942887188 0.57938663465 0.57935166878 0.5793257873 0.57930996443 
0.57930442404 0.5629668241 0.56301781018 0.56307199302 0.56312765998 0.56318310991 0.56323671755 0.56328627301 0.56332970921 
0.56336430728 0.56338865079 0.56340067536 0.56339913286 0.56338333234 0.56335336429 0.563309957 0.56325576257 0.56319284377 
0.56312405845 0.56305279294 0.56298250191 0.56291645548 0.56285803063 0.56280895103 0.56277151259 0.56274708335 0.56273616591 
0.54406268562 0.54413197773 0.54420622701 0.544283033 0.54435987848 0.54443426822 0.5445032751 0.54456388378 0.54461264316 
0.54464743461 0.54466568266 0.54466574348 0.54464678647 0.5446089445 0.54455332444 0.54448316007 0.54440128108 0.54431144368 
0.54421803518 0.54412548382 0.54403801502 0.54395991857 0.54389358638 0.54384204613 0.54380679051 0.54378899365 0.52303482146 
0.52312596107 0.52322388845 0.52332587994 0.52342833573 0.52352774632 0.52362018603 0.52370163573 0.52376772085 0.52381547845 
0.52384158072 0.52384393105 0.52382145212 0.52377430218 0.52370412243 0.52361474632 0.52350991763 0.52339475716 0.52327467009 
0.52315537064 0.5230422431 0.52294058016 0.52285365665 0.52278515574 0.52273710028 0.52271150304 0.5001885302 0.500305128 
0.5004311278 0.5005628287 0.50069559563 0.50082464339 0.50094503373 0.50105143685 0.50113842268 0.50120179198 0.50123770431 
0.50124302635 0.50121644847 0.50115827829 0.50107053339 0.50095797091 0.50082554751 0.50067984226 0.50052778023 0.50037657366 
0.50023301371 0.50010347498 0.49999238274 0.49990408596 0.49984117293 0.49980603531 0.47587485067 0.47602115979 0.4761799022 
0.47634631063 0.4765145327 0.4766784609 0.47683179408 0.47696782171 0.47707970104 0.47716191583 0.4772095057 0.47721847954 
0.47718704452 0.4771155614 0.4770066128 0.47686608028 0.47670044467 0.47651811778 0.47632789982 0.4761388617 0.4759594326 
0.4757973752 0.47565834562 0.4755471879 0.47546739551 0.47542190858 0.45047228097 0.4506530566 0.45084978572 0.45105640086 
0.45126584761 0.45147050837 0.45166227228 0.45183304157 0.45197425476 0.45207875213 0.4521401618 0.45215339604 0.4521160179 
0.45202840858 0.45189382817 0.45171958817 0.45151410811 0.45128805468 0.45105260019 0.45081902874 0.45059772894 0.45039805751 
0.45022686252 0.45008995963 0.44999134614 0.44993432298 0.42436476852 0.4245853332 0.4248257893 0.42507877694 0.42533569445 
0.42558727369 0.42582363495 0.42603475251 0.42621008683 0.42634054344 0.42641797554 0.42643589382 0.42639106525 0.42628383753 
0.4261183367 0.425903649 0.42565062232 0.42537275305 0.42508407515 0.42479857299 0.42452888949 0.42428617469 0.42407862023 
0.42391294482 0.42379371694 0.42372453823 0.40437945238 0.40451193945 0.40468527164 0.40489389865 0.40513109518 0.40538884067 
0.40565798112 0.40592829119 0.40618876838 0.40642738936 0.40663394847 0.40679729883 0.4069086374 0.40696084848 0.40695107578 
0.40687952769 0.40674968395 0.40656851082 0.40634552295 0.4060918984 0.40581977364 0.40554180697 0.4052684353 0.40501080442 
0.40477817914 0.40457839367 0.42854494814 0.42865373919 0.42879677745 0.42896933544 0.4291657378 0.42937937109 0.42960224456 
0.42982619695 0.43004203302 0.43023978006 0.4304112512 0.430547253 0.43064065223 0.43068545344 0.43067954299 0.43062281754 
0.43051791344 0.43037033865 0.43018765907 0.42997886775 0.42975387307 0.42952320069 0.42929537534 0.42907987649 0.42888459641 
0.42871625001 0.45201678877 0.45210473666 0.4522210992 0.45236189762 0.45252243386 0.45269722971 0.45287968212 0.4530631579 
0.45324011002 0.45340240951 0.4535435609 0.45365601801 0.45373394069 0.45377259319 0.45376999412 0.45372602377 0.45364259828 
0.45352396731 0.45337603369 0.45320607952 0.45302199289 0.45283249537 0.45264446069 0.45246586884 0.45230338864 0.45216289559 
0.47446748155 0.47453725075 0.47463035402 0.47474345806 0.47487273988 0.47501369022 0.47516119572 0.47530967454 0.47545315447 
0.47558500951 0.4757002348 0.47579264109 0.47585749734 0.47589071968 0.4758911519 0.47585806215 0.47579292332 0.47569895113 