# vtk DataFile Version 5.1
vtk output
ASCII
DATASET STRUCTURED_POINTS
DIMENSIONS 26 26 26
SPACING 0.08 0.08 0.08
ORIGIN -1 -1 0.5
POINT_DATA 17576
FIELD FieldData 1
potential 1 17576 double
0.0020189628194 0.0020084735273 0.0019983001283 0.0019884628136 0.0019789406696 0.001969770978 0.0019608721745 0.001952300928 0.0019439571449 
0.0019357875079 0.0019277665325 0.001919839361 0.0019119835265 0.0019041688209 0.0018963931578 0.0018886156064 0.0018808220104 0.0018729434906 
0.0018649761698 0.0018568981919 0.0018487001406 0.0018403768894 0.0018319467281 0.0018234247971 0.0018148302637 0.0018061930363 0.0019983631244 
0.0019881681829 0.0019783379929 0.0019688596153 0.0019597888503 0.0019510184168 0.0019426240625 0.0019345015479 0.0019265759659 0.0019187799675 
0.0019110436295 0.0019033251794 0.0018955986328 0.0018878294356 0.0018800246799 0.0018721766005 0.0018642290516 0.0018561923319 0.0018480519422 
0.0018398022138 0.0018314399077 0.0018229774738 0.0018144320384 0.0018058195782 0.0017971689729 0.0017885056814 0.0019693015705 0.0019594391716 
0.0019499633498 0.001940934321 0.0019323248804 0.001924030313 0.0019161304166 0.0019084912602 0.0019010124105 0.0018936015919 0.0018861827889 
0.0018787027016 0.0018711351019 0.0018634478673 0.0018556583653 0.0018477701551 0.0018397464275 0.0018316050337 0.0018233469595 0.0018149771083 
0.001806503606 0.0017979465274 0.0017893256549 0.0017806628441 0.001771986656 0.0017633313952 0.001933905093 0.0019243773555 0.0019153362071 
0.00190675926 0.001898633525 0.0018908309365 0.0018834427573 0.0018763027306 0.001869264677 0.0018622421728 0.0018551446332 0.0018479120543 
0.0018405186124 0.0018329416243 0.0018252190678 0.001817316499 0.001809261544 0.0018010634813 0.0017927374274 0.0017842979009 0.0017757594896 
0.0017671491159 0.0017584915345 0.001749817198 0.0017411498524 0.0017325277103 0.0018946927883 0.0018855524686 0.0018769361012 0.0018688242044 
0.0018611870421 0.0018538959142 0.0018470013005 0.0018403227296 0.0018337120438 0.0018270578405 0.0018202645685 0.0018132671802 0.0018060295726 
0.0017986040599 0.0017909400564 0.0017830687823 0.0017750192987 0.0017668068184 0.0017584553681 0.0017499867393 0.0017414267777 0.0017328014952 
0.0017241425731 0.0017154814392 0.0017068532758 0.0016982936381 0.001854096915 0.0018453878943 0.0018372110289 0.001829562073 0.0018224208026 
0.0018155952467 0.0018091711495 0.0018029176658 0.0017966924581 0.0017903612165 0.0017838285524 0.0017770434912 0.0017699582428 0.0017626452809 
0.0017550736844 0.0017472552495 0.001739233791 0.0017310370686 0.00172269188 0.0017142243078 0.0017056735094 0.0016970659461 0.0016884374323 
0.001679822613 0.0016712597939 0.0016627874749 0.0018142723295 0.0018059653702 0.0017982225935 0.001791044419 0.0017843550709 0.0017779726836 
0.0017719779618 0.0017660926347 0.0017601905279 0.001754124328 0.0017478077612 0.0017411856278 0.0017342561724 0.0017270214473 0.0017195188277 
0.0017117600656 0.0017037807035 0.0016956183634 0.0016873044282 0.0016788705432 0.0016703562532 0.0016617937627 0.0016532218592 0.0016446788846 
0.0016362038276 0.0016278246539 0.0017767630184 0.001768873774 0.001761558883 0.0017548036778 0.0017484313968 0.0017425646789 0.001736937651 
0.001731363351 0.0017257155987 0.0017198508861 0.0017136840718 0.0017072084126 0.0017003527533 0.0016931966848 0.0016857529635 0.001678046824 
0.0016701153328 0.0016619974923 0.0016537309201 0.0016453460497 0.001636889611 0.0016283938756 0.0016199000553 0.0016114481722 0.0016030808686 
0.0015948275883 0.0017426924058 0.0017351896327 0.0017282843947 0.0017219379252 0.0017159470631 0.001710432589 0.0017051050802 0.0016997738669 
0.0016943168777 0.0016885873065 0.0016825292689 0.0016761285027 0.0016693324777 0.0016622224198 0.0016548224937 0.0016471534917 0.0016392680378 
0.001631197745 0.0016229800184 0.0016146626421 0.001606277567 0.0015978634216 0.0015894636661 0.0015811196034 0.0015728589889 0.0015647603816 
0.001712746874 0.0017056269389 0.0016991095434 0.0016931396797 0.0016874856609 0.0016822697615 0.0016771759711 0.0016720302818 0.001666691431 
0.0016610477848 0.001655064388 0.0016486783781 0.0016419047837 0.001634815389 0.0016274355696 0.0016197920565 0.0016119378998 0.0016039114573 
0.0015957483495 0.001587496341 0.0015791902721 0.0015708678375 0.0015625720088 0.0015543465022 0.0015462207459 0.0015382715667 0.0016873959229 
0.0016806394912 0.0016744813232 0.0016688499157 0.0016634836188 0.0016585108674 0.001653587816 0.0016485614005 0.0016432953783 0.0016377036989 
0.0016317068237 0.0016253182687 0.0016185376524 0.0016114421935 0.0016040601196 0.0015964266712 0.0015885898987 0.001580596569 0.0015724808898 
0.0015642943264 0.0015560680884 0.001547841139 0.001539657168 0.0015315416152 0.0015235719938 0.0015157788022 0.0016669184201 0.0016605024505 
0.0016546689203 0.001649175156 0.0016441998385 0.0016394045316 0.0016346085182 0.0016296500901 0.0016243938979 0.0016187902526 0.001612768211 
0.001606324163 0.0015995294298 0.0015924049845 0.0015850035562 0.001577359212 0.0015695302918 0.0015615552173 0.0015534820889 0.001545353188 
0.0015372042965 0.0015290698346 0.0015209967379 0.0015130077909 0.0015051806169 0.0014975452263 0.0016514734694 0.0016453709094 0.001639824675 
0.0016345681748 0.0016297766669 0.0016251058988 0.0016203785973 0.0016154306915 0.0016101656836 0.0016044979475 0.0015984178105 0.0015919153569 
0.0015850684137 0.0015778985188 0.0015704627241 0.0015627993855 0.0015549634762 0.0015469977126 0.0015389556178 0.0015308701464 0.0015227876278 
0.0015147429286 0.001506756852 0.001498907609 0.0014912198655 0.001483733819 0.0016411619474 0.0016353289252 0.0016300276031 0.0016249517893 
0.0016202980567 0.0016156959193 0.0016109789889 0.0016060194911 0.0016006695278 0.0015949261953 0.0015887662062 0.0015821878504 0.0015752733669 
0.0015680462911 0.0015605667742 0.0015528720228 0.0015450190714 0.0015370554403 0.0015290306736 0.0015209867479 0.0015129560843 0.0015049851086 
0.0014970901836 0.0014893535409 0.0014817971561 0.0014744755399 0.0016360259795 0.0016304221522 0.0016252999783 0.0016203600019 0.0016157799643 
0.001611195984 0.0016064597948 0.0016014046524 0.0015959603336 0.0015901163882 0.0015838592676 0.0015771922657 0.0015702011205 0.0015629130268 
0.0015553846198 0.0015476545231 0.0015397742299 0.0015318060895 0.0015237855196 0.0015157685214 0.001507786939 0.0014998604872 0.0014920705147 
0.0014844475392 0.0014770077537 0.0014698083998 0.0016360469364 0.0016306107581 0.0016256312769 0.0016207610597 0.0016161939535 0.0016115707636 
0.0016067549216 0.0016015888949 0.0015960278085 0.0015900631381 0.001583696816 0.0015769340796 0.0015698628737 0.0015625075497 0.0015549240126 
0.0015471575073 0.0015392550589 0.0015312776481 0.001523265739 0.0015152640392 0.0015073187122 0.001499456313 0.0014917332433 0.0014841837027 
0.0014768439724 0.0014697611771 0.0016411258551 0.0016358249539 0.0016307165017 0.0016260519088 0.001621442747 0.0016167468653 0.0016117852804 
0.0016064834713 0.0016007816855 0.0015946875782 0.0015881971981 0.0015813364951 0.0015741861265 0.0015667700289 0.0015591465982 0.0015513422901 
0.0015434278111 0.0015354413306 0.0015274331955 0.0015194446927 0.0015115166322 0.0015036990343 0.0014960274154 0.0014885435571 0.0014812857718 
0.0014742959061 0.001651099448 0.0016458488885 0.0016407414512 0.0016360223059 0.0016313362381 0.0016264758021 0.001621354604 0.0016158847576 
0.0016100256226 0.0016037956432 0.0015971708381 0.0015902388182 0.0015830158218 0.0015755454465 0.0015678851097 0.0015600592267 0.0015521329299 
0.0015441465586 0.0015361565641 0.0015281819691 0.0015202611407 0.0015124725382 0.0015048388328 0.0014974017177 0.0014902031256 0.0014832835214 
0.0016655817547 0.001660318654 0.0016551357915 0.0016503221286 0.0016454626075 0.001640422478 0.0016351040879 0.0016294538613 0.0016234401206 
0.0016170576737 0.0016103205857 0.0016033030162 0.0015960166177 0.0015885048306 0.0015808213498 0.0015729842759 0.0015650723893 0.0015570938033 
0.0015491060142 0.0015411319117 0.0015332502937 0.0015254861001 0.0015178802166 0.0015104750602 0.0015033115746 0.0014964347647 0.001683967015 
0.0016783776468 0.0016732784283 0.0016682874974 0.0016632188702 0.0016579676759 0.0016524376967 0.0016465882874 0.001640407168 0.0016338809412 
0.0016270395598 0.0016199447596 0.0016126117144 0.0016050798041 0.0015973842285 0.0015895746407 0.0015816660011 0.0015737111532 0.001565730376 
0.0015578027179 0.0015499469681 0.0015422053094 0.001534622605 0.0015272372941 0.0015200945846 0.0015132305329 0.0017052727316 0.0016995043794 
0.0016942079433 0.0016889612661 0.0016836382182 0.0016781338726 0.0016723756259 0.0016663294271 0.0016599848171 0.0016533357513 0.0016464073863 
0.0016392604251 0.0016319001712 0.001624376688 0.0016166963537 0.0016089040013 0.0016010354826 0.0015931231792 0.0015851857877 0.0015772970154 
0.001569475206 0.0015617617903 0.0015541991864 0.0015468250895 0.001539686294 0.0015328128984 0.0017280525705 0.0017220497534 0.001716458075 
0.0017109207555 0.0017053114705 0.0016995397981 0.001693547653 0.0016873047115 0.0016808079658 0.0016740564291 0.0016670592287 0.0016598933368 
0.0016525344625 0.0016450184027 0.0016373924002 0.0016296579293 0.0016218582239 0.0016139929576 0.0016061353172 0.0015983021377 0.0015905220553 
0.0015828464489 0.0015753052336 0.0015679429556 0.0015607897775 0.0015539020016 0.0017503794669 0.0017440420034 0.0017381357829 0.0017322789456 
0.0017263662531 0.0017203220565 0.0017141016354 0.0017076772048 0.0017010506582 0.0016942042943 0.0016871958989 0.001680019853 0.0016726960574 
0.0016652371417 0.0016576896227 0.001650044728 0.0016423334479 0.0016345612439 0.0016267934521 0.0016190355839 0.0016113253156 0.001603693862 
0.0015961764467 0.0015888262344 0.0015816709811 0.0015747444172 0.0017696340519 0.0017632243292 0.0017569758314 0.0017507879816 0.0017445731661 
0.001738268861 0.0017318384449 0.0017252732936 0.0017185451116 0.0017116350544 0.0017046244619 0.0016974868515 0.0016902365972 0.001682878519 
0.001675447911 0.0016679262365 0.0016603234295 0.0016526933415 0.0016450353649 0.0016373756427 0.0016297475136 0.0016221687392 0.0016146974523 
0.0016073649206 0.0016002033952 0.0015932425918 0.0017839663717 0.0017772197138 0.001770638443 0.0017641335939 0.0017576382501 0.0017511154011 
0.001744507057 0.0017378071716 0.0017310146316 0.0017240942381 0.0017171209188 0.0017100671162 0.0017029262851 0.0016957181544 0.0016884442597 
0.0016810704446 0.0016736483447 0.0016661733738 0.0016586561681 0.0016511113304 0.0016435815201 0.0016360888269 0.0016286736067 0.0016213631059 
0.0016142017874 0.0016072237987 0.0017910459097 0.0017839958967 0.0017771091956 0.0017703403391 0.0017636055442 0.001756876667 0.0017501329239 
0.0017433566019 0.0017365431932 0.0017296570613 0.0017227681276 0.00171583993 0.0017088615014 0.0017018407668 0.0016947687254 0.0016876012721 
0.0016803828674 0.0016730948995 0.0016657371513 0.0016583473999 0.0016509392673 0.0016435424994 0.0016361928685 0.0016289224358 0.0016217717483 
0.0016147739831 0.0022286868331 0.0022173151369 0.002206225779 0.0021954327987 0.0021849117038 0.0021746999197 0.0021647209601 0.002155041239 
0.0021455735533 0.0021362775194 0.0021271376189 0.0021181040972 0.0021091586237 0.0021002700153 0.0020914387649 0.0020826280703 0.0020738296984 
0.0020649812434 0.0020560841723 0.0020471199342 0.00203807998 0.0020289578542 0.0020197687734 0.0020105235997 0.0020012364362 0.0019919316522 
0.0022098654791 0.0021987523008 0.0021879593836 0.0021774665742 0.0021673261772 0.0021574326774 0.0021478704441 0.0021385508279 0.0021294190675 
0.0021204279002 0.0021115229446 0.002102671159 0.0020938493177 0.0020850218067 0.0020761961212 0.0020673625425 0.0020584664594 0.0020495197057 
0.0020405091291 0.002031429422 0.0020222764045 0.002013060272 0.0020037942369 0.0019944916587 0.0019851749832 0.0019758649292 0.0021847300065 
0.0021739072506 0.0021634121566 0.0021533034464 0.0021435441528 0.0021340348639 0.0021248693383 0.0021159345848 0.0021071584393 0.0020984758533 
0.0020898311273 0.0020811817202 0.0020725037738 0.0020637625907 0.0020549711394 0.0020461287997 0.0020371956938 0.0020281873826 0.0020191029658 
0.0020099452914 0.0020007199211 0.0019914437262 0.0019821321878 0.0019728041717 0.0019634819919 0.0019541951626 0.0021546886267 0.0021441525524 
0.0021340341498 0.0021243018569 0.0021149399833 0.0021058265664 0.0020970705163 0.0020885347151 0.002080108408 0.0020717384018 0.0020633578139 
0.0020549180798 0.0020463763226 0.0020377595882 0.0020290439978 0.0020202060921 0.0020112672416 0.0020022315818 0.0019931098611 0.0019839126141 
0.001974650491 0.0019653462961 0.0019560203931 0.0019466985128 0.0019373993679 0.0019281557461 0.0021214577254 0.0021112572186 0.0021014989655 
0.0020921548173 0.0020831934382 0.0020744957115 0.0020661355811 0.0020579687151 0.0020498887421 0.0020418215922 0.0020336944075 0.0020254595585 
0.0020170733861 0.0020085832657 0.0019999293178 0.0019911324197 0.0019822149898 0.0019731835502 0.0019640566854 0.001954850564 0.0019455860682 
0.0019362842932 0.0019269719562 0.0019176753634 0.0019084243136 0.0018992486516 0.0020867637711 0.0020769393975 0.0020675540958 0.0020585955391 
0.0020500443334 0.002041722875 0.002033746696 0.0020259276606 0.00201816976 0.0020103775548 0.0020024796013 0.0019944331615 0.0019861873376 
0.0019778114481 0.0019692449142 0.0019605072536 0.0019516263849 0.0019426219666 0.0019335135355 0.0019243208993 0.0019150774011 0.0019058039688 
0.0018965309434 0.0018872874217 0.0018781053529 0.0018690188676 0.0020522643562 0.0020427850632 0.0020337669223 0.0020252016062 0.0020170246611 
0.0020090676419 0.0020014499744 0.0019939415108 0.0019864647542 0.0019789151783 0.0019712125633 0.0019633214177 0.0019552290766 0.0019469264103 
0.0019384383894 0.0019297652042 0.001920933123 0.001911968627 0.0019028981038 0.0018937439735 0.0018845446748 0.0018753214019 0.0018661087857 
0.0018569392221 0.0018478455614 0.0018388491516 0.0020192296743 0.0020101096478 0.0020014534447 0.0019932420527 0.0019853082809 0.0019778012087 
0.0019704980847 0.001963263899 0.001956021141 0.0019486609794 0.0019411148098 0.0019333767061 0.0019253667598 0.0019171514617 0.0019087302251 
0.0019001163067 0.0018913366418 0.0018824217159 0.0018733972773 0.0018643008166 0.0018551599509 0.0018460033744 0.0018368683775 0.0018277880641 
0.0018187985534 0.0018099208028 0.0019886779791 0.0019798872019 0.001971576884 0.0019637083411 0.0019560938299 0.0019488874906 0.0019418439816 
0.0019348404386 0.0019277874592 0.0019205728763 0.0019131514141 0.0019055081209 0.0018975764895 0.0018894238517 0.001881060119 0.0018724937689 
0.0018637657118 0.0018549043193 0.001845935698 0.001836901814 0.001827830212 0.0018187532612 0.0018097084377 0.0018007307326 0.0017918411439 
0.0017831103404 0.0019612967184 0.0019528316562 0.0019448485001 0.0019372970787 0.0019299677277 0.0019230227642 0.0019161991593 0.001909376815 
0.0019024571261 0.0018953528877 0.0018880353067 0.0018804347943 0.0018725525172 0.0018644442065 0.0018561202027 0.0018475955685 0.0018389100015 
0.0018300972014 0.0018211853897 0.0018122168792 0.0018032213826 0.0017942313224 0.0017852840165 0.001776417305 0.0017676522976 0.0017590605923 
0.0019376001174 0.0019294428572 0.0019217622052 0.0019144970858 0.0019074147854 0.0019006897731 0.0018940337927 0.001887345748 0.0018805278589 
0.0018735093295 0.0018662151196 0.0018586499162 0.0018507909757 0.0018427059327 0.0018344043357 0.0018259085606 0.0018172562595 0.0018084847876 
0.0017996268518 0.0017907245032 0.0017818060167 0.0017729059414 0.0017640624811 0.0017552951511 0.0017466760499 0.0017382264104 0.0019179220281 
0.0019100517786 0.0019026429199 0.0018954725792 0.0018887518712 0.0018821891874 0.0018756762387 0.0018690741617 0.0018623119818 0.0018553247247 
0.0018480476635 0.0018404648195 0.0018326289535 0.0018245488939 0.0018162561986 0.0018077732544 0.0017991475941 0.0017904094868 0.0017816009576 
0.0017727596097 0.0017639173047 0.0017551046094 0.0017463635558 0.0017377132012 0.0017292232071 0.0017209164062 0.0019024658213 0.001894859254 
0.0018876923369 0.0018807233974 0.0018741689707 0.0018677394132 0.001861312002 0.0018547671912 0.0018480319468 0.0018410277391 0.0018337382378 
0.0018261392493 0.0018182911693 0.001810198134 0.0018019013331 0.0017934269428 0.0017848148798 0.0017761033031 0.0017673379656 0.0017585469641 
0.0017497728531 0.0017410465403 0.0017323866494 0.0017238651919 0.0017155014848 0.0017073283325 0.0018913558645 0.0018839726056 0.001877014339 
0.0018701996178 0.0018637775179 0.0018574320382 0.0018510487576 0.0018445369665 0.0018377669901 0.0018307373895 0.0018234152727 0.0018157833783 
0.0018079059487 0.0017997906408 0.0017914809255 0.0017830005765 0.0017743917278 0.0017657075341 0.0017569748038 0.0017482362683 0.0017395196255 
0.0017308680519 0.0017222945372 0.0017138771598 0.0017056326272 0.0016976084844 0.0018846338353 0.0018774394477 0.0018706289726 0.0018639385221 
0.0018575978079 0.0018512969085 0.0018449369572 0.0018383809101 0.0018315704046 0.0018244920647 0.001817120424 0.001809442506 0.0018015266662 
0.0017933838928 0.0017850551818 0.0017765671366 0.0017679600782 0.0017592873122 0.0017505784068 0.0017418790622 0.0017332182094 0.0017246183962 
0.0017161492661 0.0017078399426 0.0016997024618 0.0016917884265 0.0018822447156 0.0018751955336 0.0018683159422 0.0018618876163 0.0018555789808 
0.0018492777067 0.0018428888046 0.0018362780003 0.0018294071369 0.001822260523 0.0018148267392 0.0018070945101 0.0017991349238 0.0017909569779 
0.001782601754 0.0017741031901 0.0017654975637 0.0017568369263 0.0017481542234 0.0017394878345 0.0017308786193 0.0017223461695 0.0017139502588 
0.0017057135205 0.0016976699242 0.0016898604241 0.0018840682164 0.0018771262068 0.0018703083898 0.0018639026738 0.0018575849395 0.0018512596267 
0.0018447827712 0.0018380956841 0.0018311423446 0.0018239184613 0.0018164064138 0.0018086157916 0.0018006111998 0.0017924023233 0.0017840334648 
0.0017755209009 0.0017669244816 0.0017582758296 0.0017496157518 0.0017409796493 0.0017324025013 0.0017239275047 0.0017155902778 0.0017074229298 
0.0016994602681 0.0016917379371 0.0018898567615 0.0018829591845 0.0018761491678 0.0018697209784 0.0018633726713 0.0018569414149 0.0018503688154 
0.0018435772079 0.001836524092 0.0018292154904 0.0018216128897 0.0018137880537 0.0018057422729 0.0017975061175 0.0017891237717 0.0017806107384 
0.0017720229717 0.0017633917378 0.0017547673297 0.0017461613595 0.0017376076175 0.0017291772122 0.0017208877977 0.0017127755218 0.0017048764623 
0.0016972242228 0.0018991794723 0.0018922813069 0.0018854241506 0.0018789470806 0.0018724851922 0.0018659415725 0.0018592412947 0.0018523345703 
0.0018451753336 0.0018377725326 0.0018300989465 0.0018222226662 0.0018141416149 0.0018058877117 0.0017975020982 0.0017889956032 0.0017804381709 
0.0017718306655 0.001763223821 0.0017546341765 0.0017461343296 0.0017377431445 0.001729495389 0.0017214271948 0.0017135728349 0.0017059701201 
0.0019114188757 0.0019042280273 0.0018975032026 0.0018909110391 0.0018843141698 0.0018776360313 0.001870796672 0.001863756505 0.0018564951894 
0.0018489866698 0.0018412467877 0.0018333236437 0.0018252201152 0.0018169648253 0.0018085837297 0.0018001184013 0.0017915767548 0.0017830051092 
0.0017744176419 0.0017658873899 0.0017574271652 0.0017490729802 0.0017408632638 0.0017328296513 0.0017250100235 0.0017174321722 0.0019256750953 
0.0019183626735 0.0019115112037 0.0019047451461 0.0018979777482 0.0018911292984 0.0018841371658 0.0018769663237 0.0018695947956 0.0018620068004 
0.0018542137417 0.0018462641964 0.0018381527919 0.0018299203678 0.0018215655801 0.0018131264893 0.0018046329106 0.0017961118344 0.0017875764123 
0.0017790945415 0.001770680105 0.0017623672625 0.0017541923541 0.0017461869005 0.0017383873683 0.001730818153 0.0019407439087 0.0019332784742 
0.0019262228344 0.0019192623015 0.0019123031577 0.0019052745444 0.0018981232482 0.0018908193282 0.0018833467891 0.0018756951793 0.0018678618245 
0.0018599134224 0.0018518168427 0.0018436003718 0.0018353050552 0.001826927115 0.0018185050452 0.0018100339703 0.0018015834638 0.0017931630196 
0.0017847983545 0.0017765342448 0.0017683956474 0.0017604159295 0.0017526216925 0.0017450593567 0.001955148965 0.0019474505506 0.0019401878381 
0.0019330144168 0.0019258500895 0.0019186387067 0.0019113343288 0.0019039067914 0.0018963497701 0.0018886358619 0.00188081326 0.0018728679197 
0.0018648130929 0.001856655265 0.0018484365643 0.0018401438854 0.0018318065493 0.0018234259601 0.0018150637389 0.0018067212016 0.0017984311763 
0.0017902193909 0.0017821148771 0.0017741639126 0.0017663867506 0.0017588088924 0.0019669177718 0.0019592606382 0.0019517712844 0.0019443774461 
0.0019370122713 0.0019296241043 0.0019221785214 0.0019146633903 0.0019070425766 0.0018992901379 0.0018914793381 0.0018835772626 0.0018755932243 
0.0018675284879 0.0018594160016 0.0018512355666 0.0018429955165 0.0018347477058 0.0018264888143 0.0018182413843 0.0018100337742 0.0018018800281 
0.0017938324199 0.0017859110089 0.0017781459692 0.0017705575745 0.0019749379851 0.0019670594669 0.0019593514191 0.0019517470492 0.0019441947518 
0.0019366656504 0.0019291024121 0.0019214966997 0.0019138412512 0.0019060945618 0.001898326293 0.001890502291 0.0018826151086 0.0018746824691 
0.0018667059628 0.0018586520934 0.0018505750991 0.0018424632951 0.0018343322596 0.001826191318 0.0018180788832 0.0018100118803 0.0018020247121 
0.0017941382458 0.0017863900266 0.0017788070231 0.0019775415706 0.0019694661621 0.0019615569411 0.0019537837525 0.0019460739302 0.0019384053041 
0.0019307562703 0.0019231079431 0.0019154507388 0.0019077440611 0.001900053409 0.0018923395149 0.0018845905968 0.0018768157555 0.0018690088588 
0.0018611292664 0.0018532242529 0.0018452765376 0.0018372872623 0.0018292853167 0.0018212862937 0.001813312549 0.0018053937997 0.0017975557278 
0.001789830115 0.0017822493893 0.0024454315372 0.0024331208388 0.002421066901 0.0024092792131 0.002397731304 0.0023864613171 0.0023753968636 
0.0023646112577 0.0023540260182 0.0023436094976 0.0023333533194 0.0023232126771 0.0023131721344 0.0023032027006 0.0022933074055 0.002283453145 
0.0022736363251 0.0022637995164 0.0022539484145 0.0022440673679 0.0022341489688 0.0022241861817 0.0022141921274 0.0022041744122 0.0021941430328 
0.002184118445 0.0024274763156 0.0024153950126 0.002403599755 0.0023920659667 0.0023808450698 0.0023698335125 0.0023591227781 0.0023486351493 
0.0023383291814 0.0023281707673 0.0023181162545 0.0023081395963 0.0022982210897 0.0022883260471 0.0022784639726 0.0022686245162 0.002258754905 
0.0022488684578 0.0022389532992 0.0022290046242 0.0022190177267 0.0022090011698 0.0021989649624 0.0021889206324 0.0021788848497 0.002168874255 
0.0024047790335 0.0023929536399 0.0023814128186 0.0023702109938 0.0023593106584 0.0023486168495 0.0023382334277 0.0023280626214 0.0023180502821 
0.0023081488305 0.0022983163002 0.0022885186919 0.0022787357329 0.0022689330144 0.0022591231533 0.0022493005667 0.0022394270537 0.0022295158292 
0.0022195647875 0.0022095752957 0.0021995509257 0.0021895059444 0.0021794526027 0.0021694059644 0.0021593840528 0.0021494116602 0.0023782935661 
0.0023667159711 0.0023555036654 0.0023446218626 0.0023340525172 0.0023236869949 0.00231365191 0.0023038004591 0.002294075861 0.0022844354849 
0.0022748284645 0.0022652155411 0.002255556316 0.0022458787221 0.0022361525236 0.0022263545354 0.002216498466 0.0022065865304 0.0021966261745 
0.0021866248487 0.0021765900004 0.0021665409521 0.0021564979979 0.00214647086 0.0021364866551 0.0021265677976 0.0023492150142 0.0023379307374 
0.0023270280373 0.0023164752793 0.0023062432061 0.002296221913 0.002286503502 0.0022769667466 0.0022675305148 0.0022581483879 0.0022487607273 
0.0022393304108 0.0022298159668 0.0022202622022 0.0022106044357 0.0022008584126 0.0021910392401 0.0021811501394 0.0021712086264 0.0021612141549 
0.0021511958478 0.0021411664468 0.0021311482972 0.0021211631093 0.0021112357923 0.002101390989 0.0023187829122 0.0023078302962 0.0022972484073 
0.0022870224192 0.0022771370928 0.002267427624 0.0022580307564 0.0022487861219 0.0022396268161 0.002230482455 0.0022212987016 0.0022120409426 
0.0022026591494 0.0021932185492 0.0021836505692 0.0021739732508 0.0021642022681 0.002154352981 0.0021444393733 0.002134476114 0.0021244916599 
0.0021145021612 0.0021045331205 0.0020946086492 0.0020847558361 0.0020750021207 0.0022882722642 0.0022776186612 0.0022673525104 0.0022574658098 
0.0022477840543 0.0022384903111 0.0022293998483 0.0022204222013 0.0022115106634 0.0022025857314 0.0021935830918 0.0021844736232 0.0021752437419 
0.002165885281 0.0021563965457 0.0021467891097 0.0021370753985 0.0021272751266 0.0021174086202 0.0021074927001 0.0020975605042 0.0020876280804 
0.002077725402 0.0020678778279 0.0020581146303 0.0020484503501 0.002258698946 0.0022483594629 0.0022384040898 0.0022288205127 0.0022194370398 
0.0022104373826 0.0022016182002 0.0021928847602 0.002184187864 0.0021754424878 0.0021665937963 0.0021576380353 0.0021484982569 0.0021392282497 
0.0021298209173 0.002120281012 0.0021106276209 0.0021008842123 0.0020910704625 0.0020812175794 0.0020713482971 0.0020614858459 0.0020516621206 
0.0020419046781 0.0020322437931 0.002022694212 0.0022309404435 0.0022208852495 0.0022112275845 0.0022019328201 0.0021928270984 0.0021840885103 
0.0021755030714 0.002166987138 0.0021584709126 0.0021498740631 0.0021411584689 0.0021323111339 0.0021232608228 0.0021140665173 0.0021047287022 
0.0020952471126 0.0020856542454 0.0020759714659 0.0020662186852 0.0020564322504 0.002046634388 0.0020368521889 0.0020271177357 0.0020174603683 
0.0020078953893 0.0019984859695 0.0022056233793 0.0021958515627 0.0021864764669 0.0021774557253 0.0021685978308 0.0021600927096 0.0021517116896 
0.002143370612 0.0021349955142 0.002126524845 0.0021179272029 0.0021091429317 0.0021001614665 0.0020910297479 0.0020817480015 0.0020723217475 
0.0020627823604 0.0020531564097 0.0020434660265 0.0020337481021 0.0020240272945 0.0020143309766 0.0020046912203 0.0019951402521 0.0019856930942 
0.0019764146177 0.0021832547528 0.002173748482 0.0021646333103 0.0021558633294 0.0021472236428 0.0021389205915 0.0021307024539 0.002122501182 
0.0021142453548 0.0021058796893 0.0020973340205 0.0020886098762 0.0020796763845 0.0020705905245 0.0020613511717 0.0020519707252 0.0020424782207 
0.0020328988567 0.0020232741736 0.0020136261586 0.0020039830981 0.0019943753103 0.0019848355446 0.0019753780637 0.0019660688811 0.0019569224848 
0.0021641747271 0.0021549169905 0.0021460387354 0.0021373322819 0.0021290339378 0.0021208858088 0.0021128156924 0.002104716813 0.00209656064 
0.002088237021 0.0020797375402 0.002071025811 0.0020621433609 0.0020530886226 0.0020438810942 0.0020345332083 0.0020250835628 0.0020155550979 
0.002005983749 0.0019964019447 0.0019868372778 0.001977315422 0.0019678741292 0.0019585272285 0.0019493384799 0.0019403240226 0.0021486028828 
0.0021395734857 0.0021309065112 0.0021223788368 0.0021142355586 0.0021062224603 0.0020982523733 0.0020902353043 0.0020821175646 0.0020738291118 
0.0020653529619 0.0020566580232 0.0020477939678 0.0020387540802 0.0020295673165 0.0020202500038 0.0020108320451 0.0020013449656 0.0019918293538 
0.0019823040797 0.0019728110583 0.0019633758504 0.0019540126912 0.0019447887049 0.0019357176303 0.0019268257402 0.0021366709246 0.0021278340892 
0.0021193485696 0.0021109641696 0.0021029510835 0.0020950331853 0.0020871301219 0.0020791774583 0.0020710624085 0.0020627850135 0.0020543130474 
0.0020456197861 0.002036758405 0.0020277247663 0.0020185508928 0.0020092501487 0.001999855547 0.0019904124957 0.0019809414289 0.0019714772093 
0.0019620514992 0.0019526918645 0.0019434151161 0.0019342893278 0.0019253412065 0.001916576026 0.0021284186633 0.0021197472091 0.0021113958773 
0.0021031257012 0.0020952019169 0.0020873485634 0.002079499195 0.0020715394508 0.0020634228395 0.0020551380513 0.0020466547377 0.0020379506676 
0.0020290828252 0.0020200478604 0.0020108834281 0.0020015980549 0.0019922256635 0.0019828117937 0.0019733788023 0.001963968375 0.0019546030041 
0.0019453013766 0.0019361288402 0.0019271100111 0.0019182518398 0.0019095998084 0.0021237752159 0.0021152351324 0.0021068070472 0.0020988035066 
0.002090927878 0.0020831018346 0.0020752614557 0.0020672889197 0.0020591550497 0.0020508436615 0.0020423368654 0.0020336134955 0.0020247332427 
0.0020156941063 0.0020065247416 0.0019972517151 0.0019879009027 0.0019785170702 0.0019691264879 0.0019597616851 0.0019504583433 0.001941231375 
0.0019321360448 0.0019231903567 0.0019144231909 0.0019058695569 0.0021226084237 0.0021141654902 0.0021058017002 0.0020978352708 0.0020899771606 
0.0020821645605 0.0020742782945 0.0020662757415 0.0020581046058 0.0020497583148 0.002041211655 0.0020324639915 0.0020235687753 0.0020145247854 
0.002005366108 0.0019960993406 0.0019867772283 0.0019774227199 0.0019680704186 0.0019587497792 0.0019494903524 0.0019403303285 0.0019313004524 
0.0019224279168 0.0019137422798 0.001905273248 0.0021246448467 0.0021162504701 0.0021079088473 0.0020999458591 0.0020920937767 0.0020842198161 
0.0020762868404 0.002068228372 0.0020600039906 0.0020516152977 0.0020430155088 0.0020342661249 0.0020253578395 0.0020163109103 0.0020071601821 
0.0019979124228 0.0019886158397 0.0019792946955 0.0019699928563 0.0019607160951 0.0019514926137 0.001942388199 0.0019334153008 0.0019246047713 
0.0019159887004 0.0019075898574 0.0021294577391 0.0021210802998 0.0021127191941 0.0021047453371 0.0020968263404 0.0020888919132 0.0020808845692 
0.0020727622467 0.0020644784863 0.0020560367598 0.0020474023449 0.0020386318362 0.0020297137973 0.0020206708781 0.0020115354647 0.0020023106442 
0.001993059225 0.001983775249 0.0019745046417 0.0019652569979 0.001956099755 0.0019470463256 0.00193812598 0.0019293691996 0.0019208054888 
0.0019124618502 0.0021364747023 0.0021278374576 0.0021196722514 0.0021116128359 0.0021036142166 0.0020956037056 0.0020875142366 0.0020793139938 