# vtk DataFile Version 5.1
vtk output
ASCII
DATASET STRUCTURED_POINTS
DIMENSIONS 26 26 26
SPACING 0.08 0.08 0.08
ORIGIN -1 -1 0.5
POINT_DATA 17576
FIELD FieldData 1
potential 1 17576 double
0.0023466903214 0.0023595651051 0.002372150344 0.0023844048384 0.0023963273326 0.0024079675558 0.0024194273451 0.0024307242625 0.0024420400359 
0.0024537681758 0.0024654618751 0.0024774996139 0.002489960715 0.0025029134804 0.0025164055278 0.0025304758238 0.0025451420304 0.0025604391738 
0.0025763553882 0.002592874101 0.0026099655347 0.0026275582093 0.0026456413172 0.0026640344041 0.0026828388117 0.0027018854267 0.0023403331379 
0.002352960018 0.0023652469161 0.002377143335 0.0023886632687 0.0023999049918 0.002410869813 0.0024217537516 0.0024326956585 0.0024441282671 
0.0024556353377 0.0024676021503 0.0024801113662 0.0024932213967 0.0025069564027 0.0025213439061 0.0025363701104 0.0025520602233 0.0025683806711 
0.0025853023019 0.002602779923 0.0026207324268 0.0026390590971 0.0026578288968 0.0026768827263 0.0026961334554 0.0023247169731 0.0023370631402 
0.0023490095383 0.0023604780181 0.0023715697777 0.0023822649382 0.0023927407404 0.002403144846 0.0024138997844 0.0024247421432 0.0024360135275 
0.0024478588121 0.0024603592542 0.0024735574281 0.0024874722163 0.0025021039741 0.0025174165822 0.002533428865 0.0025500829781 0.0025673382367 
0.0025851356578 0.002603388453 0.0026219960059 0.0026410014844 0.0026602453619 0.0026796425015 0.0023024557372 0.0023144851871 0.0023260278533 
0.0023370510022 0.0023476457256 0.0023578096159 0.002367761474 0.0023776710879 0.00238799067 0.0023984849819 0.0024095147591 0.0024212246081 
0.002433689438 0.0024469443894 0.0024609908419 0.0024757841198 0.0024913482821 0.002507617893 0.0025245438111 0.0025420695002 0.0025601379561 
0.0025786335393 0.0025974519207 0.0026166415899 0.0026360329573 0.0026555207786 0.0022765828009 0.002288269522 0.0022993755991 0.0023099674404 
0.0023200082938 0.0023296762662 0.0023391170581 0.0023485667262 0.002358519089 0.0023686939156 0.0023795236077 0.0023911227068 0.0024035626684 
0.0024168671444 0.0024310223575 0.0024459655439 0.0024617187306 0.0024781971764 0.0024953534787 0.0025130983269 0.0025313666243 0.0025499814183 
0.0025690446644 0.002588372439 0.0026078604806 0.0026274029923 0.0022500022975 0.0022613333995 0.0022720580798 0.0022821370593 0.0022917137428 
0.0023009020391 0.0023099034884 0.0023191914759 0.0023286136096 0.0023385794725 0.0023492862282 0.0023608453613 0.002373302704 0.0023866795593 
0.0024009518493 0.0024160361934 0.0024319646524 0.0024486208774 0.0024659471324 0.002483868619 0.0025023040665 0.0025210724421 0.0025402648512 
0.002559686364 0.0025792347619 0.0025987959913 0.0022252207531 0.0022362104747 0.0022464934234 0.0022561417346 0.0022652865134 0.0022740634591 
0.0022827098683 0.0022917156863 0.0023009572014 0.0023108275124 0.0023215132578 0.0023331159414 0.0023456685364 0.0023591617432 0.0023735890772 
0.0023888277095 0.0024049076715 0.0024217240796 0.002439208549 0.0024572799564 0.0024758505835 0.0024947410614 0.0025140238761 0.0025335099219 
0.0025530853875 0.0025726338694 0.0022040761798 0.0022147149263 0.002224599861 0.0022338717361 0.0022426348494 0.0022510853647 0.0022594896861 
0.0022683333059 0.0022775147046 0.0022874120586 0.0022981953516 0.0023099425062 0.0023226747339 0.0023363601465 0.0023509625309 0.0023663862704 
0.0023826416997 0.0023996245671 0.0024172601372 0.0024354647356 0.0024540900043 0.0024731372149 0.002492488448 0.0025120112337 0.0025315907146 
0.0025510763882 0.0021878784242 0.0021981373422 0.0022076919934 0.0022166253889 0.0022250916414 0.0022333099437 0.0022417686655 0.0022503719153 
0.0022596247399 0.0022696658169 0.0022806683143 0.0022926532876 0.0023056342784 0.0023195751238 0.0023343891091 0.0023500783574 0.0023665458504 
0.0023837138027 0.0024015064039 0.0024198456606 0.0024385799961 0.002457708329 0.0024771103292 0.0024966544948 0.0025161942114 0.0025356836606 
0.0021773658181 0.0021873246127 0.0021965789249 0.0022052390474 0.0022134890252 0.0022215776557 0.0022300051806 0.0022386924536 0.0022481150051 
0.0022584218118 0.0022697159827 0.0022820284309 0.0022953446621 0.0023096188724 0.0023247404897 0.0023407138765 0.0023574295339 0.0023748161503 
0.0023927912172 0.0024112739987 0.00243012428 0.0024493308239 0.0024687793657 0.0024883118454 0.0025078852173 0.0025272851801 0.0021730371789 
0.0021827492371 0.0021917597523 0.0022002190013 0.00220833826 0.0022164005147 0.0022249041877 0.0022337986099 0.0022434988631 0.0022541332178 
0.0022657996847 0.0022785116942 0.0022922370204 0.0023069027995 0.00232238129 0.0023387019083 0.0023557151235 0.0023733576609 0.0023915471387 
0.0024101537245 0.0024291845488 0.0024484771134 0.0024679774998 0.0024875616675 0.0025070847603 0.0025264267826 0.0021752215215 0.0021846879129 
0.002193511952 0.0022018458198 0.0022099264071 0.0022180776119 0.0022267624341 0.0022359264561 0.0022459896085 0.0022570390019 0.0022691523735 
0.0022823187347 0.0022964943703 0.0023116031524 0.0023274936899 0.0023441956364 0.0023615603646 0.0023795091825 0.0023979490814 0.0024167653674 
0.0024359535652 0.0024553617554 0.0024749453254 0.0024945473885 0.0025140619037 0.0025333573312 0.0021839606068 0.0021932687907 0.0022019745005 
0.0022102647095 0.0022184176321 0.0022268904859 0.0022356763568 0.0022452104626 0.0022557080487 0.0022672340797 0.00227984099 0.0022935039381 
0.0023081694505 0.0023237456663 0.0023400827717 0.0023572120771 0.0023749642224 0.0023932573029 0.0024120023012 0.002431060322 0.0024504486802 
0.0024700215021 0.0024896906627 0.0025093500774 0.0025288796234 0.0025481497089 0.0021993241504 0.0022085335706 0.0022172154984 0.0022255463302 
0.0022338287388 0.0022425555034 0.0022517035417 0.0022616809603 0.0022726693561 0.0022847163249 0.0022978516018 0.0023120411012 0.0023272150931 
0.0023432838638 0.0023600867048 0.0023776577106 0.0023958253545 0.0024145034381 0.002433546301 0.0024529466708 0.0024725529506 0.0024923330272 
0.0025121453249 0.0025318977139 0.0025514784636 0.0025707646074 0.0022212948422 0.0022304762466 0.0022391746915 0.0022476372163 0.0022561614971 
0.0022652275105 0.0022748138757 0.0022852907023 0.0022968162067 0.0023094143087 0.0023231013172 0.0023378248553 0.0023535177107 0.0023700162391 
0.0023873637788 0.0024053925731 0.0024239893617 0.0024430598313 0.0024624755642 0.0024821912748 0.0025021421639 0.0025221291851 0.0025421328656 
0.0025620336171 0.0025817124875 0.0026010536057 0.002249731946 0.0022589568798 0.0022677843579 0.0022764710418 0.0022853240415 0.0022948101633 
0.0023048995722 0.0023159256398 0.002328021896 0.0023411874572 0.0023554310131 0.0023706915181 0.0023868993676 0.0024038851683 0.0024217036296 
0.0024401852088 0.0024592148169 0.0024786983039 0.0024984837979 0.0025186037616 0.0025388524205 0.0025591290688 0.0025793800144 0.0025994819725 
0.0026193180441 0.0026387786068 0.0022844378442 0.0022938103649 0.002302863041 0.0023118629195 0.0023212767607 0.0023311119134 0.0023417571694 
0.0023533706449 0.0023660544161 0.0023797990556 0.0023945879884 0.0024103731324 0.0024270750726 0.0024445358452 0.0024628094752 0.0024817215838 
0.0025011793507 0.0025210476059 0.0025412820848 0.0025617433893 0.0025823396416 0.0026029586608 0.0026235089663 0.0026438731057 0.0026639397738 
0.0026835901676 0.0023250652796 0.0023346806879 0.0023440635179 0.0023534862327 0.0023633954833 0.0023737934518 0.002385038849 0.0023972571067 
0.0024105318391 0.0024248423558 0.0024401655703 0.002456448755 0.00247362499 0.0024915236657 0.0025102180254 0.0025295512086 0.0025493854051 
0.0025696776706 0.0025902891001 0.0026111297066 0.00263209221 0.0026530564544 0.0026739445209 0.0026946307413 0.0027149946293 0.0027349204933 
0.0023710339566 0.0023810069798 0.0023908213473 0.0024007599842 0.0024112432303 0.0024222611344 0.0024341318867 0.0024469698317 0.0024608382924 
0.0024757026462 0.0024915245064 0.0025082749842 0.0025258730272 0.0025441658445 0.0025632417172 0.0025829264587 0.0026031574296 0.0026237802281 
0.0026447542587 0.0026659617471 0.0026872989222 0.0027086390975 0.0027299019785 0.0027509554507 0.0027716695986 0.0027919533091 0.0024213966184 
0.0024318399257 0.0024421981316 0.0024527509729 0.0024638772951 0.0024755801063 0.0024880969708 0.0025015453902 0.0025159722204 0.002531324187 
0.0025476095983 0.0025647662905 0.0025827396597 0.0026013766194 0.0026207724214 0.0026407776828 0.002661301501 0.0026822470489 0.0027035506779 
0.0027251068341 0.0027468075292 0.0027685275155 0.0027901874113 0.0028116497818 0.0028327950322 0.0028534974341 0.0024747664789 0.0024858049154 
0.0024968046941 0.0025080312219 0.0025198450901 0.0025322132963 0.0025453744091 0.002559413825 0.0025743595072 0.002590169359 0.0026068607742 
0.0026243688539 0.002642646127 0.0026615428623 0.0026812073966 0.0027014546032 0.0027222282221 0.002743452628 0.0027650440655 0.0027869113073 
0.0028089502411 0.0028310446355 0.002853107795 0.0028749993532 0.0028966071378 0.0029178019497 0.0025290976562 0.002540811073 0.0025525235042 
0.0025645847216 0.0025770105849 0.0025900629499 0.0026038498277 0.0026184302806 0.0026338411628 0.0026500533644 0.0026670553634 0.0026848276049 
0.0027033184051 0.0027224121757 0.0027422368167 0.0027626549645 0.0027836234997 0.0028050555447 0.0028268761722 0.0028490119461 0.0028713613532 
0.0028938111717 0.0029162702089 0.0029386058316 0.0029607010303 0.0029824335718 0.0025816494244 0.0025941112535 0.002606594729 0.0026194229739 
0.0026325741641 0.0026462853111 0.0026606474889 0.0026756997914 0.0026915083907 0.0027080238849 0.0027252628539 0.0027431934606 0.0027616823329 
0.0027809805442 0.0028008806613 0.0028213802122 0.0028424358872 0.0028640015047 0.0028859985442 0.0029083507091 0.002930976452 0.0029537495017 
0.0029765887984 0.0029993664035 0.0030219613019 0.0030442564809 0.0026292531572 0.0026424947839 0.0026557560934 0.002669325129 0.0026831636944 
0.0026974780848 0.0027123351396 0.0027277964254 0.0027438994158 0.0027606202085 0.002777973377 0.0027959546801 0.0028144802166 0.002833724262 
0.0028535971028 0.0028740767112 0.0028951466166 0.0029167634573 0.00293885884 0.0029613679178 0.0029842079399 0.003007255858 0.0030304427288 
0.0030536391953 0.0030767293199 0.0030995953948 0.0026686200136 0.0026826098611 0.0026966150757 0.002710867777 0.0027253241905 0.0027401449829 
0.0027554173424 0.0027711694222 0.0027874616481 0.0028042602755 0.0028216098999 0.0028395405849 0.0028579316047 0.0028770344305 0.0028967615128 
0.0029171254523 0.0029381018481 0.002959684025 0.0029818057522 0.0030044079814 0.0030274074072 0.0030506940717 0.0030741905307 0.0030977578879 
0.0031213081591 0.0031447159228 0.0026969401998 0.0027116107356 0.0027263425065 0.0027411138617 0.0027560807851 0.0027713029823 0.0027868644201 
0.0028027986664 0.0028191465724 0.0028359035584 0.0028531370247 0.0028708527529 0.0028889943085 0.0029078299004 0.002927294322 0.0029474294501 
0.002968224743 0.0029896768855 0.0030117481278 0.0030343792956 0.0030574848578 0.0030809571057 0.0031047136199 0.0031286268682 0.0031525989979 
0.0031765199143 0.002590011836 0.0026041969114 0.0026181855244 0.0026319457465 0.0026454810925 0.0026588391192 0.0026721104959 0.0026852923298 
0.0026985389304 0.0027122144761 0.0027258472134 0.0027397972215 0.0027541309979 0.0027689105103 0.0027841775972 0.0027999665886 0.0028162913884 
0.0028331849613 0.0028506363523 0.0028686329221 0.0028871515836 0.0029061298035 0.0029255671548 0.0029452947803 0.0029654261458 0.0029858050723 
0.0025889716826 0.0026029838946 0.0026167672246 0.0026302809791 0.0026435447059 0.0026566525089 0.0026695892348 0.002682521225 0.0026955484831 
0.002709063153 0.0027226157945 0.00273656912 0.0027509944357 0.0027659438198 0.0027814498179 0.0027975339927 0.0028141881007 0.0028314409638 
0.0028492642324 0.0028676355276 0.0028865180673 0.0029058405875 0.0029255985777 0.0029456165601 0.0029660041029 0.0029866019905 0.002581053978 
0.0025948725272 0.0026084199321 0.0026216339446 0.0026346182103 0.0026473467211 0.0026599754597 0.0026726104759 0.0026856235122 0.0026986998725 
0.0027121400155 0.0027260638091 0.0027405425127 0.0027556189797 0.0027713178649 0.0027876472549 0.0028045794995 0.0028221417709 0.0028402851882 
0.0028589784881 0.0028781728891 0.0028977925499 0.0029177400084 0.0029380960399 0.0029586889348 0.0029794559913 0.0025680323345 0.0025816285046 
0.0025948910758 0.0026077969715 0.0026204438959 0.0026328191848 0.0026451108463 0.0026574377368 0.0026701887844 0.0026830680117 0.0026963900504 
0.0027102739462 0.0027247859111 0.0027399685984 0.002755830282 0.0027723396897 0.0027895332582 0.002807357772 0.0028257759159 0.0028447428675 
0.0028642134715 0.0028840842745 0.0029042635113 0.0029248128078 0.0029455765959 0.0029664647075 0.0025520031505 0.0025653610916 0.0025783086057 
0.0025909270111 0.002603182744 0.0026152379014 0.002627198187 0.0026392373866 0.0026517759708 0.0026644671105 0.002677692451 0.0026915532123 
0.0027061067574 0.0027213879444 0.0027373979153 0.0027540836261 0.0027714903145 0.0027895407998 0.0028082071908 0.0028274092103 0.0028470964275 
0.0028671052748 0.002887551186 0.0029082645058 0.0029291560681 0.0029501363663 0.0025350486555 0.0025481585726 0.002560851021 0.0025731008225 
0.0025850503696 0.0025967898417 0.0026084700925 0.0026204915004 0.0026326218168 0.0026452019774 0.0026583848581 0.0026722634365 0.0026868842637 
0.0027022809492 0.002718442505 0.0027353050348 0.0027529155112 0.002771173186 0.0027900347515 0.0028094396759 0.0028293207668 0.0028495112722 
0.0028701167154 0.0028909575334 0.0029119465139 0.0029329909755 0.0025191002163 0.0025319789485 0.0025443562629 0.0025563137246 0.0025679805945 
0.0025794535631 0.0025909097655 0.0026027571538 0.0026147888709 0.0026273332936 0.0026405357012 0.0026544895916 0.0026692331738 0.0026847722309 
0.0027011179451 0.0027181647366 0.0027359594278 0.0027544088131 0.0027734620291 0.0027930501451 0.0028131020899 0.0028334507946 0.0028541847208 
0.0028751310094 0.0028961933082 0.0029172738863 0.0025056844622 0.0025183228592 0.0025304264399 0.0025421420793 0.0025535583652 0.0025648265372 
0.0025761400662 0.0025878960316 0.0025999101913 0.0026125010717 0.0026258094159 0.0026399097441 0.0026548357977 0.0026705746574 0.0026871097401 
0.0027043629916 0.0027223597482 0.002741009401 0.0027602498935 0.0027800112265 0.0028001583049 0.0028207061148 0.0028415532112 0.0028625837168 
0.0028837012801 0.0029047753035 0.0024959998017 0.0025083693802 0.0025202628174 0.0025317631749 0.0025429985814 0.0025541314393 0.0025653678138 
0.0025771191795 0.0025892125523 0.0026019353478 0.0026154260406 0.0026297552793 0.0026449100631 0.002660892117 0.0026776366813 0.002695164003 
0.0027133895078 0.0027322546155 0.0027516883146 0.0027716239478 0.0027919243134 0.0028126011012 0.0028335491755 0.002854654213 0.0028757889605 
0.0028968989216 0.0024907957984 0.0025029740956 0.002514681733 0.0025260207344 0.0025371377583 0.0025482131546 0.0025596570072 0.0025712987128 
0.0025835413318 0.0025964929568 0.0026102464022 0.0026248445017 0.0026402961478 0.002656581914 0.0026736156051 0.0026914216131 0.0027099041057 
0.0027290047044 0.0027486499304 0.0027687682305 0.0027892295372 0.0028100345335 0.0028310831382 0.0028522526143 0.0028734334347 0.0028945819727 
0.0024906334311 0.0025026710021 0.0025142423961 0.0025254798495 0.0025365452565 0.0025476426314 0.002559175629 0.0025710053507 0.0025834841299 
0.0025967075989 0.0026107744086 0.0026257217666 0.002641523125 0.0026581592552 0.0026755176181 0.0026936504202 0.0027124245308 0.0027317879951 
0.0027516686286 0.0027719429464 0.0027926265897 0.0028135716797 0.0028347229896 0.0028559549495 0.0028772314049 0.0028983619522 0.0024959132724 
0.0025078071604 0.0025192892878 0.0025304886537 0.0025415752123 0.0025527869099 0.0025644913969 0.0025765494984 0.002589333989 0.0026029061816 
0.0026173517493 0.0026326821864 0.002648882959 0.002665910097 0.0026836386001 0.0027021215061 0.0027212281422 0.0027408929524 0.0027610323439 
0.0027815387963 0.002802414626 0.0028235159933 0.0028447772947 0.0028661510376 0.0028874548732 0.0029086123069 0.0025067333394 0.0025185666938 
0.0025300198664 0.0025412437134 0.0025524427202 0.0025639804226 0.0025757561145 0.0025881307084 0.0026012780798 0.0026152525032 0.002630118873 
0.0026458780983 0.0026625077295 0.0026799471652 0.0026980750483 0.0027169475191 0.002736411962 0.0027564041235 0.0027768449531 0.0027976036228 
0.0028187039982 0.0028399752854 0.0028614344673 0.0028828921196 0.0029042774755 0.0029254837098 0.0025231918859 0.0025350135543 0.0025465217505 
0.0025578384145 0.0025691869318 0.0025809625657 0.0025930532704 0.0026058036566 0.0026193646285 0.0026337818583 0.0026491026386 0.0026653207491 
0.0026823972996 0.0027002752833 0.002718820427 0.0027380913634 0.0027579376652 0.0027782895232 0.002799050604 0.0028201127872 0.0028414431695 
0.0028629798793 0.0028845897655 0.0029061920617 0.0029276909504 0.0029489851057 0.0025452742616 0.002557139511 0.0025687250921 0.0025802084517 
0.0025918016762 0.0026038783368 0.0026163457451 0.0026295185418 0.0026435348849 0.0026584241555 0.002674224015 0.0026909111107 0.0027084492212 
0.0027267078754 0.0027457479715 0.0027654352978 0.0027856741778 0.0028063878581 0.0028274685371 0.00284886451 0.0028705338576 0.0028922960316 
0.002914124696 0.0029359163064 0.0029575677453 0.0029789835565 0.0025727834238 0.0025847636287 0.0025965225439 0.0026082428124 0.0026201400795 
0.0026325876446 0.0026454841452 0.002659122361 0.0026736257461 0.0026890045777 0.0027052915967 0.0027224550205 0.0027404551851 0.0027591513748 
0.0027786233462 0.0027987251334 0.0028193618593 0.0028404572035 0.002861875121 0.0028836617275 0.0029056234412 0.002927669626 0.0029497601888 
0.0029717810502 0.0029936312977 0.0030152211731 0.002605479698 0.002617652909 0.0026296610391 0.0026416830989 0.0026540986597 0.0026668264996 
0.0026801946812 0.0026943314561 0.0027093392185 0.0027252222177 0.0027419901148 0.0027596234918 0.0027780713052 0.0027972024093 0.0028170938379 
0.0028375926889 0.0028586267421 0.0028800790505 0.0029019192506 0.0029240240317 0.0029463155889 0.0029686814183 0.0029910845204 0.0030133803668 
0.0030354877262 0.0030573080477 0.0026429290001 0.0026553680387 0.0026677005741 0.0026801134095 0.0026929607645 0.0027061676051 0.0027200436027 
0.0027346949193 0.0027502114814 0.0027665901732 0.0027838342324 0.0028019183406 0.0028208019662 0.0028403390655 0.0028606235935 0.0028815192399 
0.0029029262437 0.0029247574433 0.0029469509859 0.0029694105481 0.0029920488825 0.0030147566321 0.0030374731487 0.0030600895027 0.003082503791 
0.0031046217193 0.002684484971 0.0026972757979 0.0027100072563 0.0027228747815 0.0027362117003 0.0027499447564 0.00276434442 0.0027795252503 
0.0027955551177 0.0028124257275 0.0028301183973 0.002848631567 0.0028679080474 0.0028878175971 0.0029084651299 0.0029296964756 0.0029514644189 
0.002973630124 0.0029961682963 0.0030189766496 0.0030419673807 0.0030650305973 0.0030881036886 0.0031110737134 0.0031338318589 0.0031563108972 
0.002729192162 0.0027424133933 0.0027556234801 0.002769017438 0.0027828923838 0.0027971988184 0.0028121461721 0.0028278490049 0.0028443671464 
0.0028616684123 0.0028797846573 0.0028986767465 0.0029183110315 0.0029385532727 0.0029595149861 0.0029810619947 0.0030031176063 0.0030255989085 
0.0030484564795 0.0030715996827 0.0030949365158 0.0031183591354 0.0031418070665 0.0031651638174 0.0031883329968 0.0032112139778 0.0027757860798 
0.002789525034 0.0028032777477 0.0028172294291 0.0028316719744 0.0028465280488 0.0028620177053 0.0028782307957 0.0028952020853 0.0029129171335 
0.002931411902 0.0029506414399 0.0029705759527 0.0029910812029 0.0030123187422 0.0030341159165 0.0030564366582 0.0030791923231 0.0031023370759 
0.0031257847811 0.0031494487114 0.0031732282216 0.0031970566908 0.0032208198417 0.0032444173043 0.0032677598182 0.0028225620955 0.0028368619122 
0.0028511970058 0.0028658467066 0.0028807685447 0.0028961901701 0.0029122071125 0.0029288850188 0.0029462724364 0.0029643604352 0.0029831538871 
0.003002650066 0.0030228112365 0.0030435336039 0.0030649547664 0.0030869466464 0.0031094752373 0.0031324633774 0.0031558520446 0.0031795687047 
0.0032035382265 0.0032276607899 0.0032518657306 0.0032760391437 0.003300092164 0.0033239289752 0.0028674058249 0.0028823103306 0.002897264198 
0.0029125302322 0.0029280399489 0.0029440061714 0.0029605106892 0.0029775988654 0.0029953494697 0.0030137281478 0.0030327658616 0.0030524430393 
0.0030726573763 0.0030936053284 0.0031151470074 0.0031372589861 0.0031599129577 0.0031830666913 0.0032066512917 0.0032306024228 0.0032548528833 
0.0032792931933 0.0033038613565 0.0033284511176 0.0033529656808 0.0033773147728 0.0029080428561 0.0029235678187 0.0029391380105 0.0029549934614 
0.0029710605536 0.0029875263461 0.00300445307 0.0030219071691 0.0030399379683 0.0030585319056 0.0030777144582 0.0030974894194 0.0031177778846 
0.0031387562871 0.0031603360415 0.0031824960205 0.0032052220426 0.0032284757592 0.0032521967437 0.0032763312847 0.0033008087436 0.003325528407 
0.0033504352636 0.0033754203688 0.0034003936213 0.0034252616139 0.0029422049014 0.0029583224861 0.0029744817731 0.0029908824859 0.0030074539278 
0.0030243514025 0.0030416336576 0.003059360657 0.0030775906296 0.0030962986604 0.003115536488 0.0031353363715 0.003155578604 0.0031765104385 
0.0031980394146 0.0032201734571 0.0032428878892 0.0032661728617 0.0032899738808 0.003314240921 0.0033389049539 0.0033638728981 0.003389086158 
0.0034144265455 0.0034398281603 0.0034651888892 0.0029680025778 0.0029846615425 0.0030014173215 0.0030182236253 0.0030352188686 0.0030524562696 
0.0030700111431 0.0030879286293 0.0031062532703 0.0031249862107 0.0031441976928 0.0031638921001 0.0031840068566 0.0032047992918 0.0032261918366 
0.0032482148344 0.0032708505542 0.0032940946466 0.0033179164674 0.0033422632029 0.0033670693282 0.003392243432 0.0034177226159 0.0034433999612 
0.0034691973741 0.003495030558 0.0028416639847 0.0028572262518 0.0028726744009 0.0028879804012 0.0029031500991 0.0029182274077 0.0029332931605 
0.0029483288093 0.0029634687857 0.0029790560935 0.0029946004962 0.0030104466376 0.0030266499098 0.003043264391 0.0030603260199 0.0030778646696 
0.0030958910726 0.003114436542 0.0031334908899 0.0031530445854 0.0031730799041 0.0031935417116 0.0032144383916 0.0032356112626 0.0032571846219 
0.0032790167707 0.0028448256355 0.0028602820076 0.0028756032327 0.0028907544507 0.0029057569738 0.0029206980193 0.0029355487112 0.0029504535054 
0.0029654855922 0.0029810093142 0.0029965518284 0.0030124579409 0.0030287878811 0.0030455844356 0.0030628883009 0.0030807103746 0.0030990471672 
0.0031179298333 0.0031373340679 0.0031572429875 0.0031776268629 0.0031984229193 0.0032196349732 0.0032411016708 0.0032629404261 0.0032850054917 
0.0028428478328 0.0028581859003 0.002873360392 0.0028883154642 0.0029031546616 0.0029178433061 0.0029325183593 0.0029472574832 0.0029623981266 
0.0029775919648 0.0029931110284 0.0030090556778 0.0030254866264 0.003042443186 0.0030599521538 0.0030780220441 0.0030966334497 0.0031158182558 
0.003135534498 0.003155758591 0.0031764504346 0.0031975437884 0.0032189515844 0.0032407657859 0.0032628268236 0.003285084951 0.0028369666174 
0.0028521649782 0.0028671513874 0.002881909545 0.0028965303862 0.0029110036989 0.0029254795582 0.0029400434446 0.0029550461284 0.0029701515062 
0.0029856426638 0.0030016184492 0.0030181353607 0.0030352360192 0.0030529308335 0.0030711996011 0.0030900799735 0.0031095325001 0.0031295275996 
0.003150030012 0.0031710046803 0.0031923588844 0.0032140130533 0.0032360370051 0.0032582943332 0.003280704379 0.0028286660118 0.0028437140396 
0.0028584872562 0.002873072522 0.0028874325316 0.0029017124112 0.0029159886189 0.0029303919086 0.0029452709245 0.002960311638 0.0029757872519 
0.0029918047953 0.0030084142984 0.0030256519403 0.0030435255007 0.0030619920564 0.0030811040972 0.0031007979354 0.0031210564419 0.0031418074201 
0.0031630145985 0.0031845252177 0.0032064667912 0.0032286827074 0.0032510976919 0.0032736372121 0.0028194586791 0.0028343498328 0.0028489715252 
0.0028633026628 0.0028774783101 0.0028915669008 0.002905682469 0.0029201772902 0.002934768424 0.0029497519563 0.00296524896 0.002981335395 
0.0029980533369 0.0030154403155 0.0030334932683 0.0030521617773 0.0030715015151 0.0030914244037 0.0031118988109 0.0031328759686 0.0031543007077 
0.0031760188117 0.0031981486588 0.0032205246502 0.0032430745629 0.0032657212915 0.0028108311158 0.0028255499141 0.0028399930483 0.0028541504909 
0.0028681495694 0.0028820822522 0.0028960754413 0.0029104835613 0.0029250467928 0.0029400493907 0.0029556077152 0.0029718019657 0.0029886694215 
0.0030062235754 0.0030244834151 0.0030433583275 0.0030629061175 0.0030830457251 0.0031037381457 0.0031249264312 0.0031465518197 0.0031684601699 
0.0031907536718 0.0032132724526 0.0032359394185 0.0032586710709 0.002804017335 0.0028186216219 0.0028328573693 0.0028468703323 0.0028607291735 
0.0028745588097 0.0028884820411 0.0029028616984 0.002917452321 0.0029325310242 0.0029482140012 0.0029645627892 0.002981627237 0.002999391083 
0.0030178547156 0.0030369531358 0.0030567239684 0.0030770885518 0.0030979964054 0.0031193890391 0.0031411435963 0.0031632878976 0.0031857342817 
0.0032083820128 0.0032311512918 0.0032539298824 0.0028000575366 0.0028144835338 0.002828604579 0.0028424967262 0.0028562644255 0.0028700289794 
0.002883941769 0.0028983639323 0.0029130461201 0.0029282637084 0.0029441265915 0.0029607023069 0.0029779850047 0.0029959891211 0.0030146625443 
0.003034045433 0.0030540600383 0.003074661334 0.0030957892924 0.0031173881158 0.0031393321273 0.0031616453872 0.0031842364496 0.0032070063436 
0.0032298630912 0.003252717016 0.0027996384524 0.0028139609732 0.0028279862054 0.002841802974 0.0028555279372 0.0028692939839 0.0028834526199 
0.002897775288 0.0029126136958 0.0029280541454 0.0029441518166 0.0029609746062 0.0029785338995 0.0029968260457 0.003015781496 0.0030354396961 
0.0030557182724 0.0030765703389 0.0030979328259 0.0031197442571 0.0031418851229 0.0031643677354 0.0031871051889 0.0032099900148 0.0032329300161 
0.0032559014076 0.0028033157577 0.0028175815252 0.0028315520268 0.0028453431458 0.0028590776329 0.0028729069367 0.0028871739928 0.0029016822051 
0.0029167394844 0.0029324155813 0.0029488010127 0.002965938757 0.002983816549 0.0030024329525 0.0030216939345 0.0030416679827 0.0030622363139 
0.0030833585573 0.0031049735158 0.0031269664565 0.0031493626551 0.0031720256301 0.0031949119472 0.0032179109276 0.0032410037179 0.0032640201949 
0.0028114750216 0.0028257076747 0.0028396639659 0.0028534800404 0.002867282085 0.0028812504461 0.0028956908597 0.0029104097737 0.0029257419343 
0.0029417262419 0.002958446719 0.0029759253705 0.0029941624015 0.0030131377178 0.0030327419447 0.0030530470336 0.0030739375788 0.0030953596006 
0.0031172433675 0.0031394869602 0.0031621078539 0.003184959872 0.0032080003153 0.003231192027 0.0032543696543 0.0032774768978 0.0028243319436 
0.002838543724 0.0028525361328 0.0028664279367 0.0028803739665 0.0028946769483 0.0029091754615 0.0029241799637 0.0029398314536 0.0029561702767 
0.0029732631194 0.0029911235766 0.0030097465711 0.0030290961888 0.0030490679282 0.0030697376298 0.0030909687779 0.0031127108953 0.0031348969095 
0.0031574064634 0.0031802663179 0.0032033227669 0.0032266008599 0.0032499245131 0.0032732392623 0.0032964581949 0.0028419000982 0.0028561638486 
0.0028702634108 0.0028842885738 0.0028984007016 0.0029129353756 0.0029277222955 0.0029430609772 0.0029590765029 0.0029758041693 0.0029932991186 
0.00301156948 0.003030596204 0.0030503436922 0.0030706986202 0.0030917384717 0.0031133297794 0.0031354172174 0.0031579186606 0.0031807277555 
0.00320383805 0.0032271821961 0.0032506452476 0.0032741550984 0.0032976367063 0.0033209991998 0.0028641954705 0.002878557694 0.0028927786237 
0.0029069906076 0.0029213495225 0.0029361648599 0.0029512901795 0.0029670011497 0.0029834157577 0.0030005601143 0.0030184809656 0.0030371716886 
0.0030566163987 0.0030767046782 0.0030975221664 0.0031189494783 0.0031409095373 0.0031633416694 0.003186146991 0.0032092930453 0.0032327430229 
0.0032563284676 0.0032800340926 0.0033037690915 0.0033274457493 0.0033509874904 0.0028910053198 0.0029055246729 0.0029199463925 0.0029344037817 
0.002949052284 0.0029642041434 0.0029797108504 0.0029958305764 0.003012673305 0.0030302504724 0.0030486064167 0.0030677270738 0.0030875930896 
0.0031080848351 0.0031293008348 0.0031511160121 0.0031734505703 0.0031962440647 0.0032193745916 0.0032429009155 0.0032666415151 0.0032905174415 
0.0033145005381 0.0033384900909 0.0033624007447 0.0033861613836 0.0029220665711 0.0029368058667 0.0029514877094 0.0029662379789 0.0029813754564 
0.0029967623513 0.0030126824666 0.0030292398909 0.0030465266419 0.0030645522842 0.0030833398826 0.0031028880267 0.0031231654538 0.0031440610508 
0.0031656704631 0.0031878580476 0.0032105698624 0.0032337023067 0.0032572398701 0.0032810728222 0.0033051364331 0.0033293311868 0.0033536333162 
0.0033779127912 0.0034021046057 0.0034261290682 0.0029569261656 0.0029719403052 0.0029869387415 0.0030020529204 0.0030175776738 0.0030333860776 
0.0030497505166 0.0030667575812 0.0030844931602 0.0031029616447 0.0031221806275 0.0031421425344 0.0031628256672 0.0031841022956 0.0032060845832 
0.0032286518161 0.0032517200013 0.0032752166762 0.0032990941523 0.0033232699876 0.0033476707428 0.0033722012557 0.0033968154835 0.0034214202638 
0.0034459318666 0.003470273069 0.0029949467525 0.0030103006491 0.0030256694744 0.0030411928537 0.0030571477985 0.0030734148257 0.0030902336556 
0.0031077048246 0.0031258947797 0.0031447953818 0.0031644371324 0.0031847984262 0.0032058517916 0.0032274848349 0.0032498170699 0.0032727096079 
0.0032961293969 0.0033199507797 0.0033441639633 0.0033686786204 0.0033934217984 0.0034182985804 0.0034432620957 0.0034682164665 0.003493080977 
0.0035177790305 0.0030352431829 0.0030509920809 0.003066799698 0.0030827775734 0.0030991947081 0.0031159592735 0.0031332533953 0.0031511845636 