# vtk DataFile Version 5.1
vtk output
ASCII
DATASET STRUCTURED_POINTS
DIMENSIONS 26 26 26
SPACING 0.08 0.08 0.08
ORIGIN -1 -1 0.5
POINT_DATA 17576
FIELD FieldData 1
potential 1 17576 double
0.0024811403493 0.0024558990171 0.0024316551203 0.0024084761686 0.0023863997882 0.0023654441653 0.0023458994427 0.0023269772623 0.0023089039855 
0.0022915139235 0.0022746229912 0.0022581306391 0.0022417063124 0.0022252922466 0.0022087246393 0.0021919103844 0.002174770824 0.0021572524207 
0.0021393355658 0.0021210247413 0.0021023474064 0.0020833471738 0.0020640849624 0.002044334181 0.0020247631616 0.0020051538275 0.0024813083108 
0.0024557753213 0.0024314447516 0.0024082422059 0.0023862110335 0.002365372476 0.0023456228307 0.0023272541528 0.0023093844067 0.0022921823267 
0.0022754410779 0.0022589568249 0.0022426340106 0.0022261708428 0.0022095272333 0.0021925830758 0.002175282984 0.0021575909669 0.0021394940041 
0.0021210031067 0.0021021482854 0.0020829755773 0.0020635472136 0.0020439293639 0.0020239028694 0.0020041443667 0.002471769364 0.0024462542804 
0.0024219080289 0.0023986082421 0.0023766901133 0.0023560221885 0.0023364931297 0.0023180196337 0.0023007721317 0.0022838154774 0.0022672855725 
0.0022509658441 0.0022347556599 0.0022183514269 0.0022016845103 0.0021847559764 0.0021674049408 0.0021496433778 0.0021314650059 0.0021128857703 
0.0020939394506 0.0020746742333 0.0020551533298 0.0020354424964 0.0020156193368 0.0019954692713 0.0024555347603 0.0024300103644 0.0024057078498 
0.0023826449313 0.0023608700362 0.0023402297462 0.0023209466872 0.0023027154147 0.0022853477718 0.0022689801577 0.0022526481142 0.002236495954 
0.0022203486306 0.0022041239755 0.0021875589527 0.002170660374 0.0021533442918 0.0021356015169 0.0021174307282 0.002098850281 0.0020798965217 
0.0020606164946 0.0020410743725 0.0020213396747 0.0020014885722 0.0019816042424 0.0024361142564 0.0024106883662 0.0023864003182 0.0023634512923 
0.0023418205677 0.0023214900558 0.0023022372442 0.0022841695427 0.0022669472277 0.0022503387947 0.002234114163 0.0022184210302 0.0022023535559 
0.0021861470978 0.002169742516 0.0021528918951 0.002135702438 0.0021180429306 0.0020999521821 0.0020814444739 0.002062555501 0.0020433339923 
0.002023841744 0.0020041487117 0.0019843328118 0.0019644772238 0.0024166791154 0.0023914625058 0.0023673273053 0.0023444261481 0.0023229122414 
0.0023026861561 0.0022836516937 0.0022656169477 0.002248250077 0.0022315992707 0.0022153140113 0.0021992099063 0.002183476843 0.0021672680465 
0.0021509076832 0.0021341271455 0.0021169961645 0.0020994898198 0.002081521508 0.0020631411437 0.0020443791215 0.0020252795861 0.002005901796 
0.0019863138219 0.0019665933121 0.0019468239835 0.0024002515216 0.0023749849835 0.0023509451254 0.0023281947677 0.0023068153086 0.0022866093693 
0.0022675216457 0.0022493804825 0.0022319623908 0.0022150712747 0.0021983953727 0.0021820471968 0.0021657580922 0.0021497717746 0.0021332703625 
0.0021165839721 0.0020994850592 0.0020820833654 0.0020642525697 0.002046031508 0.0020274391778 0.0020085121028 0.0019893031144 0.0019698767433 
0.001950306875 0.0019306759641 0.0023886759245 0.0023635153388 0.0023395615522 0.0023168629515 0.0022953533478 0.0022750717113 0.0022559420382 
0.0022375252685 0.0022197393321 0.0022024146337 0.0021854074115 0.0021686102116 0.0021517930427 0.0021351260189 0.0021187677803 0.002101957772 
0.0020848282337 0.0020674378447 0.0020497600147 0.0020316975486 0.0020132942125 0.0019945716784 0.0019755729516 0.0019563535992 0.001936983265 
0.0019175394868 0.0023832716547 0.0023582264298 0.002334334151 0.0023116462963 0.0022901255381 0.0022696080518 0.0022500507055 0.0022312128299 
0.0022130237748 0.0021950892025 0.0021774374221 0.0021599977408 0.0021427108854 0.0021254065782 0.0021082763319 0.0020914807721 0.002074283913 
0.0020568222963 0.002039153708 0.0020212535573 0.0020030279537 0.0019845189614 0.001965753197 0.0019467742034 0.0019276395846 0.001908427137 
0.002384801519 0.002359860823 0.0023360154147 0.0023132928381 0.0022916301099 0.0022708411385 0.0022508696121 0.00223146366 0.0022124962384 
0.0021938099103 0.0021754841327 0.0021572372879 0.00213918008 0.0021213043368 0.0021035797838 0.0020858331109 0.0020686823184 0.0020510349608 
0.0020333069063 0.0020154579903 0.0019973617456 0.0019790457756 0.0019605129812 0.001941788084 0.0019229174743 0.0019039638474 0.0023936548631 
0.0023688079693 0.0023449900631 0.00232217532 0.0023003000521 0.0022792094595 0.0022586648988 0.0022386027681 0.0022188566386 0.002199304136 
0.0021799353509 0.0021607590534 0.0021419145619 0.0021231867608 0.0021047006402 0.0020864337013 0.0020682262596 0.0020506692571 0.0020327394538 
0.0020147846739 0.0019967811731 0.0019786004557 0.0019602718059 0.0019417927776 0.0019231915373 0.0019045137235 0.0024099682841 0.0023852092211 
0.0023613709575 0.0023384202251 0.0023162616061 0.0022947308625 0.0022736408464 0.0022527848205 0.0022321684437 0.0022116693998 0.0021913032466 
0.0021711033753 0.0021511322444 0.0021315567978 0.002112175975 0.0020931080899 0.0020743508358 0.0020558577909 0.0020378638657 0.0020196972853 
0.0020016237617 0.0019834899978 0.0019653027576 0.0019470317573 0.0019286815991 0.0019102768082 0.0024337360449 0.0024090344415 0.0023851444014 
0.0023619938473 0.00233948495 0.0023174333704 0.0022956679804 0.0022739986376 0.002252459985 0.0022309631204 0.0022095488308 0.0021882775436 
0.0021672363203 0.0021464955513 0.002126122669 0.0021062584679 0.0020866905842 0.0020675169671 0.0020487386426 0.00203045317 0.0020121187724 
0.0019939534949 0.0019758020732 0.0019576689694 0.0019395225485 0.00192136229 0.0024648588083 0.0024401759063 0.0024161755791 0.0023927786515 
0.0023698304875 0.002347189047 0.0023246840473 0.0023022015647 0.0022796297983 0.0022571206156 0.0022346360841 0.0022122728839 0.0021901355905 
0.0021683130453 0.0021468920596 0.0021259212829 0.002105438947 0.0020855724397 0.0020660463917 0.0020470364643 0.0020286851734 0.0020101413963 
0.0019919442972 0.0019738353056 0.0019558111751 0.0019378425903 0.0025031734009 0.0024784468932 0.0024542639862 0.0024305332918 0.0024070906341 
0.0023837843881 0.002360482066 0.0023370900951 0.0023135318204 0.0022899833955 0.002266428391 0.0022429779978 0.0022197497819 0.0021968444115 
0.0021743623024 0.0021523654994 0.0021309101741 0.0021100328428 0.0020897309866 0.0020701346389 0.0020508821619 0.002032418626 0.0020138732602 
0.001995661431 0.0019776374332 0.0019597606704 0.0025484442247 0.0025235879918 0.0024991400089 0.0024749865474 0.0024509600099 0.0024269291083 
0.0024027720277 0.0023784408319 0.0023539369765 0.0023293015676 0.0023046942081 0.0022801840768 0.0022558964356 0.0022319373131 0.0022084146505 
0.0021853987019 0.0021629573385 0.0021411430981 0.0021199703161 0.0020994175311 0.0020796661796 0.002060663749 0.0020417732761 0.0020233268027 
0.002005060167 0.0019871525511 0.0026003732926 0.0025752756762 0.0025504536379 0.002525748155 0.0025010540988 0.0024762145533 0.0024511615491 
0.0024258630701 0.0024003597174 0.0023747603923 0.0023490827748 0.0023235595945 0.00229826657 0.0022733117139 0.0022488042512 0.0022248123948 
0.0022014165737 0.002178663755 0.0021565957655 0.0021352001903 0.0021145715445 0.0020945377533 0.0020755691552 0.0020566882781 0.0020382168912 
0.0020200160605 0.0026584687991 0.002632972484 0.0026076314841 0.0025822906005 0.0025568201887 0.0025310998958 0.0025051015741 0.0024788260392 
0.0024523076926 0.0024257245176 0.0023990761536 0.0023726098976 0.0023463875494 0.0023205170996 0.0022951040183 0.0022702214874 0.0022459312726 
0.0022222925385 0.0021993498936 0.002177101373 0.0021555930076 0.0021348548821 0.0021147325719 0.0020957066479 0.0020767991402 0.0020583361971 
0.0027220581738 0.0026959685978 0.0026699259706 0.0026437864278 0.0026174219393 0.0025907518279 0.0025637528919 0.0025364875366 0.0025090263716 
0.0024814860093 0.0024539968657 0.002426615239 0.0023995393916 0.0023728577166 0.0023466484358 0.0023209658886 0.0022958833698 0.0022714403452 
0.0022476829484 0.0022246336501 0.0022022929095 0.0021807578584 0.0021598758812 0.0021396780019 0.0021205127118 0.0021016165853 0.0027900256695 
0.0027631029197 0.0027361658127 0.0027090803318 0.0026817006869 0.0026540144217 0.0026259863907 0.0025977243106 0.0025693162492 0.0025408776198 
0.0025125659301 0.0024844172918 0.0024566415119 0.0024292791311 0.0024024045012 0.0023760606767 0.0023502912579 0.0023251658191 0.0023006918919 
0.0022769023209 0.0022537928151 0.0022314104577 0.00220979737 0.0021888235937 0.0021685242528 0.0021492462182 0.002860845852 0.0028328238412 
0.0028047578905 0.002776504134 0.0027479706205 0.0027191417529 0.0026900504083 0.0026607994466 0.0026314936612 0.0026022470468 0.0025732236557 
0.0025444922591 0.0025160875881 0.0024881865863 0.002460808515 0.0024339740062 0.0024077170667 0.0023820562183 0.0023570048099 0.0023325860175 
0.0023087752024 0.0022856593361 0.0022632704308 0.002241491222 0.0022203818986 0.0021999452193 0.0029321711076 0.002902753796 0.0028733220164 
0.0028437314987 0.0028139274185 0.0027839096996 0.0027537396876 0.0027235091459 0.0026933561448 0.0026633877351 0.0026337373809 0.0026044863393 
0.0025756608935 0.0025474084658 0.0025197142558 0.0024925750383 0.0024660342762 0.0024400091908 0.0024145428972 0.0023896399924 0.0023652837929 
0.002341525944 0.0023183608212 0.0022958430571 0.0022738981763 0.0022525640706 0.0030008905608 0.0029698246509 0.0029388185586 0.0029077535896 
0.0028765792817 0.0028453207784 0.00281406012 0.0027828944485 0.0027519654111 0.0027213720004 0.0026912494986 0.0026616491267 0.0026326274957 
0.0026041741163 0.0025763775269 0.0025491515044 0.0025224728257 0.0024963059633 0.0024706251195 0.0024454082511 0.0024206735228 0.0023963874037 
0.0023725960383 0.002349372538 0.0023266195445 0.0023043995477 0.003063678337 0.0030304398626 0.0029977051623 0.0029650473552 0.0029324419945 
0.0028999270233 0.0028675956369 0.0028355538869 0.0028039340806 0.0027728362384 0.0027423865209 0.0027126159121 0.0026835619369 0.0026551789383 
0.0026275161496 0.0026004480017 0.0025739112933 0.0025478285068 0.0025221411789 0.0024968073246 0.0024718143245 0.0024471421251 0.0024228450262 
0.0023989886703 0.0023755042453 0.002352443989 0.0031160673664 0.0030812286901 0.0030463536446 0.0030120588425 0.0029780066587 0.0029442537301 
0.0029108993873 0.0028780520635 0.0028458494528 0.0028143832832 0.0027837598948 0.0027540263205 0.0027251647659 0.0026971393972 0.002669829116 
0.0026431863505 0.0026170504735 0.0025913021809 0.0025658421396 0.0025406033721 0.0025155530231 0.0024906697742 0.0024660059503 0.0024415684801 
0.002417463252 0.0023936133188 0.003155164613 0.0031184017546 0.0030820727094 0.0030458220851 0.0030103626993 0.0029754203821 0.0029411146862 
0.0029075645246 0.0028748879029 0.0028431951218 0.0028125830804 0.0027830757009 0.0027546314075 0.0027271828827 0.0027005413503 0.0026746069279 
0.0026491528999 0.0026239971598 0.0025990037712 0.0025740763429 0.0025491599504 0.0025242357339 0.0024993493549 0.0024745235667 0.0024498672751 
0.0024253235886 0.002738849371 0.002711482124 0.0026850282612 0.0026595354253 0.0026350253847 0.0026115074652 0.002589274094 0.0025675529017 
0.0025465985036 0.0025262830827 0.0025064635635 0.0024870767023 0.0024678283908 0.0024486841198 0.0024295024407 0.0024102056242 0.0023907246222 
0.0023710093311 0.0023510376936 0.0023308068969 0.0023103336502 0.0022896487528 0.0022687993314 0.0022475450727 0.0022265398213 0.0022055522926 
0.0027471058839 0.0027193437571 0.0026926855949 0.002667033836 0.0026424132763 0.0026188352898 0.002596200876 0.0025748229334 0.0025538583943 
0.0025335249359 0.0025136672662 0.0024941274048 0.0024748456706 0.0024555456621 0.0024362056755 0.0024167142021 0.0023970201087 0.0023770860514 
0.0023568932144 0.0023364433027 0.0023157545795 0.0022948598796 0.002273807105 0.0022526497134 0.0022311536472 0.0022099817067 0.0027482167298 
0.0027203547994 0.0026935476393 0.0026676477931 0.0026429672153 0.0026193644627 0.0025967357363 0.0025750246679 0.0025544488329 0.0025341332653 
0.0025142739097 0.0024947061975 0.0024753683766 0.0024559829402 0.0024364963054 0.0024169152482 0.0023970798263 0.0023769967411 0.0023566510981 
0.0023360475344 0.0023152067585 0.0022941628965 0.0022729635259 0.0022516633785 0.0022303222358 0.0022087128437 0.0027442276513 0.0027162267172 
0.00268932002 0.0026634946585 0.0026387763855 0.0026150023659 0.0025924048603 0.0025707131271 0.0025497935792 0.0025298481624 0.0025099780538 
0.0024903819216 0.0024709218675 0.0024515529544 0.0024320170051 0.0024123298609 0.0023924067299 0.0023722317653 0.0023517934454 0.0023310974041 
0.0023101657218 0.002289030374 0.0022677401808 0.0022463493458 0.0022249189048 0.0022035170713 0.0027375736733 0.0027095324594 0.0026824885517 
0.0026566114811 0.0026318579732 0.0026082033879 0.0025854413157 0.0025637198055 0.0025427587898 0.0025223938526 0.0025028210658 0.0024831501346 
0.0024636049302 0.0024440847293 0.0024245477195 0.0024047536179 0.0023848108928 0.0023645828717 0.0023440987981 0.002323359805 0.0023023869369 
0.0022812131346 0.0022598839844 0.0022384531857 0.0022169825128 0.0021955391303 0.0027304898222 0.0027025108071 0.0026754639078 0.0026494701805 
0.0026246629597 0.002600942312 0.0025782357583 0.0025563992359 0.0025351625136 0.0025146361804 0.0024945244442 0.0024746860907 0.0024553442808 
0.0024356841444 0.0024160338303 0.0023961528798 0.0023761099131 0.0023558822462 0.0023353741074 0.0023146252118 0.0022936520987 0.0022724832477 
0.0022511612842 0.0022297372433 0.0022082713418 0.0021868309422 0.0027253540219 0.002697171786 0.0026700621507 0.0026439999122 0.0026192283266 
0.0025953820526 0.0025724976745 0.0025504568599 0.0025290974731 0.0025082785978 0.0024877276305 0.0024675886498 0.0024476156963 0.0024280731769 
0.0024081638475 0.0023882345326 0.0023680706125 0.002347786128 0.002327256108 0.0023065119883 0.0022855630682 0.0022644306521 0.0022431518662 
0.002221773972 0.0022003529693 0.0021789529244 0.0027236787062 0.0026954422192 0.0026682591266 0.0026421523801 0.0026170492579 0.0025930068274 
0.0025699919587 0.0025476242386 0.0025258796542 0.0025046324364 0.0024837652014 0.0024631842463 0.0024426695295 0.0024224026514 0.0024025584428 
0.002382396072 0.0023620660603 0.0023416407105 0.0023211007027 0.0023003521315 0.0022794319089 0.0022583510927 0.0022371395062 0.002215836029 
0.0021944923171 0.0021731665726 0.0027266874982 0.0026983999859 0.0026711174851 0.0026448719501 0.0026196286737 0.002595253115 0.0025717539827 
0.0025489514405 0.0025268279381 0.0025050221092 0.0024835717515 0.0024624107798 0.0024414691379 0.0024205789424 0.0023999398629 0.0023797287756 
0.0023592081384 0.0023386047646 0.0023179235152 0.0022971726425 0.0022762624611 0.0022552304878 0.0022340936904 0.0022128817048 0.0021916352271 
0.0021704123625 0.0027351893136 0.0027068324715 0.0026794341219 0.0026530092638 0.0026275076447 0.0026027830512 0.0025788379402 0.0025554816985 
0.002532633037 0.0025101565305 0.0024881300875 0.0024662580849 0.0024446335163 0.0024232361287 0.0024020338014 0.0023808631321 0.0023603585157 
0.0023394536033 0.0023185866492 0.0022977369474 0.0022767915429 0.0022557824675 0.002234709842 0.0022135897113 0.0021924523302 0.0021713461651 
0.0027496795474 0.0027212348223 0.0026936990364 0.0026670417811 0.0026412223336 0.0026161349724 0.0025916042656 0.0025676249459 0.0025440685247 
0.002520822751 0.0024978671137 0.0024753084734 0.0024528892139 0.0024307419028 0.0024088548445 0.0023872053156 0.002365645276 0.00234478555 
0.002323630457 0.0023025529378 0.0022815512111 0.0022605126451 0.0022394719162 0.0022184247035 0.0021973922095 0.0021764033162 0.0027704108575 
0.0027418640924 0.0027141403538 0.0026872113394 0.0026610131958 0.0026354376901 0.00261036357 0.0025856265016 0.002561287387 0.0025371987412 
0.0025133647609 0.0024897873155 0.0024664942157 0.0024436228713 0.0024209499368 0.0023985833205 0.0023765225142 0.0023547346508 0.0023334773611 
0.0023121068402 0.0022909165858 0.0022697781241 0.0022487136897 0.0022277028675 0.0022067468563 0.002185861826 0.0027974749178 0.0027687882787 
0.0027408436742 0.0027135827351 0.0026869483007 0.0026608165739 0.0026350785293 0.0026095884541 0.0025843994416 0.0025594148835 0.002534648813 
0.002510125441 0.0024858934618 0.0024619881573 0.002438448796 0.0024153976544 0.0023926133991 0.0023701992974 0.0023481710757 0.0023266497803 
0.0023051233245 0.002283838005 0.0022626670009 0.0022416300026 0.0022207045914 0.0021998891784 0.0028308373476 0.0028019647435 0.0027737414042 
0.0027461070301 0.0027189566568 0.0026922091064 0.0026657504514 0.0026395017888 0.0026133591246 0.0025874579363 0.0025617291652 0.002536230247 
0.0025110252728 0.0024861663059 0.0024617076984 0.0024376705405 0.0024140866641 0.0023910697069 0.0023683517867 0.0023461248514 0.00232455538 
0.0023028230098 0.0022814960469 0.0022603431204 0.0022393791381 0.0022185835269 0.0028703622352 0.0028412375524 0.0028126636254 0.0027845770598 
0.0027568656873 0.0027294362341 0.0027022048348 0.0026751013181 0.0026480465175 0.002621193047 0.002594489516 0.0025680063944 0.002541820593 
0.0025159956322 0.002490596736 0.0024656604226 0.0024412214338 0.0024173034636 0.0023939926177 0.002371148055 0.0023490688937 0.0023270291463 
0.0023052908227 0.002283926981 0.0022628334754 0.0022419750123 0.0029157997201 0.002886339879 0.0028573411911 0.0028287217471 0.0028003707631 
0.0027722090602 0.0027441516976 0.0027161605006 0.0026882296525 0.0026603655783 0.0026326916409 0.0026052358555 0.0025780835072 0.0025513045138 
0.0025249716125 0.0024991291117 0.0024738207758 0.0024490815913 0.0024249152403 0.0024012977787 0.0023784162663 0.0023562336045 0.0023341384769 
0.0023124893078 0.0022910531481 0.0022700343991 0.0029668088853 0.0029369094583 0.0029073880736 0.0028781229699 0.0028490627106 0.0028200941024 
0.0027911733185 0.0027622672339 0.0027333959884 0.0027046326236 0.0026759554933 0.0026475562395 0.0026194720835 0.0025917769837 0.0025645458018 
0.0025378224032 0.0025116623272 0.0024860934934 0.0024611420689 0.0024367868203 0.0024131194802 0.0023899661211 0.0023678349531 0.0023457473413 
0.0023240606092 0.002302664096 0.0030228260429 0.0029923517737 0.0029621841137 0.0029322113617 0.0029023501518 0.0028725135471 0.002842683979 
0.0028128445573 0.0027830156133 0.0027533207461 0.0027237240165 0.0026944325072 0.0026654715573 0.0026369177996 0.0026088440825 0.0025813020482 
0.0025543302323 0.0025279666503 0.0025022406726 0.0024771365563 0.0024526924136 0.0024289349125 0.0024057148663 0.0023835249176 0.0023614081438 
0.0023397102569 0.0030831155178 0.003051909233 0.003020947481 0.002990131854 0.0029593736955 0.0029286054371 0.0028978242835 0.002867046137 
0.0028363046983 0.0028057006362 0.0027752971376 0.0027451210473 0.0027153363243 0.0026860035288 0.0026571699492 0.0026288729082 0.0026011639426 
0.0025740644952 0.0025476042941 0.0025217912325 0.0024966138654 0.0024721603898 0.0024482751708 0.0024249923824 0.0024026704295 0.0023805653505 
0.0031465553137 0.003114433944 0.0030825333668 0.0030507627232 0.0030190162361 0.0029872809685 0.0029555097813 0.0029237782672 0.0028921335072 
0.0028606478025 0.0028294375989 0.0027985031777 0.0027680230259 0.0027380116607 0.0027085217208 0.0026795776557 0.002651206677 0.0026234631584 
0.0025963401723 0.0025698564885 0.0025439946596 0.0025187895142 0.002494274279 0.0024703144988 0.0024469466448 0.0024245253407 0.0032117549962 
0.0031785285789 0.0031455168812 0.003112621567 0.0030797735961 0.0030469545549 0.0030141726434 0.0029814981981 0.0029489746253 0.002916690153 
0.0028847634593 0.0028532300853 0.0028220972207 0.0027915197705 0.0027614999079 0.0027320443904 0.0027031753183 0.0026749002233 0.0026472209628 
0.0026201484263 0.0025936459363 0.0025677861987 0.0025425892763 0.0025179311906 0.0024938563704 0.0024703768321 0.0032767522167 0.0032422134836 
0.0032079230102 0.0031737842648 0.0031397537762 0.0031058217169 0.0030720104274 0.00303839391 0.0030050415291 0.0029720261966 0.0029394440168 
0.0029073462749 0.0028757358988 0.0028447431309 0.0028143416492 0.0027845202233 0.0027553161459 0.0027266405358 0.002698533009 0.002670979754 
0.0026439615361 0.0026175137537 0.0025916745249 0.0025663127086 0.002541515268 0.0025172556338 0.0033391587808 0.0033031412732 0.0032674348835 
0.0032319602115 0.0031966749552 0.0031615931283 0.0031267579257 0.0030922258547 0.0030580948502 0.0030244235935 0.0029913129692 0.002958787814 
0.0029268863744 0.0028955897769 0.0028649727099 0.0028349530614 0.0028055127173 0.0027766140532 0.0027482294092 0.0027203313076 0.0026929286971 
0.0026659759136 0.0026395041995 0.002613571468 0.0025880661346 0.0025630390468 0.0033967004797 0.0033587469286 0.0033215206382 0.0032846279294 
0.0032480495677 0.003211805115 0.0031759540098 0.003140558973 0.0031057179403 0.0030714856938 0.0030379591117 0.0030051463924 0.0029730710324 
0.0029416829553 0.0029110351816 0.0028810113356 0.0028515591206 0.0028226103628 0.0027941111666 0.0027660183766 0.002738312234 0.0027109617508 
0.0026840074314 0.0026574918615 0.0026313364096 0.0026055763652 0.0034461314046 0.0034068458059 0.0033677115047 0.0033293704282 0.0032914857265 
0.0032540952019 0.0032172646303 0.0031810652403 0.0031455943285 0.0031109074614 0.0030770901191 0.0030441429768 0.0030120657369 0.0029808172176 
0.00295029103 0.0029204615007 0.0028911925986 0.002862383352 0.0028339489689 0.0028058252276 0.0027779743185 0.002750363256 0.0027230277222 
0.0026959564585 0.0026692364829 0.0026427738121 0.0034856722895 0.0034447231923 0.0034043606031 0.0033642437126 0.0033250805629 0.0032865792757 
0.0032488222979 0.0032118969866 0.0031758808249 0.0031408482499 0.0031068669013 0.0030739419632 0.003042027905 0.0030110696544 0.0029809069486 
0.0029514787001 0.0029225994753 0.0028941218766 0.0028659328566 0.0028379424983 0.0028100935428 0.0027823534667 0.0027547489056 0.0027272815103 
0.0027000380272 0.0026729433491 0.0030042607709 0.0029746282012 0.0029458432883 0.0029179385723 0.0028909252872 0.0028648079608 0.0028398826383 
0.0028153900698 0.0027916055648 0.0027684286207 0.0027457462791 0.0027235248445 0.0027014971714 0.0026796516934 0.0026578659072 0.0026360761295 
0.002614222619 0.0025922595896 0.0025701645434 0.0025479301547 0.0025255654619 0.0025030914252 0.0024805439989 0.0024576713648 0.0024351145237 
0.0024126314159 0.0030191934468 0.0029890692181 0.002959973169 0.002931791481 0.0029045376022 0.0028782180953 0.0028527402059 0.0028284327421 
0.0028044802462 0.0027811335833 0.0027582732495 0.0027357748951 0.0027136073416 0.0026915166865 0.0026694985154 0.0026474518822 0.0026253318012 
0.0026031023485 0.0025807421008 0.0025582468096 0.0025356262492 0.0025129030072 0.0024901133707 0.0024672996342 0.0024442151092 0.0024215098431 
0.0030288391181 0.0029985053747 0.0029691410301 0.0029405808267 0.0029131236565 0.0028866243625 0.002860987568 0.0028361772534 0.0028124425876 
0.0027889485115 0.0027659309987 0.0027432623334 0.0027209108177 0.0026986217818 0.0026763957538 0.0026541322893 0.002631791897 0.002609341712 
0.002586762561 0.0025640519029 0.002541221124 0.002518293551 0.0024953050254 0.0024722980186 0.0024493197841 0.0024261307654 0.003034626212 
0.0030040336673 0.0029744390965 0.0029458160789 0.0029180285615 0.0028913431109 0.0028655731507 0.0028406132278 0.0028163689568 0.0027930833575 
0.0027699013554 0.002747059381 0.0027244483848 0.0027020516699 0.0026795976054 0.0026571821095 0.0026346536188 0.0026120184821 0.0025892599314 
0.0025663757684 0.0025433782048 0.0025202879444 0.0024971422539 0.0024739805107 0.0024508534034 0.002427814526 0.0030382910116 0.0030075299779 
0.0029776651641 0.0029488460482 0.0029210175289 0.0028941545905 0.0028680652695 0.0028429253541 0.0028184928705 0.0027946494902 0.0027716304062 
0.0027485837757 0.0027257625183 0.0027030880946 0.0026805340936 0.0026578701578 0.0026352070292 0.0026124091698 0.0025895013102 0.0025664750154 
0.0025433435991 0.0025201279521 0.0024968612313 0.0024735840375 0.0024503446172 0.0024271963126 0.0030414245324 0.0030105905864 0.002980583966 
0.0029515062242 0.0029234807932 0.0028964111476 0.0028702427042 0.0028448633798 0.0028200426901 0.0027959322512 0.0027722746373 0.002748960637 
0.0027262388566 0.0027033155744 0.002680533513 0.0026576646338 0.0026347817301 0.0026118641415 0.0025888144629 0.0025656660585 0.0025424267872 
0.0025191143797 0.0024957592358 0.0024723991666 0.0024490806115 0.0024258560888 0.0030459090574 0.0030147311575 0.0029845219309 0.0029553688869 
0.0029271133544 0.0028997931379 0.0028733372936 0.0028476606709 0.0028226407348 0.0027981735886 0.0027740182001 0.0027503427364 0.0027269211801 
0.0027040392021 0.0026808990882 0.0026578747176 0.0026347555422 0.0026116596594 0.0025884644254 0.0025651979474 0.0025418632456 0.0025184725406 
0.0024950519164 0.0024716349903 0.002448265105 0.0024249906087 0.0030529425734 0.0030215658758 0.0029911410755 0.0029616774755 0.0029330987019 
0.0029056062284 0.0028788043935 0.0028527392736 0.0028272939073 0.0028023736774 0.0027778841321 0.0027536176979 0.0027297544037 0.0027060976922 
0.0026829628932 0.0026596217223 0.0026362357677 0.0026128856267 0.0025895574334 0.0025661595397 0.0025427261426 0.0025192621113 0.002495788092 
0.0024723314009 0.0024489302927 0.0024256281768 0.0030635924867 0.0030320147674 0.003001348685 0.0029716154722 0.0029427841089 0.0029147393053 
0.0028875209874 0.0028611148166 0.0028351524687 0.0028096823576 0.0027846275681 0.0027599282392 0.0027355169741 0.0027112293431 0.0026872706035 
0.002663827368 0.0026401743373 0.0026165494302 0.0025929676963 0.0025694435948 0.0025458908623 0.0025223447228 0.0024988163487 0.0024753261838 
0.0024519034231 0.0024285907187 0.0030786206771 0.0030468218183 0.0030158976018 0.0029858595714 0.0029566669622 0.0029281982046 0.0029004904198 
0.0028734070817 0.0028468440771 0.0028208621504 0.0027951497721 0.0027697869348 0.0027447336611 0.0027199654219 0.0026954498954 0.0026710290163 
0.0026473459888 0.0026233486787 0.0025994874504 0.0025757528314 0.0025520407078 0.0025283862191 0.0025047883277 0.0024812575655 0.0024578148467 
0.0024344961365 0.0030985473149 0.0030665032155 0.0030352902132 0.003004906585 0.0029753018439 0.0029464058568 0.0029180854359 0.0028903644868 
0.0028631409591 0.0028363140418 0.0028098609892 0.0027838780302 0.0027580946178 0.0027326310286 0.0027074685587 0.0026825837726 0.0026578346407 
0.0026338417084 0.0026096256988 0.002585572368 0.0025616892463 0.0025378844921 0.0025141860587 0.0024905925879 0.002467119856 0.0024437870606 
0.0031236795872 0.0030913643483 0.0030598281889 0.0030290469099 0.0029989767636 0.0029695421113 0.0029406586331 0.0029121937156 0.0028842286391 
0.0028566165582 0.0028293561432 0.0028024327953 0.0027758540779 0.002749739867 0.0027238532873 0.0026982953747 0.002673065897 0.0026481847575 
0.0026237847267 0.0025993744826 0.0025752177374 0.0025512000543 0.0025273539835 0.002503664047 0.0024801311283 0.002456765829 0.0031541489708 
0.0031215255548 0.0030896251965 0.003058398357 0.0030278122054 0.0029977774845 0.0029682206283 0.0029390231693 0.0029102509144 0.0028818058336 
0.0028536878418 0.0028258999666 0.0027984668895 0.0027714020928 0.0027447258262 0.0027185480486 0.0026926420557 0.0026671130083 0.0026419854275 
0.0026173919465 0.0025928384597 0.0025685873531 0.0025445273818 0.0025206885659 0.0024970539679 0.0024736216979 0.0031899652869 0.0031569856519 
0.0031246640952 0.0030929558657 0.0030617810424 0.0030310940475 0.0030008132903 0.0029708813958 0.0029412165005 0.0029118997537 0.0028828904125 
0.0028542056676 0.0028258829776 0.0027979489916 0.0027704362592 0.0027433491215 0.0027167088284 0.0026906249761 0.0026648335808 0.0026399038605 
0.0026149098269 0.0025901546612 0.0025658558145 0.0025417960996 0.0025180044623 0.0024944584566 0.0032310149559 0.0031976145449 0.0031648052387 
0.0031325410759 0.0031007403106 0.0030693419136 0.003038289835 0.0030075289265 0.0029769802061 0.0029467828385 0.0029168638354 0.002887266446 
0.0028580393059 0.0028292182947 0.0028008469078 0.0027729400371 0.0027455187065 0.0027185980831 0.0026922614765 0.0026663731386 0.0026412405842 
0.0026161533698 0.0025913899085 0.0025670411099 0.0025430178422 0.0025192957869 0.0032770514347 0.0032431528095 0.0032097885124 0.0031768982915 
0.0031444012534 0.0031122477819 0.0030803755193 0.003048753052 0.0030173685261 0.0029862104173 0.0029553772972 0.0029248685127 0.0028947404074 
0.0028650357112 0.0028358019433 0.0028070636737 0.0027788470983 0.0027511753641 0.0027240453904 0.0026974322292 0.0026715266257 0.0026463017898 
0.0026211611462 0.0025964789623 0.0025720404266 0.0025480639796 0.0033277252235 0.0032932358727 0.0032592315071 0.0032256148268 0.0031923631902 
0.003159388651 0.0031266565394 0.0030941500343 0.0030618608848 0.003029845241 0.0029980546056 0.0029666509692 0.0029356428031 0.002905077182 
0.0028750049079 0.0028454486502 0.0028164469527 0.0027880131152 0.002760163565 0.0027328718209 0.0027062284635 0.002680064518 0.0026548968466 
0.0026297613293 0.0026050314946 0.0025806127802 0.0033824637101 0.0033472699765 0.0033125217317 0.0032781339968 0.0032440500378 0.0032102022718 
0.0031765799556 0.0031431594995 0.0031099430743 0.0030770285886 0.0030443517409 0.003012089825 0.0029802402727 0.0029488539639 0.0029179812587 
0.0028876535102 0.0028578921259 0.0028287206584 0.0028001568933 0.0027721769874 0.0027448138685 0.0027180939456 0.0026918722872 0.002666649413 
0.0026414840031 0.0026167307532 0.0034405491517 0.0034045260253 0.0033689141342 0.0033336433538 0.0032986484948 0.0032638748558 0.0032293189491 
0.0031949831767 0.0031608776869 0.0031270820422 0.0030936130956 0.003060484151 0.0030278274839 0.0029956801269 0.0029640684948 0.0029330118975 
0.0029025461334 0.0028726787766 0.0028434284427 0.0028147926465 0.0027867530262 0.0027593928367 0.0027325560147 0.002706279965 0.0026809367728 
0.0026557726165 0.0035009425313 0.0034639505675 0.003427387502 0.0033911364435 0.0033551536387 0.003319431343 0.0032839083984 0.0032486420147 