# vtk DataFile Version 5.1
vtk output
ASCII
DATASET STRUCTURED_POINTS
DIMENSIONS 26 26 26
SPACING 0.08 0.08 0.08
ORIGIN -1 -1 0.5
POINT_DATA 17576
FIELD FieldData 1
potential 1 17576 double
0.0039027792366 0.0038563328696 0.003811608811 0.0037687616875 0.0037278947844 0.0036890652564 0.0036521324022 0.0036171463181 0.0035838113379 
0.0035518409364 0.003520904464 0.0034906731555 0.0034607707506 0.003430693911 0.0034006712819 0.003370234963 0.003339233846 0.0033075719281 
0.0032752141173 0.0032421730518 0.0032085029225 0.0031742876149 0.0031396389683 0.0031047929106 0.0030696642773 0.0030345104879 0.003918560456 
0.0038716668598 0.0038261922158 0.0037826921921 0.0037412878081 0.0037020449768 0.0036648801302 0.0036295958887 0.0035961106578 0.003564015316 
0.0035329399121 0.0035025078278 0.0034723876972 0.0034422445358 0.0034116018159 0.0033807670273 0.003349340859 0.0033172459937 0.0032844540268 
0.0032509826854 0.0032168864213 0.0031822490134 0.0031471821876 0.0031118074171 0.0030763735005 0.003040804385 0.0039203640255 0.0038723377679 
0.0038262084141 0.003782517189 0.0037406522452 0.0037010573499 0.0036636487231 0.0036282944677 0.0035946325031 0.0035624807247 0.0035313524 
0.0035008477277 0.0034706209369 0.0034403366811 0.0034096973362 0.0033784403135 0.003346772511 0.0033144206767 0.0032813612168 0.0032476148915 
0.0032132376846 0.0031783135471 0.0031429540787 0.0031072777021 0.0030714237659 0.0030356503859 0.0039127424427 0.0038640459947 0.003817310687 
0.0037727196405 0.0037304154134 0.0036908090013 0.0036531326241 0.0036175581106 0.0035838062852 0.0035514271959 0.0035201810575 0.0034895736088 
0.0034592418838 0.0034288775183 0.0033982039582 0.0033667828486 0.0033350124858 0.0033025496652 0.003269371423 0.0032354966462 0.0032009813446 
0.0031659034549 0.0031303735411 0.003094514256 0.0030584620311 0.0030223653414 0.0039014063287 0.0038521015022 0.0038047667532 0.0037596395008 
0.0037168426388 0.0036764275885 0.0036386906145 0.0036027069325 0.0035685601371 0.0035358892697 0.0035043021452 0.0034733222179 0.0034427600018 
0.0034122232856 0.0033814542357 0.0033501722811 0.0033181614603 0.0032856862422 0.0032525060601 0.0032186255596 0.0031840936578 0.0031489874336 
0.0031134100836 0.0030774827116 0.0030413422583 0.0030051369564 0.0038923084643 0.0038418903725 0.0037939835029 0.003748257959 0.0037048796427 
0.0036638619741 0.0036251315847 0.0035884720149 0.0035539621166 0.0035205658441 0.0034882873406 0.0034567857382 0.0034256407847 0.0033947334725 
0.0033637260493 0.0033323108253 0.0033004571042 0.003267796053 0.0032346728394 0.0032008724723 0.0031664268164 0.0031314000005 0.0030958866158 
0.0030600014867 0.003023878874 0.0029876664607 0.0038888980677 0.0038383998327 0.0037898689863 0.0037435009886 0.0036988954894 0.0036570909181 
0.0036174622046 0.0035798163668 0.0035438752986 0.003509359001 0.0034763183306 0.0034437999625 0.0034118746059 0.0033801889353 0.0033486756129 
0.0033170154186 0.0032849472615 0.0032522499096 0.0032191862476 0.0031855050336 0.0031512103134 0.0031163455969 0.0030809889006 0.0030452445874 
0.003009237734 0.0029731122566 0.0038948950693 0.0038438089272 0.0037946239999 0.0037475182568 0.0037025631035 0.0036597651328 0.0036184948582 
0.0035795395162 0.0035421532428 0.0035061119596 0.0034712063843 0.0034372482988 0.0034043595409 0.0033716755366 0.0033392286949 0.0033069723212 
0.0032745355479 0.003241865528 0.003208579733 0.0031749920538 0.0031408653917 0.0031062090686 0.0030710766174 0.0030355512903 0.0029997462843 
0.0029637941084 0.0039123690014 0.0038606840757 0.0038107944857 0.0037628594278 0.0037169322943 0.003672941536 0.0036307705943 0.0035902135906 
0.003550575289 0.003512657383 0.0034758468965 0.0034400320439 0.0034050983315 0.0033712345606 0.0033376255274 0.0033043105038 0.0032712700051 
0.0032381396326 0.0032048653628 0.0031710749658 0.003137071328 0.0031026227371 0.0030677447119 0.003032492149 0.0029969526192 0.0029612511666 
0.0039424688011 0.0038901659816 0.0038395215581 0.0037906644335 0.0037436132643 0.0036982670948 0.0036544945004 0.003612090396 0.0035709158284 
0.0035308293611 0.0034913194872 0.0034533052127 0.0034162783559 0.0033801864203 0.0033449271853 0.0033106537982 0.0032764870957 0.0032426353113 
0.0032089287389 0.0031749269906 0.0031409503613 0.0031066476324 0.0030720076471 0.0030370427081 0.0030018125311 0.0029664106567 0.0039856140213 
0.0039327708376 0.003881317677 0.0038314414932 0.0037831368183 0.0037362900937 0.0036907191822 0.0036462890861 0.003602880992 0.0035604150316 
0.0035189178664 0.0034784350563 0.0034385486303 0.0034002100694 0.0033629187131 0.0033265848764 0.0032913690173 0.0032563505708 0.0032218881528 
0.0031876495948 0.0031532431497 0.0031189774042 0.0030844985931 0.0030497909199 0.0030148695353 0.0029797927263 0.0040421120741 0.003988497307 
0.0039362693106 0.0038852823323 0.0038355998623 0.0037870976028 0.0037396051331 0.0036929783922 0.0036471804869 0.0036021848668 0.003558074382 
0.0035149485231 0.0034729215082 0.003431614596 0.0033919921628 0.0033535568108 0.0033162318473 0.0032798724091 0.0032444565295 0.0032094391548 
0.0031745640097 0.0031401039626 0.0031056387145 0.0030710947673 0.0030364340186 0.0030016676461 0.0041117232291 0.0040573840267 0.0040041047252 
0.0039520087758 0.0039008324786 0.0038505360183 0.0038009799164 0.003752051033 0.0037037615882 0.0036561423815 0.0036093223938 0.0035634519492 
0.0035186946473 0.003475179891 0.0034330039882 0.0033917505138 0.0033523026309 0.0033141142596 0.0032769999396 0.0032410425111 0.0032055837715 
0.0031704007428 0.0031357516532 0.0031012090438 0.0030666988274 0.0030321758224 0.0041941521625 0.004139013275 0.0040846890336 0.0040311712698 
0.003978471977 0.003926264241 0.0038745344899 0.0038232277183 0.0037723526806 0.0037220710305 0.0036725024328 0.0036238483647 0.0035763078501 
0.0035300491646 0.0034852105322 0.0034418712875 0.0034000614489 0.0033593154326 0.0033203620448 0.0032827172643 0.0032460197434 0.0032105059002 
0.0031751099161 0.0031403595912 0.0031058179535 0.0030714151627 0.0042889991601 0.0042329472746 0.0041774457609 0.0041224716726 0.0040679219591 
0.0040137882163 0.0039597891236 0.0039060212814 0.0038525497179 0.0037995797025 0.0037472683373 0.003695844973 0.0036455345219 0.0035965302171 
0.0035489997092 0.0035030537584 0.0034587621885 0.0034161419235 0.0033751438674 0.0033352056085 0.0032970954648 0.0032600475864 0.0032240752923 
0.0031887515223 0.0031539557121 0.0031194600054 0.0043957457528 0.0043386179312 0.0042817846953 0.0042251947691 0.0041687463395 0.0041123616678 
0.0040561076173 0.0039998277074 0.003943759719 0.0038881054418 0.0038330945238 0.0037789635156 0.00372595273 0.0036742678518 0.0036240925807 
0.0035755560229 0.0035287540039 0.0034837390404 0.0034404984143 0.0033989301238 0.0033586071999 0.0033200508487 0.0032828187627 0.0032463970189 
0.0032112531817 0.0031763948459 0.0045138147001 0.0044553893309 0.00439701316 0.0043385358443 0.0042800239878 0.00422135514 0.0041625565105 
0.0041038285293 0.004045153496 0.0039868854376 0.0039292370552 0.0038725005373 0.0038169079164 0.0037626690688 0.0037099708965 0.0036589417465 
0.0036096952418 0.003562291438 0.0035167586512 0.0034730220846 0.0034311190541 0.0033908734598 0.0033516115736 0.003313936185 0.0032775399384 
0.0032422676925 0.0046421787627 0.0045821450556 0.0045219482325 0.0044614908685 0.0044007183729 0.0043396203568 0.0042782892455 0.0042168820572 
0.0041556465533 0.0040948189771 0.0040346530709 0.0039754561295 0.0039174473117 0.0038608320478 0.0038057883745 0.0037524563681 0.003700909614 
0.0036512319363 0.0036034583506 0.0035575380113 0.0035135272273 0.0034713125885 0.0034307527688 0.0033912134919 0.0033532845084 0.0033166571135 
0.0047796430818 0.0047176023564 0.0046552124377 0.0045924131177 0.0045291497199 0.004465469087 0.0044015089036 0.0043374982044 0.004273795158 
0.0042104965919 0.004147974194 0.0040864759936 0.0040261860545 0.003967425068 0.0039102802588 0.0038548522442 0.0038012346317 0.0037494738637 
0.0036996052407 0.0036516318005 0.0036054947412 0.0035612434253 0.0035187333067 0.0034778595644 0.0034381733349 0.0033997101806 0.0049241294327 
0.0048595825142 0.0047946181185 0.0047291872836 0.0046631928145 0.0045968200598 0.004530148223 0.0044635149017 0.0043971958618 0.0043316212416 
0.0042668894484 0.0042033164599 0.0041411437108 0.0040805240817 0.0040215745771 0.0039643602208 0.0039088903623 0.0038553225816 0.003803593667 
0.0037537069741 0.0037056028324 0.0036593384722 0.0036148333087 0.0035719912069 0.003530719644 0.0034905929244 0.0050730531179 0.0050054363079 
0.0049373918777 0.0048688340224 0.0047997901748 0.0047304110306 0.0046609389043 0.004591682055 0.0045229628343 0.0044550826369 0.0043884901079 
0.0043231654403 0.0042593277935 0.0041971608485 0.0041367706773 0.004078166243 0.0040213571579 0.0039663282661 0.0039130560373 0.0038615208382 
0.0038115852565 0.0037634529166 0.0037169914272 0.0036721309696 0.0036288352138 0.0035868014465 0.0052222385544 0.0051509083414 0.0050792704063 
0.0050072195988 0.0049348620739 0.0048623693571 0.0047900248258 0.0047181534344 0.0046471036977 0.0045771844078 0.0045086812129 0.0044418930893 
0.0043767542581 0.0043134771097 0.0042520700794 0.004192499885 0.0041348231379 0.0040787279197 0.004024293091 0.0039714517398 0.0039201109235 
0.0038703304822 0.0038220452642 0.0037751814344 0.0037298237916 0.0036858642465 0.0053662168786 0.0052906080778 0.0052148963712 0.0051390304168 
0.0050631072311 0.0049873446698 0.00491207568 0.0048376347937 0.0047643809272 0.0046926177156 0.0046226238355 0.0045545619811 0.0044886192669 
0.0044246533179 0.0043627235254 0.0043026912578 0.0042444328307 0.00418780293 0.004132671794 0.0040789307621 0.0040265671148 0.0039754160608 
0.0039255406084 0.0038769411742 0.0038295919711 0.0037834875534 0.0054984611755 0.0054182484312 0.0053380811306 0.0052580859386 0.005178404291 
0.0050992925645 0.0050210879886 0.0049441531164 0.0048688336763 0.0047954546027 0.0047242730581 0.0046554142166 0.0045890268849 0.0045248911283 
0.0044629730902 0.004403048971 0.0043448969841 0.0042882571314 0.004232929228 0.004178750134 0.0041256145602 0.0040734231351 0.0040222417739 
0.0039720546634 0.0039229193989 0.0038747764827 0.0056125775033 0.0055272358561 0.0054425120993 0.0053582154474 0.005274666851 0.0051921602372 
0.0051110530251 0.005031720469 0.0049545301652 0.0048797900139 0.0048077328343 0.0047385085833 0.0046720889323 0.004608429007 0.0045471229924 
0.0044879333483 0.0044304894135 0.0043744364652 0.0043194672557 0.0042653585224 0.0042119470398 0.0041591289819 0.0041069678334 0.0040554367401 
0.0040046196362 0.0039545393573 0.0057028727449 0.0056124593701 0.005522852814 0.0054343407348 0.0053469139573 0.0052610312216 0.0051770931378 
0.0050954955287 0.0050166167027 0.0049407753973 0.0048682164094 0.0047990365409 0.0047331556729 0.0046703965092 0.004610420917 0.0045526301236 
0.0044965651554 0.0044417167614 0.0043876809175 0.0043341462633 0.0042809172509 0.0042278781167 0.0041750780522 0.0041225281769 0.0040703255053 
0.0040185388071 0.0043135755868 0.0042634399764 0.0042148730763 0.0041679916537 0.0041228669009 0.0040795352136 0.0040378541907 0.0039978955917 
0.0039594114065 0.0039221830646 0.0038859579237 0.0038504829955 0.0038154550529 0.0037804253473 0.0037456640476 0.0037107374452 0.0036755128276 
0.0036398994649 0.0036038558956 0.0035673793957 0.0035305028139 0.0034932854264 0.0034558131755 0.0034182959475 0.0033806234906 0.0033430286108 
0.0043452179368 0.0042944271426 0.0042448830851 0.0041970957432 0.0041511476968 0.0041070799721 0.0040648076288 0.0040241620492 0.0039851227502 
0.0039473668928 0.0039106210157 0.0038745999912 0.0038390487603 0.0038036897359 0.003768089828 0.0037325738798 0.0036967559092 0.0036605570489 
0.0036239378769 0.0035868980592 0.003549469381 0.0035117104235 0.0034737061219 0.003435553472 0.0033974736748 0.0033593663793 0.0043670063871 
0.0043148513105 0.0042643995365 0.0042161412558 0.0041694194096 0.0041246487747 0.0040817452766 0.0040406115958 0.0040009590867 0.0039627068419 
0.0039254799276 0.0038889825628 0.0038529535282 0.0038171187759 0.003781220674 0.0037450170567 0.003708717445 0.003672044266 0.0036349590564 
0.0035974616678 0.0035595833965 0.0035213815024 0.0034829381349 0.0034443504237 0.0034057247368 0.0033672947096 0.0043819095367 0.0043288301549 
0.0042775019081 0.0042280485003 0.0041805636149 0.0041354276556 0.0040918753186 0.0040501197967 0.0040099631275 0.0039710646994 0.0039333029453 
0.0038962937199 0.0038597618449 0.0038234734915 0.0037871873609 0.0037504929517 0.0037137886946 0.0036767271594 0.003639268967 0.0036014103346 
0.0035631807945 0.0035246298309 0.0034858388405 0.003446901366 0.0034079251481 0.0033690304305 0.0043938753982 0.0043399163222 0.0042877037199 
0.0042374131306 0.0041891172498 0.0041428403664 0.0040988855845 0.0040563782144 0.0040154859712 0.0039759551625 0.0039374202004 0.0038997682553 
0.0038626413185 0.0038258044948 0.0037890508929 0.0037521295167 0.0037148400019 0.0036774385762 0.0036396739458 0.0036015284389 0.0035630243173 
0.0035242090753 0.003485155107 0.0034459524624 0.0034067072482 0.0033675372027 0.0044073239313 0.0043519649661 0.0042988871186 0.0042476991107 
0.0041985201186 0.0041513443938 0.0041061162414 0.0040626755886 0.0040211845349 0.0039807041663 0.0039413328458 0.0039028177511 0.0038648188617 
0.0038272905735 0.0037899441869 0.0037525238164 0.0037150268658 0.0036770730511 0.0036390196107 0.0036006295876 0.0035619105899 0.0035228978237 
0.0034836544037 0.003444262554 0.0034048232493 0.0033654522872 0.0044246614378 0.0043689184916 0.0043149170721 0.0042627780164 0.0042121080893 
0.0041638921009 0.0041175520892 0.0040729584244 0.0040299130086 0.003988214836 0.0039479801591 0.0039083205853 0.0038693652534 0.0038308222769 
0.0037926844208 0.0037546857722 0.0037166065757 0.0036782502371 0.0036398847161 0.0036012542276 0.0035623468616 0.0035231797305 0.0034838012222 
0.0034442827667 0.00340471504 0.0033652065945 0.0044490794811 0.0043924293758 0.0043374676084 0.0042843180012 0.0042330246267 0.0041836027488 
0.0041354694192 0.0040894796229 0.0040449614696 0.0040017487185 0.0039596716884 0.0039185719239 0.0038786030981 0.0038389444197 0.0037996811232 
0.0037608242046 0.0037220575241 0.0036833698257 0.0036444078771 0.0036054926098 0.0035663835814 0.0035270729486 0.0034875899389 0.0034479865673 
0.0034083415761 0.0033687505068 0.0044825134014 0.0044249277526 0.0043689467662 0.0043146839663 0.0042621791653 0.0042113861615 0.0041622476805 
0.0041146303081 0.0040679045477 0.0040229074944 0.0039790358491 0.0039361881479 0.0038942419566 0.0038534066689 0.0038129047775 0.0037728272832 
0.0037331600525 0.0036937595338 0.0036544547576 0.003614960588 0.0035755894688 0.0035361090946 0.003496519342 0.0034568498279 0.0034171561801 
0.0033775259911 0.0045262122806 0.0044676509611 0.0044105898647 0.0043551221313 0.0043012677469 0.0042489670081 0.0041981580497 0.0041487094139 
0.0041005344908 0.0040535110603 0.0040071174549 0.0039622451242 0.0039183629576 0.0038754096492 0.0038332965117 0.0037922129682 0.0037513338465 
0.0037109317167 0.0036708969688 0.0036308428649 0.0035911204408 0.003551396993 0.0035116610246 0.003471910811 0.0034321773539 0.0033925260403 
0.0045807954228 0.0045213122208 0.0044631039964 0.0044063326084 0.0043510086972 0.0042970735493 0.0042444209692 0.004192985417 0.0041426881172 
0.0040934496986 0.0040452689092 0.0039976787878 0.0039516185616 0.0039066058505 0.0038625963313 0.0038195150492 0.0037775602738 0.0037358696375 
0.0036948672479 0.0036542860126 0.003613791648 0.0035737277071 0.0035337609761 0.0034938771306 0.0034540800854 0.0034143984258 0.0046467846986 
0.0045861235455 0.0045267863886 0.0044686163312 0.0044117047359 0.0043559921054 0.0043013866363 0.0042477983265 0.004195232531 0.0041436326067 
0.0040930433554 0.0040435061417 0.0039950757244 0.0039473263227 0.0039011882617 0.0038561571212 0.0038121728731 0.0037691310554 0.0037270686852 
0.0036855093477 0.003644267445 0.0036036702497 0.0035633403177 0.0035232297989 0.0034833000612 0.0034435491734 0.0047241240761 0.0046623058067 
0.0046015489961 0.00454197621 0.0044833649014 0.0044257449695 0.0043690501341 0.0043132150907 0.0042582624842 0.0042041953388 0.0041510884007 
0.0040990252565 0.0040481017577 0.0039983872395 0.0039499320226 0.0039022938881 0.0038563471445 0.0038115674028 0.0037678107589 0.0037252185919 
0.0036832044315 0.0036416164542 0.0036007733481 0.0035602908305 0.0035201200974 0.0034802194463 0.0048126468748 0.0047495697067 0.0046873863881 
0.0046260947822 0.0045657573553 0.0045061174985 0.004447224455 0.0043890560622 0.0043316146678 0.0042750212652 0.0042193336312 0.004164681229 
0.0041111907617 0.0040589655166 0.0040080879849 0.0039585955783 0.003910499616 0.0038633298557 0.0038178338987 0.0037735707453 0.0037302390623 
0.0036881456084 0.0036462994426 0.0036052866887 0.0035647186022 0.0035245504826 0.0049120181518 0.0048475474126 0.0047837926348 0.004720747675 
0.0046583620818 0.0045966901907 0.0045355015534 0.0044749063603 0.0044149468168 0.0043557761509 0.0042974833266 0.0042402229686 0.004184146676 
0.0041293810771 0.0040760321055 0.0040241652555 0.0039738144722 0.0039249776713 0.0038771272845 0.0038311572216 0.0037863498943 0.0037427480804 
0.0037001667071 0.0036583712652 0.0036172046164 0.0035765902207 0.0050217149005 0.004955677151 0.0048901949689 0.0048252393103 0.004760762737 
0.0046967393732 0.0046332655196 0.0045701796649 0.0045076818392 0.004445909873 0.0043850210523 0.0043251761442 0.0042665429266 0.0042092616466 
0.0041534536147 0.0040992005177 0.0040465558423 0.0039955421974 0.0039461309557 0.0038982213047 0.0038514059039 0.0038062439014 0.0037623523279 
0.0037192859222 0.0036775790014 0.0036363052478 0.0051411023311 0.0050732765419 0.0050058633 0.0049387391314 0.004872018875 0.0048056156513 
0.0047395647729 0.0046740393337 0.0046089698566 0.0045446372707 0.0044811782886 0.004418809386 0.0043576922449 0.0042979745334 0.0042397821766 
0.0041831981843 0.0041282918264 0.0040750888169 0.0040235909397 0.0039737102084 0.0039254836657 0.0038787369221 0.0038328850661 0.0037885337983 
0.0037454549617 0.0037035637048 0.0052690493565 0.0051991522422 0.0051295559369 0.0050601966306 0.0049910548729 0.0049221365232 0.0048535185107 
0.0047854090482 0.004717693245 0.004650823431 0.0045848760931 0.0045200838967 0.0044565989398 0.004394569015 0.0043341145865 0.0042753351439 
0.0042182626595 0.0041629432332 0.0041093842831 0.0040575115544 0.0040073686703 0.0039588410679 0.003911803495 0.0038656557142 0.0038210373983 
0.0037777385031 0.0054042676976 0.0053319608713 0.005259862122 0.0051879472614 0.0051161837793 0.0050446096402 0.0049733318786 0.0049025054026 
0.004832404656 0.0047630593944 0.0046947442203 0.0046276404042 0.0045618689924 0.0044976990908 0.0044351639399 0.0043743320091 0.0043152586513 
0.0042579581093 0.004202436346 0.0041486704351 0.0040965810311 0.0040462031304 0.0039973903699 0.0039500500439 0.0039037642661 0.00385861042 
0.0055446830605 0.0054695693309 0.0053946695384 0.005319971258 0.0052453897099 0.0051710782298 0.0050970568966 0.0050235813805 0.0049508373328 
0.0048791659011 0.0048085864482 0.0047393453391 0.0046716260132 0.004605533955 0.004541147621 0.0044784997405 0.0044175716312 0.0043584946517 
0.0043011805096 0.0042456076815 0.0041916931268 0.0041394721847 0.0040888497795 0.0040397245232 0.0039920121141 0.0039453133646 0.0056879583559 
0.0056096187951 0.0055315270909 0.0054536371956 0.0053759717816 0.0052986348431 0.0052217909404 0.005145672681 0.0050704513829 0.0049963931152 
0.0049238486378 0.0048527346464 0.004783218041 0.0047154429965 0.0046494863407 0.0045853348288 0.0045229798639 0.0044623894315 0.0044035216647 
0.0043463362224 0.0042906742655 0.004236713452 0.0041842998104 0.0041333528939 0.0040838071803 0.004035387615 0.0058306052461 0.0057485713682 
0.0056669052084 0.0055855603502 0.0055046098544 0.0054241713996 0.0053444363511 0.0052656385885 0.0051880175484 0.0051117955703 0.0050371820054 
0.0049644151774 0.0048933867958 0.0048242785733 0.0047570815013 0.0046917530042 0.0046283443718 0.0045665383191 0.0045064130689 0.0044478682506 
0.00439081036 0.0043352685231 0.0042811622427 0.0042283611236 0.0041769610506 0.0041268326778 0.0059684396997 0.0058823219908 0.0057967512819 
0.0057117135992 0.0056272827773 0.0055436157584 0.0054609463755 0.0053795084575 0.0052995615926 0.0052213212313 0.0051449933455 0.0050706862784 
0.0049985514104 0.0049284411144 0.0048603781109 0.0047942548453 0.0047299635046 0.004667363355 0.0046063287503 0.0045467461086 0.0044885881925 
0.0044316682949 0.0043760204323 0.0043216151567 0.0042683983829 0.0042163426316 0.0060968114191 0.006006421669 0.005916666753 0.0058277027062 
0.0057396450887 0.0056526818738 0.0055670574888 0.0054830221504 0.0054008578817 0.0053207695164 0.0052429555203 0.0051674919379 0.005094499859 
0.0050237569096 0.0049552452606 0.0048887714426 0.0048241487645 0.0047611488948 0.004699591374 0.0046393184501 0.0045802153909 0.0045221626024 
0.0044651974422 0.0044092615389 0.0043543869429 0.0043004811678 0.0062115134948 0.0061163970727 0.0060224102504 0.0059293825482 0.0058376027846 
0.0057472973042 0.0056587314986 0.0055721845802 0.0054879265287 0.0054061791583 0.0053271131026 0.0052508113533 0.0051772486294 0.0051063853719 
0.0050378585937 0.0049714910569 0.0049069798375 0.0048440266139 0.0047823663165 0.0047217916593 0.0046621350574 0.0046032709046 0.0045452282266 
0.0044879412547 0.004431453229 0.0043757498708 0.0063088613402 0.0062090630544 0.0061105133489 0.0060134977849 0.0059179688805 0.0058243202712 
0.0057328512872 0.0056438720803 0.0055576589801 0.0054744411437 0.0053943905774 0.0053175575597 0.0052438517826 0.0051731278228 0.0051051205951 
0.0050393347047 0.0049754206643 0.0049129644845 0.0048516275778 0.004791125835 0.0047312634553 0.004671898375 0.0046130387844 0.0045546486874 
0.0044967758846 0.0044394459939 0.0047357269785 0.0046816656625 0.0046290505114 0.0045779692963 0.0045284713157 0.0044805807744 0.0044341578142 
0.0043892925376 0.0043457726196 0.0043034287056 0.0042620652369 0.0042214878127 0.0041814485438 0.0041415483519 0.0041020914782 0.0040626760633 
0.0040231878025 0.0039835438641 0.0039437011516 0.0039036475312 0.0038634007216 0.0038230011523 0.0037825137987 0.0037421264868 0.0037017070528 
0.0036614676205 0.0047808351647 0.0047259171662 0.0046721120196 0.0046198963947 0.0045693280353 0.0045204340524 0.0044731335186 0.0044272811583 
0.004382899727 0.0043397253702 0.0042975512663 0.0042561584008 0.0042153508061 0.0041748996904 0.004134411661 0.0040942307887 0.0040539883787 
0.0040136097385 0.0039730511278 0.0039323011216 0.0038913754839 0.0038503135113 0.0038091785875 0.0037680465305 0.0037271149073 0.0036862614235 
0.0048190898764 0.0047625848324 0.0047076370041 0.0046546994444 0.0046030883651 0.0045532031626 0.0045049650922 0.0044583043538 0.0044129824594 
0.004368985005 0.0043260113836 0.0042838381279 0.0042422672303 0.0042010752416 0.0041598425311 0.004118950039 0.0040780167265 0.00403696897 
0.0039957621586 0.0039543836941 0.0039128478883 0.0038711919923 0.0038294763091 0.0037877751483 0.0037461716157 0.0037048757824 0.0048524456488 
0.004794773402 0.0047386964593 0.0046843009701 0.004632013778 0.0045811048417 0.004531914159 0.0044843175076 0.0044381744648 0.0043932141507 
0.0043493922925 0.0043063997623 0.004264024273 0.0042220924906 0.0041803389857 0.0041385486137 0.0040969606015 0.0040552887766 0.0040134871762 
0.0039715392898 0.0039294572527 0.0038872699935 0.0038450370359 0.0038028259173 0.0037607231171 0.0037188225885 0.0048837053591 0.0048248939741 
0.0047676693974 0.0047121656548 0.0046584253662 0.004606460137 0.0045565829825 0.0045079553329 0.004460799072 0.0044149337365 0.0043700651122 
0.004326153284 0.0042829044361 0.0042401370066 0.0041976852295 0.004155327368 0.0041128798056 0.0040706004377 0.0040282372551 0.0039857592988 
0.0039431745188 0.003900509364 0.0038578134086 0.0038151523283 0.0037726069131 0.0037302689912 0.0049162357608 0.0048557517398 0.0047973895671 
0.0047407177476 0.0046858276163 0.0046327051535 0.0045813094577 0.004531518589 0.0044835486393 0.0044365260168 0.0043906140211 0.0043456224766 
0.0043012690402 0.0042575587779 0.0042142454455 0.004171108281 0.0041281646235 0.0040850485588 0.0040421148642 0.0039991220618 0.0039560642125 
0.0039129579594 0.0038698443151 0.0038267810373 0.0037838432284 0.0037411190837 0.0049516428352 0.0048904852778 0.0048309220367 0.0047725303185 
0.0047163999496 0.0046620061616 0.0046092959353 0.0045581789312 0.0045085088836 0.0044601387914 0.0044132359212 0.0043669611526 0.0043214885166 
0.0042765732643 0.0042322400869 0.0041882692719 0.0041444679363 0.0041006608432 0.0040571215047 0.0040135972932 0.003970068435 0.0039265374452 
0.0038830332385 0.0038396027553 0.0037963125902 0.0037532420363 0.0049926147299 0.0049302500275 0.0048694409971 0.0048102769835 0.004752783176 
0.0046964875111 0.0046423171603 0.0045896849571 0.0045384603219 0.0044885190761 0.0044397266264 0.0043922844951 0.0043453849262 0.0042992307591 
0.0042536123235 0.0042085773976 0.0041638453743 0.0041194325768 0.0040750092527 0.0040309014672 0.0039868724093 0.0039429062935 0.0038990173567 
0.0038552371268 0.0038116197319 0.0037682330754 0.0050408481284 0.0049772322217 0.004915112994 0.00485457378 0.0047956452255 0.0047382949434 
0.0046824981015 0.0046276788222 0.0045747031842 0.0045229810582 0.004472412799 0.0044229083531 0.00437435657 0.0043269830953 0.0042800366815 
0.0042336408317 0.0041878173304 0.0041424570464 0.0040974198538 0.0040524447981 0.004007851208 0.0039634110308 0.0039191166878 0.0038749826347 
0.0038310438769 0.0037873599774 0.0050975379158 0.0050326164302 0.0049691181938 0.0049071138474 0.0048466223985 0.0047876056405 0.0047300387797 
0.0046738449791 0.004618928066 0.0045647490656 0.004512202746 0.0044607460712 0.0044103171739 0.0043608555078 0.0043122837154 0.004264813435 
0.0042176530799 0.0041711122676 0.0041251174021 0.0040793169465 0.0040340811237 0.0039890928881 0.0039443437368 0.0038998249388 0.0038555520251 
0.0038115680465 0.0051634635535 0.0050971698208 0.0050322125004 0.0049686463809 0.00490647889 0.004845681796 0.0047861903003 0.0047279743116 
0.0046709794264 0.0046151318828 0.0045604187987 0.0045063534947 0.0044538513622 0.0044024157409 0.0043519987083 0.0043025352719 0.0042542463021 
0.0042063043709 0.0041591718779 0.0041126203871 0.004066376522 0.0040207338276 0.0039754476593 0.0039304838762 0.0038858395906 0.0038415273321 
0.0052389428589 0.0051712041234 0.0051048017138 0.0050395694298 0.0049756116524 0.0049129011193 0.0048513851832 0.0047910059387 0.0047317846846 
0.0046736554337 0.004616642502 0.0045607552183 0.0045060134209 0.0044519650632 0.004399519771 0.0043481707118 0.0042978687571 0.0042484944187 
0.004200238507 0.00415254623 0.0041053160051 0.004058905278 0.0040129674882 0.0039674710154 0.003922381686 0.0038776906287 0.0053243255155 
0.005255044624 0.0051868937375 0.0051199906113 0.0050541325551 0.0049893830689 0.0049257119649 0.0048630785692 0.0048015100623 0.0047409936399 
0.0046815715253 0.0046232860511 0.0045661899271 0.0045103152922 0.0044556826634 0.0044018348646 0.0043496415867 0.0042985924848 0.0042485705169 
0.004199750302 0.0041515898763 0.0041039818369 0.0040572777205 0.0040111243674 0.0039654902633 0.003920338378 0.005419429348 0.0053484895625 
0.0052785735627 0.0052096830331 0.0051418991741 0.0050750007649 0.0050090667104 0.0049440900319 0.0048800796287 0.0048170937225 0.0047551871453 
0.0046944292755 0.00463489808 0.0045766520801 0.0045197369153 0.0044641635975 0.0044099296735 0.0043565659609 0.0043048328967 0.0042542281973 
0.0042047519767 0.0041564879685 0.0041085822662 0.0040616517049 0.0040153431828 0.0039696204053 0.0055239740907 0.0054512315489 0.0053794024499 
0.0053084868519 0.0052384590095 0.0051694007517 0.0051011049271 0.0050336852841 0.0049671674899 0.0049016699405 0.004837235483 0.0047739664839 
0.0047119622784 0.0046513002153 0.0045920469241 0.0045342323732 0.0044778686578 0.0044229429672 0.0043689306904 0.0043167392708 0.004265678682 
0.0042158288185 0.0041670491708 0.0041191447291 0.0040719988703 0.0040255645732 0.0056374590863 0.0055627391325 0.0054888424541 0.0054157511092 
0.0053434401288 0.0052719057794 0.0052012559395 0.0051313210681 0.0050622734465 0.0049942080948 0.0049272309059 0.0048614474994 0.0047969717632 
0.0047338942796 0.004672291721 0.0046122105307 0.0045536748926 0.0044966888687 0.0044412158154 0.0043871589467 0.0043341262319 0.0042827025223 
0.0042325417209 0.0041832426879 0.0041353770616 0.0040880601085 0.0057592502701 0.0056823437466 0.0056061883976 0.0055306753932 0.005455938547 
0.0053819046266 0.0053087070997 0.0052361981227 0.0051645708981 0.0050939557144 0.005024433827 0.0049561648608 0.0048892565094 0.0048238070573 
0.0047598988879 0.0046975773812 0.0046368819226 0.0045778139682 0.0045203603103 0.0044644274718 0.0044100555474 0.0043570859289 0.0043049604174 
0.0042543196114 0.0042049717902 0.0041568752612 0.0058882177041 0.0058088722357 0.0057302329937 0.0056522536991 0.0055749292889 0.0054982682792 
0.0054223324149 0.0053472956587 0.0052729966229 0.0051998301423 0.0051278143436 0.0050571244861 0.0049878599127 0.0049201208757 0.0048539869576 
0.0047895213914 0.004726726089 0.0046656223254 0.0046061984533 0.004548368288 0.0044921693952 0.0044374919075 0.0043842245121 0.0043317918261 
0.0042808689353 0.0042312720264 0.0060231189727 0.0059410497787 0.0058596517596 0.0057789207975 0.0056988328595 0.0056194168998 0.0055407513368 
0.0054629454119 0.0053862145256 0.0053105267164 0.0052361096477 0.0051630703926 0.0050914857862 0.0050215811021 0.0049533519002 0.0048868347304 
0.0048220576355 0.0047590112939 0.0046976829034 0.0046380330516 0.0045799723638 0.0045235300227 0.0044685632492 0.0044149912909 0.0043624356008 
0.0043109502316 0.0061620389159 0.0060769273676 0.0059925912329 0.0059088933876 0.0058258581648 0.0057436231406 0.005662147406 0.0055816314288 