# vtk DataFile Version 5.1
vtk output
ASCII
DATASET STRUCTURED_POINTS
DIMENSIONS 26 26 26
SPACING 0.08 0.08 0.08
ORIGIN -1 -1 0.5
POINT_DATA 17576
FIELD FieldData 1
potential 1 17576 double
0.028678777829 0.028207143408 0.027696881839 0.027155366977 0.02659038829 0.026010023234 0.025422450444 0.024835904784 0.024258634645 
0.023698833206 0.023164419918 0.02266245379 0.022198436277 0.021775388271 0.021393128574 0.021048135334 0.020734066595 0.02044276036 
0.020165637258 0.019894592585 0.019622834296 0.019345176987 0.0190581534 0.018759612795 0.018448872427 0.018126229641 0.027514294639 
0.027090436114 0.026635803775 0.026156574535 0.025659154919 0.025149928772 0.0246351024 0.024120679566 0.023612483222 0.023116264013 
0.022637581181 0.022181580296 0.021752370054 0.02135231845 0.020981562428 0.020637886847 0.020316972636 0.020013280987 0.019720663222 
0.019433273086 0.019146077838 0.018855212983 0.018557853721 0.018252475277 0.017938523184 0.017616282805 0.026320573092 0.025940469494 
0.025536637602 0.02511416085 0.024678150821 0.024233424698 0.023784348137 0.023334838947 0.022888524467 0.022448962514 0.022019852448 
0.02160481902 0.021207002716 0.020828443258 0.02046968534 0.020129626836 0.01980562691 0.019494120812 0.019190966325 0.018892175882 
0.018594069523 0.018293877648 0.01798962947 0.017680197053 0.017365239517 0.01704510605 0.025101319264 0.024761477966 0.024404180151 
0.024033548216 0.023653466081 0.023267282958 0.022877673723 0.022486613463 0.022095743609 0.021706859343 0.021322128108 0.020944057816 
0.020575146234 0.020217306665 0.019871503977 0.019537505979 0.019214111211 0.018899243751 0.018590252603 0.018284590613 0.017979901662 
0.017674293437 0.017366464394 0.017055598798 0.016741857967 0.016425561805 0.023872113854 0.023569455511 0.023254899291 0.022931660965 
0.022602476298 0.022269337444 0.021933246537 0.02159452272 0.021253159786 0.020909468043 0.0205644896 0.020219902581 0.019877814023 
0.01954013393 0.019208152416 0.018882543075 0.018562918103 0.018248412112 0.01793770924 0.017629203607 0.01732181103 0.017014285378 
0.016705918528 0.016396432445 0.016085997037 0.015775192957 0.022653040643 0.022384766232 0.022109463529 0.02182947998 0.02154648615 
0.021261087465 0.020972892629 0.020680700494 0.020383170952 0.020079507717 0.019769915452 0.019455619248 0.019138415295 0.018820328051 
0.018502711926 0.018187092194 0.017873815624 0.017562876081 0.017253888476 0.016946285943 0.016639496458 0.016333077686 0.016026838341 
0.015720878686 0.015415626115 0.015111800121 0.021463408864 0.021226884237 0.020987535457 0.020746925495 0.020505567184 0.020262886399 
0.020017148453 0.019765918054 0.019506826923 0.019238320699 0.018959921726 0.01867291825 0.018378730071 0.018079330317 0.017776713954 
0.017472370997 0.017167399715 0.016862475699 0.016557932 0.016253915961 0.015950454205 0.015647670118 0.015345813076 0.015045297307 
0.014746848121 0.014451338632 0.020318953773 0.020111712961 0.019905243423 0.019700226005 0.019495990997 0.019291193269 0.019082735099 
0.018867188571 0.018641479616 0.018403639408 0.018152995513 0.017890352807 0.017617232232 0.017335771444 0.017047979061 0.016755697375 
0.016460439128 0.016163372047 0.015865375043 0.015567115011 0.015269155846 0.014972013089 0.014676383551 0.01438296569 0.014092656298 
0.013806531067 0.019231337315 0.019050926939 0.018874318306 0.018701312755 0.018530473057 0.018358943395 0.018182861454 0.017998091004 
0.017801102402 0.017589677464 0.017363161062 0.017122189043 0.016868411378 0.016603838384 0.016330633392 0.016050825891 0.01576622375 
0.015478340957 0.015188406024 0.014897600772 0.01460682705 0.014316994711 0.014029038567 0.013743953903 0.013462834909 0.013186914381 
0.018209251083 0.01805332627 0.017903657546 0.017759224967 0.01761761834 0.017474990314 0.01732669885 0.01716815568 0.016995634102 
0.01680688772 0.016601357981 0.016379629333 0.016143382361 0.015894629056 0.015635576048 0.015368365695 0.015094928102 0.014817140495 
0.014536492391 0.014254367416 0.013972032431 0.013690678385 0.013411544611 0.013135747008 0.012864613538 0.012599513921 0.017258350757 
0.017124580665 0.016999003377 0.016879768295 0.016763534663 0.016645679903 0.016520967571 0.016384537908 0.016232661864 0.016063277003 
0.015875815299 0.015671124587 0.015450711889 0.015216604566 0.014971129787 0.014716414173 0.014454528908 0.014187393021 0.013916797954 
0.013644232875 0.01337123776 0.013099235914 0.012829623501 0.012563794437 0.01230319651 0.012049314836 0.016382689233 0.016268715781 
0.016164402367 0.016067087209 0.015972592924 0.015875619234 0.015770574266 0.015652515068 0.015517900254 0.015364793067 0.015192896464 
0.015003131719 0.014796997947 0.014576625994 0.014344049115 0.014101508141 0.01385116229 0.013594972397 0.013334789968 0.013072363924 
0.012809337721 0.012547287342 0.012287785927 0.012032374077 0.011782635118 0.011540167708 0.01558503175 0.015488528122 0.01540270727 
0.015324108278 0.015247839867 0.01516811154 0.015079131881 0.014976062085 0.014855585599 0.014716205071 0.014557703468 0.014380990039 
0.014187679085 0.013979744113 0.013759328411 0.013528567324 0.013289616335 0.01304445364 0.012794970669 0.012543022091 0.012290343049 
0.012038631542 0.011789556023 0.011544810529 0.011306069757 0.011075235837 0.01486751985 0.014786073675 0.014715917766 0.014652786984 
0.014591395542 0.014525491752 0.014449285393 0.014358171332 0.014249231078 0.014121157654 0.013973958638 0.01380861808 0.013626741639 
0.013430249596 0.01322122417 0.013001763698 0.01277392374 0.012539700652 0.012301004981 0.012059688274 0.011817514888 0.011576321299 
0.011338019779 0.011104003753 0.010876237751 0.010656618681 0.014231092329 0.014162292299 0.014104996419 0.014054479371 0.014004752457 
0.013949483656 0.013883002617 0.01380116066 0.013701316165 0.0135824686 0.013444789106 0.013289313471 0.013117620819 0.012931603931 
0.012733192787 0.012524434873 0.012307322804 0.012083806105 0.011855980672 0.011625269426 0.011393695179 0.011163046393 0.010935148384 
0.01071192824 0.010494975529 0.010286269157 0.013676559589 0.013617937026 0.013570760065 0.013529728584 0.013488565077 0.013440933786 
0.013381594567 0.013306583387 0.013213747216 0.013102306708 0.012972582747 0.012825636551 0.012663002709 0.01248645427 0.012298108452 
0.012099454002 0.011892619943 0.011679482864 0.011461879826 0.011241619988 0.011020499244 0.010800460886 0.010583013992 0.010370156936 
0.010163753133 0.0099657123646 0.013203379973 0.013152549262 0.013112717979 0.013078273736 0.013042752282 0.013000162146 0.012945440877 
0.01287518708 0.012787521809 0.012681919883 0.012559006229 0.012419419095 0.012264838638 0.012096943126 0.011917515352 0.011728371047 
0.011531330603 0.011328178018 0.011120690559 0.010910618197 0.010699837419 0.010489868135 0.01028263219 0.010079964826 0.0098837368624 
0.0096958669077 0.012810027434 0.012764477551 0.012729351534 0.012698680494 0.012666254689 0.012626427781 0.012574225104 0.012506851645 
0.012422801217 0.012321719891 0.012204050963 0.012070827605 0.011923432572 0.011763420672 0.011592463751 0.01141225439 0.011224504429 
0.011030907737 0.010833281092 0.010633049711 0.01043203542 0.010231967666 0.010034599068 0.0098417312773 0.0096552149087 0.009476949814 
0.012493157545 0.01245069532 0.012417660663 0.012388344436 0.012356578941 0.012316917198 0.012265397725 0.012199434837 0.012117729422 
0.012020043689 0.011906865826 0.011779187248 0.011638241979 0.011485456618 0.011322377666 0.011150565286 0.010971752047 0.010787254908 
0.010598809553 0.010408015166 0.010216510106 0.010025943771 0.0098380170676 0.0096544778855 0.0094771449106 0.0093078218344 0.012246444084 
0.012204809975 0.012171689735 0.012141404417 0.012108246659 0.012067349205 0.012015110069 0.011949324185 0.011868965522 0.011773775222 
0.011664359087 0.011541529505 0.011406413058 0.011260320413 0.01110460215 0.010940857697 0.01077024958 0.010594411229 0.010414839446 
0.010233065215 0.010050624914 0.0098691024145 0.0096901307459 0.0095153846707 0.0093466143812 0.0091855407146 0.012060716616 0.012018187199 
0.011982982361 0.011949868035 0.01191369489 0.01187013862 0.01181610158 0.011749667972 0.011669944606 0.011576767933 0.011470586688 
0.011352135298 0.011222404048 0.011082674166 0.010933841185 0.010777442313 0.010614762978 0.010447165208 0.010276058602 0.010102853558 
0.0099290178182 0.0097560540793 0.0095855110021 0.0094189799824 0.0092581252277 0.0091045206817 0.01192264516 0.01187773591 0.011838965806 
0.011801694871 0.011761401083 0.01171433328 0.011657824139 0.011590211967 0.011510706419 0.011419162382 0.011315878628 0.011201621538 
0.011076962105 0.010943009559 0.010800840498 0.010651593919 0.010496491878 0.010336744925 0.01017366933 0.010008597526 0.0098428322917 
0.0096779498943 0.0095152965931 0.0093564146733 0.0092027473002 0.0090559735303 0.011814527454 0.011766320458 0.011723131889 0.01168098305 
0.011636030073 0.011585079258 0.011525858649 0.011456905817 0.011377503671 0.011287587471 0.011187090923 0.011076626878 0.010956870252 
0.010828621811 0.01069282316 0.010550453624 0.010402584874 0.010250345885 0.010094945884 0.0099375937241 0.0097795911711 0.0096222584411 
0.0094669256611 0.009315099751 0.0091681117974 0.0090274280888 0.011715674733 0.011663860593 0.011616029003 0.01156891148 0.011519321244 
0.011464624916 0.01140285688 0.011332887041 0.011253729653 0.011165270238 0.011067621101 0.010961095195 0.010846204824 0.010723593845 
0.010594016699 0.010458303357 0.010317420773 0.010172387134 0.010024282238 0.0098742589269 0.009723531779 0.0095732588218 0.0094248409924 
0.0092795351041 0.0091386077528 0.0090033608597 0.011604907976 0.01154971092 0.01149762342 0.011446024934 0.011392358224 0.011334612068 
0.011270816204 0.011199992217 0.011121464452 0.011034919108 0.010940343296 0.010837915343 0.010727964937 0.010610978522 0.010487544252 
0.010358360714 0.01022424429 0.010086134732 0.0099450135384 0.0098018999487 0.009658025293 0.0095144925332 0.0093725165419 0.0092332353188 
0.009097870395 0.0089675626534 0.011463808354 0.011405896867 0.011350387908 0.011295389392 0.01123859475 0.011178379585 0.011113354834 
0.011042505395 0.010965185448 0.010881018013 0.010789879705 0.010691799043 0.010586954304 0.010475657266 0.010358339853 0.010235563959 
0.010108045347 0.0099766011708 0.0098420891061 0.00970564905 0.0095682678116 0.0094310321317 0.0092950604882 0.0091614211794 0.0090312162413 
0.0089054538696 0.032103186581 0.031597106148 0.031053138553 0.030477930841 0.029878565474 0.029262455712 0.028637168078 0.028010352136 
0.027389629953 0.026782444008 0.026195808237 0.025635807925 0.025107175166 0.024612613428 0.024152423492 0.023724415276 0.023324259934 
0.022946112874 0.022583598607 0.022230400785 0.021880967757 0.021530819319 0.021176750054 0.020816544816 0.020449234984 0.020074696025 
0.030719634127 0.030261971015 0.029773399314 0.029259458312 0.028725976916 0.028178872556 0.027624034316 0.027067284671 0.026514314141 
0.025970657051 0.025441482641 0.024931411385 0.024444069063 0.023981625147 0.023544510335 0.023131343718 0.022739096084 0.0223637376 
0.022000593856 0.021645056482 0.021292991802 0.020941081729 0.02058673836 0.020228433709 0.019865429456 0.019497712262 0.029362475918 
0.028948958952 0.028510746282 0.028052419199 0.027578567858 0.027093755589 0.026602330359 0.026108424713 0.025616003284 0.025128876738 
0.024650757388 0.024185039343 0.023734538705 0.023301091208 0.022885329182 0.022486596098 0.022103005094 0.021731919004 0.021370139197 
0.021014502782 0.02066195708 0.020310135575 0.019957260142 0.019602222142 0.019244559477 0.018884402766 0.028024505717 0.027651399844 
0.027259139742 0.026851346996 0.026431562516 0.026003060219 0.025568791178 0.025131336365 0.024693096222 0.024256504018 0.023824031055 
0.023398129305 0.022981025709 0.022574376452 0.0221790356 0.021794915724 0.021421181742 0.021056272969 0.020698100945 0.020344636522 
0.019993935796 0.019644383527 0.01929481731 0.018944436383 0.018593312396 0.018241593903 0.026708719942 0.026372732028 0.02602245799 
0.025660682098 0.025289923952 0.024912312321 0.024529427428 0.024142554195 0.023752798829 0.023361391951 0.022969857544 0.022579904876 
0.02219336373 0.021811796229 0.021436233257 0.021067257849 0.020704579711 0.020347551371 0.019995149317 0.019646059851 0.019299443699 
0.018954224606 0.018609776972 0.018265819531 0.017922441297 0.017580075015 0.025423654482 0.025121807297 0.024809924079 0.024490002152 
0.024163645578 0.023831829267 0.023495040905 0.023153361689 0.022806826934 0.022455728778 0.022100832898 0.02174340117 0.021384924146 
0.021027000623 0.02067059757 0.020316993719 0.019966431409 0.019618924495 0.019274184698 0.018931772053 0.018591231788 0.018252202132 
0.017914520517 0.017578258308 0.017243754326 0.01691159463 0.024179677675 0.023909201942 0.023632351941 0.023350442324 0.023064102511 
0.022773376342 0.022477699693 0.022176176361 0.021867975747 0.02155251918 0.02123039254 0.02090237323 0.02056970051 0.020233859907 
0.019896379263 0.019558386787 0.019220748901 0.018884011502 0.018548476688 0.018214278651 0.017881513021 0.017550262045 0.017220771875 
0.01689340019 0.016568770854 0.016247613471 0.02298648368 0.022744808975 0.022499906449 0.022252330073 0.022001730271 0.021747648718 
0.021488422454 0.021222348033 0.020947951676 0.020664374904 0.020371423794 0.020069840408 0.019760749171 0.019445759114 0.01912636309 
0.018803973577 0.018479784031 0.01815474637 0.01782960367 0.017504944144 0.017181236833 0.016859060884 0.016538937496 0.016221517553 
0.015907580384 0.015598032495 0.021851978303 0.021636625983 0.021420687063 0.021204009929 0.020985708893 0.020764084034 0.020536932452 
0.020301950301 0.020057181555 0.019801412363 0.019534351852 0.019256499279 0.018969063227 0.018673506488 0.018371454509 0.018064473265 
0.017753998767 0.017441281807 0.017127341384 0.016813212067 0.016499689983 0.01618758643 0.015877737448 0.015571025238 0.015268406827 
0.01497094542 0.020782719479 0.020591323511 0.020401503531 0.020212476058 0.020022634098 0.019829540176 0.019630385309 0.01942244312 
0.0192034632 0.01897205109 0.018727880069 0.01847131563 0.018203568109 0.017926094163 0.017640561305 0.017348582926 0.017051871996 
0.016751824517 0.016449747433 0.016146835463 0.015844201447 0.015542901106 0.015244042776 0.014948604056 0.014657752514 0.014372675795 
0.019783058591 0.019613322094 0.019446891211 0.019282367623 0.019117472176 0.018949221305 0.018774322815 0.018589737915 0.018393083588 
0.018182906497 0.017958801524 0.017721301982 0.017471419068 0.017210634669 0.016940743103 0.016663409545 0.016380315202 0.01609311567 
0.015803168121 0.015511916758 0.015220659132 0.014930652919 0.014643134617 0.014359334163 0.014080521952 0.013807975793 0.018856182052 
0.018705824667 0.018560115966 0.018417091017 0.018273879489 0.018127011028 0.017972887715 0.01780827788 0.017630785574 0.017438959065 
0.017232474837 0.01701189686 0.016778285829 0.016533031844 0.016277862542 0.016014507304 0.015744746293 0.015470222634 0.015192519064 
0.014913153048 0.014633562972 0.014355135742 0.014079260494 0.013807292879 0.013540612277 0.013280592314 0.018004142183 0.017870968079 
0.017743427572 0.017619001488 0.017494351362 0.017365652691 0.017229077586 0.017081376165 0.016920138983 0.016744192726 0.016553181224 
0.016347611016 0.016128584851 0.015897554338 0.01565618172 0.015406210005 0.015149350589 0.014887360059 0.014621837999 0.014354404124 
0.014086579068 0.013819855551 0.013555702023 0.01329560147 0.013041005657 0.012793568329 0.01722837687 0.017110152525 0.016998126485 
0.016889503572 0.016780474549 0.016666929433 0.016544969879 0.01641136741 0.016263929494 0.016101505968 0.015923874744 0.015731584901 
0.01552573269 0.015307746621 0.015079248554 0.014841945138 0.014597554932 0.014347788064 0.01409429891 0.013838712509 0.013582576933 
0.01332751635 0.013075228108 0.012826879437 0.012584190229 0.012348786323 0.016529060994 0.016423618696 0.016324813765 0.016229342589 
0.016133146517 0.016031951479 0.015921853258 0.015799870585 0.015663892427 0.015512938962 0.015346883473 0.015166309878 0.014972303715 
0.014766286104 0.014549762071 0.014324415515 0.014091925394 0.013853971796 0.013612413089 0.013368452839 0.013123902639 0.012880347158 
0.012639381997 0.012402698028 0.012171624287 0.01194786423 0.015906131806 0.015811323508 0.015723288858 0.015638370719 0.015552334202 
0.015460860749 0.015360301139 0.015247650242 0.015121108674 0.014979808858 0.01482372786 0.014653472688 0.014470105686 0.014274959196 
0.014069756136 0.013855651577 0.013634484495 0.013407881834 0.013177458944 0.012944819529 0.012711559052 0.012479376792 0.01224967478 
0.01202409381 0.011804260842 0.01159177487 0.015358171354 0.015271955258 0.015192372574 0.01511555896 0.015037193107 0.014953181611 
0.014859859149 0.014754568544 0.014635671624 0.014502437645 0.014355135068 0.014193959733 0.014020147772 0.013834971155 0.013639850943 
0.013436298267 0.013225865373 0.013010113478 0.012790606873 0.012568905792 0.01234669704 0.012125301451 0.011906431477 0.011691672384 
0.011482617568 0.011280862909 0.014882719709 0.014803017124 0.014729692504 0.014658691161 0.014585867069 0.014507343817 0.014419339978 
0.014319633934 0.014206806946 0.014080281856 0.013940129805 0.013786964318 0.013621759312 0.013445700764 0.013260132154 0.013066471755 
0.012866189945 0.012660768315 0.012451835068 0.012240634197 0.012028814931 0.011817913076 0.011609475619 0.011405066131 0.011206256806 
0.01101462014 0.014475730818 0.014400804909 0.014331650972 0.014264505605 0.014195176143 0.014119804478 0.014035417836 0.013939854504 
0.01383181276 0.013710815184 0.013576984088 0.013430926881 0.013273509205 0.013105829334 0.012929139128 0.0127447556 0.012554192645 
0.012358576389 0.012159467537 0.011958298649 0.011756540597 0.01155566504 0.01135717463 0.011162587723 0.010973451056 0.010791246091 
0.014130648822 0.01405870056 0.013992036249 0.013926871452 0.013859314957 0.013785889387 0.013703800134 0.013611142146 0.013506838489 
0.013390383511 0.013262053052 0.013122315761 0.012971974807 0.01281205182 0.012643645198 0.012468134598 0.012286491246 0.012100175788 
0.011910525368 0.011718916549 0.01152672876 0.01133537799 0.011146309051 0.010960977833 0.010780873782 0.010607401701 0.013838990679 
0.013768713002 0.013702974874 0.013638293351 0.013571135713 0.013498352127 0.013417495607 0.013326867267 0.01322549743 0.013113000286 
0.012989535258 0.012855541863 0.012711734914 0.012559149376 0.012398465947 0.012231032103 0.012057965117 0.011880473849 0.011699822564 
0.011517277158 0.011334166016 0.011151826286 0.010971631603 0.01079496843 0.010623250231 0.010457762329 0.013589530141 0.013519753875 
0.013453773101 0.013388483461 0.01332073834 0.013247757955 0.013167396223 0.013078156276 0.012979176739 0.012870124114 0.012751058476 
0.012622504376 0.012484807624 0.012338874933 0.012185604267 0.012025975553 0.01186106648 0.011691952553 0.011519821352 0.01134586967 
0.011171268075 0.0109974428 0.010825575393 0.010657012109 0.010492972141 0.010334862511 0.013368404771 0.013298367913 0.013231420722 
0.013164855395 0.013095938206 0.013022295256 0.012942040101 0.012853857682 0.012756982902 0.012651206049 0.012536278348 0.012412624934 
0.012280745743 0.012141282269 0.011995034631 0.011842851461 0.011685686641 0.011524550651 0.011360535605 0.011194729954 0.011028308188 
0.010862452244 0.010698337654 0.010537293678 0.01038044515 0.010229015273 0.013160278388 0.013089633229 0.013021407738 0.012953328225 
0.012883085206 0.012808664097 0.012728442416 0.012641417979 0.012546572386 0.012443708129 0.012332804129 0.012214039469 0.012087800198 
0.011954615518 0.011815135353 0.011670090559 0.011520349992 0.011366831321 0.011210509059 0.011052424617 0.010893672197 0.010735284436 
0.010578535978 0.010424461893 0.010274206727 0.010128839696 0.012949887217 0.012878633297 0.012809227472 0.012739791122 0.012668426331 
0.012593599875 0.012513620707 0.012427629693 0.012334959387 0.012235244265 0.012128394585 0.01201450191 0.011893821529 0.011766767731 
0.011633861737 0.011495732983 0.011353134793 0.01120688127 0.011057897319 0.010907084014 0.010755559409 0.010604305001 0.010454403365 
0.010306848244 0.010162699111 0.01002291665 0.012723924188 0.012652367339 0.01258218694 0.012512019624 0.012440039507 0.012364983544 
0.012285686155 0.012201246677 0.012111050317 0.012014706368 0.011912058198 0.011803098416 0.011687974396 0.011566971345 0.011440492919 
0.011309061864 0.011173337722 0.011034062638 0.010892015546 0.010748196889 0.010603520156 0.010458943821 0.010315463704 0.010174018728 
0.010035559692 0.0099009751285 0.035525987241 0.034984353343 0.034405784621 0.033796261375 0.033162206963 0.032510393182 0.031847762514 
0.031181338862 0.030518083406 0.02986471473 0.02922747381 0.02861171128 0.028021624437 0.027459780738 0.02692690236 0.026421821513 
0.025941722098 0.025482530128 0.02503962579 0.024608212592 0.024183894653 0.023762952195 0.023342579233 0.022920667758 0.022496136051 
0.022068597524 0.033937075583 0.033444734851 0.032921661723 0.032372840803 0.03180359161 0.031219382519 0.030625737314 0.030028173552 
0.029432090996 0.02884269133 0.028264746915 0.027702463272 0.027159149107 0.026636902029 0.026136449642 0.025657102043 0.025196859708 
0.024752906123 0.024321790412 0.023899985202 0.023484201654 0.023071696901 0.022660200578 0.022248291552 0.021835155622 0.02142058636 
0.032415834298 0.031968313173 0.031495572081 0.031001738698 0.030491027168 0.029967743721 0.02943611857 0.028900283784 0.028364251227 
0.027831835792 0.027306651026 0.026791903678 0.026290221606 0.025803374218 0.025332151833 0.024876311685 0.024434621899 0.024005232519 
0.02358576213 0.023173789233 0.022766858357 0.022363022475 0.021960745467 0.021559001884 0.021157281868 0.020755566402 0.030949024607 
0.030542391321 0.030115448302 0.029671456035 0.029213708469 0.028745412673 0.028269654521 0.027789238531 0.027306970545 0.026825543723 
0.026347553987 0.025875415851 0.025411229706 0.02495656074 0.024512279648 0.024078505347 0.02365475497 0.023239943273 0.022832494132 
0.022430860518 0.022033498823 0.021639082894 0.021246490692 0.020855363261 0.020465347895 0.020076591915 0.02953189755 0.02916268246 
0.028777463166 0.028378752559 0.027968958002 0.027550314968 0.027124757532 0.026694101577 0.026260044568 0.025824315824 0.025388707771 
0.024954981931 0.024524863635 0.024099769574 0.02368064215 0.023268088595 0.022861957871 0.022461846149 0.022066871745 0.021676434829 
0.021289514318 0.020905357616 0.020523442279 0.020143511158 0.019765603709 0.019390038327 0.028165222562 0.027830302387 0.027483135321 
0.027125541521 0.026759150111 0.026385226496 0.026004821058 0.025618769194 0.025227889689 0.024833107063 0.024435551363 0.024036570715 
0.023637544172 0.023239873975 0.022844328236 0.022452129716 0.022063453965 0.021678400139 0.021296800125 0.020918352651 0.020542729703 
0.020169661829 0.019799030719 0.019430898115 0.019065518865 0.01870342472 0.026852706653 0.026549201132 0.026236691799 0.025916418492 
0.025589174016 0.025255480869 0.024915532464 0.024569362861 0.024217056267 0.023858743571 0.023495405853 0.023127907523 0.022757353183 
0.022384988516 0.022012081678 0.021639565268 0.021268176373 0.020898406096 0.020530555889 0.020164788843 0.019801235164 0.019439997949 
0.019081288359 0.018725506647 0.018373108677 0.018024729202 0.025598939106 0.02532420757 0.025043268143 0.02475652781 0.024464544059 
0.024166883214 0.023863056628 0.023552410971 0.023234457082 0.02290906525 0.022576424664 0.022237336703 0.02189276717 0.021544038596 
0.021192344156 0.020838829808 0.020484484323 0.020130119374 0.019776392457 0.019423834539 0.019072884889 0.018724082215 0.018377898565 
0.018034911387 0.017695797298 0.017361327321 0.024408205345 0.024159732916 0.023907418225 0.023651275356 0.023390900664 0.023125413143 
0.022853715479 0.022574558178 0.022287078379 0.02199074733 0.02168560351 0.021372168462 0.021051452676 0.020724611686 0.020392937454 
0.020057690134 0.019720050889 0.019381073179 0.019041629563 0.01870264106 0.018364815551 0.018028882118 0.017695589734 0.017365718992 
0.017040104024 0.016719656167 0.023284597122 0.023060019377 0.022833558322 0.02260472885 0.022372569334 0.022135614729 0.021892239911 
0.021640909054 0.021380348064 0.021109813888 0.020829190102 0.020538975109 0.020239994799 0.019933430232 0.019620598983 0.019302788462 
0.018981426305 0.018657677114 0.01833266009 0.01800741723 0.017682931855 0.017360141374 0.017040035995 0.016723466546 0.016411456663 
0.016105027483 0.022230787692 0.022027848897 0.021824614405 0.021620135164 0.021412931675 0.021201128582 0.020982691453 0.020755769151 
0.020518901891 0.020271193997 0.020012437524 0.019743085193 0.019463893707 0.019176007149 0.018880861838 0.01857979008 0.01827417817 
0.017965429062 0.017654691482 0.017343226065 0.017032172768 0.016722643733 0.016415730917 0.016112514678 0.015814101906 0.015521587059 
0.021248762633 0.021065255458 0.020882722903 0.020699795753 0.020514554441 0.020324745561 0.020128066241 0.019922435669 0.019706304205 
0.019478578568 0.019239310891 0.018988697209 0.01872759795 0.018457061861 0.018178461001 0.017893194472 0.017602745767 0.017308497778 
0.017011818596 0.016714020158 0.01641636678 0.01612007739 0.015826377005 0.015536451166 0.015251497016 0.014972687718 0.020339636096 
0.020173477113 0.020009265768 0.019845226104 0.019679104673 0.019508373682 0.019330503836 0.01914332586 0.018945167335 0.018735214625 
0.018513158699 0.018279335469 0.018034553773 0.017779924975 0.017516763771 0.017246494639 0.016970531552 0.016690383676 0.01640744305 
0.01612306406 0.01583863996 0.015555462264 0.015274818551 0.01499800467 0.014726272827 0.014461059003 0.019504033975 0.019353133579 
0.019204790484 0.019057121246 0.018907469371 0.018753087844 0.018591344283 0.018420004174 0.018237500908 0.018042941658 0.017836091458 
0.017617292825 0.01738733975 0.017147323741 0.016898533944 0.016642368295 0.016380267931 0.016113695918 0.015844084964 0.015572854396 
0.01530139688 0.015031048856 0.014763428623 0.014499416285 0.014240691256 0.013988271096 0.018741379763 0.018603778049 0.018469270193 
0.018335556436 0.018199893257 0.018059334986 0.017911193512 0.017753375125 0.01758428207 0.01740310888 0.017209654264 0.017004273291 
0.016787746898 0.016561133168 0.016325729229 0.016082817782 0.015833851311 0.015580274586 0.015323729997 0.015065229379 0.014806386484 
0.014548596612 0.014293257534 0.014041849849 0.013795476141 0.013555591704 0.018050885621 0.017924653637 0.017801798201 0.017679784337 
0.017555717501 0.017426606944 0.017289958383 0.017143509188 0.016985876939 0.016816291789 0.016634613014 0.016441204227 0.016236827612 
0.0160225072 0.015799653532 0.015569167568 0.015332630215 0.01509144936 0.014847037713 0.014600808174 0.014354169798 0.014108632188 
0.013865398649 0.013625894966 0.013391512795 0.01316359228 0.017430472069 0.017313826478 0.017200608614 0.017088154603 0.01697350326 
0.016853848477 0.016726546101 0.016589602158 0.016441686064 0.016282102913 0.016110972884 0.01592824454 0.015734864403 0.015531811156 
0.015320228495 0.015101371413 0.014876571486 0.0146471754 0.014414559515 0.014180102898 0.013945312993 0.013711326814 0.013479659756 
0.01325168171 0.013028747163 0.01281218648 0.016877142574 0.016768287631 0.016662834073 0.01655796999 0.016450890316 0.016338928202 
0.016219213321 0.016090075744 0.015950324521 0.015799369907 0.015637118478 0.015463940778 0.015280538397 0.015087826307 0.014886894075 
0.014678927574 0.014465187442 0.01424696421 0.014025708097 0.013802493112 0.013578797662 0.01335598023 0.013135396323 0.01291839746 
0.012706337108 0.012500463076 0.016386580732 0.0162840694 0.016184614666 0.016085693665 0.015984399335 0.015877982498 0.015764265514 
0.015641539635 0.015508665337 0.015365122367 0.015210864161 0.01504626759 0.014871948779 0.014688761358 0.014497727497 0.014299954767 
0.014096766247 0.013889111109 0.013678393096 0.013465877441 0.01325287652 0.013040692835 0.01283064491 0.012624045482 0.012422209772 
0.012226347836 0.015952425646 0.015854735732 0.015759908853 0.015665322481 0.015568307913 0.015466372449 0.015357402787 0.015239879244 
0.015112787851 0.014975681862 0.014828457041 0.014671575571 0.014505550139 0.0143311856 0.014149516073 0.013961319536 0.013767812594 
0.013570158437 0.013369540742 0.013167195387 0.012964342921 0.01276224173 0.012562161298 0.012365360833 0.012173106009 0.011986549324 
0.015567100221 0.015473159384 0.015381622409 0.015290108428 0.015196156043 0.015097480034 0.014992210402 0.014878948288 0.014756806827 
0.014625338528 0.014484559969 0.014334725798 0.014176362391 0.014010317416 0.013837148742 0.013657882972 0.013473646288 0.013285452187 
0.013094427293 0.012901700987 0.012708460188 0.012515891411 0.012325202971 0.012137615585 0.011954271628 0.011776278599 0.01522121879 
0.015130021913 0.015040780469 0.01495136381 0.014859553442 0.014763304809 0.014660954292 0.01455125201 0.014433402627 0.014307020108 
0.014172046387 0.014028852127 0.013877629042 0.013719127402 0.013554098619 0.013383386022 0.013207933388 0.013028694068 0.012846730343 
0.012663113055 0.012478950486 0.012295305524 0.012113459975 0.011934469512 0.011759374646 0.01158935859 0.014903763258 0.014814614015 
0.014726995223 0.014639021314 0.014548734022 0.014454368619 0.014354440169 0.014247839927 0.014133863575 0.014012265142 0.013882706898 
0.013745496614 0.013601012576 0.013449772064 0.013292458162 0.013129806153 0.012962659426 0.01279191869 0.012618564608 0.012443570326 
0.01226798864 0.012092870655 0.011919248594 0.011748292064 0.011580948682 0.011418227626 0.014603016989 0.014515521087 0.014429138448 
0.01434225968 0.014253200245 0.014160440116 0.014062685818 0.013959112998 0.013848765748 0.013731431108 0.01360702855 0.013475657655 
0.013337612146 0.013193335282 0.013043387081 0.01288840934 0.012729179794 0.0125665213 0.012401308422 0.012234476612 0.012067007054 
0.011899810996 0.011734030355 0.01157055629 0.011410373831 0.011254384323 0.014307554503 0.014221555857 0.014136315907 0.014050458449 