# vtk DataFile Version 5.1
vtk output
ASCII
DATASET STRUCTURED_POINTS
DIMENSIONS 26 26 26
SPACING 0.08 0.08 0.08
ORIGIN -1 -1 0.5
POINT_DATA 17576
FIELD FieldData 1
potential 1 17576 double
0.020966304535 0.021342247764 0.021695058612 0.022023002433 0.022325203006 0.02260208237 0.022855578043 0.0230894948 0.023309771461 
0.023524574003 0.023744109561 0.023980044417 0.024244540677 0.024548819448 0.024901581106 0.025307558721 0.025766721281 0.026274342603 
0.026821826499 0.027397915591 0.027989953823 0.028584903438 0.029170103592 0.029733714492 0.030265013158 0.03075451699 0.020308773267 
0.020675619852 0.021022631317 0.021348192642 0.021651422493 0.021932554043 0.022193099721 0.022436200512 0.022666810904 0.022891756029 
0.023119473655 0.023359501008 0.023621583154 0.023914601057 0.024245391485 0.024617802289 0.025032076533 0.025484931413 0.025970013581 
0.02647874337 0.027001198606 0.027526900425 0.028045486421 0.02854703911 0.029022469426 0.029463635177 0.019594747858 0.019951761609 
0.020291662154 0.020613118816 0.020915139568 0.021197630029 0.021461694525 0.021709799021 0.021945973949 0.022175852135 0.022406429764 
0.022645561314 0.022901199258 0.023180509447 0.023489025618 0.023829965997 0.024203790072 0.024608260476 0.025038715576 0.025488637519 
0.025950311447 0.026415381079 0.026875400859 0.027322186037 0.027748088836 0.028146213221 0.018836550956 0.019182961067 0.019514852511 
0.019830671935 0.020129412995 0.020410814342 0.02067533722 0.020925044148 0.0211629574 0.021393638589 0.021622829104 0.021857025688 
0.022102824431 0.022366188113 0.022651764048 0.022962387001 0.023298766787 0.023659468014 0.024041153545 0.024438922842 0.024846797955 
0.025258171563 0.025666232904 0.026064301829 0.026445958558 0.02680543823 0.018052082586 0.018387157785 0.018709883842 0.019018717187 
0.019312538044 0.019590853589 0.019853793323 0.020102586969 0.020339549489 0.020568213238 0.020793079284 0.021019694727 0.021253460393 
0.02149946122 0.021761769283 0.022043035075 0.022344275551 0.022664755512 0.023002189462 0.023353016106 0.023712617546 0.024075861177 
0.024437309885 0.02479151472 0.025133261589 0.02545771292 0.017260150839 0.017583229618 0.017895900972 0.018196618382 0.018484186516 
0.018757835838 0.019017464026 0.01926361986 0.019497919214 0.019722935845 0.019942220184 0.020160030894 0.020380914241 0.020609239952 
0.020848622483 0.02110180976 0.021370054343 0.021653291531 0.021950150557 0.022258141889 0.022573910425 0.02289350506 0.023212663026 
0.023527026801 0.023832367057 0.024124716322 0.016477529042 0.016788009012 0.017089969045 0.017381656036 0.017661887192 0.01792974097 
0.018184766166 0.018427165847 0.018657775005 0.018878357197 0.019091519947 0.019300424055 0.019508769677 0.019720224429 0.019938118327 
0.020165049589 0.020402665808 0.020651513738 0.020911066682 0.02117971318 0.021455344025 0.021734973751 0.022015367252 0.022293135832 
0.022564896296 0.022827473275 0.015717957114 0.016015344655 0.016305734789 0.016587607619 0.016859792708 0.017120922844 0.017370463546 
0.01760818701 0.017834511062 0.018050344191 0.018257425551 0.018458070611 0.018655023926 0.01885127722 0.01904972431 0.019252890914 
0.019462682189 0.019680177347 0.019905618327 0.020138389823 0.020377147628 0.020619981351 0.020864571549 0.021108402451 0.021348898878 
0.021583478109 0.014991498432 0.015275339143 0.01555372907 0.015825210493 0.016088326879 0.016341969984 0.016585267101 0.016817814212 
0.017039360172 0.017250324975 0.017451723718 0.017645024916 0.017832156653 0.018015374322 0.018197065019 0.018379529319 0.018564785625 
0.018754322975 0.018949033418 0.019149108625 0.019354105517 0.01956301816 0.019774429949 0.019986636459 0.020197800767 0.020406091462 
0.014305487905 0.014575433623 0.014841382185 0.015101844213 0.015355443494 0.015600960192 0.015837444049 0.016064024464 0.01628034205 
0.016486510009 0.016682570517 0.016869461782 0.017048372483 0.017220854355 0.017388710052 0.017553875162 0.017718287513 0.017883642601 
0.018051302205 0.018222156205 0.018396591348 0.018574455825 0.018755172898 0.018937868787 0.01912142108 0.019304629439 0.013665237298 
0.013920992317 0.014174150204 0.014423215991 0.01466681287 0.014903669799 0.015132662807 0.015352883789 0.015563722357 0.015764629965 
0.015955633771 0.016136876418 0.016309090209 0.016472969824 0.016629808408 0.016781103749 0.016928496599 0.017073708235 0.01721832295 
0.017363777522 0.017511094909 0.017660942318 0.017813569169 0.017968865319 0.018126457692 0.018285787931 0.013074612256 0.01331598753 
0.013556072981 0.013793409354 0.014026604701 0.014254355527 0.014475462854 0.014688879603 0.014893737363 0.015089361996 0.015275348201 
0.015451521155 0.015617980788 0.015774957492 0.015923252925 0.016063940921 0.016198055729 0.016327212328 0.016453026711 0.016577167713 
0.016701171326 0.016826329506 0.016953672245 0.017083852062 0.017217236977 0.017353937653 0.012536498585 0.012763460982 0.01299021727 
0.013215591089 0.013438092618 0.013656391315 0.013869231475 0.014075465058 0.014274079963 0.014464216693 0.014645196 0.014816528429 
0.014978005221 0.015129473609 0.015271207617 0.015403826454 0.0155279798 0.015644915208 0.015756196319 0.015863258939 0.015968004049 
0.01607218647 0.016177411873 0.016285078214 0.016396262935 0.01651173893 0.012053051468 0.012265433151 0.012479038763 0.012692345273 
0.012903975164 0.013112585562 0.013316874331 0.013515527256 0.013707610687 0.013892042333 0.014067962436 0.014234666145 0.014391681193 
0.014538548208 0.014675206336 0.014801783705 0.014918719895 0.0150267975 0.015127157961 0.015221274834 0.015311030417 0.015398189849 
0.015484944229 0.01557308829 0.015664458143 0.015760552267 0.011625838317 0.011823944893 0.012024257832 0.012225401647 0.012426157621 
0.012624948667 0.01282050861 0.01301154881 0.01319687814 0.013375406944 0.01354615412 0.013708265387 0.013861033363 0.014003849797 
0.014136438844 0.014258601973 0.014370434738 0.014472372397 0.01456518359 0.014650101457 0.014728685866 0.014802858078 0.014874816913 
0.014946874719 0.015021243723 0.015100061003 0.011255864506 0.011439875117 0.011627202577 0.011816469922 0.012006289933 0.012195206833 
0.012382033771 0.012565246457 0.012743666861 0.012916128339 0.013081573056 0.013239048661 0.0133877318 0.013526920335 0.013656104542 
0.013774873047 0.013883114328 0.013980961718 0.014068890553 0.014147768367 0.014218866929 0.014283809931 0.01434490832 0.014404478337 
0.014465083946 0.014529289198 0.01094318267 0.011113826036 0.011288510382 0.011466148482 0.011645320932 0.011824618826 0.012002641418 
0.012178004338 0.01234943578 0.0125157193 0.012675709799 0.012828465449 0.012973060348 0.013108712141 0.013234778949 0.013350827563 
0.01345645234 0.013551620086 0.013636559607 0.013711834644 0.013778422751 0.013837700189 0.013891572998 0.013942344479 0.013992647211 
0.014045295416 0.010686806375 0.010845053733 0.011007898135 0.01117442798 0.011343268457 0.011513126348 0.011682578278 0.011850183548 
0.012014630528 0.01217474238 0.012329172012 0.012477105799 0.012617537306 0.012749645002 0.012872738734 0.012986258614 0.013089866312 
0.013183243053 0.013266493447 0.013339909089 0.013404181079 0.013460421972 0.013510202171 0.013555566424 0.013599003473 0.013643343374 
0.01048496618 0.01063135643 0.01078315707 0.010939303663 0.011098534475 0.011259728422 0.011420817443 0.011580851333 0.01173839648 
0.011892205061 0.012041129443 0.012184190923 0.012320252429 0.012448712134 0.012568788914 0.012679896857 0.012781627896 0.012873702308 
0.012955961851 0.013028614553 0.013092141421 0.013147350783 0.013195507172 0.013238330923 0.013278029198 0.013317245848 0.010333099131 
0.010469296476 0.010611212577 0.010757911309 0.010908200976 0.011060715653 0.011214025391 0.011366665524 0.011517462679 0.011665356852 
0.011808654036 0.011946609058 0.012078308321 0.012203005174 0.012319900774 0.012428421664 0.012528252082 0.012619029179 0.012700677971 
0.012773164233 0.012836846483 0.01289232952 0.012940606664 0.012983075835 0.013021608463 0.013058531162 0.01022408803 0.010351762834 
0.010485183459 0.01062357214 0.010765809782 0.010910612724 0.011056584128 0.011202352074 0.011346608536 0.011488033651 0.011625682159 
0.011758479827 0.011885547042 0.012006153514 0.012119952102 0.012225752678 0.012323497896 0.012412899204 0.012493725492 0.012566243474 
0.012630477048 0.012686941244 0.012736398794 0.012779977307 0.012819221686 0.012856090481 0.010147571712 0.010268531508 0.010394994849 
0.0105263346 0.010661547445 0.010799429297 0.010938645505 0.011077869366 0.011215830373 0.011351346737 0.011483336412 0.011610818659 
0.011733052176 0.011849294429 0.011958975882 0.012061632161 0.012156975975 0.012244666931 0.01232464466 0.012396934321 0.012462005886 
0.012519622151 0.012570736995 0.012616233951 0.012657346195 0.012695731382 0.010089749553 0.010205845824 0.010326931532 0.010452530252 
0.010581777436 0.010713542213 0.010846617193 0.010979726713 0.0111116723 0.011241342128 0.011367682217 0.011489812345 0.011606980436 
0.01171850082 0.011824013699 0.011923081098 0.012015445204 0.012100952961 0.012179594857 0.012251322656 0.012316359861 0.012375017257 
0.012427866932 0.012475533157 0.012519077427 0.012559736542 0.010034509762 0.010147368247 0.01026447548 0.010385536702 0.01050979053 
0.010636232925 0.010763756192 0.010891208634 0.011017406778 0.011141309068 0.011261981816 0.011378581613 0.011490434798 0.011597005801 
0.011697905118 0.011792801246 0.011881677679 0.01196442164 0.012041047773 0.012111661345 0.012176497525 0.012235738031 0.012289902736 
0.012339630125 0.012385630049 0.012429028002 0.0099652991515 0.010076104163 0.010190403404 0.010307893221 0.010427992632 0.010549820788 
0.010672324347 0.010794448602 0.010915149629 0.011033428551 0.011148410133 0.011259342683 0.011365604752 0.011466769329 0.011562559656 
0.011652840016 0.011737540683 0.011816859112 0.01189084981 0.01195967643 0.012023581389 0.01208283641 0.012137869999 0.012189099673 
0.012237280571 0.012283159278 0.0098677562549 0.0099772510436 0.01008946421 0.010204145629 0.01032072806 0.010438438236 0.0105563535 
0.010673513552 0.010788940667 0.010901699843 0.011010975544 0.011116069664 0.011216461723 0.011311806332 0.011401963979 0.01148695393 
0.011566930754 0.011642112024 0.01171267762 0.011779020921 0.011841333164 0.011899898425 0.011955057283 0.012007228742 0.012056973309 
0.012104928587 0.023175820752 0.0236048814 0.024015740381 0.024407235034 0.024779002631 0.025131850558 0.025467873922 0.025790675638 
0.02610548905 0.026419148479 0.026739844951 0.027076595428 0.027438458793 0.027833496283 0.028267659426 0.028743850359 0.029261410938 
0.02981616081 0.030400920912 0.031006314416 0.031621671767 0.032235814361 0.032837701245 0.03341684628 0.033963632885 0.034469475529 
0.022424688713 0.02283868069 0.023236936344 0.023618323383 0.023982398122 0.024329722231 0.024661937745 0.024981995956 0.025294217143 
0.025604260095 0.0259188577 0.026245398928 0.026591231381 0.026962862874 0.027365125782 0.027800486098 0.028268638855 0.028766553781 
0.029288762321 0.029827952644 0.030375616829 0.030922663698 0.031459990818 0.031978777524 0.032470852173 0.032928836575 0.0216469207 
0.022045994045 0.022431497118 0.022802165463 0.023157763751 0.023498386306 0.02382529283 0.024140805138 0.024448425184 0.024752781353 
0.025059409225 0.025374365571 0.025703661365 0.02605260423 0.026425176011 0.026823528478 0.02724763567 0.027695343237 0.028162536075 
0.028643550745 0.029131677819 0.029619592343 0.030099822478 0.030565059238 0.031008408424 0.031423612916 0.02084798988 0.021232129195 
0.021604617985 0.021964289637 0.022310512701 0.022643340971 0.02296342075 0.023272762332 0.023573986598 0.023870828222 0.024167790658 
0.024469838549 0.02478192472 0.025108466435 0.025452819676 0.025816920874 0.026201021444 0.026603654171 0.027021805046 0.027451147916 
0.027886422354 0.028321789692 0.028751192076 0.029168644654 0.029568343878 0.029945053168 0.020038141591 0.020407262247 0.020766428953 
0.021114459136 0.02145059093 0.021774653068 0.022087000802 0.022388900476 0.022682410367 0.022970434058 0.023256466567 0.023544768697 
0.02383932032 0.024143844976 0.024461261047 0.024793368653 0.025140724011 0.02550242974 0.025876362606 0.026259332261 0.026647229497 
0.02703549536 0.027419276063 0.027793676989 0.02815398534 0.028495799014 0.019229297589 0.019583287073 0.019928853645 0.020264785207 
0.020590226369 0.020904728567 0.021208443491 0.021502034563 0.021787001034 0.02206549385 0.022340309088 0.022614669064 0.022891918274 
0.023175210299 0.023467067982 0.023769389916 0.02408286672 0.02440716956 0.024740924688 0.025081844056 0.025426913487 0.025772601896 
0.026115095822 0.026450479186 0.026774923566 0.027084840355 0.018433054454 0.018771785234 0.019103610415 0.019427087556 0.019741353113 
0.020045792535 0.02034022328 0.020625018065 0.020901015091 0.021169786096 0.021433312832 0.021694110695 0.021954875638 0.022218220295 
0.022486451048 0.022761284243 0.023043710244 0.023333843899 0.023631006155 0.023933708752 0.024239735795 0.02454667523 0.024851527983 
0.025151250292 0.025442788431 0.025723259427 0.017659777994 0.017983212475 0.018300888705 0.018611609229 0.018914494913 0.019208474303 
0.01949327809 0.019768882324 0.020035795119 0.020294850496 0.020547505481 0.020795571885 0.021041088888 0.021286196749 0.021532876753 
0.021782777903 0.022037053561 0.022296218008 0.022560159096 0.022828111275 0.023098756775 0.02337029084 0.023640644509 0.023907542448 
0.024168664754 0.024421749582 0.016917781939 0.017225758473 0.017529249487 0.017827056064 0.018117992892 0.018401221568 0.018676128031 
0.018942522293 0.019200308168 0.019449942552 0.01969233387 0.019928680059 0.020160451814 0.020389287888 0.020616833224 0.020844586977 
0.021073777454 0.021305239396 0.021539311844 0.021775839787 0.022014217562 0.022253411019 0.022492085579 0.022728684265 0.02296154565 
0.0231890105 0.016213337292 0.016505884918 0.01679510588 0.017079751871 0.017358694569 0.01763096484 0.017895855164 0.018152719938 
0.018401379014 0.018642057243 0.018874822101 0.019100512637 0.019320081576 0.019534693958 0.019745619139 0.019954155866 0.020161465874 
0.020368571476 0.020576161824 0.020784598675 0.02099389764 0.021203692857 0.021413327528 0.021621946482 0.021828501424 0.022031896755 
0.015551335619 0.01582846913 0.016103395584 0.016374847277 0.016641679084 0.016902853694 0.017157477685 0.017404861767 0.01764451991 
0.017876272333 0.018100037344 0.018316052376 0.018524982513 0.01872733803 0.018924083185 0.019116254138 0.019304902612 0.01949105719 
0.019675657582 0.019859431821 0.020042869837 0.020226225943 0.020409479392 0.020592375761 0.020774492807 0.020955272319 0.014935367626 
0.015197185937 0.015457827026 0.015716071839 0.015970728533 0.016220721855 0.016465073975 0.016702947303 0.016933678405 0.017156767556 
0.017371958748 0.017579182232 0.017778559764 0.017970349894 0.018155146765 0.018333772871 0.018506855605 0.018675464227 0.018840569639 
0.019003149149 0.019164068318 0.019324030744 0.019483598477 0.019643092542 0.019802662004 0.01996229043 0.014368057901 0.014614804967 
0.014861181278 0.015106256919 0.015348748681 0.015587541448 0.015821593471 0.016049959082 0.016271830642 0.016486534482 0.01669356289 
0.016892574483 0.017083473775 0.017266172067 0.017440934254 0.017608181277 0.017768604823 0.017922809068 0.018071931761 0.018216781972 
0.018358562194 0.018498328635 0.018637054135 0.018775603602 0.018914647141 0.019054661277 0.013851224109 0.014082958119 0.014315538607 
0.014547574784 0.014777993886 0.015005638887 0.015229417908 0.015448221226 0.015661312236 0.015867798529 0.0160670011 0.016258383771 
0.016441568018 0.016616388378 0.016782692459 0.016940677917 0.017090703793 0.017233351159 0.017369413127 0.017499869623 0.017625973548 
0.017748782457 0.017869750586 0.017989984045 0.018110714947 0.018232950261 0.013385986646 0.013603238893 0.013822036044 0.01404122326 
0.014259806767 0.014476423345 0.014690027265 0.014899532486 0.015103944681 0.015302363298 0.015493989633 0.015678144854 0.015854288142 
0.01602196418 0.016181024898 0.016331361877 0.016473097026 0.016606601763 0.016732461207 0.016851574087 0.016965014095 0.017074077758 
0.017180222154 0.017284983824 0.017389818986 0.01749618292 0.01297276839 0.013175915469 0.0133814551 0.013588241455 0.013795124374 
0.014000878711 0.014204537112 0.014404786159 0.014600646375 0.014791139418 0.014975388203 0.015152615033 0.015322165881 0.015483501632 
0.015636262181 0.015780167358 0.015915197524 0.016041518746 0.016159550552 0.016269984255 0.016373767331 0.016472150901 0.01656645534 
0.016658576894 0.016750132832 0.01684285595 0.012610985418 0.012800883117 0.012993739568 0.01318844119 0.013384076928 0.013579395869 
0.013773231223 0.013964487023 0.014151886185 0.01433460836 0.014511617759 0.014682142643 0.014845422092 0.015000835043 0.015147893488 
0.01528631026 0.015415799056 0.015536433719 0.015648456501 0.015752381026 0.015849008732 0.015939386243 0.016024928298 0.016107264087 
0.016188220706 0.016269717927 0.012298967954 0.012476659514 0.012657551249 0.012840965737 0.013025787263 0.013210984446 0.013395383562 
0.013577773893 0.013757054701 0.01393223825 0.014102154498 0.01426615188 0.014423381917 0.014573176051 0.014714991271 0.014848413452 
0.0149732385 0.015089261179 0.015196668285 0.015295765084 0.015387203985 0.015471886655 0.015551051742 0.015626225141 0.015699194167 
0.015771928754 0.012034413972 0.012200413568 0.012370236324 0.012543041916 0.012717835814 0.012893776844 0.01306905712 0.013242976037 
0.013414313221 0.013582018172 0.013745111596 0.013902773899 0.014054016392 0.014198376458 0.014335207819 0.014464060667 0.014584654771 
0.014696829536 0.014800527222 0.014896020789 0.014983798438 0.015064587968 0.015139449339 0.015209738651 0.015277111325 0.015343464421 
0.011812606708 0.011968433272 0.012128263442 0.012291372023 0.012456800393 0.012623505694 0.012790326504 0.012956052315 0.013119733056 
0.013280502588 0.013436837955 0.013588143991 0.013733643569 0.013872716954 0.014004686316 0.01412909653 0.01424574399 0.014354376722 
0.014455019514 0.014547718746 0.014632876791 0.014711083163 0.014783224754 0.014850465171 0.014914275359 0.014976384272 0.01162700936 
0.01177406091 0.011925101101 0.012079512537 0.012236430381 0.012394861093 0.012553693863 0.012711817845 0.012868147436 0.013021560455 
0.01317127566 0.013316361695 0.013456064144 0.013589764978 0.013717219994 0.013837338375 0.01395015679 0.014055479267 0.014153163221 
0.014243493329 0.01432672137 0.014403209156 0.014473730608 0.014539273524 0.014601102351 0.014660733466 0.011468972746 0.011608680808 
0.011752193553 0.011898995253 0.012048308636 0.012199206981 0.012350635665 0.012501526059 0.012650828866 0.012797554362 0.012940777591 
0.013079652489 0.01321355096 0.01334182742 0.013463997058 0.013579672043 0.013688637006 0.013790621353 0.01388563481 0.013973761223 
0.014055526543 0.014130722418 0.014200286081 0.014265016377 0.014325963343 0.014384459289 0.011327788262 0.011461590316 0.011598838349 
0.011739115367 0.011881741102 0.012025840755 0.012170460995 0.012314571884 0.012457188272 0.012597379429 0.012734242479 0.012867021409 
0.012995065791 0.013117769024 0.013234836897 0.013345881883 0.013450695849 0.013549168333 0.013641334288 0.013727189903 0.013806998256 
0.013881095824 0.013950051725 0.014014439044 0.014075192231 0.014133315302 0.011191631674 0.011320796351 0.01145289153 0.011587638303 
0.011724416815 0.011862432776 0.01200080825 0.0121386129 0.012274859389 0.012408677192 0.012539273717 0.012665920072 0.012788030864 
0.012905134225 0.013016882905 0.013122971341 0.013223399567 0.01331806968 0.013407014239 0.013490360905 0.013568366709 0.013641236489 
0.013709487119 0.013773713757 0.013834546091 0.01389293531 0.011048680248 0.011174173902 0.011302094724 0.011432130572 0.011563798794 
0.011696385779 0.011829029702 0.011960871384 0.012091044179 0.012218706528 0.012343116718 0.012463627458 0.012579696064 0.012690941171 
0.012797103206 0.012898040581 0.012993725447 0.013084155299 0.013169553654 0.013250023373 0.013325814524 0.013397207368 0.013464628673 
0.01352847035 0.013589421273 0.013648101955 0.01088867089 0.011011182021 0.011135587027 0.011261613128 0.011388766879 0.01151639766 
0.011643740159 0.011770002859 0.011894367604 0.012016046224 0.012134350516 0.012248683933 0.012358594487 0.012463765841 0.012564047072 
0.012659412857 0.012749956018 0.012835833853 0.012917237445 0.012994368276 0.01306757888 0.013137099453 0.013203269369 0.013266490282 
0.013327235384 0.013386127958 0.025428734657 0.025912418822 0.026382458727 0.026838108547 0.027279331467 0.027707106038 0.028123465676 
0.028531624825 0.028936008823 0.029342156516 0.029756462964 0.030185720464 0.030636512612 0.03111445847 0.0316234455 0.032165005271 
0.032737982588 0.033338560063 0.033960599976 0.034596181579 0.035236252198 0.035871222032 0.036491499202 0.03708785896 0.037651751781 
0.038175484581 0.024582565934 0.025045334546 0.02549617429 0.025934281138 0.026359570086 0.026772669309 0.027175196129 0.027569770849 
0.027960028182 0.028350540847 0.028746564053 0.029153697421 0.029577341464 0.030022111389 0.030491249665 0.030986125818 0.031505969731 
0.032047905941 0.032607132394 0.03317734498 0.033751210285 0.034320837782 0.034878251897 0.035415668364 0.035925777643 0.036401955864 
0.023732820386 0.024175633564 0.024608064641 0.025029163183 0.025438944765 0.025837649839 0.026226515786 0.026607603869 0.026983851206 
0.027358981736 0.027737305097 0.028123411824 0.028521742053 0.028936096902 0.029369189362 0.029822275183 0.030294895569 0.030784915525 
0.031288628518 0.031801056801 0.032316334074 0.03282803289 0.033329557983 0.033814409563 0.034276411929 0.034709927727 0.022880738395 
0.023304288812 0.023718860209 0.024123572568 0.024518032193 0.024902454128 0.025277505797 0.0256449979 0.026007128641 0.026366890274 
0.026727773453 0.027093526634 0.027467800941 0.027853769956 0.028253727439 0.028668845635 0.029098947879 0.029542492462 0.029996690179 
0.030457667683 0.03092076128 0.031380796546 0.031832417891 0.032270179621 0.032688969171 0.033084006131 0.022031574158 0.022436391333 
0.022833487268 0.023221946171 0.023601240322 0.023971332675 0.024332751069 0.02468655152 0.025034504218 0.025378952547 0.025722561073 
0.026068589748 0.026419925508 0.026779226996 0.027148486309 0.02752880336 0.027920286306 0.028321887792 0.028731596813 0.029146397569 
0.029562690656 0.029976366123 0.030383078541 0.030778430582 0.031158170663 0.031518306723 0.021192436714 0.021578940317 0.021958871851 
0.022331270005 0.022695508544 0.023051322389 0.023398964207 0.023739070767 0.0240729361 0.024402294611 0.024729310988 0.025056398757 
0.02538599017 0.025720316942 0.026061169406 0.026409455472 0.026765709447 0.027129249262 0.027498658317 0.027871776974 0.028245845765 
0.028617668616 0.028983806296 0.029340723113 0.029684958632 0.030013232206 0.020370923889 0.020739448908 0.021102579158 0.021459111452 
0.021808396349 0.022150016565 0.022483918981 0.022810509254 0.023130523059 0.023445258582 0.023756242759 0.024065371077 0.024374602132 
0.024685763403 0.025000399382 0.025319568972 0.025643748886 0.025972716126 0.026305628555 0.026640990733 0.026976703857 0.027310560017 
0.027639825587 0.027961708704 0.028273457841 0.028572433302 0.019574443252 0.01992536091 0.020271722683 0.020612596188 0.020947071251 
0.02127473813 0.02159509372 0.021908312398 0.022214878643 0.022515477277 0.02281126862 0.023103621391 0.023394016541 0.023683946459 
0.023974727504 0.024267377003 0.024562504008 0.024860203138 0.02516008411 0.025461241677 0.025762341645 0.026061658246 0.02635726646 
0.026647072307 0.026928949274 0.027200820857 0.018809312274 0.019142825161 0.019472767978 0.019798149647 0.020117991521 0.020431644052 
0.02073864986 0.021038946777 0.021332415032 0.021619613501 0.021901141927 0.022177963362 0.022451152008 0.022721855361 0.022991165036 
0.023260008041 0.02352906571 0.02379869503 0.024068856394 0.024339131283 0.024608763446 0.024876668603 0.025141540342 0.025401903063 
0.025656205923 0.025902904642 0.018080528309 0.018396987853 0.018710775113 0.019020830719 0.019326224457 0.019626173097 0.01992013437 
0.020207601068 0.02048847441 0.0207630041 0.02103119259 0.021293739907 0.021551342205 0.021804824808 0.022055033877 0.022302785968 
0.02254873587 0.022793409229 0.023037047562 0.023279641871 0.023520930557 0.023760366315 0.023997196706 0.024230538502 0.024459361217 
0.024682610885 0.017392171821 0.017691894701 0.017989806149 0.018284829436 0.018576005515 0.018862478758 0.019143524683 0.01941860108 
0.019687337567 0.01994962509 0.020205401605 0.020454854668 0.020698521921 0.020936710188 0.021170091779 0.021399333779 0.021625057194 
0.021847822471 0.022068098929 0.022286170786 0.022502144606 0.022715968552 0.022927397104 0.023136027664 0.023341350401 0.023542761013 
0.016747277074 0.01703062871 0.017312958402 0.017593231454 0.017870438172 0.018143681245 0.018412152098 0.018675168138 0.018932203626 
0.019182876897 0.019426942289 0.019664419747 0.019895373066 0.020119973569 0.020338637124 0.02055193637 0.020760174051 0.02096401083 
0.021163997749 0.021360619642 0.021554298804 0.021745327706 0.021933922631 0.022120129904 0.022303892616 0.022485044817 0.016148030179 
0.01641549473 0.016682515868 0.016948341957 0.017211869618 0.017472160182 0.017728341521 0.017979628757 0.018225359399 0.018464986514 
0.018698105231 0.018924446744 0.019143947751 0.019356513222 0.019562330372 0.019761681117 0.01995503365 0.020142694693 0.020325315256 
0.020503580077 0.020677906446 0.020848980301 0.021017329022 0.021183423852 0.021347604551 0.021510080669 0.015595832317 0.015847734163 
0.016100021529 0.016351834302 0.016602023356 0.016849677928 0.017093878189 0.017333678511 0.017568495898 0.017797574593 0.018020362051 
0.018236424272 0.018445460511 0.018647349891 0.018841942839 0.019029383547 0.019209909681 0.019383901135 0.019551863591 0.019714403995 
0.01987223823 0.02002622933 0.020176937518 0.0203253648 0.020472036571 0.020617593209 0.015091382108 0.015328338076 0.015566333513 
0.015804445509 0.016041693165 0.016277061101 0.016509623931 0.016738463762 0.016962744829 0.017181713945 0.017394707571 0.017601167805 
0.017800657548 0.017992848432 0.018177508194 0.018354676131 0.018524386871 0.018686902011 0.018842606651 0.018992143572 0.01913618835 
0.019275593218 0.019411304193 0.019544318446 0.019675557019 0.019805972033 0.014634661851 0.014857243841 0.01508151308 0.015306497586 
0.015531231077 0.015754736919 0.015976041379 0.016194191415 0.016408308925 0.016617568196 0.016821233654 0.017018657639 0.017209303531 
0.017392735046 0.017568613264 0.017736890487 0.017897385131 0.018050284266 0.018195901368 0.018334738158 0.018467458489 0.018594932005 
0.018718008554 0.018838043326 0.018956073218 0.019073244319 0.014224660161 0.014433820735 0.014645052803 0.014857412188 0.01507017345 
0.015282277648 0.015492745983 0.01570066377 0.015904922106 0.016104855131 0.01629957291 0.016488437198 0.016670810014 0.016846181712 
0.017014161528 0.017174480856 0.017327082752 0.017471875708 0.017609121154 0.017739223328 0.017862789059 0.017980571754 0.01809358892 
0.018202974252 0.018309979375 0.018415898624 0.013859360606 0.014056179658 0.014255156003 0.014455771244 0.014657096149 0.014858296972 
0.015058395967 0.015256369154 0.015451289105 0.015642327292 0.015828460819 0.016009169367 0.016183728634 0.016351582812 0.016512291326 
0.01666552806 0.016811158605 0.016949021432 0.017079307724 0.017202274412 0.017318454812 0.017428543992 0.017533470941 0.017634341898 
0.017732421486 0.017829056262 0.013536310415 0.013721268066 0.013908885805 0.014098466839 0.014289199696 0.014480444116 0.014670596317 
0.014859147462 0.01504505447 0.015227428339 0.015405437539 0.015578390376 0.015745420354 0.01590617202 0.016060099488 0.016206842145 
0.016346195565 0.016477997536 0.016602397874 0.016719484483 0.016829741856 0.016933763424 0.017032383528 0.017126625888 0.017217699483 
0.017306935058 0.013251007082 0.013425506711 0.01360278169 0.013782211316 0.013963024171 0.014144376802 0.014325312624 0.014504896098 
0.01468212261 0.014856236938 0.015026636202 0.015191999396 0.015351946455 0.015505960318 0.015653482677 0.015794061512 0.015927644612 
0.016054013949 0.016173177306 0.016285369298 0.016390792313 0.016490012482 0.016583760487 0.016672949818 0.016758690787 0.016842233588 
0.0129976907 0.013162940889 0.013330933388 0.013501141264 0.013672858486 0.013845285927 0.014017517326 0.014188638493 0.014357743622 
0.014523870264 0.014686377777 0.014844453417 0.014997451824 0.015144848471 0.015286133148 0.015421322214 0.015549483951 0.015670819381 
0.015785228139 0.015893014257 0.015994424651 0.016089774191 0.016179731611 0.016265105422 0.016346871058 0.016426164387 0.012769228965 
0.012926420412 0.013086218918 0.013248167321 0.013411625212 0.01357584665 0.013739973296 0.013903127697 0.014064435773 0.014223062744 
0.014378218877 0.014529169273 0.01467538604 0.014816304263 0.014951507783 0.015080668113 0.015203615947 0.015320125797 0.015430238983 
0.015534059634 0.015631823484 0.015724259944 0.015811087083 0.015893535388 0.015972352748 0.016048561332 0.012557222809 0.012707541017 
0.012860211453 0.013014845693 0.013170874374 0.013327583307 0.013484201137 0.013639876639 0.013793791531 0.013945162222 0.014093213367 
0.014237293873 0.014376841401 0.014511317037 0.014640480463 0.014763985255 0.014881655041 0.014993404497 0.0150992879 0.015199313594 
0.015293744752 0.015382898035 0.015467291037 0.015547400059 0.015623999687 0.015697947464 0.012352765873 0.01249726621 0.012643746664 
0.012791932628 0.0129412893 0.013091159963 0.013240826193 0.013389521941 0.013536414295 0.013680770547 0.013821916297 0.013959221244 
0.014092171663 0.014220354524 0.014343457406 0.01446119567 0.014573579569 0.014680515979 0.014782039412 0.014878277066 0.014969479947 
0.015055834989 0.015137819114 0.015215954376 0.015290749215 0.015362974539 0.012147124975 0.012286635193 0.01242778656 0.012570251705 