# vtk DataFile Version 5.1
vtk output
ASCII
DATASET STRUCTURED_POINTS
DIMENSIONS 26 26 26
SPACING 0.08 0.08 0.08
ORIGIN -1 -1 0.5
POINT_DATA 17576
FIELD FieldData 1
potential 1 17576 double
0.0012782427698 0.0012672056734 0.0012564739104 0.001246079272 0.0012360459031 0.0012262515777 0.0012169863611 0.0012081176805 0.001199616166 
0.0011914491061 0.0011835718178 0.001175954471 0.0011685152319 0.0011612154299 0.001153999061 0.0011468166248 0.0011396262165 0.0011323886198 
0.001125082234 0.0011176931194 0.0011102182193 0.001102661748 0.0010950390222 0.0010873764057 0.001079679853 0.0010719842608 0.0012739942041 
0.0012629128552 0.0012521428828 0.0012417130889 0.001231654637 0.0012219880556 0.0012125682048 0.0012036724223 0.001195153509 0.0011869623159 
0.0011790495524 0.0011713567225 0.0011638515419 0.0011564538495 0.0011491225287 0.00114181638 0.001134492833 0.0011271263416 0.0011196968069 
0.0011121943848 0.0011046172394 0.0010969719229 0.0010892740704 0.0010815400295 0.0010738016246 0.0010660682453 0.0012641919289 0.0012530793846 
0.001242292108 0.0012318445001 0.001221778356 0.0012121078406 0.0012026891778 0.0011938089356 0.0011852800956 0.0011770864538 0.0011691621324 
0.0011614452313 0.0011539018755 0.0011464511794 0.0011390531334 0.0011316744981 0.0011242729848 0.0011168284036 0.0011093243835 0.0011017536738 
0.0010941168833 0.0010864218107 0.0010786840131 0.0010709200299 0.0010631531948 0.0010554181138 0.0012502632217 0.0012391500227 0.001228367006 
0.0012179261521 0.0012078626155 0.0011981874518 0.0011887768159 0.0011799031095 0.0011713884353 0.0011631823256 0.0011552536681 0.0011475270888 
0.0011399568831 0.0011324960956 0.0011250742069 0.0011176609473 0.0011102273479 0.0011027506627 0.0010952178286 0.0010876231884 0.0010799685869 
0.0010722617613 0.0010645187612 0.0010567582586 0.0010490017963 0.0010412763179 0.0012339510006 0.0012228758151 0.0012120839647 0.0012016531467 
0.0011915947553 0.0011819309906 0.0011725094213 0.0011636252988 0.0011550967268 0.001146883879 0.0011389361671 0.0011311843779 0.0011235898114 
0.0011161142747 0.001108696367 0.0011012791561 0.0010938494921 0.0010863791716 0.0010788575098 0.0010712779551 0.001063642982 0.0010559610026 
0.0010482472501 0.0010405205715 0.0010328043177 0.0010251244846 0.0012169190074 0.0012058851156 0.0011951361325 0.0011846963099 0.0011746431989 
0.0011649698823 0.0011555344487 0.0011466140568 0.0011380339006 0.0011297682612 0.0011217664042 0.0011139816976 0.0011063397889 0.0010988387069 
0.0010914242998 0.001084017309 0.0010766083773 0.001069171927 0.0010616899301 0.0010541566246 0.0010465742512 0.0010389494622 0.0010312969618 
0.0010236350635 0.0010159872072 0.0010083796932 0.0012006154764 0.0011896003435 0.0011788774184 0.0011684749843 0.0011584037091 0.001148708191 
0.0011393722037 0.0011302434359 0.0011215864764 0.0011132258005 0.0011051215823 0.0010972478371 0.0010895548055 0.0010819862208 0.0010745379768 
0.0010671465108 0.0010597603859 0.0010523674548 0.0010449441285 0.001037481354 0.0010299773832 0.0010224371474 0.0010148734459 0.0010073038654 
0.00099975028939 0.00099223794381 0.0011860639238 0.0011750981863 0.0011644062076 0.0011540132636 0.0011439239301 0.0011341888462 0.0011247951977 
0.0011155709127 0.001106793765 0.0010982963446 0.0010900549825 0.001082048892 0.0010742304708 0.0010665849731 0.0010590665511 0.001051652687 
0.0010442769319 0.00103692162 0.0010295629807 0.0010221813562 0.0010147729204 0.001007337396 0.00099988495558 0.00099243024975 0.00098499434829 
0.00097760069744 0.0011740063207 0.0011631044138 0.0011524348226 0.0011420502063 0.0011319627109 0.0011221527781 0.0011126620806 0.0011033161613 
0.0010943968077 0.0010857263638 0.0010773043286 0.0010691179598 0.0010611408451 0.0010533560116 0.0010457435481 0.0010382442344 0.0010308609226 
0.0010235228238 0.0010162141764 0.0010089146307 0.001001607037 0.00099428757191 0.00098696147901 0.00097963974557 0.00097233803741 0.00096508484335 
0.0011647993767 0.0011540592472 0.0011434249138 0.0011330464509 0.0011229311134 0.0011130558479 0.0011034595319 0.001093971517 0.0010848691527 
0.001075999613 0.0010673743919 0.0010589696298 0.0010507860871 0.0010428237057 0.0010350608358 0.0010274587664 0.0010199996915 0.0010126450031 
0.0010053625258 0.00099812624439 0.00099091216892 0.00098370920141 0.00097651581821 0.00096933722141 0.00096218631719 0.00095508560863 0.0011589261184 
0.001148252665 0.0011376661066 0.0011272799348 0.0011171298679 0.0011072006491 0.0010974645246 0.0010878209048 0.0010785276927 0.0010694419455 
0.0010605701938 0.0010519232607 0.0010435093222 0.0010353245336 0.0010273661449 0.0010196128327 0.0010120366304 0.0010046174542 0.00099732141017 
0.00099011675062 0.00098297646869 0.00097587758773 0.00096881300652 0.00096177863314 0.00095478531383 0.0009478466133 0.0011564454075 0.0011458433922 
0.0011352927013 0.0011249087661 0.0011147151483 0.0011047019796 0.0010948591721 0.0010851696421 0.0010755347459 0.0010662205176 0.0010571020438 
0.0010481908744 0.0010395148508 0.0010310869153 0.0010229019025 0.0010149427868 0.0010072122947 0.00099968252456 0.00099231684959 0.00098510196849 
0.00097799958799 0.00097097893817 0.00096402625794 0.00095712820198 0.00095028834907 0.0009435134407 0.0011574384312 0.0011469095055 0.0011363946159 
0.0011260058297 0.0011157651812 0.0011056591735 0.0010956836769 0.0010858217872 0.0010759828632 0.001066436076 0.0010570655899 0.0010478896241 
0.0010389438557 0.001030240596 0.0010218003256 0.0010136159565 0.0010056836609 0.00099799308143 0.0009905327734 0.00098323890764 0.0009761263321 
0.00096914849541 0.00096227456565 0.00095549347552 0.00094879341675 0.00094217368791 0.0011619422448 0.0011513767355 0.0011410001957 0.0011306122041 
0.0011203055398 0.0011101016719 0.0010999889926 0.001089971596 0.0010799050642 0.0010701297065 0.0010605100187 0.0010510711102 0.001041854028 
0.0010328774514 0.0010241695376 0.0010157271711 0.0010075588815 0.0009996763294 0.00099204678904 0.0009846694456 0.00097748278319 0.00097048911815 
0.00096365538574 0.00095695408624 0.00095036769277 0.00094388955686 0.0011699586466 0.0011594543804 0.0011490991888 0.0011386930978 0.0011283247804 
0.0011180163378 0.0011077628235 0.0010975672501 0.0010872983412 0.0010772982789 0.0010674367544 0.0010577424606 0.0010482607337 0.0010390150704 
0.001030038552 0.0010213335073 0.0010129150324 0.0010047976087 0.00099697171309 0.00098944274523 0.00098215820717 0.00097509233803 0.00096824458558 
0.00096158070724 0.00095506816759 0.00094869379716 0.0011814502148 0.0011709919994 0.0011606497225 0.0011502124234 0.0011397700399 0.0011293500761 
0.0011189504088 0.0011085805064 0.001098131833 0.0010878967423 0.0010778043116 0.001067867456 0.0010581342737 0.0010486301743 0.0010393921224 
0.001030427113 0.0010217551271 0.0010133968818 0.001005350271 0.00099761118375 0.00099018650392 0.00098300896467 0.00097609689024 0.000969412381 
0.00096291943757 0.00095660834225 0.0011963364671 0.0011859082122 0.0011754527137 0.0011650696727 0.0011545511223 0.001144000752 0.0011334479944 
0.0011229045721 0.0011122643136 0.0011018414802 0.0010915126635 0.0010813498964 0.0010713832918 0.001061640066 0.0010521593318 0.0010429464344 
0.0010340332843 0.0010254286088 0.0010171510013 0.0010091964155 0.001001573717 0.00099425188003 0.00098721465376 0.00098045307471 0.00097393236548 
0.00096762413435 0.0012144625303 0.0012040296155 0.0011935394909 0.0011830888969 0.0011724688377 0.0011617817791 0.001151072998 0.0011403558982 
0.0011295275512 0.0011189115235 0.0011083773904 0.0010980154524 0.0010878384035 0.001077879141 0.0010681776007 0.0010587417975 0.0010495994662 
0.0010407656666 0.0010322612459 0.0010240845014 0.0010162397018 0.0010087347809 0.0010015391967 0.00099464062452 0.00098802959262 0.00098167363064 
0.0012355524089 0.0012250754945 0.0012145123566 0.0012039660584 0.0011932185784 0.0011823952122 0.0011715107879 0.0011606228991 0.0011497574865 
0.001138824467 0.0011281268761 0.0011175654789 0.0011072012574 0.0010970547465 0.0010871625166 0.001077527922 0.0010681863084 0.0010591436818 
0.0010504237209 0.0010420301825 0.0010339721385 0.0010262598585 0.0010188705797 0.0010118041657 0.0010050339078 0.00099857007029 0.001259139352 
0.0012485668394 0.001237885337 0.001227097408 0.0012163104895 0.0012053297915 0.0011942762999 0.0011832159979 0.001172180629 0.0011610782325 
0.0011502199442 0.0011395006654 0.0011289846483 0.0011186859635 0.0011086366508 0.0010988434839 0.0010893284637 0.0010801123467 0.0010711995195 
0.0010626114844 0.0010543485603 0.0010464174389 0.0010388287181 0.0010315603092 0.0010246143926 0.0010179634344 0.0012845082867 0.0012737764057 
0.0012629275904 0.0012519585331 0.0012409901004 0.0012298219498 0.0012185912978 0.0012073617648 0.0011961669435 0.0011849175772 0.0011739248122 
0.0011630973252 0.0011524443092 0.001142030319 0.001131865893 0.0011219531246 0.0011123149121 0.0011029613755 0.0010938973829 0.0010851418146 
0.0010766930328 0.0010685644725 0.0010607666799 0.0010532815924 0.0010461194729 0.0010392689023 0.0013105795883 0.0012996181531 0.0012885420319 
0.001277351105 0.0012661725599 0.0012548043323 0.0012433993502 0.0012319906664 0.0012206469742 0.0012092717494 0.0011981623473 0.0011872398628 
0.0011765049367 0.0011660162637 0.0011557850457 0.0011458023674 0.0011360932378 0.0011266466523 0.0011174758661 0.0011085917232 0.0010999928905 
0.001091691112 0.0010836885687 0.0010759978412 0.0010686050916 0.0010615178898 0.0013358974545 0.001324639537 0.0013132867494 0.0013018388098 
0.0012904229083 0.0012788380834 0.0012672426904 0.0012556697281 0.0012441900097 0.0012327016508 0.0012215164314 0.0012105317792 0.001199772669 
0.0011892432038 0.0011789960938 0.0011689983439 0.0011592606525 0.0011497796888 0.0011405579599 0.0011315891018 0.0011228853717 0.0011144429634 
0.001106268999 0.0010983818188 0.0010907659341 0.0010834260447 0.0013587177932 0.0013471220504 0.0013354497783 0.001323710608 0.0013119205865 
0.0013002248957 0.0012884369067 0.0012767099604 0.0012651081123 0.0012535313727 0.001242293782 0.0012312877107 0.0012205360461 0.0012100354152 
0.0011998305655 0.0011898783885 0.0011801799733 0.0011707266801 0.0011615062635 0.0011525096752 0.0011437419524 0.0011351971089 0.0011268878057 
0.0011188276955 0.0011110068244 0.0011034292486 0.0013772428691 0.0013652645072 0.0013532581935 0.0013412091492 0.0013291475549 0.0013172242905 
0.0013052467611 0.0012933695971 0.00128166285 0.0012700249825 0.0012587677432 0.0012477832128 0.0012370876319 0.0012266892154 0.0012165743344 
0.0012067340526 0.0011971452316 0.0011877844115 0.0011786297293 0.0011696634782 0.0011608862285 0.00115229171 0.0011438883946 0.0011356780925 
0.0011276830976 0.0011198907139 0.0013899067166 0.0013775495295 0.001365182957 0.0013528321541 0.0013404987142 0.0013283447494 0.0013161844574 
0.0013041827985 0.0012923796143 0.0012807061815 0.0012694636032 0.0012585415086 0.0012479539465 0.001237702153 0.0012277598254 0.0012181045541 
0.0012086982082 0.0011994994029 0.0011904755414 0.0011816067517 0.0011728745924 0.0011642802267 0.0011558263637 0.0011475186102 0.0011393782136 
0.0011313969765 0.0014178888014 0.0014061955892 0.0013947836188 0.0013836780231 0.0013728968129 0.0013623130135 0.0013522138209 0.0013424673152 
0.0013330483126 0.0013239315465 0.0013150819714 0.0013064798079 0.0012980555387 0.0012897793712 0.0012816059111 0.0012734949076 0.0012654121791 
0.0012573240073 0.0012492116718 0.0012410616007 0.001232869018 0.0012246349173 0.0012163704262 0.0012080971713 0.0011998161319 0.0011915571087 
0.0014161005777 0.0014043494992 0.001392883788 0.0013817247074 0.0013708966147 0.0013604146859 0.0013501314379 0.0013403253906 0.0013308555821 
0.0013216830292 0.0013127710034 0.001304074037 0.0012955718744 0.0012871945566 0.0012789108408 0.001270685667 0.0012624821582 0.0012542781122 
0.0012460547412 0.0012378016163 0.001229514764 0.0012211974496 0.0012128608763 0.0012045179699 0.0011961946542 0.0011878957702 0.001410169845 
0.0013983709953 0.0013868686681 0.0013756706973 0.0013648096662 0.0013542943132 0.0013439789196 0.0013341515357 0.0013246330392 0.0013154194496 
0.0013064597616 0.0012977071673 0.0012891412357 0.0012806921494 0.0012723283655 0.0012640226325 0.0012557365754 0.0012474518538 0.0012391521948 
0.0012308289207 0.0012224800007 0.0012141097004 0.0012057288917 0.0011973511765 0.0011889934911 0.0011806860032 0.0014010361235 0.0013892173496 
0.0013776990749 0.0013664839325 0.0013555991571 0.0013450497801 0.0013347097039 0.0013248538755 0.0013153129681 0.0013060496937 0.0012970487543 
0.0012882509317 0.0012796200478 0.0012711359852 0.0012627222066 0.0012543593892 0.001246021988 0.001237688474 0.0012293452026 0.0012209845119 
0.0012126051682 0.0012042110574 0.00119581385 0.00118742749 0.0011790685601 0.0011707588508 0.0013898976268 0.0013780959677 0.0013665464771 
0.0013553176133 0.0013444126452 0.0013338480478 0.0013234698028 0.0013135762636 0.0013039942482 0.001294696594 0.001285635258 0.0012767939686 
0.0012681112866 0.0012595740954 0.0012511310887 0.0012427317477 0.001234368012 0.0012260124046 0.0012176541307 0.0012092843481 0.0012009023164 
0.0011925123584 0.0011841250713 0.0011757543079 0.0011674181683 0.0011591371908 0.0013779402169 0.0013661571708 0.0013546275815 0.0013433665698 
0.0013324439933 0.0013218482129 0.0013114368526 0.0013014909119 0.0012918438688 0.0012824808745 0.0012733636282 0.001264458639 0.0012557048924 
0.0012471194451 0.0012386398208 0.0012302147997 0.001221834204 0.0012134757162 0.0012051215551 0.0011967645193 0.0011884038382 0.001180042103 
0.0011716892446 0.0011633583366 0.0011550670014 0.0011468364302 0.0013662776803 0.0013544892833 0.0013429623879 0.0013316958706 0.0013207560213 
0.0013101220265 0.0012997993887 0.0012896407963 0.0012799179681 0.0012704648569 0.0012612473692 0.0012522517797 0.0012434377328 0.0012347602371 
0.0012262264735 0.0012177830926 0.001209386964 0.0012010303787 0.0011926930669 0.0011843652302 0.0011760443611 0.0011677305489 0.0011594324143 
0.0011511622129 0.0011429360081 0.0011347727439 0.0013557524898 0.0013439875854 0.0013324678094 0.0013212103933 0.0013102148369 0.0012995304465 
0.0012891471842 0.0012788987596 0.0012690690964 0.001259496524 0.0012501620513 0.001241049691 0.0012321181996 0.0012233612251 0.0012147431369 
0.0012062521891 0.001197831934 0.0011894726049 0.001181154976 0.0011728638083 0.0011645932482 0.0011563406411 0.0011481129467 0.0011399195012 
0.0011317754847 0.0011236974644 0.0013470420444 0.0013353137383 0.0013237918794 0.0013125223902 0.0013015140639 0.0012907481814 0.0012802705152 
0.0012699138737 0.001259964148 0.0012502471939 0.0012407625239 0.0012315007509 0.0012224345717 0.0012135525578 0.0012048423435 0.0011962545485 
0.0011878008964 0.0011794260992 0.0011711172527 0.0011628607366 0.001154642349 0.0011464578235 0.0011383098746 0.0011302052168 0.0011221539464 
0.0011141775637 0.0013405098899 0.0013289138193 0.001317401779 0.0013061183454 0.0012950693047 0.0012842344434 0.0012736584619 0.001263177196 
0.0012530718431 0.0012431905265 0.0012335426121 0.0012241012631 0.0012148652081 0.0012058349294 0.0011969927351 0.0011883075551 0.0011797702052 
0.0011713540029 0.0011630366822 0.0011548006339 0.0011466275573 0.0011385089474 0.0011304430027 0.0011224324842 0.0011144843297 0.0011066170437 
0.0013366759503 0.0013251147282 0.0013136237719 0.0013023125017 0.001291216986 0.0012803265215 0.0012696201713 0.0012590034986 0.0012487373348 
0.0012386765827 0.00122882452 0.0012191944063 0.0012097636818 0.0012005515336 0.0011915463342 0.0011827307322 0.0011740839432 0.0011655952706 
0.0011572427472 0.0011490041332 0.0011408614367 0.0011327977483 0.0011248083137 0.0011168886403 0.0011090477924 0.0011012927818 0.0013356422067 
0.0013241180537 0.0013126344919 0.0013013053985 0.0012901552865 0.0012791796931 0.0012683781221 0.0012575953764 0.0012471580755 0.001236906169 
0.0012268498074 0.0012169931348 0.0012073563625 0.0011979479475 0.0011887585024 0.0011797716015 0.0011709936728 0.0011624039298 0.0011539754537 
0.0011457058373 0.001137567453 0.0011295384591 0.0011216106991 0.0011137749881 0.0011060330389 0.0010983886237 0.0013375246375 0.0013260368767 
0.0013145596232 0.0013032045426 0.0012919968258 0.0012809296076 0.0012700057025 0.0012592121021 0.0012484583227 0.0012380088597 0.0012277408003 
0.0012176638465 0.0012078051766 0.0011981697369 0.0011887725667 0.001179604242 0.0011706597571 0.0011619338924 0.0011534216624 0.0011450687494 
0.0011369008187 0.0011288815309 0.0011209904438 0.0011132212075 0.0011055651679 0.0010980208122 0.0013423797649 0.0013308157878 0.0013194468635 
0.0013080709603 0.0012967871029 0.0012856229082 0.0012745727478 0.0012636432682 0.0012526883881 0.0012420424275 0.0012315620407 0.0012212632079 
0.0012111776872 0.0012013163908 0.0011917000481 0.0011823166088 0.0011731836612 0.0011643031373 0.0011556474858 0.0011472237606 0.0011389792245 
0.0011309269164 0.0011230442842 0.0011153127237 0.0011077206949 0.0011002639519 0.0013502109681 0.0013386665496 0.0013272867451 0.0013158724967 
0.0013045177409 0.0012932499967 0.0012820696821 0.0012709802058 0.0012598469539 0.0012490049845 0.0012383155438 0.0012277979342 0.0012174882029 
0.0012074014679 0.001197562469 0.0011879680351 0.0011786284802 0.0011695559305 0.0011607477208 0.001152192789 0.0011438514898 0.0011357395532 
0.0011278272615 0.0011201032538 0.0011125448477 0.0011051442249 0.0013609610362 0.0013494220882 0.0013380267919 0.001326558199 0.0013151205847 
0.0013037434754 0.0012924273406 0.001281178549 0.0012698886447 0.0012588368243 0.0012479449243 0.0012372164404 0.0012266902922 0.0012163835947 
0.0012063247984 0.0011965148859 0.0011869679491 0.0011777005508 0.0011687083715 0.0011599874305 0.0011515474222 0.001143326231 0.0011353520324 
0.0011275947055 0.0011200285157 0.0011126517666 0.0013745199369 0.0013629687708 0.0013514281818 0.0013399978338 0.0013284772361 0.0013169725554 
0.0013055134999 0.0012941078978 0.0012826439925 0.001271426079 0.0012603219127 0.0012493941317 0.0012386639845 0.001228150805 0.0012178851879 
0.0012078666965 0.0011981207013 0.0011886515047 0.0011794731542 0.0011705796231 0.0011619795956 0.0011536418905 0.0011455627949 0.0011377330575 
0.0011301292362 0.0011227317903 0.0013906846921 0.0013790916128 0.0013674891936 0.0013559775662 0.0013443513644 0.0013327143866 0.0013211096916 
0.0013095443408 0.0012979093203 0.0012865165423 0.001275226891 0.0012641214493 0.0012532044885 0.0012425015954 0.0012320444489 0.0012218359055 
0.0012118977114 0.0012022386848 0.0011928759711 0.0011838036308 0.0011750243671 0.0011665447604 0.0011583362441 0.0011503906112 0.001142704734 
0.0011352534861 0.0014091392405 0.0013974726209 0.0013857776193 0.0013741611285 0.0013624074898 0.0013506303363 0.0013388717991 0.0013271497846 
0.0013153564213 0.0013037970187 0.0012923595219 0.0012810710714 0.0012699846504 0.001259114314 0.0012484885084 0.0012381066258 0.001227998042 
0.0012181637504 0.001208622698 0.0011993743427 0.0011904241215 0.0011817796869 0.0011734172463 0.0011653375846 0.0011575171697 0.0011499716354 
0.0014294042545 0.0014176250386 0.00140580239 0.0013940545452 0.0013821556866 0.0013702420178 0.0013583162201 0.0013464348858 0.0013346193993 
0.0013227676427 0.0013111809127 0.0012997458118 0.0012885191757 0.0012775087321 0.0012667410182 0.0012562179073 0.0012459568704 0.0012359742955 
0.0012262702749 0.0012168620218 0.0012077457284 0.0011989243175 0.0011904054352 0.0011821653588 0.0011742063856 0.0011665031169 0.0014508207579 
0.0014388826727 0.0014268974486 0.0014148665426 0.0014029104327 0.0013908238111 0.0013787351755 0.0013666989191 0.0013547337132 0.0013427439891 
0.0013310299423 0.0013194923898 0.0013081338397 0.0012970132785 0.0012861367554 0.0012755025368 0.0012651300218 0.0012550260837 0.0012451919837 
0.0012356426921 0.0012263730688 0.0012173918135 0.0012087056659 0.0012002943136 0.0011921624366 0.0011843014451 0.0014724846143 0.0014603385366 
0.0014481472178 0.0014359164013 0.0014237713122 0.0014115039288 0.00139924657 0.0013870537248 0.0013749502742 0.0013628405535 0.0013510124545 
0.0013393797716 0.0013279372377 0.0013167389298 0.0013057927241 0.0012950872158 0.0012846453156 0.0012744539036 0.0012645251317 0.0012548637401 
0.0012454678393 0.0012363441078 0.0012274994049 0.0012189148599 0.0012106000743 0.0012025509634 0.0014932747349 0.001480875033 0.0014684457294 
0.0014559916964 0.0014436375695 0.0014311784841 0.0014187599983 0.0014064048934 0.0013941729386 0.0013819523463 0.0013700459831 0.0013583444943 
0.0013468679997 0.0013356171467 0.0013246416292 0.0013139074794 0.0013034269354 0.0012931953657 0.0012832143689 0.0012734758018 0.0012639891349 
0.0012547469018 0.0012457518347 0.0012370175695 0.0012285241073 0.0012202722981 0.0015119349145 0.0014992573844 0.0014865608879 0.0014738597243 
0.0014611682367 0.0014486248615 0.0014360335091 0.0014235364529 0.001411187855 0.0013988773593 0.0013869106389 0.0013751737501 0.0013636851188 
0.0013524391568 0.0013414804124 0.0013307671339 0.0013203024043 0.0013100794667 0.0013000869874 0.0012903154918 0.0012807679243 0.0012714357163 
0.0012623277892 0.001253449948 0.0012447906163 0.0012363482711 0.0015272314477 0.0015142411931 0.0015012706905 0.0014883095823 0.0014753859759 
0.0014626446175 0.0014498834173 0.0014372476304 0.0014247965516 0.0014124192102 0.0014004196645 0.0013886813096 0.0013772191242 0.0013660395766 
0.0013551310556 0.0013444887836 0.0013340954298 0.0013239302941 0.0013139767255 0.0013042174773 0.0012946521477 0.0012852716759 0.0012760803849 
0.0012670752546 0.0012582734072 0.0012496573306 0.0015381111374 0.0015248123433 0.0015115433044 0.00149833131 0.0014851757739 0.0014722334516 
0.0014593082812 0.0014465573515 0.0014340096472 0.0014215867171 0.0014095806978 0.0013978747566 0.0013864795001 0.0013753966359 0.0013646045874 
0.0013540888853 0.0013438207766 0.0013337674746 0.0013239030988 0.0013142088097 0.0013046678143 0.0012952780139 0.0012860378167 0.0012769476656 
0.0012680227237 0.0012592512552 0.0015621270615 0.0015497254881 0.0015375854018 0.0015257264195 0.0015141619869 0.001502761827 0.0014918111957 
0.0014811789101 0.0014708428999 0.0014607832864 0.0014509721499 0.0014413978892 0.0014319996633 0.0014227564213 0.001413631235 0.0014045916103 
0.0013956099032 0.0013866572612 0.0013777178673 0.0013687791153 0.00135983547 0.0013508858087 0.0013419381497 0.0013330103434 0.0013240992091 
0.0013152306326 0.0015621788822 0.0015497072847 0.0015375000313 0.0015255726098 0.0015139446865 0.0015026276357 0.0014914728749 0.0014807598902 
0.0014703521262 0.0014602174791 0.0014503278785 0.0014406473022 0.0014311648089 0.0014218189777 0.0014125870222 0.0014034397693 0.001394345721 
0.0013852862001 0.0013762442765 0.0013672097672 0.0013581775499 0.0013491486246 0.0013401308577 0.0013311341829 0.0013221797554 0.0013132683357 
0.0015591175831 0.0015465832464 0.0015343232797 0.0015223394371 0.0015106590389 0.0014992871781 0.0014880771401 0.001477318475 0.0014668373935 
0.0014566378729 0.0014466787349 0.0014369236213 0.0014273620712 0.0014179332326 0.0014086148551 0.001399380186 0.0013902005226 0.0013810583548 
0.001371938501 0.0013628319671 0.0013537352147 0.0013446500508 0.0013355841636 0.0013265474492 0.001317552764 0.0013086259095 0.0015535733865 
0.001541001907 0.0015287060091 0.0015166876747 0.0015049557863 0.0014935352157 0.0014822789284 0.0014714665744 0.0014609390929 0.001450666197 
0.0014406428591 0.0014308207673 0.0014211735243 0.001411691971 0.00140230387 0.0013930010225 0.0013837568622 0.0013745540116 0.0013653794261 
0.0013562248123 0.0013470871932 0.0013379678294 0.0013288758434 0.0013198188813 0.0013108123203 0.0013018720151 0.0015463906221 0.0015338172102 
0.0015214727141 0.0015094189778 0.0014976539146 0.0014861904813 0.0014748745112 0.0014640062602 0.0014534178066 0.0014430924123 0.0014329897511 
0.0014231047516 0.0014133862194 0.001403830298 0.001394393587 0.0013850318972 0.0013757407818 0.0013664958815 0.0013572878334 0.001348104712 
0.0013389465168 0.0013298140691 0.0013207145896 0.0013116580253 0.0013026581568 0.0012937308772 0.0015384256345 0.001525850324 0.0015135056436 
0.0015014002584 0.0014895989192 0.0014780871393 0.0014667225529 0.0014557886748 0.0014451245391 0.0014347226107 0.0014245531679 0.0014145918741 
0.0014047870687 0.001395164662 0.0013856698276 0.0013762594501 0.0013669269188 0.0013576536107 0.0013484232447 0.0013392284998 0.0013300671803 
0.0013209393952 0.0013118517618 0.0013028134121 0.0012938376565 0.0012849404601 0.0015305347812 0.0015179319169 0.0015055698952 0.0014934494405 
0.0014816066524 0.0014700413301 0.0014587554773 0.0014476031721 0.0014368606773 0.0014263680145 0.0014160976826 0.0014060429785 0.0013961711471 
0.0013864517804 0.001376879763 0.0013674289852 0.0013580555983 0.0013487561875 0.0013395131447 0.0013303175329 0.0013211661839 0.0013120572333 
0.0013029964786 0.0012939917 0.0012850553956 0.001276200993 0.0015233913974 0.0015107894302 0.0014984132015 0.0014862754948 0.0014743695569 
0.001462754281 0.001451394027 0.0014401528009 0.0014293091491 0.0014187058248 0.0014083280959 0.0013981579556 0.0013881788713 0.0013783710958 
0.0013687123907 0.0013591980977 0.0013497784688 0.001340449267 0.0013311953716 0.0013220036768 0.001312869078 0.0013037878639 0.0012947646467 
0.0012858053388 0.0012769208203 0.0012681226585 0.0015175817234 0.0015049919462 0.0014925923283 0.0014804239614 0.0014684930619 0.0014567808705 
0.0014453349454 0.0014340011584 0.0014230405389 0.0014123094265 0.0014017997978 0.0013915042314 0.0013813979927 0.0013714734538 0.0013617233814 
0.0013521050053 0.0013426365335 0.0013332692253 0.001323995636 0.0013148060691 0.0013056885367 0.0012966391423 0.0012876593493 0.0012787532052 
0.0012699272384 0.0012611972949 0.0015135345019 0.0015009503038 0.0014885386765 0.0014763392065 0.0014643562702 0.0014525706178 0.0014410295633 
0.0014295739492 0.0014184820057 0.0014076169985 0.0013969595439 0.0013865097004 0.0013762564055 0.0013662017192 0.0013563310313 0.0013466180718 
0.0013370597133 0.0013276359408 0.0013183308895 0.0013091323958 0.0013000261311 0.0012910057008 0.0012820695616 0.001273218994 0.0012644579167 
0.0012558005119 0.0015114640647 0.0014989886093 0.0014865640299 0.0014743308827 0.0014622910861 0.0014504451398 0.0014387806062 0.0014272006184 
0.0014159689837 0.0014049404623 0.0013941163398 0.0013835072634 0.0013730884559 0.0013628779602 0.0013528649296 0.0013430347544 0.0013333712545 
0.0013238689668 0.0013145147258 0.001305290547 0.0012961843411 0.0012871840769 0.001278286165 0.0012694865234 0.0012607924542 0.001252207544 
0.0015117873393 0.0014993194389 0.0014868898878 0.0014746105681 0.0014625063739 0.0014505752754 0.0014388199396 0.0014270877492 0.0014157077124 
0.0014045120795 0.0013935129467 0.0013827095001 0.0013721172367 0.0013617420563 0.0013515726541 0.0013415933502 0.0013318131588 0.0013222247574 
0.0013127803802 0.0013035108794 0.0012943864123 0.0012853901971 0.0012765183286 0.0012677635 0.0012591273208 0.0012506114629 0.001514532025 
0.0015020695701 0.0014896219446 0.0014772993753 0.0014651281605 0.0014531042174 0.0014412333143 0.0014295041632 0.001417825877 0.0014064599104 
0.0013952790416 0.0013842876628 0.0013735074649 0.0013629393304 0.001352594613 0.0013424627236 0.0013325388576 0.0013228207222 0.0013133081263 
0.0013039512597 0.0012947834054 0.0012857743542 0.0012769090471 0.0012681849235 0.0012595951215 0.0012511377392 0.0015197629596 0.0015071922582 
0.0014948271856 0.0014824675395 0.0014702111454 0.0014580894015 0.001446099133 0.001434247743 0.0014223892579 0.0014108493655 0.0013994840748 
0.0013883017612 0.0013773280239 0.0013665682221 0.0013560385946 0.0013457240619 0.0013356408556 0.001325791479 0.0013161510148 0.0013067179543 
0.0012974839116 0.0012884285879 0.0012795503385 0.0012708338839 0.0012622749512 0.0012538630805 0.0015274839719 0.0015149007044 0.0015025005631 
0.0014900844068 0.0014777488774 0.0014655231372 0.0014534095052 0.0014414110481 0.0014293906719 0.0014176783363 0.0014061295168 0.0013947568762 
0.0013835898178 0.0013726366062 0.0013619188266 0.001351427015 0.0013411693969 0.0013311569342 0.0013213872126 0.0013118524623 0.0013025163263 
0.0012934001305 0.0012844802109 0.0012757511273 0.001267195159 0.0012588077696 0.0015376291235 0.0015250198757 0.0015125800925 0.0015000940104 
0.0014876677718 0.0014753324518 0.0014630900143 0.0014509443248 0.0014387835812 0.0014268811751 0.001415152558 0.0014035942971 0.0013922384513 
0.0013810958976 0.0013701887612 0.0013595142179 0.0013490818941 0.0013389060005 0.001328981176 0.001319303984 0.0013098862779 0.0013006698051 
0.001291687678 0.0012829154165 0.0012743328514 0.0012659428179 0.0015500752572 0.0015374237797 0.0015248167093 0.0015123548944 0.0014998396558 
0.0014873781142 0.0014749985673 0.0014627079921 0.0014503878767 0.0014383366363 0.0014264153108 0.0014146793815 0.0014031432438 0.0013918198496 
0.0013807340276 0.0013698801318 0.0013592797863 0.0013489334007 0.0013388529219 0.0013290313199 0.0013194776468 0.0013101626853 0.0013010860629 
0.0012922430417 0.0012836153598 0.0012751885039 0.0015646050691 0.0015518863846 0.001539199231 0.0015266454152 0.0015140209955 0.0015014296643 
0.0014889123548 0.0014764719645 0.0014639937429 0.0014517824075 0.001439691858 0.0014277959766 0.001416092354 0.0014046003433 0.0013933461811 
0.0013823276364 0.001371562117 0.0013610547287 0.0013508196164 0.0013408487596 0.0013311437612 0.0013217113909 0.0013125246349 0.0013035781411 
0.0012948737503 0.0012863879288 0.0015809026499 0.0015680921765 0.0015553001066 0.0015426354636 0.0015298835329 0.0015171566864 0.0015044935858 
0.001491906702 0.0014792813076 0.001466914678 0.0014546903684 0.0014426251098 0.001430766578 0.0014191231441 0.0014077179631 0.0013965458675 
0.0013856320773 0.0013749737444 0.0013645871177 0.0013544684121 0.0013446212032 0.0013350519151 0.00132573665 0.0013166772611 0.0013078545341 
0.0012992807957 0.0015985202003 0.0015855888741 0.0015726709786 0.0015598709468 0.0015469768793 0.0015341210286 0.0015212999638 0.0015085646361 