# vtk DataFile Version 5.1
vtk output
ASCII
DATASET POLYDATA
POINTS 1735 double
9.375 -5.9749999046 0 9.375 -3.4749999046 0 7.4287567139 -5.9749999046 0 
7.4287567139 -5.9749999046 0 9.375 -3.4749999046 0 7.1936292648 -3.4749999046 0 
5.4825134277 -5.9749999046 0 7.1936292648 -3.4749999046 0 5.0122594833 -3.4749999046 0 
3.5362706184 -5.9749999046 0 5.0122594833 -3.4749999046 0 2.5740199089 -4.3083333969 0 
3.5362706184 -5.9749999046 0 5.4825134277 -5.9749999046 0 5.0122594833 -3.4749999046 0 
9.375 -0.97500002384 0 7.1936292648 -0.97500002384 0 9.375 -3.4749999046 0 
9.375 -3.4749999046 0 7.1936292648 -0.97500002384 0 7.1936292648 -3.4749999046 0 
7.1936292648 -3.4749999046 0 7.1936292648 -0.97500002384 0 5.0122594833 -0.97500002384 0 
5.0122594833 -3.4749999046 0 5.0122594833 -0.97500002384 0 2.830889225 -0.97500002384 0 
2.830889225 -3.4749999046 0 2.830889225 -0.97500002384 0 1.6117694378 -2.6416666508 0 
2.5740199089 -4.3083333969 0 2.830889225 -3.4749999046 0 1.6117694378 -2.6416666508 0 
2.5740199089 -4.3083333969 0 5.0122594833 -3.4749999046 0 2.830889225 -3.4749999046 0 
2.830889225 -3.4749999046 0 5.0122594833 -3.4749999046 0 2.830889225 -0.97500002384 0 
7.1936292648 -3.4749999046 0 5.0122594833 -0.97500002384 0 5.0122594833 -3.4749999046 0 
2.830889225 -0.97500002384 0 0.64951908588 -0.97500002384 0 1.6117694378 -2.6416666508 0 
5.4825134277 -5.9749999046 0 7.4287567139 -5.9749999046 0 7.1936292648 -3.4749999046 0 
3.5202790695 -3.9849240572 0 4.0122594833 -3.4749999046 0 4.0660003228 -3.7984092444 0 
2.2213293314 -1.8083333373 0 1.830889225 -0.97500002384 0 1.1495190571 -1.8410254442 0 
2.330889225 -1.2488686993 0 1.6926389733 -2.0612158224 0 1.7574202495 -1.5175550511 0 
1.2402041554 -0.97500002384 0 0.8995190715 -1.408012734 0 1.3363376811 -1.4011640156 0 
4.539129903 -3.6367045745 0 4.5122594833 -3.4749999046 0 4.2622594833 -3.5996271946 0 
4.7756946932 -3.5558522396 0 4.7622594833 -3.4749999046 0 0.89951908588 -0.97500002384 0 
2.830889225 -2.4749999046 0 3.6973442295 -1.9680168671 0 -1.4385644197 -2.6416666508 0 
-0.52499997616 -1.7250000238 0 -0.47631397843 -0.97500002384 0 -1.4385644197 -2.6416666508 0 
-1.1210217476 -3.4749999046 0 -0.52499997616 -1.7250000238 0 -1.4385644197 -2.6416666508 0 
-2.4008147717 -4.3083333969 0 -1.1210217476 -3.4749999046 0 -1.1210217476 -3.4749999046 0 
-2.4008147717 -4.3083333969 0 -0.52499997616 -3.8499999046 0 -0.52499997616 -1.7250000238 0 
-1.1210217476 -3.4749999046 0 -0.52499997616 -3.8499999046 0 -3.3630652428 -5.9749999046 0 
-1.9440326691 -5.9749999046 0 -2.4008147717 -4.3083333969 0 -2.4008147717 -4.3083333969 0 
-1.9440326691 -5.9749999046 0 -0.52499997616 -3.8499999046 0 -0.52499997616 -3.8499999046 0 
-1.9440326691 -5.9749999046 0 -0.52499997616 -5.9749999046 0 -0.52499997616 -1.7250000238 0 
0.52499997616 -1.7250000238 0 -0.47631397843 -0.97500002384 0 -0.47631397843 -0.97500002384 0 
0.52499997616 -1.7250000238 0 0.47631397843 -0.97500002384 0 0.47631397843 -0.97500002384 0 
0.52499997616 -1.7250000238 0 1.4385644197 -2.6416666508 0 1.4385644197 -2.6416666508 0 
0.52499997616 -1.7250000238 0 1.1210217476 -3.4749999046 0 2.4008147717 -4.3083333969 0 
1.1210217476 -3.4749999046 0 0.52499997616 -3.8499999046 0 1.9440326691 -5.9749999046 0 
0.52499997616 -3.8499999046 0 0.52499997616 -5.9749999046 0 1.9440326691 -5.9749999046 0 
2.4008147717 -4.3083333969 0 0.52499997616 -3.8499999046 0 1.9440326691 -5.9749999046 0 
3.3630652428 -5.9749999046 0 2.4008147717 -4.3083333969 0 0.52499997616 -1.7250000238 0 
0.52499997616 -3.8499999046 0 1.1210217476 -3.4749999046 0 2.4008147717 -4.3083333969 0 
1.4385644197 -2.6416666508 0 1.1210217476 -3.4749999046 0 -1.4293919975 -4.070977559 0 
-0.52499997616 -2.8499999046 0 1.4964227503 -4.0873557426 0 0.52499997616 -2.7250000238 0 
0.84739810738 -2.6716041887 0 -1.5628106672 -3.7626694702 0 -0.97631398452 -1.8410254241 0 
-1.0856107979 -2.2875145072 0 -1.1885644167 -2.2086539506 0 0.12481100514 -1.4252521507 0 
-0.076125007411 -1.274747897 0 0.32831584541 -1.3611874904 0 0.93856441366 -1.7756412505 0 
1.0856107979 -2.2875145072 0 1.1885644167 -2.2086539506 0 1.5628106672 -3.7626694702 0 
1.9818127194 -4.0355014335 0 1.9151033846 -4.189655478 0 -0.29786939736 -1.3631639114 0 
-0.84739810738 -2.6716041887 0 -0.52499997616 -2.2250000238 0 -0.68619904177 -2.1983021063 0 
0.5006569773 -1.3500000238 0 0.22443748437 -1.4998739604 0 -1.2620876088 -2.464590579 0 
-1.3135644182 -2.4251603007 0 -0.80530538702 -2.0062572655 0 -1.0824392006 -2.0248396874 0 
0.80530538702 -2.0062572655 0 1.0635644152 -1.9921476006 0 1.3135644182 -2.4251603007 0 
1.2620876088 -2.464590579 0 -1.2510644175 -2.3169071257 0 -1.1738492034 -2.3760525431 0 
0.48848547786 -1.1625000238 0 2.1913137455 -4.1719174152 0 2.1579590781 -4.2489944374 0 
1.7723116933 -3.8990854519 0 -0.52499997616 -2.5374999642 0 -0.60559950896 -1.9616510651 0 
-0.52499997616 -1.9750000238 0 0.32490549065 -1.5751260873 0 0.50880539566 -1.4755251041 0 
0.074156238481 -1.3873109287 0 0.023686021566 -0.97500002384 0 0.25 -1.083836174 0 
-0.72631398147 -1.408012724 0 -0.94545809245 -2.1468858863 0 -0.94439220421 -2.0077946567 0 
-1.0734070933 -2.1525972202 0 -0.66515268159 -1.8656286447 0 -0.85131398299 -1.624519074 0 
-0.73007278864 -1.7233310333 0 -0.82054284245 -1.8509178659 0 -0.91381398375 -1.7327722491 0 
-0.59507632887 -1.7953143343 0 -0.7027142434 -1.5659756072 0 -0.62701573991 -1.6601929555 0 
-0.50870313943 -1.4739498633 0 -0.62751218608 -1.4739960319 0 -0.60131397995 -1.1915063739 0 
-0.49250855893 -1.2244749435 0 -0.60518910268 -1.3336066386 0 -1.9151033846 -4.189655478 0 
-1.9818127194 -4.0355014335 0 0.68619904177 -2.1983021063 0 0.52499997616 -2.2250000238 0 
0.52499997616 -3.3499999046 0 -0.98420992748 -3.0733020467 0 -0.17575148665 -1.2001260873 0 
-0.5006569773 -1.3500000238 0 -0.25 -1.7250000238 0 0.024999976158 -1.7250000238 0 
-0.41143468676 -1.5440819676 0 -0.38709168789 -1.1690819676 0 -0.79862361637 -2.5283957397 0 
-0.87795359802 -2.0791521674 0 -1.1582590089 -2.3604094091 0 -0.68619904177 -2.1983021063 0 
-0.95982268198 -3.0016978222 0 -1.0940401289 -2.6918835778 0 -1.2990597479 -3.0077714055 0 
-1.0404222148 -3.2383488634 0 -1.2100407478 -3.241385655 0 -1.9385643642 -3.5076920866 0 
-1.5628106672 -3.7626694702 0 -1.2797930837 -3.0583332777 0 -1.9818127194 -4.0355014335 0 
-2.1508147994 -3.875320679 0 -1.6816401563 -3.5334274378 0 -1.3419162074 -3.6188346874 0 
-1.688564392 -3.0746793687 0 -1.4482305355 -3.323357938 0 -1.5635644059 -2.8581730097 0 
-1.8494153256 -3.7806734455 0 -2.9008148162 -5.174358775 0 -2.8630652428 -5.9749999046 0 
-2.1364928898 -5.2727679166 0 -2.2686538307 -4.7905506568 0 -2.6508147939 -4.741346086 0 
-2.5619185448 -5.559590589 0 -1.0803410492 -4.6816225911 0 -0.52499997616 -4.8499999046 0 
-1.388691596 -5.1433772182 0 -2.2083545509 -5.0105653849 0 -1.4964227503 -4.0873557426 0 
-1.0803410492 -4.6816225911 0 -1.376064419 -2.5334134757 0 -1.3503260143 -2.5531286149 0 
1.1738492034 -2.3760525431 0 1.2510644175 -2.3169071257 0 1.376064419 -2.5334134757 0 
1.3503260143 -2.5531286149 0 2.0516973716 -4.1572547169 0 2.2793869249 -4.2786639172 0 
2.2960642586 -4.2401254061 0 -0.58710777465 -2.1000000238 0 -0.56529974256 -1.8433255445 0 
-0.52499997616 -1.8500000238 0 -1.2469182229 -2.3914697162 0 -1.1702597441 -2.2913909424 0 
-0.64863885686 -1.3986672404 0 -0.50060584918 -1.3492124034 0 -0.66381398071 -1.2997595489 0 
-0.61887654151 -1.2896198 0 -0.63256398033 -1.2456329614 0 -0.55308722339 -1.2283730192 0 
-0.48441126868 -1.0997374837 0 -0.53881397919 -1.0832531989 0 -0.57006397957 -1.1373797864 0 
-0.50756397881 -1.0291266114 0 -0.48036262356 -1.0373687538 0 -0.55385219686 -1.2935090824 0 
-0.69506398109 -1.3538861365 0 -0.56364976308 -1.4083870046 0 -0.48845991381 -1.1621062136 0 
-0.52284293398 -1.1285584783 0 -0.53796687726 -1.1784716845 0 -0.78881398223 -1.516265899 0 
-0.7770141132 -1.5952473406 0 -0.78950709035 -1.6724694821 0 -0.71450437193 -1.6449817756 0 
-0.85579326584 -1.6941017428 0 -0.84448543445 -1.7739298773 0 -0.91080721269 -1.8066769931 0 
-0.90205103363 -1.9030151624 0 -0.71451411244 -1.4869941656 0 -1.0059387487 -2.0768727102 0 
-1.1355018087 -2.116746819 0 -1.130985755 -2.1806255854 0 -1.077923147 -2.0887184538 0 
-1.0293765926 -1.9329325557 0 -0.9683118453 -1.906916883 0 -1.0151305179 -2.0024289525 0 
0.64921557313 -2.4750000238 0 -1.7025799715 -4.0061760368 0 -2.1913137455 -4.1719174152 0 
-2.1579590781 -4.2489944374 0 0.52499997616 -1.9750000238 0 0.60559950896 -1.9616510651 0 
-0.39495708621 -1.2902471693 0 -0.08652919611 -1.394208031 0 -0.38749998808 -1.7250000238 0 
-0.32603273254 -1.0875630555 0 -0.48848547786 -1.1625000238 0 -0.28142158727 -1.1846040274 0 
-0.43170283316 -1.0720409957 0 -0.60559950896 -1.9616510651 0 -0.70147678709 -1.9020760956 0 
-1.0181063035 -2.2197807883 0 -2.1913137455 -4.1719174152 0 -2.2758147855 -4.0918270379 0 
-0.21535623003 -1.5363322823 0 -0.72816167847 -2.0519593362 0 -0.96411849178 -2.4137394051 0 
-0.74241132907 -2.363348923 0 -0.85469880483 -2.2424817725 0 -2.1355568396 -4.0284674269 0 
-1.4849221873 -3.047914671 0 -1.3495454196 -2.8752809004 0 -1.6260643989 -2.9664261892 0 
-1.5686149131 -3.199228806 0 -1.8135643781 -3.2911857277 0 -1.2004074156 -3.2666665912 0 
-1.3792229163 -2.9914053432 0 -1.3885601611 -3.1752438078 0 -1.4495932398 -2.7796367215 0 
0.074766267142 -1.1585005297 0 -1.8200670454 -3.6200413869 0 -2.0446895818 -3.6915063828 0 
-1.9955938401 -3.8423946733 0 -1.648599532 -3.3583899439 0 -1.8022393473 -3.4420617982 0 
-0.22631397843 -0.97500002384 0 -0.27621949292 -1.1248739604 0 -0.10131397843 -1.0998687526 0 
0.32490549065 -1.5751260873 0 0.27499997616 -1.7250000238 0 -0.76679857457 -2.4349531475 0 
-1.2984117143 -2.5010380299 0 -1.3688120838 -2.8247190281 0 -1.1315405761 -2.5271909321 0 
-1.267118989 -2.6723783652 0 -1.1828940511 -2.8586905265 0 0.72631398147 -1.408012724 0 
[...]
CELL_DATA 2043
FIELD FieldData 4
electrode_index 1 2043 int
0 0 0 0 0 0 0 0 0 
0 0 0 0 0 0 0 0 0 
0 0 0 0 0 0 0 0 0 
0 0 0 0 0 0 0 0 0 
0 0 0 0 0 1 1 1 1 
1 1 1 1 1 1 1 1 1 
1 1 1 1 1 1 1 1 1 
1 1 1 1 1 1 1 1 1 
1 1 1 1 1 1 1 1 1 
1 1 1 1 1 1 1 1 1 
1 1 1 1 1 1 1 1 1 
1 1 1 1 1 1 1 1 1 
1 1 1 1 1 1 1 1 1 
1 1 1 1 1 1 1 1 1 
1 1 1 1 1 1 1 1 1 
1 1 1 1 1 1 1 1 1 
1 1 1 1 1 1 1 1 1 
1 1 1 1 1 1 1 1 1 
1 1 1 1 1 1 1 1 1 
1 1 1 1 1 1 1 1 1 
1 1 1 1 1 1 1 1 1 
1 1 1 1 1 1 1 1 1 
1 1 1 1 1 1 1 1 1 
1 1 1 1 1 1 1 1 1 
1 1 1 1 1 1 1 1 1 
1 1 1 1 1 1 1 1 1 
1 1 1 1 1 1 1 1 1 
1 1 1 1 1 1 1 1 1 
1 1 1 1 1 1 1 1 1 
1 1 1 1 1 1 1 1 1 
1 1 1 1 1 1 1 1 1 
1 1 1 1 1 1 1 1 1 
1 1 1 1 1 1 1 1 1 
1 1 1 1 1 1 1 1 1 
1 1 1 1 1 1 1 1 1 
1 1 1 1 1 1 1 1 1 
1 1 1 1 1 1 1 1 1 
1 1 1 1 1 1 1 1 1 
1 1 1 1 1 1 1 1 1 
1 1 1 1 1 1 1 2 2 
2 2 2 2 2 2 2 2 2 
2 2 2 2 2 2 2 2 2 
2 2 2 2 2 2 2 2 2 
2 2 2 2 2 2 2 2 2 
2 2 2 2 2 2 2 2 2 
2 2 2 2 2 2 2 2 2 
2 2 2 2 2 2 2 2 2 
2 2 2 2 2 2 2 2 2 
2 2 2 2 2 2 2 2 2 
2 2 2 2 2 2 2 2 2 
2 2 2 2 2 2 2 2 2 
2 2 2 2 2 2 2 2 2 
2 2 2 2 2 2 2 2 2 
2 2 2 2 2 2 2 2 2 
2 2 2 2 2 2 2 2 2 
2 2 2 2 2 2 2 2 2 
2 2 2 2 2 2 2 2 2 
2 2 2 2 2 2 2 2 2 
2 2 2 2 2 2 2 2 2 
2 2 2 2 2 2 2 2 2 
2 2 2 2 2 2 2 2 2 
2 2 2 2 2 2 2 2 2 
2 2 2 2 2 2 2 2 2 
2 2 2 2 2 2 2 2 2 
2 2 2 2 2 2 2 2 2 
2 2 2 2 2 2 2 2 2 
2 2 2 2 2 2 2 2 2 
2 2 2 2 2 2 2 2 3 
3 3 3 3 3 3 3 3 3 
3 3 3 3 3 3 3 3 3 
3 3 3 3 3 3 3 3 3 
3 3 3 3 3 3 4 4 4 
4 4 4 4 4 4 4 4 4 
4 4 4 4 4 4 4 4 4 
4 4 4 4 4 4 4 4 4 
4 4 4 4 4 4 4 4 4 
4 4 4 4 4 4 4 4 4 
4 4 4 4 4 4 4 4 4 
4 4 4 4 4 4 4 4 4 
4 4 4 4 4 4 4 4 4 
4 4 4 4 4 4 4 4 4 
4 4 4 4 4 4 4 4 4 
4 4 4 4 4 4 4 4 4 
4 4 4 4 4 4 4 4 4 
4 4 4 4 4 4 4 4 4 
4 4 4 4 4 4 4 4 4 
4 4 4 4 4 4 4 4 4 
4 4 4 4 4 4 4 4 4 
4 4 4 4 4 4 4 4 4 
4 4 4 4 4 4 4 4 4 
4 4 4 4 4 4 4 4 4 
4 4 4 4 4 4 4 4 4 
4 4 4 4 4 4 4 4 4 
4 4 4 4 4 4 4 4 4 
4 4 4 4 4 4 4 4 4 
4 4 4 4 4 4 4 4 4 
4 4 4 4 4 4 4 4 4 
4 4 4 4 4 4 4 4 4 
4 4 4 4 4 4 4 4 4 
4 4 4 4 4 4 4 4 4 
4 4 4 4 4 4 4 4 4 
4 4 4 4 4 4 4 4 4 
4 4 4 4 4 4 4 4 4 
4 4 4 4 4 4 4 4 4 
4 4 4 4 4 4 4 4 4 
4 4 4 4 4 4 4 4 4 
4 4 4 4 4 4 4 4 4 
4 4 4 4 4 4 4 4 4 
4 4 4 4 4 4 4 4 4 
4 4 4 4 4 4 4 4 4 
4 4 4 4 4 4 4 4 4 
4 4 4 4 4 4 4 4 4 
4 4 4 4 4 4 4 4 4 
4 4 4 4 4 4 4 4 4 
4 4 4 4 4 4 4 4 4 
4 4 4 4 4 4 4 4 4 
4 4 4 4 4 4 4 4 4 
4 4 4 4 4 4 4 4 4 
4 4 4 4 4 4 4 4 4 
4 4 4 4 4 4 4 4 4 
4 4 4 4 4 4 4 4 4 
4 4 4 4 4 4 4 4 4 
4 4 4 4 4 4 4 4 4 
4 4 4 4 4 4 4 4 4 
4 4 4 4 4 4 4 4 4 
4 4 4 4 4 4 4 4 4 
4 4 4 4 4 4 4 4 4 
4 4 4 4 4 4 4 4 4 
4 4 4 4 4 4 4 4 4 
4 4 4 4 4 4 4 4 4 
4 4 4 4 4 4 4 4 4 
4 4 4 4 4 4 4 4 4 
4 4 4 4 4 4 4 4 4 
4 4 4 4 4 4 4 4 4 
4 4 4 4 4 4 4 4 4 
4 4 4 4 4 4 4 4 4 
4 4 4 4 4 4 4 4 4 
4 4 4 4 4 4 4 4 4 
4 4 4 4 4 4 4 4 4 
4 4 4 4 4 4 4 4 4 
4 4 4 4 4 4 4 4 4 
4 4 4 4 4 4 4 4 4 
4 4 4 4 4 4 4 4 4 
4 4 4 4 4 4 4 4 5 
5 5 5 5 5 5 5 5 5 
5 5 5 5 5 5 5 5 5 
5 5 5 5 5 5 5 5 5 
5 5 5 5 5 5 5 5 5 
5 5 5 5 5 5 5 5 5 
5 5 5 5 5 5 5 5 5 
5 5 5 5 5 5 5 5 5 
5 5 5 5 5 5 5 5 5 
5 5 5 5 5 5 5 5 5 
5 5 5 5 5 5 5 5 5 
5 5 5 5 5 5 5 5 5 
5 5 5 5 5 5 5 5 5 
5 5 5 5 5 5 5 5 5 
5 5 5 5 5 5 5 5 5 
5 5 5 5 5 5 5 5 5 
5 5 5 5 5 5 5 5 5 
5 5 5 5 5 5 5 5 5 
5 5 5 5 5 5 5 5 5 
5 5 5 5 5 5 5 5 5 
5 5 5 5 5 5 5 5 5 
5 5 5 5 5 5 5 5 5 
5 5 5 5 5 5 5 5 5 
5 5 5 5 5 5 5 5 5 
5 5 5 5 5 5 5 5 5 
5 5 5 5 5 5 5 5 5 
5 5 5 5 5 5 5 5 5 
5 5 5 5 5 5 5 5 5 
5 5 5 5 5 5 5 5 5 
5 5 5 5 5 5 5 5 5 
5 5 5 5 5 5 5 5 5 
5 5 5 5 5 5 5 5 5 
5 5 5 5 5 5 5 5 5 
5 5 5 5 5 5 5 5 5 
5 5 5 5 5 5 5 5 5 
5 5 5 5 5 5 5 5 5 
5 5 5 5 5 5 5 5 5 
5 5 5 5 5 5 5 5 5 
5 5 5 5 5 5 5 5 5 
5 5 5 5 5 5 5 5 5 
5 5 5 5 5 5 5 5 5 
5 5 5 5 5 5 5 5 5 
5 5 5 5 5 5 5 5 5 
5 5 5 5 5 5 5 5 5 
5 5 5 5 5 5 5 5 5 
5 5 5 5 5 5 5 5 5 
5 5 5 5 5 5 5 5 5 
5 5 5 5 5 5 5 5 5 
5 5 5 5 5 5 5 5 5 
5 5 5 5 5 5 5 5 5 
5 5 5 5 5 5 5 5 5 
5 5 5 5 5 5 5 5 5 
5 5 5 5 5 5 5 5 5 
5 5 5 5 5 5 5 5 5 
5 5 5 5 5 5 5 5 5 
5 5 5 5 5 5 5 5 5 
5 5 5 5 5 5 5 5 5 
5 5 5 5 5 5 5 5 5 
5 5 5 5 5 5 5 5 5 
5 5 5 5 5 5 5 5 5 
5 5 5 5 5 5 5 5 5 
5 5 5 5 5 5 5 5 5 
5 5 5 5 5 5 5 5 5 
5 5 5 5 5 5 5 5 5 
5 5 5 5 5 5 5 5 5 
5 5 5 5 5 5 5 5 5 
5 5 5 5 5 5 5 5 5 
5 5 5 5 5 5 5 5 5 
5 5 5 5 5 5 5 5 5 
5 5 5 5 5 5 5 5 5 
5 5 5 5 5 5 5 5 5 
5 5 5 5 5 5 5 5 5 
5 5 5 5 5 5 5 5 5 
5 5 5 5 5 5 5 5 5 
5 5 5 5 5 5 5 5 5 
5 5 5 5 5 5 5 5 5 
5 5 5 5 5 5 5 5 5 
5 5 5 5 5 5 5 5 5 
5 5 5 5 5 5 5 5 5 
5 5 5 5 5 5 5 5 5 
5 5 5 5 5 5 5 5 5 
5 5 5 5 5 5 5 5 5 
5 5 5 5 5 5 5 5 5 
5 5 5 5 5 5 5 5 5 

area 1 2043 double
2.4328041077 2.726713419 2.7267122269 2.4328039904 2.4328035116 2.7267132889 2.7267132889 2.7267120968 2.7267126929 
0.91433976775 0.6149955464 0.30120461391 1.083068704 2.7267120968 0.16653054944 2.4328041077 0.35273775748 0.031156822498 
0.093257406404 0.13552307886 0.14569918231 0.12486364802 0.11850579727 0.13693433775 0.14321413361 0.14569918231 0.10348099662 
0.15476860312 0.093407376888 0.12586435356 0.054126588774 0.095430094754 0.010106541867 0.021887477528 0.037077379877 0.031156822498 
0.010106541867 0.020213083733 1.6436439889 0.073760482647 0.60955989361 0.0027242336217 0.056733581915 0.0094519751358 0.12643819682 
0.14900544286 0.11107488444 0.077574020955 0.2664810518 0.0061685843121 0.010862147288 0.083209173474 0.24156605043 0.081270290342 
0.91767234611 1.6678581153 1.182527032 0.14900544286 0.66555651447 0.022500567567 0.11480248783 0.25287639365 0.031053899244 
0.10074939679 0.071365660382 0.0026859519799 0.0025545003484 0.0096720588726 0.015608591093 0.037468484147 0.024631142145 0.021879285048 
0.028839213849 0.016073840962 0.0040184602405 0.020697824942 0.0056251418918 0.011957029726 0.012438115287 0.018362600637 0.0327435578 
0.020149883201 0.0077634748109 0.010875310368 0.016267419372 0.0035763004877 0.0020092301202 0.0026083527845 0.0085964163179 0.038296118662 
0.05106149155 0.008036920481 0.0040184602405 0.0025545003484 0.0033747318442 0.0079870271815 0.016225065236 0.0025872281178 0.038539240038 
0.053524245287 0.0054520080212 0.050374698395 0.0050374708003 0.023745705088 0.019501806472 0.017984676124 0.027224354314 0.029069212514 
0.029991817666 0.0067276318543 0.0044132558016 0.0046517705781 0.0058573055283 0.0019023157409 0.0024984879604 0.0037131534672 0.0029450155724 
0.0027625152635 0.0041542615856 0.010578311696 0.0031068567248 0.0072682550822 0.0027680578447 0.011060950954 0.0079709017641 0.013333612042 
0.0031225844008 0.0070240273155 0.0035862604074 0.0019561215326 0.0011007293701 0.0038959987693 0.0011117704124 0.031948108726 0.010348912471 
0.020149883201 0.021808032085 0.019123744796 0.22231919136 0.076956640655 0.0092676435898 0.029232975694 0.019091447744 0.019123744796 
0.019091447744 0.0047728619361 0.0095457238722 0.030463886954 0.010862830283 0.013080687759 0.015477078605 0.0159138345 0.039895638452 
0.014207232168 0.015301935588 0.019947819226 0.019947819226 0.04565025687 0.02101277636 0.012064078964 0.028065146085 0.012543437807 
0.014796046226 0.01685229759 0.03386505433 0.040280437616 0.015970413084 0.012618729587 0.012518775934 0.007429223628 0.035325604528 
0.0195729993 0.074291539525 0.036084389682 0.094471268803 0.035145540925 0.069478260858 0.16134351782 0.19607355556 0.27767053652 
0.092271473716 0.13076532765 0.098644807114 0.16901094285 0.0020092301202 0.0040184602405 0.0060276903607 0.0060276903607 0.0020092301202 
0.0020092301202 0.0094475411586 0.0079870271815 0.0025872281178 0.0051744562356 0.0077634748109 0.0092458671588 0.0025187354002 0.0025187354002 
0.0021810809126 0.0027560689919 0.0035763004877 0.0046119638355 0.0024973422823 0.0021154430783 0.0019714368965 0.003098389733 0.0018660878415 
0.0021192025104 0.0010577215391 0.0018812162191 0.0010577215391 0.0017298834893 0.001403490519 0.001482007978 0.0011401240872 0.0015107142246 
0.00086494174463 0.00086494174463 0.0035464300569 0.0036923918787 0.0024830872401 0.0029758814777 0.0011401240872 0.0011117704124 0.0015107142246 
0.001482007978 0.0031068567248 0.0034141786305 0.0031068567248 0.0022577359886 0.0027242336217 0.0035457416807 0.0035457416807 0.0019320101297 
0.0025344826192 0.0024999785632 0.0050099334773 0.0024722695367 0.0033057817409 0.0021986218299 0.0072541757145 0.0035124569211 0.0031068567248 
0.0019023157409 0.0042434775322 0.0019023157409 0.0026384676537 0.0019023157409 0.002325885289 0.002325885289 0.0021159131597 0.0033887854601 
0.0023072005601 0.0026083527845 0.0035037889403 0.036983468635 0.031053899244 0.037790164634 0.031948108726 0.010348912471 0.020697824942 
0.010074941601 0.010074941601 0.0067542791201 0.009561872398 0.017017944864 0.033223660682 0.004780936199 0.012438115287 0.0064628131204 
0.004780936199 0.004780936199 0.004780936199 0.0047728619361 0.0137455862 0.01153102367 0.017388028195 0.016227666523 0.0082936324212 
0.014153154275 0.017297019004 0.025941812208 0.010862830283 0.0079800743653 0.014274194376 0.015234357977 0.016879748597 0.012663454712 
0.011223393348 0.011223393348 0.010186061352 0.014286966765 0.010655723944 0.012249787094 0.010186061352 0.014544467928 0.0067662437343 
0.020769251425 0.012618729587 0.016661655987 0.012680277451 0.0094519751358 0.007429223628 0.0093790315227 0.014657944281 0.017227289256 
0.022754755293 0.011546516728 0.012136984398 0.016992102854 0.014539323521 0.016957303824 0.015815648124 0.011546516728 0.012064078964 
0.018734242073 0.012482940112 0.014657944281 0.015608591093 0.018734242073 0.018734242073 0.015831573262 0.037781023796 0.013886680591 
0.013886680591 0.013566129014 0.014620639934 0.015888771586 0.024934108972 0.024958306768 0.070644731269 0.016923287336 0.022222711264 
0.035145540925 0.0195729993 0.060238495451 0.074291539525 0.042257840139 0.071959421655 0.040204637692 0.066720094517 0.036084389682 
0.09544367313 0.11115959568 0.36839414745 0.39910294488 0.13261278001 0.1249171874 0.084702801902 0.18885154363 0.1367717865 
0.15026885648 0.13083387457 0.10653895709 0.084505471426 0.084505471426 0.28462614986 0.59004989011 0.26087359189 0.26087359189 
0.17716935699 0.17857952438 0.12597656 0.025848378368 0.083984372497 0.17716935699 0.17857952438 0.17857952438 0.26087359189 
0.26087359189 0.039574365934 0.062988279999 0.18749999627 0.26087359189 0.035120639795 0.26369392668 0.14956752602 0.019048482601 
0.0073172430069 0.035120639795 0.26369392668 0.14956752602 0.019048482601 0.0073172430069 0.029268972028 0.056153564892 0.029268972028 
0.073209100671 0.029268972028 0.096464824627 0.035120639795 0.073209100671 0.030428931117 0.051970401345 0.019048482601 0.0073172430069 
0.024185699458 0.024185699458 0.026586134249 0.029268972028 0.073209100671 0.029268972028 0.056153564892 0.020440978854 0.073209100671 
0.073209100671 0.020440978854 0.035120639795 0.26369392668 0.14956752602 0.019048482601 0.0073172430069 0.035120639795 0.26369392668 
0.14956752602 0.019048482601 0.0073172430069 0.050608899972 0.029268972028 0.039907015375 0.097802782927 0.035311972695 0.035120639795 
0.030624281686 0.13184696334 0.14956752602 0.019048482601 0.0051102447135 0.035120639795 0.26369392668 0.14956752602 0.019048482601 
0.0073172430069 0.10470589309 0.10039782031 0.15157295849 0.074191214545 0.050264510801 0.037966517408 0.051192796989 0.037095607272 
0.03669011043 0.089289762191 0.029933444117 0.037095607272 0.0047621206502 0.064288628777 0.0051102447135 0.0051102447135 0.064288628777 
0.0047621206502 0.0047621206502 0.03636282528 0.0051102447135 0.0051102447135 0.064288628777 0.0047621206502 0.0023810603251 0.064288628777 
0.0051102447135 0.0073172430069 0.064288628777 0.0047621206502 0.0047621206502 0.064288628777 0.0051102447135 0.020440978854 0.048216471583 
0.048216471583 0.048216471583 0.048216471583 0.048216471583 0.048216471583 0.048216471583 0.019048482601 0.070056885195 0.26087359189 
0.020440978854 0.019048482601 0.200760323 0.020440978854 0.019048482601 0.0095242413003 0.020440978854 0.10470589309 0.032454007115 
0.020440978854 0.019048482601 0.070056885195 0.26087359189 0.029268972028 0.019048482601 0.200760323 0.200760323 0.024185699458 
0.029268972028 0.019048482601 0.019048482601 0.020440978854 0.020440978854 0.019048482601 0.076160678229 0.086104294542 0.12239646518 
0.15157295849 0.096464824627 0.15157295849 0.076160678229 0.086104294542 0.12239646518 0.15157295849 0.12239646518 0.15157295849 
0.014634486014 0.029268972028 0.049101980949 0.0088279931737 0.0073172430069 0.0088279931737 0.0073172430069 0.0023810603251 0.0023810603251 
0.0073172430069 0.0088279931737 0.0073172430069 0.0088279931737 0.0023810603251 0.0023810603251 0.0023810603251 0.0023810603251 0.0073172430069 
0.0088279931737 0.0023810603251 0.0023810603251 0.0023810603251 0.0047621206502 0.0073172430069 0.0088279931737 0.0088279931737 0.0073172430069 
0.0023810603251 0.0023810603251 0.0023810603251 0.0023810603251 0.035311972695 0.029268972028 0.029268972028 0.035311972695 0.0095242413003 
0.0095242413003 0.029268972028 0.035311972695 0.0095242413003 0.0095242413003 0.029268972028 0.035311972695 0.0095242413003 0.0095242413003 
0.0095242413003 0.019048482601 0.029268972028 0.035311972695 0.029268972028 0.035311972695 0.0095242413003 0.0095242413003 0.035311972695 
0.029268972028 0.0095242413003 0.0095242413003 0.035311972695 0.029268972028 0.0095242413003 0.0095242413003 0.0095242413003 0.0095242413003 
0.0095242413003 0.0095242413003 0.049608523002 0.025040315592 0.041678270348 0.05896733095 0.07319431559 0.014634486014 0.024185699458 
0.025040315592 0.046874999069 0.047370568519 0.043794757325 0.029894902032 0.042525897439 0.050459142592 0.034283732543 0.021993449545 
0.031494139999 0.024143033129 0.074096338115 0.053644152511 0.051572168684 0.029979983476 0.029216517135 0.037095607272 0.040749352779 
0.032065311695 0.048296543442 0.03698384482 0.082863498497 0.05952650931 0.070867464998 0.20522055895 0.074191214545 0.17608553429 
0.17608553429 0.17608553429 0.03281249851 0.085895384578 0.1517799162 0.085895384578 0.1517799162 0.085895384578 0.1517799162 
0.085895384578 0.089451806379 0.058656923133 0.05871028548 0.042947692289 0.042947692289 0.042947692289 0.17890361276 0.042947692289 
0.042947692289 0.17890361276 0.042947692289 0.042947692289 0.17890361276 0.042947692289 0.03281249851 0.090190149711 0.043685609264 
0.090190149711 0.07242504864 0.090190149711 0.043685609264 0.12098503296 0.043733900826 0.26087359189 0.26087359189 0.17857952438 
0.17716935699 0.12597656 0.013991062406 0.053716127173 0.074838539519 0.11215958408 0.12597656 0.26087359189 0.26087359189 
0.019965298489 0.0032690007803 0.062551992871 0.093749998137 2.9296875 2.9296875 2.9296873603 2.9296873603 2.9296875 
2.9296875 2.9296873603 2.9296873603 2.9296875 2.9296875 1.2198345762 2.9296873603 2.9296875 2.9296875 
0.089100549188 1.2198345762 2.9296875 2.9296875 0.089100549188 0.14216932201 2.9296875 2.9296875 0.41992185498 
1.2198345762 2.9296875 2.9296875 1.2198345762 1.2198345762 2.9296875 2.9296875 1.2198345762 2.9296873603 
0.035120639795 0.26369392668 0.14956752602 0.019048482601 0.0073172430069 0.035120639795 0.26369392668 0.14956752602 0.019048482601 
0.0073172430069 0.029268972028 0.073209100671 0.029268972028 0.056153564892 0.029268972028 0.096464824627 0.01526815795 0.073209100671 
0.013270727169 0.0078934722525 0.027084561198 0.0051102447135 0.010483343806 0.01337247405 0.023567403949 0.029268972028 0.056153564892 
0.029268972028 0.073209100671 0.020440978854 0.056153564892 0.097802782927 0.020440978854 0.035120639795 0.26369392668 0.14956752602 
0.019048482601 0.0073172430069 0.035120639795 0.26369392668 0.14956752602 0.019048482601 0.0073172430069 0.050226632959 0.020440978854 
0.01157159237 0.097802782927 0.0041806785111 0.014086600508 0.0027423703105 0.027068422459 0.021272347992 0.0099683144479 0.0073172430069 
0.035120639795 0.051809703271 0.040996128911 0.027084561198 0.0051102447135 0.10470589309 0.10039782031 0.15157295849 0.074191214545 
0.051034956261 0.029216517135 0.051192796989 0.018547803636 0.0058302076441 0.015204906306 0.0027068649931 0.0029290601605 0.17098528656 
0.027684257896 0.10986327252 0.071248002849 0.13265576681 0.048493879477 0.10425053428 0.027661182936 0.1122053092 0.034489669332 
0.10425573546 0.093833398076 0.15601903595 0.10233680157 0.13205163937 0.10986327252 0.13294115423 0.11335616196 0.056678080978 
0.106865799 0.12556127641 0.03783410427 0.049290044495 0.027684257896 0.17098528656 0.10986327252 0.071248002849 0.13265576681 
0.048493879477 0.10425053428 0.027661182936 0.1122053092 0.034489669332 0.10425573546 0.093833398076 0.15601903595 0.10233680157 
0.13661919412 0.13294115423 0.10986327252 0.070956812884 0.056678080978 0.106865799 0.052494040928 0.03783410427 0.049290044495 
0.17098528656 0.027684257896 0.10986327252 0.065719895097 0.13265576681 0.045240009226 0.10425053428 0.027364913353 0.1122053092 
0.032932633802 0.086605819783 0.10986327252 0.15601903595 0.10233680157 0.13205163937 0.13294115423 0.091677518248 0.11335616196 
0.056678080978 0.106865799 0.12556127641 0.05901163848 0.092230376794 0.013656972791 0.022911880449 0.013656972791 0.022911880449 
0.013656972791 0.022911880449 0.013656972791 0.04435086327 0.013656972791 0.013656972791 0.0051102447135 0.04435086327 0.04435086327 
0.064288628777 0.0047621206502 0.0047621206502 0.064288628777 0.0051102447135 0.0073172430069 0.012132254687 0.0047621206502 0.0047621206502 
0.064288628777 0.0051102447135 0.0051102447135 0.064288628777 0.0023810603251 0.0022069982934 0.12239646518 0.0088279931737 0.0073172430069 
0.039952682889 0.0047621206502 0.0036586215035 0.048216471583 0.048216471583 0.017492297172 0.048216471583 0.048216471583 0.0091602292184 
0.0051102447135 0.069055274938 0.016072157194 0.022911880449 0.022911880449 0.022911880449 0.078439108673 0.078439108673 0.078439108673 
0.1371649373 0.069055274938 0.1371649373 0.07099828803 0.1424849794 0.034512744291 0.061842366476 0.034512744291 0.061842366476 
0.034512744291 0.061842366476 0.084191656198 0.097468487319 0.084191656198 0.097468487319 0.046168398863 0.041483128761 0.019048482601 
0.020440978854 0.200760323 0.010613906554 0.020440978854 0.019048482601 0.070056885195 0.26087359189 0.020440978854 0.0095242413003 
0.020440978854 0.019048482601 0.070056885195 0.046927601252 0.020440978854 0.019048482601 0.074136807845 0.03597133521 0.029268972028 
0.019048482601 0.070056885195 0.098793526 0.10470589309 0.018983258704 0.029268972028 0.019048482601 0.029268972028 0.019048482601 
0.0032085449316 0.0036586215035 0.0021269805098 0.0038652350615 0.0073172430069 0.0047621206502 0.0020792411631 0.0051102447135 0.0054879322552 
0.0052322009355 0.0041086980754 0.0040075163121 0.0022703710482 0.0067074727563 0.0042973475051 0.0027439661276 0.0063970362519 0.0057244879614 
0.002732122919 0.0026219537884 0.0066665246301 0.0081871591684 0.0030236684239 0.0027819379431 0.0031942225461 0.0017028390367 0.0032595744402 
0.011649760549 0.0088563170738 0.024488135507 0.0023045315741 0.0024226340975 0.0019445828397 0.013038727934 0.0019915734885 0.002838945996 
0.020554547207 0.0023184754545 0.0046369509091 0.0067872520525 0.003542556811 0.004514909273 0.004281632203 0.003982674381 0.003597165643 
0.0027447055173 0.012583438811 0.0029684881972 0.0099794770415 0.0092854816679 0.010601147982 0.030737666174 0.016987142807 0.010474535716 
0.027136800485 0.03696498493 0.014274144234 0.015694413376 0.015504147276 0.018409556627 0.014881627327 0.0070018391606 0.017649142012 
0.15157295849 0.076160678229 0.086104294542 0.043713512477 0.028465830575 0.12239646518 0.15157295849 0.076160678229 0.086104294542 
0.096464824627 0.051192796989 0.039952682889 0.0070018391606 0.027097896649 0.021276672979 0.015613788081 0.013230476674 0.01176286931 
0.0091414122063 0.010829423449 0.013197092265 0.016039095023 0.0097285072303 0.01175689946 0.009023942364 0.016304599493 0.025278319699 
0.017834989868 0.034197391489 0.10261027948 0.024933031628 0.60991728812 0.10261027948 0.0073172430069 0.0088279931737 0.0023810603251 
0.0023810603251 0.0023810603251 0.0023810603251 0.0073172430069 0.0088279931737 0.0088279931737 0.0073172430069 0.0023810603251 0.0023810603251 