# vtk DataFile Version 5.1
vtk output
ASCII
DATASET STRUCTURED_POINTS
DIMENSIONS 20 20 20
SPACING 0.1 0.1 0.1
ORIGIN -0.95 -0.95 0.55
POINT_DATA 8000
FIELD FieldData 1
potential 1 8000 double
0.28123145348 0.25503997698 0.2270473782 0.19853535548 0.17107538566 0.14607486764 0.12439021794 0.10623692193 0.091360569443 
0.07928116321 0.069477778514 0.061482277931 0.054910287338 0.049457830846 0.044886304478 0.041007100749 0.037672981261 0.03477284571 
0.032226198899 0.02997493832 0.24863266008 0.22670006405 0.20327699071 0.17933425261 0.15608577408 0.13466208145 0.11580853032 
0.099784289033 0.086462267802 0.075505391005 0.066513786041 0.059111114963 0.052976981853 0.047852319161 0.043529733616 0.039844267619 
0.036665895537 0.033895692837 0.031459944466 0.029303714298 0.21565847871 0.19766329511 0.17854621045 0.15901412217 0.13994658996 
0.12218208635 0.10631034817 0.092586613235 0.080977648646 0.071274586378 0.063197195568 0.056464312591 0.050825593446 0.046071507525 
0.042030381936 0.038563835439 0.035561187279 0.032936391965 0.030623392102 0.028571617463 0.1850043548 0.17043996406 0.15508804079 
0.13944830941 0.12413032477 0.10972097877 0.096656593391 0.085158638739 0.075250156721 0.066818390986 0.059684415209 0.053651781601 
0.048536274431 0.044176946493 0.04043798236 0.037207126467 0.034393480451 0.03192398561 0.029741037889 0.027799116132 0.15822487149 
0.14650749087 0.13426289654 0.12183815818 0.1096439274 0.098078763553 0.087451668379 0.077940031791 0.069592027375 0.062358385474 
0.056133168191 0.050788364161 0.046195234668 0.042235456969 0.03880558943 0.035817979316 0.033199523798 0.030889899842 0.028840106725 
0.027010168569 0.13575384342 0.1263190614 0.11654126102 0.10665929662 0.096948362175 0.087674970755 0.079053711629 0.071220105074 
0.064227693045 0.05806349733 0.052670677506 0.047969935442 0.043875263187 0.040303303359 0.037177905837 0.034432310783 0.032009025968 
0.029859425266 0.027942648551 0.026224569676 0.1173061185 0.10966419239 0.10180215004 0.093885422646 0.086098780933 0.078621034356 
0.071600246221 0.065137160203 0.05928145199 0.054038265051 0.049380760417 0.04526220114 0.041627723623 0.038420307962 0.035585769017 
0.033074116827 0.030841163798 0.028848226347 0.027062014242 0.02545377968 0.10228358716 0.096037075753 0.089650754126 0.083239964873 
0.076930225212 0.070842903761 0.065080757136 0.059717751496 0.054796207057 0.050328804677 0.046305729432 0.042701379702 0.039481701984 
0.03660931085 0.034046215878 0.031755842246 0.029704686624 0.027862504017 0.026202412069 0.024700503022 0.090028888163 0.0848690717 
0.079620789921 0.074365878328 0.069191101646 0.064180084867 0.059404947577 0.054919761833 0.050759083841 0.046937813865 0.043455144759 
0.040298157876 0.037447055498 0.034877576688 0.032563815175 0.030479470939 0.028599358785 0.026900149192 0.025360452972 0.023960458218 
0.079946525915 0.075638744301 0.071275132289 0.066915213762 0.062620075624 0.058448100782 0.054450483023 0.050667460161 0.047126302534 
0.043841537965 0.040816670181 0.038046367306 0.035519737852 0.033221640263 0.031134680099 0.029240111327 0.027519389248 0.025954575593 
0.024528731865 0.023225600955 0.071549904715 0.067917680638 0.064251051896 0.060593083282 0.056988171673 0.053477576144 0.050098577899 
0.0468811833 0.043846789373 0.041008313313 0.038371114895 0.035934194839 0.033692145894 0.031635793103 0.029753790308 0.028032986063 
0.026459755558 0.025020427915 0.023701542892 0.02249007145 0.064473585816 0.061384213732 0.058273586494 0.05517416622 0.052118157683 
0.049135890945 0.046254642538 0.04349684221 0.040879422967 0.038413635942 0.036105271514 0.033955613095 0.031962394255 0.030120615829 
0.028422927574 0.026860173926 0.02542246154 0.024099578336 0.02288085086 0.021755737837 0.058458152983 0.055809391853 0.053147828465 
0.05049814397 0.047884172111 0.045328528275 0.042851579629 0.040470174194 0.038197882581 0.036044427571 0.034015215804 0.032112743812 
0.030336695778 0.028684424318 0.0271514015 0.025731474882 0.024417549328 0.023201899858 0.022076285141 0.021032239761 0.053317401135 
0.051028672455 0.048732726471 0.046448331497 0.044193884362 0.041985998959 0.039839967147 0.037768902656 0.035783732609 0.033892496727 
0.032100424801 0.030410397383 0.02882309404 0.027337485085 0.025950918905 0.024659254741 0.02345758011 0.02234007588 0.021300500757 
0.020332096681 0.048906847762 0.046913807003 0.044917386284 0.042932164554 0.040972127225 0.039049644696 0.037176464206 0.035362832901 
0.033617470627 0.031947322409 0.030356874281 0.028849199236 0.027425603632 0.026085973762 0.024829061158 0.023652151786 0.022551877672 
0.021523910468 0.020563469387 0.019665345598 0.045105095981 0.043356390973 0.041607071481 0.039868572067 0.03815155084 0.03646526936 
0.034818722151 0.033219851459 0.031675995277 0.030192705321 0.028774156012 0.027423194173 0.026141442049 0.024929570615 0.02378718037 
0.022712669769 0.021703709738 0.020757092456 0.019869273229 0.019036109681 0.041806698558 0.040261243377 0.038717260831 0.037183909911 
0.035669063112 0.034179794213 0.032722865257 0.03130478553 0.029931215649 0.028607011217 0.02733559323 0.026119666087 0.02496109381 
0.02386109141 0.022819913088 0.021836705216 0.020909852009 0.020037034619 0.019215577145 0.018442159464 0.038916812969 0.037542076095 
0.036170594974 0.034809250359 0.03346425191 0.032140851198 0.030844314526 0.02957960927 0.028351457478 0.027163712803 0.026019159645 
0.024920316874 0.023869239109 0.022867576216 0.021916151938 0.021014509154 0.020161514124 0.019355529903 0.018594501821 0.017875867409 
0.036351866291 0.035122347216 0.033897333225 0.032682032866 0.031481148379 0.030298934489 0.029139313165 0.028006387362 0.026903779896 
0.025834288812 0.024800238578 0.023803767437 0.022847302646 0.021932747474 0.021061306427 0.020232850782 0.01944654527 0.01870116539 
0.017995205537 0.017326633863 0.034044594477 0.032940446942 0.031841137882 0.03075107443 0.029673966478 0.028612977754 0.027571600202 
0.026552969357 0.025559771524 0.024593869019 0.023656919498 0.02275093852 0.021878463647 0.021041701824 0.020242102401 0.019479771159 
0.018753968364 0.018063740284 0.017408061838 0.016785516354 0.26253514359 0.23971898466 0.21593947304 0.19206355738 0.16906385013 
0.14780273038 0.12885303311 0.11243993661 0.098498572733 0.086786658981 0.076989129773 0.068787778401 0.061896238793 0.056070798822 
0.051110554089 0.046851355437 0.043161353411 0.03993650588 0.03709662963 0.034579566927 0.23705466265 0.21744935375 0.19699477928 
0.17637887458 0.15638792115 0.13774263949 0.12095092948 0.10624690428 0.093623166744 0.082913001901 0.073873940561 0.0662487409 
0.059797531847 0.054312331586 0.04961789977 0.045569654839 0.042050248548 0.038966666497 0.036245343139 0.033829187057 0.21095428121 
0.19438822806 0.17713822034 0.15973008367 0.14276829747 0.12681891904 0.11230040201 0.099431566879 0.088244301125 0.078638022015 
0.070440677557 0.063456683753 0.057496536526 0.052390249325 0.04799160378 0.044177961535 0.040847972218 0.037920320238 0.035329461207 
0.033023523131 0.18594132365 0.17211201402 0.15776805067 0.14330058042 0.12915649688 0.11575928334 0.10343554851 0.092374054926 
0.082628072867 0.074147144783 0.066819224506 0.060504530806 0.055060983835 0.050355927184 0.046271944884 0.042708252518 0.039580607967 
0.036818978919 0.034366640976 0.032177422587 0.16317775229 0.15171211701 0.13987789744 0.12796075247 0.11628208787 0.10514980621 
0.0948085982 0.085412758543 0.077022028602 0.069620330066 0.063140248718 0.057488349551 0.052562870944 0.048264362446 0.044501821941 
0.041195428282 0.038276319163 0.035686259057 0.033376780367 0.031307702945 0.14321021233 0.13372180071 0.12397830882 0.11418637243 
0.10457430082 0.095361447604 0.086727689041 0.078794105996 0.071618291584 0.065204029526 0.059515067744 0.05449254447 0.05006643066 
0.046165143194 0.042720440342 0.039670523734 0.036960541001 0.034543039773 0.032377443054 0.03042947303 0.12610005023 0.11823048333 
0.11018844313 0.10212299985 0.09419587657 0.086562627426 0.079353985916 0.072662714463 0.066539941854 0.060998987001 0.056024355456 
0.051580469878 0.047621432446 0.044097250543 0.040958299904 0.038157539361 0.035652407039 0.033404869478 0.031381476049 0.029553457103 
0.11161946032 0.1050590939 0.098384164041 0.091702537569 0.085129019634 0.078774372005 0.072733491451 0.067076620788 0.061847028701 
0.057061816835 0.052717029058 0.048793154609 0.045261079713 0.04208720829 0.039235993235 0.036672560754 0.034364323815 0.032281198775 
0.030396145042 0.028685152215 0.099414022306 0.093907878485 0.088326506351 0.082748682383 0.077256794279 0.071930395493 0.066838460486 
0.062034186031 0.057553058543 0.053412648723 0.049615222693 0.046151366605 0.043003613432 0.040149832857 0.037565159998 0.035224285241 
0.033102400268 0.031176184532 0.029423953187 0.027825922545 0.089107310361 0.084450981775 0.079745888912 0.075050087938 0.070423730015 
0.065924343539 0.06160262104 0.057499030407 0.05364207914 0.050048035221 0.046722339028 0.043661611955 0.040856081242 0.03829145866 
0.035950927195 0.033816226873 0.03186889005 0.030090800508 0.028464869754 0.026974913498 0.080356787423 0.076389078485 0.072390342122 
0.068403832036 0.064473944401 0.060642854376 0.056948521096 0.053421656187 0.050084951466 0.046952934904 0.04403209592 0.041322727232 
0.038819840364 0.036514646476 0.03439592691 0.0324507504 0.030665343823 0.029026047304 0.027519233795 0.026131911276 0.072878200553 
0.069472558582 0.066047638769 0.062635931132 0.059270858102 0.055983773899 0.052803391805 0.049753127878 0.046851202993 0.044110059255 
0.041536416216 0.039132444678 0.036896104166 0.034822398816 0.032903954984 0.031131707708 0.02949565391 0.027985394506 0.02659030747 
0.025299914413 0.066447444088 0.063503954512 0.060548644014 0.05760688459 0.054703588666 0.05186283633 0.049106135346 0.046451844275 
0.043914402449 0.041504548741 0.039228667631 0.03708964878 0.035087424058 0.033219297449 0.031480730913 0.029865441122 0.028366228073 
0.026975244597 0.0256842547 0.024484829053 0.060889858754 0.058328541278 0.055760685772 0.05320562948 0.050682968408 0.04821072799 
0.045805645229 0.04348193586 0.041251407149 0.039122989103 0.037102436692 0.035193147487 0.033396044477 0.031710016538 0.030132332793 
0.028658784793 0.02728425737 0.026002928578 0.024808400454 0.023694159891 0.056065525763 0.053822094737 0.05157556371 0.049341419833 
0.047134446174 0.044968673516 0.042857034404 0.040810828442 0.038839603142 0.03695085797 0.035149688962 0.033439556887 0.031821928625 
0.030296682049 0.028862463971 0.027516508897 0.026255272061 0.025074307789 0.023968883573 0.022933811759 0.051857662351 0.049880180149 
0.047902176443 0.045935712486 0.043992527953 0.042083259264 0.040218152657 0.038406209984 0.036655166361 0.034971207009 0.033358933254 
0.031821640469 0.030361049702 0.028977743765 0.027671250461 0.026439887189 0.025281134398 0.024191843089 0.023168374363 0.022206638653 
0.048166619234 0.046413003086 0.044660713469 0.042919371121 0.041197837404 0.039504900408 0.037848300601 0.036235342096 0.034672208836 
0.033164128704 0.031715113094 0.030328159057 0.029005212576 0.027747254182 0.026554460806 0.025425911698 0.024359859161 0.023354073073 
0.022405750312 0.021511739297 0.044905316489 0.043341650734 0.04178072114 0.040229845922 0.038696433126 0.037187098002 0.035708208577 
0.034265391798 0.032863796739 0.031507637835 0.030200423171 0.028944779668 0.027742869094 0.026595908421 0.025504516818 0.024468260276 
0.023486046382 0.022556259748 0.021676785747 0.020845175731 0.041999209173 0.040598220138 0.039200697774 0.037812653687 0.036439901826 
0.035087884891 0.033761480374 0.03246533673 0.031203560289 0.029979545397 0.028796234928 0.027656022856 0.026561045468 0.025512771755 
0.024512072103 0.023558950155 0.022652690666 0.021792088924 0.020975638725 0.020201433581 0.039387505872 0.038127058986 0.036870388369 
0.03562255778 0.034388324638 0.033171923507 0.031977489702 0.030808702744 0.029668812398 0.028560486713 0.0274861687 0.026447952092 
0.025447910994 0.024487858173 0.023568690526 0.022690634468 0.021853281172 0.021055833194 0.020297164061 0.019575914283 0.24806271107 
0.22800640626 0.20744066989 0.18696609951 0.16721995103 0.14876511881 0.13199924433 0.1171185281 0.1041366794 0.092938197135 
0.083335935058 0.075118601112 0.068078655098 0.062028190628 0.056803472723 0.052265800995 0.048299701623 0.044810993128 0.041723605055 
0.038976317019 0.2274320963 0.209852386 0.19179425546 0.17375139047 0.15625646763 0.13979318082 0.12471934292 0.11122992969 
0.099365179696 0.089050691304 0.080143299561 0.072471438101 0.065861136331 0.060151198935 0.055198578965 0.050880654695 0.047094383205 
0.043754997131 0.040792881381 0.038151971684 0.20614635834 0.19095090268 0.17534647131 0.15972517255 0.14451448893 0.13011040037 
0.1168165777 0.10481263497 0.094155565716 0.084805068456 0.076660113403 0.069588712636 0.063452247207 0.058117726429 0.053464974071 
0.049388992377 0.045800440605 0.042624447293 0.039799222887 0.037273974469 0.18533280415 0.17233795546 0.15901666645 0.14567303707 
0.13263853628 0.12022451104 0.1086776273 0.098154028684 0.088717201619 0.080353239351 0.072996460259 0.066551229108 0.060911851133 
0.055973324287 0.051637836131 0.047818450507 0.044439729462 0.041437300407 0.038757195657 0.036354454494 0.16584294082 0.15480710886 
0.14352369096 0.13222459508 0.12116063442 0.11056956506 0.1006451677 0.091517431632 0.083248865864 0.075843645519 0.069262703935 
0.063441448814 0.058302349243 0.053765546352 0.049754219916 0.046198523763 0.043036148987 0.040212961429 0.037682896914 0.035406738572 
0.14818124989 0.13883921821 0.12931694647 0.1197887713 0.11044184538 0.10145431133 0.092975102065 0.085108881741 0.077913231064 
0.071402128405 0.065556160342 0.060333829902 0.055681047646 0.051539046855 0.047849421589 0.044557139799 0.041612083683 0.038969742657 
0.036591411791 0.03444343857 0.1325386628 0.12463087991 0.11659556195 0.10856328873 0.10067267781 0.093056016658 0.085826116295 
0.07906561507 0.072824807059 0.067122379253 0.061951810836 0.057288161306 0.053095239919 0.049331225266 0.045952800551 0.042917634128 
0.040186297873 0.037722828509 0.035495083979 0.033474768665 0.11888232316 0.11217228523 0.10537421264 0.098585761423 0.09190925155 
0.085443033961 0.079272015324 0.073460705444 0.068051656661 0.063064717647 0.058500983254 0.054347024194 0.050579603317 0.047170035348 
0.044086739366 0.041297958892 0.038773082523 0.036483464222 0.034402850736 0.032507865966 0.10704985277 0.10133246619 0.095555514941 
0.089792399858 0.084118952667 0.078608338221 0.073324520665 0.068317912655 0.063623237565 0.059260017983 0.055233242897 0.0515369411 
0.048157136447 0.045074603451 0.042266890111 0.039710496502 0.037382129173 0.035259205628 0.033320656224 0.031547202533 0.096821943122 
0.091925361732 0.086989339651 0.082068956821 0.077221390392 0.072501407193 0.067957221017 0.063628152862 0.059542622057 0.055718065487 
0.052161581126 0.048871931527 0.045841106169 0.043056725013 0.040503236979 0.038163624075 0.036020095684 0.034055330457 0.03225249876 
0.030595770176 0.087972293924 0.083754951521 0.079512078196 0.07528562292 0.071118875653 0.067052927224 0.06312494247 0.059365235304 
0.055797077987 0.052435595154 0.049288633254 0.046357490657 0.043638452683 0.041123654766 0.038802676118 0.036663218639 0.034692178719 
0.032876145557 0.031201772941 0.029656377359 0.080292769885 0.076639557279 0.072970142537 0.069317217201 0.065713371903 0.062190290178 
0.058776484146 0.055495722921 0.052366792608 0.049402696684 0.046611153957 0.043995004006 0.041552923765 0.039280407477 0.037170614085 
0.035214842295 0.033403436131 0.031726196143 0.030172688377 0.028732714682 0.073604379522 0.070421580818 0.067229119889 0.064052300553 
0.060916530941 0.057846028188 0.054862906181 0.051985988388 0.049230379734 0.046607289185 0.044123903908 0.04178358518 0.039586696886 
0.037530950721 0.035611965619 0.033823754015 0.032159276957 0.030610785242 0.029170163336 0.027829407224 0.06775786653 0.064969068199 
0.062175225002 0.059395943375 0.056651134121 0.053959741564 0.051338907159 0.048803514225 0.046366078707 0.04403600022 0.041819575873 
0.039720609305 0.037740350702 0.03587786996 0.034130616262 0.032494499794 0.030964546661 0.029534937726 0.028199425096 0.026951624884 
0.062627700818 0.06017076711 0.057711634137 0.055266217735 0.052850007308 0.050477681705 0.048162919517 0.045917669675 0.043752056972 
0.041674070448 0.039689250427 0.037801382062 0.036012193362 0.034321663532 0.032728587167 0.031230242981 0.029823028221 0.028502683137 
0.027264463921 0.026103363209 0.058107819196 0.055931434145 0.053755228679 0.051591593475 0.049452915307 0.047350754273 0.045295968868 
0.043298223249 0.041365813738 0.039505299905 0.037721784978 0.036018640301 0.034397972269 0.032860392219 0.031405395477 0.030031419624 
0.028735885077 0.027515761453 0.026367350309 0.025286774913 0.054106827209 0.052169275045 0.050233285796 0.048309033029 0.046406135079 
0.044533931513 0.042701128535 0.040915585929 0.039183963146 0.037511822243 0.035903662948 0.034362541681 0.032890698661 0.031489110749 
0.030157823987 0.028896034325 0.027702018724 0.026573508122 0.025507787785 0.024501835841 0.050545968323 0.048812706118 0.047082229966 
0.045362367621 0.043661026886 0.041985810717 0.040343742667 0.038740999059 0.037183173564 0.035674897647 0.03422005619 0.032821467766 
0.031481318864 0.030200819786 0.028980445029 0.027819900921 0.026718056582 0.025673324852 0.024683628239 0.023746657574 0.047357664643 
0.045800618116 0.044246711835 0.04270267809 0.041174911912 0.039669533241 0.038192116666 0.036747838892 0.035341254996 0.033976200398 
0.032656004908 0.031383243142 0.030159954455 0.028987622539 0.027866905909 0.026797828416 0.025779738755 0.024811526863 0.023891695157 
0.023018460297 0.044485931427 0.043081569827 0.041680735663 0.040288960276 0.038911486437 0.037553352254 0.036219076355 0.034912915939 
0.033638633322 0.032399380658 0.031197959235 0.030036736146 0.028917589178 0.027842115785 0.026811098462 0.025824791571 0.024882918131 
0.023984703213 0.023129088 0.022314752364 0.23651249308 0.21871289385 0.20065817046 0.18277577412 0.16550293011 0.1492255725 
0.1342294189 0.12067624193 0.10861013754 0.097982604971 0.088685052899 0.080579134944 0.073517343539 0.06735783574 0.061970673688 
0.057241121035 0.053070559473 0.049375730372 0.04608691524 0.043146356542 0.21934046242 0.20349341952 0.18738724061 0.17138276749 
0.15585477186 0.14114225598 0.12750501429 0.11510079262 0.10398623591 0.094135924775 0.085468034464 0.077870508108 0.071219321585 
0.0653926477 0.060276626288 0.055769753499 0.051783640462 0.048242991126 0.045084225893 0.042254312419 0.20155131117 0.18760739755 
0.17342761005 0.15930765138 0.14555833572 0.13246534922 0.12025437237 0.10907096309 0.098977863675 0.089968008113 0.081985004778 
0.074941918812 0.068739767487 0.06327708094 0.058457637825 0.054194017619 0.050409047249 0.047036249973 0.044018782864 0.041308798331 
0.18391821095 0.17176363162 0.15941006381 0.14709456348 0.13506729333 0.12356135947 0.11276557346 0.10280800487 0.093752063381 
0.085604395325 0.078329448347 0.071864142846 0.066132090011 0.061052187623 0.056545474936 0.052538833138 0.048966760803 0.045771578864 
0.042903630338 0.040320462989 0.16706735262 0.15654305616 0.14586003484 0.13520518651 0.12477573163 0.1147566813 0.10530170506 
0.096519439262 0.08846969299 0.081168367693 0.074595749246 0.068708968106 0.063451328117 0.058760362365 0.054573291035 0.050830680488 
0.047477915369 0.044466209093 0.041752868266 0.03930091602 0.15142316131 0.14234568262 0.13314721684 0.12397342958 0.1149771559 
0.10630280957 0.098072589709 0.090376267181 0.083267982191 0.076767934759 0.070868483299 0.065542241071 0.060749048378 0.056442185747 
0.052573293335 0.049095061271 0.045962989084 0.043136651936 0.040580065351 0.03826133077 0.13720889967 0.12939019425 0.12148255884 
0.11359870112 0.10585574584 0.098365405738 0.091223478404 0.08450271829 0.078250385609 0.072488212445 0.067216550303 0.062419365989 
0.058069425191 0.054132962104 0.050573613748 0.047354467379 0.044440226101 0.041797764469 0.039397234188 0.037211606216 0.12448583717 
0.11774670946 0.11094419173 0.10416515218 0.097499045195 0.091031784231 0.084838072548 0.078975978307 0.073485913983 0.068389124827 
0.063690673085 0.059382522691 0.055447057363 0.051860898211 0.048597094012 0.045627550185 0.042924636667 0.040461724082 0.038214233985 
0.036159743207 0.1132044024 0.10738274401 0.10151705201 0.095674307424 0.089923097677 0.084329377922 0.078950848058 0.073834278291 
0.069013050087 0.064507179903 0.06032406095 0.05646093013 0.052907278931 0.049647323044 0.046661381998 0.043928740407 0.041427918356 
0.039137947098 0.037038809414 0.035112075993 0.10325164003 0.098205515062 0.09313003057 0.088076398631 0.083097573272 0.0782445181 
0.073561835263 0.069086861603 0.064847225815 0.060860680292 0.057135759976 0.053673045794 0.050466848801 0.047506784527 0.04477924158 
0.042268790805 0.039959120276 0.03783393156 0.03587709298 0.034073511968 0.094487183786 0.090095847498 0.085685388663 0.081295649097 
0.076967809904 0.072740741467 0.068649962563 0.064724609963 0.060987685644 0.057454618315 0.054134184959 0.05102880651 0.048136071142 
0.045449554385 0.042959857157 0.040655941477 0.038525497987 0.036555849121 0.034734304035 0.033048567844 0.086767206084 0.082929012706 
0.079078704684 0.075248028712 0.071468516433 0.067770963942 0.064182898656 0.060727795276 0.057424296775 0.054285929712 0.051320904047 
0.048532785421 0.045921119353 0.043482336578 0.041210179116 0.039096762777 0.037133036671 0.035309189906 0.03361531039 0.032041497088 
0.079957091923 0.076586794737 0.073209657594 0.069850554452 0.066534412033 0.06328523309 0.0601248355 0.057072040803 0.054142124676 
0.051346657636 0.048693227286 0.046185686829 0.043825043737 0.041609552418 0.039535179288 0.037596564011 0.035786939602 0.034098932785 
0.032524719934 0.031056593724 0.073936404378 0.070963208495 0.067986759875 0.065026942659 0.06210335033 0.059235065691 0.0564393064 
0.053731235124 0.051123535517 0.04862597624 0.04624526992 0.043985537443 0.041848429787 0.039833469709 0.037938233044 0.036159175121 
0.034491390186 0.032929283781 0.031466892314 0.030098013252 0.068599008056 0.065964126232 0.063328583515 0.06070809163 0.058118502769 
0.055574744803 0.053090832197 0.050678932636 0.048349610722 0.046110973172 0.043969121886 0.041927971574 0.039989604905 0.038154369579 
0.036420997657 0.034787157029 0.033249343237 0.031803479376 0.030444981849 0.029168928807 0.063852800701 0.061507203061 0.059162667173 
0.056831921936 0.054527481367 0.052261535489 0.050045234239 0.047888640332 0.045800395056 0.043787295078 0.04185478296 0.040006534569 
0.038244763996 0.036570389172 0.034982909952 0.033480903381 0.032061968586 0.0307230948 0.029460789278 0.02827130032 0.059617006406 
0.057519833436 0.055424889282 0.053342569745 0.051282890025 0.049255714858 0.047270113217 0.045334384185 0.043455487744 0.041639319559 
0.039890665973 0.038212816808 0.036608072359 0.035077631166 0.033621567989 0.032239119054 0.030928678357 0.029688098454 0.028514705149 
0.027405566702 0.055821307743 0.053938520843 0.052058828169 0.050190446765 0.0483418108 0.046520790878 0.04473500181 0.042990974434 
0.041294673087 0.039651044104 0.038064212119 0.036537198426 0.035072238803 0.033670728561 0.032333069591 0.031058997477 0.029847524964 
0.028697077857 0.027605692887 0.026571154915 0.052404899042 0.050708171342 0.04901479172 0.047331840993 0.045666096557 0.044024174228 
0.042412071918 0.040835290911 0.039298847362 0.037806855759 0.036362896498 0.034969770594 0.033629494633 0.03234360958 0.031112750406 
0.029936967946 0.028815719315 0.02774793209 0.026732169245 0.02576669347 0.04931636503 0.047781757977 0.046250756696 0.044729276728 
0.043222941204 0.041737076633 0.040276765861 0.038846590787 0.037450606698 0.036092437283 0.034775085424 0.033501057175 0.032272315101 
0.031090345488 0.029955961481 0.028869375411 0.027830463814 0.026838454061 0.025892374644 0.024990868155 0.22705043472 0.21111020185 
0.19506104819 0.17921506361 0.16388384322 0.14934268507 0.13580291687 0.12339609952 0.11217517379 0.10212724905 0.093191281689 
0.085277999122 0.078283765839 0.072103182256 0.066634832572 0.061785656711 0.057472801971 0.0536240503 0.050177202655 0.04707934692 
0.2124389129 0.19806900861 0.183572116 0.1692171675 0.1552765478 0.14199618455 0.1295699083 0.11812488674 0.10772008415 
0.098355641046 0.089987385536 0.082543161892 0.075936314956 0.070075792589 0.06487276398 0.060244685733 0.056117138763 0.052424842208 
0.049110865027 0.046126630157 0.19727062366 0.18444527748 0.17149404636 0.1586428785 0.14612334286 0.13414761707 0.12288717179 
0.11245954756 0.10292552057 0.094295020893 0.086539579387 0.079603426298 0.073416909866 0.067904089523 0.062989493307 0.058601412621 
0.054674909439 0.051151970408 0.047981710549 0.04512013249 0.18209336053 0.17074098796 0.15927499821 0.14788223175 0.13675437817 
0.12606930962 0.11597408258 0.10657332889 0.097926205522 0.090050005944 0.082928067175 0.076520562358 0.070773419552 0.065625361675 
0.061013822142 0.056878838256 0.053164479821 0.049820364219 0.046801835499 0.044069764204 0.16737405997 0.15738743443 0.14730570343 
0.13728018448 0.12746667115 0.11801096713 0.10903583772 0.10063182133 0.092853791709 0.085723193386 0.079233405696 0.073357336625 
0.068054708644 0.063277811456 0.058976406238 0.055101196837 0.051605299138 0.048445824514 0.045584098567 0.042986080115 0.15345721565 
0.14470842955 0.13588398657 0.127105117 0.11849670992 0.1101761886 0.10224395725 0.09477665936 0.087823516066 0.081407659857 
0.075529477919 0.070172310522 0.065307304028 0.060898418835 0.056906599655 0.053292092716 0.05001640456 0.047043761869 0.044341183363 
0.041879484633 0.14055857584 0.13291058528 0.12520513362 0.11753857487 0.1100095305 0.10271193592 0.095726738618 0.089117454213 
0.082927366926 0.077179320992 0.071878569659 0.067015986521 0.062571911679 0.058520248949 0.0548310731 0.051473061799 0.048415410083 
0.045628467171 0.043084887417 0.040759626501 0.12877886295 0.12209601157 0.11537126671 0.10868079984 0.10210209812 0.095709572727 
0.089568169136 0.083729687572 0.078231562123 0.07309546264 0.068329077472 0.063928940535 0.059882361124 0.056170966402 0.052772513906 
0.049662817842 0.046817467476 0.044212473471 0.041825321852 0.03963495233 0.11813103893 0.11228613281 0.10641176769 0.10056785932 
0.094815702067 0.08921391434 0.083813917317 0.078658445968 0.073778723585 0.069194810379 0.064915624662 0.060941250848 0.057264452278 
0.053872509773 0.050749282194 0.047876511306 0.045235233879 0.042806270031 0.040571234361 0.038512695121 0.10856975531 0.10344750516 
0.098305334041 0.093190645746 0.088151798536 0.083234624865 0.078480615922 0.073924187455 0.069591615864 0.065500563553 0.061660491678 
0.058073785087 0.05473674084 0.051641141139 0.048775531077 0.046126348804 0.043679031517 0.041418515196 0.0393299117 0.037398901363 
0.10001602066 0.095514740717 0.091000788103 0.086511544499 0.082085410926 0.077758558454 0.073564135344 0.069529983621 0.065677993675 
0.062023641037 0.05857626374 0.055339433998 0.052311866764 0.049488659719 0.04686193633 0.044421797269 0.042157233076 0.040056452051 
0.038107581085 0.036298999365 0.092376018978 0.088407739858 0.08443182434 0.080478422887 0.076577623364 0.07275858094 0.069047576308 
0.06546724409 0.062035697579 0.058766504466 0.055668264708 0.052745249788 0.049997819061 0.047423344473 0.045016512006 0.042770360795 
0.04067657881 0.038726119923 0.036909630201 0.03521760971 0.085553366368 0.082042485559 0.078527729157 0.075033293976 0.07158329503 
0.068200826669 0.064907130325 0.061720470146 0.058656123096 0.055725590946 0.052936755627 0.050294042123 0.047798898302 0.045450260092 
0.043244748739 0.041177542056 0.03924246014 0.037432608167 0.035740737395 0.034159238537 0.079455559507 0.076337660838 0.073218766877 
0.070118219702 0.067055340746 0.064048752954 0.061115443418 0.058270506804 0.055526537743 0.052893440339 0.050378207204 0.047985244657 
0.04571658157 0.043572214862 0.041550229162 0.039647296963 0.037859001162 0.036180106217 0.034604948819 0.033127535514 0.073996902519 
0.071217754475 0.068439481016 0.065677657473 0.062948120102 0.060265636214 0.057644224916 0.055096113745 0.052631959479 0.050259918262 
0.047986453452 0.045815713695 0.043750003908 0.041790003673 0.039934762124 0.038182147768 0.036529016925 0.034971496071 0.033505204437 
0.032125459984 0.069100393382 0.066613772247 0.06412929966 0.06165990674 0.059218002478 0.056815907101 0.054464914201 0.052175229581 
0.049955637965 0.0478131293 0.045753377267 0.043780241011 0.041896150917 0.040102232428 0.038398192327 0.036782785959 0.035253820882 
0.033808469879 0.032443420873 0.031154943276 0.064696610557 0.062463574454 0.060233569895 0.058017140857 0.05582445314 0.053665656622 
0.051549931282 0.049485789279 0.04748041628 0.045539950428 0.043669269078 0.041871967293 0.040150413955 0.038506011782 0.036938925312 
0.035448538096 0.034033422571 0.032691506391 0.0314202795 0.030216896387 0.060724186495 0.058711771221 0.056702988718 0.054706278937 
0.052730356898 0.050783340336 0.048873003519 0.047006169901 0.045188991132 0.043426745969 0.041723639313 0.040082935912 0.038506943477 
0.036997160044 0.035554128366 0.034177589968 0.032866707838 0.031620022843 0.030435671745 0.029311467099 0.057129246962 0.055309552744 
0.053493638283 0.051688770372 0.049902029046 0.048140227213 0.046409658616 0.044716122671 0.043064817076 0.041460175107 0.039905880692 
0.038404920233 0.036959430075 0.035570965888 0.034240238503 0.032967351447 0.03175187447 0.030592780141 0.02948876109 0.028438096585 
0.053865169542 0.052214379118 0.050567544981 0.048930763696 0.047309880258 0.045710535642 0.044138019013 0.042597223674 0.041092475741 
0.03962760332 0.03820583579 0.036829797347 0.035501486902 0.03422248899 0.032993589513 0.031815126518 0.030686955905 0.029608430241 