# vtk DataFile Version 5.1
vtk output
ASCII
DATASET POLYDATA
POINTS 1682 double
9.375 -5.9749999046 0 9.375 -3.4749999046 0 7.4287567139 -5.9749999046 0 
7.4287567139 -5.9749999046 0 9.375 -3.4749999046 0 7.1936292648 -3.4749999046 0 
5.4825134277 -5.9749999046 0 7.1936292648 -3.4749999046 0 5.0122594833 -3.4749999046 0 
3.5362706184 -5.9749999046 0 5.0122594833 -3.4749999046 0 2.5740199089 -4.3083333969 0 
3.5362706184 -5.9749999046 0 5.4825134277 -5.9749999046 0 5.0122594833 -3.4749999046 0 
9.375 -0.97500002384 0 7.1936292648 -0.97500002384 0 9.375 -3.4749999046 0 
9.375 -3.4749999046 0 7.1936292648 -0.97500002384 0 7.1936292648 -3.4749999046 0 
7.1936292648 -3.4749999046 0 7.1936292648 -0.97500002384 0 5.0122594833 -0.97500002384 0 
5.0122594833 -3.4749999046 0 5.0122594833 -0.97500002384 0 2.830889225 -0.97500002384 0 
2.830889225 -3.4749999046 0 2.830889225 -0.97500002384 0 1.6117694378 -2.6416666508 0 
2.5740199089 -4.3083333969 0 2.830889225 -3.4749999046 0 1.6117694378 -2.6416666508 0 
2.5740199089 -4.3083333969 0 5.0122594833 -3.4749999046 0 2.830889225 -3.4749999046 0 
2.830889225 -3.4749999046 0 5.0122594833 -3.4749999046 0 2.830889225 -0.97500002384 0 
7.1936292648 -3.4749999046 0 5.0122594833 -0.97500002384 0 5.0122594833 -3.4749999046 0 
2.830889225 -0.97500002384 0 0.64951908588 -0.97500002384 0 1.6117694378 -2.6416666508 0 
5.4825134277 -5.9749999046 0 7.4287567139 -5.9749999046 0 7.1936292648 -3.4749999046 0 
3.5202790695 -3.9849240572 0 4.0122594833 -3.4749999046 0 4.0660003228 -3.7984092444 0 
2.2213293314 -1.8083333373 0 1.830889225 -0.97500002384 0 1.1495190571 -1.8410254442 0 
2.330889225 -1.2488686993 0 1.6926389733 -2.0612158224 0 1.7574202495 -1.5175550511 0 
1.2402041554 -0.97500002384 0 0.8995190715 -1.408012734 0 1.3363376811 -1.4011640156 0 
4.539129903 -3.6367045745 0 4.5122594833 -3.4749999046 0 1.5355466902 -1.1323018688 0 
0.89951908588 -0.97500002384 0 2.330889225 -0.97500002384 0 4.1458044788 -2.4819830613 0 
3.830889225 -0.97500002384 0 4.2622594833 -3.5996271946 0 4.7756946932 -3.5558522396 0 
4.7622594833 -3.4749999046 0 1.117693983 -1.3896385168 0 0.77451907869 -1.1915063789 0 
1.0245190859 -1.1915063831 0 0.89951908109 -1.263675164 0 0.89951908588 -1.1193375939 0 
0.77451908588 -1.0471688089 0 2.5261092782 -1.3916666806 0 2.080889225 -0.97500002384 0 
1.0698616207 -0.97500002384 0 2.2761092782 -1.5286010183 0 2.580889225 -0.97500002384 0 
1.955889225 -1.2681784812 0 2.205889225 -1.1119343616 0 2.455889225 -1.1119343616 0 
2.6832926678 -1.1767802416 0 1.5355466902 -0.97500002384 0 1.3878754228 -1.0536509463 0 
1.6832179576 -1.0536509463 0 1.2270747138 -1.1776070143 0 1.7126317196 -1.2868326095 0 
1.3930612306 -1.2349610001 0 3.4883468519 -1.7284915426 0 5.0122594833 -2.2249999642 0 
3.1596180385 -1.3517457832 0 3.330889225 -0.97500002384 0 3.8895308106 -1.4562656943 0 
3.8170756654 -2.105237302 0 4.4215743542 -0.97500002384 0 4.4420661472 -1.8916917543 0 
2.830889225 -2.4749999046 0 2.2405029961 -1.782120895 0 8.5085446818 -2.4819829189 0 
6.327174574 -2.4819832037 0 6.0122594833 -0.97500002384 0 3.6973442295 -1.9680168671 0 
-1.4385644197 -2.6416666508 0 -0.52499997616 -1.7250000238 0 -0.47631397843 -0.97500002384 0 
-1.4385644197 -2.6416666508 0 -1.1210217476 -3.4749999046 0 -0.52499997616 -1.7250000238 0 
-1.4385644197 -2.6416666508 0 -2.4008147717 -4.3083333969 0 -1.1210217476 -3.4749999046 0 
-1.1210217476 -3.4749999046 0 -2.4008147717 -4.3083333969 0 -0.52499997616 -3.8499999046 0 
-0.52499997616 -1.7250000238 0 -1.1210217476 -3.4749999046 0 -0.52499997616 -3.8499999046 0 
-3.3630652428 -5.9749999046 0 -1.9440326691 -5.9749999046 0 -2.4008147717 -4.3083333969 0 
-2.4008147717 -4.3083333969 0 -1.9440326691 -5.9749999046 0 -0.52499997616 -3.8499999046 0 
-0.52499997616 -3.8499999046 0 -1.9440326691 -5.9749999046 0 -0.52499997616 -5.9749999046 0 
-0.52499997616 -1.7250000238 0 0.52499997616 -1.7250000238 0 -0.47631397843 -0.97500002384 0 
-0.47631397843 -0.97500002384 0 0.52499997616 -1.7250000238 0 0.47631397843 -0.97500002384 0 
0.47631397843 -0.97500002384 0 0.52499997616 -1.7250000238 0 1.4385644197 -2.6416666508 0 
1.4385644197 -2.6416666508 0 0.52499997616 -1.7250000238 0 1.1210217476 -3.4749999046 0 
2.4008147717 -4.3083333969 0 1.1210217476 -3.4749999046 0 0.52499997616 -3.8499999046 0 
1.9440326691 -5.9749999046 0 0.52499997616 -3.8499999046 0 0.52499997616 -5.9749999046 0 
1.9440326691 -5.9749999046 0 2.4008147717 -4.3083333969 0 0.52499997616 -3.8499999046 0 
1.9440326691 -5.9749999046 0 3.3630652428 -5.9749999046 0 2.4008147717 -4.3083333969 0 
0.52499997616 -1.7250000238 0 0.52499997616 -3.8499999046 0 1.1210217476 -3.4749999046 0 
2.4008147717 -4.3083333969 0 1.4385644197 -2.6416666508 0 1.1210217476 -3.4749999046 0 
-1.4293919975 -4.070977559 0 -0.52499997616 -2.8499999046 0 1.4964227503 -4.0873557426 0 
0.52499997616 -2.7250000238 0 0.84739810738 -2.6716041887 0 -1.5628106672 -3.7626694702 0 
-0.97631398452 -1.8410254241 0 -1.0856107979 -2.2875145072 0 -1.1885644167 -2.2086539506 0 
0.12481100514 -1.4252521507 0 -0.076125007411 -1.274747897 0 0.32831584541 -1.3611874904 0 
0.93856441366 -1.7756412505 0 1.0856107979 -2.2875145072 0 1.1885644167 -2.2086539506 0 
1.5628106672 -3.7626694702 0 1.9818127194 -4.0355014335 0 1.9151033846 -4.189655478 0 
-0.29786939736 -1.3631639114 0 -0.84739810738 -2.6716041887 0 -0.52499997616 -2.2250000238 0 
-0.68619904177 -2.1983021063 0 0.5006569773 -1.3500000238 0 0.22443748437 -1.4998739604 0 
-1.2620876088 -2.464590579 0 -1.3135644182 -2.4251603007 0 -0.80530538702 -2.0062572655 0 
-1.0824392006 -2.0248396874 0 0.80530538702 -2.0062572655 0 1.0635644152 -1.9921476006 0 
1.3135644182 -2.4251603007 0 1.2620876088 -2.464590579 0 0.48848547786 -1.1625000238 0 
2.1579590781 -4.2489944374 0 2.1913137455 -4.1719174152 0 1.7723116933 -3.8990854519 0 
-0.52499997616 -2.5374999642 0 -0.60559950896 -1.9616510651 0 -0.52499997616 -1.9750000238 0 
0.32490549065 -1.5751260873 0 0.50880539566 -1.4755251041 0 0.074156238481 -1.3873109287 0 
0.023686021566 -0.97500002384 0 0.25 -1.083836174 0 -1.9151033846 -4.189655478 0 
-1.9818127194 -4.0355014335 0 0.52499997616 -2.2250000238 0 0.68619904177 -2.1983021063 0 
0.52499997616 -3.3499999046 0 -0.98420992748 -3.0733020467 0 -0.72631398147 -1.408012724 0 
0.024999976158 -1.7250000238 0 -1.1738492034 -2.3760525431 0 -1.2510644175 -2.3169071257 0 
-1.3503260143 -2.5531286149 0 -1.376064419 -2.5334134757 0 1.1738492034 -2.3760525431 0 
1.2510644175 -2.3169071257 0 1.376064419 -2.5334134757 0 1.3503260143 -2.5531286149 0 
2.0516973716 -4.1572547169 0 2.2793869249 -4.2786639172 0 2.2960642586 -4.2401254061 0 
-0.58710777465 -2.1000000238 0 -0.56529974256 -1.8433255445 0 -0.52499997616 -1.8500000238 0 
-1.7025799715 -4.0061760368 0 -2.1913137455 -4.1719174152 0 -2.1579590781 -4.2489944374 0 
0.64921557313 -2.4750000238 0 0.52499997616 -1.9750000238 0 0.60559950896 -1.9616510651 0 
0.36315698922 -0.97500002384 0 0.48239972815 -1.0687500238 0 0.25 -0.97500002384 0 
0.13684301078 -1.0294180989 0 0.36924273893 -1.1231680989 0 0.014718447278 -1.1385056099 0 
-0.22631397843 -0.97500002384 0 -0.27621949292 -1.1248739604 0 -0.10131397843 -1.0501430238 0 
-0.37626673568 -1.0499369921 0 -0.35131397843 -0.97500002384 0 -0.17617225017 -1.1998109287 0 
0.16113862635 -1.2350291767 0 0.72631398147 -1.408012724 0 -0.50870313943 -1.4739498633 0 
-0.49250855893 -1.2244749435 0 -0.60131397995 -1.1915063739 0 0.50870313943 -1.4739498633 0 
0.74500878262 -1.6423049617 0 -0.17575148665 -1.2001260873 0 -0.5006569773 -1.3500000238 0 
-0.38709168789 -1.1690819676 0 -0.25 -1.7250000238 0 9.375 0.82499998808 0 
7.03125 0.82499998808 0 9.375 0.07500000298 0 9.375 0.07500000298 0 
7.03125 0.82499998808 0 7.03125 0.07500000298 0 7.03125 0.07500000298 0 
7.03125 0.82499998808 0 4.6875 0.82499998808 0 4.6875 0.07500000298 0 
4.6875 0.82499998808 0 2.34375 0.82499998808 0 2.34375 0.07500000298 0 
2.34375 0.82499998808 0 1.7763568394e-15 0.82499998808 0 1.7763568394e-15 0.07500000298 0 
1.7763568394e-15 0.82499998808 0 -2.34375 0.82499998808 0 -2.34375 0.07500000298 0 
-2.34375 0.82499998808 0 -4.6875 0.82499998808 0 -4.6875 0.07500000298 0 
-4.6875 0.82499998808 0 -7.03125 0.82499998808 0 -7.03125 0.07500000298 0 
-7.03125 0.82499998808 0 -9.375 0.82499998808 0 -9.375 0.07500000298 0 
-7.03125 0.07500000298 0 -9.375 0.82499998808 0 7.03125 0.07500000298 0 
4.6875 0.82499998808 0 4.6875 0.07500000298 0 4.6875 0.07500000298 0 
2.34375 0.82499998808 0 2.34375 0.07500000298 0 2.34375 0.07500000298 0 
1.7763568394e-15 0.82499998808 0 1.7763568394e-15 0.07500000298 0 1.7763568394e-15 0.07500000298 0 
-2.34375 0.82499998808 0 -2.34375 0.07500000298 0 -2.34375 0.07500000298 0 
-4.6875 0.82499998808 0 -4.6875 0.07500000298 0 -4.6875 0.07500000298 0 
-7.03125 0.82499998808 0 -7.03125 0.07500000298 0 8.375 0.82499998808 0 
7.983674149 0.52022426647 0 8.6793370745 0.29761213472 0 7.53125 0.82499998808 0 
7.5074620745 0.67261212727 0 8.03125 0.07500000298 0 8.422575851 0.37977572459 0 
7.7269129255 0.60238785634 0 8.875 0.07500000298 0 8.8987879255 0.22738786379 0 
5.639924149 0.52022426647 0 5.6875 0.82499998808 0 3.296174149 0.52022426647 0 
3.34375 0.82499998808 0 0.95242414896 0.52022426647 0 1 0.82499998808 0 
1.8675379255 0.22738786379 0 -1 0.82499998808 0 -1.391325851 0.52022426647 0 
-0.69566292552 0.29761213472 0 -1.84375 0.82499998808 0 -1.8675379255 0.67261212727 0 
-0.5 0.82499998808 0 -0.26709670496 0.438602192 0 -3.735075851 0.52022426647 0 
-3.6875 0.82499998808 0 -6.078825851 0.52022426647 0 -6.03125 0.82499998808 0 
-8.422575851 0.52022426647 0 -8.375 0.82499998808 0 -7.983674149 0.37977572459 0 
-8.03125 0.07500000298 0 5.6875 0.07500000298 0 6.078825851 0.37977572459 0 
5.3831629255 0.60238785634 0 6.53125 0.07500000298 0 6.5550379255 0.22738786379 0 
3.34375 0.07500000298 0 3.735075851 0.37977572459 0 3.0394129255 0.60238785634 0 
4.1875 0.07500000298 0 4.2112879255 0.22738786379 0 1.391325851 0.37977572459 0 
[...]
CELL_DATA 1947
FIELD FieldData 4
electrode_index 1 1947 int
0 0 0 0 0 0 0 0 0 
0 0 0 0 0 0 0 0 0 
0 0 0 0 0 0 0 0 0 
0 0 0 0 0 0 0 0 0 
0 0 0 0 0 0 0 0 0 
0 0 0 0 0 0 0 0 0 
0 0 0 0 0 0 0 0 0 
0 0 0 0 0 0 0 0 0 
0 0 0 0 0 0 0 0 0 
0 0 0 0 0 0 0 0 0 
0 0 0 0 0 1 1 1 1 
1 1 1 1 1 1 1 1 1 
1 1 1 1 1 1 1 1 1 
1 1 1 1 1 1 1 1 1 
1 1 1 1 1 1 1 1 1 
1 1 1 1 1 1 1 1 1 
1 1 1 1 1 1 1 1 1 
1 1 1 1 1 1 1 1 1 
1 1 1 1 1 1 1 1 1 
1 1 1 1 1 1 1 1 1 
1 1 1 1 1 1 1 1 1 
1 1 1 1 1 1 1 1 1 
1 1 1 1 1 1 1 1 1 
1 1 1 1 1 1 1 1 1 
1 1 1 1 1 1 2 2 2 
2 2 2 2 2 2 2 2 2 
2 2 2 2 2 2 2 2 2 
2 2 2 2 2 2 2 2 2 
2 2 2 2 2 2 2 2 2 
2 2 2 2 2 2 2 2 2 
2 2 2 2 2 2 2 2 2 
2 2 2 2 2 2 2 2 2 
2 2 2 2 2 2 2 2 2 
2 2 2 2 2 2 2 2 2 
2 2 2 2 2 2 2 2 2 
2 2 2 2 2 2 2 2 2 
2 2 2 2 2 2 2 2 2 
2 2 2 2 2 2 2 2 2 
2 2 2 2 2 2 2 2 2 
2 2 2 2 2 2 2 2 2 
2 2 2 2 2 2 2 2 2 
2 2 2 2 2 2 2 2 2 
2 2 2 2 2 2 2 2 2 
2 2 2 2 2 2 2 2 2 
2 2 2 2 2 2 2 2 2 
2 2 2 2 2 2 2 2 2 
2 2 2 2 2 2 2 2 2 
2 2 2 2 2 2 2 2 2 
2 2 2 2 2 2 2 2 2 
2 2 2 2 2 2 2 2 2 
2 2 2 2 2 2 2 2 2 
2 2 2 2 2 2 2 2 2 
2 2 2 2 2 2 2 2 2 
2 2 2 2 2 2 2 2 2 
2 2 2 2 2 2 2 2 2 
2 2 2 2 2 2 2 2 2 
2 2 2 2 2 2 2 2 2 
2 2 2 2 2 2 2 2 2 
2 2 2 2 2 2 2 2 2 
2 2 2 2 2 2 2 2 2 
2 2 2 2 2 2 2 2 2 
2 2 2 2 2 2 2 2 2 
2 2 2 2 2 2 2 2 2 
2 2 2 2 2 2 2 2 2 
2 2 2 2 2 2 2 2 2 
2 2 2 2 2 2 2 2 2 
2 2 2 2 2 2 2 2 2 
2 2 2 2 2 2 2 2 2 
2 2 2 2 2 2 2 2 2 
2 2 2 2 2 2 2 2 2 
2 2 2 2 2 2 2 2 2 
2 2 2 2 2 2 2 2 2 
2 2 2 2 2 2 2 2 2 
2 2 2 2 2 2 2 2 2 
2 2 2 2 2 2 2 2 2 
2 2 2 2 2 2 2 2 2 
2 2 2 2 2 2 2 2 2 
2 2 2 2 2 2 2 2 2 
2 2 2 2 2 2 2 2 2 
2 2 2 2 2 2 2 2 2 
2 2 2 2 2 2 2 2 2 
2 2 2 2 2 2 2 2 2 
2 2 2 2 2 2 2 2 2 
2 2 2 2 2 2 2 2 2 
2 2 2 2 2 2 2 2 2 
2 2 2 2 2 2 2 2 2 
2 2 2 2 2 2 2 2 2 
2 2 2 2 2 2 2 2 2 
2 2 2 2 2 2 2 2 2 
2 2 2 2 2 2 2 2 2 
2 2 2 2 2 2 2 2 2 
2 2 2 2 2 2 2 2 2 
2 2 2 2 2 2 2 2 2 
2 2 2 2 2 2 2 2 2 
2 2 2 3 3 3 3 3 3 
3 3 3 3 3 3 3 3 3 
3 3 3 3 3 3 3 3 3 
3 3 3 3 4 4 4 4 4 
4 4 4 4 4 4 4 4 4 
4 4 4 4 4 4 4 4 4 
4 4 4 4 4 4 4 4 4 
4 4 4 4 4 4 4 4 4 
4 4 4 4 4 4 4 4 4 
4 4 4 4 4 4 4 4 4 
4 4 4 4 4 4 4 4 4 
4 4 4 4 4 4 4 4 4 
4 4 4 4 4 4 4 4 4 
4 4 4 4 4 4 4 4 4 
4 4 4 4 4 4 4 4 4 
4 4 4 4 4 4 4 4 4 
4 4 4 4 4 4 4 4 4 
4 4 4 4 4 4 4 4 4 
4 4 4 4 4 4 4 4 4 
4 4 4 4 4 4 4 4 4 
4 4 4 4 4 4 4 4 4 
4 4 4 4 4 4 4 4 4 
4 4 4 4 4 4 4 4 4 
4 4 4 4 4 4 4 4 4 
4 4 4 4 4 4 4 4 4 
4 4 4 4 4 4 4 4 4 
4 4 4 4 4 4 4 4 4 
4 4 4 4 4 4 4 4 4 
4 4 4 4 4 4 4 4 4 
4 4 4 4 4 4 4 4 4 
4 4 4 4 4 4 4 4 4 
4 4 4 4 4 4 4 4 4 
4 4 4 4 4 4 4 4 4 
4 4 4 4 4 4 4 4 4 
4 4 4 4 4 4 4 4 4 
4 4 4 4 4 4 4 4 4 
4 4 4 4 4 4 4 4 4 
4 4 4 4 4 4 4 4 4 
4 4 4 4 4 4 4 4 4 
4 4 4 4 4 4 4 4 4 
4 4 4 4 4 4 4 4 4 
4 4 4 4 4 4 4 4 4 
4 4 4 4 4 4 4 4 4 
4 4 4 4 4 4 4 4 4 
4 4 4 4 4 4 4 4 4 
4 4 4 4 4 4 4 4 4 
4 4 4 4 4 4 4 4 4 
4 4 4 4 4 4 4 4 4 
4 4 4 4 4 4 4 4 4 
4 4 4 4 4 4 4 4 4 
4 4 4 4 4 4 4 4 4 
4 4 4 4 4 4 4 4 4 
4 4 4 4 4 4 4 4 4 
4 4 4 4 4 4 4 4 4 
4 4 4 4 4 4 4 4 4 
4 4 4 4 4 4 4 4 4 
4 4 4 4 4 4 4 4 4 
4 4 4 4 4 4 4 4 4 
4 4 4 4 4 4 4 4 4 
4 4 4 4 4 4 4 4 4 
4 4 4 4 4 4 4 4 4 
4 4 4 4 4 4 4 4 4 
4 4 4 4 4 4 4 4 4 
4 4 4 4 4 4 4 4 4 
4 4 4 4 4 4 4 4 4 
4 4 4 4 4 4 4 4 4 
4 4 4 4 4 4 4 4 4 
4 4 4 4 4 4 4 4 4 
4 4 4 4 4 4 4 4 4 
4 4 4 4 4 4 4 4 4 
4 4 4 4 4 4 4 4 4 
4 4 4 4 4 4 4 4 4 
4 4 4 4 4 4 4 4 4 
4 4 4 4 4 4 4 4 4 
4 4 4 4 4 4 4 4 4 
4 4 4 4 4 4 4 4 4 
4 4 4 4 4 4 4 4 4 
4 4 4 4 4 4 4 4 4 
4 4 4 4 4 4 4 4 4 
4 4 4 4 4 4 4 4 4 
4 4 4 4 4 4 4 4 4 
4 4 4 4 4 4 4 4 4 
4 4 4 4 4 4 4 4 4 
4 4 4 4 4 4 4 4 4 
4 4 4 4 4 4 4 4 4 
4 4 4 4 4 4 4 4 4 
4 4 4 4 4 4 4 4 4 
4 4 4 4 4 4 4 4 4 
4 4 4 4 4 4 4 4 4 
4 4 4 4 4 4 4 4 4 
4 4 4 4 4 4 4 4 4 
4 4 4 4 4 4 4 4 4 
4 4 4 4 4 4 4 4 4 
4 4 4 4 4 4 4 4 4 
4 4 4 4 4 4 4 4 4 
4 4 4 4 4 4 4 4 4 
4 4 4 4 4 4 4 4 4 
4 4 4 4 4 4 4 4 4 
4 4 4 4 4 4 4 4 4 
4 4 4 4 4 4 4 4 4 
4 4 4 4 4 4 4 4 4 
4 4 4 4 4 4 4 4 4 
4 4 4 4 4 4 4 4 4 
4 4 4 4 4 4 4 4 4 
4 4 4 4 4 4 4 4 4 
4 4 4 4 4 4 4 4 4 
4 4 4 4 4 4 4 4 4 
4 4 4 4 4 4 4 4 4 
4 4 4 4 4 4 4 4 4 
4 4 4 4 4 4 4 4 4 
4 4 4 4 4 4 4 4 4 
4 4 4 4 4 4 4 4 4 
4 5 5 5 5 5 5 5 5 
5 5 5 5 5 5 5 5 5 
5 5 5 5 5 5 5 5 5 
5 5 5 5 5 5 5 5 5 
5 5 5 5 5 5 5 5 5 
5 5 5 5 5 5 5 5 5 
5 5 5 5 5 5 5 5 5 
5 5 5 5 5 5 5 5 5 
5 5 5 5 5 5 5 5 5 
5 5 5 5 5 5 5 5 5 
5 5 5 
area 1 1947 double
2.4328041077 2.726713419 2.7267122269 2.4328039904 2.4328035116 1.0830690961 2.7267132889 1.0830683119 0.2707380866 
0.47155013125 0.6149955464 0.30120461391 1.083068704 2.7267120968 0.16653054944 2.4328041077 0.35273775748 0.031156822498 
0.093257406404 0.13552307886 0.017116792219 0.022291038177 0.028635938897 0.049533031877 0.14321413361 0.072849591157 0.10348099662 
0.15476860312 0.015475936884 0.011614481406 0.009021098648 0.049163053622 0.010106541867 0.021887477528 0.014898798768 0.045970107456 
0.017116792219 0.009021098475 0.541534352 0.12031641762 0.037077379877 0.031156822498 0.010106541867 0.020213083733 0.036647307167 
0.026562699839 0.015745418196 0.0090210981291 0.012293413774 0.015745418196 0.009021098302 0.01516780537 0.0090210981291 0.0090210983885 
0.0090210983885 0.031215912004 0.051920915398 0.023810009648 0.021612174462 0.031215912004 0.025222527225 0.029529305622 0.06577058631 
0.026882049693 0.026882049693 0.017116792219 0.017116792219 0.019622537422 0.011614481406 0.017256294162 0.011614481406 0.018373825626 
0.011614481406 0.020713925498 0.015420390639 0.020098889445 0.028480228281 0.028027960381 0.013183208431 0.12031641762 0.35637081807 
0.14213823737 0.1464463954 0.094186439843 0.12031641762 0.1528305441 0.24879095659 0.21766330801 0.19506430205 0.4427896365 
0.60955989361 1.6436441929 0.75349158994 1.6436439889 0.89015219497 0.047206392811 0.52619220029 0.66555651447 0.23542725049 
0.14536255071 1.182527032 1.6678581153 1.5077222362 0.019091447744 0.010862147288 0.02829045706 0.52619220029 0.081270290342 
1.5077222362 1.6678581153 1.182527032 0.14900544286 0.66555651447 0.022500567567 0.22960497566 0.25287639365 0.021808032085 
0.10074939679 0.08729379411 0.083209173474 0.0060276903607 0.036368569293 0.010219099128 0.074936968293 0.0061577855362 0.010761878312 
0.028839213849 0.016073840962 0.0040184602405 0.020697824942 0.0079870271815 0.031948108726 0.038182895489 0.04975246115 0.0654871156 
0.025187349197 0.0077634748109 0.010875310368 0.016267419372 0.008036920481 0.0040184602405 0.024484542116 0.013646718599 0.038296118662 
0.03120264619 0.008036920481 0.0040184602405 0.0025872281178 0.016225065236 0.0056251418918 0.038539240038 0.053524245287 0.0054520080212 
0.050374698395 0.0050374708003 0.023745705088 0.019501806472 0.0061577855362 0.022477343914 0.013880255678 0.0085487140302 0.010348912471 
0.031053899244 0.020149883201 0.027678135828 0.22231919136 0.076956640655 0.066447321364 0.0060276903607 0.0040184602405 0.0020092301202 
0.0020092301202 0.0060276903607 0.0060276903607 0.0020092301202 0.0020092301202 0.0094475411586 0.0079870271815 0.0025872281178 0.0051744562356 
0.0077634748109 0.0092458671588 0.0025187354002 0.0025187354002 0.037790164634 0.031948108726 0.010348912471 0.020697824942 0.036983468635 
0.031053899244 0.010074941601 0.010074941601 0.0061577855362 0.005469821262 0.0087143014227 0.0053042338695 0.0094948989845 0.014358577173 
0.014995908833 0.011990500271 0.01633804635 0.0093671210367 0.0098821739112 0.009392874993 0.011242146073 0.0046835605183 0.0046835605183 
0.018215795595 0.010291756577 0.01097210494 0.026108606417 0.027852901817 0.013839067914 0.013839067914 0.055356271656 0.042529471714 
0.021427943254 0.038247489592 0.019123744796 0.019123744796 0.019091447744 0.04975246115 0.26087359189 0.26087359189 0.17716935699 
0.12597656 0.031494139999 0.0050591387569 0.026735612093 0.12597656 0.17716935699 0.17857952438 0.18749999627 0.046874999069 
0.0042058302209 0.031494139999 0.093749998137 0.18749999627 0.035120639795 0.26369392668 0.14956752602 0.019048482601 0.0073172430069 
0.035120639795 0.26369392668 0.14956752602 0.019048482601 0.0073172430069 0.029268972028 0.056153564892 0.029268972028 0.097802782927 
0.012195405012 0.014823149001 0.0080503339297 0.016987725774 0.0074072522766 0.013645795425 0.0099683144479 0.0073172430069 0.0040418289487 
0.0068434924534 0.0039769020955 0.029268972028 0.056153564892 0.029268972028 0.073209100671 0.020440978854 0.056153564892 0.073209100671 
0.020440978854 0.035120639795 0.13184696334 0.14956752602 0.019048482601 0.0073172430069 0.035120639795 0.036420997559 0.047834370991 
0.019048482601 0.0073172430069 0.0062725949361 0.016817265172 0.023387978669 0.0046838106184 0.0085367835081 0.035120639795 0.0070435949815 
0.051809703271 0.040996128911 0.027084561198 0.0051102447135 0.035120639795 0.13184696334 0.14956752602 0.019048482601 0.0073172430069 
0.076160678229 0.037966517408 0.0065134292891 0.018547803636 0.0039705206322 0.011687568433 0.0076464801297 0.0033448451719 0.014602602881 
0.037966517408 0.0049100145681 0.013048651262 0.0047621206502 0.064288628777 0.0051102447135 0.0051102447135 0.064288628777 0.0047621206502 
0.0047621206502 0.076160678229 0.0051102447135 0.0051102447135 0.064288628777 0.0047621206502 0.0023810603251 0.052654931494 0.0051102447135 
0.0073172430069 0.039952682889 0.0047621206502 0.0047621206502 0.064288628777 0.0051102447135 0.020440978854 0.048216471583 0.048216471583 
0.0091602292184 0.048216471583 0.048216471583 0.016072157194 0.048216471583 0.019048482601 0.070056885195 0.26087359189 0.020440978854 
0.019048482601 0.10470589309 0.065218397972 0.0067042465957 0.004268391754 0.0022069982934 0.0041245964556 0.0033521232978 0.017073567016 
0.0030488512529 0.0053423274224 0.017648077723 0.0041829784925 0.026735612093 0.0072135162459 0.020440978854 0.0095242413003 0.035028442598 
0.023463800626 0.020440978854 0.019048482601 0.10470589309 0.031702079219 0.029268972028 0.019048482601 0.070056885195 0.26087359189 
0.200760323 0.018547803636 0.029268972028 0.019048482601 0.018585458322 0.0088279931737 0.0054682956586 0.02797655155 0.0023941847998 
0.0010173698718 0.0038189637926 0.0030488512529 0.002353238335 0.0018293107517 0.0060977025058 0.0010315276427 0.0026426268278 0.012903780344 
0.0077771119686 0.0042072050519 0.0030488512529 0.0073938878339 0.0074688833669 0.0080002697194 0.023463554809 0.010756158244 0.0098392684978 
0.015979336419 0.004268391754 0.0056308327552 0.025247739201 0.011920396158 0.014665764367 0.0086647213624 0.0089796150881 0.086104294542 
0.096464824627 0.051192796989 0.039907015375 0.096464824627 0.15157295849 0.076160678229 0.086104294542 0.12239646518 0.15157295849 
0.011863091067 0.0093553990664 0.023463554809 0.0049731432994 0.0081886990426 0.0030393515012 0.002119725149 0.0053670532823 0.0077780863377 
0.012568238792 0.007071072298 0.014928571375 0.0033962708515 0.0072982728141 0.013101013179 0.0028071472308 0.0053168575213 0.0023184754545 
0.0036968936384 0.0078920972941 0.0037777028976 0.0023184754545 0.0047458146761 0.0023315436019 0.0030076145795 0.009095779687 0.0055806101369 
0.00694214793 0.0048196422905 0.0048951087849 0.0092378956115 0.0072215142285 0.013101013179 0.0087407148541 0.011851605002 0.008532716261 
0.0082141090201 0.0079442332672 0.015359802111 0.0078053413129 0.011529373918 0.012969019332 0.025229571296 0.014271058299 0.049101980949 
0.038801265115 0.018547803636 0.018547803636 0.0044335862341 0.006245113272 0.0070018391606 0.010014654694 0.013046197008 0.014612866356 
0.0057061651023 0.012705001706 0.009837838791 0.0026050269692 0.013285364922 0.0024794078438 0.012546425749 0.0084126424558 0.0095826505447 
0.0024490663107 0.0091064906029 0.00315441305 0.0067979814606 0.0048213161099 0.0041667588768 0.00358179889 0.0026262163316 0.0077453678538 
0.0093327441624 0.011082536036 0.0061699736006 0.0021385323759 0.0043306089006 0.0032621502274 0.0074244758815 0.0039311568193 0.031494139999 
0.05214337006 0.051305139738 0.036195664719 0.10261027948 0.0088279931737 0.0073172430069 0.0088279931737 0.0073172430069 0.0023810603251 
0.0023810603251 0.0073172430069 0.0088279931737 0.0073172430069 0.0088279931737 0.0023810603251 0.0023810603251 0.0023810603251 0.0023810603251 
0.0073172430069 0.0088279931737 0.0023810603251 0.0023810603251 0.0023810603251 0.0047621206502 0.0073172430069 0.0088279931737 0.0088279931737 
0.0073172430069 0.0023810603251 0.0023810603251 0.0023810603251 0.0023810603251 0.0041808075985 0.0030488512529 0.0012775611784 0.0023810603251 
0.0011905301625 0.0012775611784 0.0018293107517 0.00080213623289 0.00059526508127 0.00059526508127 0.0013433365812 0.00080213623289 0.002257991957 
0.0027985333313 0.0018293107517 0.0018293107517 0.0027521434123 0.0020869940949 0.0018293107517 0.001944212376 0.0021598183281 0.0018293107517 
0.0018293107517 0.004268391754 0.0035490249163 0.0027171106287 0.0030488512529 0.0030488512529 0.004438118865 0.0026426268278 0.0038885559843 
0.0038885559843 0.0032958190071 0.0036596073565 0.0064518901722 0.0038189637926 0.0027963724813 0.0023184754545 0.0023184754545 0.0033522908163 
0.0034274968109 0.0028071472308 0.0023184754545 0.0041451379405 0.0041087454037 0.0049220206629 0.0032088042403 0.0050980653573 0.0042394502981 
0.004377173474 0.0047653469524 0.0050480091726 0.0042221358972 0.002119725149 0.0058353681924 0.0034017678837 0.0034017678837 0.012319445751 
0.019546870967 0.0052138175515 0.0041041281126 0.0096759806534 0.0071929021837 0.0054244111523 0.0055186076471 0.0062552546292 0.0075444279109 
0.013240847836 0.0023184754545 0.0023184754545 0.0023184754545 0.0050720532353 0.0023184754545 0.0040237043035 0.0030076145795 0.007952091804 
0.0023315436019 0.0050720532353 0.002817269181 0.0042058302209 0.0036520646419 0.0066876070622 0.0047835686497 0.0039486067648 0.0077784427728 
0.0048544202097 0.0024794078438 0.0031920975124 0.0034235225166 0.0024794078438 0.0048544202097 0.0058078038265 0.0087288180206 0.0097982409893 
0.0026262163316 0.004081054298 0.002757079293 0.0018602034159 0.0024168613358 0.0038310039105 0.0083900420313 0.0021385323121 0.0034568710299 
0.0049072981806 0.0040488462643 0.0039839194111 0.006535338327 0.0030656148964 0.0047929540985 0.0063665728582 0.0041674145465 0.0092157065553 
0.0052004602671 0.0077780863377 0.0054244111523 0.0073172430069 0.011852916924 0.0039367674999 0.0032077962874 0.0039367674999 0.002977315614 
0.003457041557 0.002747321368 0.0028566258813 0.010810725016 0.0065531381735 0.0026711637112 0.0030488512529 0.0031364354084 0.004268391754 
0.005633537088 0.0054501357035 0.0082141090201 0.029268972028 0.0044866709118 0.035311972695 0.011814298605 0.010299920861 0.0095242413003 
0.0095242413003 0.029268972028 0.035311972695 0.0095242413003 0.0095242413003 0.0079302394182 0.0040050285538 0.0030488512529 0.0036586215035 
0.0030488512529 0.0033521232978 0.0030488512529 0.029268972028 0.035311972695 0.0095242413003 0.019048482601 0.029268972028 0.035311972695 
0.0095242413003 0.0095242413003 0.035311972695 0.029268972028 0.0095242413003 0.0095242413003 0.035311972695 0.029268972028 0.0095242413003 
0.0095242413003 0.0095242413003 0.0051102447135 0.0058900409448 0.011863091067 0.0083141848408 0.0083141848408 0.013828403078 0.0057538487297 
0.0091495137647 0.010052844748 0.0087538974254 0.0031853722309 0.0029969875534 0.0026262163316 0.0060332546593 0.0029296874418 0.0031180721193 
0.0065965571445 0.0032991371853 0.0027129966517 0.0023483167492 0.0046227725176 0.0037770266993 0.0086478696605 0.0068719363277 0.0057061651023 
0.0074441595719 0.010284935615 0.0057917300786 0.0088117302288 0.010801480018 0.01431567555 0.006510080494 0.008608385132 0.0070018391606 
0.0058106748591 0.012640744925 0.011422212709 0.019068856751 0.0090719879771 0.0070018391606 0.011957707567 0.015554244175 0.0070286798823 
0.0080503339297 0.0046062302961 0.0054244111523 0.0054214466993 0.0061221944585 0.0057926506357 0.0043624021282 0.0035779750539 0.0054883825568 
0.0052232758643 0.0072756131637 0.0052060495872 0.0061604869438 0.0097853761976 0.008121363339 0.0073172430069 0.0073172430069 0.004333707991 
0.0092927291609 0.0068427607387 0.0084373982045 0.0084380432472 0.0035023844471 0.0068679310617 0.0049333729777 0.0097779995089 0.0052085856973 
0.014478768334 0.0096477774352 0.013453386606 0.018574513726 0.018547803636 0.0084560327159 0.010784475662 0.00413950794 0.004268391754 
0.004268391754 0.0060409543673 0.00413950794 0.0075364882593 0.014968248306 0.0099044592987 0.0083564487299 0.010123086721 0.025029234991 
0.032024792519 0.0071987869653 0.021360694868 0.014415938554 0.0068561081272 0.0072002609931 0.0076657682797 0.0052914273057 0.007340904286 
0.015119581294 0.024148271721 0.0079008281466 0.0072725843388 0.0077548577977 0.0080463479744 0.014453432998 0.031494139999 0.018547803636 
0.031494139999 0.018547803636 0.01547872605 0.014769103882 0.016530245927 0.012907041866 0.030511336898 0.027887432107 0.039270643538 
0.017789688196 0.030116223343 0.030116223343 0.024108235791 0.028007356642 0.039952682889 0.028007356642 0.047101084812 0.029216517135 
0.047101084812 0.029216517135 0.027466824378 0.046874999069 0.063151768867 0.023463800626 0.04334092497 0.023463800626 0.034271137194 
0.054490275051 0.031494139999 0.060921650894 0.05738554954 0.023463800626 0.050686577695 0.045099662568 0.0425349632 0.040845473668 
0.072779850704 0.046874999069 0.093749998137 0.056517086137 0.075479434216 0.10039782031 0.075786479246 0.20522055895 0.20522055895 
0.074191214545 0.10039782031 0.074191214545 0.17608553429 0.17608553429 0.17608553429 0.17608553429 0.085895384578 0.1517799162 
0.085895384578 0.1517799162 0.085895384578 0.1517799162 0.085895384578 0.1517799162 0.042947692289 0.042947692289 0.042947692289 
0.17890361276 0.042947692289 0.042947692289 0.17890361276 0.042947692289 0.042947692289 0.17890361276 0.042947692289 0.17890361276 
0.090190149711 0.090190149711 0.090190149711 0.090190149711 0.26087359189 0.26087359189 0.17857952438 0.091907648639 0.023339704649 
0.008870703132 0.023837732788 0.091907648639 0.17857952438 0.17857952438 0.18749999627 0.046874999069 0.0078514538817 0.031494139999 
0.093749998137 0.26087359189 1.2198346778 2.9296875 1.2198345762 1.2198345762 1.2198346778 2.9296875 0.41992185498 
2.9296873603 1.2198346778 1.2198346778 0.10187514015 1.2198345762 1.2198346778 1.2198346778 0.089100549188 0.40264578903 
1.2198346778 1.2198346778 0.089100549188 0.14216932201 1.2198346778 1.2198346778 0.25195310498 0.43945309008 1.2198346778 
2.9296875 0.41992185498 1.2198345762 1.2198346778 1.2198346778 1.2198345762 1.2198345762 0.035120639795 0.26369392668 
0.14956752602 0.019048482601 0.0073172430069 0.035120639795 0.26369392668 0.14956752602 0.019048482601 0.0073172430069 0.029268972028 
0.073209100671 0.029268972028 0.056153564892 0.0085367835081 0.012624952133 0.011058364837 0.0070435949815 0.011486617463 0.022443589681 
0.0099683144479 0.0051102447135 0.007080912399 0.010764582773 0.0080449100536 0.029268972028 0.097802782927 0.029268972028 0.056153564892 
0.020440978854 0.073209100671 0.073209100671 0.020440978854 0.035120639795 0.13184696334 0.14956752602 0.019048482601 0.0073172430069 
0.035120639795 0.043259239639 0.039270643538 0.019048482601 0.0073172430069 0.0063265289692 0.017931895253 0.028765318145 0.0042394502981 
0.012195405012 0.035120639795 0.0090713810232 0.13184696334 0.040996128911 0.027084561198 0.0073172430069 0.035120639795 0.26369392668 
0.14956752602 0.019048482601 0.0051102447135 0.010318785949 0.026362244664 0.0049100145681 0.012464729818 0.0034248800696 0.0074334085523 
0.0061563338859 0.0045041601967 0.0084561338653 0.026148036172 0.017179319784 0.0095130582545 0.17098528656 0.027684257896 0.02746581813 
0.071248002849 0.13265576681 0.048493879477 0.10425053428 0.027661182936 0.030356132712 0.034489669332 0.10425573546 0.047990856349 
0.018002288253 0.01998695722 0.013862031981 0.014806023598 0.051645978437 0.066638527193 0.056678080978 0.025152379916 0.030329781399 
0.03783410427 0.049290044495 0.027684257896 0.17098528656 0.02746581813 0.071248002849 0.13265576681 0.048493879477 0.10425053428 
0.027661182936 0.1122053092 0.034489669332 0.10425573546 0.06959253504 0.011425667936 0.018282261752 0.039469215799 0.048066823799 