# vtk DataFile Version 5.1
vtk output
ASCII
DATASET STRUCTURED_POINTS
DIMENSIONS 20 20 20
SPACING 0.1 0.1 0.1
ORIGIN -0.95 -0.95 0.55
POINT_DATA 8000
FIELD FieldData 1
potential 1 8000 double
0.025430294858 0.027403671702 0.029406757688 0.031382457974 0.03326580841 0.034988447813 0.03648152912 0.037677577446 0.0385156793 
0.038949004847 0.038952002951 0.038524711136 0.037692734052 0.036502978481 0.035016355071 0.033300225959 0.031422905173 0.029451425221 
0.027449635319 0.025473929648 0.022544011172 0.024118866853 0.02569840546 0.027238298988 0.028689517742 0.03000253815 0.031129422473 
0.032025011382 0.032649008593 0.032970610559 0.032972941481 0.032656117116 0.032037064532 0.031146770572 0.030025425312 0.028718132805 
0.027272305582 0.025736384435 0.024158246151 0.022581554274 0.020034236471 0.021296159407 0.02254863752 0.023757899438 0.02488731154 
0.025900583642 0.026763459916 0.027444564458 0.027916749665 0.028159331174 0.028161120937 0.027922226199 0.027454066125 0.026777300134 
0.025919106831 0.024910749371 0.023785971713 0.022580257471 0.021329200163 0.020065941585 0.017853870171 0.018870053736 0.019869302512 
0.020826086188 0.021713287793 0.022504014638 0.023173304656 0.023698694272 0.024061269953 0.024246935364 0.024248248454 0.024065351144 
0.023705896801 0.023183996033 0.022518548961 0.02173183078 0.020848480901 0.019894712335 0.018896964256 0.017880089545 0.015964239968 
0.016787411832 0.017589963785 0.018352893722 0.019055930751 0.019679218105 0.020204289318 0.020614656708 0.020896736584 0.021040776669 
0.021041650864 0.02089953406 0.020619786289 0.020212230305 0.019690295229 0.019070191363 0.018370212098 0.017609861503 0.016808845205 
0.015985797141 0.014330210777 0.01500125597 0.015650524274 0.016263623633 0.016825548897 0.017321549633 0.017737716252 0.018061836004 
0.018283906236 0.018396918503 0.018397375414 0.018285445258 0.018065026565 0.017743120038 0.01732949566 0.016836180952 0.016276779276 
0.015665922856 0.01501833076 0.014348056125 0.012918030404 0.013468615396 0.013997611261 0.014494216427 0.014947186442 0.015345394508 
0.015678405871 0.01593705065 0.016113798074 0.016203434052 0.016203512514 0.016114273847 0.015938544777 0.015681575941 0.015350671517 
0.014954741062 0.014504012013 0.014009460824 0.013482194629 0.012932771059 0.01169475758 0.012149393567 0.012583485722 0.012988814816 
0.013356935077 0.013679418193 0.0139483229 0.014156714038 0.014298862337 0.014370826413 0.014370629276 0.014298534604 0.014156896788 
0.013949731309 0.013682572131 0.013362117793 0.012996064999 0.012592657073 0.012160294046 0.011706951612 0.010629388414 0.011007085348 
0.011365702716 0.011699020865 0.012000562445 0.012263946509 0.012483042209 0.012652471958 0.012767881827 0.012826174794 0.012825816771 
0.012767053666 0.012651766271 0.012483180109 0.012265581861 0.01200408917 0.011704486117 0.011373021611 0.01101599093 0.010639422093 
0.0096938481759 0.010009542172 0.010307741935 0.010583754865 0.010832584436 0.011049299824 0.011229207238 0.011368192772 0.01146279872 
0.011510523327 0.011510095484 0.011461726292 0.011367026611 0.011228653337 0.011049991658 0.010834970495 0.010587967291 0.010313696454 
0.010016880674 0.0097020416735 0.0088648987234 0.0091303037649 0.0093798403771 0.0096099121487 0.0098166461553 0.0099962061425 0.010145014003 
0.010259867109 0.010338023557 0.010377401875 0.010376951596 0.010336833617 0.010258409241 0.010143909676 0.0099961023454 0.0098180224464 
0.0096129863972 0.0093844854409 0.0091361510186 0.0088713787679 0.0081255509931 0.00835015469 0.0085603503603 0.0087533376238 0.0089261676608 
0.0090758417663 0.0091996609549 0.0092950782915 0.0093600012979 0.0093926842076 0.0093922143343 0.0093586957291 0.0092932825398 0.0091978956682 
0.0090747198815 0.0089261893029 0.0087548005586 0.0085632506782 0.0083542154525 0.0081302526291 0.007464848004 0.0076562538387 0.0078345294914 
0.0079974838095 0.008142808151 0.0082682687902 0.008371762659 0.0084514042815 0.0085055351477 0.008532699471 0.0085321389176 0.0085039403139 
0.0084490264574 0.008369032679 0.0082657261325 0.0081409739054 0.0079967634096 0.0078351176948 0.0076581114168 0.0074677295913 0.0068753911167 
0.0070395515667 0.0071917775341 0.0073302585377 0.0074532335975 0.0075589687575 0.0076459202429 0.0077126433306 0.0077578275661 0.0077803533717 
0.0077796702389 0.0077558199843 0.0077094945098 0.0076419835007 0.0075547482559 0.0074492462877 0.0073270554096 0.0071898074769 0.0070391164828 
0.0068765285163 0.0063507875266 0.0064923337668 0.006623070139 0.0067414714098 0.0068461437703 0.0069357639594 0.0070092304439 0.0070654042915 
0.0071032834866 0.0071220466439 0.0071211860251 0.0071007653477 0.0070613858089 0.0070040269576 0.0069298643575 0.0068401226379 0.00673601471 
0.0066188465106 0.0064899147242 0.0063505131899 0.0058842583478 0.006006788853 0.0061195707402 0.006221358343 0.0063110158863 0.0063875083024 
0.0064499877443 0.0064975882635 0.0065295256104 0.0065451337094 0.0065440706348 0.0065264015408 0.0064926292503 0.0064435657551 0.0063801437251 
0.0063033638103 0.0062142113297 0.0061137302097 0.0060030034963 0.005883036986 0.0054684347987 0.0055748001579 0.0056724930582 0.0057604230885 
0.0058376238177 0.0059033325397 0.0059568173459 0.0059974337238 0.0060245400875 0.0060375906484 0.0060363195712 0.0060208440217 0.0059916286175 
0.0059493712093 0.0058948661492 0.0058288819512 0.0057522411619 0.0056657522068 0.0055702841442 0.0054667035866 0.0050952748961 0.0051878496914 
0.0052727574471 0.0053490252485 0.0054158616232 0.0054726104987 0.0055187103958 0.0055536280579 0.005576801832 0.005587800082 0.0055863721998 
0.0055726942456 0.0055472443579 0.0055106485801 0.0054635924482 0.0054066667239 0.0053404966728 0.005265757505 0.0051831459145 0.0050934002828 
0.0047567964305 0.0048375572484 0.0049115738619 0.0049779984087 0.0050361051553 0.0050853706692 0.0051253445838 0.0051555965474 0.0051756272889 
0.0051849741671 0.0051834856451 0.005171374038 0.00514907678 0.0051172533201 0.0050764543042 0.0050271555772 0.0049698098946 0.0049049464574 
0.0048331813544 0.0047550785086 0.0044462837219 0.0045168895455 0.0045816012423 0.004639644774 0.0046903782531 0.0047333353948 0.0047681977898 
0.0047945795025 0.0048120517769 0.0048201625273 0.0048187202223 0.0048079436904 0.0047883513886 0.0047605694497 0.0047250889031 0.0046822324312 
0.0046323412644 0.0045757988554 0.0045131629298 0.0044449426289 0.028283245663 0.030341826508 0.032419287297 0.034460898176 0.036402865989 
0.038175605389 0.039707766624 0.040930825898 0.041784885332 0.042225297804 0.042228150024 0.041793450719 0.040944977128 0.039727454986 
0.038200596473 0.036432730427 0.034494833365 0.032455810198 0.030378914057 0.02831856557 0.025206684109 0.026869084538 0.028528235068 
0.030141249009 0.031659833086 0.033033045157 0.034210171815 0.035143578021 0.035792278309 0.036125884908 0.036128156383 0.035799084456 
0.035155014175 0.034226242069 0.03305367703 0.031684791454 0.030169857801 0.028559295783 0.026900859892 0.025237080358 0.022515601287 
0.023862692686 0.025193972609 0.026476214559 0.027672913532 0.028746468891 0.029660294179 0.030380734827 0.030879267589 0.031134981812 
0.031136756854 0.030884661041 0.0303898653 0.029673254967 0.028763329232 0.0276934952 0.026500016199 0.025220029308 0.023889559365 
0.022541507822 0.020163758506 0.021259893681 0.022333694054 0.023359579092 0.024309970377 0.025156859278 0.025873510174 0.026435726048 
0.026823332438 0.02702166533 0.027023063762 0.026827537505 0.026442916151 0.025883807801 0.025170351702 0.024326561261 0.023378954415 
0.022355101668 0.021282222589 0.020185575303 0.018110463146 0.019006663947 0.019877714209 0.020703939543 0.021464490329 0.022138423261 
0.022705933007 0.023149301489 0.023453954534 0.023609529928 0.023610546773 0.02345710508 0.023154724304 0.02271387143 0.022149004794 
0.021477677015 0.020719485202 0.019895078927 0.01902502438 0.018128761486 0.01631911684 0.017055763232 0.017766605405 0.018436593159 
0.019049829963 0.019590585662 0.020044060572 0.020397133842 0.020639039491 0.020762265595 0.020762935479 0.020641173702 0.020400959471 
0.020049909835 0.019598562804 0.019059982573 0.018448777288 0.017780497771 0.017070756763 0.016334494463 0.014755953586 0.01536476241 
0.015948435403 0.016495402813 0.016993552122 0.017430946566 0.017796396591 0.01808010906 0.018274043888 0.018372614994 0.018373004035 
0.018275350212 0.018082609445 0.01780043816 0.017436720538 0.017001175317 0.016504829777 0.015959463257 0.01537695006 0.014768808439 
0.013389374259 0.013895323073 0.014377537425 0.014827048841 0.015234611689 0.01559117502 0.015888146223 0.016118086096 0.016274973402 
0.016354571127 0.01635473013 0.016275624193 0.016119510816 0.01589070649 0.01559518074 0.015240265082 0.014834295341 0.014386234632 
0.013905198949 0.013400039487 0.012190367104 0.012613148249 0.013013963932 0.01338585007 0.01372167188 0.014014459403 0.014257687336 
0.014445604982 0.014573555537 0.014638355806 0.014638365048 0.014573718567 0.014446193887 0.014259143158 0.014017127012 0.013725734175 
0.013391365133 0.013020844711 0.012621157508 0.012199158216 0.011133148363 0.011488356702 0.011823496528 0.012133102155 0.012411674753 
0.012653785238 0.012854434888 0.013009178366 0.013114412268 0.013167612846 0.013167499334 0.013114202891 0.013009181813 0.012855065391 
0.012655386104 0.012414484084 0.01213724405 0.011828889111 0.011494781311 0.011140263692 0.010195934491 0.010495973423 0.010777772714 
0.011037104987 0.011269683978 0.011471220463 0.011637865764 0.011766167543 0.011853311022 0.011897291617 0.011897103604 0.011852864669 
0.011765708643 0.011637771535 0.011471866056 0.011271350552 0.011039970643 0.010781789789 0.010500945128 0.010201519726 0.0093612902062 
0.0096161356068 0.0098544872881 0.010072992289 0.010268271283 0.01043706273 0.010576316819 0.010683348818 0.010755948189 0.010792538653 
0.01079227021 0.010755239528 0.010682417803 0.010575505388 0.010436716497 0.010268737293 0.010074459425 0.0098570259395 0.0096195957416 
0.0093654320675 0.008616013107 0.0088336621523 0.0090364065513 0.0092215731592 0.0093865122879 0.0095286617229 0.0096456501435 0.0097353955549 
0.0097961804361 0.0098267514022 0.0098263934704 0.0097951619293 0.0097339142084 0.0096439953211 0.0095272065985 0.0093856205525 0.009221503826 
0.0090373042263 0.0088355556863 0.0086187968488 0.0079498138471 0.0081366473459 0.0083100674175 0.0084678649137 0.0086079656253 0.008728335848 
0.0088271517712 0.0089027810776 0.0089538499868 0.0089794169298 0.0089789434189 0.0089524685104 0.0089006687606 0.0088245827904 0.0087256672865 
0.0086055792473 0.008466147395 0.0083093014527 0.0081370143967 0.0079513583476 0.0073540513085 0.0075151816186 0.0076642513687 0.0077994577475 
0.0079190456739 0.0080215361177 0.0081054472994 0.0081695162596 0.0082126705169 0.0082341555675 0.0082335426695 0.0082109023364 0.0081667460244 
0.0081019600887 0.0080176921976 0.007915285387 0.0077962340587 0.0076619931248 0.0075142231929 0.0073545901738 0.006820668046 0.0069601958702 
0.0070889065489 0.0072053116209 0.0073080209374 0.0073957596377 0.0074673978255 0.0075219597713 0.0075586070963 0.007576698496 0.0075759517907 
0.0075564291629 0.0075185619471 0.0074630658887 0.0073909032379 0.0073031359518 0.0072009239642 0.0070855415056 0.0069582891968 0.0068204884107 
0.0063420172836 0.0064632547526 0.0065748381519 0.006675508788 0.0067640881945 0.0068396059856 0.0069011225084 0.0069478345201 0.0069791129007 
0.0069944334354 0.0069935648223 0.0069765987403 0.0069439079302 0.0068961184275 0.0068340036117 0.006758420435 0.0066703476603 0.0065707599752 
0.00646073703 0.0063413857222 0.0059104934329 0.0060161715391 0.0061132398367 0.0062006427976 0.0062774161762 0.0063427252878 0.0063958303181 
0.0064360729901 0.0064629104738 0.006475938176 0.0064750009319 0.0064601576932 0.0064317929216 0.006390430481 0.0063367214883 0.0062713699518 
0.0061951451803 0.0061088648538 0.0060133991215 0.0059096858114 0.0055190710395 0.0056114131924 0.005696132792 0.0057723105883 0.0058391186794 
0.0058958597991 0.005941940943 0.0059768084983 0.006000003987 0.0060111705339 0.0060101834968 0.0059971516061 0.0059724285216 0.0059364701772 
0.005889840679 0.0058331076925 0.005766893178 0.0056918747414 0.0056087446884 0.0055182559343 0.0051617615842 0.0052426626222 0.005316818392 
0.0053834338321 0.0054417943924 0.0054913021044 0.005531470009 0.0055618318421 0.005582009596 0.0055916664997 0.0055907038921 0.005579243706 
0.0055575940903 0.0055262203049 0.0054855971542 0.0054361680143 0.0053784419469 0.0053129350877 0.0052402772876 0.0051611525188 0.030637542426 
0.032724133727 0.034815830708 0.036859888249 0.038794882326 0.040553735763 0.042067806976 0.043272032724 0.044110421135 0.044541816616 
0.044544387803 0.044118036831 0.043284613316 0.042085080719 0.040575282715 0.038820190532 0.036888078611 0.034845722708 0.032754255811 
0.030666306329 0.027453368068 0.029158148745 0.030850246671 0.032488035368 0.034024529521 0.035409851992 0.036594067353 0.037530623316 
0.038180063485 0.038513443905 0.038515514559 0.038186262305 0.037540938726 0.036608336241 0.035427849886 0.034045869579 0.032512014936 
0.03087587112 0.0291841296 0.027478293018 0.02464667155 0.026043042741 0.027416652741 0.028734888021 0.029961857016 0.031060145175 
0.031993198774 0.032727444589 0.033234719518 0.033494532441 0.033496205803 0.033239728309 0.03273583157 0.032004879647 0.031075005759 
0.029979590817 0.028755004546 0.027438320694 0.026065177698 0.024668079304 0.022175965937 0.023323505571 0.024443247364 0.025509717048 
0.026495382459 0.027372237566 0.028113137093 0.028693635438 0.029093358433 0.029297713657 0.029299065769 0.029097391187 0.028700386831 
0.028122630586 0.027384359316 0.026509962032 0.025526344806 0.024461324619 0.023342170854 0.022194238086 0.020002881078 0.0209496027 
0.02186663875 0.022734163008 0.023531078152 0.024236112939 0.024829096361 0.025291899283 0.025609676732 0.025771816025 0.025772863528 
0.02561280299 0.025297206105 0.024836612324 0.024245850299 0.023542893402 0.022747811177 0.021881645405 0.020965291807 0.02001850223 
0.018092449533 0.018876874953 0.01963167554 0.020341374638 0.02098976414 0.021560692859 0.022038919425 0.022410919044 0.022665668591 
0.022795430221 0.022796188519 0.022667989527 0.022414909162 0.022044708604 0.02156831213 0.020999171278 0.02035237104 0.019643934643 
0.018889906114 0.018105687314 0.016412141499 0.017065112042 0.017689648876 0.018273613195 0.018804537563 0.019270080335 0.019658607789 
0.01995996272 0.020165905259 0.020270613734 0.020271147507 0.020167555369 0.019962853049 0.019662898816 0.019275870127 0.018811870639 
0.018282362938 0.017699569251 0.017075880118 0.016423318184 0.0149322273 0.015478339312 0.015997808335 0.016481135028 0.016918647659 
0.017300805374 0.017618793871 0.017864758693 0.018032534007 0.018117713853 0.018118041001 0.018033618714 0.017866752712 0.017621854523 
0.017305131026 0.016924275763 0.016488033025 0.01600579286 0.015487160147 0.014941570707 0.013625570402 0.014084532833 0.014518925154 
0.014921282025 0.01528405445 0.015599850369 0.015861860179 0.01606411228 0.016201773227 0.016271571583 0.016271760208 0.016202437289 
0.016065373327 0.015863951746 0.015602949958 0.015288264106 0.01492661334 0.014525290205 0.014091725698 0.013633321547 0.012468128415 
0.012855709367 0.013220899421 0.013557740505 0.013860344962 0.014122927061 0.014340262191 0.014507693207 0.014621502601 0.014679073567 
0.014679140968 0.014621779113 0.014508359391 0.014341529688 0.014125016621 0.013863357666 0.013561760423 0.013225866001 0.012861472681 
0.012474465648 0.011439189896 0.011768064799 0.012076600046 0.012360143672 0.012614046983 0.012833749817 0.013015136004 0.013154600429 
0.013249280958 0.013297101843 0.01329708502 0.01324927579 0.013154777825 0.013015689302 0.012834909033 0.012615995297 0.012362967451 
0.012080311765 0.01177253061 0.011444214012 0.010521375826 0.010801784333 0.011063826393 0.011303786903 0.01151795723 0.01170280085 
0.011855107663 0.011971986772 0.012051193731 0.012091156627 0.012091041833 0.01205091632 0.011971670763 0.011854972176 0.011703078954 
0.011518852505 0.011305440581 0.011066294638 0.010804999316 0.010525218208 0.009700574126 0.0099407521052 0.010164426006 0.010368548713 
0.010550196167 0.010706564084 0.010835090801 0.010933569004 0.011000200579 0.011033755995 0.011033557572 0.010999618204 0.010932752057 
0.010834247274 0.01070593474 0.010550030775 0.010369016609 0.010165663679 0.0099427816836 0.0097033232115 0.0089651060293 0.0091717657283 
0.0093635936394 0.0095381126485 0.0096929626951 0.0098259221949 0.0099349782589 0.010018358489 0.010074632114 0.010102887602 0.010102582392 
0.010073754532 0.010017038482 0.0099334188794 0.009824387205 0.0096917146609 0.0095374019139 0.0093636289913 0.0091726711466 0.0089669130033 
0.0083050789059 0.0084836304709 0.008648879268 0.0087988019809 0.0089314294685 0.0090450534145 0.0091380405589 0.0092090094428 0.009256827052 
0.0092807287291 0.0092803215836 0.0092556499738 0.0092071921336 0.0091358100486 0.0090426676015 0.0089292035881 0.0087970472305 0.0086478769112 
0.008483590251 0.0083061263316 0.0077116310671 0.0078665131865 0.0080094567317 0.0081388080435 0.0082530001429 0.008350587801 0.0084302651041 
0.0084909615109 0.0085317721808 0.0085520748134 0.0085515678282 0.008530312837 0.008488703452 0.0084274363834 0.0083474796502 0.0082499754335 
0.0081362198434 0.0080076572314 0.0078657599539 0.0077121116517 0.0071768374072 0.0073116340917 0.0074357768059 0.0075478459746 0.0076465738291 
0.007730755651 0.0077993838122 0.0078515484394 0.0078865230353 0.0079038487897 0.0079032640503 0.0078848382332 0.0078489146404 0.007796079571 
0.0077271026654 0.0076429598016 0.0075446756008 0.0074334043419 0.0073103903843 0.0071769265234 0.006693225523 0.0068109119912 0.0069190872023 
0.0070165685108 0.0071022731159 0.0071752430383 0.0072346151554 0.007279658476 0.0073098033838 0.0073246362327 0.0073240044891 0.0073079547936 
0.0072767909773 0.0072310135412 0.0071712789767 0.0070983427247 0.0070130811834 0.0069164374337 0.0068094354155 0.006693129051 0.0062541191109 
0.0063571615145 0.0064517263414 0.0065368148877 0.0066115153233 0.0066750190033 0.0067266129846 0.0067657022621 0.0067918047866 0.0068045930589 
0.0068039297446 0.006789886751 0.0067627445316 0.0067229231678 0.0066709699555 0.0066075164969 0.006533285285 0.0064490523988 0.0063556374103 
0.0062539526168 0.0058537710141 0.0059442339587 0.0060271464098 0.0061016621747 0.0061669952288 0.0062224752937 0.006267496166 0.0063015652165 
0.0063242857164 0.0063353703076 0.0063347198307 0.0063224088565 0.00629866387 0.0062638937657 0.0062185502594 0.0061631638354 0.0060983119411 
0.006024627844 0.005942827348 0.0058537045192 0.032523779557 0.034591432862 0.036649547644 0.038647829728 0.040528562715 0.042229313426 
0.043686850233 0.044841692286 0.045643426437 0.04605507707 0.046057281578 0.045649946801 0.044852427617 0.043701467584 0.042247430473 
0.040549584092 0.038670965264 0.036673870004 0.034615825926 0.032547120087 0.029301270859 0.03100999373 0.032696035429 0.034319452774 
0.035835501592 0.037196922159 0.038356719806 0.039271261143 0.039903933069 0.040228188917 0.040229994194 0.039909357148 0.03928018981 
0.038368953812 0.037212241856 0.035853408829 0.034339324156 0.032717094379 0.031031260918 0.029321732699 0.026437152995 0.027851564334 
0.029236021781 0.030558931029 0.031785674584 0.032880330026 0.033807813456 0.034536020713 0.035038171152 0.03529506173 0.035296576751 
0.03504269075 0.03454343447 0.033818044054 0.032893151019 0.031800749194 0.030575794368 0.029254004224 0.027869854799 0.026454927935 
0.023896404851 0.025069998182 0.026210330043 0.027292485004 0.028289634212 0.029174380187 0.029920402847 0.030503838286 0.030905029061 
0.031109928129 0.031111156494 0.030908730414 0.030509940455 0.029928860031 0.029185052552 0.028302249071 0.027306697559 0.026225605085 
0.025085662331 0.023911799361 0.021645156651 0.022621888863 0.023564630147 0.024453686621 0.025268268755 0.025987379154 0.026591104819 
0.02706165309 0.027384363829 0.027548897152 0.027549874502 0.027387296538 0.027066552555 0.026597978452 0.025996091028 0.025278662812 
0.024465525172 0.023577490431 0.022635247314 0.021658455599 0.019651515175 0.020467252736 0.021249806001 0.02198361387 0.022652520644 
0.023240436561 0.023732108577 0.024114073889 0.024375471861 0.02450854811 0.024509306595 0.024377754945 0.024117921533 0.0237375142 
0.023247422692 0.022661001518 0.021993370567 0.021260514615 0.020478514362 0.019662918348 0.017885625777 0.01856952003 0.019221946518 
0.019830580747 0.020382829969 0.020866227766 0.021269173998 0.021581340321 0.021794520237 0.021902887295 0.021903457681 0.021796245759 
0.021584285106 0.021273379284 0.020871766166 0.020389609164 0.01983848637 0.019230743136 0.018578928039 0.017895317628 0.016319959795 
0.016895639838 0.017442038422 0.01794939052 0.018407811462 0.018807627701 0.019139861928 0.0193966551 0.019571671434 0.019660525828 
0.019660938845 0.019572943528 0.019398851758 0.019143068127 0.018811904633 0.01841315475 0.017955734509 0.017449230509 0.016903470918 
0.01632815656 0.01492951208 0.015416130577 0.015875842468 0.01630088549 0.016683501233 0.017016088952 0.017291697083 0.017504242884 
0.017648871182 0.017722183206 0.017722466892 0.017649743189 0.017505805705 0.017294040798 0.017019298801 0.01668761815 0.016305899636 
0.015881649215 0.015422574753 0.014936390675 0.013691924623 0.014104980886 0.014493569305 0.014851445046 0.015172460752 0.01545067147 
0.015680645583 0.01585765376 0.01597791233 0.016038788626 0.016038950801 0.015978460216 0.015858664224 0.015682239028 0.015452970335 
0.015175517257 0.014855292626 0.014498168309 0.014110198442 0.013697605716 0.012587560366 0.012939661459 0.01326959567 0.013572376091 
0.013843146983 0.01407716079 0.014270132594 0.014418394121 0.014518970451 0.014569827467 0.014569902332 0.014519240274 0.014418930792 
0.014271074686 0.014078621118 0.013845253961 0.013575180446 0.013273109393 0.012943787897 0.012592151409 0.011599539494 0.01190097025 
0.012182383283 0.012439782297 0.012669266744 0.012867120433 0.013029927279 0.013154813906 0.013239407659 0.013282092677 0.013282085398 
0.013239398402 0.013154913342 0.01303025232 0.012867818877 0.012670497585 0.01244161993 0.012184853126 0.011904048833 0.011603149574 
0.010713573477 0.010972663115 0.011213763909 0.011433617702 0.011629082438 0.011797186014 0.011935248621 0.01204093342 0.012112424828 
0.012148475192 0.012148383551 0.012112166184 0.012040601347 0.011934976169 0.011797162101 0.011629437176 0.011434504108 0.01121525587 
0.010974789247 0.010716300548 0.0099174834091 0.01014107525 0.010348508573 0.010537143089 0.010704405815 0.010847932062 0.010965566889 
0.011055439683 0.011116153002 0.011146681556 0.011146495776 0.011115646319 0.011054701862 0.010964751089 0.010847196719 0.010703952708 
0.010537137215 0.010349100798 0.010142337181 0.0099194554306 0.0092008143266 0.0093944757631 0.0095736796499 0.0097361704311 0.0098799644617 
0.010003067434 0.010103779868 0.010180615138 0.010232428201 0.010258398604 0.010258137471 0.010231685129 0.01017950348 0.010102434998 
0.010001699613 0.0098787837025 0.0097354037402 0.0095735019548 0.0093950358001 0.009202159317 0.008554266889 0.0087226525133 0.0088780505015 
0.0090186632711 0.009142790593 0.0092488644264 0.0093354754191 0.0094014481802 0.0094458500538 0.0094680428915 0.009467717252 0.0094449080901 
0.0093999937461 0.0093336868663 0.0092469544355 0.0091410103303 0.0090172624448 0.0088772625465 0.0087226400179 0.0085551527667 0.0079697611903 
0.0081166406621 0.0082518913604 0.0083740150078 0.0084816121932 0.0085733679476 0.0086481940974 0.0087050871989 0.008743305427 0.0087623495708 
0.0087619680178 0.0087421955036 0.0087033645695 0.0086460526577 0.0085710501826 0.0084793785287 0.0083721510979 0.0082506419809 0.0081162164038 
0.0079703240006 0.0074398618703 0.007568360263 0.0076864774057 0.0077929246266 0.0078865585908 0.0079662785894 0.0080311691483 0.0080804424008 
0.0081134971955 0.0081299025895 0.008129469719 0.0081122667816 0.0080785345037 0.0080287970268 0.0079636877951 0.0078840336362 0.0077907759845 
0.0076849595879 0.0075677141986 0.0074402188791 0.0069580066748 0.007070753841 0.0071742147355 0.0072673200623 0.0073490793753 0.0074186123223 
0.0074751271633 0.0075179809329 0.0075466868734 0.0075608896489 0.0075604516444 0.007545397356 0.0075159933086 0.0074726539206 0.0074159132077 
0.007346457969 0.0072650695381 0.0071726141326 0.007070001005 0.0069582491626 0.0065185049651 0.0066177000792 0.0067085962718 0.0067902820948 
0.0068619203253 0.0069227728498 0.0069721778015 0.0070096208153 0.0070346317551 0.0070469761776 0.0070465378572 0.0070333421207 0.0070076249989 
0.0069697109254 0.0069200982946 0.0068593375487 0.0067880705788 0.0067070195339 0.006616962962 0.006518779334 0.033985158332 0.035998217281 
0.0379877202 0.039906573295 0.041701644721 0.04331624207 0.044693525044 0.045780707798 0.046533253987 0.046918941448 0.046920755793 
0.046538692882 0.045789592387 0.044705589372 0.043331103288 0.041718785364 0.039925326196 0.038007317994 0.036017840731 0.034003985622 
0.030779668508 0.03246169224 0.034111394151 0.035691033492 0.037158879008 0.038471236243 0.03958501696 0.040460615188 0.041064925835 
0.041374130044 0.041375686606 0.041069566914 0.040468173535 0.039595313745 0.038483981261 0.037173645882 0.035707291004 0.034128522243 
0.032478950676 0.030796348141 0.027906939977 0.029313474463 0.030683225153 0.031985995117 0.033189075562 0.03425877712 0.035162386098 
0.03587004686 0.036357145887 0.036605968171 0.036607283097 0.036361046844 0.035876448568 0.035171133131 0.034269655802 0.033201716098 
0.031999993457 0.030698063826 0.029328544915 0.027921635232 0.025338703476 0.026516748863 0.02765648397 0.028733780176 0.029723030755 
0.030598219626 0.031334283159 0.031908763409 0.032303199519 0.032504377811 0.032505458574 0.032306431237 0.031914116391 0.031341612357 
0.030607371738 0.029733783783 0.028745778232 0.027669282537 0.02652987053 0.025351623518 0.023046400759 0.024035296733 0.024986244751 
0.025880023181 0.026696516818 0.027415578974 0.0280179707 0.028486648401 0.028807707715 0.028971234751 0.028972119724 0.028810345966 
0.028491032929 0.028024025705 0.027423208177 0.026705546443 0.025890182094 0.024997172011 0.024046610389 0.023057665573 0.021002054321 
0.021834451297 0.022630448654 0.023374744368 0.024051475029 0.024644944284 0.025140446764 0.025524843121 0.025787580404 0.025921242975 
0.025921953169 0.025789701343 0.02552837441 0.025145345988 0.024651199562 0.024058929976 0.023383222326 0.022639693914 0.021844131742 
0.021011841567 0.019179171184 0.0198820196 0.020550696526 0.021172958807 0.021736320205 0.02222852614 0.022638147277 0.022955137601 
0.023171421916 0.023281299338 0.023281856969 0.023173083848 0.022957952799 0.02264210262 0.022233593936 0.021742420401 0.021179954369 
0.020558400654 0.019890209341 0.019187577088 0.017552897086 0.018148365817 0.018712216116 0.019234655781 0.019705800263 0.020116038461 
0.020456456623 0.020719310759 0.02089832441 0.020989149508 0.020989582878 0.020899610859 0.020721487027 0.020459561024 0.020120067138 
0.019710716809 0.019240386262 0.018718618986 0.01815527166 0.017560101923 0.016100486511 0.016606793006 0.017084124215 0.017524663943 
0.017920519061 0.018264132092 0.018548520176 0.018767616897 0.018916614767 0.018992133181 0.018992442891 0.018917574944 0.018769270153 
0.018550882663 0.018267253307 0.017924404096 0.017529276753 0.017089374734 0.016612546138 0.016106611142 0.014801419687 0.01523344688 
0.01563915066 0.01601223658 0.016346362673 0.016635588674 0.016874383193 0.017058012639 0.017182704287 0.017245828823 0.017246048877 
0.01718336965 0.01705917713 0.016876096228 0.016637909901 0.016349350609 0.016015856362 0.015643363487 0.015238181395 0.014806534437 
0.013637280938 0.014007321503 0.014353530946 0.014670818305 0.014954160915 0.015198790464 0.01540032086 0.015555007818 0.015659918076 
0.015712953453 0.01571308873 0.015660326624 0.015555758838 0.015401464974 0.015200423171 0.014956323439 0.014673546236 0.014356830439 
0.014011125689 0.013641505858 0.012592044985 0.012910143295 0.013206783313 0.01347778597 0.013719129502 0.013926976405 0.014097875754 
0.014228862917 0.014317547575 0.014362328349 0.014362384697 0.014317724357 0.014229219069 0.014098486788 0.013927952271 0.013720551241 
0.013479706193 0.013209214557 0.012913083307 0.012595432379 0.011651698628 0.011926162242 0.012181313995 0.01241376276 0.012620224694 
0.012797642125 0.012943230187 0.013054632061 0.013129961737 0.013167945976 0.013167922065 0.013129921834 0.013054627905 0.012943366536 
0.012798013152 0.012620944446 0.012414908929 0.012182953163 0.011928318616 0.011654356178 0.010804112124 0.01104176553 0.011262069558 
0.011462254677 0.011639640963 0.011791746698 0.011916338536 0.012011481203 0.012075770798 0.012108127562 0.012108038394 0.012075530114 
0.012011160563 0.011916020761 0.011791563412 0.011639724994 0.011462714619 0.011263008004 0.011043243113 0.010806150824 0.010038719975 
0.010245174944 0.010436063022 0.010609132804 0.010762164892 0.010893124667 0.011000216354 0.011081903637 0.011137006962 0.011164682384 
0.011164531096 0.011136579938 0.011081279167 0.010999495329 0.010892452633 0.01076169028 0.010609006927 0.010436416212 0.010246100638 
0.010040242972 0.0093461507286 0.00952615673 0.0096921838515 0.0098423600192 0.0099748831868 0.010088100084 0.010180531974 0.010250940664 
0.010298356737 0.010322128653 0.010321923213 0.010297771907 0.010250052251 0.010179464097 0.010087009758 0.0099739385818 0.0098417346928 
0.0096920381739 0.0095265879771 0.0093472669962 0.008718249159 0.0088756489649 0.0090205349632 0.0091513386025 0.0092665314175 0.0093647660877 
0.0094448688821 0.0095058024756 0.0095467779754 0.0095672779074 0.0095670198358 0.0095460604512 0.0095047008565 0.0094435162272 0.0093633475009 
0.0092652213335 0.0091503228387 0.0090200095684 0.0088757451119 0.0087190783398 0.0081476487526 0.0082856822068 0.0084125151306 0.0085267985177 