# vtk DataFile Version 5.1
vtk output
ASCII
DATASET STRUCTURED_POINTS
DIMENSIONS 20 20 20
SPACING 0.1 0.1 0.1
ORIGIN -0.95 -0.95 0.55
POINT_DATA 8000
FIELD FieldData 1
potential 1 8000 double
0.030081556853 0.032347752252 0.034906723001 0.037814582233 0.041151184321 0.045028367526 0.049594817039 0.055041776954 0.061611096729 
0.069609215511 0.079421651319 0.091516962048 0.10641580154 0.12459656822 0.14630932505 0.17132997517 0.19879211268 0.22728330269 
0.25523622572 0.28137574575 0.029408402336 0.031575694864 0.034021069029 0.036797407904 0.039977653448 0.043661326291 0.047979597852 
0.053100015418 0.059232396531 0.066638276606 0.075638503446 0.086610139796 0.099952580456 0.11600164002 0.1348806119 0.15632238522 
0.17957289835 0.20349634162 0.22688104996 0.24876288803 0.028671359551 0.03073106132 0.033051245158 0.035681070949 0.038685396393 
0.042150612013 0.0461885374 0.05093944666 0.056577449824 0.063313514335 0.071398707256 0.081114250342 0.092740009973 0.10648411953 
0.12237575044 0.14015395009 0.15922198194 0.17873685172 0.19782052918 0.21576991411 0.02789287388 0.029840809301 0.032029211106 
0.03450275895 0.037318013389 0.040547926004 0.044284435089 0.048641409144 0.053756408163 0.059791550664 0.066931521958 0.075372517065 
0.085293874074 0.096806664433 0.10988511476 0.12430330325 0.13962018368 0.15524505353 0.17056891993 0.18509526134 0.027098212246 
0.028933167952 0.030987610312 0.033300625413 0.035920405501 0.038907188296 0.04233499779 0.046292496167 0.050884540003 0.056230351248 
0.062459095527 0.069699047639 0.078055780397 0.087577458273 0.098213816067 0.10978410363 0.12197578793 0.13438822401 0.14661036285 
0.15829665083 0.026307556974 0.028030383551 0.029951285191 0.032103749253 0.034528340039 0.037273207945 0.040396579759 0.043965823909 
0.048058333371 0.052758260337 0.058152058224 0.064319541019 0.071317217569 0.079157270452 0.087784435264 0.097060603861 0.10676882735 
0.11664077253 0.12640092404 0.13581116728 0.025532331807 0.027145147083 0.028935276867 0.030930854343 0.033165153794 0.03567616242 
0.03850867087 0.04171272771 0.045343918859 0.049459738303 0.054116013302 0.059359856578 0.065218013366 0.071685048818 0.078709798028 
0.086189646764 0.093974352333 0.10188336072 0.10973155403 0.11735428322 0.024775276224 0.026281233513 0.027945001853 0.029789770539 
0.031842241037 0.03413228587 0.03669340647 0.039562072706 0.04277756554 0.046377658047 0.050397454057 0.054863186851 0.059785432496 
0.065150737228 0.070916193549 0.077005856341 0.083314980229 0.089720515157 0.096096142576 0.10232704718 0.024031902546 0.025435277245 
0.026978177073 0.02867977659 0.030561190738 0.032645418698 0.034957450017 0.037523402017 0.04036981573 0.043521527329 0.04699961182 
0.0508176083 0.054977561527 0.059464159762 0.064242490415 0.069256557301 0.074432287448 0.07968403295 0.084923891661 0.090070630141 
0.023294440708 0.024599815835 0.026028162554 0.027595076562 0.029317171717 0.031211830131 0.033297371303 0.035592324794 0.038114368827 
0.040879265534 0.043898933168 0.047179664316 0.050719009417 0.054503032763 0.058503708202 0.062679228901 0.066976405619 0.071334458271 
0.075690874899 0.079987231905 0.02255713378 0.023769879524 0.025090500217 0.026531509534 0.028106007969 0.029826996564 0.031707891386 
0.033761724257 0.035999706735 0.038431587112 0.041063374439 0.043897572458 0.046929602998 0.050147405536 0.053528840363 0.057042599762 
0.060649551692 0.064305853357 0.06796622508 0.071588071576 0.021821960248 0.022947872535 0.024167898204 0.025492146915 0.026930784121 
0.028493607703 0.03019038616 0.032029998678 0.034019479597 0.036164549658 0.038467762914 0.040929170633 0.043543684464 0.046300769628 
0.049183333939 0.052167654115 0.05522471714 0.058322036162 0.061426789389 0.064507236288 0.021098368742 0.02214357293 0.023270539472 
0.024487311872 0.025801805933 0.027221540781 0.028753412475 0.030403422344 0.03217590898 0.034073817785 0.036097945086 0.038246612208 
0.040515269813 0.042894571381 0.045371262419 0.047927180754 0.050540763811 0.053187993735 0.055844203225 0.058485814627 0.020398562597 
0.021369088663 0.022410444068 0.023529019293 0.024731072618 0.026022245512 0.027407385747 0.028890479055 0.030473900776 0.032158883268 
0.03394526496 0.035830840594 0.037811164159 0.039878547015 0.042022293779 0.044228844888 0.046481879391 0.048763344789 0.051054845548 
0.053338205362 0.019731974544 0.020633491945 0.021596440523 0.022625817151 0.023726617136 0.024903031898 0.02615840385 0.027495144958 
0.028914216481 0.030415889422 0.031999463775 0.03366274957 0.035401437713 0.037209567637 0.039078669255 0.040998226235 0.042956210467 
0.044938684666 0.046931614221 0.04892075331 0.019102478093 0.019940243556 0.020831528347 0.02178024601 0.022790293305 0.023864706797 
0.02500567682 0.026214326555 0.027490818291 0.02883441712 0.030244615437 0.031719072396 0.033254371245 0.034845772403 0.036486713005 
0.038169166676 0.039883829617 0.041620011888 0.043366787322 0.045112834091 0.018507956289 0.019286867625 0.020112740419 0.020988547646 
0.021917272153 0.022901063531 0.023941125225 0.025037749266 0.026190299793 0.027397736044 0.02865881801 0.029972390277 0.031335559385 
0.032744522467 0.034194533597 0.035679264652 0.037191449139 0.038723072775 0.040265110577 0.041808787991 0.017940723352 0.01866547979 
0.019431606312 0.020241452048 0.021097040646 0.02199983785 0.022950536169 0.023948715975 0.024993146255 0.026082578279 0.027215448797 
0.028390978025 0.029607475085 0.030861967994 0.032150899877 0.033469294959 0.034811351968 0.036170798913 0.037540891571 0.038914132861 
0.017390149857 0.018064913961 0.018776414028 0.019526161801 0.020315574428 0.021145634358 0.022016553012 0.022927678629 0.023877339186 
0.024863859118 0.025885609001 0.026942238015 0.028032675163 0.029155325234 0.030307039584 0.031483959508 0.032681480949 0.03389449842 
0.035117910781 0.036345481501 0.016847441437 0.017475865814 0.018137023987 0.018831787094 0.019560910338 0.020325052364 0.021124272548 
0.021957753541 0.022823588 0.023719700738 0.024644667699 0.025597718164 0.02657910418 0.027587925246 0.028621767889 0.029677504357 
0.030750958772 0.031838142762 0.032934681795 0.034036061236 0.034680445739 0.037207866876 0.040057001009 0.043288474362 0.046982089796 
0.051242390682 0.056201928948 0.062026426876 0.068918956856 0.077124318974 0.086929753171 0.098653527625 0.1126098342 0.12903939313 
0.14800384719 0.16927367984 0.1922712789 0.21613222267 0.23988448617 0.26266429692 0.033928919123 0.0363535081 0.039082247333 
0.042171299309 0.045693488742 0.049742440274 0.054436337369 0.05992064801 0.066372665679 0.07400161882 0.083047915632 0.093768671506 
0.10640585893 0.12112472454 0.13792971729 0.15658242497 0.17657081415 0.19717179725 0.21759927297 0.23716823392 0.033120258067 
0.035432752239 0.038029539793 0.040961595493 0.04429388923 0.048108134949 0.052506301313 0.057611875716 0.063572802143 0.070559988155 
0.078763699052 0.08837893028 0.099577382426 0.11245839918 0.12698744147 0.14294227978 0.15990074047 0.17729467328 0.19451972656 
0.21105217401 0.03227004334 0.034464549143 0.036921582218 0.039686814419 0.042816455433 0.046380664594 0.050464179973 0.055168623217 
0.060612684815 0.066929783777 0.074262615075 0.082750335974 0.092505037025 0.10357560667 0.11590685289 0.12930722619 0.14344748097 
0.15790190444 0.17222371337 0.18602329854 0.031395998524 0.033469542362 0.035782917483 0.038375938832 0.041296780931 0.044603534791 
0.048365532219 0.05266335035 0.057588702558 0.0632418877 0.06972484586 0.077131390388 0.08552802366 0.094930234963 0.10527619259 
0.11640995851 0.12808422599 0.13999004331 0.15180550544 0.16324584035 0.030513678506 0.032465619265 0.034634541743 0.037054519154 
0.039766062165 0.042816196845 0.046260213892 0.050160315662 0.054585556744 0.059608168165 0.065298167202 0.071715099409 0.078894440432 
0.086831973629 0.095468608282 0.10468161483 0.11428953009 0.12407184567 0.13379967912 0.1432674065 0.029633921825 0.031465535877 
0.033491945262 0.035741691881 0.038248197412 0.041048931795 0.04418706775 0.047709558921 0.051666862907 0.056109620101 0.061083803356 
0.06662539261 0.072749878413 0.079443282309 0.086653586899 0.09428653001 0.10221002518 0.11026751377 0.11829664968 0.12614919277 
0.028762396453 0.030476471279 0.032364200293 0.034449350948 0.036758688278 0.039322196239 0.04217239703 0.045344196649 0.048873931836 
0.052795480426 0.057138475075 0.061922788592 0.067152781388 0.072810500073 0.078852466972 0.085206835527 0.091777610744 0.098452925222 
0.1051173995 0.1116636492 0.027900389158 0.029500932388 0.031255526598 0.033183462792 0.035306256285 0.037647153217 0.040230806208 
0.04308251096 0.046227358721 0.049688161809 0.053482871236 0.057621318883 0.062101759427 0.066906102565 0.071998671032 0.077325101636 
0.082815062966 0.088388178372 0.09396092234 0.099455285054 0.027047167339 0.028538982535 0.030166810471 0.031946339022 0.033894542565 
0.036029218738 0.038368722321 0.04093111997 0.043733685828 0.046791129457 0.050113410637 0.053704878352 0.057560273054 0.061663552142 
0.065985704433 0.070485178474 0.075110287695 0.079802246274 0.084500133469 0.089146378674 0.026202565088 0.027591212687 0.029099504964 
0.030739957954 0.032526000461 0.03447109288 0.036588803325 0.038892055377 0.041391900146 0.04409784353 0.047014875064 0.050143915706 
0.053478472989 0.057004526038 0.060698794876 0.064529803839 0.068458483843 0.072441652707 0.07643426969 0.080393254913 0.025369476272 
0.026660954534 0.028057274577 0.029568498469 0.031205012576 0.032977052728 0.034894437014 0.036966276764 0.039199565239 0.041600097504 
0.044169737255 0.046907514912 0.049806793906 0.052855392427 0.056035094908 0.05932145579 0.062685096347 0.066093441955 0.069513072883 
0.072911247224 0.024553810615 0.025754376146 0.027046623633 0.028438491487 0.029938022269 0.031552936644 0.033290357842 0.035156370376 
0.037155716797 0.039290835081 0.041562672136 0.043968540781 0.046502594906 0.049154354956 0.051909407814 0.054748684586 0.057649967045 
0.060588572993 0.063538927901 0.066476417586 0.023762731735 0.024878670453 0.026074676645 0.027356939852 0.028731733743 0.030204783264 
0.031781107957 0.033464900868 0.035258713038 0.0371637694 0.039179670431 0.04130343643 0.043529728827 0.045849847657 0.048252166224 
0.050722000021 0.053242167345 0.055793904524 0.058357655113 0.060914039781 0.023002040695 0.024039479806 0.025146841354 0.026328995377 
0.027590692046 0.028936165648 0.030368901875 0.031891604182 0.033505477321 0.035210679484 0.037006423081 0.038889658743 0.040855434633 
0.042896837932 0.045004545433 0.047167061441 0.049371229627 0.051602295571 0.053845216376 0.056084763623 0.022274366854 0.023239152072 
0.02426515374 0.025356073633 0.026515557143 0.027746665381 0.029051670784 0.03043214598 0.031888517033 0.033420093324 0.035025961761 
0.036703181724 0.038447589128 0.04025363403 0.042113819207 0.044019170249 0.045959325749 0.047922833323 0.049897886832 0.051872318601 
0.021578894333 0.022476494576 0.023427840669 0.024435780242 0.025502952823 0.026631555925 0.027822966139 0.029077907832 0.030396167122 
0.031776810124 0.03321820802 0.034718521718 0.036273993602 0.037880004613 0.039530864462 0.041219453798 0.042937495637 0.044676243481 
0.046425874195 0.04817695859 0.020911505946 0.021747121117 0.022630064229 0.023562385253 0.024546176432 0.025582761249 0.026672872982 
0.027816734114 0.029013565347 0.030262309887 0.031561191487 0.03290862577 0.034301910922 0.035737051967 0.037209783163 0.038714299646 
0.040244125478 0.041792080611 0.043350774982 0.044912055625 0.020266762572 0.02104505839 0.021865190343 0.022728641371 0.023636762925 
0.024590473881 0.025590038883 0.02663521079 0.027724950905 0.028857996154 0.030032594625 0.03124750278 0.032500527424 0.033788983449 
0.035108885951 0.036455938997 0.037824869473 0.039209810639 0.040604826392 0.042003287388 0.019640052714 0.020365315446 0.021127645941 
0.021928088846 0.02276743758 0.023646229145 0.024564375156 0.025521462189 0.026516282654 0.027547285768 0.028613163999 0.029712287627 
0.030843538335 0.032004746544 0.03319304307 0.034404398448 0.035634652665 0.036879063025 0.038132571738 0.039390095075 0.039074065924 
0.041829144202 0.044923678779 0.048418316034 0.052388357964 0.056928745786 0.062155061744 0.068207026506 0.075249482895 0.083471434301 
0.093080277863 0.10428761473 0.11727944112 0.13217014927 0.14894396135 0.16740220769 0.18714471313 0.20760760263 0.22815362119 
0.24818289635 0.038248754293 0.040896343743 0.043864526996 0.047208841645 0.050998346396 0.055318317958 0.060272273571 0.065983232998 
0.072595712546 0.080271252124 0.089184729624 0.099506957165 0.11138045737 0.12487867268 0.13995915884 0.15642482447 0.17391555378 
0.19194627569 0.20998414697 0.2275369371 0.037368638126 0.039899371407 0.042729558207 0.045909653944 0.049500957296 0.053578615397 
0.05823241593 0.063567679674 0.069705872566 0.076780338655 0.0849303879 0.094287143314 0.10495159989 0.11696265471 0.13026164487 
0.1446669145 0.15987284753 0.17548217054 0.19106717544 0.20623692498 0.03644613448 0.03885348321 0.041537683496 0.044543510949 
0.047924510692 0.05174527486 0.05608151035 0.061020638155 0.066661071226 0.073108607639 0.08046935041 0.088838110557 0.098280588946 
0.10880947345 0.12035991703 0.13277391616 0.14580323335 0.15913570174 0.17243929671 0.18541042694 0.035495144276 0.037775186978 
0.040308668042 0.043134578348 0.046298994402 0.049855817716 0.053867536508 0.058404570339 0.063544228011 0.069366913864 0.07595016053 
0.083358800706 0.091631184926 0.10076253035 0.11068894644 0.12127904467 0.13233781177 0.14362674556 0.154894451 0.16590965485 
0.034528595718 0.036679905129 0.039061193881 0.041705753018 0.04465255212 0.047945651088 0.051635423728 0.055777205801 0.060429860061 
0.065652608926 0.071499644652 0.078012696723 0.085210476943 0.093078691134 0.10155887336 0.11054473422 0.11988672428 0.12940580536 
0.13891455395 0.14823912504 0.033556806021 0.035580040603 0.03781035541 0.040275777795 0.043008438981 0.046044183892 0.049422496528 
0.053185777485 0.057377966327 0.062041220846 0.067211717153 0.072914647698 0.07915643193 0.085917582732 0.093147665998 0.1007624588 
0.1086485812 0.11667301637 0.12469659761 0.13258962148 0.032587161344 0.034484690829 0.036567388892 0.038858676299 0.041384646351 
0.044173865951 0.047256738375 0.050665214957 0.054431420441 0.058584054337 0.063146700126 0.068133068725 0.07354208258 0.07935325092 
0.085523796375 0.091988273074 0.098660839612 0.1054428086 0.11223103265 0.11892852069 0.031624110962 0.033399622007 0.035340031434 
0.037464330203 0.039793505667 0.042350045159 0.045157280342 0.048238637974 0.051616635142 0.055310974728 0.05933600675 0.063697835584 
0.068391584459 0.073397474926 0.078680413694 0.084189401188 0.089859556619 0.095617284903 0.10138598635 0.10709252162 0.030670761185 
0.032329071403 0.034133421717 0.036099305271 0.038243440052 0.040583118105 0.043135930733 0.045918832882 0.048947616172 0.052235080685 
0.055789180655 0.059611792013 0.063695701038 0.068023763414 0.072566857629 0.077285251976 0.082129933609 0.087045524938 0.091974771211 
0.096862214271 0.029729780934 0.031276474305 0.032952077602 0.03476903712 0.036740498036 0.038879759572 0.041199933897 0.043713241037 
0.046430097606 0.049358712656 0.052502873501 0.055861932939 0.059428074776 0.063186217754 0.06711282545 0.071177022153 0.075341088141 
0.079563385596 0.083800373976 0.088009948271 0.028804918225 0.030246041617 0.03180061468 0.033478607931 0.035290283683 0.037245746963 
0.039354621082 0.04162544716 0.044065233742 0.046678688329 0.049467135114 0.052428404617 0.055554840356 0.058833464964 0.06224550104 
0.065766443364 0.069367578834 0.073016669411 0.076680870985 0.080327593466 0.027900793759 0.029242711289 0.030684317061 0.032233478347 
0.033898159587 0.035685954147 0.037603790579 0.039657795618 0.04185233075 0.044189452271 0.046669589628 0.049289240099 0.052041778143 
0.054915946852 0.057896650756 0.060964813281 0.064097770728 0.067270957047 0.070458739338 0.073636088378 0.027022317731 0.028271506083 
0.029608177729 0.031038506244 0.032568628202 0.03420421343 0.03595020575 0.037810723197 0.039788284422 0.041883800785 0.044096397371 
0.046422575761 0.048856332613 0.051388222852 0.054006040671 0.056694623926 0.059436352251 0.062212105383 0.065001901469 0.067785923953 
0.026173477674 0.027336309546 0.028575938729 0.029897138701 0.031304604323 0.032802472308 0.034394193781 0.036082515644 0.037868638872 
0.039752497598 0.041733017346 0.043806542714 0.04596755956 0.048208592829 0.050519609614 0.052888541252 0.055301601988 0.057743671281 
0.060199112284 0.062652188129 0.025356281501 0.026438931486 0.027589057087 0.028810340874 0.03010626698 0.031479860326 0.032933429425 
0.034468571856 0.036085845919 0.037784419046 0.039563044824 0.041418279698 0.043345426179 0.045338270441 0.047388678953 0.049487031437 
0.051622461322 0.053782874457 0.055955778835 0.058128735813 0.024570732306 0.02557905345 0.02664678857 0.027776666025 0.028971343879 
0.03023285057 0.031562725664 0.032961750975 0.034429875224 0.035966100149 0.037568537078 0.039234805192 0.040960566164 0.042740598895 
0.044568501185 0.046436531784 0.048335881153 0.050257072931 0.052190051733 0.054124606742 0.023814791619 0.02475440594 0.025746336086 
0.026792714375 0.027895390214 0.029055847948 0.030274787124 0.03155262938 0.032888779164 0.034282187358 0.035730822075 0.037232656898 
0.038784236528 0.04038110641 0.042017958678 0.043688692899 0.045386274256 0.047102911485 0.048830660532 0.050561016307 0.023085711922 
0.023961666764 0.024883866102 0.025853901712 0.026872998844 0.027942074623 0.029061537891 0.030231201972 0.031450349002 0.032717807296 
0.034031536301 0.035389882975 0.036789887441 0.038228215265 0.0397001814 0.041201045914 0.042724956142 0.044265659744 0.04581651228 
0.047370763033 0.022381013053 0.023198056948 0.024056094288 0.024956184107 0.025899166165 0.026885566328 0.027915375138 0.028988229036 
0.030103314266 0.031259175906 0.032454347597 0.033686779399 0.034954552854 0.036254719639 0.037583842689 0.038937395521 0.040310885784 
0.041699139931 0.043096647718 0.044497931271 0.04324240664 0.046189210539 0.049483933933 0.053184011892 0.057358613023 0.062091468854 
0.06748150637 0.073643542801 0.080708567732 0.088818955658 0.09812199589 0.10875609171 0.12082902704 0.1343882988 0.14938874865 
0.1656669118 0.18293585518 0.20080876574 0.21884850433 0.23662774387 0.042349498463 0.045184828922 0.048348787375 0.051893934658 
0.055883416859 0.060393030448 0.065511354599 0.071339981181 0.077993799711 0.085594974819 0.09426778828 0.10412375776 0.11524402475 
0.1276533927 0.14129389001 0.15600629401 0.17152956738 0.18752408713 0.20361453224 0.21944105443 0.041402296657 0.044116929494 
0.04713872736 0.050515375001 0.054303221044 0.058569136591 0.063390452265 0.068854659972 0.07505894473 0.082104771021 0.090091938303 
0.099106292496 0.10920408996 0.12039150862 0.13260463019 0.14569674383 0.15944093687 0.17355081697 0.18771518291 0.20163888885 
0.040411655147 0.042998792896 0.04587045515 0.049068832989 0.052643346024 0.056651841571 0.061159998353 0.066241111767 0.07197465044 
0.078442025842 0.085720075911 0.093871072438 0.10293057843 0.11289101261 0.12368793738 0.13519230654 0.14721418989 0.15951990591 
0.17185916667 0.18399471096 0.039389508794 0.041844904738 0.044561325129 0.04757562407 0.050930555678 0.054674680826 0.058862791019 
0.063554481776 0.068813038192 0.074701176111 0.081275642327 0.088579394751 0.096631368824 0.10541539549 0.11487061781 0.12488750994 
0.13531165205 0.14595725662 0.15662728757 0.16713487784 0.038347288219 0.040668996625 0.04322821043 0.046056697559 0.049190525086 
0.052669943216 0.056539484515 0.060846645947 0.065640235877 0.070967118266 0.076867458415 0.08336882309 0.090478141702 0.098175137087 
0.106404915 0.11507680716 0.12406794152 0.13323338272 0.14242013629 0.15148288496 0.037294978365 0.039483182083 0.041885987953 
0.044530165553 0.047445830424 0.050665840666 0.054225540693 0.058161854406 0.062511724611 0.067308797931 0.072580457698 0.078342787291 
0.084595514814 0.091316020925 0.098456934238 0.1059447394 0.1136828943 0.12155934607 0.12945670012 0.13726259588 0.036240824518 
0.038297498029 0.040546791588 0.043011169147 0.045715190289 0.048685416862 0.051949212435 0.055535025188 0.059469691091 0.063777092132 
0.068474887594 0.073571019061 0.079060720203 0.084921958204 0.091114278875 0.097578981897 0.10424074016 0.11101345349 0.11780705457 
0.12453512578 0.035191070437 0.037119611338 0.03922028022 0.041511456826 0.044013093995 0.046745988399 0.049731735286 0.052991118805 
0.056543568785 0.06040544487 0.06458736606 0.069092010323 0.07391208288 0.079027525562 0.084404315981 0.089995481967 0.095742793925 
0.1015799916 0.10743803647 0.11325024561 0.03415077266 0.035955826016 0.037913888688 0.040040054401 0.042350264885 0.044860818343 
0.047587981702 0.050547106286 0.053751803386 0.057212955738 0.060936100297 0.06492098675 0.069159007833 0.0736325008 0.078313252755 
0.083163918317 0.088139020253 0.093187744679 0.098256856342 0.10329480261 0.03312432302 0.034811291607 0.036633878465 0.03860428216 
0.040735070531 0.043038878243 0.045527943014 0.048213399949 0.051104476743 0.054207925717 0.057526174184 0.061057118385 0.064792038317 
0.06871530702 0.072804225459 0.07702870352 0.08135324655 0.08573852652 0.090143449831 0.094527832203 0.032116065096 0.033690910062 
0.035385714563 0.037210144732 0.039174094142 0.041287253025 0.043558622977 0.045996064969 0.048605897001 0.051391859643 0.05435448623 
0.057490291007 0.060791361979 0.064244089576 0.067829917771 0.071524840263 0.075301028955 0.079127659356 0.082972958884 0.086805335619 
0.031130228156 0.032599352698 0.034174374742 0.035862883322 0.037672630068 0.039610893294 0.041684250226 0.043898278837 0.046257033049 
0.048761914404 0.05141267022 0.054205198863 0.057132273692 0.060182293303 0.063340028908 0.066586432144 0.069899332159 0.073254730697 
0.076627321246 0.079992520215 0.030170871239 0.031540813775 0.033004072744 0.034566676428 0.036234554306 0.038013165887 0.039907233826 
0.041920531055 0.04405540072 0.046312286207 0.048689837844 0.051184225307 0.053788520412 0.056493377405 0.059285985389 0.062151368328 
0.065071615951 0.068027904127 0.071000240212 0.073968953218 0.029241057164 0.030518371308 0.031877855472 0.033324291278 0.034862171013 
0.036495543342 0.038227687947 0.04006102428 0.041996918737 0.044034750595 0.046173139388 0.048408039911 0.050733533593 0.053141694569 
0.055622121561 0.05816249117 0.060748918575 0.063365910667 0.06599781063 0.068628780685 0.028342729489 0.029533689874 0.030797111267 
0.032136684553 0.03355578945 0.035057323878 0.036643498046 0.038315824034 0.040074852964 0.041919600993 0.043847944866 0.045856916245 
0.047940978718 0.050093314092 0.052305725303 0.054568043004 0.056869024541 0.059196648957 0.061537745812 0.063879907574 0.027476363852 
0.028587111572 0.0297617691 0.03100318395 0.032313892806 0.033695916431 0.035150638961 0.036678890219 0.038280670141 0.039954686469 
0.041698852182 0.043510458272 0.045384688356 0.047315858171 0.04929724426 0.051320546731 0.053376733779 0.055455909782 0.057547674254 
0.059641633479 0.026641241065 0.027677508202 0.028770298601 0.029921710779 0.031133564132 0.032407213988 0.033743581849 0.035142794516 
0.036604553811 0.038127608267 0.039709640115 0.041348322355 0.0430397874 0.044779043277 0.046560397829 0.048377317705 0.050222347912 
0.052087433891 0.053964107608 0.055843851136 0.025835979452 0.026803199812 0.027820464262 0.028889341359 0.030011057094 0.031186506804 
0.032416096761 0.033699699624 0.035036700178 0.036425754455 0.037864917014 0.039351630823 0.040882990809 0.042454961974 0.04406247997 
0.045700410909 0.047362402374 0.049041949614 0.050732120284 0.052425954829 0.025059312262 0.025962544357 0.026910182408 0.027903320196 
0.02894274487 0.030029018265 0.031162227791 0.032341938935 0.033567447565 0.034837324667 0.036149990568 0.037502903886 0.038893783408 
0.040319145951 0.041775099924 0.043256773412 0.04475942749 0.046277428785 0.047805057881 0.049336603214 0.047174662981 0.050277754567 
0.053729632884 0.057582990371 0.061899904175 0.06675258611 0.072224265595 0.078407730383 0.085405307518 0.093322765563 0.10226325485 
0.11231624639 0.12354183208 0.135952542 0.14949446371 0.16403516056 0.1793626711 0.19520100732 0.21123826889 0.22716278695 
0.046221053885 0.049209915583 0.052528320803 0.056224801945 0.060355725322 0.064986801682 0.070192533897 0.076055342013 0.082665025012 
0.090112518841 0.098484803416 0.10785346597 0.11826206511 0.12971009252 0.1421376703 0.15541674822 0.16935283736 0.18369949226 
0.19818402488 0.21253785795 0.045213123612 0.048078751059 0.05125282294 0.054779379428 0.058708773668 0.063099375704 0.068016258067 
0.073531025163 0.079719659957 0.086658338713 0.094417043583 0.10305075981 0.11258783079 0.12301760185 0.13427861141 0.14625244445 
0.15876687294 0.17160955606 0.18454862696 0.19735788596 0.04416088373 0.046896451597 0.049918355842 0.053265451825 0.056982270645 
0.061119388185 0.065732702296 0.070882322568 0.076631018965 0.083040375971 0.090164541823 0.098043350404 0.10669257501 0.11609461996 
0.12618969817 0.13687232942 0.14799503396 0.15937941744 0.17083371018 0.18217110826 0.043075102832 0.045676161829 0.048540716237 
0.051702636018 0.055200750009 0.05907768803 0.063380448855 0.068158391207 0.073462091451 0.079339385797 0.085830646692 0.09296287638 
0.10074210239 0.10914665051 0.11812105388 0.12757399397 0.13738236284 0.14739992719 0.15747073041 0.16744364806 0.041966316173 
0.044430728145 0.04713562318 0.050110339122 0.053387815938 0.057003661264 0.06099647066 0.065405910366 0.070271490187 0.075629408871 
0.08150826538 0.087924976005 0.094878555808 0.10234564843 0.11027658078 0.11859422937 0.1271976248 0.13596902291 0.14478350548 
0.15352001457 0.040844291998 0.043171824234 0.045717448461 0.04850608631 0.051565061089 0.054924201407 0.058614001629 0.062666017418 
0.067110119106 0.071972762149 0.077273514217 0.083021477459 0.089211587034 0.095820019587 0.10280355714 0.11009822239 0.11762245532 
0.12528231357 0.1329788672 0.14061592114 0.039717658218 0.041909981248 0.044298814696 0.046905068872 0.049751486216 0.052862015395 
0.056260796201 0.059972161678 0.064018314103 0.068418036629 0.073183873769 0.078319324283 0.08381681005 0.089653955453 0.095793422689 
0.10218302056 0.10875726988 0.11544189255 0.1221588033 0.12883199447 0.038593577299 0.040653726675 0.04289012802 0.045320175205 
0.04796225344 0.050835400327 0.053958738134 0.057350322149 0.061026388808 0.065000004764 0.069278053431 0.073860940879 0.078739346089 
0.083893343677 0.089291182017 0.094890108332 0.10063820249 0.10647675593 0.11234437448 0.11818093467 0.037478206063 0.03941054737 
0.041500263588 0.043761641988 0.046209475863 0.048858781959 0.051724193068 0.054819275929 0.058155170555 0.061740760441 0.065579358182 
0.069668888987 0.073999813045 0.078554529657 0.083306238344 0.088220488089 0.093255615379 0.098365500085 0.10350173509 0.10861683805 
0.036376897518 0.038186586831 0.040136373707 0.04223785 0.044502750913 0.04694282452 0.049569119743 0.052391522312 0.055417710332 
0.058653131556 0.062098727633 0.065751206266 0.069601165664 0.073633181622 0.07782529953 0.082149219264 0.086571922078 0.091056711498 
0.095565515294 0.10006062757 0.035294394599 0.036987309532 0.038804574972 0.04075553456 0.042849479301 0.045095424089 0.047501636434 
0.050075031266 0.052821147336 0.055742278336 0.058838526974 0.062105449624 0.065534716838 0.069112675595 0.072821198559 0.076637317983 
0.080534601584 0.0844840816 0.088455239666 0.092418241496 0.034235018423 0.035817380272 0.037509926603 0.039320164621 0.04125528507 
0.043322171894 0.045526849349 0.047874272924 0.050367755536 0.053008388812 0.055794942087 0.058722934648 0.061784712478 0.064968657402 
0.068259615554 0.071639143265 0.075085824814 0.078576522881 0.082087022359 0.085593255469 0.033202471502 0.034680743958 0.036256555557 
0.037935792368 0.039724092406 0.041626589483 0.043647614665 0.045790574619 0.048057327721 0.050447931801 0.05296056188 0.055590927644 
0.058331885254 0.061173844821 0.064104080674 0.06710773775 0.070167277386 0.073264288589 0.076379306196 0.079492993618 0.032199622554 
0.033580295389 0.035047257806 0.036605136832 0.03825825036 0.04001032331 0.041864504328 0.043822890181 0.045886547952 0.048054554951 
0.050325199333 0.052694089019 0.055154949369 0.057699783132 0.060317934073 0.06299715989 0.06572357555 0.068481937257 0.071256697462 
0.07403214341 0.031228420097 0.03251784189 0.033883644759 0.035329380972 0.036858346485 0.038473207045 0.040176102298 0.041968275417 
0.04385011446 0.04582042661 0.047876790398 0.050015946798 0.052232066718 0.054518043718 0.056865583935 0.059264249772 0.061702820949 
0.064169112275 0.066650177291 0.069133381203 0.030289749512 0.031494119863 0.032766142326 0.034108493195 0.035523622783 0.037013463529 
0.038579367827 0.040221909449 0.04194098714 0.043735339913 0.04560238999 0.047539130085 0.049540785087 0.051601090699 0.05371314053 
0.055868433456 0.05805772872 0.060271024861 0.062497818803 0.064727632343 0.029383586333 0.030508871032 0.031694063882 0.032941260427 
0.034252204168 0.035628200183 0.037070070668 0.038577949327 0.040151288531 0.041788863412 0.043488172091 0.045246486066 0.047059732242 
0.048922627634 0.050829158913 0.052772553787 0.05474503723 0.056738442687 0.0587442315 0.060753568681 0.028509505786 0.029561239994 
0.030666164725 0.031825823838 0.033041388677 0.034313778359 0.035643314466 0.037029829417 0.038472691843 0.039970371039 0.041520981821 
0.043121438687 0.044768660406 0.046458268768 0.048184874817 0.049943097174 0.051726360837 0.053527912109 0.055340626976 0.057157362654 
0.027666854077 0.028650313563 0.029681068316 0.030760185742 0.031888478922 0.033066457157 0.034294206746 0.035571303734 0.03689699657 
0.038269750156 0.039687856393 0.041148546154 0.042649205515 0.044186019506 0.045754819187 0.047350437753 0.048967916271 0.050601345438 