# vtk DataFile Version 5.1
vtk output
ASCII
DATASET STRUCTURED_POINTS
DIMENSIONS 20 20 20
SPACING 0.1 0.1 0.1
ORIGIN -0.95 -0.95 0.55
POINT_DATA 8000
FIELD FieldData 1
potential 1 8000 double
0.078480234826 0.078588594132 0.078668820393 0.078697950666 0.078663630571 0.07857218099 0.078443969101 0.078307866522 0.078188239632 
0.0781023585 0.078058688253 0.07805984501 0.078103153111 0.078179856458 0.078271213268 0.078352720542 0.078401686622 0.078407499741 
0.078375961132 0.078323501342 0.089191053079 0.089270155679 0.089327820177 0.089346196866 0.089316269764 0.089240988203 0.089136693867 
0.089023948338 0.08892357267 0.088849548181 0.088809620424 0.088806307235 0.088837842624 0.088896404394 0.088968480275 0.089033380883 
0.089074687026 0.089085039554 0.089068093131 0.089036272456 0.10210851263 0.10215663303 0.10219073777 0.10219718326 0.10216960362 
0.1021105577 0.10203021618 0.10194347771 0.10186434101 0.10180396005 0.10176835541 0.10176015197 0.10177849918 0.10181772852 
0.10186838148 0.10191599178 0.10194935535 0.1019635198 0.10196101798 0.10194932203 0.11786226008 0.11788372021 0.11789616711 
0.11789166847 0.11786580184 0.11782017647 0.11776116866 0.1176970502 0.11763698271 0.11758816233 0.11755534002 0.11754147949 
0.11754675466 0.11756810252 0.11759933616 0.11763158994 0.1176581373 0.11767547397 0.11768486421 0.11769071114 0.13719751472 
0.13719740108 0.13719281408 0.13717943808 0.13715498074 0.13712021222 0.13707793622 0.13703203382 0.13698646072 0.13694518861 
0.13691221111 0.13689117214 0.13688380499 0.13688909829 0.13690428173 0.13692504211 0.13694631706 0.13696621525 0.13698479381 
0.13700526536 0.16090728379 0.16088961894 0.16087198175 0.16085244624 0.16082972134 0.16080374292 0.16077494556 0.16074281589 
0.16070671988 0.16066937055 0.16063265978 0.16060221276 0.16058173403 0.16057338262 0.16057580985 0.16058767722 0.16060522081 
0.16062682801 0.16065280069 0.16068587239 0.18967618441 0.18964479372 0.18961747772 0.18959404606 0.18957390322 0.18955647627 
0.18953924813 0.18951847817 0.18948966363 0.18945222005 0.18940829558 0.18936544996 0.18933129145 0.18930986068 0.18930214608 
0.18930739342 0.1893224271 0.1893455265 0.1893778085 0.18942081511 0.22377721776 0.22373579375 0.2237019917 0.22367723728 
0.22366094082 0.22365197337 0.22364600569 0.22363575575 0.22361287681 0.22357302219 0.22352000383 0.22346303186 0.2234144802 
0.22338120716 0.22336521941 0.22336539887 0.22337852408 0.22340318121 0.22343980666 0.22349034084 0.26259914144 0.26255211845 
0.26251632136 0.26249305309 0.2624819863 0.26248120703 0.26248625963 0.26248574102 0.26246845051 0.26242710886 0.26236544111 
0.26229587001 0.26223492219 0.2621916567 0.26216895849 0.26216493978 0.26217705253 0.26220223294 0.26224099452 0.26229501895 
0.30419839737 0.30415281275 0.30411905372 0.30409933245 0.30409406609 0.30410070952 0.30411384297 0.30412154385 0.30410926568 
0.30406876041 0.30400328299 0.30392845695 0.30386121859 0.30381234702 0.30378562526 0.30377873879 0.30378895714 0.30381332753 
0.30385202455 0.30390605692 0.34528005702 0.3452397692 0.34521109722 0.34519624262 0.34519553424 0.34520690615 0.34522398464 
0.34523593279 0.34522815507 0.34519234945 0.34513171389 0.34506151887 0.34499698424 0.34494936212 0.34492212149 0.34491362009 
0.34492272544 0.34494539391 0.34498279162 0.34503544245 0.38187235455 0.38183781604 0.38181441291 0.38180341394 0.38180520676 
0.38181784363 0.38183500768 0.38184711167 0.38184326013 0.38181592658 0.38176791058 0.38171120932 0.38165834895 0.38161811017 
0.38159439949 0.38158742649 0.381596109 0.38161869203 0.38165595825 0.38170937177 0.41038369977 0.41035272762 0.41033288763 
0.41032438872 0.41032658387 0.41033773904 0.41035218678 0.41036354382 0.41036387813 0.41034779184 0.41031662667 0.41027870492 
0.41024243053 0.41021389104 0.4101972453 0.41019367857 0.41020436767 0.41022855111 0.41026882203 0.41032639632 0.42833685271 
0.42830738691 0.42828934998 0.42828214289 0.42828305555 0.42829217321 0.42830416261 0.42831550304 0.42832161581 0.42831807429 
0.42830581139 0.42828808814 0.42826993884 0.42825482112 0.42824642547 0.42824719145 0.42826013206 0.42828746274 0.42833265616 
0.42839789052 0.43444331688 0.4344144016 0.43439790475 0.43439150807 0.43439233606 0.43439936157 0.43441051022 0.4344235965 
0.43443685629 0.43444771066 0.43445403621 0.43445629092 0.43445555195 0.43445391638 0.43445300279 0.43445732806 0.43447193628 
0.43450164896 0.43455225068 0.43462720724 0.42832607534 0.4282992955 0.42828500598 0.42827920881 0.42827979779 0.42828605357 
0.42829753531 0.42831424093 0.42833645658 0.42836219819 0.42838755742 0.42840985509 0.42842606859 0.4284357284 0.42844068682 
0.42844636077 0.42845983045 0.42848985172 0.42854475087 0.42863137399 0.41036274535 0.41033752236 0.41032446041 0.41031875498 
0.41031881322 0.41032430999 0.41033654239 0.41035771481 0.41038965722 0.41043076583 0.41047552412 0.41051738041 0.41054943125 
0.41056957017 0.41057845547 0.41058281568 0.41059258205 0.41062032153 0.41067807032 0.4107773681 0.38184038376 0.38181424369 
0.38179901061 0.38179051578 0.38178808821 0.38179215214 0.38180465025 0.38182950018 0.38187019094 0.38192534125 0.38198742266 
0.38204666756 0.38209359578 0.38212305623 0.3821354561 0.38213802331 0.38214304371 0.38216672861 0.38222703915 0.38233899775 
0.34523305876 0.34519971882 0.34517700777 0.34516149788 0.34515358448 0.34515478276 0.34516673185 0.34519347888 0.3452392996 
0.3453028442 0.34537674371 0.34544817603 0.34550614764 0.34554386415 0.34556099777 0.34556418821 0.34556682571 0.34558826742 
0.34565150414 0.34577478391 0.30411745903 0.30407157836 0.30403723404 0.30401190055 0.30399690331 0.30399407819 0.30400377453 
0.30402922888 0.30407423269 0.30413874634 0.30421447271 0.30428905652 0.30435176145 0.30439571845 0.30441926316 0.30442738115 
0.30443293964 0.30445698212 0.30452447488 0.30465356265 0.086584229902 0.086643884422 0.086685175722 0.086695684959 0.08667023377 
0.086612324314 0.08653234073 0.086446501825 0.08636944433 0.086311883358 0.086280649711 0.086277960696 0.086301594018 0.086345788047 
0.086398509022 0.086447256381 0.086480099814 0.086490520898 0.086480883278 0.086458161935 0.097655179976 0.097698395551 0.097726863033 
0.097731322289 0.097707202139 0.097656372352 0.097587962103 0.097513749453 0.0974461694 0.09739466798 0.097364980229 0.097359413773 
0.097376527394 0.09741158688 0.097454725331 0.097495467365 0.097524879824 0.097538502738 0.097537126314 0.097526426186 0.11074950121 
0.11077413483 0.11078947574 0.11078672791 0.11076330419 0.11072031845 0.11066435316 0.11060325335 0.11054694971 0.11050255046 
0.11047494573 0.11046625304 0.1104757895 0.11049969465 0.11053229703 0.11056445609 0.11059026756 0.11060678938 0.11061354607 
0.11061582227 0.12630529337 0.12631313541 0.12631509283 0.12630584661 0.12628254067 0.12624672002 0.12620180482 0.1261538016 
0.12610782909 0.1260699367 0.12604369716 0.12603122765 0.12603286937 0.12604645225 0.12606831243 0.12609231812 0.12611478697 
0.12613335474 0.1261486469 0.12616249038 0.14478792861 0.14478132514 0.14477189788 0.14475689396 0.14473406793 0.14470409709 
0.14466892075 0.14463096063 0.14459390201 0.14456058878 0.14453425727 0.14451726653 0.14451103243 0.14451487898 0.14452749635 
0.14454461939 0.14456432103 0.14458513632 0.14460690986 0.14463173101 0.16661344578 0.16659461183 0.16657616634 0.16655658589 
0.16653461375 0.16650971324 0.16648266865 0.16645314833 0.16642193829 0.16639164768 0.16636344248 0.16634089193 0.16632654183 
0.16632170258 0.16632576184 0.16633802031 0.16635566872 0.16637828703 0.16640587218 0.16644019599 0.19201463152 0.19198628519 
0.19196093988 0.19193842797 0.19191742384 0.191897796 0.19187774307 0.19185513888 0.19182874617 0.1917990736 0.19176756952 
0.1917384393 0.19171601538 0.19170303493 0.19170048239 0.19170841713 0.19172474808 0.191749009 0.19178152921 0.19182404079 
0.22084167436 0.22080643137 0.22077655279 0.22075268122 0.22073373426 0.22071904404 0.22070539051 0.22068891889 0.22066632345 
0.22063592222 0.2206008609 0.22056504782 0.2205350555 0.22051510761 0.22050710215 0.22051172109 0.22052700139 0.22055279883 
0.22058929368 0.220638196 0.25232732476 0.25228797332 0.25225626826 0.25223263734 0.25221638892 0.25220613087 0.25219869503 
0.25218781276 0.25216854993 0.25213830764 0.25210033214 0.25205911614 0.25202334767 0.25199819429 0.25198638091 0.25198795048 
0.25200332264 0.25203007892 0.25206928085 0.25212232003 0.28492952314 0.28488901749 0.28485739935 0.28483548614 0.28482240934 
0.28481630254 0.28481344976 0.28480718069 0.28479145475 0.28476286784 0.28472409662 0.28468174514 0.28464351722 0.28461589738 
0.28460208085 0.2846027595 0.28461767287 0.28464510864 0.2846860935 0.28474158866 0.31640288808 0.31636348085 0.31633334007 
0.31631341612 0.31630295329 0.31629972745 0.31629994988 0.31629734736 0.31628511956 0.31626048522 0.31622515169 0.31618608175 
0.31615007956 0.31612365978 0.31611049355 0.31611142673 0.3161267137 0.31615512031 0.31619709974 0.31625453888 0.34416466124 
0.34412580676 0.34409751999 0.34407937197 0.34407034065 0.34406869814 0.34406999437 0.34406968559 0.34406185655 0.34404313247 
0.34401509003 0.34398385726 0.3439544209 0.34393323538 0.34392335394 0.34392629387 0.34394322232 0.34397287762 0.34401679756 
0.34407668048 0.36580734968 0.3657684029 0.36574100898 0.36572345324 0.36571492138 0.36571377447 0.36571566931 0.36571707656 
0.36571357511 0.3657026115 0.36568452613 0.36566386266 0.36564501712 0.36563145368 0.36562705021 0.36563356329 0.3656532271 
0.36568525864 0.36573241943 0.36579665496 0.37950822919 0.37946832162 0.37944103652 0.37942348596 0.37941487848 0.37941340095 
0.37941564484 0.37941912255 0.37942088836 0.37941856373 0.3794122496 0.37940403654 0.37939676782 0.37939234537 0.37939435768 
0.3794054507 0.37942760896 0.3794635829 0.37951540159 0.3795858151 0.38419025523 0.38414848624 0.38412050209 0.38410301521 
0.38409378416 0.38409210463 0.38409513148 0.38410104059 0.38410906634 0.38411664862 0.38412250461 0.38412721745 0.38413169054 
0.3841369527 0.38414528384 0.3841600724 0.38418538151 0.38422477021 0.3842815406 0.38435980032 0.37950319093 0.37945945551 
0.37943057331 0.37941259087 0.37940277241 0.37940073845 0.37940491568 0.37941421626 0.37942889608 0.37944636174 0.37946462908 
0.3794823022 0.3794977636 0.37951223292 0.37952618756 0.37954417271 0.37957141475 0.37961331988 0.37967581431 0.37976263699 
0.36579424456 0.36574815927 0.36571753462 0.36569819147 0.365687221 0.36568492991 0.36569009328 0.36570314892 0.36572404088 
0.36575124355 0.36578119661 0.36581104706 0.36583747583 0.36585963522 0.36587838942 0.36589823324 0.3659262275 0.36597015153 
0.366037297 0.36613398403 0.34413880585 0.34408859447 0.3440545491 0.34403209406 0.34401934766 0.34401541967 0.34402117272 
0.34403685582 0.34406299267 0.34409842808 0.34413857647 0.34417864538 0.3442143677 0.34424344997 0.34426621537 0.34428795404 
0.34431613492 0.34436134537 0.34443295643 0.34453898567 0.31635285166 0.31629637222 0.31625668048 0.31622939855 0.31621305522 
0.31620731073 0.3162122031 0.31622894545 0.31625818068 0.31629849436 0.31634509172 0.31639228437 0.31643471497 0.3164692998 
0.31649635518 0.31652029024 0.31654975424 0.31659622209 0.31667191 0.31678524043 0.28483499539 0.28476998354 0.28472323713 
0.2846900979 0.28466947907 0.28466043276 0.28466326601 0.28467883004 0.28470796984 0.28474881974 0.28479690283 0.28484653325 
0.28489240343 0.28493085613 0.28496174486 0.28498918005 0.28502161465 0.28507069917 0.28514931977 0.2852661878 0.093054478352 
0.09308519902 0.093104459208 0.09310527047 0.093085613355 0.093046830332 0.092994878191 0.092939297871 0.092888667926 0.092849765845 
0.092827374302 0.092823136549 0.092835747556 0.092861774543 0.092893608085 0.092924709301 0.092948576002 0.092961237852 0.092963465027 
0.092958447532 0.10410983059 0.10413045484 0.10414149456 0.10413829846 0.10411804628 0.10408240323 0.10403574775 0.10398555458 
0.10393971107 0.10390370163 0.1038819061 0.10387594035 0.10388487182 0.1039061457 0.10393340562 0.10396074679 0.10398339358 
0.10399859556 0.10400633198 0.10400916497 0.11693597572 0.11694512027 0.11694791513 0.11693982096 0.11691915243 0.11688665526 
0.11684634689 0.11680295333 0.11676276904 0.11673036844 0.11670945023 0.11670150392 0.11670619315 0.11672120233 0.11674334161 
0.11676655876 0.11678791607 0.11680555424 0.11681897657 0.11683024968 0.13181522041 0.1318129248 0.13180761339 0.13179466118 
0.13177363726 0.13174446399 0.13170991672 0.13167343415 0.13163888224 0.13161002035 0.13158967436 0.13157936086 0.13157952536 
0.13158869707 0.13160497664 0.13162423069 0.13164424055 0.13166387796 0.13168291686 0.13170282676 0.14900639623 0.1489940994 
0.14898084658 0.14896411392 0.14894240082 0.14891637657 0.14888702303 0.14885626548 0.14882689192 0.14880069171 0.14878025356 
0.14876724303 0.14876271842 0.14876632416 0.14877727084 0.14879272528 0.14881181535 0.14883349956 0.14885770198 0.14888557422 
0.16867937597 0.16865869182 0.16863887932 0.16861840663 0.16859686066 0.16857358215 0.16854871586 0.16852290325 0.16849738373 
0.16847285124 0.16845152814 0.16843538599 0.16842620023 0.16842447951 0.16843039025 0.1684433883 0.16846167232 0.16848547702 
0.16851445141 0.16854970732 0.19081943145 0.19079162602 0.19076674212 0.19074382687 0.19072257118 0.19070170417 0.190680981 
0.19065928416 0.19063623948 0.19061305405 0.19059036474 0.1905708511 0.19055700793 0.19055076128 0.1905526944 0.19056337514 
0.19058134563 0.19060674625 0.19063984134 0.19068190652 0.21510715417 0.21507384504 0.21504542935 0.2150208623 0.21500006295 
0.21498225531 0.21496511164 0.21494700257 0.21492664872 0.21490381003 0.21487962201 0.21485688601 0.21483915661 0.21482916886 
0.21482805566 0.21483712521 0.21485503175 0.2148822203 0.2149190345 0.2149667549 0.24080712104 0.24077033744 0.24073940105 
0.24071450023 0.2406948314 0.24067959395 0.24066560466 0.24065100088 0.24063285507 0.24061033179 0.2405858258 0.24056115351 
0.24054095748 0.24052834125 0.24052538872 0.2405333195 0.24055147165 0.24058045909 0.24062046235 0.24067258949 0.26672131432 
0.2666818805 0.2666500596 0.26662521246 0.26660687557 0.26659347002 0.2665829029 0.26657110879 0.26655552003 0.26653476089 
0.2665110664 0.26648640698 0.26646558103 0.26645228995 0.26644867513 0.26645646264 0.26647573294 0.26650632237 0.26654883862 
0.2666044538 0.29126347046 0.29122271065 0.29119019612 0.29116602055 0.2911487416 0.29113728561 0.29112879472 0.29111950006 
0.29110691204 0.29108925513 0.29106774085 0.29104606225 0.29102740845 0.29101552259 0.29101323034 0.29102210386 0.29104260249 
0.29107509314 0.29112023085 0.29117898612 0.31267200222 0.31262982455 0.31259698649 0.31257266856 0.31255666885 0.31254616069 
0.31253885904 0.31253229188 0.31252303713 0.31250975663 0.31249316708 0.312476455 0.31246233812 0.31245405025 0.31245485041 
0.31246593258 0.31248893453 0.3125236707 0.31257172726 0.31263388674 0.32928929255 0.32924504193 0.32921144632 0.32918694397 
0.32917105566 0.32916123353 0.32915506423 0.32915074946 0.32914537498 0.32913729479 0.32912731835 0.32911707071 0.32910963872 
0.3291071453 0.32911208529 0.32912670291 0.32915285128 0.3291907048 0.32924205575 0.32930874243 0.33980571228 0.33975855162 
0.33972358105 0.33969840501 0.33968220899 0.3396727581 0.33966771463 0.33966564339 0.33966456527 0.3396627798 0.33965999849 
0.33965803769 0.33965835211 0.33966219989 0.33967218376 0.33969076113 0.33972054766 0.33976200037 0.33981785917 0.33989001012 
0.34340210413 0.34335170195 0.34331504191 0.34328884902 0.34327190903 0.34326265706 0.34325868095 0.34325933844 0.34326278991 
0.34326752114 0.34327298316 0.34327950601 0.34328791035 0.34329838426 0.34331395684 0.3433366584 0.343369351 0.34341492196 
0.34347578314 0.3435545663 0.33980240779 0.33974787815 0.33970901598 0.33968172241 0.33966371105 0.33965437231 0.33965160878 
0.33965487345 0.33966307463 0.33967464504 0.3396883016 0.33970307076 0.33971933784 0.33973650535 0.33975712481 0.33978325663 
0.33981889551 0.33986821509 0.33993422109 0.3400201007 0.32927952835 0.32922076965 0.32917886989 0.32914948166 0.32913048465 
0.32912059196 0.32911867848 0.32912448051 0.32913701057 0.32915488109 0.32917605357 0.32919859846 0.32922224681 0.32924555921 
0.32927027609 0.32929964437 0.32933778209 0.3293901066 0.32946123129 0.32955444716 0.31264773301 0.31258440554 0.3125385793 
0.31250652585 0.31248553302 0.31247469739 0.31247313701 0.31248066223 0.31249657233 0.31251939848 0.31254683253 0.31257591759 
0.31260542614 0.31263401884 0.31266270862 0.3126947521 0.31273529967 0.31279034762 0.31286567207 0.31296570978 0.29121175593 
0.29114287535 0.2910927707 0.29105708094 0.29103352904 0.29102099587 0.2910189498 0.29102703907 0.29104481231 0.29107071487 
0.29110203396 0.29113567868 0.29116972263 0.29120247312 0.29123443249 0.29126899284 0.2913116422 0.29136920045 0.2914481139 
0.29155333744 0.26662370245 0.26654903019 0.26649407713 0.26645429082 0.26642774164 0.26641278685 0.2664092284 0.26641650357 
0.26643418002 0.26646072293 0.26649318986 0.2665290241 0.26656529964 0.26660073809 0.26663548394 0.26667289617 0.26671766143 
0.26677750472 0.26685845529 0.26696609124 0.09802955233 0.098042612759 0.098048810046 0.098044141723 0.098027785916 0.09800040644 
0.09796522712 0.097928071263 0.097894094723 0.097867482243 0.097851450613 0.097847293869 0.0978541177 0.097870313686 0.097890869072 
0.09791259069 0.09793170946 0.097945834329 0.097955045434 0.097961115748 0.10879892097 0.10880504428 0.10880550624 0.10879774647 
0.10878008431 0.10875370315 0.10872066591 0.1086858342 0.10865402561 0.10862866284 0.10861271281 0.10860745397 0.10861234879 
0.10862613073 0.10864456055 0.10866482259 0.10868392834 0.1087003102 0.10871364143 0.10872532136 0.1210672808 0.12106592948 
0.12106059307 0.12104912315 0.12103044235 0.12100492136 0.12097494838 0.12094329591 0.12091434184 0.12089070481 0.12087514067 
0.12086865905 0.12087115269 0.12088145756 0.12089773629 0.12091620729 0.1209352869 0.1209538548 0.12097139709 0.12098903159 
0.13499911809 0.13498980208 0.13497892259 0.13496390108 0.13494417904 0.13491989806 0.13489245281 0.13486444444 0.13483847619 
0.13481669604 0.13480132141 0.134793532 0.13479341684 0.13480055729 0.13481391891 0.1348305776 0.13484949076 0.13487034979 
0.13489194892 0.13491599631 0.15071171004 0.15069500579 0.15067855474 0.15066048653 0.15063966841 0.15061663763 0.15059182098 
0.15056716632 0.15054369753 0.15052345852 0.15050802907 0.15049867493 0.15049597644 0.1505000897 0.15051066592 0.15052551222 
0.1505446214 0.15056723141 0.1505934658 0.15062344008 0.16822561684 0.16820264812 0.16818132531 0.1681603526 0.16813880803 
0.16811693713 0.16809460284 0.16807214123 0.16805135404 0.16803215401 0.16801632908 0.16800531686 0.16800010873 0.16800122932 
0.16800893545 0.16802300063 0.16804234706 0.16806707182 0.16809706546 0.16813322603 0.18740219619 0.18737373913 0.18734814564 
0.18732472293 0.18730303961 0.18728218198 0.18726202114 0.18724191981 0.1872225603 0.1872045243 0.18718820385 0.18717553778 
0.18716804422 0.18716667555 0.18717243681 0.18718561148 0.18720533916 0.18723190452 0.18726549987 0.18730744619 0.20787474988 
0.20784179381 0.20781288684 0.20778785546 0.20776565666 0.20774635676 0.20772818066 0.20771023759 0.20769259155 0.20767515131 
0.20765844701 0.207644509 0.20763506088 0.20763199208 0.20763626215 0.20764907662 0.20766957837 0.20769786021 0.20773507261 
0.20778193869 0.2289990246 0.22896234719 0.22893103836 0.22890483927 0.22888268747 0.22886461486 0.22884827512 0.22883236094 
0.22881641915 0.22879935512 0.22878328309 0.22876877052 0.22875841096 0.22875454587 0.22875823233 0.2287711111 0.2287924089 
0.22882295766 0.22886344384 0.22891469109 0.24984668496 0.24980684031 0.24977373308 0.24974642899 0.24972486328 0.2497076417 
0.24969312713 0.24967924308 0.24966498113 0.24964951531 0.24963453239 0.24962071531 0.24961077815 0.24960715726 0.24961126709 
0.24962432175 0.24964762053 0.24968041002 0.24972404048 0.249779004 0.2692680705 0.2692252939 0.26919063085 0.26916298601 
0.26914166754 0.2691251358 0.26911228165 0.26910017286 0.26908807404 0.26907496104 0.26906185069 0.26905045928 0.26904246508 
0.269040438 0.26904589208 0.26906080235 0.26908586039 0.26912122236 0.26916794829 0.26922649661 0.28602262359 0.28597771022 
0.28594132979 0.28591282835 0.28589156103 0.28587570181 0.28586406188 0.28585393343 0.28584430684 0.28583447135 0.28582460857 
0.28581673747 0.28581219075 0.28581301494 0.28582117923 0.28583857996 0.2858660447 0.28590429046 0.28595438459 0.28601687559 
0.29894557251 0.29889762985 0.29885927391 0.29883004869 0.29880843387 0.29879294245 0.29878200851 0.29877413769 0.29876751313 
0.29876152529 0.29875608621 0.29875287668 0.2987529406 0.29875766902 0.29876949263 0.29878990704 0.29882046564 0.29886214905 
0.29891582804 0.29898271625 0.30710008416 0.30704840131 0.30700807842 0.30697734042 0.30695528606 0.30694016579 0.3069300266 
0.30692421534 0.30692091671 0.30691913826 0.30691873978 0.30692078351 0.30692624804 0.30693598905 0.30695178069 0.30697593145 
0.30700999768 0.3070552252 0.30711320682 0.30718509558 0.30988622833 0.30983048502 0.30978740416 0.3097551273 0.30973244095 
0.30971723306 0.30970812937 0.30970444174 0.30970438521 0.30970720142 0.30971219428 0.30972008896 0.30973118467 0.30974593519 
0.30976616845 0.30979393064 0.30983155569 0.30988055722 0.30994309405 0.31002044097 0.30709720982 0.30703712124 0.30699112301 
0.30695702044 0.30693326249 0.30691788323 0.30690971358 0.30690798857 0.30691112289 0.30691854976 0.30692901952 0.30694236487 
0.30695910626 0.30697878806 0.30700337106 0.30703453711 0.30707515505 0.30712818086 0.30719537688 0.3072787797 0.29893594974 
0.29887139038 0.2988221423 0.2987858315 0.29876062705 0.29874478585 0.29873722144 0.29873705062 0.29874334429 0.2987547079 
0.2987704576 0.29878883666 0.29881060258 0.29883470089 0.2988631505 0.29889754567 0.29894125093 0.29899755162 0.29906929587 
0.299158406 0.28599839958 0.28592873131 0.2858761932 0.28583738899 0.2858104839 0.28579382683 0.2857862799 0.28578737804 
0.28579583341 0.28581044257 0.2858301237 0.28585292388 0.2858789419 0.2859069979 0.28593878074 0.28597595058 0.28602218784 
0.2860815342 0.28615700141 0.28625141424 0.26921718253 0.26914264136 0.26908634723 0.26904465769 0.26901568576 0.26899766528 
0.26898972313 0.26899107544 0.269000706 0.26901757855 0.26903968232 0.26906566575 0.26909468836 0.26912593899 0.26916026185 
0.26919987345 0.26924848591 0.2693101715 0.26938848265 0.26948659027 0.2497526622 0.24967403443 0.24961413159 0.24956961914 
0.2495382358 0.24951860215 0.24950957998 0.24951044149 0.24952013481 0.2495373914 0.24956062525 0.24958807408 0.24961890419 
0.24965212387 0.24968847459 0.24973036704 0.24978054297 0.24984402796 0.24992393011 0.25002378743 0.10168537858 0.10168729472 
0.10168547002 0.1016775301 0.10166319063 0.10164255595 0.10161766367 0.10159195157 0.10156861099 0.10155013112 0.1015387772 
0.10153534108 0.10153962318 0.10155072991 0.10156548721 0.10158235341 0.10159917229 0.10161449339 0.10162816846 0.10164180911 
0.11198783837 0.11198460247 0.11197873457 0.1119679753 0.11195199538 0.11193134798 0.11190675702 0.11188193553 0.11185939554 
0.11184136752 0.11182991546 0.1118258913 0.11182904801 0.11183913007 0.1118529895 0.11186960313 0.11188729916 0.11190449762 
0.11192154506 0.11193892992 0.12352804263 0.12351964236 0.12350910745 0.1234955391 0.12347822032 0.12345755886 0.12343402176 
0.12341038059 0.1233890881 0.12337187302 0.12336049923 0.12335574039 0.12335764875 0.12336633464 0.12337908985 0.12339516132 
0.12341322175 0.12343274097 0.12345316751 0.12347521785 0.13638612222 0.13637188357 0.13635712317 0.13634060096 0.13632191482 
0.13630108076 0.13627901997 0.13625679455 0.13623694538 0.13622055233 0.13620926461 0.13620381572 0.13620438305 0.13621090273 
0.1362229066 0.13623848198 0.13625718735 0.13627882327 0.13630251346 0.1363295435 0.15058737594 0.15056750737 0.15054871142 
0.1505293424 0.15050936965 0.15048874437 0.15046742716 0.15044722415 0.15042853716 0.15041301433 0.15040170386 0.15039541765 
0.15039464948 0.15039962672 0.15041044366 0.15042560837 0.15044493497 0.15046840563 0.15049601024 0.15052788344 0.16606860995 
0.16604350933 0.16602060467 0.16599903297 0.16597791764 0.16595736572 0.16593719353 0.16591798735 0.16590091622 0.16588606156 
0.1658746001 0.16586752327 0.16586553166 0.16586925404 0.16587906527 0.16589379281 0.16591403623 0.1659396451 0.16597073169 
0.16600727523 0.18263761412 0.18260808061 0.18258171516 0.18255751312 0.18253583458 0.18251552019 0.1824962304 0.18247830061 
0.18246236823 0.18244806462 0.1824364886 0.18242873155 0.18242571128 0.18242829139 0.1824369384 0.18245222366 0.18247347934 
0.18250123755 0.18253562216 0.18257688057 0.19993705673 0.199903507 0.19987408956 0.19984807671 0.19982568456 0.19980552427 
0.19978724583 0.19977047609 0.19975519148 0.19974195915 0.19973048686 0.19972243889 0.19971871827 0.19972061296 0.19972895695 
0.19974465522 0.19976713649 0.19979693975 0.19983431956 0.19988042076 0.21742313796 0.21738593198 0.21735390462 0.21732639602 
0.21730314236 0.21728375952 0.21726634147 0.21725074304 0.21723665606 0.21722424626 0.21721320571 0.21720523786 0.21720149793 
0.21720352736 0.21721207123 0.21722854431 0.21725256386 0.21728444674 0.217325179 0.21737541443 0.23437513613 0.23433469049 
0.23430034766 0.23427152441 0.23424774583 0.23422871727 0.23421215458 0.23419785286 0.23418510735 0.23417334222 0.23416385128 
0.23415682142 0.23415392145 0.23415673731 0.2341662253 0.23418399378 0.23420958984 0.23424401238 0.23428797344 0.23434210718 
0.24994377693 0.24989991117 0.24986347754 0.24983337576 0.24980910856 0.24979017398 0.24977470615 0.24976168968 0.24975044348 
0.24974042123 0.24973283783 0.24972756523 0.24972638214 0.24973074416 0.24974194173 0.24976095091 0.24978932249 0.24982645136 
0.24987376826 0.24993128609 0.26323547734 0.26318816206 0.26314955186 0.263118165 0.26309358709 0.26307465025 0.26305997582 
0.26304831922 0.26303897771 0.26303132164 0.26302568373 0.2630234883 0.26302491876 0.26303177682 0.26304513849 0.26306677621 
0.26309768467 0.26313771543 0.26318841604 0.26325006133 0.2734171627 0.27336651355 0.27332534754 0.27329252976 0.27326738107 
0.27324823703 0.2732344947 0.27322421846 0.27321701739 0.27321214804 0.27320959892 0.27321075948 0.27321545656 0.2732254016 
0.27324194798 0.27326653251 0.27330025184 0.2733434836 0.27339801702 0.27346387787 0.27981658925 0.27976226257 0.27971812547 
0.27968388404 0.27965792492 0.27963864811 0.27962533036 0.2796168716 0.27961194617 0.27961012879 0.27961114063 0.27961601603 
0.2796246654 0.27963821939 0.27965817917 0.27968589105 0.27972285263 0.27976967087 0.27982803995 0.27989847588 0.28199912109 
0.28194047087 0.28189371176 0.28185748646 0.28183054819 0.28181105526 0.28179830642 0.28179133085 0.28178896039 0.28179012935 
0.28179490719 0.28180378452 0.28181641858 0.28183397902 0.28185741837 0.28188825117 0.28192874755 0.28197901008 0.28204151995 
0.28211703402 0.27981344059 0.27975052011 0.27970051326 0.27966229382 0.27963423088 0.27961443611 0.27960217011 0.27959661524 
0.27959635058 0.27960070639 0.27960917545 0.27962157504 0.27963858486 0.27965980158 0.27968667515 0.27972083587 0.27976444398 
0.27981824609 0.27988481369 0.27996533251 0.27340724748 0.27333965613 0.27328671247 0.27324620177 0.27321675229 0.27319647417 
0.27318444026 0.27318002673 0.27318168842 0.27318878445 0.27320067578 0.27321676856 0.27323732622 0.27326193484 0.27329202768 
0.27332904375 0.2733754894 0.27343260951 0.27350286639 0.27358810057 0.2632117338 0.26313973095 0.26308357789 0.26304079971 
0.26300958751 0.26298856695 0.26297666824 0.26297284543 0.26297591959 0.26298535369 0.26299997546 0.26301894005 0.26304246851 
0.26307007636 0.2631029236 0.26314244573 0.26319117105 0.26325120675 0.26332479213 0.26341380514 0.24989574788 0.24981962674 
0.24976038527 0.24971540437 0.24968239647 0.24966035095 0.24964804636 0.24964438969 0.24964842222 0.24965910027 0.24967548829 
0.24969670989 0.24972245476 0.24975233643 0.24978733334 0.24982913572 0.24987970091 0.24994187025 0.25001778878 0.25010963485 
0.23428897197 0.23420963619 0.23414759207 0.23410043773 0.23406581417 0.23404253906 0.23402947714 0.23402546978 0.23402947154 
0.23404072247 0.23405794799 0.23408026581 0.23410747367 0.23413894659 0.23417546325 0.23421865903 0.23427080335 0.23433413686 
0.23441147405 0.23450462293 0.10420862792 0.10420348981 0.10419671914 0.10418713027 0.10417364196 0.10415699973 0.10413854047 
0.10412007977 0.10410369915 0.10409075314 0.10408280658 0.10408055782 0.10408454121 0.10409271014 0.10410461889 0.1041192024 
0.10413507705 0.10415139441 0.10416827016 0.10418664948 0.11393420245 0.11392510708 0.11391493262 0.11390248599 0.1138877799 
0.11387048811 0.11385160083 0.11383310258 0.11381684796 0.11380393551 0.11379580672 0.11379325982 0.11379614148 0.11380450387 
0.11381629453 0.11383120096 0.11384820756 0.11386640432 0.11388599506 0.1139073854 0.12466217564 0.1246486935 0.12463484049 
0.12461998502 0.12460351998 0.12458572727 0.12456695108 0.12454870049 0.12453280606 0.12452017539 0.12451193462 0.12450901629 
0.12451133789 0.12451911732 0.12453081094 0.12454581209 0.12456359811 0.12458395405 0.1246064553 0.12463147034 0.13641386343 
0.13639625722 0.13637884294 0.13636133615 0.13634339869 0.13632497946 0.13630647906 0.13628870497 0.13627333801 0.13626106598 
0.13625294132 0.13624954701 0.13625123612 0.13625795537 0.13626977076 0.13628496532 0.1363038642 0.136326257 0.1363517139 
0.13638052039 0.14915950576 0.14913721156 0.14911669863 0.14909669161 0.14907736186 0.14905845441 0.14903991074 0.14902295537 
0.14900813592 0.14899626893 0.14898814234 0.14898444816 0.14898554211 0.14899165085 0.14900312315 0.14901865175 0.14903858748 
0.14906310111 0.14909140033 0.14912443779 0.162792727 0.16276619222 0.16274210162 0.1627200001 0.16269925901 0.16268000082 
0.16266169932 0.16264545831 0.16263108342 0.16261964177 0.16261151841 0.16260751661 0.16260813517 0.16261389042 0.16262508033 