# vtk DataFile Version 5.1
vtk output
ASCII
DATASET STRUCTURED_POINTS
DIMENSIONS 20 20 20
SPACING 0.1 0.1 0.1
ORIGIN -0.95 -0.95 0.55
POINT_DATA 8000
FIELD FieldData 3
potential 1 8000 double
0.38233656574 0.38327541359 0.38411722672 0.38467437996 0.38481007618 0.38452590685 0.38396744536 0.3833369769 0.38280297937 
0.38247046776 0.38239321025 0.38258682438 0.38302595537 0.38362029016 0.38420893444 0.38458704272 0.3845968278 0.38422332936 
0.38358459873 0.38283712255 0.42755914999 0.42837592351 0.42911475675 0.4296232419 0.42978518881 0.42959380242 0.42915861577 
0.42864485873 0.42819555525 0.42790811993 0.42783375169 0.42798911756 0.42834639771 0.42882611747 0.42928944558 0.42957404759 
0.42955960295 0.42923765579 0.42870179215 0.42807290034 0.46870555064 0.46936425954 0.46995872736 0.47037879545 0.47054008045 
0.47043424799 0.47013721103 0.46976533941 0.4694294602 0.46920873391 0.46914943596 0.46926359267 0.46952683606 0.46987400532 
0.47020057683 0.47039078149 0.4703623003 0.47010961263 0.46969386107 0.46919830792 0.50237553795 0.50287514327 0.50332320277 
0.50364706599 0.50379218925 0.50375191806 0.50357363827 0.5033346848 0.50311203764 0.50296356383 0.50292651465 0.50300893071 
0.50319029104 0.5034225118 0.50363360545 0.50374853858 0.50371375388 0.50352541237 0.50321898237 0.50284694422 0.52627891796 
0.52664115298 0.52696590144 0.5272062328 0.52732917178 0.52733148637 0.52724099845 0.52710668487 0.52697793459 0.52689537293 
0.52688375065 0.52694836537 0.52707201104 0.5272224675 0.5273529364 0.52741541025 0.52738013599 0.52724228921 0.52702222584 
0.52674975688 0.53930244519 0.53955929657 0.53978997368 0.53996558605 0.54006723241 0.54009321034 0.54006049424 0.53999967525 
0.53994233777 0.53991246259 0.53992769736 0.53998749848 0.54007850402 0.54017971858 0.54026025381 0.54029314682 0.54026049658 
0.54015961539 0.54000111747 0.53980392313 0.54124691026 0.54142820378 0.54159278792 0.54172121919 0.54180288523 0.54183927228 
0.54184097277 0.5418277429 0.54181975782 0.54183199331 0.54187327624 0.54193921268 0.54201860619 0.54209486966 0.54215072343 
0.5421689077 0.54214076756 0.54206519355 0.54194997341 0.54180609338 0.53269005728 0.53281984341 0.53293801425 0.5330315222 
0.53309516644 0.53313238594 0.53315101444 0.53316577528 0.5331907775 0.53323557911 0.53330009782 0.53337911531 0.53345923643 
0.53352801626 0.53357532488 0.53359040498 0.53356855478 0.53351252204 0.53342650371 0.53331986839 0.51516620238 0.51526001549 
0.5153448644 0.51541079488 0.51545639144 0.51548691494 0.51551003537 0.51553767407 0.51558181027 0.51564818062 0.51573181052 
0.51582419474 0.51591105713 0.51598243961 0.51603033961 0.51604941815 0.51603682793 0.51599604874 0.51593294329 0.51585426903 
0.49146468313 0.49153081623 0.49158930723 0.49163198187 0.49165958775 0.49167841995 0.49169646495 0.4917254763 0.49177572866 
0.49185029995 0.49194407157 0.49204360302 0.49213558681 0.49221133039 0.49226395348 0.49229067739 0.4922901063 0.49226571827 
0.49222227904 0.49216737518 0.46557830534 0.46562214985 0.46565918213 0.46568215614 0.46569282873 0.46569775601 0.46570573102 
0.46572654711 0.4657705204 0.46583976228 0.46592896731 0.46602423957 0.46611448708 0.46619001761 0.46624654461 0.46628185921 
0.46629445244 0.46628613977 0.46626304682 0.46623030251 0.44200641417 0.44203224889 0.442051457 0.44205921647 0.44205565352 
0.44204703739 0.44204170944 0.44204944015 0.44207589157 0.4421268898 0.44219702945 0.44227584426 0.44235295056 0.44242196287 
0.44247844243 0.44251970099 0.44254359805 0.44255182551 0.44254830076 0.44253664232 0.42471700302 0.42473070359 0.42473693661 
0.42473141522 0.42471694885 0.42469579239 0.42467543906 0.42466333553 0.42466579806 0.4246881261 0.42472912015 0.42478050149 
0.4248372572 0.42489397158 0.4249459885 0.4249895285 0.42502331519 0.42504631063 0.42506142227 0.42506993842 0.41646949612 
0.41647536827 0.41647088611 0.41645518802 0.41643038578 0.41639613383 0.41635731151 0.41632048014 0.41629261471 0.41627918264 
0.41628363245 0.41630232467 0.41633412945 0.41637476822 0.41642022129 0.41646587266 0.41650916086 0.41654637216 0.41657991844 
0.41660884456 0.41878013499 0.41877978435 0.41876611526 0.41874080647 0.41870367847 0.4186542305 0.41859351654 0.41852659385 
0.41846172651 0.41840627347 0.4183682248 0.4183514147 0.41835721296 0.41838141032 0.41842144738 0.41847105921 0.41852466011 
0.41857848143 0.41863096164 0.41868224125 0.43222007702 0.43221423738 0.43219159029 0.43215628867 0.43210637339 0.43203989415 
0.43195286904 0.4318498792 0.4317410416 0.43163783166 0.43155368806 0.43149857694 0.43147706916 0.43148732936 0.43152485682 
0.43158145724 0.43164921755 0.43172174728 0.43179608583 0.43187085904 0.45658664384 0.45657647428 0.45654571878 0.45650200009 
0.45644213666 0.45635747598 0.45624308593 0.45610093696 0.45594257771 0.45578633292 0.4556530774 0.45555839133 0.45551058063 
0.45550903599 0.45554725079 0.45561428515 0.4556997877 0.45579216109 0.45588904993 0.45598714262 0.4907529995 0.49074122945 
0.49070737074 0.49066015982 0.49059356068 0.49049482537 0.49035609565 0.49017631333 0.48997104202 0.48976352835 0.4895829994 
0.48945103468 0.4893799468 0.48936905126 0.4894097683 0.48948867443 0.48959052165 0.48970249807 0.48981718523 0.4899332941 
0.5323989205 0.53239195653 0.5323621399 0.53231737991 0.53224949626 0.53214383273 0.53198918861 0.53178348172 0.53154360583 
0.53129901894 0.53108353861 0.53092462212 0.53083642033 0.53081772286 0.53085925037 0.5309456321 0.53105911377 0.53118306398 
0.53130733754 0.53143013313 0.57807919321 0.57808561796 0.57806650786 0.57802877916 0.57796368112 0.57785824957 0.57770023163 
0.57748872151 0.57723946163 0.57698424777 0.57675803552 0.57659056391 0.57649461405 0.57646984355 0.57650713581 0.57659224236 
0.57670696761 0.57683045432 0.57695127311 0.57706757824 0.37432232108 0.37494145741 0.3754737318 0.37582809922 0.37594587293 
0.37583218751 0.37555758447 0.3752234344 0.37492685943 0.37473735681 0.37469442468 0.37480706606 0.37505151365 0.37536877119 
0.37566691572 0.37584358036 0.37582189733 0.37558706472 0.37518434953 0.37468711951 0.41074572629 0.41129933378 0.41178195424 
0.41211471982 0.41224612455 0.41217678097 0.411960655 0.41168563829 0.41143440822 0.41127069271 0.41123087005 0.41132436324 
0.41152857985 0.41179103928 0.41203281858 0.41216776018 0.41213448848 0.41192241443 0.41156901918 0.41113419845 0.44395098423 
0.44441744273 0.44482636232 0.44511721001 0.44524899445 0.44522076522 0.44507165431 0.44486899259 0.44467813415 0.44455162311 
0.44452070363 0.44459312508 0.44474975398 0.44494841508 0.44512575029 0.44521692601 0.44517665623 0.44499730507 0.44470542466 
0.4443456518 0.47168584167 0.47205933037 0.47238798101 0.47262843703 0.47275170723 0.47275544136 0.47266844125 0.47253567931 
0.47240743725 0.47232165541 0.47230406146 0.4723597835 0.47247349911 0.47261351277 0.47273343299 0.47278800048 0.47274566354 
0.47260014302 0.47236898129 0.47208331539 0.49229391098 0.49258085018 0.49283565449 0.49302728586 0.49313668303 0.49316240039 
0.49312338991 0.49305047518 0.49297651061 0.49292983797 0.49292819598 0.49297403804 0.4930561106 0.49315166603 0.49322828509 
0.49325726325 0.49321591738 0.49310100157 0.49292287587 0.49270173451 0.50486685335 0.50508176436 0.50527456996 0.50542442909 
0.5055185698 0.50555728389 0.50555114576 0.50552245956 0.50549236937 0.50547845609 0.50549334157 0.50553715827 0.50560078476 
0.50566734306 0.50571730285 0.5057297097 0.50569289292 0.50560348145 0.50546797779 0.50529826297 0.50923566196 0.50939450406 
0.50953899321 0.50965472156 0.5097336958 0.50977758673 0.50979217414 0.50979329103 0.50979434456 0.50980740646 0.50983805652 
0.50988556265 0.50994119014 0.50999325332 0.51002872009 0.51003472979 0.51000381014 0.50993464906 0.50983167523 0.5097022533 
0.50595213219 0.50606906935 0.50617683998 0.50626524012 0.50632930232 0.50637199465 0.50639753575 0.50641644041 0.50643889499 
0.50647191541 0.50651580216 0.50656968669 0.5066249448 0.50667208813 0.50670287246 0.50670820105 0.5066847242 0.50663208026 
0.5065538733 0.50645556413 0.49633179765 0.4964181551 0.49649767689 0.49656354297 0.49661384335 0.4966501068 0.49667834806 
0.49670532989 0.49673959621 0.4967846946 0.49683864094 0.49689910886 0.49695665231 0.49700471298 0.49703558087 0.49704482879 
0.49702980685 0.49699228034 0.4969336488 0.49686002486 0.4824865263 0.48254922384 0.48260703404 0.4826539304 0.48268992785 
0.48271798525 0.48274188334 0.48276946248 0.48280684292 0.48285585223 0.48291428517 0.48297666112 0.48303574345 0.48308527467 
0.48311867646 0.48313379305 0.48312828335 0.48310424835 0.48306367895 0.48301062661 0.4671784222 0.46722234868 0.4672627372 
0.46729378469 0.467316863 0.46733360415 0.46734942523 0.46737050997 0.46740262651 0.46744680383 0.46750136055 0.46755970415 
0.46761640263 0.46766545026 0.46770137177 0.4677220562 0.46772619184 0.46771531934 0.4676911676 0.46765614984 0.45342001576 
0.45345098583 0.45347707992 0.45349501143 0.45350622821 0.45351094185 0.45351555833 0.45352584076 0.45354530139 0.4535768018 
0.45361904041 0.45366642687 0.45371498393 0.45375927744 0.45379599764 0.45382048438 0.45383347952 0.45383452176 0.45382605735 
0.45380824319 0.44396188224 0.44398435083 0.44399980086 0.44400711748 0.44400679557 0.44399897902 0.44399075521 0.44398484867 
0.44398676368 0.44399879469 0.44402210544 0.44405248117 0.44408761246 0.44412354786 0.44415742462 0.44418491924 0.4442058209 
0.44421865745 0.44422467748 0.44422331554 0.44090117194 0.44091819179 0.44092618197 0.44092365 0.44091266087 0.44089318091 
0.44086802804 0.44084278131 0.44082199693 0.44080944964 0.44080853885 0.4408171854 0.4408353773 0.44086108131 0.44089053914 
0.44092081448 0.44094867192 0.44097263535 0.4409926332 0.44100742961 0.44554026853 0.44555527395 0.44555681661 0.4455459183 
0.4455240757 0.44549068 0.44544782447 0.44539943041 0.4453524902 0.44531111324 0.44528171009 0.44526594423 0.44526588563 
0.44527988936 0.44530556227 0.44533771913 0.4453735161 0.44540926625 0.44544344925 0.44547475294 0.45842251103 0.45843657347 
0.45843265465 0.45841449235 0.45838221133 0.45833476887 0.45827237844 0.45819891419 0.45812241323 0.45804893874 0.45798886388 
0.45794766897 0.45792852965 0.45793107918 0.45795358184 0.45798926325 0.45803398617 0.4580814392 0.45813050304 0.45817832109 
0.47936963645 0.47938348484 0.4793763815 0.47935256148 0.47931143235 0.47925039083 0.47916875543 0.47906963408 0.47896218113 
0.47885632656 0.47876479906 0.47869860576 0.47866112466 0.47865392919 0.47867400899 0.47871435307 0.47876825703 0.47882816144 
0.47889051908 0.47895270371 0.50745757884 0.50747380243 0.5074662854 0.5074401881 0.50739255304 0.50732101905 0.5072231976 
0.50710161855 0.5069662333 0.50683129839 0.50671235127 0.50662282433 0.50656973615 0.506554287 0.50657291085 0.50661771834 
0.50667909395 0.50674875343 0.50682149517 0.50689409131 0.5410051261 0.54102637362 0.54102237015 0.54099739452 0.54094746559 
0.54087019051 0.54076218132 0.54062555784 0.54047126672 0.54031587238 0.54017800699 0.54007204793 0.54000775503 0.53998565817 
0.54000208138 0.54004847048 0.54011438114 0.54018875939 0.54026619756 0.54034215894 0.57772748789 0.57775723569 0.57775943167 
0.57773829772 0.57769046748 0.57761309344 0.5775030081 0.57736285823 0.57720347231 0.57704233702 0.57689762956 0.57678576531 
0.57671583709 0.57668902697 0.57670176271 0.57674549555 0.57680940896 0.57688205538 0.57695651421 0.57702785403 0.36701172854 
0.36743928014 0.36780124151 0.36805010612 0.36815898451 0.36813250661 0.36800751687 0.36783790728 0.36767982253 0.36757613262 
0.36755300578 0.36761564487 0.36774778094 0.36791240161 0.36805810926 0.36812957389 0.36808676858 0.36791935578 0.36764427161 
0.36729942631 0.39718022762 0.39757030477 0.3979052266 0.3981423991 0.39825754784 0.39825227929 0.39815638948 0.3980176321 
0.39788399265 0.39779531005 0.39777552967 0.39782918252 0.39794178232 0.39808038039 0.39819976228 0.39825318099 0.39820598218 
0.398050454 0.39780202023 0.39749186193 0.4247694209 0.42510865913 0.42540314672 0.42561727194 0.42573192516 0.42574680894 
0.42568428989 0.42558312768 0.42548195352 0.4254141591 0.42540006787 0.42544402233 0.42553311881 0.42564122622 0.42572992067 
0.42576337872 0.42571450146 0.42557635625 0.42536183457 0.4250955392 0.44825328169 0.44853641367 0.44878391065 0.44896966921 
0.44907788185 0.44910822469 0.4490782427 0.44901414485 0.4489471389 0.44890261179 0.4488967746 0.44893285007 0.44900027049 
0.44907893184 0.44913986953 0.44915621556 0.44910819383 0.44899016179 0.44881172945 0.44859019152 0.46646763206 0.46669615728 
0.46689780751 0.46705365315 0.46715253734 0.46719308457 0.46718873461 0.46715791398 0.46712203046 0.46710012225 0.46710396125 
0.46713563945 0.46718744579 0.46724223655 0.46728165147 0.46728596367 0.4672405394 0.46714253548 0.46699750106 0.46681815868 
0.47875283563 0.47893216961 0.47909301149 0.47922118103 0.47930863455 0.47935479839 0.47936873638 0.47936325007 0.47935287308 
0.47935141884 0.47936519597 0.4793962622 0.47943782731 0.47947789928 0.47950345958 0.47950054903 0.47946002316 0.47937994676 
0.47926412696 0.47912031086 0.48500299209 0.48514225967 0.48526849159 0.48537224802 0.48544764587 0.48549569689 0.48552075464 
0.48553280128 0.48554198428 0.48555618414 0.48557963318 0.48561289877 0.48565015638 0.48568224147 0.485700426 0.48569518734 
0.48566153078 0.48559750249 0.48550588578 0.48539127492 0.4856851405 0.48579185095 0.48589037085 0.48597288291 0.48603683838 
0.48608234121 0.48611280018 0.48613564596 0.4861575752 0.48618324891 0.4862149515 0.48625176353 0.48628808638 0.48631784196 
0.48633365711 0.48632993813 0.48630339274 0.48625317763 0.48618133963 0.48609108355 0.48183460208 0.48191638469 0.4819926267 
0.48205736714 0.4821095581 0.48215003195 0.48218118592 0.48220838608 0.48223698033 0.48226947971 0.48230594498 0.48234577303 
0.48238311018 0.48241319706 0.48242997558 0.48242937937 0.48241069145 0.48237332433 0.48231762309 0.48224792813 0.47501430465 
0.47507725314 0.47513506009 0.47518517558 0.47522629649 0.47525925136 0.4752865355 0.47531279661 0.47534200815 0.4753764357 
0.47541425306 0.47545432335 0.47549211351 0.47552282556 0.47554138079 0.47554591586 0.47553467015 0.47550836325 0.47546744291 
0.47541465481 0.46717605003 0.46722444787 0.46726823546 0.46730529029 0.46733597508 0.46735971307 0.46738004867 0.46740144113 
0.46742639471 0.46745625467 0.46749098132 0.46752747038 0.46756268495 0.46759254884 0.46761275528 0.46762187601 0.46761811725 
0.46760246156 0.46757484635 0.46753683443 0.46041439391 0.4604521199 0.46048567876 0.46051232556 0.46053236725 0.4605458264 
0.46055709941 0.46056884446 0.46058490573 0.46060580131 0.46063198827 0.46066115509 0.46069051911 0.46071736466 0.46073817325 
0.46075055048 0.46075372243 0.46074771159 0.46073185742 0.46070788507 0.45667526433 0.45670692218 0.45673188341 0.45674957219 
0.45675949349 0.45676315411 0.45676300054 0.45676281219 0.45676532512 0.45677280306 0.45678593234 0.45680376952 0.45682422793 
0.45684534491 0.45686519152 0.45687967043 0.45688869277 0.45689175865 0.45688743406 0.45687621997 0.45751259066 0.45754155768 
0.4575603503 0.45757002648 0.45757064494 0.45756368379 0.45755078824 0.45753551074 0.45752199418 0.45751227858 0.45750914615 
0.45751183336 0.45752121005 0.45753510633 0.45755224833 0.45756896085 0.45758286179 0.45759431566 0.45760099437 0.45760164198 
0.4639545028 0.46398208531 0.46399690073 0.46399936639 0.46399171637 0.46397366984 0.46394621599 0.46391434482 0.46388222072 
0.463852857 0.46383044522 0.46381760962 0.4638134649 0.4638196171 0.46383342016 0.46385142178 0.46387135082 0.46389011309 
0.46390713195 0.46391943394 0.47645732749 0.4764854233 0.47649713285 0.4764940879 0.47647844412 0.4764493997 0.47640759851 
0.47635795426 0.47630610298 0.47625547679 0.4762125785 0.47618263869 0.47616527661 0.47616323268 0.47617367093 0.4761935218 
0.47621870342 0.47624490601 0.47627192941 0.47629491284 0.49490564327 0.49493538313 0.49494589061 0.49493950047 0.49491659226 
0.49487768143 0.49482272326 0.49475613402 0.49468432235 0.49461331335 0.49455077834 0.49450346128 0.49447380125 0.49446415758 
0.49447183513 0.49449308234 0.4945229136 0.49455655066 0.49459114018 0.49462316359 0.51862531004 0.51865793892 0.51866916127 
0.51866127637 0.51863352647 0.5185867661 0.51852130918 0.5184402598 0.51835130763 0.51826256212 0.51818309736 0.51812115942 
0.51808134465 0.51806462899 0.51806958455 0.51809158779 0.51812486166 0.51816351737 0.51820452906 0.51824201657 0.54643309116 
0.54647071967 0.54648404934 0.54647673651 0.54644701626 0.5463963855 0.54632408399 0.54623404795 0.5461338368 0.54603304414 
0.54594192552 0.54586989501 0.54582181685 0.54579990701 0.54580193966 0.54582347815 0.54585790855 0.54589809164 0.54594073024 
0.54598009622 0.57678024243 0.5768236406 0.57684168174 0.57683642106 0.57680827111 0.57675723037 0.57668345983 0.57659141792 
0.5764878267 0.57638274188 0.57628760626 0.5762109977 0.57615895822 0.57613313306 0.57613204362 0.57615044032 0.57618274883 
0.57622109768 0.57626052098 0.5762962524 0.36061532709 0.36092491983 0.36118657377 0.36137550107 0.36147722516 0.36149579735 
0.36145134099 0.36137369942 0.36129546997 0.36124231863 0.36123113619 0.36126474423 0.36133263717 0.36141299661 0.36147676057 
0.36149212926 0.36143824781 0.36130689249 0.36110664503 0.36085648115 0.38622551911 0.38651196628 0.38675747241 0.38693866611 
0.38704275978 0.38707124319 0.38704166139 0.38698066994 0.3869157495 0.38687158926 0.38686317876 0.38689302715 0.38695212182 
0.38701997769 0.38707172204 0.38707997796 0.38702509133 0.38690173275 0.38671716297 0.38648791972 0.40976460078 0.41002010032 
0.41024129243 0.41040877951 0.41051089725 0.4105491766 0.41053621048 0.41049477353 0.41044764869 0.4104155549 0.41041073513 
0.41043662533 0.41048495084 0.41053849017 0.41057575839 0.41057553487 0.41052170704 0.4104093245 0.41024499272 0.41004231416 
0.43018207239 0.43040218556 0.43059494039 0.43074433358 0.4308413081 0.43088649868 0.43089033929 0.43086871015 0.430840171 
0.43082167078 0.43082230647 0.43084445923 0.43088248084 0.43092204703 0.43094626453 0.43093893219 0.43088746637 0.4307881566 
0.4306463662 0.4304718046 0.44667011027 0.44685471726 0.44701787829 0.44714774663 0.44723782006 0.44728705405 0.44730445869 
0.44730016586 0.44728957875 0.44728366399 0.4472908289 0.44731130594 0.44734152754 0.44736942461 0.44738389061 0.44737203746 
0.4473245052 0.44723892434 0.44711859923 0.44697187725 0.45877167783 0.45892303107 0.45905871721 0.45916961767 0.45925063998 
0.45930150268 0.45932843007 0.45933867013 0.45934248466 0.45934810294 0.45936149337 0.45938241303 0.45940786097 0.45942866796 
0.45943666709 0.45942238438 0.45938002444 0.4593075927 0.45920775412 0.45908573112 0.46643659131 0.46655883789 0.46667020353 
0.46676331349 0.46683532355 0.46688538108 0.46691746036 0.46693751065 0.46695281011 0.46696759578 0.46698680163 0.46700927322 
0.46703262828 0.46704963221 0.46705461609 0.46704104362 0.46700471229 0.46694516419 0.46686268736 0.46676165822 0.47004074936 
0.47013902541 0.47022961344 0.47030706762 0.47036950293 0.47041666751 0.47045049804 0.47047667034 0.47049867079 0.47052048931 
0.4705439361 0.47056881206 0.47059192338 0.47060829672 0.47061260807 0.47060088792 0.47057147817 0.47052266275 0.47045602832 
0.47037348401 0.47037413689 0.47045284182 0.47052598169 0.47058989322 0.47064306871 0.47068507966 0.47071830895 0.47074566751 
0.47077142403 0.47079711923 0.47082276536 0.47084905409 0.47087244347 0.47088903203 0.47089466456 0.47088636367 0.4708635811 
0.47082487014 0.47077187455 0.47070484935 0.46858434075 0.46864812745 0.46870729778 0.46875967732 0.46880384434 0.46883919309 
0.4688687487 0.4688945994 0.46891968808 0.46894529333 0.46897081016 0.46899698437 0.46901991883 0.46903689969 0.46904467263 
0.46904069766 0.46902360008 0.46899429729 0.46895240035 0.46889939818 0.46606955212 0.46612258986 0.46617086436 0.46621274428 
0.46624817122 0.46627631539 0.46629978107 0.46632096249 0.4663422629 0.46636457838 0.46638763685 0.46641065051 0.46643146314 
0.46644823339 0.46645732556 0.46645674692 0.46644591555 0.46642484027 0.46639309382 0.46635231646 0.4643187073 0.46436361329 
0.46440312351 0.464436678 0.46446338253 0.46448388553 0.46449969088 0.46451341009 0.46452786572 0.46454322497 0.46456025048 
0.46457770678 0.46459496024 0.4646091819 0.46461849708 0.46462085994 0.46461544089 0.46460228967 0.46458010844 0.46454956003 
0.46472529161 0.46476560294 0.46479914102 0.46482517111 0.46484378667 0.46485616287 0.46486289821 0.46486716153 0.4648719338 
0.4648776508 0.4648856653 0.4648951585 0.46490619467 0.46491705526 0.46492544905 0.46493020228 0.46492882549 0.46492256243 
0.46490909648 0.46488832979 0.46843350942 0.46847191223 0.46850056704 0.46852063165 0.46853158693 0.46853518255 0.46853188189 
0.46852538802 0.46851809849 0.46851224257 0.46850858451 0.46850870382 0.46851150122 0.4685174984 0.46852439716 0.46853013626 
0.46853253779 0.46853235707 0.4685269089 0.4685152862 0.47622526163 0.47626360228 0.47628950795 0.47630385798 0.47630831266 
0.47630317365 0.47628935557 0.47627085845 0.4762504607 0.47623084343 0.476214529 0.47620349466 0.4761972801 0.47619748412 
0.47620202859 0.47620855799 0.47621508441 0.47621996663 0.47622172577 0.47621799055 0.48846946688 0.48850864529 0.48853302513 
0.48854330399 0.48854161339 0.48852853288 0.48850415048 0.48847321787 0.48843942257 0.48840551293 0.48837565189 0.48835321439 
0.48833772581 0.48833210754 0.48833381033 0.48834066206 0.48835069165 0.48836055605 0.48836808496 0.4883711515 0.50510620882 
0.50514734783 0.50517122409 0.50517931018 0.5051726126 0.50515190478 0.50511862203 0.50507598268 0.50502943724 0.50498205045 
0.50493935078 0.50490551924 0.50488123072 0.50487014443 0.50486895293 0.50487633929 0.50488830284 0.5049019459 0.50491433385 
0.50492298688 0.5256659605 0.52571070679 0.52573527499 0.52574241654 0.52573204957 0.52570603107 0.52566527345 0.52561355078 
0.52555591759 0.52549738598 0.52544390114 0.52540025653 0.52536921238 0.52535259539 0.52534863454 0.52535535805 0.52536869268 
0.52538459829 0.52540024926 0.52541166974 0.54932761811 0.54937611491 0.5494027899 0.54941049886 0.54939906966 0.54936995373 
0.54932464678 0.54926718318 0.54920227878 0.54913640004 0.54907527827 0.54902473497 0.54898810308 0.54896714613 0.54896064492 
0.54896589982 0.5489788988 0.54899498838 0.5490111631 0.54902291942 0.57502499896 0.57507739681 0.57510721732 0.57511673051 
0.57510592784 0.57507678808 0.57503084486 0.57497162085 0.57490463814 0.57483530089 0.57477101711 0.57471749263 0.57467725049 
0.57465340999 0.57464412636 0.57464666053 0.57465762127 0.57467162638 0.57468523208 0.57469438982 0.35515101256 0.35538466964 
0.35558461432 0.35573595065 0.35583071533 0.35587199802 0.35587107418 0.35584486942 0.35581221513 0.3557887888 0.35578489012 
0.35580203559 0.35583403522 0.35586742026 0.35588650402 0.35587250543 0.35581434727 0.3557058852 0.35555176914 0.35536244935 
0.37737133015 0.3775900746 0.37777902134 0.37792500788 0.37802003968 0.37806568376 0.37807252923 0.37805492499 0.37802977214 
0.37801202858 0.37801022877 0.37802614514 0.37805442608 0.37808229483 0.37809678281 0.37808032248 0.37802285409 0.37792003855 
0.37777601848 0.37760048684 0.39793455951 0.39813312221 0.39830674566 0.39844334653 0.39853594934 0.39858583301 0.39860082063 
0.39859398695 0.39857833211 0.39856765315 0.39856866492 0.39858315357 0.39860661484 0.39862783937 0.3986363046 0.3986172375 
0.3985618496 0.39846693842 0.39833600409 0.39817681384 0.41610835764 0.41628386131 0.41643907777 0.41656385719 0.41665190999 
0.41670492361 0.41672774392 0.41673147903 0.4167261561 0.41672309922 0.41672735503 0.4167407616 0.4167598161 0.41677556501 
0.41677788268 0.41675641467 0.4167043966 0.416618486 0.41650226905 0.4163613641 0.4313343208 0.43148641742 0.43162218858 
0.43173357455 0.43181559668 0.43186924486 0.43189944691 0.4319117564 0.43191647961 0.43192070795 0.43192889151 0.43194232689 
0.43195809414 0.43196872457 0.4319668824 0.43194451122 0.43189682119 0.43182073618 0.43171901963 0.43159652201 0.44330366473 
0.44343327656 0.44355006452 0.44364785891 0.44372316225 0.443776079 0.44381049858 0.4438307902 0.44384334495 0.44385406012 
0.4438663851 0.44388046612 0.44389423534 0.44390169159 0.4438973101 0.4438757099 0.44383290231 0.44376660741 0.44367911071 
0.44357404909 0.45200325241 0.45211216641 0.45221172118 0.45229688344 0.45236457563 0.45241539798 0.45245196873 0.45247746822 
0.45249600106 0.45251194571 0.45252766977 0.45254315902 0.45255644447 0.4525629836 0.45255802892 0.45253747103 0.45250017932 
0.45244326057 0.45236892902 0.45227973436 0.45773068564 0.45782182969 0.45790594072 0.45797954995 0.4580400749 0.45808743822 
0.45812381811 0.45815146302 0.45817432634 0.45819354026 0.45821191491 0.45822856481 0.45824189761 0.45824847342 0.4582440501 
0.4582266101 0.45819464714 0.45814725835 0.45808448946 0.45800835534 0.46108014838 0.46115673705 0.46122788486 0.46129095869 
0.46134419314 0.46138695753 0.46142120607 0.46144948261 0.4614731032 0.46149394443 0.46151344803 0.46153097453 0.46154451873 
0.46155144921 0.46154860573 0.46153476646 0.46150806723 0.46146843619 0.46141616268 0.46135225074 0.46289480918 0.46296002722 
0.46302031859 0.46307419907 0.46311998253 0.46315793619 0.46318854474 0.46321438609 0.46323714758 0.46325802811 0.46327622962 
0.46329312689 0.46330628274 0.46331365507 0.46331289825 0.46330178918 0.4632803273 0.46324795454 0.46320520852 0.46315179417 
0.46418579425 0.46424326291 0.46429482382 0.46434068767 0.46437959058 0.46441106778 0.4644369309 0.46445863564 0.46447814289 
0.46449618894 0.46451171466 0.46452641217 0.46453835867 0.46454523966 0.46454551903 0.46453760248 0.46452065834 0.46449521434 
0.46445986951 0.46441619042 0.46602398881 0.46607576873 0.46612109101 0.4661595401 0.46619165641 0.46621742044 0.46623670014 
0.46625285965 0.46626681526 0.46627947513 0.46629134955 0.46630143214 0.46631046552 0.46631603257 0.46631672489 0.46631152922 
0.4662985866 0.46627885528 0.46625071975 0.4662151163 0.46941884395 0.46946689974 0.46950713871 0.46954003518 0.46956607968 
0.46958511857 0.46959745485 0.46960627835 0.469613161 0.46961900384 0.46962417327 0.46962885493 0.46963378267 0.46963676589 
0.46963689501 0.46963341136 0.46962374205 0.46960930651 0.46958759788 0.46955922817 0.4752093485 0.47525588826 0.47529340953 
0.47532110139 0.47534124943 0.47535345825 0.4753581813 0.47535892722 0.47535741155 0.4753548612 0.47535199579 0.4753501963 
0.47534920194 0.47534901376 0.47534785607 0.4753453507 0.4753389178 0.47532842788 0.47531260957 0.47529041442 0.48398482624 
0.4840315082 0.48406650685 0.48409101288 0.48410550977 0.48411121892 0.48410831789 0.48410049126 0.48408941949 0.48407760027 
0.48406599267 0.48405651678 0.48404929579 0.48404497093 0.48404227669 0.48403982037 0.48403557832 0.48402896412 0.48401808409 
0.48400109637 0.49603609189 0.49608387764 0.49611834361 0.49614003204 0.49614984468 0.49614936641 0.49613931755 0.49612277221 
0.49610226747 0.49608078854 0.4960604581 0.49604309472 0.49602935521 0.49602076758 0.49601565157 0.49601326977 0.49601029104 
0.49600720049 0.49599992886 0.49598725223 0.51134204462 0.51139246596 0.51142661556 0.51144689958 0.51145325733 0.51144715692 
0.51143099571 0.51140648736 0.51137735395 0.51134662807 0.51131798362 0.51129279798 0.51127306525 0.51126022111 0.51125291303 
0.51124995176 0.51124780934 0.5112467177 0.51124252679 0.51123259941 0.5295849434 0.5296381878 0.52967342163 0.52969280604 
0.52969696017 0.529687336 0.52966596283 0.52963526694 0.5295991831 0.5295608951 0.52952464255 0.52949331146 0.52946854933 
0.52945162645 0.52944184848 0.52943786737 0.52943655827 0.5294356438 0.52943266613 0.52942432725 0.55019576751 0.5502521093 
0.5502891788 0.55030893087 0.55031202035 0.55030046253 0.55027586231 0.55024148996 0.55020070673 0.55015748638 0.5501160513 
0.55008006981 0.55005090819 0.55003072938 0.55001879062 0.55001299724 0.55001096473 0.55000973708 0.55000619505 0.54999756635 
0.57243142065 0.57249036486 0.57253014423 0.57255098372 0.57255472057 0.57254312704 0.57251809094 0.572482514 0.57243996825 
0.5723945205 0.5723505837 0.57231193881 0.57228029134 0.57225791405 0.57224327343 0.57223554231 0.57223134447 0.57222803899 
0.57222235551 0.57221149827 0.35054794789 0.35073125799 0.3508906254 0.35101594372 0.35110453989 0.35115638559 0.3511786447 
0.35118072346 0.35117390064 0.35116788204 0.35116824852 0.35117617604 0.35118757101 0.35119596015 0.35119129576 0.35116239365 
0.35110402037 0.35101163354 0.35088810013 0.35073961342 0.37020047346 0.37037352007 0.37052531834 0.37064717957 0.37073416735 
0.37078760882 0.37081379234 0.37082058146 0.37081813099 0.37081544217 0.37081760353 0.37082548873 0.37083636419 0.37084233888 
0.37083565784 0.3708067825 0.37074990546 0.37066194772 0.37054540627 0.37040571392 0.38853377655 0.38869352458 0.38883500761 
0.38895017161 0.38903509576 0.38908978997 0.38911978016 0.38913237198 0.38913513271 0.38913640892 0.38914070295 0.38914846506 
0.38915752892 0.38916089227 0.38915223062 0.38912342536 0.38906874049 0.38898644123 0.38887867473 0.38875016082 0.40503313476 
0.4051775557 0.40530666635 0.40541353208 0.40549457571 0.40555022213 0.40558349729 0.40560152405 0.40560992245 0.40561567434 
0.40562218639 0.40563019948 0.40563753314 0.40563902491 0.40562790343 0.40559933367 0.40554804394 0.40547247328 0.40537433219 
0.40525814604 0.41931159997 0.4194402035 0.4195558718 0.41965326849 0.41972924398 0.4197844858 0.41982102446 0.41984351461 
0.41985726773 0.41986714018 0.41987591606 0.41988434075 0.41989076335 0.41989098789 0.41987834316 0.41985050404 0.41980326734 
0.41973475627 0.41964731351 0.41954321643 0.4311629228 0.43127586032 0.43137840276 0.43146640008 0.4315368945 0.43159025365 
0.43162854806 0.4316543609 0.43167264014 0.4316861555 0.43169741062 0.43170673461 0.43171274909 0.43171208385 0.43169931754 
0.43167291434 0.43163023773 0.43156911273 0.43149139322 0.4313997373 0.44059585695 0.4406944645 0.44078446268 0.44086317276 