# vtk DataFile Version 5.1
vtk output
ASCII
DATASET STRUCTURED_POINTS
DIMENSIONS 20 20 20
SPACING 0.1 0.1 0.1
ORIGIN -0.95 -0.95 0.55
POINT_DATA 8000
FIELD FieldData 1
potential 1 8000 double
0.16620456209 0.18749761606 0.21033376922 0.23357540426 0.25573916419 0.27535949313 0.29137558144 0.30329759604 0.31109142566 
0.31492573687 0.3149437544 0.31114543217 0.30338880498 0.29150727285 0.27553258489 0.25594893103 0.23380897938 0.21057079484 
0.18771992041 0.16640039066 0.14610626855 0.16371821363 0.18258997327 0.20185937266 0.22037424886 0.23694845467 0.25065778773 
0.26099837724 0.26783509816 0.27122535721 0.27124524857 0.26789436176 0.26109673764 0.25079556695 0.23712369395 0.22057914448 
0.20207844009 0.18280342287 0.16390944795 0.14626718306 0.12779615908 0.14199979029 0.1571178912 0.17251288553 0.18733742401 
0.20070246542 0.21187593551 0.22040582906 0.22610783571 0.2289576468 0.22897761068 0.22616671035 0.22050281256 0.2120085326 
0.20086703578 0.18752444918 0.17270693213 0.15730237636 0.14216178484 0.12792950469 0.11146617633 0.12270804599 0.13454864165 
0.14652523276 0.15803830719 0.16845450663 0.17723162294 0.18400037308 0.18856892541 0.19086896044 0.19088697285 0.18862200528 
0.18408658436 0.17734818205 0.16859614889 0.15819617391 0.14668680551 0.13470110808 0.12284213485 0.11157817508 0.097198791612 
0.10599571019 0.11514648995 0.12431991017 0.13310044937 0.14105070926 0.14778377279 0.15301531558 0.15657362726 0.15837532654 
0.15839022459 0.15661763062 0.1530863214 0.14787847208 0.14116414012 0.13322527517 0.12444702093 0.1152678032 0.10610504211 
0.09729410063 0.084939593806 0.091790968575 0.098826823311 0.10581055983 0.11245687652 0.11846653263 0.12356873476 0.12755274984 
0.13027714287 0.13166243758 0.13167421318 0.13031171704 0.12760811722 0.12364181562 0.11855292509 0.11255098916 0.10590692437 
0.098920365163 0.091878844362 0.085020661038 0.074520036113 0.079859412282 0.085274247468 0.090596235284 0.095627956642 0.10016467294 
0.10401797179 0.10703434988 0.10910407519 0.11015928241 0.11016837797 0.10913052305 0.1070765271 0.10407275428 0.1002282545 
0.09569671805 0.090667168576 0.085345085366 0.079928815195 0.074587709712 0.065709362373 0.069887676495 0.074076029021 0.078153438738 
0.081982644465 0.085421872923 0.088339591452 0.090625349424 0.092196285316 0.092998626151 0.09300547662 0.092216326252 0.090656824214 
0.088379606974 0.085467846477 0.082031941119 0.078204676606 0.074128337438 0.069941006421 0.065763547458 0.0582563481 0.061546705662 
0.06480989462 0.06795872365 0.070896073268 0.073522994279 0.075746671028 0.077487963294 0.07868531325 0.07929713275 0.07930225494 
0.078700291762 0.077510940789 0.075775505584 0.073555406703 0.070930580577 0.067994535476 0.06484711953 0.061585640038 0.058296489404 
0.051918864321 0.054529284891 0.057093011178 0.059546923609 0.061821618784 0.063846657976 0.065556264922 0.066893143121 0.067812241151 
0.068281695476 0.068285444709 0.067822771985 0.066909278997 0.065576031703 0.063868393873 0.061844285355 0.059570422925 0.057117913771 
0.054555728188 0.051946001814 0.046487502039 0.048575102245 0.050607312107 0.052537921139 0.05431686624 0.055893457962 0.057220306777 
0.058255933433 0.058967110675 0.059330377195 0.059332580652 0.058973788013 0.058265875084 0.057231854385 0.05590544574 0.054328787757 
0.052550353286 0.050620922472 0.048590104763 0.04650301704 0.041798475696 0.043482545141 0.045108303419 0.046642013866 0.048046902286 
0.049286339629 0.050325887711 0.051135511357 0.051690468179 0.051973283019 0.051974294662 0.051693286131 0.051139060155 0.050329165198 
0.049288386618 0.048047686565 0.046642669387 0.045110298877 0.04348652187 0.04180420823 0.037733614805 0.039104536166 0.040417801773 
0.041648032613 0.042768360347 0.043752038559 0.044574074571 0.045212490879 0.045649051423 0.045870547525 0.045870087529 0.045647502963 
0.045209303179 0.044568426107 0.043743464766 0.042757337639 0.041636323388 0.040407765099 0.039098069051 0.037731526514 0.034206101866 
0.035332287079 0.03640325424 0.037399736913 0.038301800829 0.039089887589 0.039745940934 0.040253741846 0.040599846672 0.040774506841 
0.040772633351 0.040593882877 0.040243525008 0.039731130243 0.039070538652 0.038279093121 0.0373763023 0.036382343883 0.035317015992 
0.034198677102 0.031144807926 0.032077668771 0.032958973017 0.033773599031 0.034507026713 0.03514458162 0.035673272772 0.036081003491 
0.036357765365 0.036496434509 0.036492942948 0.036347462173 0.0360638327 0.035649694914 0.035115595909 0.034474474919 0.033740902609 
0.032930017204 0.032056759862 0.031135107386 0.02848544669 0.029263614049 0.029994680237 0.030666757128 0.031268555939 0.031789626374 
0.032219981324 0.032550757321 0.032774335129 0.032885013429 0.032880140721 0.032759899474 0.032527662339 0.032189326452 0.031753231831 
0.03122939502 0.030628443716 0.029961786447 0.029240706148 0.028476479824 0.026167039031 0.02682005964 0.027430876357 0.027989937881 
0.028488429603 0.028918310019 0.029272338709 0.029543506294 0.029725891342 0.029815174732 0.029809191512 0.029708496884 0.029516055954 
0.029236984212 0.028877819675 0.028446145814 0.027949933284 0.027397825396 0.02679877875 0.02616059592 0.024130923654 0.02468199367 
0.025195738175 0.025664349453 0.026080879849 0.026438901633 0.026732943633 0.026957630766 0.027108211975 0.027181027442 0.027174444227 
0.027089197282 0.026928191432 0.026695950437 0.026397709281 0.02603919691 0.025626647365 0.025166087318 0.024664423269 0.02412832878 
0.022322828763 0.022790364754 0.023225136374 0.023620746934 0.023971366167 0.024272108995 0.024518638966 0.024706819741 0.024832731269 
0.024893009847 0.024886375087 0.024813685226 0.024677923715 0.024483126993 0.024233602073 0.023933890968 0.02358792562 0.023200940386 
0.022778217638 0.022324857677 0.020697567089 0.02109602475 0.021466108028 0.021802190114 0.022099526989 0.02235405124 0.022562542291 
0.022721782475 0.022828254776 0.02287905067 0.022872840221 0.022810599571 0.022695374869 0.022531105354 0.02232090184 0.022068171501 
0.021776170999 0.021448670354 0.021089921149 0.020704534658 0.16912568718 0.18693448185 0.20542515577 0.22379220408 0.24108916358 
0.25640946228 0.26906270292 0.27865295779 0.28503850686 0.28822207082 0.28823796206 0.28508635051 0.27873307822 0.26917599922 
0.25655443975 0.24126183139 0.22398489872 0.20562655916 0.1871338635 0.16931480024 0.15074427746 0.16588144517 0.1816157244 
0.1973039513 0.21217244734 0.22545304809 0.23652533126 0.24499504681 0.25067867652 0.25352764594 0.25354408681 0.25072741388 
0.2450759289 0.23663726935 0.22559337148 0.21233551329 0.19748070846 0.18179525292 0.16605371674 0.15090254649 0.13374433299 
0.14632733908 0.15936542184 0.17235951969 0.184705798 0.1957923376 0.20510252438 0.21228023509 0.21713102634 0.21957516758 
0.21959091406 0.21717791826 0.21235745897 0.20520787282 0.19592206518 0.18485372132 0.17251646681 0.15952159376 0.14647470846 
0.13387762267 0.11831472069 0.12859278895 0.13917606448 0.14968548673 0.15966612741 0.16865184301 0.17623610679 0.18212010825 
0.18612035253 0.18814487867 0.18815935051 0.18616288269 0.18218921159 0.17632955736 0.1687652921 0.15979382518 0.14981940004 
0.139308404 0.12871720295 0.11842738036 0.10455518637 0.11284916995 0.12131948364 0.12968256121 0.13760359302 0.14473807257 
0.15077800797 0.15548496275 0.1586997866 0.1603324859 0.16034471053 0.15873590993 0.15554352453 0.15085649119 0.14483260599 
0.13770875989 0.12979259121 0.1214287264 0.11295294114 0.10465118223 0.092465417419 0.099111438943 0.1058368989 0.11243112494 
0.11865097882 0.12424609317 0.1289883452 0.13269422023 0.13523337253 0.13652632587 0.13653636983 0.13526302171 0.13274181432 
0.12905154755 0.12432150275 0.11873454057 0.11251890233 0.10592485702 0.099196814216 0.092546568593 0.081955757363 0.087267449723 
0.092592098145 0.097774222584 0.10263736227 0.10700093402 0.1106983512 0.11359105207 0.11557675248 0.11658948771 0.11659743391 
0.11560007149 0.11362849892 0.11074782111 0.10705930221 0.10270206351 0.097842366932 0.092661645263 0.087336601829 0.082023508582 
0.072877995358 0.077126416329 0.081346167085 0.085421945929 0.089225951807 0.092627690903 0.095505873208 0.097757703058 0.099304234062 
0.10009381505 0.10009996208 0.099322387584 0.097786407107 0.095543201455 0.092671861728 0.08927484308 0.085474005052 0.081400004982 
0.07718120806 0.072933180948 0.0650548771 0.068463506359 0.071819410231 0.075037208853 0.078023427547 0.080683623109 0.08292941082 
0.084684755629 0.085890346666 0.086505587175 0.086510252573 0.085903950585 0.084706048929 0.082957044658 0.080716074395 0.078059386136 
0.075075715606 0.07185984933 0.068505370988 0.065097745948 0.058304921749 0.06105258545 0.063735532541 0.066290135924 0.068647772144 
0.070739349265 0.072500439221 0.07387461173 0.074817709119 0.075298800046 0.075302134716 0.074827238249 0.073889633328 0.072519724697 
0.070762018699 0.068672810626 0.066317138241 0.063764415347 0.061083134004 0.058336621978 0.052461584471 0.054689204333 0.056847659706 
0.0588892878 0.0607632626 0.062418990385 0.063808769467 0.064891067449 0.065632869547 0.066010839446 0.066012946036 0.065638897961 
0.064900508568 0.063820729654 0.062432776151 0.060778486024 0.058906001206 0.056866096188 0.054709414845 0.05248328946 0.047383430681 
0.049200946649 0.050949517348 0.052593070895 0.054093800427 0.055414103853 0.056518836599 0.057377273684 0.057964426219 0.05826308521 
0.058264019018 0.057967253441 0.057381343248 0.056523828164 0.055419539656 0.054099739543 0.052600055267 0.050958302229 0.04921206056 
0.047396867818 0.042956214853 0.044449346646 0.045876307134 0.047209526077 0.048420667883 0.049481695384 0.050366527471 0.051052242868 
0.051520397043 0.051757665908 0.051757565607 0.051519854968 0.051051194393 0.050364623826 0.049478975333 0.048417665451 0.047207301923 
0.045876181021 0.044452523472 0.042963274961 0.039088464306 0.040323649893 0.041496817579 0.042586747877 0.043571937368 0.044431414115 
0.045145640748 0.045697713659 0.046073484492 0.046263355677 0.04626218764 0.046069800652 0.045691509941 0.045137162961 0.044420963179 
0.043560624329 0.04257627479 0.041489102854 0.040320530146 0.039091203714 0.035703974485 0.03673265098 0.037704138974 0.038602063699 
0.039409837597 0.040111725557 0.04069301272 0.041140905931 0.041444964482 0.041597853702 0.041595599679 0.041438331886 0.041130068735 
0.04067852142 0.040094627719 0.039391750145 0.038585051527 0.037690742266 0.036725250924 0.035704423562 0.032736033663 0.033598043507 
0.03440817821 0.035153397921 0.035821018112 0.03639884723 0.036875890116 0.037242415407 0.037490401146 0.03761420357 0.037611028937 
0.03748116765 0.037227744556 0.036856815397 0.036376775577 0.035798104634 0.035132220593 0.034391565174 0.03358868204 0.032736315006 
0.030124516466 0.030850961877 0.031530906211 0.032153842214 0.032709793117 0.03318941504 0.033584191062 0.033886625332 0.034090546895 
0.034191669635 0.034187911957 0.034079476501 0.033869253845 0.033562038177 0.033164503813 0.032684525402 0.032130975117 0.03151383596 
0.030842077266 0.030125882557 0.027814502134 0.028429978269 0.029004020258 0.029528281444 0.029994635189 0.030395783137 0.0307251366 
0.030976881913 0.031146116882 0.031229521705 0.031225347257 0.03113413469 0.030958279803 0.030701866675 0.030370169107 0.029969300842 
0.029506488687 0.028988379741 0.028422971912 0.027818087361 0.025757061373 0.026281181593 0.026768589895 0.027212439471 0.027606279555 
0.027944300734 0.028221277485 0.028432580499 0.028574364236 0.028643783355 0.028639600636 0.028562352537 0.02841422422 0.02819867804 
0.027920286813 0.027583272004 0.0271932355 0.026755901972 0.026277345583 0.025763508233 0.023911237859 0.024359499776 0.024775516197 
0.025153532933 0.025488301607 0.025775055131 0.026009673782 0.02618849812 0.026308275484 0.026366690465 0.026362750406 0.026296981423 
0.026171474006 0.025989409947 0.02575381299 0.025468697827 0.025138212136 0.024766724658 0.024359397372 0.023921070064 0.16960778155 
0.18454357502 0.19968882439 0.21446904235 0.22825124841 0.24043977286 0.25056192023 0.25830811015 0.26351989435 0.26613875534 
0.26615282285 0.26356222106 0.25837881914 0.25066040887 0.24056474471 0.22839945936 0.21463510342 0.19986624106 0.18472519124 
0.16978779028 0.15291568034 0.16588534189 0.17906310888 0.19197165713 0.20407354433 0.21484639207 0.22385568949 0.23079694071 
0.23549329982 0.23786234683 0.23787627799 0.23553470599 0.23086537882 0.22394989044 0.21496399234 0.20421051873 0.19212213363 
0.17922040538 0.16604305921 0.15306875732 0.13728425271 0.14832644418 0.15953199127 0.17051517069 0.18083762922 0.19006416532 
0.1978203753 0.20382828213 0.20791240457 0.20997993232 0.20999289287 0.20795133208 0.20389230882 0.1979074773 0.19017160834 
0.18096105291 0.17064869149 0.15966941443 0.14846242556 0.13741461523 0.12288867368 0.13213892262 0.14149104768 0.15064012328 
0.15923976251 0.16694167826 0.17343839919 0.17849124532 0.18193929395 0.18368957648 0.1837015338 0.18197450572 0.17854859811 
0.17351595788 0.16703644437 0.1593473901 0.15075558925 0.14160907064 0.13225512986 0.12299977331 0.10983591265 0.11749174077 
0.1251892237 0.13269121145 0.1397306079 0.14603678155 0.15136575257 0.15552191358 0.15836587768 0.15981274611 0.15982311716 
0.15839632863 0.15557127096 0.15143223769 0.14611734209 0.1398215651 0.13278842653 0.12528853588 0.11759004954 0.10993071806 
0.098157899632 0.10444236545 0.11071963052 0.11680743258 0.12250200578 0.12759779004 0.13190589451 0.13527067671 0.13757743919 
0.13875290687 0.13876148139 0.13760296299 0.13531184927 0.13196090614 0.12766421177 0.12257676717 0.11688737222 0.11080211498 
0.10452473483 0.098238436164 0.087817240698 0.092952729656 0.098045785742 0.10295728182 0.10753360232 0.11161932221 0.11507142421 
0.11776860274 0.1196194349 0.12056330686 0.12057030275 0.1196401017 0.11780200972 0.11511587553 0.11167276848 0.10759363785 
0.103021962 0.098113004933 0.093020817014 0.087885067349 0.078725468361 0.082915567752 0.087040883658 0.09099519089 0.094663264255 
0.097928699605 0.10068311472 0.10283441378 0.10431059138 0.10506367789 0.10506928088 0.10432704521 0.10286071198 0.10071784537 
0.097970429165 0.094710578265 0.091046455979 0.08709472308 0.082970951112 0.078781655885 0.07076310643 0.074184389382 0.077528631417 
0.080715030523 0.083656548259 0.086266493221 0.088463363438 0.090177007335 0.091352495487 0.091951838802 0.091956150277 0.09136507476 
0.090196972554 0.088489800989 0.086298360601 0.083692857202 0.080754520663 0.07757077186 0.074228333868 0.07080834033 0.063798302963 
0.06659875511 0.069317262844 0.071892067641 0.07425778644 0.076349044581 0.078104810031 0.079472184515 0.080409136694 0.080886662652 
0.080889684032 0.080418185203 0.079486683094 0.078124119852 0.076372283964 0.074284398787 0.071921459332 0.069349045251 0.066632567374 
0.063833784997 0.057702194453 0.060002957125 0.062221715559 0.064311156074 0.066221792784 0.067904479568 0.069313314424 0.070408263919 
0.071157618155 0.071538954325 0.071541043646 0.071163565255 0.070417958398 0.069326218204 0.067920142485 0.066239839617 0.06433149751 
0.062244318014 0.060027761905 0.05772900023 0.052357479317 0.054256275164 0.056076031374 0.057780442858 0.059331701416 0.060692711212 
0.061828928184 0.062710049904 0.063311974247 0.063617857677 0.063618961429 0.063315317041 0.062715346112 0.061835991357 0.060701400491 
0.059342017989 0.057792646557 0.056090525568 0.054273305404 0.052377198349 0.047662654719 0.049237630191 0.05073836419 0.052136621745 
0.053403574588 0.054510942492 0.055432614302 0.056145714605 0.056631980788 0.056878534796 0.056878759582 0.056632652968 0.056146951398 
0.055434269184 0.054513165778 0.053406809585 0.052141554119 0.050745725691 0.049248137909 0.047676726329 0.043531084109 0.044844475923 
0.04608925822 0.047243369939 0.048284590992 0.049191383397 0.049943731501 0.050524458654 0.050919597342 0.051119427823 0.051118926933 
0.050917999617 0.050521875551 0.049940406015 0.04918782534 0.048281597134 0.047242047054 0.046090770139 0.044849902206 0.043541232598 
0.039888480896 0.040989634799 0.042028193303 0.042986748027 0.043847986596 0.044595425224 0.045213733215 0.045689771747 0.046012964662 
0.046175811901 0.0461745514 0.046009253604 0.045683968135 0.045206183567 0.044587016264 0.043839950965 0.042980445952 0.042025258746 
0.040991529344 0.039896210688 0.036669875212 0.037597993785 0.038469410894 0.039270489886 0.039987539656 0.040607744914 0.041119422444 
0.041512399477 0.041778455945 0.041911976454 0.041910117232 0.041773028747 0.041503883489 0.041108621653 0.040595738405 0.039975873785 
0.039260868046 0.038463729141 0.037597808256 0.036676787183 0.033817381686 0.034603597484 0.035338957606 0.036012401603 0.036613240347 
0.03713141832 0.037557725485 0.037884420098 0.038105012161 0.038215230081 0.038212956845 0.038098342798 0.037874008953 0.037544786621 
0.03711728286 0.03659963663 0.036001196223 0.035332469029 0.034603224494 0.033824477179 0.031279517354 0.031948691606 0.032572494115 
0.033142034968 0.033648603553 0.034084313003 0.034441976122 0.034715410279 0.034899704555 0.034991422818 0.03498887185 0.034892389472 
0.034704170826 0.034428051747 0.034069383416 0.033634539673 0.033131135627 0.032566461787 0.031949127671 0.031287724013 0.029010868782 
0.02958311407 0.030114953126 0.030599152049 0.0310287724 0.031397465994 0.031699549722 0.031930087992 0.032085161972 0.032162042284 
0.032159459242 0.032077770731 0.031918830097 0.031685856123 0.03138338147 0.031015881449 0.030589515497 0.030110431112 0.029585331091 
0.029020789116 0.026972914337 0.027464277801 0.027919841452 0.028333697949 0.028700142375 0.029014032283 0.02927077028 0.029466427092 
0.029597798509 0.029662745869 0.029660293511 0.029590776685 0.029456130266 0.029258385939 0.029001387314 0.028689159336 0.028326241373 
0.027917578008 0.027468723987 0.026985133624 0.1685544541 0.18114995451 0.19369390313 0.20576954458 0.21693704294 0.2267861085 
0.23498070851 0.24128213663 0.24554587765 0.24769800507 0.24771064265 0.24558364488 0.2413450324 0.23506774901 0.22689599138 
0.21706753493 0.20591687432 0.19385344946 0.18131710686 0.16872493936 0.15341746035 0.16454240358 0.17564769158 0.18637634772 
0.19634373118 0.20518059033 0.21257295686 0.21828658469 0.22216849086 0.22413364846 0.22414574605 0.22220455208 0.21834579276 
0.21265430563 0.20528237253 0.19646290759 0.18650884206 0.17578903204 0.16468832884 0.15356411403 0.13910010696 0.14875472042 
0.15839083484 0.16771044829 0.17638870559 0.18410760202 0.19058985401 0.19561937614 0.19904791847 0.2007877311 0.20079881845 
0.19908128432 0.1956739203 0.19066444714 0.18419988884 0.1764954609 0.16782793403 0.1585149003 0.14888143647 0.13922616972 
0.12575749343 0.13401302811 0.14223436439 0.1501784736 0.15757881192 0.16417165468 0.16972153323 0.17403932189 0.17699025568 
0.17849061598 0.17850082467 0.17702032192 0.17408830516 0.16978782747 0.16425314718 0.15767252456 0.15028090458 0.14234192685 
0.13412225422 0.12586585338 0.11349470123 0.12047144005 0.12739357522 0.13406531878 0.14027353615 0.14580518949 0.15046713638 
0.15410043724 0.15658780741 0.15785408144 0.15786286866 0.15661398424 0.15414298487 0.15052468957 0.14587558189 0.14035390171 
0.13415300821 0.12748534375 0.12056497915 0.11358783185 0.10236035272 0.10820575792 0.11397779173 0.11952126545 0.12466746953 
0.12924844264 0.13310930138 0.13612061861 0.13818443811 0.13923600359 0.13924354 0.13820677272 0.13615693342 0.13315800982 
0.12930752437 0.1247351366 0.11959490872 0.11405537639 0.10828523642 0.10244002501 0.092349663985 0.097219784404 0.10200255549 
0.1065760618 0.11080882278 0.11456919873 0.11773615063 0.12020607233 0.12189940885 0.12276259061 0.12276880058 0.12191788011 
0.12023610242 0.11777626963 0.11461821216 0.11086467738 0.10663731004 0.10206737363 0.097286513916 0.09241742106 0.083415369956 
0.087460429632 0.091410165459 0.095168917165 0.098635033055 0.10170676235 0.1042894772 0.10630249998 0.10768224321 0.10838556846 
0.10839072057 0.10769728935 0.10632661325 0.10432186987 0.10174609905 0.098680367136 0.095218874172 0.091463345254 0.08751593284 
0.083472382449 0.075480437766 0.078837078723 0.082095440816 0.085180867007 0.088014861871 0.09051890534 0.092620330348 0.094256082222 
0.095376509826 0.095947400334 0.095951423214 0.095388186778 0.094274937563 0.092645722127 0.09055006482 0.088050783561 0.085220752411 
0.082138411251 0.078882477501 0.075527594722 0.068452036229 0.071239538571 0.073929792922 0.076464625366 0.078783219093 0.080825441085 
0.08253520359 0.083864025457 0.084773259483 0.085236271055 0.085239088483 0.084781966848 0.083878292804 0.082554516113 0.080849206821 
0.07881079782 0.076495602971 0.07396365691 0.071275915514 0.068490483057 0.062233162523 0.064552720027 0.066778766959 0.06886595085 
0.070767233273 0.072436348 0.073830259366 0.074911495186 0.075650472766 0.076026121563 0.076028247461 0.075656646597 0.074921663779 
0.073844108136 0.072453571957 0.070787542317 0.068889109422 0.066804634159 0.064581124952 0.062263962546 0.05672969376 0.058665572441 
0.060513539398 0.06223794805 0.0638024073 0.065171192376 0.066311309288 0.06719390619 0.067796071392 0.06810193105 0.068103282776 
0.067800083154 0.067200481491 0.066320282534 0.065182569822 0.063816165429 0.062254188724 0.060532419003 0.058687182008 0.05675408891 
0.051855556241 0.053477072449 0.055017164882 0.056447758792 0.057740524587 0.058867843843 0.059804289793 0.06052772201 0.061020556334 
0.061270478658 0.061271076989 0.061022512961 0.060530998573 0.059808904116 0.058874064978 0.05774852289 0.056458006936 0.055030100056 
0.053493081618 0.051874856606 0.047533731675 0.048897415949 0.05018650389 0.0513788714 0.052452274162 0.053385236458 0.054158208874 
0.054754055694 0.055159284003 0.055364384648 0.055364401856 0.055159392249 0.054754416628 0.054159006072 0.053386897045 0.052455302958 
0.051384022072 0.050194579829 0.048908970041 0.047549255456 0.043695858439 0.044847654067 0.045931705197 0.046930330553 0.047826148205 
0.048602481374 0.049243862541 0.049737253266 0.050072221944 0.050241247296 0.050240742152 0.050070788417 0.049735205533 0.049241437986 
0.048600363963 0.047825245544 0.04693154765 0.045935978705 0.044855914859 0.043708852643 0.040281467941 0.041258429561 0.04217437967 
0.043015068052 0.043766656903 0.044416054207 0.044951356438 0.04536224394 0.045640562551 0.045780652854 0.045779720029 0.045637880172 
0.0453581661 0.04494648664 0.044411249441 0.043762824139 0.04301342447 0.042176167851 0.04126500092 0.040293199931 0.037236417184 
0.038068744766 0.038846232241 0.039557489777 0.040191480301 0.040737863001 0.041187096458 0.041531223452 0.041763884125 0.041880678835 
0.041879434154 0.041760287175 0.041525758863 0.041180537694 0.04073120063 0.040185963219 0.039554382835 0.038847057865 0.038074349788 
0.03724767095 0.034512706305 0.035224770897 0.035887813331 0.036492654007 0.037030224895 0.037492360482 0.037871567695 0.038161503135 
0.038357201367 0.03845519661 0.038453739063 0.038353098867 0.03815529895 0.037864127824 0.037484853136 0.037023986875 0.036489310501 
0.035888460685 0.035230523877 0.03452430553 0.03206812788 0.032679792213 0.033247726719 0.033764409655 0.034222588247 0.034615643823 
0.034937573084 0.035183323835 0.035348904165 0.035431597699 0.035430079181 0.035344647412 0.035176934863 0.034930044452 0.034608442177 
0.034216861194 0.033761525835 0.03324903362 0.03268625392 0.032080626257 0.02986611127 0.03039359048 0.03088215877 0.031325615581 
0.031718045894 0.032054088065 0.032328882425 0.032538317611 0.032679236033 0.032749462622 0.032748013612 0.032675126611 0.032532510284 
0.032322046354 0.032047565789 0.031713221013 0.031323805716 0.030884542831 0.03040134959 0.029879968208 0.16654918868 0.17724197174 
0.1877404484 0.19773654483 0.20691484752 0.21498214082 0.2216930971 0.22686382907 0.23037219609 0.23214778858 0.23215913471 
0.23040628327 0.22692023597 0.22177101777 0.2150804621 0.20703180475 0.1978693929 0.18788602453 0.17739682415 0.16670983536 
0.15280003088 0.16237434635 0.17179740754 0.18079902637 0.18909650224 0.19642103657 0.20254058312 0.20727421642 0.21049625267 
0.21213022754 0.21214083567 0.21052810105 0.2073265762 0.20261248503 0.19651120879 0.18920266813 0.18091822664 0.1719265779 
0.16251032875 0.15293989145 0.13969278438 0.14813168272 0.15644112616 0.16438929122 0.17173110186 0.1782292628 0.18367449093 
0.18789902796 0.19078136925 0.19224556359 0.1922554183 0.19081055771 0.18794672583 0.18373988924 0.17831063063 0.17182600098 
0.16449500991 0.1565548632 0.14825056871 0.13981409631 0.12736085454 0.13469924019 0.14191581295 0.1488163685 0.15519408629 
0.16084631861 0.1655910235 0.16927905579 0.17179995345 0.17308235221 0.17309117282 0.1718262342 0.1693220003 0.16564930549 
0.16091835822 0.15527764542 0.14890907786 0.1420151262 0.13480257116 0.12746615175 0.11590180717 0.12221221294 0.12840234997 
0.13431138932 0.13976882131 0.14460607748 0.14866995068 0.15183208848 0.15399598166 0.15509765866 0.15510527704 0.15401893856 
0.15186970521 0.14872083669 0.14466877893 0.13984136682 0.13439169389 0.12848809577 0.12230147812 0.11599283836 0.10537037305 
0.11075034592 0.11600910283 0.12101605919 0.12563203284 0.12972011126 0.13315417881 0.13582734628 0.13765772466 0.13858999379 
0.13859671322 0.13767758464 0.13585978152 0.13319805327 0.12977371365 0.12569402625 0.12108455738 0.11608252353 0.11082698124 
0.10544888151 0.095781172517 0.1003393953 0.1047764669 0.10898671873 0.11285893432 0.11628253277 0.11915617354 0.12139256644 
0.12292376769 0.12370392768 0.12370954172 0.12294056829 0.12141981598 0.11919290285 0.11632786577 0.11291124238 0.10904477265 
0.10483879557 0.10040485206 0.095848773533 0.087113849053 0.090960363687 0.094687490858 0.098210733806 0.1014412803 0.10429169832 
0.10668057053 0.10853829099 0.10980991871 0.11045758557 0.11046231714 0.10982380621 0.10856063586 0.10671086942 0.10432897453 
0.10148469465 0.098259095584 0.094739759764 0.091015645468 0.087171391226 0.079321643863 0.082560760756 0.085684247091 0.088624903769 
0.091312461866 0.093677621793 0.0956564481 0.097193362773 0.098244550415 0.098779849903 0.09878357888 0.098255600132 0.097211386121 
0.09568092889 0.093707975412 0.091347823581 0.088664625251 0.085727593356 0.08260702065 0.079370270843 0.07234126679 0.075067452384 
0.077683732942 0.080136402436 0.082370183337 0.084330653551 0.085967381409 0.087236781003 0.088104084211 0.088545355031 0.08854825367 
0.088112639996 0.087250851592 0.085986737317 0.084354688865 0.082398416257 0.08016839878 0.077719038117 0.07510564237 0.072381986614 
0.066101370803 0.068397494664 0.070590589146 0.072637944922 0.074495934339 0.076121871043 0.077476276255 0.078524889952 0.079240486222 
0.079604192585 0.079606404794 0.079246983085 0.078535559475 0.077490939565 0.076140265423 0.074517857305 0.072663130195 0.070618842893 
0.068428629767 0.066135151729 0.060528660976 0.062465855001 0.064307634515 0.066019958986 0.067568370836 0.0689194207 0.070042150634 
0.070909932159 0.071501350755 0.071801512013 0.071803087234 0.071505927415 0.070917565919 0.070052784356 0.068932905606 0.067584729532 
0.066039183559 0.064329766982 0.062490922628 0.060556569408 0.055552438283 0.057190786211 0.058741558246 0.060177684978 0.061471765942 
0.062597652 0.063531031775 0.06425112293 0.064741178985 0.064989692177 0.064990629745 0.064744151959 0.064256037371 0.063538068016 
0.062606803633 0.061483309103 0.060191786424 0.05875854692 0.057210805167 0.055575616566 0.0511067646 0.052496462096 0.053806397182 
0.055014922901 0.056100311755 0.057041903801 0.05782073781 0.058420350382 0.058827861066 0.059034245463 0.059034742733 0.058829462452 
0.058422979764 0.05782457619 0.057047363997 0.056107734788 0.055024728554 0.053819140862 0.052512442247 0.051126265044 0.047131429475 
0.048314075812 0.049424518923 0.050445338822 0.051359346847 0.052150054635 0.052802545416 0.053304000501 0.053644266671 0.053816229498 
0.053816303509 0.053644575352 0.053304706675 0.052803852469 0.052152475186 0.051363423632 0.050451799495 0.049433901643 0.048326921462 
0.047148208032 0.043571717918 0.044581693497 0.045526634022 0.046392428353 0.047165297091 0.047832212918 0.048381450264 0.048802701148 
0.049088011288 0.049231934831 0.049231661244 0.049087301971 0.048801768599 0.048380778434 0.04783241928 0.047166957299 0.046396393471 
0.045533635996 0.044592740165 0.043586962462 0.040378449477 0.041244051201 0.042051258372 0.042788655002 0.043445147159 0.044010216332 
0.044474541473 0.044830100415 0.045070589453 0.045191674176 0.045191141813 0.045069138286 0.044828060411 0.044472457631 0.044008816657 
0.043445239484 0.042791106627 0.042057142294 0.041253890459 0.040392729277 0.037507463163 0.038252018645 0.038944353245 0.039574970585 
0.040134971983 0.040615986654 0.041010500041 0.041312080161 0.041515808542 0.041618165707 0.041617479747 0.041513892891 0.041309372676 
0.041007573779 0.04061368305 0.040134447657 0.039576911503 0.038949654423 0.038261451335 0.03752137492 0.034919731342 0.035562426083 
0.036158374999 0.036699966869 0.037179819214 0.037591170442 0.037927967731 0.038185076335 0.038358456039 0.038445416403 0.038444685398 
0.03835637976 0.038182055431 0.037924719868 0.037588806258 0.037179056497 0.036701775659 0.036163696652 0.03557188057 0.034933983022 
0.03258082647 0.033137574349 0.03365258319 0.034119554263 0.03453249068 0.034885850658 0.035174720861 0.035394931624 0.035543284137 
0.035617584948 0.03561683404 0.035541188432 0.035392197787 0.035171825908 0.03488369006 0.034532031641 0.034121757685 0.033658264935 
0.033147598795 0.032595739014 0.16396781154 0.17310959728 0.18198186346 0.19035309218 0.19799077008 0.20467963069 0.2102364921 
0.21451949203 0.21742870287 0.21890303209 0.21891330978 0.21745964787 0.21457045222 0.21030701935 0.20476861774 0.19809693915 
0.19047429651 0.18211566825 0.17325353715 0.16411925876 0.15143993794 0.15971676095 0.1677688264 0.17538872834 0.18236440998 
0.18849523329 0.19360665201 0.19755845379 0.20024943122 0.20161536095 0.20162484978 0.20027790371 0.19760539784 0.19367119453 