# vtk DataFile Version 5.1
vtk output
ASCII
DATASET STRUCTURED_POINTS
DIMENSIONS 26 26 26
SPACING 0.08 0.08 0.08
ORIGIN -1 -1 0.5
POINT_DATA 17576
FIELD FieldData 1
potential 1 17576 double
0.00072245443318 0.00073072636779 0.00073892063679 0.00074700667619 0.00075491768146 0.00076270709042 0.00077039995058 0.00077802432049 0.00078566907277 
0.00079334431141 0.00080112037092 0.00080908343365 0.0008173040369 0.00082590075513 0.00083486114563 0.00084420288925 0.00085400267053 0.00086407824072 
0.00087484727691 0.00088610126465 0.00089782323479 0.00090995919806 0.00092252544099 0.00093544963787 0.00094868706818 0.00096218396103 0.00071581139128 
0.000723943211 0.00073199160467 0.00073985565631 0.0007476369489 0.00075523771089 0.00076273024912 0.00077016036576 0.00077763130511 0.00078514940954 
0.0007927996445 0.00080067043871 0.00080882685819 0.00081739251416 0.00082633368931 0.00083567442884 0.00084547703574 0.00085555141401 0.0008663101045 
0.00087754221938 0.00088922766073 0.00090131117424 0.00091381316945 0.00092665695309 0.00093979912516 0.00095318483109 0.00070607576965 0.00071400418605 
0.00072191021813 0.00072957516633 0.00073714504248 0.0007445216965 0.00075178543479 0.00075899128343 0.00076620358363 0.00077356888544 0.00078105028686 
0.00078878127146 0.00079682826929 0.00080524497976 0.00081414509269 0.00082345959795 0.00083320597473 0.00084322580405 0.00085392377204 0.0008650859106 
0.00087669034798 0.00088868126797 0.00090107415457 0.00091380156368 0.00092681308023 0.00094005511732 0.0006940022118 0.00070174568188 0.00070944925323 
0.00071689479044 0.00072417657109 0.0007313658034 0.00073839021069 0.00074535870363 0.00075234808737 0.0007594644084 0.0007668029921 0.00077437142713 
0.000782276658 0.00079057090125 0.00079936272947 0.00080856307289 0.00081821096324 0.00082833492651 0.0008387173638 0.00084976452237 0.00086124219461 
0.00087309969434 0.00088534817611 0.00089792056644 0.0009107642346 0.00092382847421 0.00068049469796 0.0006880333193 0.00069552817982 0.00070273796835 
0.00070978021705 0.00071672862842 0.00072351262432 0.00073025690818 0.00073705412629 0.00074396608726 0.00075108971329 0.00075853681002 0.00076629889461 
0.00077445251997 0.00078311363207 0.00079216857344 0.00080167727865 0.00081165788176 0.00082189268356 0.00083278461431 0.0008441020127 0.00085578894346 
0.00086785623904 0.00088023403843 0.00089288000671 0.00090573216585 0.00066643527086 0.00067375743663 0.00068091167981 0.00068801286037 0.00069481609801 
0.00070147751186 0.0007081033698 0.00071464773925 0.00072127540151 0.00072803454722 0.00073502062475 0.00074233945462 0.00074996540404 0.00075798972772 
0.00076651381622 0.00077541693796 0.00078476074769 0.00079457099602 0.00080483803826 0.0008153295073 0.00082645008404 0.00083793225171 0.00084978652592 
0.00086194484787 0.00087436035737 0.00088697344728 0.00065258079983 0.00065967809108 0.00066660274211 0.00067348286214 0.00068006796049 0.00068651759519 
0.00069295911034 0.0006993488031 0.00070585052615 0.00071250692273 0.00071940454344 0.00072659833984 0.0007341729221 0.00074208277365 0.00075048865797 
0.00075923125351 0.00076842059207 0.00077804554679 0.00078811372228 0.00079839420658 0.00080929172975 0.00082054158432 0.00083215439054 0.00084406337862 
0.00085621891853 0.00086856825581 0.00063950512242 0.00064637695909 0.00065307581428 0.00065974456388 0.00066612469264 0.00067239879314 0.00067863474355 
0.00068496797864 0.00069139169361 0.00069800053495 0.00070486244715 0.00071202212949 0.00071951029679 0.00072739608818 0.00073570591701 0.00074432416277 
0.00075336194628 0.0007628048204 0.0007726663933 0.00078293828044 0.00079338065054 0.00080437808587 0.00081572742182 0.0008273641347 0.00083923911565 
0.00085129772512 0.00062761521082 0.00063426751891 0.00064074727147 0.00064718188076 0.00065341538845 0.00065953973311 0.00066566419013 0.00067193598688 
0.00067832579711 0.00068493067552 0.00069180916726 0.00069898432813 0.0007064767304 0.00071434349388 0.00072260623775 0.00073113834471 0.00074003965911 
0.0007493276938 0.00075899013732 0.000769038679 0.00077923530404 0.00078996829013 0.00080103916128 0.00081238586783 0.00082396168258 0.00083571477966 
0.00061719600891 0.00062362779452 0.00062989801679 0.00063615188964 0.00064222678852 0.00064823183588 0.00065428233525 0.00066046524738 0.00066692908792 
0.00067356936143 0.00068050140625 0.00068773778055 0.0006952795368 0.00070313249694 0.00071143682539 0.00071992587214 0.00072873496579 0.00073788827784 
0.00074738357576 0.00075722183081 0.00076739821097 0.00077764769668 0.00078843423285 0.00079948149246 0.00081074723697 0.00082218014083 0.00060842510962 
0.0006146364594 0.00062071688826 0.00062667811683 0.00063274711695 0.00063866267912 0.0006446712675 0.00065085918846 0.00065736570419 0.00066408127255 
0.00067110099786 0.00067842598436 0.00068605414269 0.00069397499927 0.00070217968217 0.00071081538575 0.00071959114333 0.00072864368245 0.0007380022602 
0.00074766118388 0.00075761496195 0.00076761238916 0.00077811940802 0.00078886707493 0.0007998178725 0.00081092479494 0.00060142230417 0.00060742696355 
0.0006133243189 0.0006191356696 0.00062506557043 0.00063095640659 0.00063695303774 0.00064317308166 0.00064968621171 0.00065655774622 0.0006636874606 
0.00067113047902 0.00067886991063 0.0006868901915 0.00069517162398 0.00070381026419 0.00071263568301 0.00072164126099 0.00073090874339 0.00074042518849 
0.00075019294774 0.00076017861204 0.00077020522157 0.00078066317902 0.00079130392297 0.00080208620199 0.00059625484002 0.00060207202136 0.00060779889577 
0.00061348733506 0.00061934105912 0.00062519532543 0.00063120680506 0.00063748174899 0.00064408200208 0.00065100094078 0.0006583179271 0.00066589084273 
0.0006737615104 0.00068190029308 0.00069028483215 0.00069900551315 0.00070787546778 0.0007168777093 0.00072610203231 0.00073552420603 0.00074514682928 
0.00075494666224 0.00076473073301 0.00077492488651 0.00078527112577 0.00079573918221 0.00059298187351 0.00059862384462 0.00060420893591 0.00060978640723 
0.00061559435797 0.00062144017094 0.00062748735786 0.00063383582146 0.00064053673481 0.00064757594755 0.00065502430049 0.00066273389746 0.00067074079642 
0.00067901153592 0.0006875175724 0.00069633864892 0.00070523799672 0.00071432222402 0.00072354765951 0.00073292387595 0.00074244984264 0.00075210518869 
0.00076192712542 0.00077165426485 0.00078173389393 0.00079191418085 0.00059164791217 0.00059712027561 0.00060258153477 0.00060808084405 0.00061386734771 
0.00061968908549 0.00062583126697 0.00063226695357 0.00063907782832 0.00064624168947 0.00065375858946 0.00066166870236 0.00066981111744 0.00067821299454 
0.00068684289115 0.00069578642587 0.00070477616646 0.00071391297708 0.00072318720458 0.00073256164012 0.00074204260992 0.00075160392553 0.00076128536837 
0.00077083204404 0.0007806802728 0.00079059810701 0.00059225942739 0.0005975667314 0.00060294033601 0.00060838999668 0.00061400167104 0.00062003721628 
0.00062625513811 0.00063279002643 0.00063971638564 0.00064700505194 0.00065465134315 0.00066269189585 0.00067096374795 0.00067949147951 0.00068824280331 
0.00069730120796 0.0007064001145 0.00071562293961 0.00072490292803 0.00073436088168 0.00074384013175 0.00075335974284 0.00076295331821 0.00077259564133 
0.00078204571859 0.00079174678694 0.00059474184889 0.00059997739875 0.00060526808083 0.00061070224064 0.00061633691907 0.0006224349683 0.00062870584991 
0.00063539068625 0.00064243441378 0.00064984473594 0.00065761244286 0.00066570761588 0.00067416243546 0.00068280477886 0.00069166735788 0.00070071285575 
0.00071003609746 0.00071934999532 0.00072870695114 0.00073821979507 0.00074773277621 0.00075725469089 0.00076681327706 0.00077637988647 0.00078571599783 
0.00079526580485 0.00059906739807 0.00060424537044 0.000609539293 0.0006149677454 0.00062065654201 0.00062684372073 0.00063321724487 0.00064001215002 
0.00064717146319 0.00065469887111 0.00066257745169 0.00067077855481 0.0006792677905 0.00068807399159 0.00069703108821 0.00070616879267 0.00071558264543 
0.00072498672193 0.00073447158163 0.00074395874876 0.00075357688408 0.00076313212795 0.00077270140517 0.0007822466103 0.00079175720301 0.00080098873928 
0.0006051014262 0.00061027067582 0.00061558672344 0.00062107045457 0.00062684212069 0.00063314088621 0.00063961894194 0.00064653645941 0.00065380768249 
0.00066143670255 0.00066941044172 0.00067770111614 0.00068627053353 0.00069515156557 0.0007041810848 0.00071339002948 0.00072287910977 0.00073235359892 
0.00074191483789 0.00075146827709 0.00076110598464 0.00077077465107 0.00078038877801 0.00078995700265 0.00079946864168 0.00080890741279 0.00061261256966 
0.00061782406279 0.00062320881402 0.00062880728919 0.00063466989204 0.00064089564802 0.00064770116568 0.00065468422423 0.00066210663297 0.00066982426652 
0.00067787505984 0.00068622781073 0.00069485206723 0.00070371606373 0.00071285791925 0.00072211261494 0.00073165162216 0.00074117756458 0.00075079355362 
0.00076040919177 0.00077011411471 0.00077980201744 0.00078953518291 0.00079916735326 0.00080872500642 0.00081819683396 0.00062123084456 0.00062653927449 
0.00063204025709 0.00063777050438 0.00064379216841 0.00065013171283 0.00065706818547 0.00066416676015 0.0006716810623 0.00067947054385 0.00068757574045 
0.00069596716247 0.00070461683949 0.00071349473362 0.00072265076799 0.00073191729758 0.00074147626723 0.0007510263989 0.00076067617071 0.00077039828274 
0.00078009487691 0.00078985294358 0.00079961161964 0.000809378711 0.00081902395762 0.00082857700039 0.0006304067154 0.00063590294129 0.00064152391165 
0.00064741724419 0.00065359943785 0.00066010785911 0.00066715482004 0.00067435288297 0.00068193864831 0.00068978798887 0.00069792042864 0.00070631789889 
0.00071495939155 0.0007238181219 0.00073288027045 0.00074219102923 0.0007515941393 0.0007612764554 0.00077093034898 0.00078067260035 0.00079039844834 
0.00080021869872 0.00081005259585 0.00081985813716 0.00082966119279 0.00083933054518 0.0006394335234 0.00064509333696 0.00065090924687 0.00065699160369 
0.00066334712839 0.00067000306251 0.00067695050748 0.00068446164445 0.00069205844402 0.00069997009786 0.00070810590841 0.0007164772627 0.00072506950775 
0.00073387046514 0.00074286605196 0.00075204020367 0.00076145031167 0.00077108790035 0.00078071309087 0.00079044488597 0.00080018045714 0.00081003285313 
0.00081993461237 0.00082982841195 0.00083974372201 0.000849547725 0.00064737559192 0.00065329291286 0.00065929065092 0.00066557292691 0.00067210294427 
0.00067890115599 0.00068597659427 0.00069353956683 0.00070116585883 0.00070906855821 0.0007171661869 0.00072547344369 0.00073397729815 0.00074267564245 
0.00075155883629 0.00076061859682 0.00076992279792 0.00077947230675 0.00078902441065 0.00079870959996 0.00080842376529 0.00081828729607 0.00082822761557 
0.00083819921426 0.00084816802374 0.00085816291362 0.00065335991016 0.0006595089549 0.00066572710642 0.00067220358071 0.00067889759645 0.00068582180329 
0.00069298174114 0.00070061526389 0.00070821779124 0.00071603793638 0.00072409529902 0.00073229902117 0.00074067017801 0.0007492160768 0.00075793746453 
0.00076683628498 0.00077591351994 0.00078539813 0.00079483574525 0.00080443460657 0.00081417746052 0.00082393246787 0.00083388825651 0.0008439098729 
0.00085397161881 0.00086403907254 0.00065661038782 0.00066297333243 0.00066942750547 0.00067604936027 0.00068288513111 0.00068991049788 0.00069712612722 
0.00070477711293 0.00071237019545 0.00072009054489 0.00072803153493 0.00073607594018 0.00074427057659 0.00075261577044 0.00076112264507 0.00076980666806 
0.00077868097755 0.00078790971931 0.00079725711866 0.00080672839683 0.00081637868427 0.00082607436597 0.00083601308118 0.00084605858118 0.00085618189423 
0.00086635824769 0.00079893808119 0.0008079254238 0.00081688484548 0.00082579231903 0.00083458638961 0.00084332323359 0.00085202700548 0.00086072042237 
0.0008694826307 0.00087831102644 0.00088726206735 0.00089641091752 0.00090580848886 0.00091556959115 0.00092566950907 0.00093611767082 0.00094698513645 
0.00095808654264 0.00096983933231 0.00098203808268 0.00099467078709 0.0010076898942 0.0010211188358 0.0010348930997 0.0010489759658 0.001063321941 
0.00079301465101 0.00080184388323 0.00081070744158 0.00081941690996 0.00082811114529 0.00083669506807 0.00084523877059 0.000853780032 0.00086237374625 
0.0008711138776 0.00087996349097 0.00088903032878 0.0008983669425 0.00090808607155 0.00091815035839 0.00092857533747 0.0009394215297 0.00095049841217 
0.00096221965947 0.00097437816407 0.0009869589424 0.00099991300388 0.0010132669655 0.0010269535529 0.0010409352241 0.0010551659093 0.00078476096464 
0.00079343703893 0.0008021501251 0.00081069138094 0.00081921141773 0.0008276131593 0.00083597882252 0.00084434711757 0.00085276709581 0.00086136453818 
0.00087008226642 0.00087903652397 0.00088828093513 0.00089786047803 0.00090788336847 0.00091827778369 0.00092906055943 0.00094007460482 0.00095172703323 
0.00096380841093 0.0009763023309 0.00098915933397 0.0010024016018 0.0010159695109 0.0010298200362 0.0010439079222 0.00077467991759 0.00078319322026 
0.0007917329155 0.00080008885022 0.00080836199611 0.00081662509521 0.00082480052918 0.00083298360712 0.00084123085036 0.00084962516958 0.00085823937163 
0.00086706382956 0.00087619232464 0.00088566943097 0.0008955985577 0.00090588917347 0.00091658062953 0.00092770380322 0.00093904509893 0.00095101517968 
0.00096338616063 0.00097611313929 0.00098921510418 0.001002632259 0.0010163199922 0.0010302359617 0.00076339438294 0.00077172867148 0.0007800901175 
0.00078824676112 0.00079632198104 0.000804389517 0.00081237096318 0.00082037452462 0.00082847031702 0.00083669556755 0.00084512707672 0.00085385849251 
0.00086286988276 0.00087223003491 0.00088205050727 0.00089221432133 0.00090278606778 0.00091378229375 0.00092499086026 0.00093681924608 0.00094904214668 
0.00096161044675 0.00097454221288 0.0009877754175 0.0010012759587 0.0010149907174 0.00075153864897 0.00075968400597 0.00076773699821 0.00077582126118 
0.00078369669036 0.00079151696567 0.0007993771657 0.00080721225131 0.00081516319127 0.00082325508046 0.00083156437264 0.00084018295147 0.00084907548457 
0.00085832640919 0.00086803200632 0.00087806946117 0.00088849974285 0.00089935008424 0.00091061408561 0.00092206439102 0.00093411112007 0.00094649383292 
0.00095923044036 0.00097226098476 0.0009855448684 0.00099903882569 0.00073969393651 0.000747643296 0.00075549903292 0.00076339685245 0.00077108920359 
0.00077872954838 0.00078643052762 0.00079412678443 0.0008019582063 0.00080994710441 0.00081816409187 0.00082665557411 0.00083549938942 0.00084464502573 
0.00085424864818 0.00086414765774 0.00087445298297 0.00088514318818 0.0008962376353 0.00090750544622 0.00091935722309 0.00093153374009 0.00094405332888 
0.00095685746591 0.0009699054755 0.00098315428589 0.00072833572351 0.00073608920132 0.00074375102989 0.00075146992049 0.00075898695262 0.00076647503794 
0.00077398360886 0.0007816242821 0.00078936722177 0.00079728986816 0.00080544934478 0.00081388641853 0.00082262946676 0.00083174539701 0.00084125744285 
0.0008510461544 0.00086121874197 0.00087175831228 0.00088267772997 0.00089397027099 0.00090539991752 0.00091735600347 0.00092964262901 0.0009422032985 
0.00095499802053 0.00096798194242 0.00071783119415 0.00072539563051 0.00073286943675 0.00074038370801 0.00074777838937 0.00075513168679 0.00076253290056 
0.00077009866292 0.00077778358305 0.00078566936324 0.00079380874736 0.0008022257577 0.00081094249813 0.00082001770811 0.00082947219563 0.00083917693116 
0.00084922404694 0.00085963285474 0.00087038492548 0.00088148600618 0.00089270595574 0.00090443417318 0.00091647792927 0.00092878278932 0.00094131094925 
0.00095402007273 0.00070846212154 0.00071583671602 0.00072313166479 0.00073049097011 0.00073774598254 0.00074498733743 0.0007523057496 0.00075976300923 
0.00076748824179 0.00077536714138 0.00078351367048 0.00079194471078 0.00080066748989 0.00080969287094 0.00081916317354 0.00082881113685 0.00083876789591 
0.00084905286679 0.00085965860338 0.00087058230966 0.00088181765757 0.00089310108396 0.00090489975237 0.00091694399879 0.00092919914179 0.00094162520039 
0.00070041800065 0.00070760302604 0.00071473633723 0.00072182700053 0.00072908975557 0.00073624215161 0.00074350418738 0.00075093778746 0.00075860429215 
0.00076657190442 0.00077475386812 0.00078321789036 0.00079197691437 0.00080102408849 0.00081035610146 0.0008201225246 0.00083003107567 0.00084021386171 
0.00085069479439 0.00086146218774 0.00087250651721 0.00088357520932 0.00089513469223 0.00090692046139 0.00091890254224 0.00093104280654 0.00069383432916 
0.00070084344382 0.00070781428609 0.00071478128849 0.00072191357913 0.00072903556366 0.00073626515956 0.00074369694748 0.000751387929 0.00075939969062 
0.0007676373138 0.0007761655187 0.00078497846142 0.00079407135203 0.00080343204471 0.0008131614274 0.00082309037514 0.00083321003588 0.00084359732202 
0.00085423421114 0.00086511454234 0.00087620366923 0.00088732051739 0.00089885883598 0.00091057410801 0.0009224333603 0.00068878922303 0.00069564205868 
0.00070247292184 0.00070932670684 0.00071638630223 0.00072346058879 0.00073067958709 0.00073812931377 0.00074586174669 0.000753870204 0.00076224108889 
0.00077084350177 0.00077973150556 0.00078889112706 0.00079829791474 0.00080806150808 0.0008179940599 0.00082808030122 0.0008384071008 0.00084894533198 
0.00085969147782 0.00087061628543 0.00088152349416 0.00089283656771 0.00090430022857 0.00091589027856 0.00068534546737 0.00069205130642 0.00069876384739 
0.00070551827989 0.00071253040226 0.00071957985399 0.000726805115 0.00073428905372 0.00074207629781 0.00075015531692 0.00075860559654 0.00076729126416 
0.00077626056529 0.00078549385851 0.00079497178432 0.00080478316244 0.00081469766367 0.00082482512174 0.00083512187954 0.00084559586139 0.00085624040625 
0.0008670299152 0.00087799583996 0.00088887359755 0.00090010946705 0.00091145525061 0.00068357436457 0.00069010521452 0.00069671244848 0.00070339580634 
0.00071021781705 0.00071738354002 0.00072467106832 0.00073220155748 0.000740053412 0.00074820930487 0.00075667914033 0.00076551525082 0.000774569623 
0.00078388164422 0.00079343070522 0.00080331198831 0.00081326589694 0.00082339862667 0.00083370359538 0.00084414370379 0.00085472307913 0.00086541227195 
0.00087624488118 0.00088696196378 0.00089799683397 0.00090911857786 0.00068336997264 0.00068979209187 0.000696325645 0.00070296045057 0.00070975622951 
0.00071694844664 0.00072427626181 0.00073186455785 0.00073978762555 0.00074802299555 0.00075657658581 0.00076549718763 0.00077463436988 0.0007840244922 
0.00079364597183 0.00080359192196 0.00081360432564 0.00082377331397 0.00083403719989 0.00084451968291 0.00085506494188 0.00086569008727 0.00087642659579 
0.00088724400571 0.00089789856527 0.00090883172469 0.00068473307996 0.00069110170082 0.0006975623136 0.00070417366128 0.00071097338422 0.00071819782803 
0.00072554081623 0.00073323693223 0.00074123494075 0.00074954938177 0.00075818244931 0.00076711617382 0.00077639444925 0.00078585647533 0.00079554499587 
0.00080543215896 0.00081561804745 0.00082583233792 0.00083612459306 0.00084656677388 0.00085715278134 0.00086774618852 0.00087842382054 0.00088915408007 
0.00089969640955 0.0009104926752 0.00068757639118 0.00069389820288 0.00070035905702 0.00070695358701 0.00071378176832 0.00072106059371 0.0007284661649 
0.00073623123293 0.00074430332726 0.00075269521473 0.00076140107722 0.00077040372788 0.00077967978519 0.00078926833433 0.00079901272614 0.00080895147099 
0.00081918817853 0.00082944410623 0.00083981702009 0.00085023337304 0.00086083068893 0.00087141502846 0.00088206689582 0.00089274897109 0.00090345024596 
0.00091392566439 0.00069174231091 0.00069805558224 0.00070452764136 0.00071115455324 0.00071803300737 0.00072519038201 0.00073285275948 0.00074069901382 
0.00074884355627 0.00075730073149 0.00076606775467 0.00077512748858 0.00078445256816 0.000794084482 0.00080386864914 0.00081384409791 0.000824118687 
0.00083440507575 0.00084481130782 0.0008552494597 0.00086581773145 0.00087646842986 0.00088712072963 0.00089778675746 0.00090845809088 0.00091911977374 
0.00069699313897 0.00070333507099 0.00070985234224 0.00071656199595 0.00072349006273 0.00073072493715 0.00073847749608 0.00074634865843 0.00075460759438 
0.00076312011911 0.00077193442882 0.00078102923278 0.00079038313371 0.00079997255777 0.00080984294375 0.00081983625075 0.00083013024425 0.00084043411698 
0.00085085757634 0.00086131642618 0.00087190694833 0.00088252944875 0.00089325231886 0.00090393510313 0.00091460905966 0.00092526622044 0.00070298935874 
0.00070939792288 0.00071599386525 0.00072279006883 0.00072983062609 0.00073713232255 0.00074497117258 0.00075291842296 0.00076123485301 0.00076978994495 
0.00077863361474 0.00078774526296 0.00079710484179 0.00080668929769 0.00081648594684 0.00082653901635 0.0008368297688 0.00084713125245 0.00085755739777 
0.00086808651016 0.00087862878772 0.00088927645316 0.00089997620805 0.00091074307226 0.00092145292367 0.00093214206105 0.00070927280847 0.000715821601 
0.00072248500542 0.00072938948195 0.00073653648008 0.00074395636142 0.00075186158616 0.00075987057756 0.00076818556415 0.00077681767497 0.00078566881434 
0.00079477071564 0.00080410904766 0.00081366270916 0.00082342271677 0.00083343853543 0.00084355822652 0.00085397271635 0.00086437969667 0.00087490049985 
0.00088543701878 0.00089610647377 0.00090683548246 0.0009175894138 0.00092840208763 0.00093914974688 0.00071530645885 0.00072195525389 0.00072874871345 
0.00073577889681 0.00074304056694 0.00075055669999 0.00075831919308 0.00076660620417 0.0007749474749 0.00078357783211 0.00079242080002 0.00080148762745 
0.00081077147405 0.00082026373999 0.00082995432867 0.00083982942743 0.00084994951519 0.0008603089141 0.00087067165343 0.00088116105943 0.00089167974039 
0.00090234698678 0.00091310234483 0.00092389625161 0.00093471261623 0.00094558730402 0.00072039745313 0.00072722930379 0.00073413185708 0.00074129415971 
0.00074867035158 0.00075627794441 0.00076412805001 0.00077243616473 0.00078078516334 0.00078939503466 0.00079819076587 0.0008071923542 0.00081639073832 
0.00082578643907 0.00083537139451 0.00084513825414 0.00085515570996 0.00086542605594 0.00087570924696 0.00088613915908 0.00089670136926 0.0009072673045 
0.00091802600905 0.00092885432347 0.00093972536698 0.00095067700071 0.0007239476697 0.00073093361614 0.00073798218627 0.00074527151728 0.00075275407115 
0.00076044092903 0.00076833953575 0.0007766927519 0.00078500235233 0.00079352284495 0.00080227932776 0.00081118500893 0.00082026372573 0.00082952354272 
0.00083896480083 0.0008485879699 0.00085839443981 0.00086860748618 0.00087877923812 0.00088911864269 0.00089961259339 0.00091013475792 0.00092088043629 
0.00093172052065 0.00094263820633 0.00095360605169 0.00072542749692 0.00073255338884 0.00073976864659 0.0007471416178 0.00075471424716 0.00076246149699 
0.00077038614024 0.00077873792036 0.00078702926525 0.00079545072506 0.00080410030957 0.00081286415706 0.00082179027973 0.00083087795352 0.00084013525019 
0.00084957342479 0.00085920154905 0.00086918089702 0.00087927686869 0.00088949203092 0.00089988955009 0.00091033969492 0.00092104622454 0.00093187986136 
0.00094281716838 0.00095384493974 0.00087813944675 0.00088788682957 0.00089765140371 0.0009074135902 0.00091711554755 0.0009268147287 0.00093653387347 
0.00094629124429 0.0009561585982 0.00096612389206 0.00097623303391 0.00098655045368 0.00099711684877 0.0010080375392 0.0010192794995 0.0010308453959 
0.001042801158 0.0010549593309 0.0010677362246 0.0010809287224 0.0010945285714 0.0011084934122 0.0011228526605 0.0011375486559 0.001152551878 
0.0011678259774 0.00087262404374 0.00088222349308 0.00089190532715 0.00090148603596 0.00091110890539 0.00092067771343 0.00093026199916 0.00093989150413 
0.00094961283876 0.00095950770184 0.00096952685341 0.00097976624091 0.00099026829993 0.0010010727466 0.0010123279682 0.0010238524438 0.0010357675523 
0.001047881868 0.0010606093142 0.0010737455553 0.0010872795928 0.001101167612 0.001115439889 0.0011300424049 0.0011449381144 0.0011600906879 
0.00086533791235 0.00087479828499 0.00088434768907 0.00089378219288 0.00090325573794 0.00091267162592 0.0009221082605 0.00093159630479 0.00094117309421 
0.00095095050102 0.00096085751364 0.00097099774789 0.0009814145365 0.00099214498691 0.0010032918042 0.0010147792177 0.0010266257029 0.0010388728502 
0.001051316072 0.0010643677397 0.0010778086052 0.0010915944834 0.0011057534297 0.0011202324215 0.0011349955754 0.0011500051946 0.00085662380329 
0.0008659391649 0.00087533624924 0.00088461050898 0.00089386563409 0.00090317437478 0.00091245372511 0.00092178873373 0.0009312230285 0.00094082520228 
0.0009506496903 0.00096067764747 0.00097099146164 0.00098162859408 0.00099268714064 0.0010040746414 0.0010158286851 0.0010279814091 0.0010403215652 
0.0010532627008 0.0010665822881 0.0010802391877 0.0010942602182 0.0011085886876 0.0011231947633 0.0011380368486 0.00084692089062 0.00085607727524 
0.00086531949096 0.00087442103229 0.00088350761346 0.000892650866 0.0009017668566 0.00091095126304 0.00092024335229 0.00092971373436 0.00093937582214 
0.00094932585711 0.00095953609586 0.00097006804796 0.00098102879601 0.0009923016684 0.0010039429808 0.0010159772441 0.0010281933776 0.0010410007394 
0.0010541797784 0.0010676863916 0.0010815448727 0.0010957021607 0.0011101249094 0.0011247746281 0.00083669144138 0.00084568058023 0.00085463877988 
0.00086369435911 0.00087260878811 0.00088153237412 0.0008905516574 0.0008995888143 0.00090876924421 0.00091810264725 0.00092765194859 0.00093749827958 
0.00094759837592 0.00095803077145 0.00096888714774 0.00098004392589 0.00099155953872 0.0010034622613 0.0010157475266 0.0010281918211 0.0010412087434 
0.0010545435966 0.0010682203284 0.0010821858916 0.001096407276 0.0011108493366 0.0008263807476 0.000835196217 0.00084398180205 0.00085287661668 
0.00086163228064 0.00087040228546 0.00087927549312 0.00088818551273 0.00089725224555 0.00090648359206 0.00091593929466 0.00092565683099 0.00093570823113 
0.00094603877418 0.00095680065408 0.00096782937413 0.00097923406434 0.00099099315039 0.0010031270175 0.0010154075483 0.0010282485548 0.0010413960386 
0.0010548742123 0.0010686311468 0.0010826342671 0.001096848657 0.00081637277489 0.00082501585447 0.00083363115392 0.0008423702253 0.00085097182878 
0.000859600943 0.00086829530557 0.00087715155304 0.00088612460399 0.00089527923171 0.00090466387384 0.00091431356902 0.00092425388689 0.00093454860298 
0.00094521883087 0.00095614298237 0.0009674261349 0.00097905030308 0.00099102821934 0.0010033544368 0.0010157959987 0.0010287458446 0.001042013652 
0.0010555495152 0.0010693210448 0.0010832920225 0.00080698258683 0.00081545989387 0.000823910026 0.0008324649237 0.00084096043617 0.00084946508958 
0.00085805407029 0.00086682870023 0.00087572810337 0.0008848254468 0.00089416612386 0.00090377200972 0.00091366460716 0.0009239023933 0.00093450539638 
0.00094534341699 0.00095650626429 0.00096801137661 0.00097983909599 0.00099199502866 0.0010042507466 0.0010169979633 0.00103004876 0.0010433546618 
0.0010568853435 0.001070606521 0.00079846809366 0.00080677848787 0.00081507156938 0.00082348955102 0.00083185758564 0.00084025482218 0.00084875603536 
0.00085740764447 0.00086632494592 0.00087538665339 0.00088470211492 0.00089428954709 0.00090415775177 0.00091431982989 0.0009249191987 0.00093568872107 
0.00094675794465 0.00095814416837 0.00096983783561 0.00098183471327 0.00099412832353 0.0010064569169 0.0010192902275 0.0010323639111 0.0010456499565 
0.0010591166474 0.00079101161054 0.0007991554036 0.00080730662056 0.0008154714849 0.0008238555361 0.00083216281332 0.00084059688655 0.00084920424581 
0.00085803478837 0.00086715068677 0.00087646437395 0.00088604615275 0.00089591330043 0.00090606331189 0.00091649617348 0.00092736280609 0.00093837106336 
0.00094965119314 0.00096122495753 0.00097307820685 0.00098519994402 0.00099733788398 0.0010099594336 0.0010228041022 0.0010358475773 0.0010490593318 
0.00078474551096 0.00079273872997 0.00080074586044 0.00080879939191 0.00081705728238 0.00082532869628 0.00083371479913 0.00084229561277 0.00085111863309 
0.00086024118193 0.0008695696544 0.00087917355864 0.00088905240264 0.00089920937108 0.00090963557555 0.00092043573133 0.00093144228332 0.00094264447556 
0.00095412170495 0.00096584911565 0.00097781981865 0.0009899975126 0.0010022016082 0.0010148273982 0.0010276349528 0.0010405978518 0.0007797593697 
0.00078761385597 0.00079549722705 0.00080344681202 0.00081163237683 0.00081984648303 0.0008282025583 0.00083677337874 0.00084560317421 0.00085468341646 
0.0008641032921 0.00087373803885 0.00088364846101 0.00089382968516 0.00090426212913 0.00091506078998 0.00092604104475 0.00093718876241 0.00094859066622 
0.00096021425106 0.00097205501348 0.0009840811326 0.00099609537642 0.0010085217353 0.0010211064135 0.0010338319293 0.00077610510217 0.00078383157447 
0.00079160769226 0.00079946660475 0.00080760113122 0.0008157769864 0.00082411660416 0.00083269143522 0.00084154043242 0.00085065168744 0.0008601092237 
0.00086978419585 0.00087973294276 0.00088994406976 0.00090040567873 0.00091121262633 0.00092213937685 0.00093329831707 0.00094464684709 0.00095619193108 
0.00096792643195 0.00097982056275 0.00099190591755 0.0010039155185 0.0010162986356 0.0010288091151 0.00077385259175 0.00078142130083 0.00078910583446 
0.00079689164401 0.00080482891256 0.00081310377414 0.0008214802604 0.00083006986561 0.0008389472208 0.00084809659342 0.00085753325409 0.00086731709385 
0.0008773088434 0.00088755553729 0.000898047227 0.00090888319932 0.00091981068899 0.00093093987226 0.00094226510907 0.00095375487464 0.00096540834273 
0.00097719623177 0.00098915096692 0.0010010110436 0.0010132110522 0.0010255218774 0.00077288750248 0.00078036086542 0.00078797716043 0.00079571308271 
0.00080361190545 0.00081189219487 0.00082028154215 0.00082889611468 0.00083780871226 0.0008469998708 0.00085648169007 0.00086631088116 0.00087634585564 