# vtk DataFile Version 5.1
vtk output
ASCII
DATASET STRUCTURED_POINTS
DIMENSIONS 26 26 26
SPACING 0.08 0.08 0.08
ORIGIN -1 -1 0.5
POINT_DATA 17576
FIELD FieldData 1
potential 1 17576 double
0.0008875682043 0.00087909684387 0.00087093447803 0.00086309763284 0.00085555277237 0.00084842712588 0.00084156121078 0.00083496117747 0.00082859286003 
0.00082253691596 0.00081653289249 0.00081064647117 0.00080484842295 0.000799027458 0.00079333162144 0.00078765248741 0.0007819727387 0.0007762305305 
0.00077043670885 0.00076458020256 0.0007586576853 0.00075262536088 0.00074659142062 0.0007405216823 0.00073443371186 0.00072834921731 0.00087801994522 
0.0008697546814 0.00086182615596 0.00085420937127 0.00084698438717 0.00084017053927 0.0008335881158 0.00082727140053 0.00082118220771 0.00081536457554 
0.00080954260563 0.00080378793039 0.00079807273833 0.00079227692576 0.00078657392894 0.00078086216309 0.00077508520503 0.00076925897392 0.00076337520366 
0.00075743068853 0.00075137739288 0.00074532681784 0.00073924055002 0.00073313374547 0.0007270268194 0.00072094057265 0.00086464019357 0.00085660967943 
0.00084890591693 0.00084161749642 0.0008347021749 0.00082821575185 0.0008219545712 0.00081596684647 0.00081028418638 0.00080461032611 0.00079899852234 
0.00079340530629 0.00078779721966 0.00078206954873 0.00077638019219 0.00077065718535 0.00076484753616 0.00075897500949 0.00075303843352 0.00074704156226 
0.00074094025642 0.00073485305077 0.00072874150839 0.00072262361288 0.00071652014582 0.00071045404622 0.00084837198746 0.00084056254102 0.00083318479309 
0.00082620669106 0.00081962361253 0.00081347186177 0.00080756480457 0.00080191181917 0.0007965256711 0.00079111457968 0.00078572261094 0.00078029802279 
0.0007748228314 0.00076917038042 0.00076355294707 0.00075782838872 0.00075202232642 0.00074613795082 0.00074018275365 0.00073416740069 0.0007280475426 
0.00072195208915 0.00071584196428 0.00070973801833 0.00070366063618 0.00069763431381 0.00083033558047 0.00082280452008 0.00081573090588 0.00080907901437 
0.00080288968711 0.00079703986814 0.0007914714838 0.00078613273065 0.00078103817711 0.00077587635339 0.0007706907029 0.00076543274518 0.0007599816193 
0.00075454787893 0.00074897551906 0.00074329472668 0.00073751638372 0.00073164915744 0.00072570533785 0.00071964317564 0.00071359361065 0.00070751632212 
0.00070143180423 0.00069536138041 0.00068933110146 0.00068336415155 0.00081158513681 0.00080438914935 0.00079762973082 0.00079129864377 0.00078546354679 
0.00077994456391 0.00077469967009 0.00076976814699 0.00076481986988 0.00075987862124 0.00075487426925 0.00074977324039 0.0007444264169 0.00073908235168 
0.00073359002236 0.00072796642974 0.00072223334742 0.00071640457586 0.00071049542516 0.00070446402353 0.00069845068343 0.00069241420282 0.00068637776928 
0.00068036462718 0.00067440030338 0.00066851096765 0.00079313511485 0.00078623823444 0.00077979513723 0.0007737980321 0.0007682849276 0.00076308354777 
0.00075813307838 0.00075345505536 0.00074872692807 0.00074396696662 0.0007391180149 0.00073412522986 0.00072890198134 0.00072361172533 0.00071818700211 
0.00071262439727 0.00070694500487 0.00070116806288 0.00069530959025 0.00068932944117 0.00068337130003 0.00067739489277 0.00067142462076 0.00066548561356 
0.0006596037633 0.00065377825595 0.00077564460301 0.00076905798305 0.00076292016863 0.00075730650245 0.00075205809866 0.00074712342575 0.0007424276986 
0.00073796478315 0.00073341182091 0.00072879735197 0.00072404536352 0.00071916601259 0.00071398497083 0.00070875739313 0.00070338758038 0.00069787926745 
0.00069225551659 0.00068653482423 0.00068073723131 0.0006748201585 0.00066893098067 0.00066303005903 0.00065714121471 0.00065129180005 0.00064550685436 
0.00063978695468 0.00075961536409 0.00075331373919 0.00074748967409 0.00074217579071 0.00073721032271 0.0007325286119 0.00072804682542 0.00072375539242 
0.00071933974925 0.00071481032909 0.00071013119237 0.00070530334747 0.00070016313635 0.00069497352636 0.00068964288581 0.00068417616604 0.00067860265178 
0.0006729376939 0.00066713779648 0.00066135560007 0.0006555443838 0.00064972828427 0.00064393209023 0.00063818166167 0.00063247466423 0.00062690153033 
0.00074534015256 0.00073934277253 0.00073380970986 0.00072877733879 0.00072406741548 0.00071960318805 0.00071540764393 0.00071113036687 0.00070680086197 
0.00070233002118 0.00069771210463 0.00069288094062 0.00068775415189 0.00068257935526 0.00067726853712 0.00067182876734 0.00066629050613 0.00066067332862 
0.00065493146725 0.0006492206685 0.00064349129675 0.00063776559398 0.00063206892613 0.00062642661345 0.00062083592427 0.00061538687304 0.0007330528562 
0.00072733806728 0.00072214858648 0.0007173015589 0.00071281574448 0.00070853256291 0.00070446548943 0.00070028417921 0.00069600146878 0.00069157953313 
0.00068694119064 0.00068210551333 0.0006769693878 0.00067178900847 0.00066647798455 0.0006610492708 0.00065553269531 0.00064995207125 0.00064425986004 
0.00063861385274 0.00063296440672 0.00062733015528 0.00062173603733 0.00061617484575 0.00061073620187 0.00060540790537 0.00072286443579 0.00071741919119 
0.00071248404901 0.00070789248216 0.00070356922363 0.00069942470647 0.00069546378263 0.00069133095763 0.00068706152504 0.0006826345695 0.00067797808438 
0.00067299691267 0.00066795273722 0.00066274941621 0.00065742313129 0.00065198769675 0.00064647975781 0.00064085113589 0.00063526716328 0.00062967677679 
0.00062409908245 0.00061855172173 0.00061305798545 0.0006076084399 0.00060229179071 0.00059709469834 0.00071485313677 0.00070965920596 0.00070495413776 
0.00070056059698 0.00069638717741 0.00069247311178 0.0006884491848 0.00068433534102 0.00068007965292 0.00067560003258 0.00067090574448 0.00066588180708 
0.0006607985498 0.00065555927688 0.00065020517449 0.00064475219521 0.00063923858704 0.00063361757169 0.00062805975484 0.00062251162856 0.00061699409372 
0.00061152534067 0.00060609161481 0.0006007813677 0.00059557446484 0.0005905139134 0.00070906585646 0.00070416931728 0.00069959490501 0.0006953630308 
0.00069131704731 0.00068746406264 0.00068346469774 0.00067936635867 0.00067505049941 0.00067052495198 0.00066577806504 0.00066069966174 0.00065556749408 
0.00065028532795 0.00064489551425 0.00063941545847 0.00063388508252 0.00062826133543 0.00062271592601 0.00061719851956 0.00061172713004 0.00060632239328 
0.00060096995248 0.00059575568773 0.00059065950415 0.00058572691562 0.00070552741547 0.00070082963538 0.00069641642844 0.00069232358117 0.00068846604327 
0.0006845294779 0.00068054814688 0.00067638806234 0.00067201868992 0.00066743156382 0.00066262148775 0.0006574819953 0.0006522953794 0.00064696595792 
0.00064153687674 0.0006360259343 0.00063039684218 0.00062483693646 0.00061929361703 0.00061379268927 0.00060835520646 0.00060296686534 0.00059771587678 
0.00059258157465 0.00058759206328 0.00058276550781 0.00070423481465 0.00069969619533 0.00069542646607 0.00069141468851 0.00068759623546 0.00068365688529 
0.00067963971503 0.00067541990068 0.0006709824853 0.00066632229868 0.00066144270759 0.00065623822542 0.00065099554091 0.00064561825613 0.00064014846974 
0.00063460566733 0.00062895254837 0.00062337798815 0.00061783002472 0.00061233607874 0.00060691959753 0.00060157081269 0.00059636098475 0.00059129781459 
0.00058638918811 0.00058165467995 0.00070522647696 0.00070075337012 0.00069660005864 0.00069259729059 0.00068877886686 0.00068482799551 0.00068072141809 
0.00067642426618 0.00067190430037 0.00066716483803 0.00066221077485 0.00065694090385 0.00065164485088 0.00064622308479 0.00064071878425 0.00063506661817 
0.00062947232733 0.00062388291941 0.00061832834143 0.00061283486063 0.00060739891177 0.0006021021285 0.00059692680432 0.00059191097936 0.00058706189368 
0.00058240545638 0.00070830237853 0.00070389939873 0.00069978900809 0.00069590034569 0.00069195207084 0.0006879047324 0.00068371090484 0.00067931896587 
0.0006747068125 0.00066988413659 0.00066472552423 0.0006595275801 0.00065418315394 0.00064872364129 0.00064319069699 0.00063751612407 0.00063190629202 
0.00062630667451 0.00062075093834 0.00061525639548 0.00060982091571 0.00060452605051 0.0005993807277 0.00059439275687 0.00058958902173 0.00058498515762 
0.00071336567357 0.00070898876055 0.00070486837066 0.00070095798806 0.00069690526066 0.00069275973715 0.00068845507978 0.00068395798548 0.00067925295951 
0.00067434086954 0.00066911304351 0.00066386199827 0.00065847740639 0.00065299010102 0.00064743885349 0.00064175225452 0.00063614104014 0.00063053868661 
0.00062497807597 0.00061944971143 0.00061404259937 0.00060876522035 0.00060362710237 0.00059865718337 0.00059387579951 0.00058930122908 0.00072016663209 
0.00071579827773 0.00071157389735 0.00070756920677 0.00070339993498 0.00069912965545 0.00069470061292 0.00069008793439 0.00068528410181 0.00068029043468 
0.00067500027584 0.00066970563222 0.00066429395826 0.00065879290607 0.00065315149949 0.00064755729521 0.00064194776735 0.00063635403406 0.00063076510488 
0.0006252812783 0.00061988008549 0.00061460360321 0.00060947326249 0.0006045069439 0.00059973069123 0.00059516298051 0.00072828804219 0.0007238300628 
0.00071962933382 0.00071534367817 0.00071102576752 0.00070660538059 0.00070204081272 0.00069731062722 0.00069241109336 0.00068734587152 0.00068200546229 
0.00067668248805 0.00067125914133 0.00066576399566 0.0006601345818 0.00065455416445 0.00064896686086 0.00064339604454 0.00063782878949 0.000632352769 
0.00062697082824 0.00062170410827 0.00061657493339 0.00061160699088 0.00060682421113 0.00060224374714 0.00073710598574 0.00073252756742 0.00072813390289 
0.00072367241993 0.00071918022521 0.00071459856908 0.00070989269413 0.00070504623637 0.00070005942759 0.00069493625398 0.00068956082279 0.00068423204543 
0.00067881726245 0.00067325101501 0.00066774436438 0.00066220421538 0.00065665958437 0.00065109251859 0.00064558846983 0.00064014885268 0.00063479023462 
0.00062953703341 0.00062441109426 0.00061943831525 0.00061463730926 0.00061003599936 0.00074580807979 0.00074112852823 0.00073641515088 0.00073175244385 
0.00072707099297 0.0007223219798 0.00071747819012 0.00071252563308 0.00070746621099 0.0007021632763 0.00069691758732 0.0006915955928 0.00068621374251 
0.00068069484033 0.00067524628421 0.00066976853863 0.00066428704909 0.00065876864174 0.00065332848481 0.00064793588074 0.00064261280718 0.00063738049167 
0.00063226113492 0.00062728461269 0.0006224691836 0.00061782706538 0.00075338010654 0.00074843495162 0.0007434991562 0.00073862422691 0.00073375150717 
0.00072884235606 0.0007238727382 0.00071883600787 0.00071372393776 0.00070839532504 0.00070316250102 0.00069788068851 0.00069255922695 0.00068711582427 
0.00068175262463 0.000676363992 0.00067093106004 0.00066553468017 0.0006601677692 0.00065483674867 0.00064956208114 0.0006443599141 0.00063926105986 
0.00063428475857 0.0006294570403 0.00062478359201 0.00075870735886 0.00075353681421 0.00074838106421 0.00074330100883 0.00073825045598 0.00073320296843 
0.00072812839158 0.00072302110456 0.00071788163974 0.00071256265313 0.0007073712302 0.00070215931775 0.00069683478764 0.00069159205308 0.00068634423755 
0.00068103322554 0.00067574488205 0.00067046471493 0.00066519208835 0.00065993782638 0.00065472739836 0.00064957608871 0.0006445065686 0.00063954174971 
0.00063470192334 0.00063002842422 0.00076104346222 0.00075554924573 0.00075019466089 0.0007449383577 0.00073973630366 0.00073456786753 0.00072941767978 
0.00072427599358 0.00071914085932 0.000713861337 0.00070874385777 0.00070363338003 0.00069843222847 0.00069332874223 0.00068822543033 0.00068305471441 
0.00067791757842 0.00067276803565 0.00066760843298 0.00066245614987 0.00065732425602 0.00065223208275 0.00064720474938 0.00064225849432 0.00063741874617 
0.00063272476822 0.00098032352901 0.00097116650978 0.00096229548112 0.00095372194364 0.00094540918411 0.00093748381572 0.00092978957141 0.00092233923771 
0.00091510798203 0.00090818633262 0.00090132260162 0.00089458764422 0.00088795864354 0.00088132480559 0.00087483788253 0.00086839327105 0.0008619780599 
0.00085553388148 0.00084907411265 0.00084258852734 0.00083607302581 0.00082948174028 0.00082291969315 0.0008163490729 0.00080978342745 0.00080324028012 
0.00097149543187 0.00096252397566 0.00095385905453 0.00094547008734 0.00093743385577 0.00092977015221 0.00092230482302 0.00091508260861 0.00090807906469 
0.00090135415597 0.00089464315654 0.00088802598287 0.00088147880778 0.00087488301417 0.00086841299178 0.00086196735954 0.00085549075721 0.00084899976014 
0.00084248622827 0.00083594622028 0.00082933008007 0.00082274672541 0.00081615463142 0.00080956559451 0.00080299605633 0.00079646290041 0.000959791194 
0.00095102892903 0.00094255489651 0.00093445250525 0.00092667526785 0.00091928067581 0.0009120740295 0.00090511757083 0.00089846232663 0.00089183172737 
0.00088529431868 0.0008788158764 0.00087236657009 0.00086584180018 0.00085939761298 0.00085296012162 0.00084647454982 0.00083996291022 0.0008334222383 
0.00082685417813 0.0008202121207 0.00081361156421 0.00080701078307 0.00080042438579 0.00079386921816 0.00078736435542 0.00094583355973 0.00093726243171 
0.00092907666362 0.00092123733075 0.00091373696473 0.00090661504766 0.00089969638118 0.00089300966181 0.00088659176402 0.00088017519812 0.00087381939303 
0.00086748433713 0.00086105190148 0.000854700539 0.000848332199 0.00084190335916 0.00083543484465 0.00082892724682 0.00082238455742 0.00081581419131 
0.00080916869815 0.0008025729903 0.00079598500015 0.00078942170659 0.00078289969669 0.00077643939044 0.00093038496773 0.00092205899502 0.00091413590892 
0.00090657318942 0.00089940957181 0.00089252762816 0.00088588440457 0.0008794520551 0.00087327334147 0.00086706262425 0.00086088184904 0.0008546919872 
0.0008483725071 0.00084213113134 0.0008358071277 0.00082942502422 0.00082299115842 0.0008165090589 0.00080998693467 0.000803379052 0.00079681237241 
0.00079024279671 0.00078368696222 0.00077716227532 0.00077069075555 0.00076429141572 0.00091418506919 0.00090615832423 0.00089850621514 0.00089121408801 
0.00088434911974 0.00087774028714 0.00087136491262 0.00086529046692 0.00085921818876 0.000853198413 0.00084717814647 0.00084113080951 0.00083490704933 
0.00082875688294 0.0008225046981 0.00081618023145 0.00080979327355 0.0008033525445 0.00079686857968 0.00079029515501 0.00078376822447 0.00077724250014 
0.00077073704699 0.00076427095522 0.00075786534604 0.00075154242719 0.0008980268439 0.00089026173687 0.00088288211247 0.00087587421918 0.00086928007105 
0.00086293824824 0.00085681245886 0.00085095598433 0.00084507905477 0.00083922664568 0.00083335280352 0.00082741048503 0.00082130939596 0.00081520683118 
0.00080902859347 0.00080276518123 0.00079643185995 0.00079004242921 0.0007836086809 0.00077708566439 0.00077061349604 0.00076414683844 0.00075770609724 
0.00075131204803 0.00074498611033 0.00073872279226 0.00088244757498 0.00087495414859 0.00086783630609 0.00086116577244 0.00085478927499 0.0008486723603 
0.00084276853071 0.00083710599727 0.00083139454397 0.00082568590009 0.00081991531415 0.00081409405715 0.00080804314048 0.00080200986791 0.00079589115613 
0.00078968418461 0.00078340652633 0.00077707201055 0.00077063277893 0.00076423338301 0.00075782611796 0.00075143045071 0.00074506646041 0.00073875687608 
0.00073252208083 0.00072635748335 0.00086790306009 0.00086065587884 0.00085380939751 0.00084739533951 0.0008412615728 0.00083536523608 0.00082976767003 
0.00082415584161 0.00081858527886 0.00081297338399 0.00080729161371 0.00080153930829 0.00079554542571 0.00078956372931 0.0007834943143 0.00077733665195 
0.00077110964779 0.00076483113696 0.00075845039636 0.00075211721499 0.00074578171325 0.00073946428387 0.00073318559336 0.00072696722888 0.00072080211739 
0.00071477502582 0.00085468664299 0.0008477048455 0.00084111036074 0.00083493682963 0.00082902520473 0.00082332341916 0.00081788937708 0.00081240865787 
0.00080693887366 0.00080140690545 0.00079581080512 0.00079007971291 0.00078412214538 0.00077817508796 0.00077214133187 0.00076602077288 0.00075983758307 
0.00075360825238 0.0007472838925 0.00074101758165 0.00073475714299 0.0007285218172 0.00072233345374 0.00071621333963 0.00071015395291 0.00070424030379 
0.00084305268914 0.00083631511358 0.00083002413889 0.00082400299998 0.00081828920016 0.00081275470513 0.00080744969834 0.00080207849769 0.0007966781118 
0.00079122367546 0.00078563727588 0.00077993162352 0.00077399180489 0.00076806380844 0.00076205056393 0.00075595701954 0.00074980706579 0.00074362020512 
0.00073734724856 0.00073114302627 0.00072495647717 0.0007188041246 0.00071270809154 0.00070665766767 0.00070073822212 0.00069493229612 0.00083313762609 
0.00082663222527 0.00082055973148 0.00081476463434 0.00080919447687 0.00080390801313 0.00079860430329 0.00079329854301 0.00078794558565 0.00078251870495 
0.00077694778149 0.00077112887375 0.0007653112718 0.00075938814495 0.00075338379952 0.00074730381297 0.00074117823504 0.00073495449048 0.00072879490417 
0.00072264708013 0.00071652848024 0.00071045588863 0.00070445005645 0.00069849943179 0.00069268870536 0.00068699963844 0.0008250396708 0.00081875004436 
0.00081287562995 0.00080725459528 0.00080182293642 0.00079665587908 0.0007914208936 0.00078616639648 0.00078085644478 0.00077541280845 0.00076983956993 
0.00076401162458 0.00075818670811 0.00075225667968 0.00074625010359 0.00074017579085 0.00073406355718 0.00072786234286 0.00072173903401 0.00071563823558 
0.00070957977633 0.00070358097181 0.00069762713259 0.00069180454755 0.00068609009954 0.00068052261801 0.0008188169594 0.00081279130071 0.00080702073216 
0.00080154360142 0.00079623591867 0.0007911412255 0.00078595496553 0.0007807486975 0.00077541549706 0.00076996346025 0.00076437374471 0.00075852515066 
0.00075268253225 0.00074673809773 0.00074072300458 0.0007346453538 0.0007284629494 0.00072235241612 0.00071625552245 0.00071019483716 0.00070418677326 
0.00069825150343 0.000692373663 0.0006866379303 0.00068102200712 0.00067556780274 0.00081449465039 0.00080863803145 0.00080300635847 0.00079765867279 
0.00079254398975 0.00078738465807 0.00078224650557 0.00077701519093 0.00077166742591 0.00076619202722 0.00076057502832 0.00075469843503 0.00074883187086 
0.00074286823847 0.00073683976588 0.0007307556363 0.00072457192382 0.00071846973236 0.00071239174997 0.00070636090386 0.00070039505443 0.0006944807168 
0.00068870332467 0.00068304185511 0.00067752304712 0.00067216290205 0.00081205313887 0.0008063365474 0.00080086812363 0.00079556508072 0.00079050229646 
0.00078536645662 0.00078022775842 0.00077497634104 0.00076960081826 0.00076409055805 0.00075843912607 0.00075252934027 0.00074663556594 0.00074065058489 
0.00073460597076 0.00072851311292 0.00072232717797 0.00071623067914 0.00071016667258 0.00070415861557 0.00069822702278 0.00069235975163 0.00068662780595 
0.00068103659647 0.00067559297169 0.00067031413406 0.00081152536673 0.00080585243029 0.00080046004028 0.00079520770377 0.00079016660698 0.00078505225773 
0.00077986402958 0.00077457720977 0.00076916006009 0.00076360817232 0.0007579160753 0.00075197098699 0.00074605074983 0.00074004576389 0.00073398918112 
0.00072780837328 0.00072170149384 0.00071560989884 0.00070955794775 0.00070356704763 0.00069763179686 0.0006918289621 0.00068613990849 0.00068060022853 
0.0006752156497 0.00067000984062 0.00081266999309 0.000807059845 0.00080171414999 0.00079659437585 0.00079145416293 0.00078628302678 0.00078105129544 
0.00077571362896 0.00077024512876 0.00076464668082 0.00075878234662 0.00075293702421 0.00074699301279 0.00074097232891 0.00073490720424 0.00072872298745 
0.00072261907048 0.00071653509273 0.00071049951124 0.00070452544186 0.0006986066416 0.0006928207476 0.00068717382099 0.00068167104239 0.00067633684587 
0.00067118417101 0.00081537081049 0.00080979193822 0.00080445324664 0.00079934119859 0.00079413656247 0.00078891276309 0.00078361800121 0.0007782201683 
0.00077269480348 0.0007670464437 0.00076114302066 0.00075526984204 0.00074930793697 0.00074327873296 0.00073721254239 0.00073103250121 0.00072494285702 
0.00071887186537 0.00071284752322 0.00070685583453 0.00070098148897 0.00069522898317 0.00068960412755 0.00068413237146 0.0006788307296 0.00067371424114 
0.00081937121253 0.0008138215876 0.00080841056822 0.00080324597649 0.0007979741806 0.00079267775355 0.00078730823636 0.0007818402942 0.00077625993592 
0.0007705590297 0.00076462080342 0.00075872707053 0.00075275658433 0.00074672922733 0.00074058739495 0.00073451262835 0.00072843729223 0.0007223868898 
0.00071634854629 0.00071041562535 0.00070456232353 0.00069882649664 0.00069322541795 0.00068777285012 0.00068249073747 0.00067739331122 0.00082428775895 
0.00081868684933 0.00081334704682 0.00080795655876 0.00080259361085 0.00079720410501 0.00079175057085 0.00078621047299 0.00078057208961 0.00077483037625 
0.0007688663872 0.00076296360427 0.00075699664719 0.00075098741349 0.00074486720516 0.00073881526905 0.00073277207224 0.0007267549213 0.00072074782074 
0.00071483430861 0.00070901354487 0.00070330211544 0.00069771812186 0.00069228090131 0.00068700931579 0.00068191630926 0.00082959983051 0.00082393545455 
0.00081846553509 0.00081296533325 0.00080749308458 0.00080200193327 0.00079645939092 0.00079084731538 0.00078515705462 0.00077938485342 0.00077340652184 
0.00076751307356 0.0007615655462 0.00075549309892 0.00074950206892 0.00074349557449 0.00073749910543 0.00073149137696 0.00072555455321 0.00071968609663 
0.00071389918498 0.00070821402406 0.00070264860518 0.000697222751 0.00069195168976 0.00068685783041 0.00083468969825 0.00082899675859 0.00082328285992 
0.00081765598696 0.00081206283611 0.00080646683986 0.00080083815308 0.00079516057955 0.00078942937975 0.00078350057221 0.00077766794899 0.00077179144625 
0.00076588256841 0.00075986003072 0.00075392771671 0.00074798339275 0.00074205024946 0.00073609250298 0.00073022246178 0.00072440636131 0.0007186626765 
0.00071300875476 0.00070746253838 0.00070204930749 0.00069678185146 0.00069166926871 0.00083882493984 0.00083294906357 0.00082709543383 0.00082133458217 
0.00081562126594 0.00080992323374 0.00080421690583 0.00079849243927 0.00079273501721 0.00078679856759 0.00078098894158 0.00077515677032 0.0007693076687 
0.00076335676215 0.00075750420124 0.00075164308441 0.00074575324368 0.00073991386117 0.00073411576064 0.00072836267944 0.000722671761 0.00071705563336 
0.00071154181899 0.00070614206332 0.00070088054218 0.00069575740158 0.00084121276991 0.00083519635702 0.00082920538021 0.00082331556055 0.00081749067147 
0.00081170892567 0.0008059403348 0.00080017591391 0.00079441210967 0.00078849673538 0.00078273252336 0.00077696690728 0.00077110695858 0.00076534538122 
0.00075959539936 0.00075379906939 0.00074804266864 0.00074231000716 0.00073660016553 0.00073092124793 0.00072529560764 0.00071973485695 0.00071425766646 
0.00070888221527 0.00070362469158 0.000698521605 0.00084139660477 0.00083513570927 0.00082902202842 0.00082302471532 0.00081710691022 0.0008112512671 
0.00080544200738 0.0007996671766 0.00079392111867 0.00078804929824 0.00078235453513 0.00077667990973 0.00077092721127 0.00076528536855 0.00075965885559 
0.00075398235912 0.00074835848158 0.00074274188327 0.00073713445306 0.00073155044739 0.00072600081658 0.00072050075924 0.00071507117282 0.00070972396004 
0.00070447974066 0.00069937442453 0.0010761142425 0.0010662266234 0.0010566079998 0.0010472661588 0.0010381624359 0.001029423392 0.0010208955038 
0.0010125963706 0.0010045076503 0.0009967266999 0.00098900836765 0.00098142849112 0.00097396807497 0.00096651966557 0.00095923784929 0.00095202145749 
0.00094486079359 0.00093770072045 0.00093055637481 0.00092341851545 0.00091628272112 0.00090910174538 0.00090197819354 0.0008948713703 0.000887791462 
0.00088075270562 0.0010675989391 0.0010578809019 0.0010484469083 0.0010392627444 0.0010304038259 0.001021890552 0.0010135539892 0.0010054457323 
0.0009975512439 0.00098994008159 0.00098235631258 0.00097488603475 0.00096750997708 0.00096011030395 0.00095286477645 0.00094567245508 0.00093847929014 
0.00093130264363 0.00092413468444 0.00091697106871 0.00090976100813 0.00090261139242 0.00089547809535 0.00088837036823 0.0008813009198 0.00087428324229 
0.0010569055085 0.0010473762994 0.0010381073629 0.0010291779842 0.0010205407979 0.001012255665 0.0010041346008 0.00099625001314 0.00098866539883 
0.00098111704843 0.00097368387095 0.00096633883846 0.00095905605567 0.00095173258583 0.00094452488452 0.00093735712677 0.00093017734994 0.00092300070789 
0.00091582767785 0.00090865765573 0.00090144172465 0.00089429287219 0.000887166659 0.00088007459734 0.00087303020153 0.0008660489887 0.0010444546298 
0.0010350929862 0.0010260824162 0.0010173808894 0.001008979801 0.0010009238725 0.00099305160963 0.0009853871397 0.00097800076715 0.00097063422298 
0.00096335841725 0.00095614124517 0.00094886769047 0.00094171778793 0.0009345904417 0.00092744300889 0.00092029169926 0.00091313573177 0.00090597675538 
0.00089881973247 0.00089161508825 0.00088448359771 0.00087738221469 0.00087032148591 0.00086331757792 0.00085638602411 0.0010307767463 0.0010216337681 
0.0010128539593 0.0010043916765 0.00099628624772 0.00098842599489 0.00098077947575 0.00097333449233 0.00096615127912 0.00095896208382 0.00095184028278 
0.00094475411694 0.00093758643939 0.00093054406545 0.00092346427678 0.00091636864675 0.00090926018293 0.0009021390127 0.00089501159892 0.0008878261039 
0.00088070927842 0.00087361249086 0.00086654946008 0.00085953517358 0.0008525844646 0.00084571611717 0.0010163948459 0.0010075226456 0.00099898047717 
0.00099075120427 0.00098290396713 0.00097527579465 0.00096785782509 0.00096073582301 0.00095363088939 0.00094661049193 0.00093963387696 0.00093268091943 
0.00092560417532 0.00091865179092 0.00091164494041 0.00090461062378 0.00089755368329 0.00089047947099 0.00088339475142 0.00087625045537 0.00086917837081 
0.00086212999433 0.00085512083856 0.00084816633604 0.00084128389804 0.00083449147203 0.0010019317129 0.00099329153417 0.0009849790889 0.00097700723532 
0.00096941204229 0.00096199572009 0.00095479429422 0.00094786377987 0.00094093466188 0.00093406876927 0.00092723148742 0.00092038065685 0.00091342650457 
0.0009065299784 0.00089959357206 0.00089262301628 0.00088562286985 0.00087860296451 0.00087157137595 0.00086447960853 0.00085746407595 0.00085047592142 
0.00084353200577 0.00083664887613 0.00082984448997 0.00082310898475 0.00098781173522 0.00097941325604 0.00097133877053 0.00096366128184 0.00095623028077 
0.00094902754401 0.00094202367568 0.00093526987093 0.0009284965135 0.0009217709953 0.00091503830804 0.00090831245774 0.00090141462077 0.00089458683932 
0.00088772187518 0.00088081219932 0.00087387100734 0.00086690817215 0.00085987240183 0.00085290422242 0.00084595294146 0.0008390343671 0.00083216490565 
0.00082536343168 0.00081864626042 0.00081200450163 0.00097442840768 0.00096624624163 0.00095841143309 0.00095095759824 0.00094374133816 0.00093673537049 
0.0009300216941 0.00092331126748 0.00091667765827 0.00091005439145 0.00090341977759 0.00089677445035 0.00088994479365 0.00088317927591 0.00087637266409 
0.00086951932581 0.00086263360989 0.00085572947287 0.00084875285896 0.00084185021621 0.00083496861188 0.00082812502824 0.00082133672708 0.00081462147464 
0.00080796817588 0.00080145697097 0.00096204871106 0.00095410466669 0.00094649035249 0.00093924887007 0.00093223101526 0.00092540288206 0.00091884455875 
0.00091227296087 0.00090574005121 0.00089921001894 0.0008926759925 0.00088606930599 0.00087929258838 0.00087257687266 0.00086581887632 0.00085901286316 
0.00085217826629 0.00084532772144 0.00083840920622 0.00083157279373 0.00082476362224 0.00081799801027 0.00081129459793 0.00080467109134 0.0007981159976 
0.000791709805 0.00095092360354 0.00094319343054 0.00093585611701 0.0009287435596 0.0009219053058 0.00091523414908 0.00090880398953 0.00090234129976 
0.00089590024017 0.00088946595151 0.00088296352092 0.0008764032921 0.00086966494872 0.00086298716262 0.00085626613025 0.00084950066171 0.00084270957708 
0.00083583884678 0.00082904490958 0.00082227119084 0.00081553381723 0.00080884704298 0.00080223000232 0.00079566884007 0.00078924507169 0.00078293692993 
0.00094119344777 0.00093366857551 0.00092652567978 0.00091961861432 0.00091291137509 0.00090648462689 0.00090006142865 0.00089367797272 0.00088732937427 
0.00088092085732 0.00087445815974 0.00086780937902 0.00086121637221 0.00085456512459 0.00084787219585 0.00084113668201 0.00083438316584 0.0008275547021 
0.00082081090205 0.00081409627855 0.00080742647174 0.00080081611717 0.00079428367879 0.00078781481033 0.00078149069367 0.00077528900876 0.00093296367689 
0.00092562971972 0.00091866362468 0.00091191538981 0.00090533974065 0.00089903495238 0.00089269215214 0.00088637897173 0.00088007195622 0.00087369808199 
0.00086726046503 0.00086062906341 0.0008540537818 0.0008474188254 0.00084074468799 0.00083403358438 0.00082730882406 0.0008205155474 0.00081381707383 
0.00080715458419 0.00080054674086 0.00079400875994 0.00078752403712 0.00078117656844 0.00077493977715 0.00076884918121 0.00092629632056 0.00091920420355 
0.00091232430957 0.00090571053303 0.00089925780555 0.00089303397624 0.00088675689019 0.000880515285 0.00087421295168 0.0008678585003 0.00086143285981 
0.00085480814177 0.00084824095765 0.00084161538195 0.00083495461793 0.00082825968241 0.00082148240621 0.00081479433624 0.00080813351761 0.00080151896581 
0.0007949670826 0.00078849351208 0.00078208291624 0.00077580767547 0.00076967514658 0.00076368387493 0.00092121591214 0.00091427484129 0.00090752355026 
0.00090103240612 0.00089477776647 0.0008885036119 0.00088229654685 0.00087605691218 0.00086976877078 0.00086342170964 0.0008569978721 0.00085037263575 
0.00084380712284 0.00083718562308 0.00083053385568 0.00082385253522 0.00081709212345 0.00081042841622 0.00080379974665 0.00079722662737 0.0007907235388 
0.00078427530035 0.00077796662725 0.00077177122863 0.0007657169796 0.0007598157362 0.00091776869059 0.00091088281587 0.00090428648987 0.00089784379404 
0.00089165218844 0.00088542115619 0.00087923997804 0.00087301024561 0.00086672558792 0.00086037438514 0.0008539452163 0.00084731381851 0.00084074600598 