# vtk DataFile Version 5.1
vtk output
ASCII
DATASET STRUCTURED_POINTS
DIMENSIONS 26 26 26
SPACING 0.08 0.08 0.08
ORIGIN -1 -1 0.5
POINT_DATA 17576
FIELD FieldData 1
potential 1 17576 double
0.00099701076258 0.00098540457052 0.00097419010438 0.00096351576728 0.0009532901855 0.00094356263643 0.0009342971858 0.00092554259557 0.00091719990126 
0.00090920412965 0.00090158307947 0.00089378988519 0.00088638816009 0.00087904646953 0.00087169660436 0.00086429709302 0.00085679590988 0.0008491692747 
0.00084140402113 0.00083349705009 0.0008254554968 0.00081729474326 0.00080903803248 0.00080073959527 0.00079237497329 0.00078400494609 0.00099588673961 
0.00098418113612 0.00097301884796 0.00096236153024 0.00095217507343 0.00094252490383 0.00093336907603 0.00092465633442 0.00091640557597 0.00090849116731 
0.00090082943912 0.00089343632181 0.00088577624187 0.0008784127607 0.00087101860647 0.00086355087788 0.00085597582134 0.00084827802521 0.00084043602018 
0.00083245643742 0.00082434594491 0.00081612245454 0.00080780925191 0.00079943288911 0.00079105165977 0.00078264336411 0.00099032224819 0.00097897173286 
0.00096783416455 0.00095715525629 0.00094709986043 0.00093754067241 0.00092849218031 0.00091994489001 0.00091176368986 0.00090395975423 0.00089639174554 
0.00088907078347 0.00088146291278 0.00087412121538 0.00086672889538 0.00085925575331 0.00085166024385 0.00084393072062 0.00083606525997 0.00082805569309 
0.00081991821252 0.00081167179104 0.000803337766 0.0007949442326 0.00078652213287 0.00077813169817 0.0009821868025 0.00097089284291 0.00095972174853 
0.00094918161837 0.00093915152286 0.000929744433 0.00092081478933 0.00091238573523 0.00090436719407 0.00089662088131 0.00088914763066 0.00088190602012 
0.00087462090636 0.00086707829563 0.00085972979725 0.00085227899337 0.00084470706452 0.00083699550511 0.00082913962768 0.00082114913725 0.000813024358 
0.00080479066399 0.00079647126407 0.0007880939359 0.00077969075579 0.00077129326716 0.00097251193777 0.00096091681568 0.0009501958667 0.00093970816228 
0.00092976855672 0.00092040553275 0.00091162922202 0.00090329117819 0.00089535451581 0.00088772633963 0.0008803132626 0.00087298066978 0.00086584316685 
0.0008586073796 0.00085105856922 0.00084365951727 0.00083613903721 0.00082847919756 0.00082067481314 0.00081272983186 0.00080465646011 0.0007964771991 
0.00078820665629 0.00077987744389 0.00077152154182 0.00076317272073 0.00096260627438 0.00095109590388 0.00094010306091 0.0009300761857 0.00092018917195 
0.00091090158238 0.0009022017187 0.00089390727077 0.0008859849919 0.00087836563648 0.00087095291135 0.0008636716183 0.00085649511047 0.00084927645194 
0.00084177246814 0.00083442504776 0.00082696777359 0.00081937916707 0.00081165115494 0.00080378545359 0.00079579317165 0.0007876904654 0.00077950489362 
0.00077125487106 0.00076297646738 0.00075470406413 0.00095372893432 0.00094215625346 0.00093124543377 0.00092089493059 0.00091151830173 0.00090224336653 
0.00089350310356 0.00088525579327 0.00087729998866 0.00086961449583 0.00086211776438 0.00085476611211 0.0008474909904 0.00084028923438 0.00083303275941 
0.00082546968906 0.00081806175426 0.00081054957686 0.00080290599326 0.00079513829116 0.00078724985608 0.00077925390692 0.00077117126096 0.00076303188314 
0.00075485771646 0.00074668692289 0.00094641191 0.00093492836777 0.00092409900948 0.00091381465934 0.00090447129217 0.00089520428985 0.00088644525303 
0.00087805188426 0.00087005925865 0.00086223452436 0.00085459426043 0.00084709482662 0.000839680682 0.00083243041354 0.00082506716366 0.00081748715387 
0.00081010163771 0.00080264140793 0.00079508777821 0.0007874198188 0.00077964744831 0.00077177592095 0.0007638215793 0.00075580726518 0.00074776497203 
0.00073971934238 0.00094132549677 0.00093006822811 0.00091918424579 0.00090895207597 0.00089923163771 0.00089036903256 0.00088148437778 0.00087296367301 
0.00086481176078 0.00085677912301 0.00084891551002 0.00084119311154 0.00083358380086 0.00082606150854 0.0008187097508 0.00081124494816 0.00080359323123 
0.00079614962821 0.00078865186581 0.00078108293678 0.00077342340709 0.00076568345998 0.00075787042675 0.00075000179763 0.00074210175056 0.00073420570191 
0.00093879509567 0.00092763199912 0.0009168190073 0.00090662548642 0.00089689728411 0.00088797504441 0.00087900850479 0.00087026752076 0.00086180377074 
0.00085359080767 0.00084545798825 0.00083744958822 0.00082956812469 0.00082181218249 0.00081425957032 0.000806686186 0.00079889437203 0.00079141741246 
0.00078393880731 0.00077643476942 0.00076887756281 0.00076126117842 0.00075359208707 0.00074587792758 0.00073813751888 0.00073039780205 0.00093899197847 
0.00092792485019 0.00091730622808 0.00090700178276 0.00089724307818 0.00088784187135 0.00087910657965 0.00087018908778 0.00086141750608 0.00085282064203 
0.00084443335407 0.00083609276642 0.00082789706224 0.00081983792618 0.00081201769872 0.0008042356802 0.00079655988121 0.0007886987924 0.00078118362404 
0.00077369518115 0.00076621073895 0.00075870231427 0.00075116529231 0.00074360379177 0.00073602777612 0.00072845623774 0.00094199519078 0.00093102246555 
0.00092045668904 0.00091015531097 0.000900340017 0.00089081718322 0.00088157135053 0.00087274776114 0.00086366335506 0.00085473494182 0.00084599416223 
0.00083728379961 0.00082871688051 0.00082032078563 0.00081209464482 0.00080411834478 0.00079622436823 0.00078847873399 0.00078056963645 0.00077304209676 
0.00076557791852 0.00075813964652 0.00075071454015 0.00074329171727 0.00073587192467 0.00072846906837 0.00094782589815 0.00093693904009 0.00092641381977 
0.00091609413972 0.00090619823107 0.00089652668946 0.00088706741101 0.00087797356055 0.00086861670688 0.00085929299483 0.00085009661041 0.00084109120527 
0.0008321391694 0.00082335282253 0.00081476869908 0.00080647599729 0.00079829846825 0.00079032175163 0.00078229995937 0.00077461050842 0.00076710181446 
0.00075968785668 0.00075233109733 0.00074501891715 0.00073773945697 0.00073049326741 0.00095646869642 0.00094565828822 0.00093515077476 0.00092492398364 
0.00091478911175 0.00090494358246 0.0008951938954 0.00088554926471 0.00087617661383 0.00086654399895 0.00085692130409 0.0008474383684 0.00083818356844 
0.00082900926866 0.00082004714056 0.00081130379625 0.00080287953246 0.00079463052022 0.00078660328954 0.00077857463168 0.00077090916071 0.00076343999013 
0.00075610361189 0.00074885617061 0.00074168231902 0.00073457244322 0.00096788287728 0.00095712425965 0.000946613045 0.00093632085762 0.00092605286457 
0.00091600823305 0.00090600318936 0.00089605618878 0.00088634740277 0.00087635476588 0.00086640449793 0.0008564860374 0.00084684421384 0.00083728068783 
0.0008279361593 0.00081882277149 0.00081004944654 0.00080147083778 0.0007931670078 0.00078491444787 0.00077712581692 0.00076950331396 0.00076211065557 
0.00075487207607 0.00074775452796 0.00074073898832 0.00098200224831 0.00097126441688 0.00096071970797 0.00095032896523 0.00093989745682 0.00092963074963 
0.00091935162579 0.00090903961215 0.00089873745905 0.00088869778786 0.0008783811955 0.00086808802949 0.00085797751579 0.00084813364217 0.00083841562732 
0.00082893497178 0.00081980515992 0.00081088934322 0.00080227495399 0.00079395919444 0.00078573356052 0.00077793309221 0.0007704259628 0.00076313175562 
0.00075600122125 0.00074902750835 0.00099872726425 0.0009879695552 0.00097735391873 0.00096682094935 0.00095632383802 0.00094567754547 0.00093510925548 
0.00092447834427 0.00091384009879 0.00090315360906 0.00089278683204 0.00088219310695 0.00087167526203 0.00086138330524 0.00085141121197 0.00084158003321 
0.00083202814048 0.00082285144212 0.0008139150839 0.00080529886918 0.00079679415834 0.00078881647016 0.00078108750436 0.00077366371294 0.0007664632276 
0.00075945524856 0.0010179014131 0.001007065099 0.00099632228553 0.00098560836625 0.00097487897325 0.00096395668012 0.0009530838631 0.00094213065621 
0.00093115913282 0.00092014106765 0.00090943997281 0.00089852451665 0.00088773815299 0.00087706944541 0.00086678023771 0.00085662971582 0.0008467570556 
0.00083725946775 0.00082800755008 0.00081908404139 0.00081049925647 0.00080204150944 0.00079411704828 0.00078645535557 0.0007791139133 0.00077201454474 
0.0010392781683 0.0010282907531 0.0010173545134 0.0010064054201 0.00099540035097 0.00098430354433 0.00097298032841 0.00096170440865 0.00095037755655 
0.00093908102455 0.00092778697876 0.00091687010797 0.00090579695229 0.00089484653632 0.00088418051694 0.00087385179087 0.00086369649775 0.00085390936685 
0.00084436367378 0.00083514616616 0.00082626422653 0.0008175220374 0.00080932658445 0.0008014589915 0.00079385661824 0.00078659282801 0.0010624575166 
0.0010512304557 0.0010400254492 0.0010287844746 0.00101745517 0.0010060288241 0.0009943728678 0.0009827733948 0.00097113871623 0.00095955061248 
0.00094798710372 0.00093681592302 0.00092550459512 0.0009143827107 0.00090342957595 0.00089287620796 0.00088248474779 0.00087238198928 0.00086265005935 
0.00085316474017 0.00084400282599 0.00083517864496 0.00082649431232 0.00081834767597 0.00081052736993 0.00080296960831 0.0010868419459 0.0010752741682 
0.0010637150869 0.0010521073403 0.0010404096455 0.0010286193152 0.0010166206203 0.0010047027196 0.00099277910369 0.00098093158386 0.00096913777806 
0.00095747951341 0.00094626424333 0.00093496922512 0.00092390993274 0.00091302518255 0.00090256796414 0.00089227765866 0.00088233814139 0.00087262547777 
0.00086321417549 0.00085412191996 0.00084515479857 0.0008367146902 0.00082859927957 0.00082080058103 0.0011115301127 0.0010995128531 0.0010875211671 
0.0010754823784 0.0010633731649 0.0010511992783 0.0010389789686 0.001026624327 0.001014433929 0.0010023132501 0.00099038040457 0.00097856855483 
0.00096722699221 0.00095582699685 0.0009446737601 0.00093369280309 0.00092303056516 0.00091272556692 0.00090264060813 0.00089275508891 0.00088314134627 
0.00087381402869 0.00086477917274 0.00085585387138 0.00084742953512 0.00083930871616 0.0011353422258 0.0011227808279 0.0011102624164 0.001097747193 
0.0010851909509 0.001072617185 0.0010600511167 0.0010474039275 0.0010349767072 0.0010226686069 0.0010106054881 0.00099870269686 0.00098703267685 
0.00097587466852 0.00096470680805 0.00095377522807 0.0009430219796 0.0009326771302 0.00092245370151 0.0009125242123 0.00090276639815 0.00089324711846 
0.00088398124751 0.00087479065485 0.0008660650377 0.00085760683059 0.0011568197183 0.0011436754389 0.0011305759431 0.0011175278036 0.001104509554 
0.0010915379013 0.0010786345987 0.0010657198663 0.0010530917066 0.00104064691 0.0010285079705 0.0010165831187 0.0010049357268 0.00099383131176 
0.00098273682187 0.00097188381935 0.00096126199376 0.00095078601625 0.00094068178872 0.00093071379541 0.00092086938636 0.00091121311926 0.00090176122752 
0.00089233712411 0.00088333416452 0.00087455809952 0.0011745212302 0.0011607014864 0.0011470432373 0.001133450616 0.0011199648495 0.0011065930142 
0.0010933757263 0.001080232904 0.0010674465007 0.0010549194679 0.0010427198745 0.0010308958107 0.0010193547074 0.0010081351308 0.00099747281084 
0.00098679603851 0.00097633831109 0.00096599575363 0.0009559874285 0.00094606057041 0.00093620089922 0.00092646994728 0.00091688475008 0.00090745547703 
0.00089802056633 0.00088895452528 0.0011871545822 0.0011726970044 0.0011584198313 0.0011443420397 0.0011304082864 0.0011166617009 0.0011031619302 
0.0010899401271 0.0010769260242 0.0010643725765 0.0010522279437 0.0010405318238 0.0010291843215 0.001018208502 0.0010078164431 0.00099742052672 
0.00098722974877 0.0009771865303 0.00096717804245 0.00095742896059 0.000947684718 0.00093794398221 0.00092828164564 0.00091871012065 0.00090907419053 
0.00089975036947 0.0011019384054 0.0010894165246 0.0010772519828 0.0010655845694 0.0010543159228 0.0010434911563 0.0010330746371 0.0010231205895 
0.0010135410673 0.001004285993 0.00099539951403 0.00098635039148 0.0009777173685 0.00096917918286 0.00096067808431 0.00095218005074 0.00094363933783 
0.00093503396424 0.00092635100976 0.00091758498608 0.00090873889051 0.0008998228493 0.00089085425871 0.00088188125443 0.00087287336651 0.00086388537938 
0.0011036786055 0.001091021067 0.001078866728 0.0010671674621 0.0010558810918 0.0010450685012 0.0010346888954 0.001024698994 0.0010151323747 
0.0010058834295 0.00099688888944 0.00098818356786 0.00097924752137 0.00097065476754 0.00096208685248 0.00095350550537 0.00094487985517 0.0009361949007 
0.00092742758109 0.00091858118982 0.00090965782062 0.00090067000351 0.00089163515282 0.00088257398922 0.0008735386152 0.00086450099029 0.0011020238832 
0.0010896790404 0.0010775013416 0.0010657251913 0.0010545060157 0.0010437117556 0.0010333592355 0.0010234491175 0.0010138649793 0.0010046415822 
0.00099566207633 0.00098695889016 0.00097801495633 0.00096939406038 0.0009607867103 0.0009521661957 0.0009434919815 0.0009347511448 0.00092593881673 
0.00091704262439 0.00090807359638 0.00089904498467 0.00088997194141 0.00088087692318 0.00087178423302 0.00086274812541 0.0010984570629 0.0010861221207 
0.0010738586558 0.0010621617282 0.0010509008653 0.0010401845153 0.0010298705612 0.0010199951897 0.0010104897749 0.0010012425425 0.00099227988394 
0.00098358349084 0.00097489222257 0.00096601337453 0.00095739567688 0.00094874941751 0.00094005574183 0.00093129441475 0.0009224569883 0.00091354825698 
0.00090456354986 0.00089552011901 0.00088643678339 0.00087733421877 0.00086823806959 0.00085917342485 0.0010935802352 0.0010808942981 0.001069025225 
0.0010573197871 0.0010460830847 0.0010353402942 0.001025107263 0.0010152512021 0.0010057585389 0.00099656298271 0.00098754850053 0.00097874665187 
0.00097014370341 0.00096150681197 0.00095262934587 0.00094397742388 0.00093528151123 0.00092652174631 0.0009176894943 0.00090878367088 0.00089981059657 
0.00089078631475 0.00088171874218 0.000872633652 0.00086355616978 0.00085451319936 0.0010883266968 0.0010756722006 0.0010634747233 0.0010521693742 
0.0010409225415 0.0010301925946 0.0010199766207 0.0010101106562 0.0010005854791 0.00099135670258 0.00098235002373 0.0009735080979 0.00096481858243 
0.00095615295652 0.00094725645928 0.00093859707016 0.00092990446655 0.00092115783629 0.00091234630055 0.00090346750191 0.00089452699346 0.00088553452229 
0.00087651073088 0.00086746690773 0.00085843174428 0.00084943251145 0.0010836961306 0.0010709236715 0.0010587505621 0.0010474070561 0.0010362691728 
0.0010254992102 0.001015198694 0.0010053464844 0.00099576499261 0.00098645463365 0.00097735000432 0.00096842016805 0.00095960652208 0.00095091524097 
0.00094222722513 0.00093329872457 0.00092459661227 0.00091586453889 0.00090707578407 0.00089823510188 0.00088934174752 0.00088040298037 0.00087143298958 
0.00086245446236 0.0008534817661 0.00084454517952 0.0010800850137 0.001067343529 0.0010551938255 0.001043516503 0.0010327041011 0.0010218995878 
0.001011550673 0.0010015376494 0.00099191810662 0.00098247656804 0.0009732398447 0.00096417033945 0.00095521700176 0.00094646387144 0.00093764179334 
0.00092865561167 0.00091992426928 0.0009111850909 0.0009024226937 0.0008936178568 0.00088477751313 0.00087590283 0.00086700450216 0.00085809837268 
0.00084920875462 0.00084035208727 0.0010781219288 0.0010655461406 0.0010532835186 0.0010416044036 0.0010303695395 0.0010199357839 0.0010094449401 
0.0009993043409 0.00098954065242 0.00097991736743 0.00097048818807 0.00096122574829 0.00095209964663 0.00094308481218 0.00093426886193 0.00092537609443 
0.00091633781714 0.00090756864177 0.00089880331342 0.00089003267554 0.0008812388023 0.00087243028946 0.00086361004405 0.00085479001236 0.00084598699488 
0.00083722800757 0.0010781468558 0.0010656021253 0.0010533518377 0.0010416592665 0.0010303759112 0.0010198571866 0.0010092766043 0.00099892742487 
0.00098887913244 0.0009791136106 0.00096945968967 0.00095995595258 0.00095059820132 0.00094138064067 0.00093238084875 0.00092337944806 0.00091418681632 
0.00090534609875 0.00089655107558 0.00088778627864 0.00087902943252 0.00087027649972 0.00086153269974 0.00085280178695 0.0008440961761 0.00083543556578 
0.0010803687732 0.0010678541157 0.0010557392713 0.0010438861827 0.0010325360973 0.0010215200637 0.0010111707921 0.0010006638271 0.00099034126776 
0.00098023657017 0.00097037930959 0.00096060866693 0.00095097716566 0.00094150277625 0.00093227121515 0.00092308238934 0.00091400940687 0.00090476999063 
0.00089590589582 0.00088710915774 0.00087836628738 0.0008696555634 0.00086097481487 0.00085232718527 0.00084371889529 0.00083516218905 0.0010849125168 
0.0010724234309 0.0010603001946 0.0010484021007 0.0010369632562 0.0010258119514 0.0010149589304 0.0010045536838 0.00099397066042 0.00098358107217 
0.00097342357536 0.00096332848083 0.00095339508157 0.00094363966413 0.00093405062858 0.00092470608907 0.00091543910784 0.00090632154378 0.00089705095696 
0.00088818529809 0.00087941648359 0.00087071783786 0.00086208297391 0.00085350272785 0.00084498194858 0.00083652508861 0.0010918317884 0.0010793571612 
0.0010672137731 0.0010552511184 0.0010437033189 0.0010323949748 0.001021338393 0.0010107039479 0.00099987112181 0.00098913239992 0.00097857132831 
0.00096823706347 0.00095797682099 0.00094788907234 0.00093799868972 0.00092838802533 0.00091887762031 0.00090955524033 0.00090018158279 0.00089114363003 
0.00088230204981 0.00087358295518 0.00086495956941 0.00085642608933 0.00084797240177 0.00083960260071 0.001101134866 0.0010886627811 0.001076476909 
0.0010645630282 0.0010527519024 0.0010412649055 0.0010299310138 0.0010187732073 0.001007961215 0.00099695725784 0.00098601839916 0.00097525889376 
0.00096475093316 0.00095433228627 0.00094412163604 0.00093419730538 0.00092440877548 0.00091485558973 0.00090550412085 0.00089613840108 0.00088713271359 
0.00087833265513 0.00086968698114 0.0008611625599 0.00085275128962 0.00084444664684 0.0011127887163 0.001100293428 0.0010880443631 0.0010760245144 
0.0010640598999 0.001052372835 0.001040798893 0.0010293658701 0.0010182527575 0.0010069289067 0.00099570624999 0.00098455810288 0.00097371301603 
0.00096295793207 0.00095241939133 0.0009420992716 0.00093209778096 0.00092226456223 0.00091268577178 0.00090311782172 0.00089395304956 0.00088504426382 
0.00087631912281 0.00086776272612 0.0008593550006 0.00085108252964 0.0011267184409 0.0011141703718 0.0011018314721 0.0010896764509 0.001077532487 
0.0010656261549 0.0010537951805 0.0010420764124 0.0010303501397 0.0010190148368 0.0010074641812 0.00099598189854 0.00098471128116 0.00097372185323 
0.00096285871982 0.00095222293687 0.00094191807563 0.00093180026649 0.00092195245897 0.00091237072497 0.00090284922063 0.00089372883853 0.0008848876125 
0.0008762564672 0.00086779818982 0.00085951592033 0.0011428037355 0.0011301655596 0.0011177044723 0.0011053768332 0.0010931569498 0.0010808777985 
0.0010687762762 0.0010567118147 0.0010447317099 0.0010327813077 0.0010212126105 0.0010094634681 0.00099782106249 0.00098642179773 0.00097534563189 
0.0009644040083 0.00095372502156 0.0009433965243 0.00093327742352 0.00092344339355 0.00091368540446 0.00090441918062 0.00089537558799 0.00088661673046 
0.00087807270318 0.00086972386618 0.0011608561066 0.0011480778892 0.0011354469982 0.0011229165596 0.0011104610789 0.0010979170306 0.0010855309 
0.0010731685672 0.0010608826787 0.0010486273388 0.0010367506763 0.001024706252 0.0010128226917 0.0010010760849 0.00098971484491 0.00097848968872 
0.00096752995799 0.00095692438327 0.00094653680389 0.00093644435399 0.00092665366765 0.00091695169083 0.00090774600468 0.00089877122647 0.00089009258601 
0.00088164094305 0.0011805997457 0.0011676236956 0.0011547703055 0.0011419937376 0.0011292682616 0.0011164367084 0.0011037521919 0.0010910918599 
0.0010784584993 0.0010659602707 0.0010535114896 0.0010414839545 0.0010293324085 0.0010173239828 0.0010056078675 0.00099422991194 0.00098301734804 
0.00097215715249 0.00096151575244 0.00095117354671 0.00094113266196 0.00093119362693 0.00092176127349 0.00091261785612 0.00090370465437 0.00089510183934 
0.0012016271805 0.0011883868433 0.0011752543913 0.0011621864416 0.0011491563984 0.0011361470479 0.0011230250745 0.0011100643791 0.0010971577807 
0.0010843704273 0.0010716645133 0.0010593932848 0.0010470125841 0.0010348411952 0.0010228495604 0.0010112608251 0.00099983033083 0.00098867813874 
0.00097788034432 0.00096730637701 0.00095702724483 0.00094705197026 0.00093717879468 0.00092780280905 0.00091871294067 0.00090984832161 0.0012233884404 
0.0012098108282 0.0011963393199 0.0011829312764 0.0011695566503 0.0011562127743 0.0011427747588 0.0011295185461 0.0011163384185 0.0011033020795 
0.0010903711544 0.0010776143895 0.0010653280309 0.0010529810862 0.0010408813197 0.0010289622686 0.0010174710717 0.0010061421926 0.00099515430962 
0.00098437811016 0.00097388254585 0.00096367921493 0.00095356904417 0.00094394937368 0.00093461381643 0.00092555513216 0.0012451271381 0.0012311401763 
0.0012172755346 0.0012034788519 0.001189733381 0.001176041697 0.0011622831924 0.0011487375116 0.0011353031672 0.0011219973603 0.0011089238514 
0.0010960041929 0.0010835780468 0.0010711103189 0.0010589008377 0.0010468713874 0.0010351651773 0.001023817522 0.0010126882358 0.0010017511431 
0.00099107458236 0.00098066696945 0.00097033320349 0.00096046996442 0.00095087805709 0.00094155201608 0.0012659394521 0.0012514804702 0.001237156509 
0.0012229438668 0.0012088028438 0.0011947544964 0.0011808059706 0.0011668575537 0.0011531924847 0.0011396947839 0.0011264773338 0.0011134451781 
0.001100663365 0.0010884064335 0.0010761493191 0.0010641375307 0.0010523131793 0.0010409050699 0.0010296247745 0.0010186416888 0.0010078293413 
0.00099724907712 0.00098690944724 0.00097662599473 0.00096678165419 0.00095717461046 0.0012847735305 0.00126982904 0.0012550109181 0.0012403392557 
0.0012257956466 0.0012113906819 0.0011971340344 0.0011829308216 0.0011690639871 0.0011554157235 0.0011420967644 0.0011290066781 0.0011162032423 
0.001103949449 0.0010917135131 0.001079729157 0.0010679890773 0.0010564103255 0.0010452193005 0.0010341792398 0.00102327402 0.0010125630834 
0.0010020571872 0.0009915701968 0.00098149052973 0.00097161772554 0.0013006570171 0.0012851468969 0.0012698655289 0.0012547284395 0.0012397778449 
0.0012250145448 0.0012104755584 0.001196042879 0.0011820079478 0.0011682524894 0.0011548353824 0.0011417919384 0.0011290313835 0.0011165910115 
0.0011047115378 0.0010928282507 0.0010811822837 0.0010696756756 0.001058531155 0.0010474962609 0.0010365539866 0.0010257607228 0.0010151270075 
0.0010046547935 0.00099417626344 0.00098405805328 0.0013127278573 0.0012966866242 0.0012808798271 0.0012653329051 0.0012499901589 0.0012348883643 
0.0012200753931 0.0012055699253 0.0011912876921 0.0011774686199 0.0011640504399 0.0011510660947 0.0011384141721 0.0011261217707 0.0011144102813 
0.0011027057499 0.0010912305495 0.0010799383637 0.0010687233348 0.0010578116663 0.0010469468183 0.0010361219021 0.0010254042738 0.0010147981129 
0.0010041399443 0.0009937985168 0.0012101004476 0.0011965995815 0.0011834291989 0.0011707224469 0.0011583761667 0.001146433041 0.0011348584075 
0.0011237108949 0.001112910702 0.001102418507 0.0010922904626 0.0010820080768 0.0010721606477 0.0010624373632 0.0010527890785 0.0010431886323 
0.0010335949631 0.0010239896668 0.0010143596355 0.0010046983591 0.0009950060025 0.00098528874817 0.00097555933262 0.00096586079552 0.00095615747732 
0.00094649921909 0.0012141614378 0.001200491453 0.0011872938209 0.0011745134221 0.001162103209 0.0011501208729 0.0011385283641 0.0011272881046 
0.0011164441953 0.0011059043538 0.0010956197624 0.0010856389676 0.001075454774 0.0010656497239 0.0010559140403 0.0010462144784 0.0010365236089 
0.0010268278028 0.0010171036162 0.0010073523454 0.00099757286937 0.00098777360602 0.00097796718524 0.00096816951018 0.00095842717131 0.00094870694601 
0.0012155860477 0.0012021893187 0.0011889263748 0.0011760222241 0.001163627119 0.0011516069911 0.0011399814279 0.0011287588342 0.0011178353832 
0.0011072612784 0.0010969360892 0.001086907299 0.0010766710537 0.0010668002243 0.0010569967167 0.0010472261316 0.0010374628907 0.0010276892853 
0.0010178999793 0.0010080801527 0.00099823705051 0.00098837957942 0.00097851804587 0.00096866973383 0.00095885364292 0.00094911850655 0.0012156101033 
0.0012021812378 0.0011888448472 0.0011759108178 0.0011634091086 0.0011514196897 0.0011397725231 0.0011285229594 0.0011176174592 0.0011069609866 
0.0010965970831 0.0010865231949 0.0010764904603 0.0010663186487 0.0010564528182 0.0010466310381 0.0010368137784 0.0010269884138 0.0010171448172 
0.0010072848665 0.00099740015791 0.00098750314945 0.00097760797414 0.00096772945694 0.00095788831921 0.00094810364589 0.0012145568887 0.0012007317333 
0.001187681927 0.0011747467009 0.0011622257134 0.0011501434218 0.0011385208826 0.0011272360689 0.0011162903481 0.0011056355475 0.0010951719812 
0.0010849462471 0.0010749572056 0.0010649817322 0.0010548203523 0.0010449430574 0.00103508324 0.0010252195214 0.001015343807 0.0010054511463 
0.00099554920044 0.00098563491368 0.00097572544299 0.00096583651275 0.00095598679411 0.00094619798889 0.0012131014002 0.0011992593951 0.0011858317209 
0.0011732449328 0.0011606620828 0.0011485419758 0.0011368883586 0.0011255495139 0.0011145317211 0.0011038070393 0.0010933165479 0.0010830160775 
0.0010729041749 0.0010628612109 0.0010526394001 0.0010427118149 0.0010328106888 0.0010229165925 0.0010130179808 0.0010031104921 0.00099319604975 
0.00098328010377 0.00097337822017 0.00096349616808 0.00095365674962 0.00094388095911 0.0012120437385 0.0011980335282 0.0011845795288 0.0011719174818 
0.0011593508839 0.0011471791515 0.0011354026021 0.0011240459891 0.0011129469415 0.0011021204191 0.0010915139702 0.0010811064263 0.0010708477109 
0.001060758309 0.0010507042596 0.0010404688946 0.0010305155343 0.0010205905399 0.001010668122 0.0010007520222 0.00099083905801 0.00098093279293 
0.00097104279427 0.00096118613659 0.00095137160478 0.00094162287005 0.0012116526294 0.0011976214594 0.0011841404144 0.0011710843542 0.0011588439546 
0.0011465804701 0.0011347150938 0.0011231787179 0.0011120311338 0.0011010691745 0.0010903288779 0.0010797694399 0.0010693737554 0.0010592016599 
0.0010489990384 0.0010386761856 0.0010286565549 0.001018681771 0.0010087390809 0.00099881010943 0.00098890094491 0.00097901023954 0.00096914485838 
0.00095931574752 0.00094954147623 0.00093983213613 0.0012124913721 0.0011985720759 0.0011849275929 0.0011718235393 0.0011591219673 0.0011471865451 
0.0011351721358 0.0011235121622 0.0011122103465 0.0011010754257 0.001090155325 0.0010794250016 0.0010688554511 0.0010584233607 0.0010482192317 
0.0010379721134 0.0010276185643 0.0010175778438 0.0010075894467 0.00099764711484 0.00098773431173 0.00097785842623 0.00096802033934 0.00095822792352 
0.00094849289416 0.00093883592321 0.0012148754142 0.0012009360332 0.0011872530053 0.0011740900541 0.001161305772 0.0011492615161 0.0011371456438 
0.0011252692492 0.0011137019679 0.0011024558153 0.0010913223902 0.0010803752493 0.0010695956876 0.0010589765598 0.0010485957032 0.0010382365205 
0.001027714036 0.0010175763054 0.001007523095 0.00099754382062 0.00098761968217 0.0009777480843 0.0009679336806 0.00095817780241 0.00094848876595 
0.00093888078007 0.0012190297514 0.0012050602956 0.0011913303157 0.0011780978354 0.0011652141024 0.0011527090337 0.0011407625622 0.0011287313764 
0.0011169110922 0.0011053394972 0.0010940451995 0.0010828633752 0.001071841319 0.001060992417 0.0010503998007 0.0010398637035 0.001029459879 
0.0010189108866 0.001008764809 0.00099871924825 0.00098876580977 0.00097888838245 0.0009690847819 0.00095935828524 0.0009497126187 0.00094015567122 
0.0012250865499 0.0012110832125 0.001197426079 0.0011839761241 0.0011709750752 0.0011582641335 0.0011458684566 0.0011339496463 0.0011218908313 
0.001110062975 0.0010985025086 0.0010870331264 0.0010757461639 0.0010646511127 0.0010537310374 0.001043061577 0.0010324763984 0.0010218166802 
0.0010114869279 0.0010013494894 0.00099133713576 0.00098142888412 0.00097162248898 0.00096191069779 0.00095229792524 0.00094278595334 0.0012331180739 
0.0012190694152 0.0012053418361 0.0011917884764 0.0011786528317 0.0011657732527 0.001153175956 0.0011410417044 0.0011287558069 0.0011166095413 
0.0011046808743 0.0010930104708 0.0010814361465 0.0010700476661 0.0010588624375 0.0010479580677 0.0010371531056 0.0010265363526 0.0010158724342 
0.0010055531012 0.00099544626192 0.00098548491316 0.00097564835209 0.00096593505621 0.00095633664846 0.0009468569114 0.0012431462625 0.0012290399047 
0.0012152203232 0.0012016790262 0.001188257454 0.0011751906845 0.0011623205646 0.0011496785982 0.0011374399186 0.0011250551176 0.001112782836 
0.0011007244322 0.0010889414348 0.0010772616438 0.0010657950012 0.0010546131317 0.0010435615413 0.0010327382524 0.0010221110948 0.0010114189662 
0.001001189129 0.00099112646112 0.00098123635993 0.00097149093699 0.00096188839836 0.00095241993752 0.0012551439029 0.0012409549555 0.0012270248746 
0.0012133431263 0.001199748555 0.0011864760023 0.0011733722576 0.0011604710813 0.0011479513082 0.0011352778039 0.0011227534519 0.0011103408253 
0.0010982571314 0.0010862785711 0.0010745225348 0.0010629826511 0.0010517534011 0.0010406811811 0.0010298488887 0.0010190216461 0.0010085885035 
0.00099841052169 0.00098842241873 0.00097861584839 0.00096897710878 0.00095949673041 0.0012690342153 0.001254735697 0.0012406712034 0.0012268243053 
0.0012130343706 0.0011995396749 0.0011861870788 0.0011730163635 0.0011599056396 0.0011472459293 0.0011344218987 0.0011217055655 0.0011092286858 
0.0010970498792 0.0010850042375 0.0010731848174 0.0010616879942 0.001050365232 0.0010392965881 0.0010284776089 0.0010177043757 0.0010073213229 
0.000997212238 0.00098731470632 0.00097759830194 0.00096807179019 0.0012846903938 0.0012702497476 0.0012560239542 0.0012419793292 0.0012281019126 
0.0012142351059 0.0012006205051 0.0011871212957 0.0011737768195 0.0011605249909 0.0011477067568 0.0011347491132 0.0011219274228 0.0011093673119 
0.001097138984 0.0010850454829 0.0010732078135 0.0010617077599 0.0010504003792 0.0010393588286 0.0010283736655 0.0010178621769 0.0010075590392 