# vtk DataFile Version 5.1
vtk output
ASCII
DATASET STRUCTURED_POINTS
DIMENSIONS 26 26 26
SPACING 0.08 0.08 0.08
ORIGIN -1 -1 0.5
POINT_DATA 17576
FIELD FieldData 1
potential 1 17576 double
0.0017806842476 0.0018079113521 0.0018349496864 0.0018617904533 0.0018880931569 0.0019140609517 0.0019397133182 0.0019650902232 0.0019904316512 
0.0020158371151 0.0020415803647 0.0020680408116 0.0020953226251 0.0021238950126 0.0021537941875 0.0021853826478 0.002218829636 0.0022542326872 
0.0022918262944 0.0023315794782 0.0023734810242 0.0024175265081 0.0024633749627 0.0025112987355 0.0025608449357 0.0026119170199 0.0017605976829 
0.0017873043775 0.0018137830593 0.0018399020539 0.0018657275882 0.0018909607768 0.001915870894 0.0019404813895 0.0019651923774 0.0019899419622 
0.0020151102987 0.0020409919756 0.0020679556845 0.002096198829 0.0021258384081 0.0021572051898 0.0021904332079 0.002225592376 0.0022628952847 
0.0023023000454 0.0023437843716 0.0023872743803 0.0024326317414 0.0024798400426 0.0025286900619 0.0025791010916 0.0017331876764 0.0017593008203 
0.0017850876878 0.0018105192839 0.0018356160262 0.0018600744207 0.0018841825492 0.0019080204688 0.00193174183 0.0019558444402 0.0019802833785 
0.0020054996303 0.0020317771108 0.0020594713965 0.0020887289837 0.0021196295207 0.0021523808015 0.0021870581856 0.0022238435626 0.0022626834113 
0.0023035485455 0.0023463618331 0.0023910486515 0.0024373336563 0.0024853914998 0.0025347933268 0.0017001246834 0.0017256289417 0.0017506643188 
0.0017753548459 0.0017995485563 0.0018233758981 0.0018466000333 0.0018696009745 0.0018925387326 0.001915655057 0.0019394474453 0.0019639143399 
0.0019894738953 0.0020163829651 0.0020449678302 0.0020752856863 0.0021073726774 0.0021414221594 0.0021774070368 0.0022154782082 0.0022555167156 
0.0022974689612 0.0023412455114 0.0023865729856 0.0024335616773 0.0024819619714 0.0016635441267 0.0016883457611 0.0017126930713 0.0017365713518 
0.0017599781376 0.0017830093878 0.0018054942056 0.0018276522712 0.0018498423788 0.0018722531664 0.0018951789942 0.001918939695 0.0019438264698 
0.0019699749432 0.0019976790612 0.0020272802724 0.0020585250943 0.0020916978315 0.0021267722977 0.0021638931066 0.0022029536281 0.0022438744833 
0.0022865769322 0.0023309133206 0.0023766121652 0.0024237547703 0.0016255003884 0.0016495718636 0.0016732257911 0.0016963301596 0.001718928582 
0.0017410861043 0.0017629884211 0.0017845418471 0.0018060430085 0.0018278551715 0.0018501866494 0.0018733664507 0.0018974694897 0.0019229520521 
0.0019498532176 0.0019783737365 0.0020088808484 0.0020410541774 0.0020751483863 0.0021110960763 0.0021490132855 0.0021887508622 0.0022302328477 
0.0022733225578 0.0023177306264 0.002363547686 0.0015877609522 0.0016110835905 0.001633984471 0.0016563464986 0.0016782775941 0.0016997214911 
0.0017210211096 0.0017420528791 0.0017630971491 0.0017844952596 0.0018064170821 0.0018290796617 0.0018527661849 0.0018775086056 0.0019037334017 
0.0019313958932 0.0019608575505 0.0019920498512 0.002025004054 0.0020597470544 0.0020964022989 0.0021348319371 0.0021749662703 0.0022166740792 
0.0022598059975 0.0023040426808 0.0015516753661 0.0015742469691 0.0015964107656 0.0016180634873 0.0016393370001 0.0016602499819 0.0016809403137 
0.001701676435 0.0017225069146 0.0017436087356 0.0017653166542 0.0017877290785 0.0018110087973 0.0018354004501 0.001860914225 0.001887810027 
0.0019163155325 0.0019464894217 0.0019783496245 0.0020119023607 0.0020471454738 0.0020841780542 0.0021228652709 0.0021630883406 0.0022047029679 
0.0022475384141 0.0015184448433 0.0015400459304 0.0015614906123 0.0015825322738 0.0016031576434 0.0016235831845 0.0016439064216 0.0016644471236 
0.0016850985927 0.0017062126766 0.0017278142242 0.0017501674155 0.0017733099286 0.0017974382185 0.0018225627174 0.0018488547481 0.0018764654419 
0.0019056230754 0.001936466446 0.001968760282 0.0020026372731 0.0020382176892 0.0020753910475 0.0021140509954 0.0021540664712 0.0021952777499 
0.0014882819488 0.001509148611 0.0015298996907 0.0015503205415 0.0015704200953 0.0015904434562 0.0016105021127 0.0016307842789 0.0016516014556 
0.001672745209 0.0016945369798 0.0017169162147 0.0017401013234 0.001764089184 0.0017890629506 0.0018149432347 0.0018419506048 0.0018702047625 
0.0018998389185 0.0019311881688 0.0019638038306 0.0019978583627 0.0020334922306 0.0020705470969 0.0021089111639 0.0021484346206 0.0014618636096 
0.0014822208149 0.0015020996554 0.0015219460876 0.0015415789136 0.0015612779379 0.0015811594148 0.0016014063781 0.0016223062998 0.0016436654641 
0.0016656798505 0.00168824039 0.0017116125765 0.0017356978123 0.001760539053 0.0017863110972 0.0018129047145 0.0018405556706 0.0018693066085 
0.0018993418089 0.0019309559504 0.0019636142917 0.0019977318872 0.0020331802159 0.0020698725992 0.0021076801543 0.0014394872048 0.0014591412364 
0.0014784367817 0.0014977151837 0.0015170082907 0.0015363901126 0.0015561673488 0.0015764481307 0.0015973621893 0.001619093512 0.0016413945423 
0.001664391027 0.0016879266933 0.001712239029 0.0017372042947 0.0017628748458 0.0017893391376 0.0018165688054 0.0018446982369 0.001873824651 
0.0019040972052 0.0019357287464 0.0019683956005 0.0020022839403 0.0020373262824 0.0020734219452 0.0014213324725 0.0014403347805 0.0014592104466 
0.0014778862562 0.0014968029509 0.0015159906863 0.0015357233489 0.0015560898865 0.0015771965992 0.0015990620124 0.0016218282817 0.0016451727846 
0.0016691888405 0.0016936839837 0.0017188877241 0.0017446871575 0.0017711263093 0.0017981215952 0.0018258392332 0.0018543303621 0.0018837076779 
0.0019140195918 0.0019455040976 0.0019779934039 0.00201145625 0.0020458854299 0.0014075826001 0.0014259382067 0.0014442883094 0.0014627132223 
0.0014812129825 0.0015002354241 0.0015199711381 0.0015404612942 0.0015617852056 0.0015839394712 0.0016070425547 0.0016307516818 0.0016551381396 
0.0016801178069 0.001705540026 0.0017315296338 0.0017580067759 0.0017850457166 0.0018125438263 0.0018406000913 0.0018693105995 0.0018987530404 
0.0019289919848 0.0019602284679 0.0019922379151 0.0020251568168 0.0013983503734 0.0014160840247 0.0014339291437 0.0014519960328 0.0014702954835 
0.0014893272849 0.0015090184468 0.001529654783 0.0015512061486 0.0015736468443 0.0015969350932 0.0016211394409 0.0016458865533 0.0016712289897 
0.0016970799438 0.0017233066861 0.0017499528685 0.0017770105338 0.00180454293 0.0018323741347 0.001860655947 0.0018894445486 0.0019188328043 
0.0019488398622 0.0019796974769 0.0020111389952 0.0013936416974 0.0014106975112 0.0014282406987 0.0014460157374 0.0014643136963 0.0014831412801 
0.0015029503287 0.0015237308423 0.0015455086297 0.0015682200151 0.001591810166 0.0016163368076 0.0016414180431 0.0016670926504 0.0016932723484 
0.0017198993338 0.0017467465943 0.0017739895205 0.0018014627074 0.0018293449706 0.0018574074084 0.0018857849053 0.0019145484995 0.0019437531771 
0.0019734090537 0.002003764925 0.0013933712933 0.0014101606867 0.0014270988633 0.0014447631711 0.0014629684825 0.0014819859901 0.0015017774061 
0.0015226992137 0.0015446791121 0.0015676352091 0.0015914880259 0.0016161463434 0.0016416576864 0.0016676230897 0.001694090746 0.0017209726103 
0.0017481120462 0.0017755771801 0.0018032521517 0.0018311667531 0.0018591814006 0.0018873580428 0.001915744045 0.0019443759949 0.0019732268977 
0.0020025295992 0.0013974637645 0.0014139152964 0.0014307916373 0.0014480636537 0.0014663394574 0.0014854217801 0.0015053458965 0.0015264207517 
0.0015486075086 0.0015717821852 0.0015958515426 0.0016207284247 0.0016463136512 0.0016726521381 0.0016993498452 0.00172646117 0.0017539344912 
0.0017815176403 0.0018093832486 0.0018373968059 0.0018655654432 0.0018936734039 0.0019218980017 0.0019502108455 0.0019786486463 0.0020071755649 
0.0014056257153 0.001421873257 0.0014386275732 0.0014558696971 0.0014741039972 0.0014933991041 0.001513632872 0.0015347047085 0.001557062361 
0.0015803886472 0.0016046105038 0.0016296522846 0.0016553824365 0.0016818652645 0.00170871351 0.0017359839158 0.0017636249448 0.0017914918679 
0.0018194307038 0.0018475903719 0.0018758306533 0.0019041482645 0.0019323786882 0.001960555875 0.0019887628333 0.0020169927851 0.0014173485065 
0.0014335315799 0.0014502900898 0.0014677653306 0.0014859631219 0.0015053216151 0.0015258295883 0.0015472873308 0.0015695400402 0.0015929725759 
0.0016172808522 0.0016423774817 0.0016681608462 0.0016945597478 0.0017216108409 0.0017489500881 0.00177667517 0.0018046450331 0.0018328225105 
0.0018610224645 0.0018894160739 0.0019177935663 0.0019462318603 0.0019745120769 0.0020026740297 0.0020307949225 0.0014318043036 0.0014480788077 
0.0014649740295 0.0014826287946 0.0015011807273 0.0015205647999 0.0015411418259 0.0015628484183 0.0015851961251 0.001608670342 0.0016329881995 
0.0016580542392 0.001683800635 0.0017101229214 0.0017371274722 0.0017644181698 0.0017921225062 0.0018201036682 0.0018483295219 0.0018767326366 
0.0019051271094 0.0019336843597 0.0019622107432 0.001990757779 0.0020191105395 0.0020473407916 0.0014477918783 0.0014643162223 0.0014814351589 
0.0014993575578 0.0015181636083 0.0015379359516 0.0015585105155 0.0015802217893 0.001602882041 0.0016261742619 0.0016504127761 0.0016753420151 
0.0017009141171 0.0017270722639 0.0017537293245 0.001780998517 0.0018085372188 0.0018364487623 0.0018646199799 0.0018930260139 0.0019215982292 
0.001950176749 0.0019788878642 0.0020075730728 0.0020362738863 0.0020647749904 0.0014638091212 0.0014804998799 0.0014979875914 0.0015162520455 
0.0015353564149 0.0015553488215 0.0015760778225 0.0015978436366 0.0016204521095 0.0016438426612 0.0016677300053 0.0016924310107 0.0017177155919 
0.001743529902 0.0017698834924 0.0017966816815 0.001824072542 0.0018517464677 0.0018797563919 0.0019080607526 0.0019366182736 0.0019653536084 
0.0019941191993 0.0020230341997 0.0020520363825 0.0020809004834 0.0014775042389 0.0014949190014 0.0015125889418 0.0015312343396 0.0015506429989 
0.001570847604 0.0015918586067 0.0016134584361 0.0016359680464 0.0016590651081 0.0016826695268 0.0017071022912 0.0017319657433 0.0017573289611 
0.001783176798 0.001809520701 0.0018364689333 0.0018637560553 0.0018914364222 0.0019195124114 0.0019479524401 0.0019766605163 0.0020056231414 
0.0020346072315 0.0020638091671 0.0020931504631 0.001487066186 0.0015049842386 0.0015231428355 0.0015421339293 0.0015618259368 0.0015822041159 
0.0016032701392 0.0016249789948 0.0016471288919 0.0016700009287 0.0016933094234 0.0017169845853 0.0017413719144 0.0017661169638 0.0017913213801 
0.0018170026275 0.001843211089 0.0018701050019 0.001897317972 0.0019250250688 0.0019531928843 0.0019817662167 0.0020107068789 0.0020399406688 
0.0020692556838 0.0020988599888 0.0014906415795 0.0015091395985 0.0015279482964 0.0015470526999 0.0015669757215 0.0015874695067 0.0016085135675 
0.0016300758036 0.0016521297425 0.0016744220961 0.0016972118587 0.001720437329 0.00174384614 0.0017678994818 0.0017922888326 0.0018171548023 
0.0018425534891 0.0018686136097 0.0018953483427 0.0019225398411 0.0019503137349 0.0019786233123 0.0020074243853 0.0020366662323 0.0020662621629 
0.0020960234969 0.0019611822857 0.0019907588119 0.0020203276352 0.002049906384 0.0020791787654 0.0021083648491 0.0021374907178 0.0021665883999 
0.0021958737386 0.0022254087828 0.0022554214834 0.0022861601263 0.002317927978 0.0023509008698 0.0023851533813 0.0024210086194 0.0024586057623 
0.0024980221471 0.0025394856228 0.0025829707077 0.0026284814338 0.0026760358163 0.0027253209509 0.0027766373869 0.0028295659359 0.0028840438205 
0.001941962931 0.0019710903595 0.0020000787667 0.0020289820659 0.0020578402632 0.0020863729289 0.002114853259 0.0021432904173 0.0021719898048 
0.0022010188571 0.0022305190344 0.0022607867584 0.0022921383748 0.0023247233908 0.00235863492 0.0023941625291 0.0024314250665 0.0024704822278 
0.0025115461627 0.0025545837929 0.00259958906 0.0026465099744 0.0026952345129 0.0027457746412 0.0027979515454 0.002851717624 0.0019172342043 
0.0019457488269 0.0019741422829 0.0020024233454 0.0020306350252 0.0020585507797 0.0020862929662 0.0021140892092 0.0021419936933 0.0021704422991 
0.0021993212336 0.0022290051608 0.0022597216323 0.0022917816316 0.0023252998208 0.0023603334627 0.0023970784091 0.0024356064982 0.0024761043064 
0.0025185303073 0.0025628731012 0.0026090778778 0.0026570954991 0.0027066803916 0.0027580354079 0.0028107654532 0.0018880818058 0.0019160298038 
0.001943731361 0.0019713422657 0.001998741103 0.0020260763451 0.0020531107824 0.0020801984722 0.0021074494683 0.0021350382298 0.0021633867692 
0.0021924250051 0.0022225109294 0.0022538563437 0.0022867539441 0.0023212415939 0.002357345773 0.0023952599152 0.0024349649689 0.0024766257721 
0.0025201429967 0.0025654852125 0.0026125903134 0.0026612141353 0.0027114962582 0.0027632209686 0.001855988203 0.0018832847301 0.0019103596047 
0.0019372333955 0.0019639323473 0.0019905673668 0.0020169618643 0.0020433045686 0.0020699004706 0.002096869052 0.0021244393238 0.0021528582823 
0.0021823602496 0.0022130334827 0.0022451368629 0.002278969413 0.0023143231471 0.0023514257317 0.0023902773869 0.0024310370567 0.0024736182134 
0.0025179654413 0.0025640269646 0.0026116846719 0.0026606997698 0.002711186179 0.001822431566 0.0018490528884 0.0018754982385 0.0019016698666 
0.0019276365445 0.0019534720929 0.0019793485354 0.0020051357713 0.0020310765682 0.0020574726988 0.0020844720477 0.002112346858 0.0021411201536 
0.0021712017504 0.0022025916639 0.0022354625233 0.0022701633835 0.0023063688505 0.0023443370143 0.0023840128975 0.0024255311883 0.0024687665256 
0.0025136702937 0.0025601361566 0.0026080457991 0.0026571123263 0.0017887690461 0.0018146994072 0.0018404548202 0.0018659489798 0.0018913091714 
0.0019164785463 0.0019417769709 0.0019670387082 0.0019924921079 0.002018427993 0.0020449689885 0.0020722944083 0.0021006471312 0.002130018983 
0.0021607968804 0.0021929021581 0.0022265616114 0.0022620156259 0.0022989681686 0.0023375587265 0.0023779300137 0.0024199612922 0.0024636109406 
0.0025087783135 0.002555347971 0.0026030386208 0.001756118003 0.0017813566037 0.0018064359252 0.0018312779511 0.0018560248005 0.0018806840192 
0.001905360392 0.0019302748028 0.001955427258 0.0019809559364 0.0020071669655 0.0020341384503 0.0020620105855 0.0020909994067 0.0021210808013 
0.0021524777924 0.0021853839941 0.0022198325753 0.0022558268843 0.0022933697384 0.0023324665966 0.0023732324461 0.002415556913 0.0024593504887 
0.0025045029817 0.0025508806453 0.0017255814621 0.0017499118792 0.0017743307814 0.0017986106448 0.0018227383557 0.0018469073958 0.0018711738459 
0.0018958026932 0.0019206467814 0.00194602947 0.0019719641006 0.0019987125117 0.0020263073197 0.0020549322688 0.0020845740554 0.0021153724307 
0.0021474170666 0.0021809667715 0.0022160037055 0.0022525014839 0.0022903855215 0.0023298521134 0.0023708087405 0.0024131754492 0.0024568539172 
0.0025017200776 0.0016973602064 0.0017210194733 0.0017448029542 0.001768501673 0.0017921188815 0.001815863399 0.0018397959265 0.0018640522845 
0.0018889054172 0.0019141305167 0.0019400510303 0.0019666189743 0.001994064214 0.002022387058 0.0020517610135 0.0020820841636 0.0021135429871 
0.0021462202841 0.0021802139646 0.0022158307417 0.0022526064317 0.0022907098052 0.0023302901143 0.0023712092815 0.0024133838183 0.0024567023163 
0.001672153369 0.0016953680827 0.0017183321147 0.0017414925833 0.0017646463382 0.0017880282344 0.001811698033 0.001835787406 0.0018604166633 
0.0018857907975 0.0019117127992 0.0019383140213 0.0019656371496 0.0019938526302 0.0020229198671 0.0020530066702 0.0020839808936 0.0021160441918 
0.0021492023405 0.0021836022317 0.0022195098954 0.0022563747218 0.0022946078419 0.0023340910929 0.0023747609314 0.0024165209074 0.0016502896601 
0.0016728676721 0.0016954664078 0.001717920088 0.0017407264164 0.0017637397497 0.0017872075027 0.0018111893472 0.0018357915621 0.0018611981405 
0.0018871827044 0.0019139018387 0.0019412319316 0.0019694386154 0.0019984150428 0.0020282186606 0.0020589281103 0.0020904917697 0.0021230109304 
0.0021565724742 0.0021912052418 0.00222717934 0.0022641185771 0.0023022156972 0.0023414122031 0.0023816336375 0.0016319701398 0.0016539685665 
0.0016760247695 0.001698062566 0.0017204743363 0.0017432313276 0.0017665480254 0.0017904707525 0.0018150893758 0.0018404305838 0.0018666624569 
0.0018934981147 0.0019210681347 0.001949257202 0.0019781929049 0.0020079083387 0.0020384045578 0.002069592424 0.0021016138966 0.0021344879689 
0.0021682896361 0.0022030310637 0.0022389224994 0.0022757802011 0.0023135726647 0.0023523083446 0.0016173825584 0.0016387957866 0.0016603759941 
0.0016821740819 0.001704140925 0.0017266603589 0.0017498675779 0.0017737682967 0.0017984330503 0.0018238727783 0.0018502356132 0.0018772167158 
0.0019049231707 0.0019333185891 0.0019622740965 0.0019919420502 0.0020222576748 0.002053298706 0.0020849528946 0.0021172990391 0.0021504012486 
0.0021843023042 0.0022190315234 0.0022547632993 0.0022912599702 0.0023286604948 0.0016066555369 0.001627478166 0.0016485901253 0.0016700326038 
0.0016917648365 0.0017142077827 0.0017372537237 0.0017611564845 0.0017858847633 0.0018114322858 0.0018377894821 0.0018650629882 0.0018929193006 
0.001921448847 0.0019505988151 0.0019802660649 0.0020105162112 0.0020413553167 0.0020728501677 0.002104817338 0.002137389082 0.0021705946559 
0.0022044921435 0.0022390694601 0.0022745339536 0.0023106098895 0.0015996613522 0.0016198955424 0.0016407327963 0.0016618730978 0.0016835472016 
0.0017057020398 0.0017287461903 0.0017526516932 0.0017774507695 0.0018031030937 0.0018295873743 0.0018569989608 0.0018849945942 0.001913649912 
0.0019429106827 0.0019727501239 0.002002967946 0.0020337599443 0.0020649746705 0.002096795196 0.0021289877383 0.0021616693453 0.0021948903772 
0.0022286721695 0.0022629983548 0.0022980970827 0.0015963580433 0.0016163704462 0.0016366302989 0.0016576200845 0.0016791371873 0.0017013839041 
0.0017242882336 0.0017481957643 0.0017730515683 0.0017987957391 0.0018253842928 0.0018527625577 0.0018810142204 0.0019097756117 0.0019391272809 
0.0019690118555 0.0019994003819 0.0020300860403 0.0020612723038 0.002092819212 0.0021248459481 0.0021571592967 0.0021898794843 0.0022230214742 
0.0022565341187 0.0022906270946 0.001596574648 0.0016162755534 0.0016364522456 0.0016570205305 0.0016785288722 0.0017007335851 0.0017236457676 
0.0017475741392 0.0017724973812 0.001798320057 0.0018249830142 0.001852433729 0.0018806067971 0.001909579247 0.0019389873767 0.0019689143857 
0.0019993358784 0.0020300247897 0.002061176827 0.0020926579102 0.0021245510138 0.0021565883175 0.0021889682003 0.0022216546387 0.0022546692859 
0.0022879573629 0.0015999643059 0.0016194601639 0.0016394820653 0.001659953627 0.0016813247366 0.0017036321147 0.0017267208473 0.001750516214 
0.001775480828 0.0018013284898 0.0018280178501 0.0018555056206 0.0018836929353 0.0019126712771 0.0019420810356 0.0019720053036 0.0020024174303 
0.0020331972423 0.0020642148165 0.0020956412713 0.0021273569173 0.0021593759738 0.0021915455908 0.0022239046734 0.0022565335708 0.0022894162747 
0.0016060035462 0.0016253967325 0.0016453569645 0.0016659739182 0.0016871883817 0.0017094267996 0.0017326669113 0.0017567221054 0.0017814623091 
0.0018073018774 0.0018339679669 0.001861402872 0.0018895330151 0.0019183126186 0.001947801967 0.0019776599481 0.0020080062563 0.002038721852 
0.0020697928092 0.0021010564436 0.0021327061903 0.0021645547553 0.0021966979346 0.0022289321125 0.0022613063154 0.0022938980267 0.0016139336421 
0.0016333338284 0.0016533262327 0.0016739940346 0.0016954343813 0.0017175639775 0.0017407417224 0.0017649249438 0.0017896496244 0.0018154302726 
0.0018420128189 0.0018693286674 0.0018973340658 0.0019259467956 0.0019551408497 0.0019849948833 0.0020151995372 0.0020457884259 0.0020767495361 
0.0021080334745 0.0021394876906 0.0021712958496 0.0022032917539 0.0022355485065 0.0022678684089 0.0023003370702 0.001622759559 0.0016422755799 
0.0016623456018 0.00168312847 0.0017046712087 0.0017270443603 0.0017500906868 0.0017741638535 0.001799170836 0.0018246142731 0.001851042093 
0.0018781532148 0.0019059203599 0.0019343044132 0.0019632343042 0.0019928373587 0.0020227855447 0.0020531970688 0.0020839759474 0.0021151151019 
0.0021465679683 0.0021781973879 0.0022101542837 0.0022423043834 0.0022747128285 0.0023071842788 0.0016313610628 0.001650862637 0.0016711190129 
0.0016920665436 0.0017137422646 0.0017361885649 0.0017592622064 0.0017832835348 0.0018080824728 0.0018335278005 0.0018596440973 0.0018864815317 
0.001913922901 0.0019419268958 0.0019705148152 0.0019996009533 0.0020293430659 0.0020594420027 0.0020899633147 0.0021208810204 0.0021521725089 
0.0021837839915 0.0022155916805 0.0022477399981 0.0022800997367 0.0023127455557 0.0016379292594 0.0016579403361 0.0016781726347 0.0016993091122 
0.0017211184759 0.001743630661 0.0017668663509 0.0017906267661 0.0018152545105 0.0018404498406 0.0018661529499 0.0018927014555 0.0019197108717 
0.0019472590673 0.0019753364047 0.0020039575618 0.0020332343322 0.0020629063901 0.0020930361443 0.0021236379286 0.0021546942455 0.00218613424 
0.0022179613424 0.0022499686164 0.0022823765546 0.0023151317959 0.0016412649998 0.0016615535232 0.0016820601564 0.0017033497522 0.0017252760297 
0.001747824498 0.0017710066014 0.0017947949367 0.0018190077474 0.0018439457826 0.0018693416068 0.0018951392321 0.0019216933233 0.0019486532435 
0.0019761198598 0.0020041065594 0.0020326695385 0.0020619355996 0.0020915716377 0.0021217507415 0.0021524528685 0.0021836404921 0.0022152967328 
0.0022473686757 0.0022796704908 0.0023124317498 0.0016400607875 0.0016607116308 0.0016816653563 0.0017028874281 0.0017248928069 0.0017474341845 
0.0017705015384 0.0017940791594 0.0018181590015 0.0018425066245 0.001867397146 0.0018927809069 0.0019184114781 0.0019447479329 0.0019714733921 
0.0019987153885 0.0020265166682 0.0020549961622 0.0020841737901 0.0021138086532 0.0021440652006 0.0021749039551 0.0022063006506 0.0022382262435 
0.0022706056433 0.0023033030891 0.0021480335132 0.002180107944 0.0022123421301 0.0022447733256 0.0022771028544 0.002309561456 0.0023421780935 
0.0023749774613 0.0024081569651 0.0024417509936 0.0024759530386 0.0025109732798 0.0025470754583 0.0025843973683 0.0026229768735 0.0026631048402 
0.0027048950676 0.0027484085875 0.0027938655203 0.0028412432255 0.0028905566088 0.0029418412601 0.0029948078161 0.0030497806868 0.0031063712145 
0.0031645538361 0.0021289779586 0.0021606118831 0.0021922817484 0.0022240610113 0.0022560124932 0.0022878600117 0.0023198823121 0.0023520692491 
0.0023847083054 0.0024178297064 0.0024515337649 0.0024860739513 0.0025217255588 0.0025585844061 0.0025967608919 0.0026364695668 0.0026778270105 
0.00272088192 0.0027658436046 0.0028126841982 0.0028614096203 0.002911985454 0.0029644507928 0.003018456221 0.0030742365767 0.0031316461546 
0.0021057483302 0.0021367894703 0.0021678935989 0.0021990909666 0.0022304425741 0.0022617319215 0.0022930794471 0.0023246963228 0.0023566069148 
0.0023892058874 0.0024223332564 0.002456316737 0.0024913410221 0.0025276800371 0.0025654199631 0.0026045948494 0.0026454003769 0.0026879327653 
0.0027322063125 0.0027783856354 0.0028264018145 0.0028762179522 0.0029278066416 0.0029809483092 0.0030358714468 0.003092212135 0.0020790588177 
0.0021095627636 0.0021400123057 0.0021705861386 0.002201180263 0.0022319522853 0.0022626604798 0.0022936378805 0.0023249620316 0.0023568039195 
0.0023894125552 0.0024227934726 0.002457219448 0.0024928659849 0.0025299961789 0.0025686291811 0.0026087776466 0.0026506310627 0.0026941725765 
0.0027395752938 0.0027867562222 0.0028356954252 0.0028863599766 0.002938660536 0.0029923654508 0.0030476888113 0.0020499648926 0.0020798527785 
0.0021097178861 0.002139603615 0.0021695525275 0.0021996791625 0.0022298061655 0.0022600929112 0.002290799125 0.0023220337257 0.0023539468398 
0.0023867420939 0.0024206193679 0.0024556281772 0.0024919985737 0.002529923893 0.0025694371888 0.0026105069736 0.0026532215592 0.0026977456345 
0.0027440087293 0.0027919727371 0.0028416080793 0.0028928322865 0.0029454041033 0.0029994979769 0.0020195441752 0.0020487961861 0.0020780754742 
0.0021073058646 0.0021365697786 0.002165943138 0.0021955860198 0.002225343175 0.00225542139 0.0022860805345 0.0023174260505 0.002349689098 
0.0023828548928 0.0024172989141 0.0024529908149 0.0024900857279 0.0025289113858 0.0025691375586 0.0026110210956 0.0026545144322 0.0026997635738 
0.0027466609262 0.0027951793884 0.0028452377976 0.0028967463263 0.0029494504344 0.0019888361399 0.0020174383305 0.0020460708306 0.0020746661134 
0.0021033594304 0.0021321394354 0.0021611682677 0.0021903930659 0.0022199607384 0.0022501252958 0.0022809758179 0.0023126588271 0.0023453869032 
0.0023791229098 0.0024142254406 0.0024505926115 0.0024884317531 0.0025279711832 0.0025689105259 0.0026113915078 0.0026555658919 0.0027013281995 
0.0027486570979 0.0027974758623 0.0028476983361 0.0028990756975 0.0019587427298 0.0019866962531 0.0020146932338 0.002042671751 0.0020707776152 
0.0020990057319 0.0021274441789 0.0021562826424 0.0021854886524 0.0022151707685 0.0022456103247 0.0022768640229 0.0023090523872 0.0023423686354 
0.0023767656666 0.0024124426741 0.0024495712557 0.0024881678506 0.0025282256877 0.0025697438991 0.0026127323751 0.002657317132 0.002703405271 
0.0027509301246 0.0027998091015 0.0028499405114 0.0019302421707 0.0019573308922 0.0019847055031 0.0020121489928 0.0020396463665 0.0020673757049 
0.0020953667384 0.0021238538422 0.0021526564734 0.0021820850323 0.0022121296855 0.0022430445844 0.002274853101 0.0023077264414 0.002341634637 
0.002376697038 0.0024129809734 0.0024507242681 0.0024898931365 0.0025304517798 0.0025723230671 0.0026157084767 0.0026605287023 0.0027067234374 
0.0027542202691 0.0028029257013 0.0019034763041 0.0019299885229 0.0019567116959 0.001983595291 0.0020105829646 0.002037862395 0.002065463385 
0.002093490675 0.0021221900089 0.0021513232498 0.0021812060279 0.0022117925675 0.0022433125719 0.0022757644057 0.002309313384 0.0023438432012 
0.0023795208479 0.0024164073038 0.0024545807284 0.0024943310514 0.0025351855332 0.0025773111206 0.0026208636311 0.0026657199582 0.0027118189009 
0.002759078163 0.0018791234125 0.0019051832796 0.0019311703129 0.0019575307912 0.0019840464162 0.0020109248284 0.0020381926306 0.0020659503564 
0.0020942966225 0.0021234271568 0.0021531471955 0.0021835968246 0.0022148291432 0.0022470212121 0.002280133833 0.0023143280923 0.0023494583847 
0.0023857069269 0.0024230589931 0.0024616408755 0.0025017024461 0.00254268522 0.0025849990194 0.0026285342064 0.0026732443904 0.00271905857 
0.0018575069225 0.00188297509 0.001908625767 0.0019342883008 0.0019604389836 0.0019869005733 0.0020138854665 0.0020414240827 0.0020696056343 
0.002098610024 0.0021282191037 0.0021586054992 0.0021896606531 0.0022216711584 0.0022545333268 0.0022883087813 0.00232307 0.0023587315219 
0.0023954378102 0.0024331932343 0.0024720276887 0.0025121953193 0.0025533128537 0.0025955733939 0.0026389289157 0.0026833250012 0.0018388341085 
0.0018637621655 0.0018888955531 0.0019141449091 0.0019398754653 0.0019660239162 0.001992769479 0.0020201320674 0.0020481887605 0.0020769678839 
0.0021066503975 0.0021369697499 0.002168076566 0.0021998825502 0.0022325251009 0.0022660491396 0.0023004576999 0.0023356560612 0.0023717750554 
0.0024088101139 0.0024468219954 0.0024858021277 0.0025259463201 0.0025670673921 0.0026091283549 0.0026521588175 0.0018232814729 0.0018476622962 
0.0018723215995 0.0018973463456 0.0019225990672 0.0019484459211 0.0019749883072 0.00200220961 0.0020301723434 0.0020588929147 0.0020885366106 
0.0021188218011 0.0021498806948 0.0021817013526 0.0022141761731 0.0022474728279 0.0022815360407 0.0023164455123 0.0023520835308 0.0023885168461 
0.0024257955961 0.0024639378906 0.0025029626166 0.0025430238799 0.0025838874484 0.0026256942777 0.0018109661402 0.0018347921642 0.001859017618 
0.0018836515395 0.0019086296806 0.0019343292725 0.0019606130665 0.0019877167745 0.0020156056514 0.0020442833277 0.0020737596432 0.0021041659288 
0.0021351958928 0.0021669613727 0.0021994477646 0.0022325577379 0.0022663761996 0.0023009182406 0.0023362319062 0.0023721919386 0.0024088577428 
0.0024462642224 0.002484454242 0.0025233960623 0.002563290862 0.002603860453 0.0018017387052 0.0018250033684 0.0018489567078 0.0018732704307 
0.001898138933 0.001923471988 0.0019496552111 0.0019766427852 0.0020044699018 0.0020331092422 0.0020625607646 0.0020929453466 0.002123947331 
0.0021556691564 0.0021880778196 0.0022211797032 0.0022547825882 0.0022890993807 0.0023239877648 0.0023596332279 0.0023957996917 0.0024325951991 
0.002470057424 0.0025081935876 0.0025469751172 0.0025866221217 0.0017955307225 0.0018185888793 0.0018419578916 0.00186608795 0.0018907396807 
0.0019160822016 0.0019420212173 0.0019688940634 0.0019966507056 0.0020252475452 0.0020546627927 0.002084867539 0.0021159720496 0.00214763942 
0.0021799749257 0.0022129404868 0.0022465384405 0.0022805687893 0.0023152517948 0.0023504951098 0.0023863063597 0.0024226073488 0.0024594732138 
0.0024969092029 0.0025349314691 0.002573505658 0.0017921485313 0.0018148944014 0.0018381572716 0.0018618187624 0.0018863907843 0.0019116005887 
0.0019374422298 0.0019642208803 0.0019919242359 0.0020204744708 0.0020498356437 0.0020799802912 0.0021108686147 0.0021426024844 0.002174842614 
0.0022076942123 0.0022411536523 0.0022750131083 0.0023094842233 0.0023444467683 0.0023799932878 0.002415862568 0.0024522535725 0.0024891271047 
0.0025264987286 0.0025643048144 0.0017912410993 0.0018137592799 0.0018368246315 0.0018604865696 0.0018846767242 0.0019098909735 0.0019358013951 
0.0019623347664 0.0019899649516 0.0020184252731 0.0020476971664 0.002077761232 0.0021085425603 0.0021401559094 0.0021722638626 0.0022049703263 
0.0022382685 0.0022720535377 0.0023062242493 0.0023409565402 0.0023761483117 0.0024118255462 0.0024478429789 0.0024842432205 0.0025211065485 
0.002558410965 0.0017923202697 0.0018146858558 0.0018376234915 0.0018611855772 0.0018852834272 0.0019103230062 0.0019362751619 0.0019629716309 
0.0019902575054 0.0020186100484 0.0020477511843 0.0020776603422 0.0021082810501 0.0021395882704 0.0021716628827 0.002204179723 0.0022372795471 