# vtk DataFile Version 5.1
vtk output
ASCII
DATASET STRUCTURED_POINTS
DIMENSIONS 26 26 26
SPACING 0.08 0.08 0.08
ORIGIN -1 -1 0.5
POINT_DATA 17576
FIELD FieldData 1
potential 1 17576 double
0.01719876732 0.017552364317 0.017883917389 0.018191781296 0.018475150027 0.018734452856 0.018971723205 0.019190676949 0.019397170787 
0.019599140124 0.01980661048 0.020031126464 0.020284461501 0.020577571652 0.020918925415 0.021313097819 0.021759978687 0.022254845367 
0.022789166363 0.02335179399 0.023930204119 0.024511511119 0.025083193782 0.02563355251 0.026151989121 0.026629140313 0.016620457 
0.016965294106 0.017291273104 0.017596879944 0.017881326249 0.018144902591 0.01838913298 0.01861722858 0.01883406274 0.019046299589 
0.019262209685 0.01949108748 0.019742420921 0.020024661355 0.020344774845 0.020706274491 0.021109319723 0.021550587511 0.022023757798 
0.022520311213 0.023030420131 0.023543721094 0.024049944397 0.024539295949 0.025002787485 0.025432380522 0.016000024349 0.016335411281 
0.016654499107 0.016956289345 0.017239643399 0.017504674367 0.017752509722 0.017985673357 0.018208122324 0.018425499786 0.01864456679 
0.018872972757 0.019118413455 0.019387819787 0.019686505232 0.020017516068 0.020381029963 0.020775101195 0.021194888365 0.021633906299 
0.022084486246 0.022538353701 0.022987138937 0.023422743597 0.023837608312 0.024224907265 0.015346534033 0.015671779857 0.015983260012 
0.016279570612 0.016559815136 0.016823854175 0.017072274944 0.01730715372 0.01753156281 0.017749946974 0.017968019783 0.018191996427 
0.01842824887 0.0186824941 0.018959161888 0.01926090406 0.019588293499 0.019939825157 0.020312094537 0.020700218718 0.021098056663 
0.021499416688 0.02189735441 0.022285226477 0.02265672985 0.023006126517 0.014673764291 0.014988167356 0.015290884019 0.015580487865 
0.01585602505 0.016117125773 0.016364063899 0.016598163311 0.016821802495 0.017038586891 0.017252592051 0.017469512993 0.017694413809 
0.017932111378 0.0181864621 0.01845992604 0.018753336343 0.01906586128 0.01939514069 0.019737561436 0.020088552193 0.020442971189 
0.020795402576 0.021140353686 0.021472832437 0.021787859411 0.01399642932 0.014299366506 0.014592451338 0.014874279128 0.015143786843 
0.015400400757 0.015644165938 0.015875763246 0.016096894015 0.016310157081 0.016519027565 0.016727613502 0.016940193353 0.017161119566 
0.01739337437 0.017639799251 0.017901371195 0.018177873508 0.01846783983 0.018768708916 0.019077104776 0.019389060676 0.019700316084 
0.020006531428 0.02030349674 0.020587273005 0.013327683938 0.013618593363 0.01390148003 0.014174628055 0.014437084203 0.014688084281 
0.014927389705 0.015155346384 0.015372915231 0.015581917585 0.015784891561 0.015984945948 0.016185555611 0.016390112247 0.016601809622 
0.016822947515 0.017054979176 0.017298394423 0.017552283609 0.017815000483 0.018084490151 0.018357667588 0.018631274063 0.018901909875 
0.019166207698 0.019420991877 0.012678582212 0.01295700329 0.013228766372 0.013492493594 0.013747213227 0.013991716905 0.014225686725 
0.014449082143 0.014662466628 0.014866840708 0.015063932792 0.015255973806 0.015445568286 0.015635502828 0.015828434255 0.016026605132 
0.01623180164 0.016444835965 0.016665780804 0.016893885836 0.017127703016 0.01736538311 0.017604303508 0.017842053725 0.018076011872 
0.018303550313 0.01205704516 0.012322563912 0.012582853935 0.012836642624 0.013082602334 0.013319863553 0.013547768603 0.013766180296 
0.013974861935 0.014174440104 0.014365933225 0.014550772938 0.014730776468 0.014908034516 0.015084718927 0.015262910679 0.015444351863 
0.015630392916 0.015821664364 0.016018202279 0.016219416205 0.016424199771 0.01663104597 0.01683819141 0.017043757801 0.017246017448 
0.011469067988 0.011721380069 0.011969800433 0.012213024796 0.012449836857 0.012679254012 0.012900591193 0.013113117168 0.013316684428 
0.013511554028 0.01369774243 0.013876219909 0.014048103246 0.014214812536 0.014377984075 0.014539344995 0.014700596429 0.014863225577 
0.01502831146 0.015196654752 0.015368380161 0.015543204182 0.015720444242 0.015899105715 0.01607800568 0.016255887187 0.010918935985 
0.011157791512 0.011394027434 0.011626345021 0.011853568477 0.012074655597 0.012288719804 0.012495062391 0.0126932956 0.012882913025 
0.013064048553 0.013236849516 0.013402086953 0.013560229561 0.013712523007 0.013860280987 0.014004938915 0.014147994144 0.01429081825 
0.014434590815 0.014580105912 0.014727910582 0.014878062182 0.015030318837 0.01518419747 0.015339054788 0.010409771811 0.010635012266 
0.01085883399 0.011079974474 0.011297260856 0.011509620817 0.011716097177 0.011915855345 0.012108203268 0.0122926046 0.012468704337 
0.012636393901 0.012795783552 0.012946996778 0.013090738162 0.01322801797 0.0133595999 0.013486942548 0.013611449835 0.013734550964 
0.013857555178 0.013981495004 0.014107285592 0.014235357967 0.01436593682 0.014499013454 0.0099440769668 0.010155653703 0.010366803193 
0.010576577953 0.010783682067 0.010987021351 0.011185576578 0.011378416163 0.011564697416 0.011743694812 0.011914817771 0.012077612136 
0.012231870944 0.012377414116 0.012514474816 0.01264360953 0.01276524377 0.01288049614 0.012990786038 0.013097229458 0.013201536496 
0.013305225218 0.013409676896 0.013516027093 0.013625249643 0.013737945872 0.0095234968983 0.009721359025 0.00992008455 0.010118421738 
0.0103152059 0.010509334465 0.010699735133 0.010885249615 0.011065216796 0.011238629525 0.011404722722 0.011562835428 0.011712513254 
0.011853303071 0.011985097013 0.012107953016 0.012222231149 0.012328572553 0.012427945305 0.012521628718 0.012611337992 0.012698473247 
0.012785116626 0.012872676464 0.012962826874 0.013056816451 0.0091493919279 0.0093338564096 0.0095200457571 0.0097068999792 0.0098933644061 
0.010078196618 0.010260303581 0.010438605932 0.01061207346 0.010779739724 0.010940714521 0.011094208779 0.011239534547 0.011376035879 
0.011503540867 0.011621744955 0.011730674511 0.011830678184 0.011922408185 0.012006873002 0.012085459863 0.01215986543 0.012232028187 
0.01230403169 0.01237778818 0.012455212495 0.0088225116422 0.0089938214571 0.0091678826045 0.0093435923481 0.0095198115599 0.0096952994362 
0.0098690976675 0.010039956991 0.010206803005 0.010368592757 0.010524356736 0.010673212255 0.01081436247 0.010947131368 0.011071022332 
0.011185562212 0.011290610733 0.011386233224 0.011472788356 0.011551029648 0.011622039854 0.01168716571 0.011748633757 0.01180842545 
0.011868835481 0.01193216697 0.0085430984312 0.0087018345033 0.0088641067466 0.0090289200794 0.0091951506123 0.0093616296291 0.0095271751023 
0.0096905238744 0.0098507008849 0.010006535535 0.010156999215 0.010301161339 0.010438169938 0.01056725957 0.010687799306 0.010799340507 
0.010901451816 0.010994054225 0.011077288456 0.011151608911 0.011217843632 0.011277224992 0.011331426412 0.011382504551 0.011432833095 
0.011484950664 0.0083101386914 0.0084574523538 0.0086086024497 0.0087630284386 0.0089196559165 0.009077319665 0.0092348129467 0.0093909150061 
0.0095444549277 0.0096943242278 0.0098393297546 0.0099787358263 0.010111553657 0.010236998764 0.01035438169 0.010463145186 0.010562925658 
0.010653374494 0.010734519276 0.01080659224 0.01087017942 0.010926212351 0.010976105371 0.011021673508 0.011065160125 0.011109116252 
0.0081226507919 0.0082587436916 0.0083995970863 0.0085443391364 0.0086919424027 0.0088416535531 0.0089913763155 0.0091403443718 0.0092873409954 
0.0094312289128 0.0095709492061 0.0097055420026 0.0098339605037 0.0099556948834 0.010069918759 0.010176056567 0.010273661567 0.010362467223 
0.010442252507 0.010513160417 0.010575574368 0.010630192405 0.010678110416 0.010720861768 0.010760447301 0.010799245564 0.0079767491402 
0.0081033410323 0.00823499281 0.0083709498105 0.0085102308708 0.0086516837897 0.0087940778016 0.0089361619436 0.0090767742186 0.0092151896012 
0.0093494984408 0.0094791686859 0.0096033346091 0.0097212404504 0.0098321962902 0.0099355229315 0.010031011568 0.010118221772 0.0101970332 
0.010267361143 0.010329491946 0.010383931439 0.010431546226 0.010473559044 0.010511661004 0.010547965108 0.0078669004831 0.007985537357 
0.008109283018 0.0082375228243 0.0083693285544 0.0085035638597 0.0086391038591 0.0087746873836 0.008909128856 0.0090412921074 0.0091701874271 
0.0092948678235 0.0094145031215 0.0095283607773 0.0096362870757 0.0097368400284 0.0098300610537 0.0099156461225 0.0099932894813 0.010063274523 
0.010125532935 0.010180500845 0.010228828507 0.010271517915 0.010309948734 0.010345877626 0.0077847748891 0.0078971268517 0.0080143983055 
0.0081360927916 0.0082613754926 0.0083892176952 0.0085184494662 0.0086478972694 0.008776413363 0.0089029133981 0.0090264094768 0.0091460095814 
0.0092609537247 0.0093705612857 0.009474275524 0.0095716403377 0.0096623032892 0.0097459907094 0.0098225669843 0.0098920099573 0.0099548840698 
0.010010529634 0.010060058295 0.010104191879 0.010144042922 0.010181078011 0.0077195503775 0.0078273169169 0.007939562474 0.0080559135681 
0.0081756492663 0.0082977988452 0.0084212965022 0.008545016345 0.0086678665906 0.0087888215542 0.0089069372631 0.009021384787 0.0091314525359 
0.0092365285924 0.0093361582925 0.0094299514747 0.0095176411356 0.0095990341897 0.0096740573752 0.009742691515 0.0098050657517 0.0098614318938 
0.0099122749682 0.0099581318 0.0099999553964 0.010038799235 0.0076585247788 0.0077631944106 0.0078716920819 0.0079838013476 0.0080988817242 
0.0082160653352 0.0083343765137 0.0084527647451 0.0085702062595 0.0086857303405 0.0087984712432 0.0089076563054 0.0090126389801 0.0091129060657 
0.0092080688816 0.0092978405399 0.0093820809974 0.0094606823825 0.0095336310867 0.0096009827968 0.0096628838921 0.0097195414168 0.0097713456064 
0.0098188525708 0.0098627162562 0.0099039244669 0.0075886853476 0.0076913366499 0.0077971500307 0.007905895345 0.0080170806269 0.0081299212615 
0.0082435274338 0.0083569367798 0.0084692001191 0.0085794199353 0.0086867819429 0.0087905838514 0.0088902520776 0.0089853618448 0.0090756336839 
0.0091609128182 0.009241142553 0.0093163838946 0.0093866880879 0.0094521805997 0.0095130352234 0.0095694792533 0.0096218359015 0.0096705300946 
0.0097161904082 0.0097594969278 0.0074985189238 0.0075998289364 0.0077038314423 0.0078098737601 0.0079177355525 0.0080267228174 0.0081360148654 
0.0082447545235 0.0083520552521 0.0084570666626 0.0085590424622 0.0086573326504 0.0087514423636 0.0088410414334 0.0089259662768 0.0090062087923 
0.0090818725351 0.0091531250914 0.0092201496779 0.0092831571644 0.0093423504701 0.0093979601893 0.0094502733993 0.0094996497227 0.0095465562741 
0.0095916107178 0.019022420428 0.019427373996 0.019815160707 0.020184689445 0.020535649052 0.020868836794 0.021186428586 0.021491933018 
0.021790509044 0.022088786038 0.022394816944 0.022717552203 0.0230657365 0.023447221189 0.023867781696 0.024330196374 0.024833741889 
0.025374233725 0.025944537236 0.026535357537 0.027136127882 0.027735794813 0.028323433901 0.028888680315 0.02942202733 0.029914997064 
0.018357068682 0.01874741671 0.019122964234 0.019482662178 0.019826138539 0.020153990622 0.020467852705 0.020770733052 0.021066869856 
0.021361792405 0.021662098055 0.02197499285 0.022307629832 0.022666147867 0.023055552996 0.023478012578 0.023933152092 0.024417900703 
0.02492681119 0.025452613347 0.025986872524 0.026520592058 0.027044744455 0.027550613678 0.028030118667 0.028475973774 0.017675002532 
0.018050926755 0.018414138327 0.018763471509 0.019098734494 0.019420108087 0.019728917705 0.020027452895 0.020319159648 0.020608691628 
0.020901389254 0.021203161164 0.021519825536 0.021856515056 0.022217040145 0.022603414467 0.02301534882 0.023450984396 0.023906020909 
0.024374815194 0.024850688339 0.025326380801 0.025794481778 0.026247753359 0.026679380246 0.027083166051 0.016979671851 0.017341226452 
0.017691868771 0.018030561769 0.018356757339 0.018670599742 0.018972826745 0.019265432055 0.019551070162 0.019833370066 0.020116833034 
0.020406208317 0.020706289345 0.021021309061 0.021354462208 0.021707540829 0.022080679833 0.022472348246 0.022879478527 0.023297749179 
0.023721718091 0.024145952193 0.024564248848 0.024970647996 0.025359459895 0.025725455117 0.016278582395 0.016625702353 0.016963531902 
0.017290984037 0.017607434484 0.017912799164 0.018207536136 0.018492965794 0.018771182649 0.019045055379 0.019317999737 0.019594157098 
0.019877348092 0.02017109633 0.020478164737 0.020800211252 0.02113763404 0.021489460537 0.021853496412 0.0222264973 0.0226043928 
0.022982604807 0.023356290104 0.023720500432 0.024070736031 0.024402446554 0.015580791051 0.015913394045 0.016238146326 0.016553955616 
0.016860068806 0.017156193531 0.017442581451 0.01771997974 0.017989935915 0.018254612683 0.01851674838 0.018779460877 0.019045892335 
0.019319248814 0.019601490825 0.0198946635 0.020199223226 0.02051471487 0.020839682321 0.021171769309 0.021507937826 0.021844634313 
0.022178039069 0.02250424538 0.022819439988 0.023120047022 0.014895170025 0.015213160392 0.015524776241 0.01582859235 0.016123940143 
0.016410322046 0.016687715357 0.016956581399 0.017217839512 0.017473063218 0.017724270952 0.017973861214 0.018224394614 0.018478276679 
0.018737744781 0.019004285805 0.019278736811 0.019561208588 0.019850648618 0.020145607522 0.020443755386 0.020742749769 0.021039505347 
0.021330960915 0.021614072001 0.021885950851 0.014229908049 0.014533294165 0.014831292319 0.015122846501 0.015407242138 0.015683522938 
0.015951580192 0.016211519442 0.016463945457 0.016709754926 0.016950390242 0.017187601022 0.017423330874 0.017659574121 0.017898141758 
0.018140466552 0.018387641788 0.018639963648 0.018897186503 0.019158431781 0.01942228212 0.019687023977 0.01995025829 0.020209820105 
0.020463338641 0.020708554968 0.01359149734 0.013880102599 0.014164516816 0.014443701154 0.014716565019 0.014982460372 0.015240930164 
0.015491993924 0.015735518507 0.01597213526 0.01620274583 0.016428518934 0.016650847872 0.016871251687 0.017091217382 0.017312103541 
0.01753488035 0.017760341672 0.01798860116 0.018219388508 0.01845196721 0.018685218851 0.018917724287 0.019147869258 0.01937394998 
0.019594270621 0.012984881353 0.013258788965 0.013529585972 0.013796125745 0.014057458801 0.014312783922 0.014561599763 0.014803343308 
0.015037996818 0.015265899086 0.015487078409 0.015702407095 0.015912783538 0.016119272683 0.016323021304 0.016525160027 0.016726713627 
0.016928516254 0.017131044443 0.017334617682 0.01753902672 0.017743799661 0.017948189922 0.018151229992 0.018351817837 0.018548800144 
0.012413945111 0.012673202265 0.012930340828 0.013184259571 0.013433973231 0.013678620707 0.013917487434 0.01415003754 0.01437591714 
0.014595091038 0.014807434617 0.015013232032 0.015213189255 0.015407614433 0.015597452374 0.015783594972 0.015966938402 0.016148359461 
0.016328597304 0.016508225623 0.016687539124 0.016866710192 0.017045555609 0.01722370892 0.017400648534 0.017575742298 0.011881510502 
0.01212623164 0.012369781497 0.012611089147 0.012849152209 0.013083066964 0.013312038387 0.013535390515 0.013752591703 0.013963254414 
0.014167155958 0.014364285263 0.014554792829 0.014738785948 0.014916831689 0.015089696163 0.015257774384 0.015422024922 0.015583260751 
0.015742279002 0.01589977223 0.016056287968 0.016212167602 0.016367688664 0.016522834263 0.016677485305 0.011389799526 0.011620195528 
0.011850151081 0.012078922831 0.012305373968 0.012528569076 0.012747647207 0.012961827212 0.013170436442 0.013372909609 0.013568812486 
0.01375783072 0.013939867441 0.014114818341 0.014282883013 0.014444413252 0.014600042789 0.014750127378 0.014895754385 0.015037467606 
0.015176335925 0.015313238023 0.015448974081 0.015584195746 0.015719505861 0.015855239379 0.010940129004 0.011156361267 0.011373223749 
0.011589621401 0.011804578978 0.012017129716 0.012226371078 0.01243129944 0.012631417883 0.012825887742 0.013014111135 0.013195587281 
0.013369956511 0.013537037665 0.013696650586 0.013848921289 0.013994140694 0.014132768151 0.014265455685 0.014393029734 0.014516621644 
0.014637005169 0.014755563625 0.014873083444 0.014990685659 0.015109171465 0.010533452767 0.010736046129 0.010939885889 0.011144087126 
0.011347761111 0.01154982546 0.011749349914 0.011945418085 0.01213716776 0.012323802982 0.012504603956 0.01267894882 0.012846309881 
0.013006178892 0.013158508388 0.013303082236 0.013439956456 0.013569425432 0.013691975078 0.013808312862 0.013919378866 0.014026293907 
0.01413031982 0.014232826937 0.014335034079 0.014438231542 0.010170018901 0.010359391536 0.010550795194 0.010743305248 0.010935957868 
0.011127684682 0.011317695661 0.011504914829 0.011688440662 0.011867402187 0.012040999844 0.012208517769 0.012369321862 0.012522892812 
0.012668878358 0.01280693157 0.012937002002 0.013059189713 0.013173806072 0.013281445883 0.013382896334 0.013479235248 0.013571564701 
0.013661695989 0.013750983103 0.013840966765 0.0098495212469 0.010026374386 0.010205830267 0.010387018276 0.01056905433 0.010750937668 
0.010931671949 0.011110276201 0.011285660704 0.011457121638 0.011623701259 0.011784631659 0.011939219223 0.012086853178 0.012227050591 
0.012359502234 0.012483895594 0.012600242807 0.012708713058 0.01280970972 0.012903915911 0.012992251024 0.013075938565 0.013156421701 
0.013235332849 0.013314389919 0.0095703854037 0.0097359300766 0.0099041457392 0.010074647948 0.010246558403 0.010418915941 0.010590717122 
0.010760939097 0.010928598649 0.011092763177 0.011252407046 0.011406948441 0.011555550474 0.011697575062 0.011832474161 0.011959829102 
0.01207940417 0.01219096104 0.012294595558 0.012390587842 0.012479458557 0.012561961482 0.012639207417 0.012712536364 0.012783548424 
0.012854005509 0.0093311871231 0.0094855996237 0.0096434257149 0.0098039600959 0.0099663810174 0.010130156136 0.010293411047 0.010455592367 
0.010615678009 0.010772711335 0.010925794861 0.011074102036 0.011216780842 0.011353400757 0.011483283499 0.011605982304 0.011721172702 
0.011828701747 0.0119284448 0.012020608326 0.012105585942 0.01218400495 0.012256776182 0.012325100761 0.012390474534 0.012454591445 
0.0091279100002 0.0092727742393 0.0094212263703 0.0095726671367 0.0097262935213 0.0098812181792 0.010036438105 0.010190926063 0.010343722674 
0.010494282166 0.010640856573 0.010783055912 0.010920144681 0.011051488438 0.011176512826 0.011294652268 0.011405803813 0.011509632153 
0.011606116086 0.011695244933 0.011777350131 0.011852926883 0.011922747251 0.011987821673 0.012049475918 0.012109276489 0.0089554735619 
0.0090920855025 0.0092322870943 0.0093755754996 0.0095212225526 0.0096683720079 0.0098160254487 0.0099632713883 0.010109089183 0.010252522924 
0.010392737565 0.0105289211 0.010660362396 0.010786436125 0.010907081154 0.011020966157 0.011128209974 0.011228598506 0.01132191296 
0.011408457134 0.011488370925 0.011561958239 0.011629881202 0.011693015544 0.011752489157 0.011809652715 0.0088068960959 0.0089365846838 
0.0090697160188 0.0092058658147 0.009344378209 0.0094844566198 0.009625174178 0.0097655863927 0.0099047473747 0.01004174833 0.01017574905 
0.01030598375 0.010431799702 0.010552608697 0.010667935209 0.010777396816 0.010880710533 0.010977670137 0.01106820649 0.011152357534 
0.011230739179 0.011302723727 0.011369408727 0.011431443165 0.011489773279 0.011545570227 0.0086737801868 0.0087978710495 0.0089250950894 
0.0090551092347 0.0091873392196 0.0093210279537 0.0094553327719 0.0095893467327 0.0097221711205 0.0098529442186 0.0099808688341 0.010105225473 
0.010225400155 0.010340857337 0.010451205007 0.010556103754 0.010655333272 0.010748743621 0.010836305455 0.010918043332 0.0109941257 
0.011064830855 0.011130644035 0.011192057989 0.011249906875 0.011305049133 0.0085467753472 0.0086664377564 0.0087887772313 0.0089135734645 
0.0090402973638 0.0091682586374 0.009296682308 0.009424714931 0.0095515103879 0.0096762537119 0.0097982093916 0.0099167112055 0.010031195585 
0.010141210162 0.010246407738 0.01034652814 0.010441449729 0.010531081299 0.010615428649 0.010694570829 0.010768678304 0.010837977809 
0.010902862402 0.010963853081 0.011021528394 0.011076720767 0.0084165482218 0.0085326696408 0.0086510220011 0.00877135349 0.008893248608 
0.009016064238 0.0091390789424 0.0092615025918 0.0093825468207 0.0095014568824 0.009617540585 0.0097301927211 0.0098389126993 0.0099433197415 
0.010043153063 0.010138255171 0.010228568549 0.010314101652 0.010394936096 0.010471186772 0.010543036869 0.010610723675 0.010674571269 
0.010734981835 0.010792526419 0.010847770652 0.0082747596365 0.0083879756931 0.0085031657202 0.0086196473766 0.0087372567077 0.0088554035028 
0.0089734060006 0.0090905551354 0.0092061081836 0.0093193475886 0.0094296430042 0.0095364376007 0.0096393001883 0.0097379290066 0.0098321526056 
0.0099219252913 0.010007297603 0.01008838535 0.010165345516 0.010238334433 0.010307586242 0.010373323449 0.010435833559 0.010495461661 
0.010552623373 0.0106078438 0.020877321706 0.021334996351 0.021780015924 0.022211692122 0.02263002579 0.023035974159 0.023431642911 
0.02382015253 0.024205864276 0.024594135259 0.024991257986 0.025404003812 0.025838693178 0.026300784682 0.026794031042 0.02731986833 
0.027877088483 0.028461868961 0.029068102325 0.02968793013 0.030312379989 0.030931965036 0.031537189849 0.032118933777 0.032668742931 
0.033179019112 0.020124663566 0.020562013061 0.020988335549 0.021402897848 0.021805662337 0.022197285541 0.02257940444 0.022954569649 
0.023326460053 0.023699497572 0.024078833894 0.024469928041 0.024878035498 0.025307442827 0.025761608247 0.026241631426 0.026746686812 
0.027273861545 0.027818368423 0.028373932225 0.028933276832 0.029488589496 0.030031956988 0.030555676162 0.031052525534 0.031515960832 
0.019374987879 0.01979298966 0.020201445012 0.02059948399 0.020987148378 0.021364746475 0.021733564909 0.022095621966 0.022453799215 
0.02281185873 0.023173944181 0.023544538109 0.023927933931 0.024327802964 0.024746725217 0.02518584902 0.025644648524 0.0261207568 
0.026610810387 0.027109674111 0.027611498552 0.028109909347 0.028598359987 0.029070410431 0.029519954015 0.029941405959 0.018628284838 
0.019027690302 0.019418843363 0.019800975552 0.02017375761 0.020537468758 0.020892845036 0.021241677213 0.021586175519 0.021929241508 
0.022274383238 0.022625176406 0.022985157394 0.023357360704 0.023743961289 0.024146017668 0.024563260306 0.024994094965 0.02543568293 
0.025884150067 0.026334741298 0.026782408454 0.02722188203 0.027647722677 0.028054831185 0.02843847469 0.017887969248 0.018269316672 
0.018643606698 0.019010000194 0.019368084376 0.019717887633 0.020060001499 0.020395524884 0.020726248631 0.021054476286 0.021382865378 
0.021714450402 0.022052142139 0.022398400914 0.022755107458 0.023123253014 0.02350282441 0.023892705993 0.024290801223 0.024694125584 
0.025099032838 0.025501416086 0.025896934346 0.026281223794 0.02664995761 0.026999272389 0.017159139266 0.017522868967 0.017880612058 
0.018231507159 0.01857500578 0.018910969924 0.019239720839 0.019561949958 0.019878979254 0.02019254951 0.020504780482 0.020818011125 
0.021134513879 0.021456619236 0.021785664672 0.022122560653 0.022467824751 0.022820610679 0.023179430577 0.023542075725 0.023905753574 
0.024267247845 0.024623109397 0.024969807348 0.025303887278 0.025622091875 0.016447358789 0.016793829128 0.017135459396 0.017471047812 
0.017800114913 0.018122336154 0.018437749567 0.018746850409 0.019050418066 0.019349740582 0.019646387803 0.019942161055 0.020238920706 
0.020538332135 0.020841919067 0.021150554386 0.021464600471 0.021783860202 0.022107140359 0.022432998077 0.022759228244 0.023083695234 
0.023403572479 0.02371606894 0.024018419254 0.024307984258 0.015758340669 0.016087956671 0.016413429439 0.016733909332 0.017048678512 
0.017357456597 0.017659746941 0.017955862958 0.01824635932 0.018531961862 0.018813820097 0.019093256 0.019371681175 0.019650485636 
0.019930859368 0.020213649739 0.020499447318 0.020788165559 0.021079309563 0.021371882725 0.021664465247 0.021955430341 0.022242528034 
0.022523775969 0.022796997103 0.023060117883 0.01509687852 0.015409819472 0.015719541791 0.016025190756 0.016325854198 0.016621036242 
0.016910400035 0.017194040815 0.017471793191 0.017744342808 0.018012295096 0.01827658692 0.018538236963 0.01879830552 0.019057766267 
0.019317448767 0.019577821097 0.019839239209 0.020101474283 0.020364020768 0.020626013677 0.020886299412 0.021143497381 0.021396080813 
0.021642459921 0.0218810582 0.014466805892 0.014763486852 0.015057740706 0.015348650082 0.015635410503 0.015917369356 0.016194148026 
0.016465284292 0.016730807247 0.016991055773 0.017245991739 0.017496340584 0.017742763759 0.017986009432 0.018226833463 0.018465922944 
0.018703836799 0.018940955121 0.019177347176 0.019412996303 0.019647445974 0.019880065908 0.020110031005 0.020336358068 0.020557971671 
0.020773766903 0.013871275597 0.014151990341 0.014431070229 0.014707577683 0.014980680917 0.015249661121 0.0155139309 0.015773062246 
0.016026784256 0.016275108527 0.016517919523 0.016755448528 0.01698828046 0.017216538378 0.017440897329 0.017661911297 0.017880082141 
0.018095858829 0.018309550536 0.018521327813 0.018731138309 0.018938878242 0.019144165437 0.019346504917 0.019545302754 0.019739892733 
0.013312592273 0.013577729907 0.013841955138 0.014104352145 0.014364065254 0.014620328252 0.0148724737 0.015119942323 0.015362306226 
0.015599263634 0.01583063457 0.016056441146 0.016276795796 0.016491727889 0.016701642772 0.016907077637 0.017108133772 0.017305396497 
0.017499292821 0.017690173255 0.017878325413 0.018063923977 0.018246997563 0.018427576493 0.018605461264 0.018780402077 0.012792562512 
0.013042562142 0.013292166425 0.013540779321 0.01378740638 0.014031247199 0.014271569523 0.014507715491 0.014739128473 0.014965348718 
0.015186031289 0.015400927442 0.015609971666 0.015813055406 0.016010311095 0.016201965361 0.016388449092 0.01656984913 0.016746748536 
0.016919754632 0.017089043722 0.01725521471 0.017418662122 0.017579727771 0.017738572786 0.017895434618 0.012312117076 0.012547412406 
0.012783021964 0.013018249521 0.013252142375 0.013483889353 0.013712706809 0.013937732978 0.014158592166 0.014374564113 0.014585162872 
0.014789982414 0.014988737113 0.015181290351 0.015367468425 0.015547352041 0.015721124108 0.015889062316 0.016051557353 0.016209090573 
0.016362252911 0.016511818638 0.016658112589 0.016802050744 0.0169439349 0.017084380451 0.011871827483 0.012092975686 0.012315079573 
0.012537267439 0.012758759243 0.012978777931 0.01319645117 0.013410997559 0.013621687936 0.01382785547 0.014028902994 0.014224321323 
0.01441368137 0.014596661595 0.014772943576 0.014942648778 0.015105691025 0.015262267233 0.015412683523 0.015557412358 0.01569703279 
0.015832258641 0.015963932681 0.01609278605 0.016219693953 0.016345438752 0.011471551006 0.011679174803 0.011888283004 0.012098087299 
0.012307765272 0.012516480345 0.012723320165 0.012927614681 0.013128514556 0.013325284434 0.013517254384 0.013703830258 0.013884489506 
0.014058811249 0.014226469666 0.014387329564 0.014541201294 0.014688206097 0.014828561198 0.014962690073 0.015091121785 0.015214585767 
0.015333753672 0.015449941077 0.015563970677 0.01567684623 0.011110609307 0.01130549928 0.011502274076 0.011700193998 0.011898517793 
0.01209639421 0.0122929779 0.012487438646 0.012678833761 0.012866596801 0.0130499049 0.013228115497 0.013400651619 0.013567009073 
0.013726798558 0.013879733874 0.014025711817 0.014164601716 0.014296592078 0.014421998018 0.014541298456 0.014655173901 0.0147644754 
0.014870192691 0.014973433853 0.015075334342 0.010787128014 0.010970527947 0.011155733899 0.01134248187 0.011530037249 0.01171759511 
0.011904312104 0.012089323598 0.012271798551 0.012450948315 0.012625883794 0.012796145299 0.012961014209 0.013119960063 0.013272532848 
0.013418398881 0.013557390255 0.013689312423 0.013814268959 0.013932498154 0.014044414448 0.01415058433 0.014251836263 0.014349126553 
0.014443575692 0.014536377317 0.010499542546 0.01067159827 0.010846086561 0.011022412677 0.011199885609 0.011378144417 0.011555481353 
0.011731507428 0.011905357693 0.012076222577 0.012243338428 0.012406002544 0.01256347719 0.012715432977 0.01286128833 0.013000682083 
0.013133363052 0.013259181973 0.013378202936 0.013490470879 0.013596377223 0.013696428511 0.013791330759 0.013881981851 0.013969468191 
0.014054968986 0.01024399204 0.010406181807 0.01057090862 0.010737656149 0.010905759789 0.011074495012 0.011243031881 0.011410530279 
0.011576141956 0.011739085118 0.011899023838 0.012054393131 0.012204995722 0.012350294437 0.01248980827 0.01262303804 0.012749962421 
0.012870301041 0.012984022013 0.013091284632 0.013192247195 0.013287382086 0.013377312361 0.013462847777 0.013544958163 0.013624780834 
0.010015996038 0.010169444193 0.010325411327 0.010483456151 0.010642974135 0.010803268508 0.010963515296 0.011122973692 0.011280784317 
0.011436136588 0.011588324682 0.011736649579 0.011880490348 0.012019341668 0.012152735418 0.012280776269 0.012402290876 0.012517568054 
0.012626431491 0.012729204366 0.012826025652 0.012917158894 0.013003172226 0.013084791121 0.013162844023 0.013238370564 0.0098097585272 
0.0099555768164 0.010103804044 0.010254051001 0.010405768254 0.010558308735 0.010710913783 0.010862806445 0.011013198007 0.011161320475 
0.011306457456 0.011447948801 0.011585233777 0.011717801383 0.011845241842 0.011967229226 0.012083528317 0.012193974151 0.012298529731 
0.01239725767 0.012490332393 0.012578558805 0.012661259928 0.012739792606 0.012814782446 0.012887119203 0.009618684649 0.0097579727909 
0.009899447305 0.010042775871 0.010187469982 0.0103329064 0.010478398328 0.010623196929 0.010766552664 0.010907737551 0.011046070923 
0.011180931251 0.01131178643 0.011438165613 0.011559728556 0.011676176147 0.011787319962 0.011893035806 0.011993314992 0.012088195608 
0.012177848823 0.01226253718 0.012342700984 0.012418746342 0.012491362685 0.01256131685 0.009435697923 0.0095694357786 0.0097050270873 
0.009842243291 0.0099806205687 0.010119583039 0.010258493863 0.010396644298 0.010533326324 0.01066784977 0.01079958723 0.010927962684 