# vtk DataFile Version 5.1
vtk output
ASCII
DATASET STRUCTURED_POINTS
DIMENSIONS 26 26 26
SPACING 0.08 0.08 0.08
ORIGIN -1 -1 0.5
POINT_DATA 17576
FIELD FieldData 1
potential 1 17576 double
0.0015395548718 0.0015187260883 0.0014987824702 0.001479819432 0.001461793359 0.0014447645134 0.0014291469787 0.0014139506681 0.0013995487161 
0.0013858168517 0.001372611272 0.0013597634665 0.0013471919508 0.0013347549004 0.0013223125533 0.0013098482549 0.0012971623097 0.0012842643751 
0.0012711314013 0.0012577577252 0.0012441556868 0.0012303520745 0.0012163862993 0.0012019163011 0.0011877764653 0.0011736297578 0.0015414498839 
0.0015204204705 0.0015003656971 0.0014813384264 0.0014632940129 0.0014462978797 0.0014302708989 0.0014156400802 0.0014013358557 0.0013876883031 
0.0013745387349 0.0013617274499 0.00134908991 0.0013365573956 0.0013240046364 0.001311324064 0.0012984663649 0.0012854505634 0.0012721387319 
0.0012585937371 0.001244824268 0.0012308620902 0.0012167469888 0.0012025248266 0.0011878586291 0.0011735896498 0.0015371613645 0.0015160247452 
0.0014959140834 0.0014767837975 0.0014588162878 0.0014418963035 0.0014259801685 0.0014110127782 0.0013973295975 0.0013838138485 0.0013707712975 
0.0013580333979 0.0013454993444 0.0013328955037 0.0013202718699 0.0013075650663 0.001294626672 0.0012814616336 0.0012681115065 0.0012544661479 
0.0012406015064 0.0012265509569 0.0012123482855 0.0011980431485 0.0011836885403 0.0011689498066 0.0015284986526 0.0015073508316 0.001487187112 
0.0014681287101 0.0014501760828 0.001433324878 0.0014175452192 0.0014027064724 0.0013886760815 0.0013757617206 0.0013628202919 0.0013501621063 
0.0013376461914 0.001325186588 0.001312601646 0.001299816784 0.0012868717572 0.0012736910721 0.0012602641923 0.0012466504027 0.001232759268 
0.0012186794245 0.0012044505971 0.0011901203006 0.0011757449498 0.0011613757669 0.0015177014297 0.0014965696525 0.0014764330495 0.0014573676276 
0.0014394753613 0.0014227029716 0.0014069998628 0.001392232633 0.001378260824 0.001364910234 0.0013520051612 0.0013398571637 0.0013273631934 
0.0013148944173 0.001302384616 0.0012896584101 0.0012767313329 0.0012635910197 0.0012502047427 0.0012365771251 0.0012227273754 0.0012087337007 
0.0011945381298 0.0011802384704 0.001165889028 0.001151547773 0.0015068111286 0.0014857457858 0.0014656638838 0.0014466535802 0.0014287515377 
0.0014120084193 0.0013963642739 0.0013815729644 0.0013674984382 0.0013540682826 0.0013410733411 0.0013283701107 0.001316299502 0.0013037958226 
0.0012912907025 0.0012785930016 0.0012657382104 0.0012526506105 0.0012393453607 0.0012258050921 0.001212045818 0.0011980941755 0.0011840341421 
0.0011698188715 0.0011555494774 0.0011412845828 0.0014976639618 0.0014765782578 0.0014565281311 0.0014375698961 0.001419740967 0.0014029116686 
0.0013871245237 0.0013722598658 0.0013580431049 0.0013443857875 0.0013311076221 0.0013181801895 0.0013054480879 0.0012932925137 0.0012806683317 
0.0012680116185 0.0012551615278 0.0012421922213 0.0012289343638 0.0012155108455 0.0012018799234 0.0011880620873 0.0011740910076 0.0011600525011 
0.0011459100752 0.0011317662941 0.0014914660181 0.0014704213367 0.0014503979083 0.0014314384594 0.0014135205712 0.0013965855168 0.0013806697835 
0.0013654999947 0.0013510134135 0.001336986134 0.0013233620904 0.0013100567155 0.0012969433044 0.0012840373525 0.0012717067947 0.0012589372515 
0.0012460504091 0.001233074502 0.0012199816008 0.001206633844 0.0011931499002 0.0011794950448 0.0011656943147 0.001151784588 0.0011378526703 
0.0011238712974 0.0014890465852 0.0014680564401 0.001448044394 0.0014290541524 0.0014110678995 0.0013939876491 0.0013776964628 0.0013621688205 
0.0013472883345 0.0013327581834 0.001318605465 0.0013047766721 0.0012912222074 0.0012778563785 0.001264711068 0.0012521566047 0.001239196098 
0.0012261547428 0.001213060594 0.0011998876032 0.001186504687 0.0011730229497 0.0011594140008 0.0011457043896 0.001131933355 0.0011181897727 
0.0014908876101 0.0014699482727 0.001449939444 0.0014308897392 0.0014127568901 0.0013954343129 0.0013788543846 0.0013627874313 0.0013472776456 
0.0013321988024 0.0013174511145 0.0013029760277 0.0012888048513 0.0012749243809 0.0012613049453 0.0012478545064 0.0012351244703 0.0012219342148 
0.0012087930938 0.0011956634438 0.0011824261086 0.0011690671586 0.0011556523773 0.0011421571443 0.0011286100067 0.0011150533432 0.0014972348573 
0.0014763407227 0.0014563220074 0.0014371724518 0.001418850588 0.0014012514526 0.0013842214677 0.0013676852147 0.0013514837617 0.0013356564129 
0.0013201922493 0.0013049812362 0.0012901343852 0.0012755784833 0.0012613559577 0.0012474401817 0.0012337507072 0.0012208160297 0.0012075191623 
0.0011943054015 0.0011811546571 0.001167947128 0.0011546732917 0.0011413877142 0.0011280717253 0.0011147540371 0.0015081711419 0.0014873209256 
0.0014672642436 0.0014479855172 0.0014294229393 0.001411461973 0.0013939756869 0.001376830544 0.0013599389367 0.0013433657733 0.0013271127858 
0.0013110938266 0.0012954089079 0.0012801350935 0.0012652097049 0.0012506648912 0.001236491976 0.0012226473409 0.001209537036 0.0011961626177 
0.0011829663812 0.0011698084731 0.0011566912047 0.0011435851025 0.0011304615818 0.0011173829798 0.0015236975427 0.0015028721335 0.001482755981 
0.0014633052334 0.0014444545585 0.0014260789651 0.001408058343 0.0013902742983 0.0013727321036 0.0013553024403 0.0013381737905 0.0013213781647 
0.0013048544762 0.0012887106577 0.0012730042322 0.0012577863313 0.0012429812454 0.0012286060871 0.0012146391069 0.0012014309113 0.0011880350642 
0.0011748709757 0.0011617993513 0.0011488208049 0.001135903565 0.0011230218439 0.0015437558403 0.001522930152 0.0015027145204 0.0014830602817 
0.0014638625436 0.0014450233297 0.0014264253638 0.0014079911288 0.0013896603749 0.001371521532 0.0013534801138 0.0013357707213 0.0013184552473 
0.0013014714074 0.0012849453703 0.0012689092264 0.0012533819033 0.0012384199803 0.00122388839 0.0012098601203 0.0011966637355 0.0011832597766 
0.0011701755295 0.0011572364937 0.0011444391081 0.0011317528311 0.0015682494113 0.0015473812937 0.0015270188582 0.0015071007424 0.0014875162653 
0.0014681623272 0.001448947627 0.0014298120114 0.0014107190086 0.0013917758775 0.001372983365 0.0013543470534 0.0013361843933 0.0013183561782 
0.0013010019491 0.0012841648238 0.0012678840346 0.0012521816684 0.0012370493713 0.001222514099 0.0012084250459 0.001195250931 0.0011819562361 
0.0011689555444 0.0011561831536 0.0011435980561 0.0015970444131 0.0015760733112 0.0015555044041 0.0015352579968 0.001515225583 0.0014953156278 
0.0014754459163 0.0014555899067 0.001435754567 0.0014159900765 0.0013963848233 0.0013769245588 0.001357873932 0.0013392943933 0.001321129828 
0.0013034980364 0.0012864483751 0.0012700148803 0.0012542049995 0.0012389925331 0.0012244620851 0.0012108737635 0.0011972749347 0.0011841183728 
0.0011712234958 0.0011586416837 0.0016299556743 0.0016087995599 0.0015879440345 0.0015672915867 0.0015467516358 0.0015262254802 0.0015056746574 
0.0014850809573 0.001464481545 0.0014439623495 0.0014235503578 0.0014033934966 0.001383475356 0.0013640546384 0.0013451914037 0.0013267990739 
0.0013090040793 0.0012918402575 0.0012753329765 0.0012594668824 0.0012443025259 0.0012297202863 0.0012162314208 0.0012027533451 0.0011896717144 
0.0011769291777 0.0016667066431 0.0016452501667 0.0016240035486 0.00160286221 0.001581736608 0.0015605485353 0.0015392833002 0.0015179470992 
0.001496586003 0.0014753150024 0.0014541576451 0.0014332737942 0.0014127255393 0.0013925025607 0.0013729369353 0.0013538455685 0.0013353527234 
0.0013174962267 0.0013003066879 0.0012837770817 0.0012679454796 0.0012528119465 0.0012382783066 0.0012248544767 0.0012114639702 0.0011985002742 
0.0017068841248 0.0016849813578 0.0016632119094 0.0016414716988 0.0016196755002 0.0015977734228 0.0015757555259 0.0015536735684 0.0015315864594 
0.0015095824902 0.0014877684097 0.001466196042 0.0014449990405 0.0014241435753 0.0014038876528 0.0013842477553 0.0013651332432 0.0013466480294 
0.0013288225719 0.0013116722715 0.0012951894882 0.0012794408234 0.0012643225805 0.0012498427669 0.0012364729146 0.0012231519566 0.0017498226502 
0.0017272942453 0.0017048518824 0.0016823930278 0.0016598352629 0.0016371604356 0.0016143701831 0.0015915392987 0.001568741064 0.0015460618293 
0.0015236226938 0.001501463087 0.0014797140256 0.0014584242202 0.001437550591 0.0014173968066 0.0013977543971 0.0013787319798 0.0013603449112 
0.001342614383 0.0013255312255 0.001309137328 0.0012934442112 0.0012783702184 0.0012639242654 0.0012505717335 0.0017945471693 0.001771189275 
0.0017479001396 0.0017245776543 0.0017011607592 0.0016776430029 0.0016540579103 0.0016304858712 0.0016070114761 0.0015837219577 0.0015607330842 
0.001538105681 0.0015158876778 0.0014941807642 0.0014730073448 0.0014522878259 0.0014323220132 0.0014128743211 0.0013940289346 0.0013758021837 
0.001358181048 0.0013412156869 0.0013249220621 0.0013092310849 0.001294166996 0.0012797332539 0.0018394970415 0.0018150903319 0.0017908726062 
0.0017665551639 0.0017421899642 0.0017177862309 0.0016933959969 0.0016690939344 0.0016449847702 0.0016211524094 0.0015976991349 0.0015746799112 
0.0015521360541 0.0015301499675 0.0015087241045 0.0014877537685 0.0014674603171 0.0014477954107 0.0014286170125 0.0014100039785 0.0013919423332 
0.001374474032 0.001357589867 0.0013413257153 0.0013256227395 0.0013105001825 0.001882903056 0.0018572525184 0.0018317587493 0.0018064271503 
0.0017810383264 0.0017557122286 0.0017305143086 0.0017055178691 0.0016808316077 0.0016565327058 0.0016327240192 0.001609441706 0.0015867308779 
0.0015645955486 0.0015430772486 0.0015221260002 0.0015016214982 0.0014818265699 0.0014624603463 0.0014435894461 0.0014252161801 0.0014073224858 
0.001389949922 0.0013731302708 0.0013568069912 0.0013410088504 0.0019228901176 0.0018954036712 0.0018684985673 0.0018418837239 0.0018154310757 
0.0017892615774 0.0017632687103 0.00173762385 0.0017124297009 0.0016877597305 0.001663709202 0.0016402999915 0.0016175592956 0.0015954669948 
0.0015740340587 0.0015531845178 0.0015328703786 0.001512931786 0.0014936185922 0.0014746352609 0.0014560543671 0.0014378573919 0.0014200872077 
0.0014027767315 0.001385883819 0.0013694406593 0.0019559104029 0.0019274067528 0.0018988067685 0.0018708590666 0.0018433305056 0.0018161565465 
0.001789412736 0.0017632648153 0.0017376460108 0.0017127112216 0.0016885375066 0.0016651584696 0.0016425584989 0.0016207135254 0.0015995445403 
0.0015789956409 0.0015589617362 0.0015392463865 0.0015200817685 0.0015011480072 0.0014825034533 0.0014641269208 0.0014460647711 0.0014283186498 
0.0014109482876 0.001393910048 0.0019804359768 0.0019504828369 0.0019209882928 0.0018914867606 0.0018629118629 0.0018347613985 0.0018073227977 
0.0017805828789 0.0017547104986 0.0017296209756 0.0017054653582 0.0016822611438 0.0016599756039 0.0016385555566 0.0016178743979 0.0015978375102 
0.0015782919352 0.0015591096959 0.001540077299 0.0015214352309 0.0015028703852 0.0014844457216 0.0014662031661 0.0014481508093 0.0014303584405 
0.0014127950215 0.0017020413866 0.0016795606941 0.001657902437 0.0016371461996 0.0016172354606 0.0015982227097 0.0015805225407 0.0015631562574 
0.0015465173252 0.0015305096838 0.0015150206505 0.0014999107145 0.0014851268729 0.0014705463802 0.0014560482159 0.0014416284616 0.0014270982348 
0.0014124694623 0.0013977187164 0.0013828353786 0.0013678238815 0.0013527012871 0.0013374963814 0.0013218566204 0.0013066047748 0.0012913936972 
0.001709148016 0.0016863892106 0.001664532286 0.0016436117224 0.0016235678636 0.0016044574844 0.0015862038271 0.0015692481525 0.0015525496259 
0.0015364751153 0.001520904624 0.0015057141014 0.0014907676285 0.0014760169427 0.0014613521258 0.0014466740974 0.0014319380016 0.001417162789 
0.0014022072644 0.0013871275577 0.001371923675 0.0013566173893 0.0013412377784 0.0013258200808 0.0013100167749 0.0012946577858 0.0017116964034 
0.0016887420533 0.001666730253 0.001645594602 0.0016254999003 0.0016063216751 0.001588020487 0.0015705600483 0.0015543099831 0.0015381988019 
0.0015225776706 0.0015073183378 0.0014923509007 0.0014774232845 0.0014625982015 0.0014478181286 0.0014329367513 0.0014179559183 0.001402911169 
0.0013876845229 0.0013723420454 0.0013569064741 0.0013414002839 0.0013258627422 0.001310335014 0.0012944721966 0.0017108833236 0.0016878205805 
0.0016656485864 0.0016444648962 0.0016242515754 0.0016049955916 0.0015866727636 0.0015691767704 0.0015524146485 0.0015367427885 0.0015210675604 
0.0015057419623 0.001490654859 0.0014757493868 0.0014608502727 0.0014458912675 0.0014309120285 0.0014158334194 0.0014006376954 0.00138537469 
0.001369944711 0.0013544215535 0.001338836494 0.0013232241956 0.0013076294285 0.0012920918591 0.0017082666232 0.0016851156465 0.0016628578607 
0.0016415444655 0.0016212592862 0.0016019424118 0.0015835532047 0.0015659870395 0.0015491463978 0.001532906554 0.0015176206937 0.0015021967827 
0.0014870076332 0.0014719656938 0.0014570197632 0.0014420022232 0.0014269304516 0.0014117890837 0.0013965386261 0.0013811742568 0.0013657041739 
0.0013501944721 0.0013345750932 0.001318931209 0.0013033046923 0.0012877411662 0.0017052936532 0.0016820986631 0.0016597794125 0.0016383993699 
0.0016179788851 0.0015985665069 0.0015801177684 0.0015624202351 0.0015453819379 0.001528976362 0.0015130353794 0.0014974490709 0.0014825850672 
0.0014674043554 0.001452343617 0.001437234799 0.0014221140114 0.0014069084435 0.0013916268285 0.0013762445792 0.001360767386 0.0013452100194 
0.0013296436005 0.0013140084814 0.0012983922986 0.001282840733 0.0017033922487 0.0016800614182 0.0016576559558 0.0016361815597 0.001615746044 
0.0015961411921 0.0015774596889 0.001559619219 0.0015423891297 0.0015257204886 0.0015094633381 0.0014936127025 0.0014780322737 0.0014631207688 
0.0014478512606 0.0014326744327 0.0014174406892 0.0014022290701 0.0013868720719 0.0013714874968 0.0013560260237 0.0013404973149 0.001324922827 
0.0013093749631 0.0012938037074 0.0012782973108 0.0017035581415 0.0016801476556 0.0016576496063 0.0016360865862 0.0016154296456 0.0015956315564 
0.0015767585566 0.001558578305 0.001541069433 0.0015240394887 0.0015074512828 0.0014912313923 0.0014752617584 0.0014595685694 0.001444533798 
0.0014291605329 0.0014137859747 0.0013984501449 0.0013831318429 0.0013676964687 0.0013522576989 0.0013367733585 0.0013212580908 0.0013057360793 
0.001290280106 0.0012748484104 0.0017065608101 0.0016830789608 0.0016604716526 0.0016387666693 0.0016179464326 0.001597932647 0.0015786475044 
0.0015601002448 0.0015422190407 0.0015247288515 0.001507663752 0.0014909705758 0.0014745958053 0.0014584558401 0.0014425907289 0.0014273849811 
0.0014118381629 0.0013963581582 0.0013809218369 0.0013655333382 0.0013500654423 0.0013346261038 0.0013191791839 0.0013037412667 0.0012883383094 
0.0012730441114 0.0017129119098 0.0016893490447 0.001666622806 0.0016447501611 0.0016236973259 0.0016033849191 0.0015837866838 0.0015647161426 
0.0015462495233 0.0015282755375 0.0015106925578 0.0014934311859 0.0014765100251 0.0014599077963 0.0014435948454 0.0014274880212 0.0014121534466 
0.0013964318133 0.0013808509052 0.0013653890776 0.0013499384949 0.0013344892568 0.0013191050447 0.0013037545903 0.0012884551933 0.0012732361778 
0.0017229232433 0.0016992673965 0.0016764083311 0.0016543309063 0.0016330107405 0.0016123771189 0.0015923210634 0.0015728082993 0.0015537056469 
0.0015350600685 0.0015168503239 0.0014989938866 0.0014814432826 0.0014642472871 0.0014473933209 0.0014308557699 0.0014145643803 0.0013990644746 
0.0013832612774 0.0013676209129 0.001352140922 0.0013367144213 0.0013213369744 0.0013060617376 0.0012908637589 0.0012757600671 0.0017367578062 
0.0017130008555 0.0016899748496 0.0016676655516 0.0016460331143 0.0016250022246 0.0016044922166 0.0015844002738 0.0015646747684 0.0015453637999 
0.0015264585755 0.0015078489703 0.001489609091 0.0014717957636 0.0014543238292 0.001437224908 0.001420490547 0.0014040886651 0.0013884424451 
0.0013725803869 0.001356963062 0.0013414721439 0.0013261225429 0.0013108656889 0.0012957503256 0.0012807532835 0.001754472913 0.0017305893951 
0.0017073747811 0.001684793182 0.0016628073372 0.0016413348342 0.0016202993011 0.0015996134207 0.0015792943287 0.0015592058315 0.0015395155501 
0.0015202278491 0.0015012527172 0.0014826718456 0.0014645211603 0.0014468386346 0.001429542848 0.0014126551231 0.0013961662603 0.0013804455345 
0.0013645710267 0.0013489849041 0.0013335693848 0.0013183386523 0.0013032458737 0.0012883310313 0.0017760536142 0.001752012365 0.0017285685663 
0.0017056863213 0.0016832943575 0.00166133764 0.0016397385031 0.0016184434233 0.001597396355 0.0015766723478 0.0015561529315 0.0015360427658 
0.0015163730882 0.0014970536822 0.0014781863987 0.0014597831035 0.0014418566653 0.0014244551247 0.0014074495507 0.0013909258076 0.0013752318553 
0.0013593531995 0.0013438401743 0.0013285400451 0.0013134637199 0.0012985877361 0.0018014200507 0.0017771753295 0.0017534552527 0.0017302170515 
0.0017073859604 0.0016849000357 0.0016627013731 0.0016407454004 0.0016189922606 0.0015975305732 0.0015763342655 0.0015553778859 0.0015349479506 
0.0015148771206 0.0014952783116 0.0014761751572 0.001457590731 0.0014395375612 0.001422027504 0.0014050248296 0.0013889475681 0.001372796888 
0.0013570255327 0.0013415804722 0.0013264282745 0.0013115327137 0.0018304286629 0.0018059207464 0.0017818678022 0.0017582170813 0.0017348933033 
0.001711843054 0.001689009167 0.0016663704916 0.0016439270546 0.0016217021825 0.001599756524 0.001578044446 0.0015568001717 0.0015360576732 
0.0015157340226 0.0014959272479 0.0014766682542 0.0014579776972 0.0014398549603 0.0014222722178 0.0014053187899 0.0013892670923 0.0013731844774 
0.0013575454203 0.00134219382 0.0013272010306 0.0018628635601 0.00183801606 0.0018135613518 0.0017894283194 0.0017655619535 0.0017418937574 
0.0017184008441 0.0016950624619 0.0016718986763 0.0016489680903 0.0016262674793 0.0016039134676 0.0015818603412 0.0015603408242 0.0015393885811 
0.0015188985606 0.0014989780255 0.0014796458041 0.0014609155442 0.0014427648163 0.0014252527419 0.0014082623395 0.0013923211704 0.001376359885 
0.0013607876878 0.001345569533 0.0018983994657 0.0018731127877 0.0018481662044 0.0018234846355 0.0017990099252 0.0017746858799 0.0017505026536 
0.0017264536294 0.0017025701434 0.0016789272015 0.0016555207523 0.0016324799955 0.0016098391861 0.0015875641148 0.001565961605 0.0015448322104 
0.0015242818321 0.0015043326968 0.0014850025756 0.0014662744256 0.0014481794382 0.0014307155335 0.0014137886133 0.0013979181005 0.001382044412 
0.0013665767691 0.0019365769748 0.0019107331975 0.0018851884013 0.0018598688665 0.0018347174711 0.0018096896915 0.0017847879094 0.0017600285114 
0.0017354421759 0.0017110993748 0.0016870644011 0.0016633598363 0.0016400954891 0.0016172156138 0.0015949546919 0.001573315779 0.001552191458 
0.0015316714425 0.0015117732728 0.001492500841 0.0014738371382 0.0014558416667 0.0014384083815 0.0014215478351 0.0014057391867 0.0013899374433 
0.0019767187534 0.0019501816714 0.0019239248712 0.0018978760492 0.0018719772057 0.0018462093025 0.0018205618972 0.0017950840186 0.0017698170173 
0.0017448140694 0.0017201648124 0.0016958813171 0.0016720706187 0.0016487613822 0.0016258937529 0.0016037567092 0.0015821289919 0.0015611069889 
0.0015406948684 0.0015209022146 0.001501709524 0.0014831488774 0.0014652248037 0.0014478520896 0.0014310407851 0.0014152622674 0.0020179265746 
0.0019905480639 0.0019634551677 0.0019365697218 0.0019098474152 0.0018832771704 0.0018568712326 0.0018306820057 0.0018047544185 0.0017791477673 
0.0017539457548 0.0017291838028 0.0017048886338 0.0016811449369 0.0016579614315 0.0016352483225 0.001613295129 0.0015918572934 0.0015710097657 
0.0015507589336 0.0015310818451 0.0015120174596 0.001493572195 0.0014756698371 0.0014583276451 0.0014415510816 0.0020588761873 0.0020305102279 
0.002002548032 0.0019747328784 0.0019471244305 0.0019197214768 0.0018925453441 0.0018656541679 0.0018391017702 0.0018129450133 0.0017872576276 
0.0017620716863 0.0017374103951 0.0017133428355 0.0016898622275 0.0016668572396 0.0016445437718 0.0016228681567 0.001601683116 0.0015810575875 
0.0015609704859 0.0015414521941 0.0015225152062 0.0015040870989 0.0014861981561 0.0014688297057 0.0020982505058 0.0020687667054 0.0020396443694 
0.0020109164141 0.0019823687594 0.0019541112716 0.0019261717406 0.0018985994021 0.0018714665869 0.0018448194918 0.0018187348346 0.0017932284567 
0.0017683310418 0.0017440386948 0.0017203856306 0.0016973228274 0.0016747306644 0.0016528706996 0.0016314598803 0.0016105597408 0.0015901648335 
0.0015702472359 0.001550836581 0.0015319527566 0.0015135278735 0.0014955824703 0.0021348452389 0.0021037034377 0.0020733254332 0.002043443478 
0.0020139319327 0.0019848960065 0.0019562027769 0.0019279909874 0.0019003330881 0.0018732717708 0.0018468787537 0.0018211586052 0.0017961277339 
0.0017717622444 0.0017480753531 0.0017249970627 0.0017024865428 0.0016803897649 0.0016589586969 0.0016378960348 0.0016172680883 0.0015970470329 
0.0015772649493 0.0015579373522 0.0015390131361 0.001520512633 0.0021658913216 0.0021339345633 0.0021020356067 0.0020709612078 0.0020404770337 
0.0020105031295 0.0019811747155 0.0019523715348 0.0019242529933 0.0018968609637 0.0018702583269 0.0018444391587 0.0018194056675 0.001795127402 
0.0017715370257 0.0017485927071 0.001726206526 0.0017041953823 0.0016827996764 0.0016617008908 0.0016409524475 0.0016205236534 0.0016004480167 
0.0015807118674 0.0015613621908 0.0015423413508 0.0021905764881 0.0021573674212 0.0021247433161 0.0020922490081 0.00206081304 0.0020299183872 
0.0019998263338 0.001970496715 0.0019420685431 0.0019144306871 0.0018877123408 0.0018619172893 0.0018370101182 0.0018129466607 0.0017896209684 
0.0017669662051 0.0017448585427 0.0017231940264 0.0017017741482 0.0016808435546 0.0016600852795 0.0016395515367 0.0016192692792 0.0015992304862 
0.0015794884214 0.0015599974944 0.0018692681095 0.0018450253941 0.0018215564169 0.0017989286681 0.0017770767914 0.0017560487162 0.0017362607483 
0.0017167437128 0.0016979058805 0.0016796715424 0.0016619508854 0.0016446274873 0.00162766913 0.0016109718313 0.0015944302989 0.0015780524563 
0.0015616577269 0.0015452636931 0.0015288460438 0.0015123918081 0.0014958999438 0.0014793801768 0.0014628527992 0.0014459566253 0.0014295041222 
0.0014131398962 0.001880698609 0.0018561047666 0.0018323574216 0.0018094778619 0.0017873972649 0.0017661666706 0.0017457143545 0.0017264917404 
0.0017074788891 0.0016890670859 0.0016711634962 0.0016536700554 0.0016364737502 0.0016195435499 0.0016027844295 0.0015861067037 0.0015694712329 
0.0015528988482 0.0015362475133 0.0015195691739 0.0015028577086 0.0014861272476 0.0014693981657 0.0014526968656 0.0014356666114 0.0014191270171 
0.0018887495289 0.0018638767425 0.0018398861428 0.0018166945154 0.0017944568106 0.0017730445146 0.0017524234907 0.001732571672 0.0017138814597 
0.00169531156 0.001677243246 0.0016595767216 0.0016422658263 0.0016250771414 0.0016081213582 0.0015912427332 0.0015744062196 0.0015575771542 
0.0015407891883 0.0015239198589 0.0015070280491 0.0014901284337 0.0014732346114 0.0014563764707 0.0014395856359 0.0014225078976 0.0018942263558 
0.0018691557513 0.0018449064422 0.0018215648415 0.001799048757 0.0017774913582 0.0017567272158 0.001736716126 0.0017173921127 0.0016991423206 
0.0016809065916 0.0016630669383 0.001645534972 0.0016282767228 0.0016110429177 0.0015940239349 0.0015770152229 0.001560020129 0.0015430176407 
0.0015260519047 0.0015090164733 0.0014919762803 0.001474953769 0.0014579733292 0.0014410704743 0.0014242743344 0.0018982440773 0.0018729885854 
0.0018485539569 0.0018249752981 0.0018023264763 0.0017805459246 0.0017596020858 0.0017394102529 0.0017199004837 0.0017009811932 0.0016830358184 
0.0016650018525 0.0016472751825 0.0016297862807 0.0016124969997 0.0015952484356 0.0015780622325 0.0015609210095 0.0015437855921 0.0015266443739 
0.0015095488987 0.0014924063211 0.0014752876525 0.0014582181347 0.0014412284748 0.001424354505 0.001901841658 0.0018764402846 0.0018518402589 
0.0018280894276 0.0018051994335 0.0017832199942 0.0017621183242 0.0017417045548 0.0017219150684 0.0017027536159 0.0016840807116 0.0016658111003 
0.0016483324373 0.0016306235493 0.0016131333288 0.001595704588 0.0015783776232 0.0015610823 0.0015438264944 0.001526581672 0.0015093469809 
0.0014921292715 0.0014749902638 0.0014578605641 0.0014408170241 0.0014238941341 0.0019061329809 0.0018804896457 0.0018556978232 0.0018317988409 
0.0018086921332 0.0017864826179 0.0017650683944 0.0017444446722 0.00172440898 0.0017049389988 0.0016859086193 0.0016673311183 0.0016490862383 
0.001631589791 0.0016138165406 0.0015962387322 0.0015787111817 0.0015613169043 0.0015438913432 0.0015265499113 0.0015092390767 0.0014919618047 
0.0014747311453 0.0014576093195 0.0014405363973 0.0014235887453 0.001911914572 0.0018860817256 0.0018610912103 0.0018369537154 0.0018136372196 
0.0017911514564 0.001769435891 0.0017484289765 0.0017280873283 0.0017082406954 0.0016888687522 0.0016698654231 0.0016512558026 0.0016329414909 
0.0016153583866 0.001597521009 0.001579776035 0.0015621708467 0.0015446892809 0.0015271994936 0.0015098131131 0.0014924837281 0.0014752191423 
0.0014580347606 0.0014409929523 0.0014240408953 0.0019198572293 0.0018938391332 0.0018686324537 0.0018442556522 0.0018206923738 0.0017978769338 
0.0017757530713 0.0017544037069 0.0017336380052 0.0017133402792 0.0016935081398 0.0016740925058 0.0016550424035 0.0016362776855 0.0016178441137 
0.0016001343072 0.0015821592249 0.0015643359217 0.0015466501058 0.0015291113798 0.0015115962763 0.0014942102479 0.0014769138893 0.0014597166142 
0.0014426353503 0.001425732606 0.0019304436649 0.0019042284296 0.0018787948861 0.0018541524662 0.0018302832639 0.0018071147287 0.0017846468129 
0.0017627356084 0.001741428104 0.0017207221017 0.0017003618576 0.0016804171475 0.0016608547647 0.0016416508254 0.0016227764942 0.0016041537112 
0.0015863564522 0.0015682378074 0.0015503355141 0.001532637371 0.0015150431429 0.0014975459048 0.0014802084675 0.0014629956961 0.0014459178085 
0.0014289945319 0.0019440000042 0.0019175716865 0.0018918913949 0.0018669619252 0.0018427515501 0.0018192137039 0.0017962688635 0.0017739028412 
0.0017520005223 0.0017306163581 0.0017097265986 0.0016892406019 0.0016691010306 0.0016493479463 0.001629964167 0.0016109244542 0.0015921640446 
0.0015742368395 0.0015560615714 0.0015381151962 0.0015204030386 0.0015028347471 0.0014854014085 0.001468158379 0.0014510768535 0.0014341664656 
0.0019607262756 0.0019340674951 0.0019081164377 0.0018828601964 0.0018582721064 0.0018342992156 0.0018108864441 0.0017879528181 0.0017654597412 
0.0017434564217 0.0017219278348 0.0017007510839 0.0016799852521 0.0016596740638 0.0016397226007 0.0016201579509 0.0016009726814 0.0015821588379 
0.0015640960026 0.0015458795164 0.0015279645088 0.0015102446662 0.0014927429451 0.0014754151986 0.0014583098752 0.0014413997914 0.0019807033843 
0.0019537886473 0.0019275390924 0.0019019236975 0.0018769214298 0.0018524736176 0.0018285283719 0.0018050168989 0.0017819643492 0.0017592324094 
0.0017369772996 0.0017151869736 0.0016937533179 0.0016727414011 0.0016521731892 0.001632077751 0.0016123699889 0.0015930734053 0.0015741861097 
0.001556087151 0.0015378694751 0.0015199878767 0.0015023373533 0.0014849405364 0.0014677549861 0.0014508206685 0.0020039444415 0.0019767405322 
0.0019501523868 0.0019241526651 0.0018986881574 0.0018737278255 0.0018492160679 0.0018251137607 0.0018013827622 0.0017780479096 0.0017550196796 
0.0017324691792 0.0017104072917 0.0016887246349 0.0016675065956 0.0016467525427 0.0016264676382 0.0016066973795 0.0015873161449 0.0015689056758 
0.0015503588345 0.0015321420683 0.0015143302672 0.0014967827799 0.001479521268 0.0014625056665 0.00203038261 0.0020028441835 0.001975873186 
0.0019494373218 0.0019234827219 0.0018979694947 0.001872858385 0.0018481143242 0.0018236961979 0.0017996815185 0.0017760273365 0.0017526872157 
0.0017299259872 0.0017075557245 0.0016856717732 0.0016642824303 0.001643400132 0.0016230311174 0.0016031797772 0.0015838320139 0.00156539501 
0.001546888869 0.0015287792367 0.0015110271917 0.001493611668 0.0014765051091 0.0020598746206 0.0020319457722 0.0020045399551 0.0019776184851 
0.0019511261722 0.0019250296187 0.0018992861072 0.0018738782791 0.0018488001778 0.0018240606311 0.0017997010848 0.0017756538041 0.0017521308224 
0.0017291452731 0.0017065952531 0.0016845633782 0.0016630674113 0.0016421189812 0.001621712421 0.0016018194182 0.001582532463 0.0015641318551 
0.0015456973586 0.0015277158246 0.0015100456418 0.0014927695198 0.002092196344 0.00206380937 0.0020359092998 0.0020084411418 0.0019813691556 
0.0019546414567 0.0019282403335 0.0019021545944 0.0018763827741 0.0018509694723 0.0018258906672 0.0018012401711 0.0017769502345 0.001753232928 
0.0017301034532 0.0017074406547 0.0016853384617 0.0016638046792 0.0016428455318 0.0016224344798 0.0016026296495 0.0015833185155 0.0015650353053 
0.0015467224669 0.0015288023247 0.0015112518499 0.002127012954 0.0020980842858 0.0020696144316 0.0020415461468 0.0020138388764 0.0019864486575 
0.0019593687871 0.0019325860242 0.0019061168396 0.0018800160453 0.0018542576434 0.0018289479068 0.0018040996208 0.0017796588564 0.0017559149066 
0.0017326529086 0.0017099653857 0.0016878633252 0.0016663554799 0.0016454185263 0.0016250795651 0.0016053364366 0.0015860984452 0.0015678911982 
0.0015496676345 0.0015318452149 0.0021638713706 0.002134307382 0.0021051824294 0.0020764420541 0.0020480438915 0.002019951355 0.001992164218 
0.0019646871979 0.0019375324408 0.0019107591239 0.001884377765 0.0018584191676 0.001832962442 0.0018079336752 0.0017835511873 0.0017598039684 
0.0017365724224 0.001713935366 0.0016919013419 0.0016704662636 0.0016496076091 0.0016293809224 0.0016096798579 0.0015905175852 0.0015723795386 
0.00155422674 0.0022021409106 0.0021718386402 0.0021419777067 0.0021124923795 0.0020833465641 0.0020545247457 0.0020260069663 0.0019978265545 
0.0019700032966 0.0019425680059 0.0019155858638 0.0018890473324 0.0018630451226 0.0018375860653 0.0018125988421 0.0017883585346 0.0017646352864 