# vtk DataFile Version 5.1
vtk output
ASCII
DATASET STRUCTURED_POINTS
DIMENSIONS 26 26 26
SPACING 0.08 0.08 0.08
ORIGIN -1 -1 0.5
POINT_DATA 17576
FIELD FieldData 1
potential 1 17576 double
0.0022035257553 0.0021675995316 0.0021332094861 0.002100415854 0.0020692085052 0.0020396128471 0.0020115257206 0.0019847318594 0.0019591542063 
0.0019347041389 0.0019108355527 0.0018879879441 0.0018657044558 0.0018439336745 0.0018224530335 0.0018013126391 0.0017801857317 0.0017590999799 
0.001737900766 0.001716613161 0.0016952178552 0.00167372666 0.0016521770757 0.0016306191823 0.0016091135052 0.0015877321616 0.0021724070013 
0.0021375207226 0.0021042656207 0.0020726632945 0.0020427700776 0.0020145030356 0.0019876553004 0.0019621319722 0.0019378135267 0.0019140733081 
0.0018913290252 0.0018690752994 0.0018472502672 0.0018256308487 0.0018043101634 0.0017829856844 0.0017617180979 0.0017403462742 0.0017189130929 
0.0016973977827 0.0016758054537 0.0016541641163 0.0016325163463 0.0016109132536 0.0015894212225 0.0015681114744 0.0021314917294 0.0020977681578 
0.0020657472165 0.0020355198277 0.0020069660681 0.0019801536613 0.0019547512393 0.0019307130783 0.0019073547913 0.0018850572723 0.001863241033 
0.0018417578029 0.0018204022381 0.0017992429074 0.0017779725447 0.0017567875765 0.0017354148835 0.001713968655 0.0016924350063 0.0016708227221 
0.0016491546695 0.0016274723147 0.001605821852 0.0015842635595 0.0015628656652 0.0015417029468 0.0020830985871 0.0020506173868 0.002019985331 
0.0019911302289 0.0019641595578 0.0019387945732 0.0019150058676 0.0018920896776 0.0018703888654 0.0018492966583 0.0018284611395 0.0018077083982 
0.0017870756378 0.0017662182804 0.0017453660801 0.0017242402088 0.0017029790028 0.001681584633 0.0016600796578 0.0016384938069 0.0016168588671 
0.0015952368782 0.0015736784988 0.0015522534355 0.0015310281987 0.0015100826405 0.00202999794 0.0019988008985 0.0019696066089 0.0019423322048 
0.0019168285783 0.0018927646882 0.001870511047 0.0018493696177 0.0018290134107 0.0018090097795 0.0017891233244 0.0017691509913 0.0017491294015 
0.0017288979002 0.0017082802423 0.0016874288512 0.0016663740436 0.0016451440045 0.0016237780642 0.0016023234424 0.0015808338139 0.0015593648771 
0.0015379847239 0.0015167644445 0.001495785566 0.0014751256655 0.0019748193545 0.0019451319577 0.0019174227778 0.0018915991656 0.0018673761182 
0.0018452149994 0.0018244354433 0.0018046828816 0.0017854862336 0.0017665192939 0.001747492098 0.0017283849972 0.0017089434667 0.0016890896546 
0.0016688770747 0.0016483570696 0.0016275811069 0.001606597078 0.0015854576875 0.001564217939 0.0015429523775 0.0015217199673 0.0015005975712 
0.0014796621522 0.001458996067 0.0014386843811 0.0019200722143 0.0018918338924 0.0018656277032 0.0018409607717 0.0018186442617 0.0017979879886 
0.0017785702591 0.0017600027243 0.0017418696159 0.0017238044025 0.0017056599623 0.0016871810439 0.0016681910114 0.0016487520273 0.0016289326369 
0.0016087647468 0.0015883066005 0.0015676227134 0.0015467725731 0.0015258246377 0.0015048503582 0.001483923764 0.0014631244736 0.0014425350489 
0.0014222401479 0.0014023111678 0.0018674236733 0.0018402506304 0.0018154748031 0.0017927805215 0.0017719564468 0.0017526300252 0.0017344447804 
0.0017169474645 0.0016997173241 0.0016825233662 0.0016650038338 0.0016469519406 0.0016283687141 0.0016093288493 0.0015898683437 0.001570040607 
0.0015499132101 0.0015295538459 0.0015090331024 0.0014884207071 0.0014677917706 0.0014472266042 0.0014268047871 0.0014066160605 0.0013867425936 
0.0013672612814 0.0018177174483 0.0017923361929 0.0017691430431 0.0017478891737 0.0017283932887 0.0017103101541 0.0016932083104 0.0016766189151 
0.0016602497564 0.0016436708242 0.0016264954405 0.001608845144 0.0015906160627 0.0015718971449 0.0015527447624 0.0015332229168 0.001513414351 
0.0014933827316 0.0014732058466 0.0014529557064 0.0014327063379 0.0014125384146 0.0013925348275 0.0013727816623 0.0013533500358 0.0013343739587 
0.0017725053421 0.0017486795883 0.0017268764487 0.0017069916128 0.001688753458 0.0016717784835 0.0016556027607 0.0016397618851 0.0016241310052 
0.0016078373473 0.0015910728219 0.0015736833714 0.0015557140074 0.0015372390954 0.001518332819 0.0014990696978 0.0014795384538 0.0014598184811 
0.0014399743748 0.0014200921121 0.0014002383075 0.0013804901478 0.0013609305387 0.00134164521 0.0013227043475 0.0013042410747 0.0017321274466 
0.0017096706761 0.0016892238046 0.0016706057587 0.0016535053451 0.0016374967522 0.001622267564 0.0016071332627 0.0015916610465 0.0015757320602 
0.0015591786095 0.0015419927641 0.0015242018475 0.0015059014739 0.001487177239 0.0014681208482 0.0014488244951 0.0014293783985 0.0014098470751 
0.0013903167699 0.001370855498 0.0013515327332 0.0013324297617 0.0013136077847 0.0012951949258 0.0012771820922 0.001696779931 0.001675665413 
0.0016564933233 0.001639039629 0.0016229446248 0.001607936567 0.0015932742223 0.0015784735424 0.0015633141441 0.0015476021856 0.0015312096821 
0.0015141389762 0.0014964677294 0.0014782794378 0.0014596840371 0.0014407797154 0.0014216789461 0.001402456015 0.001383204428 0.001363998188 
0.0013449070227 0.0013259972762 0.001307345664 0.001289007517 0.0012711072886 0.0012536329679 0.0016667263013 0.0016468794037 0.0016288846407 
0.0016124709034 0.0015974359981 0.0015830253275 0.0015687299795 0.0015542526421 0.0015393143965 0.0015237108443 0.0015073997691 0.0014903906695 
0.0014727793031 0.0014546575536 0.0014361469078 0.001417354364 0.0013983991182 0.0013793626709 0.0013603456685 0.0013414232686 0.0013226671018 
0.0013041441743 0.0012859001234 0.0012680525315 0.0012505731807 0.0012337084842 0.0016421240086 0.0016234472111 0.0016065129579 0.0015912127992 
0.0015768139077 0.0015628099738 0.0015488617132 0.0015346245364 0.001519757646 0.001504205365 0.0014879152107 0.0014709193802 0.0014533275312 
0.0014352402016 0.0014167832316 0.0013980751484 0.00137922342 0.0013603368639 0.001341512331 0.0013228325281 0.001304367796 0.0012861882747 
0.0012683354381 0.0012509249373 0.0012339241294 0.0012176112371 0.001623078718 0.0016054577733 0.0015896598363 0.0015750229324 0.0015610731249 
0.001547452007 0.0015337559349 0.0015195826653 0.0015047397545 0.0014891729893 0.001472855886 0.0014558393751 0.0014382402996 0.0014201658625 
0.0014017507539 0.0013830968023 0.001364327681 0.0013455633334 0.001326893707 0.0013084128583 0.0012901968507 0.0012722930484 0.0012548137781 
0.0012377564456 0.0012212753353 0.0012053990286 0.0016096324168 0.0015931490327 0.001578024271 0.0015638697014 0.0015503293625 0.0015369421634 
0.0015233461615 0.0015091591779 0.0014942861181 0.0014786530678 0.0014622746265 0.0014452135744 0.0014275925874 0.0014095206371 0.0013911291447 
0.0013725269354 0.0013538353991 0.0013351738676 0.001316638762 0.001298324732 0.0012803147207 0.0012626989598 0.0012454289747 0.0012287575341 
0.0012126603703 0.0011970817918 0.001601995168 0.0015861529372 0.0015715164684 0.0015577866395 0.001544492723 0.0015312392145 0.0015175894818 
0.0015033223461 0.0014883415292 0.0014726039157 0.0014561354598 0.0014390172413 0.0014213718536 0.0014033116901 0.0013849496748 0.0013663987448 
0.001347789248 0.0013292253778 0.0013108109699 0.0012926397142 0.0012748185483 0.0012573899406 0.0012403624272 0.0012239677066 0.0012080694158 
0.0011929812435 0.0015996962864 0.0015843056594 0.0015700838448 0.0015565905284 0.0015434241591 0.0015300887486 0.0015163192386 0.0015018956982 
0.0014867586138 0.0014708891695 0.0014543174819 0.0014371530156 0.0014194966719 0.0014014460975 0.0013831304879 0.0013646496753 0.001346129311 
0.0013276706597 0.0013094157632 0.0012913764914 0.0012736656456 0.0012563176484 0.0012395702871 0.0012232818643 0.0012077652615 0.0011929639619 
0.0016024335326 0.0015874006433 0.0015733821309 0.0015599825844 0.001546702485 0.0015332029124 0.0015192024792 0.0015045800811 0.0014892544206 
0.0014732323824 0.0014565643315 0.0014393619297 0.0014216960791 0.0014036847562 0.0013854401423 0.0013670541073 0.0013486870161 0.0013303500657 
0.0013121836392 0.0012942530589 0.0012766182397 0.0012595107184 0.0012428020993 0.0012268083199 0.0012114876018 0.0011968940663 0.0016097692001 
0.0015948614589 0.0015808338633 0.0015672985884 0.0015537864014 0.0015400068723 0.0015257181982 0.0015108323843 0.0014952954759 0.0014791210782 
0.0014623678078 0.001445139848 0.001427503353 0.0014095662258 0.0013914225599 0.0013732129036 0.0013549464401 0.0013367596191 0.0013187155695 
0.0013009612909 0.0012834693726 0.0012663808037 0.0012499273234 0.0012340648067 0.0012188786726 0.0012044237596 0.0016207650226 0.0016057501853 
0.0015915315208 0.0015776462852 0.0015637647581 0.0015495879418 0.0015349679625 0.0015197937169 0.0015040414443 0.0014877324699 0.0014709291796 
0.001453703949 0.0014361370285 0.0014183562929 0.0014003624675 0.0013822823746 0.0013641961564 0.0013461965402 0.0013283394477 0.0013106702499 
0.0012933056394 0.0012764729986 0.0012601401063 0.0012443868823 0.0012292939133 0.0012148858077 0.0016339988551 0.0016186885633 0.0016040142897 
0.001589658292 0.0015752970453 0.001560675558 0.0015456739414 0.0015302036905 0.0015142513306 0.0014978480148 0.0014810179218 0.0014638962422 
0.0014464522801 0.0014287932784 0.0014110120438 0.0013931611611 0.0013753166686 0.0013575262959 0.0013398267807 0.0013223338522 0.0013052587944 
0.0012885775408 0.0012723656828 0.0012567094553 0.0012416398167 0.0012273009025 0.0016475720142 0.0016317074886 0.0016164681767 0.0016015313544 
0.001586620633 0.00157151933 0.0015561339226 0.0015403881702 0.001524282073 0.0015078465462 0.0014910681439 0.0014740197348 0.0014567667913 
0.0014393538946 0.0014218471223 0.001404286874 0.0013867366192 0.0013690368737 0.0013516924123 0.0013345505775 0.0013176861664 0.0013011736141 
0.0012850605285 0.00126949658 0.0012545093695 0.001240174487 0.0016590624578 0.0016425709923 0.0016266771564 0.001611107204 0.001595612978 
0.0015800572309 0.0015643190428 0.0015483911279 0.0015321797539 0.0015157027211 0.0014990387119 0.0014821976089 0.0014652148415 0.0014481228986 
0.0014309669384 0.0014137702307 0.0013964515956 0.0013792299711 0.0013622029075 0.0013453442105 0.0013287233593 0.001312374624 0.0012964470879 
0.0012809764377 0.0012660550426 0.0012517703226 0.0016660535199 0.0016489049784 0.0016323506636 0.0016161626146 0.0016001369542 0.0015842103692 
0.0015681833229 0.0015520586129 0.0015358123408 0.0015194375562 0.0015029742243 0.0014864249997 0.0014697974688 0.0014531190958 0.0014363985241 
0.001419517932 0.0014026739405 0.0013859482113 0.0013692938435 0.0013527291645 0.0013363959003 0.0013203172762 0.0013045694456 0.0012892801165 
0.0012744075825 0.0012600799303 0.0016664033239 0.0016486522066 0.0016315055584 0.0016148112163 0.0015983490904 0.0015820491998 0.0015658394181 
0.001549653769 0.0015334819424 0.0015173005149 0.0015011375972 0.0014849763007 0.0014688052259 0.0014526289201 0.0014363321417 0.0014199912773 
0.0014037403681 0.0013874899195 0.0013712293264 0.0013550794549 0.0013390636303 0.0013232476484 0.0013077632148 0.0012925628223 0.0012777756053 
0.0012634693444 0.0024333432637 0.0023946078717 0.002357343404 0.0023215882745 0.002287318027 0.0022545546519 0.0022232056659 0.0021930806605 
0.0021641377325 0.0021363259247 0.0021091325706 0.0020830068291 0.002057546208 0.0020326737592 0.0020081927889 0.0019841684615 0.0019602903597 
0.0019365986191 0.0019129468684 0.00188936124 0.0018658176344 0.0018423182123 0.0018188876097 0.0017955611478 0.0017723837147 0.0017494115144 
0.0024026975625 0.0023649545264 0.0023287484058 0.0022940774962 0.0022609843715 0.002229387091 0.002199099107 0.0021700656067 0.0021422201502 
0.0021149950643 0.0020888504217 0.0020633122726 0.0020383333082 0.0020136962301 0.0019894975877 0.0019654366388 0.0019415770383 0.0019177599484 
0.0018940274451 0.0018703547751 0.0018467395236 0.0018231992968 0.0017997640895 0.0017764714804 0.0017533730947 0.0017305254015 0.002364706336 
0.0023280564308 0.0022929822073 0.0022595517504 0.0022276297306 0.0021972900451 0.0021682342363 0.0021404718938 0.0021133938762 0.0020874536435 
0.002062130264 0.0020373094287 0.0020127979838 0.0019886633361 0.0019645913743 0.0019407698977 0.0019169187527 0.0018931446569 0.001869426225 
0.0018457634995 0.0018221691265 0.0017986729533 0.0017753083669 0.0017521223906 0.0017291690032 0.001706508721 0.0023208891282 0.0022853929115 
0.0022515867193 0.0022193714209 0.0021888430183 0.0021597354692 0.0021320633159 0.002105198764 0.0020795763187 0.0020546827273 0.002030221686 
0.0020060645344 0.0019822443367 0.0019584341191 0.0019348227278 0.0019111256439 0.0018874594259 0.0018638180704 0.0018402093612 0.0018166503082 
0.0017931600941 0.0017697870853 0.0017465692556 0.0017235623548 0.0017008189995 0.0016784045217 0.0022731227788 0.0022388069462 0.0022063019469 
0.0021754980866 0.0021462384401 0.0021182145065 0.0020918544514 0.00206655435 0.0020420966092 0.0020181474309 0.0019945411147 0.0019711062243 
0.0019478803817 0.0019246890814 0.0019013351324 0.0018779477749 0.0018545374316 0.001831112805 0.0018076967476 0.0017843209099 0.0017610242191 
0.0017378479984 0.0017148461006 0.0016920753823 0.0016696029677 0.0016474917509 0.0022232503671 0.0021903286817 0.002159163179 0.0021296362789 
0.0021014623877 0.0020751356692 0.0020500525318 0.0020259687119 0.0020025340573 0.0019795249873 0.0019567164755 0.0019341131125 0.0019114559805 
0.0018886503281 0.0018657139961 0.0018426820164 0.0018195790317 0.0017964320962 0.0017732750723 0.0017501458365 0.0017271028585 0.0017041897269 
0.0016814682853 0.0016590006234 0.0016368538612 0.001615098549 0.0021732257741 0.0021416295582 0.0021118172521 0.0020832756987 0.0020568248105 
0.0020318232331 0.0020079434809 0.0019849214581 0.001962468119 0.0019403200046 0.0019183743739 0.001896401952 0.0018742100964 0.0018518347276 
0.0018293147964 0.0018066555604 0.0017838903857 0.0017610620333 0.0017382118141 0.0017153899032 0.0016926531951 0.0016700580734 0.00164766928 
0.0016255539472 0.0016037811693 0.0015824062866 0.0021244077436 0.0020937485706 0.0020652166477 0.0020384837248 0.0020133602522 0.0019895407425 
0.0019667792609 0.0019447569294 0.0019231794216 0.0019019060385 0.0018806188197 0.0018591136058 0.0018373711134 0.0018154340584 0.001793306313 
0.0017710127938 0.0017485971402 0.0017261068373 0.0017035914607 0.0016811143592 0.0016587257005 0.0016364918447 0.0016144787921 0.0015927599922 
0.0015714015433 0.001550463055 0.0020775210869 0.0020485214756 0.0020214253064 0.0019959807548 0.001972043914 0.0019493548331 0.001927604208 
0.0019064723127 0.001885777704 0.0018651714041 0.0018442967063 0.0018232668617 0.0018019484659 0.0017803938704 0.001758624366 0.0017366783562 
0.0017146012859 0.0016924551845 0.0016702932279 0.0016481746014 0.0016261598699 0.0016043155482 0.0015827097224 0.0015614132337 0.0015404809025 
0.0015200284548 0.0020341120702 0.002006535434 0.0019806928324 0.0019564750247 0.001933679663 0.0019120214081 0.0018911728918 0.0018708093098 
0.0018509156535 0.0018306828184 0.0018103172715 0.0017896469352 0.0017686805863 0.0017474514932 0.0017259959264 0.0017043581177 0.0016826000888 
0.0016607862486 0.0016389665354 0.0016172152152 0.0015955876703 0.0015741492084 0.0015529696946 0.0015321204801 0.0015116555804 0.001491690957 
0.0019945680904 0.0019682291841 0.0019436049762 0.0019205384124 0.001898791424 0.0018780570741 0.0018581660475 0.0018385688815 0.0018189285321 
0.0017991744627 0.001779139343 0.0017587893072 0.0017381089277 0.0017171512639 0.0016959607914 0.0016745963344 0.001653125028 0.0016316181272 
0.0016101303588 0.001588735364 0.0015674935118 0.0015464651687 0.0015257208777 0.0015053091545 0.0014853433595 0.0014657970503 0.0019591446071 
0.00193402015 0.0019105477306 0.0018885448938 0.0018677420061 0.0018479955986 0.0018287206401 0.0018095452893 0.001790339264 0.0017709331905 
0.0017511915371 0.0017310829895 0.0017106392121 0.0016899010562 0.0016689332957 0.0016478008343 0.0016265894175 0.0016053541967 0.0015841755046 
0.0015631188979 0.0015422467191 0.0015216195917 0.001501305063 0.0014813493822 0.0014618634188 0.0014428189045 0.0019281526415 0.0019041744758 
0.0018817704557 0.0018607284982 0.0018409532091 0.0018218313042 0.0018029958939 0.0017842606825 0.0017654102554 0.0017462554521 0.0017267351496 
0.0017068198846 0.0016865586501 0.0016659977928 0.0016452137127 0.0016242817369 0.0016032902349 0.0015823016049 0.0015614014128 0.0015406553154 
0.0015201287742 0.0014998838165 0.0014799608489 0.0014604695285 0.0014413709492 0.0014228970105 0.0019017759755 0.0018788556665 0.0018574224527 
0.001837438328 0.0018182976716 0.0017996366863 0.0017812506795 0.0017628900264 0.0017442598446 0.0017253061703 0.0017059497124 0.0016861802704 
0.0016660599165 0.0016456438724 0.0016250160199 0.0016042596104 0.0015834500232 0.0015626848319 0.0015420329266 0.0015215698307 0.0015013583776 
0.0014814648463 0.0014619257685 0.001442851573 0.0014242014068 0.0014062409947 0.0018801205408 0.0018581581199 0.0018377894633 0.0018184450261 
0.0017997831937 0.0017815887187 0.0017635805903 0.0017454337397 0.0017269848948 0.0017081699278 0.0016889294056 0.0016692698946 0.001649261342 
0.0016289669002 0.0016084800172 0.0015878696297 0.0015672301902 0.0015466583715 0.0015262253417 0.0015060139956 0.0014860883413 0.0014664927704 
0.0014473329454 0.001428602495 0.0014104497606 0.0013928979382 0.0018634299513 0.0018422981827 0.0018225618468 0.00180370501 0.0017855146434 
0.0017676662817 0.00174990442 0.0017319061502 0.0017135898603 0.0016948625503 0.0016757013649 0.0016561240265 0.0016362076405 0.0016160194321 
0.0015956511282 0.0015751808342 0.0015547013738 0.0015343087213 0.0015140801947 0.0014940953152 0.0014744255632 0.0014551520073 0.0014362230071 
0.0014178835507 0.0014001046166 0.0013828221984 0.0018511755985 0.0018308656614 0.0018116081833 0.0017932193749 0.0017753715719 0.0017577958532 
0.0017401445871 0.0017222375445 0.0017039798768 0.0016853007612 0.0016661864258 0.0016466733064 0.0016268404686 0.001606761359 0.0015865112136 
0.0015661749423 0.0015458553888 0.0015256346905 0.0015055966854 0.0014858179766 0.0014663950762 0.001447356532 0.0014287043958 0.0014106624685 
0.00139308826 0.0013762872867 0.0018435109291 0.0018236407636 0.0018048287174 0.0017867608748 0.0017691717809 0.0017516791506 0.001734088204 
0.0017162042379 0.0016979572889 0.0016792963177 0.0016602104454 0.0016407659203 0.0016210227753 0.0016010429943 0.0015809202899 0.001560729612 
0.0015405711021 0.0015205243975 0.0015007121992 0.0014811312437 0.0014618787661 0.0014429762078 0.0014246505564 0.0014067508439 0.0013895811003 
0.0013730756811 0.0018398430349 0.0018203668206 0.0018018387419 0.0017839926265 0.0017664571169 0.0017489897269 0.0017313624493 0.0017134639238 
0.0016951926101 0.0016765267277 0.0016574697391 0.0016380933833 0.0016184340217 0.0015985744848 0.0015785949555 0.0015585659205 0.001538624119 
0.0015187611782 0.001499099556 0.0014796882592 0.0014605721074 0.001441968483 0.0014237362238 0.0014061791237 0.0013892441447 0.00137297454 
0.0018397125896 0.0018204568544 0.0018020564363 0.0017842507718 0.0017666859567 0.0017491510666 0.0017314406731 0.0017134660112 0.0016951493945 
0.0016764687544 0.0016574436645 0.0016381407311 0.0016185922205 0.0015988762723 0.0015790613693 0.0015592656177 0.0015394787098 0.0015198138802 
0.001500334069 0.0014811545341 0.0014622384533 0.0014437121959 0.0014257932447 0.0014084237025 0.0013916753233 0.0013755869411 0.0018422539314 
0.0018230536778 0.0018046596409 0.0017867283858 0.0017690306372 0.0017513312135 0.0017335014189 0.0017154257189 0.0016970522145 0.0016783683979 
0.0016594004938 0.0016401873707 0.0016207794908 0.0016012789306 0.0015816635497 0.0015620387167 0.0015424810736 0.0015230522453 0.0015037990595 
0.0014847524111 0.0014660153294 0.0014478000164 0.0014300599074 0.0014128602274 0.0013962656735 0.0013802865 0.0018462798809 0.0018270161664 
0.0018084222509 0.0017902883312 0.0017723747804 0.0017544745544 0.0017364797406 0.0017182913744 0.0016998683129 0.0016812106965 0.0016623108956 
0.0016432750969 0.0016240476273 0.0016047142905 0.0015853499139 0.0015659915231 0.0015467012389 0.0015275137515 0.0015084533105 0.0014896219977 
0.0014712182918 0.0014532040353 0.0014356407859 0.001418598008 0.0014020925386 0.0013862517691 0.0018503411219 0.0018308143156 0.0018119588195 
0.0017935441926 0.0017753461263 0.0017572321144 0.0017390661808 0.0017207758518 0.0017023371542 0.0016837532882 0.0016649850458 0.0016460805135 
0.0016270853072 0.0016080273077 0.0015889588996 0.0015699086756 0.0015509298766 0.001531852588 0.0015131704436 0.0014947194306 0.0014765619525 
0.0014587591745 0.0014413445833 0.0014244527004 0.0014080945215 0.0013923328587 0.0018526693875 0.0018328439096 0.001813663623 0.0017949296537 
0.0017764474215 0.0017581059095 0.0017397880667 0.0017214845779 0.001703051995 0.0016845155227 0.0016659223186 0.0016472637974 0.001628560428 
0.0016098331616 0.0015911184394 0.0015724322202 0.0015536864595 0.0015350924394 0.0015167388188 0.0014985892538 0.0014807015329 0.0014630976053 
0.0014459179935 0.0014291673006 0.0014129393348 0.001397300908 0.0018515968184 0.0018314500832 0.0018119384381 0.0017928919131 0.0017741471274 
0.0017556602055 0.0017372343631 0.0017188623187 0.0017005049146 0.0016821375092 0.0016637848319 0.001645433317 0.0016270841593 0.001608757778 
0.0015904598412 0.0015720701502 0.0015537832849 0.0015356740892 0.0015176910347 0.0014998425606 0.00148225915 0.0014649516221 0.0014479827162 
0.0014314657817 0.0014153453034 0.0013997346455 0.0018456556539 0.0018252205389 0.0018054203847 0.001786144975 0.0017672033813 0.0017485403489 
0.0017300849546 0.0017117643597 0.0016935561328 0.0016754238533 0.0016573841821 0.0016394122045 0.0016214927731 0.001603630643 0.0015857138124 
0.0015678223389 0.0015500921175 0.0015324324288 0.0015148281747 0.0014973894939 0.00148013052 0.0014631036591 0.0014464268663 0.0014300391234 
0.0014140548866 0.0013985304465 0.0026701181161 0.0026283942849 0.0025881009376 0.0025492598086 0.0025118366499 0.002475852141 0.0024412224594 
0.0024077750201 0.0023754922039 0.0023443492364 0.0023138585046 0.0022844874412 0.0022558494068 0.0022278806891 0.0022003971808 0.0021734768516 
0.0021468217075 0.0021204822485 0.0020943185307 0.0020683583893 0.0020425749408 0.0020169634919 0.0019915388204 0.0019663243083 0.0019413516598 
0.0019166641846 0.0026389592657 0.0025981992716 0.0025589133219 0.0025210836745 0.0024847457259 0.0024498201299 0.0024161376542 0.0023836706146 
0.0023523892053 0.0023217636486 0.0022922846329 0.0022635029957 0.0022353889394 0.0022077262481 0.0021806261744 0.0021537894916 0.0021272836279 
0.0021009525599 0.0020748382784 0.0020489134198 0.0020231699657 0.0019976173423 0.0019722750468 0.0019471696963 0.0019223394916 0.0018978278812 
0.0026022506019 0.0025625362887 0.0025243115392 0.00248762825 0.0024523461666 0.0024185478305 0.0023859596098 0.0023546300753 0.0023239989579 
0.0022945658441 0.0022658501218 0.0022377642586 0.0022101290258 0.0021830168927 0.0021561147763 0.0021296047809 0.0021032121716 0.0020770224342 
0.0020510234894 0.0020252053476 0.0019995718348 0.0019741431818 0.0019489419104 0.0019240031996 0.0018993685065 0.0018750852853 0.0025610102539 
0.0025223867602 0.0024853426129 0.00244976438 0.0024157451139 0.0023830353164 0.0023513423295 0.0023211081762 0.002291807053 0.002263322813 
0.0022354034152 0.0022079487157 0.0021810015857 0.0021542409754 0.0021278434879 0.0021015230216 0.002075381765 0.0020494060732 0.0020235942061 
0.0019979533188 0.0019724931465 0.0019472485785 0.0019222512262 0.0018975348108 0.0018731486794 0.0018491415191 0.0025165372964 0.0024790184215 
0.002443176892 0.0024088900366 0.0023760031396 0.0023442303279 0.0023140421544 0.002284896649 0.0022566445616 0.0022290171813 0.0022018943568 
0.0021751312998 0.0021487749576 0.0021226471717 0.0020965410672 0.0020705726969 0.0020447387141 0.0020190345281 0.0019934741473 0.0019680670879 
0.0019428499654 0.0019178481437 0.0018931035178 0.0018686624378 0.0018445717649 0.0018208881258 0.0024701339095 0.0024339240872 0.0023993163915 
0.0023661832055 0.0023342475024 0.002304032269 0.0022749887742 0.0022469441922 0.0022196242404 0.0021928715104 0.0021665073912 0.0021405594083 
0.0021147735441 0.0020890476867 0.0020633847416 0.0020378055748 0.0020123163293 0.0019869293605 0.0019616634348 0.0019365444731 0.0019116157913 
0.001886908477 0.0018624712452 0.0018383529273 0.0018146074388 0.0017912904148 0.0024233280555 0.0023883524017 0.0023549031549 0.002322722084 
0.0022923816349 0.0022633692269 0.002235419587 0.0022083506955 0.0021819523729 0.0021560266922 0.0021305136335 0.0021052014412 0.0020798977932 
0.0020546296655 0.0020294087147 0.0020042315855 0.0019791104395 0.0019540714403 0.0019291406327 0.0019043537988 0.0018797540393 0.0018553841999 
0.0018312959797 0.0018075414132 0.0017841772021 0.0017612436483 0.0023771941613 0.0023430620864 0.0023108719673 0.0022803009269 0.0022511712831 
0.0022232391398 0.0021963283018 0.0021702062932 0.0021446592339 0.0021196075507 0.0020947703876 0.0020699546195 0.0020451362521 0.0020203401786 
0.0019955505878 0.001970772055 0.0019460294627 0.0019213534506 0.0018967818024 0.0018723534596 0.0018481152849 0.0018241168508 0.0018004106608 
0.0017770563746 0.0017541058578 0.0017316038685 0.0023322992991 0.0022997303666 0.0022688721625 0.0022394804552 0.0022114448627 0.0021845662711 
0.0021586163402 0.0021333666453 0.0021087102502 0.0020843567019 0.0020599778614 0.0020356907997 0.002011350555 0.0019869889771 0.0019626044237 
0.0019382134387 0.0019138420583 0.0018895355684 0.001865332525 0.0018412788397 0.0018174224041 0.0017938168872 0.0017705175554 0.0017475816501 
0.0017250497953 0.0017030223538 0.0022901193007 0.0022588840428 0.0022291769219 0.0022009193677 0.002173948225 0.0021480488623 0.0021229813877 
0.0020986336939 0.002074693698 0.0020507726978 0.0020269687487 0.0020031164364 0.0019791997636 0.0019552300883 0.0019312182371 0.0019071849406 
0.001883172168 0.0018592276302 0.0018353873157 0.0018117132093 0.0017882492344 0.0017650492072 0.001742170977 0.0017196730138 0.0016975954035 
0.0016760389138 0.0022510278578 0.0022209343655 0.0021923605447 0.002165176585 0.002139197219 0.0021141949578 0.0020900919601 0.0020664260251 
0.0020429270472 0.0020195638487 0.0019961806187 0.0019727347274 0.0019491890323 0.0019255691811 0.0019018921045 0.0018781916056 0.0018545138049 
0.0018309093648 0.0018074302129 0.0017841277883 0.0017610557386 0.0017382647007 0.0017158142085 0.0016937411111 0.0016721455007 0.001650986248 
0.0022152895969 0.0021863246557 0.0021588241008 0.0021326411644 0.0021075703941 0.0020835537476 0.0020600995743 0.0020369181483 0.0020139738103 
0.0019910200263 0.0019680297237 0.0019449247851 0.0019217100124 0.0018983970624 0.001875021011 0.0018516206641 0.0018282596754 0.0018049745615 
0.0017818349255 0.0017588921764 0.0017362005046 0.0017138116578 0.0016917840321 0.0016701534576 0.0016490186483 0.0016283373928 0.0021832300702 
0.0021553331279 0.0021288346591 0.0021035682076 0.0020795109596 0.0020561407678 0.0020331817787 0.0020105231128 0.0019879986518 0.0019654395 
0.0019427816838 0.0019199764408 0.0018970444676 0.0018740014224 0.0018508930917 0.0018277737482 0.0018046910451 0.0017817066498 0.0017588863813 
0.0017362826436 0.0017139538905 0.0016919535968 0.0016703142254 0.0016491366988 0.0016283704838 0.0016082353361 0.002155041007 0.0021281341566 
0.0021025547031 0.0020783221487 0.0020549087675 0.002032044377 0.0020096109395 0.0019874263179 0.001965236715 0.0019429941429 0.001920615677 
0.0018980663143 0.0018753782058 0.0018525747805 0.001829709483 0.0018068381242 0.0017840126475 0.0017613112655 0.0017387875096 0.0017165040169 
0.0016945175023 0.0016728820003 0.0016516301816 0.0016307789036 0.0016105660006 0.0015908851864 0.0021308252192 0.0021048234686 0.0020802806287 
0.0020566798108 0.0020337780771 0.0020114468623 0.0019894865446 0.0019676294629 0.0019457417662 0.0019237626897 0.0019016185572 0.0018792902184 
0.0018568167824 0.0018342286645 0.0018115922271 0.0017889463273 0.001766362837 0.0017439186048 0.0017216681503 0.0016996826922 0.001678014678 
0.0016567006525 0.0016358417707 0.0016154158509 0.0015955713219 0.0015763180775 0.0021108089149 0.002085604894 0.0020616806044 0.0020385937256 
0.0020162197755 0.0019943227577 0.0019727213302 0.001951138742 0.0019295128755 0.001907747874 0.0018858022118 0.0018636661389 0.0018413857648 
0.0018190045495 0.0017965629957 0.001774135475 0.0017517836998 0.0017295839984 0.0017075969481 0.0016858881899 0.0016645178195 0.0016435575095 
0.0016229478315 0.0016029259799 0.0015834550145 0.0015644614813 0.0020944447157 0.0020700507422 0.0020466219104 0.0020240521496 0.0020021028792 
0.00198058856 0.0019592248962 0.0019378694349 0.001916436901 0.0018948480289 0.0018730673437 0.0018511029359 0.0018290034112 0.0018068123584 
0.0017845773963 0.0017623581151 0.0017402358364 0.0017182725752 0.0016965355943 0.0016750878149 0.0016540106027 0.0016333248872 0.0016130226239 
0.0015933190562 0.0015740642623 0.001555552023 0.0020818580832 0.0020579239438 0.0020349882983 0.0020128186953 0.0019912365139 0.0019699356295 
0.0019487745582 0.0019275857093 0.0019063019794 0.0018848590206 0.0018632223539 0.0018414298729 0.0018195123204 0.0017975035714 0.0017754715284 
0.0017534676734 0.0017315712737 0.0017098434092 0.0016883901963 0.0016671938734 0.0016463385353 0.0016258340856 0.0016058968671 0.001586366506 
0.0015675427964 0.001549334818 0.002072452142 0.0020489684561 0.0020264003839 0.0020045648924 0.001983170932 0.0019620453079 0.0019410027113 
0.0019199491735 0.0018987806121 0.0018774599651 0.0018559624723 0.0018343359943 0.0018125881935 0.0017907759427 0.0017689557002 0.0017471765532 
0.0017255559133 0.0017040680526 0.0016828202808 0.0016618465358 0.0016411785853 0.0016210212931 0.0016012221719 0.0015820739293 0.0015635132108 
0.0015455704567 0.0020658049197 0.0020426403443 0.0020203603662 0.0019986731133 0.0019774119938 0.0019563869929 0.0019354262221 0.0019144517993 