# vtk DataFile Version 5.1
vtk output
ASCII
DATASET STRUCTURED_POINTS
DIMENSIONS 26 26 26
SPACING 0.08 0.08 0.08
ORIGIN -1 -1 0.5
POINT_DATA 17576
FIELD FieldData 1
potential 1 17576 double
0.0007373913502 0.00074336599486 0.00074924371619 0.00075498965636 0.00076060813956 0.00076611569635 0.00077154058216 0.00077691234439 0.00078228660497 
0.00078802771511 0.00079357834023 0.00079928434429 0.00080518515369 0.00081131657392 0.00081770389699 0.00082437422548 0.00083131984147 0.00083860245096 
0.00084620105266 0.00085411315903 0.00086232889224 0.00087081324794 0.00087957264816 0.00088843751461 0.00089761795083 0.00090695519655 0.00073551560007 
0.00074139301595 0.00074715256943 0.00075275391855 0.0007582068363 0.00076354438122 0.00076877930047 0.00077397406464 0.00077919822508 0.00078481012184 
0.00079028009145 0.00079595343102 0.00080187146105 0.00080806491516 0.00081455625535 0.00082135025594 0.00082846321901 0.00083591425132 0.00084368856521 
0.00085177658082 0.00086016068982 0.00086880232012 0.00087758882033 0.00088670042407 0.00089598868249 0.00090541273835 0.0007307136983 0.00073647709743 
0.00074209898838 0.00074752655788 0.00075280352099 0.00075792883547 0.0007629571052 0.00076795880895 0.00077327235579 0.00077846513791 0.00078383198037 
0.00078944856842 0.00079535238173 0.0008015791447 0.00080813074866 0.00081503328674 0.00082226063662 0.00082984430892 0.00083775726126 0.00084598399768 
0.00085450168085 0.00086326865782 0.0008721726031 0.00088138194145 0.00089074905515 0.00090023054313 0.00072380779466 0.0007294420216 0.00073489881132 
0.00074015105165 0.0007452217631 0.00075013583981 0.00075495749894 0.00075975765111 0.00076488808616 0.00076993442149 0.00077519781471 0.0007807460738 
0.00078663106971 0.0007928621687 0.00079946785669 0.0008064169084 0.00081374976847 0.00082143354861 0.00082944997598 0.00083778229697 0.00084640137433 
0.00085526275314 0.00086425327603 0.00087353239481 0.00088295342598 0.00089246875254 0.00071574949594 0.00072125184462 0.00072652996303 0.00073159663342 
0.00073646079428 0.00074117477707 0.0007457947966 0.0007504118052 0.00075539885165 0.00076030755021 0.00076547899274 0.00077098383263 0.00077684331106 
0.00078309309475 0.0007897314985 0.00079672780594 0.00080412311727 0.0008118793578 0.00081997491632 0.00082838424203 0.00083707768722 0.00084590638607 
0.00085505883368 0.00086438243962 0.00087383205115 0.00088335785103 0.00070745003416 0.0007128119808 0.00071792447467 0.00072280241297 0.00072748170325 
0.00073200702884 0.00073645694595 0.00074117259437 0.00074579351367 0.0007506235249 0.00075574838751 0.00076122931548 0.00076710004909 0.00077337092266 
0.0007800460908 0.00078708356862 0.00079453397364 0.00080234519363 0.00081049703333 0.00081895955593 0.00082770360083 0.00083658056624 0.00084576839066 
0.0008551143882 0.00086457191242 0.00087408856435 0.00069970347411 0.00070491796529 0.0007098669309 0.00071457463607 0.00071908550038 0.00072345318687 
0.00072777033616 0.00073238112324 0.0007369412258 0.00074173804467 0.00074686545397 0.00075237793276 0.00075829123116 0.00076460950895 0.00077133779242 
0.00077842389408 0.00078592337331 0.00079378211851 0.00080197793282 0.00081047980673 0.00081925681517 0.00082816409742 0.00083736696524 0.00084671744905 
0.00085616453892 0.00086565486494 0.00069308013805 0.00069815754998 0.00070294961027 0.00070750966629 0.00071187681129 0.00071612461837 0.0007203533213 
0.00072491261732 0.00072946018562 0.00073428887442 0.00073948192181 0.00074506852202 0.00075106255403 0.00075746499977 0.00076426796792 0.00077142012782 
0.00077897879485 0.00078688840866 0.00079512503333 0.00080365932029 0.00081237305556 0.00082138072898 0.00083058526447 0.00083992486863 0.00084934797433 
0.00085879355761 0.00068799764115 0.00069293051099 0.00069759051802 0.00070201852954 0.0007062748355 0.00071044264091 0.0007148545278 0.00071919676113 
0.00072379030731 0.00072870145658 0.00073400420673 0.00073971091966 0.00074582842258 0.00075235034364 0.00075922407305 0.00076650675788 0.00077414431777 
0.00078211645573 0.00079039876183 0.00079896482077 0.00080770042881 0.00081671333824 0.00082590997294 0.0008352289254 0.00084461302546 0.00085401718227 
0.0006846918792 0.00068950360821 0.00069404486561 0.00069837045044 0.00070255077427 0.00070668048619 0.00071109708663 0.00071547820739 0.00072017467372 
0.0007252245526 0.00073067697749 0.0007365459415 0.00074282665822 0.00074950501314 0.00075651939469 0.00076392744914 0.00077166828481 0.00077972266567 
0.00078806520388 0.00079667100428 0.00080543425196 0.00081445002879 0.00082363582588 0.00083292518887 0.00084227714185 0.00085162190004 0.00068332114144 
0.00068803149659 0.00069247682954 0.00069672726966 0.00070086400231 0.00070499994244 0.0007094467573 0.00071393721462 0.00071877895553 0.00072399570342 
0.00072963401701 0.00073569796064 0.00074217555426 0.00074904209664 0.00075622327886 0.00076379162341 0.00077166498932 0.00077982657464 0.00078825057534 
0.00079684519794 0.00080571282114 0.00081473972744 0.00082391792352 0.00083318773503 0.00084249542879 0.00085178410878 0.0006840064679 0.00068860109592 
0.00069297203955 0.00069717737605 0.00070131127538 0.00070547590685 0.00071001920906 0.0007146515849 0.00071966600048 0.00072508319681 0.00073093572292 
0.00073722009393 0.00074391705515 0.00075099677166 0.00075837483771 0.00076612406593 0.00077416045587 0.00078245771394 0.0007909882729 0.00079966575492 
0.00080858427613 0.00081763924047 0.00082682104186 0.00083607312548 0.00084534608817 0.00085458357784 0.00068672629474 0.00069125334775 0.00069557756317 
0.00069977278218 0.00070393793886 0.0007083670527 0.00071284835613 0.00071765273733 0.00072286934686 0.00072850821232 0.00073459601921 0.0007411178366 
0.00074805123711 0.00075535910788 0.00076295229426 0.00077090624632 0.00077912759123 0.00078758560186 0.00079625172143 0.00080503806944 0.00081403301924 
0.00082313803627 0.00083233967239 0.00084159060443 0.00085084138889 0.00086003885638 0.00069152177966 0.00069600577605 0.00070031788714 0.00070453140098 
0.00070874530555 0.00071330159919 0.00071794619937 0.00072295016209 0.00072839096803 0.00073426955395 0.00074060343236 0.00074737314427 0.00075455047874 
0.00076209749668 0.00076991615182 0.00077808705832 0.0007865093103 0.0007951512576 0.0008039256207 0.00081290143459 0.0008219966878 0.00083118037043 
0.00084043077913 0.00084970042973 0.00085894955943 0.00086812638719 0.00069838640761 0.00070285730785 0.0007071787939 0.00071143118332 0.00071576428744 
0.00072046785315 0.0007253048875 0.00073053067927 0.00073621184924 0.00074234028051 0.00074892584648 0.00075594689042 0.00076337025077 0.00077109451002 
0.00077920500772 0.00078760022384 0.00079623370918 0.00080507140089 0.00081403053214 0.00082316042611 0.00083239600534 0.00084167878402 0.00085100653796 
0.00086032766102 0.00086960239067 0.00087878273985 0.0007072877487 0.00071176863736 0.0007161418402 0.00072048535069 0.00072496095453 0.00072983983372 
0.00073489375698 0.00074035922535 0.00074629172895 0.00075267450394 0.00075951282638 0.00076678175059 0.00077444669727 0.00078240325627 0.00079074172079 
0.00079935910706 0.00080820645566 0.00081724704296 0.00082639724721 0.00083571073088 0.00084509812678 0.00085451590928 0.00086395345664 0.00087336064746 
0.0008826938021 0.00089191412595 0.0007181530442 0.00072268940848 0.00072713165948 0.00073162646712 0.00073643501489 0.00074135993358 0.00074665158614 
0.00075236964611 0.00075855835461 0.00076519614562 0.00077228190982 0.00077978892816 0.00078768582675 0.00079586264675 0.00080441926895 0.00081324588128 
0.00082230469343 0.00083154402015 0.0008409013769 0.00085039687095 0.00085995908609 0.00086953896206 0.00087911785661 0.00088864533521 0.00089807921463 
0.00090736914255 0.0007308793396 0.00073549051848 0.0007400863712 0.00074475262148 0.00074976306014 0.00075492482266 0.00076047144391 0.00076644855067 
0.00077289353956 0.00077977883135 0.00078710043727 0.0007948327035 0.0008029447538 0.00081132610021 0.00082008344427 0.00082910903379 0.00083835970792 
0.00084777040837 0.00085735056969 0.0008670355453 0.00087678349447 0.00088653951078 0.0008962857075 0.00090596203633 0.00091553578696 0.00092492817267 
0.00074528379216 0.00075003710941 0.00075480921223 0.00075968810111 0.0007649313881 0.00077035216166 0.00077616199694 0.00078240143143 0.00078909835417 
0.00079622084795 0.00080376217402 0.00081170155264 0.00082000643554 0.00082856808885 0.00083750409876 0.00084670323053 0.00085613254075 0.00086572346641 
0.00087548493748 0.00088535432947 0.00089528970508 0.00090523646406 0.00091516467221 0.00092502943716 0.00093476435702 0.00094435641528 0.00076104944155 
0.00076601626298 0.00077101056182 0.0007761391521 0.00078164287415 0.00078734278717 0.00079342269606 0.00079991998194 0.00080685532434 0.00081419314524 
0.00082193451172 0.00083005363889 0.00083852460925 0.00084723768678 0.00085632216399 0.00086567000953 0.00087524934482 0.000885000897 0.00089492567914 
0.00090496839271 0.00091507951343 0.00092521843167 0.00093533820915 0.00094540850853 0.00095536823589 0.00096516883334 0.00077777475351 0.000782984599 
0.00078824383482 0.00079365464271 0.0007994405262 0.00080542174858 0.00081177096323 0.00081851612176 0.00082567202697 0.000833204213 0.00084111663537 
0.00084938579463 0.00085798966388 0.00086681533968 0.00087601873082 0.00088547997003 0.00089516725034 0.00090506266953 0.0009151203848 0.00092531647998 
0.0009356051846 0.00094591536634 0.00095625173593 0.00096655259078 0.00097673283511 0.00098677855231 0.00079479130642 0.00080028618756 0.00080584199069 
0.00081167711231 0.00081764045483 0.00082390833547 0.00083051738862 0.00083749035386 0.00084484160552 0.00085254110148 0.00086058769754 0.00086896801642 
0.00087766065597 0.00088656568295 0.00089584022529 0.0009053775295 0.00091514871258 0.00092513481867 0.00093530769763 0.00094561902713 0.00095605730307 
0.00096655747295 0.00097710232393 0.00098760188545 0.00099804074039 0.0010083560847 0.0008112373645 0.00081704821641 0.00082292839832 0.00082907844584 
0.0008353453073 0.00084188945013 0.00084874200183 0.00085591465785 0.00086343079519 0.0008712568826 0.00087939622231 0.00088784179987 0.0008964870878 
0.00090551552238 0.00091481626084 0.00092437456753 0.00093418869514 0.00094423529039 0.00095446973399 0.00096489384177 0.00097545954681 0.00098612370096 
0.00099684532447 0.0010075628207 0.001018251169 0.0010288278251 0.00082610600341 0.00083224942004 0.00083845942404 0.00084491898751 0.0008514778423 
0.00085827751696 0.00086534121221 0.00087268336898 0.00088032299626 0.00088822938237 0.00089641665377 0.00090487768734 0.00091351660976 0.0009225195558 
0.00093178809463 0.00094133013335 0.00095114007384 0.00096118297986 0.00097146661993 0.00098195513701 0.00099262521834 0.0010034113832 0.0010142995895 
0.0010252021072 0.001036132293 0.0010470129423 0.00083835637763 0.00084482487289 0.00085135430358 0.00085810246329 0.00086492588038 0.00087194443953 
0.00087918466583 0.00088665321251 0.00089436741549 0.00090230870677 0.0009104889798 0.00091891231171 0.00092747617061 0.00093639987286 0.00094559073932 
0.00095505050082 0.00096479327698 0.00097481475233 0.00098509133125 0.0009956137339 0.0010063397683 0.001017229454 0.0010282304028 0.0010393453485 
0.0010505017072 0.0010616527655 0.00084709973697 0.00085386638991 0.00086076633955 0.00086768325255 0.00087473003027 0.00088192650675 0.00088929478093 
0.00089683867074 0.00090458322575 0.0009125036324 0.00092062268041 0.00092894073699 0.00093738255926 0.00094616692426 0.00095519870155 0.00096454748655 
0.00097417544072 0.00098410917575 0.00099434173421 0.001004846641 0.001015601794 0.0010265452958 0.0010376784236 0.0010489512021 0.0010603092822 
0.0010717113042 0.00081388062497 0.00082043546139 0.00082693581657 0.00083335149954 0.00083968971312 0.00084596704586 0.00085220802543 0.00085843435586 
0.00086469057093 0.00087132842433 0.00087777978155 0.00088438149905 0.00089116679072 0.00089816709457 0.00090540408118 0.00091290129741 0.00092064932299 
0.00092870698727 0.00093705341567 0.00094568747555 0.00095460211458 0.00096376638127 0.00097319152809 0.0009827135625 0.00099254835429 0.0010025435076 
0.00081373343324 0.00082022236711 0.00082664336291 0.00083296109194 0.00083918867351 0.00084535858097 0.00085147782595 0.00085759741946 0.00086377043653 
0.00087033977284 0.00087675923194 0.00088336369863 0.00089018806178 0.00089725862542 0.00090460028905 0.00091221370512 0.00092011664644 0.00092832898276 
0.00093683773893 0.00094563605312 0.00095470998633 0.00096402546169 0.00097359126509 0.00098324415877 0.00099319077562 0.0010032804206 0.00081140151675 
0.00081781258246 0.0008241395906 0.00083033646678 0.00083645000866 0.00084247775684 0.00084846666819 0.0008544712393 0.00086080909336 0.00086702614828 
0.00087339872204 0.00087999014864 0.00088683159804 0.00089395685537 0.00090136853401 0.00090909459626 0.00091711157147 0.00092545380983 0.00093409779225 
0.00094303198463 0.00095223807281 0.00096167944766 0.00097124808251 0.00098112178875 0.00099115577522 0.0010013146805 0.00080744400556 0.00081376483619 
0.00081997553961 0.00082605391179 0.00083202711286 0.00083791728898 0.00084377754417 0.00084965905839 0.00085588799565 0.00086202484097 0.00086834980287 
0.0008749181977 0.00088177580429 0.00088893206025 0.00089641685647 0.00090420289874 0.00091233454558 0.00092078358418 0.00092953646786 0.00093858141586 
0.00094789625747 0.0009574371449 0.0009671019252 0.0009770546139 0.00098715538779 0.00099736396221 0.00080251930586 0.00080875131422 0.00081483308212 
0.00082078469993 0.00082661779354 0.00083237977071 0.00083811211522 0.00084388166695 0.00085003201686 0.0008560873476 0.00086237393147 0.00086893259964 
0.00087579782884 0.00088299984997 0.00089054065542 0.00089839193961 0.00090660291696 0.00091513821881 0.00092398337505 0.0009331174469 0.00094251704117 
0.00095203952576 0.00096187969766 0.00097189188062 0.00098203824841 0.00099227695185 0.00079728141655 0.000803417114 0.00080938474889 0.00081520613395 
0.00082091822326 0.00082655764179 0.00083218394916 0.00083810986497 0.00084394346217 0.00084996044733 0.00085622740109 0.00086279589706 0.00086969723126 
0.00087694370657 0.00088454260069 0.00089245724767 0.00090074286502 0.00090935278232 0.00091827234583 0.00092747753069 0.00093694537701 0.00094653389159 
0.00095642775614 0.00096648171173 0.00097665658445 0.00098690990678 0.00079234430432 0.00079837758928 0.00080423301117 0.00080994030427 0.00081554323192 
0.00082108244915 0.00082662732051 0.00083249004734 0.00083829374239 0.0008442993855 0.00085058440355 0.00085719744488 0.00086415442482 0.00087146288398 
0.00087913219392 0.00088711476635 0.0008954705405 0.00090414961674 0.00091313540365 0.00092240217288 0.00093192537678 0.0009415665705 0.00095149819896 
0.00096158013023 0.00097176982997 0.0009820231269 0.00078818062795 0.0007941220654 0.00079987080828 0.00080548392694 0.00081099543769 0.00081646213877 
0.00082195618043 0.00082779268137 0.00083359710587 0.00083964647191 0.00084598847351 0.00085267358997 0.00085971128274 0.00086710793776 0.00087486099204 
0.00088292362045 0.00089135672276 0.00090010843992 0.00090915877099 0.00091848317762 0.0009279688862 0.00093773658406 0.00094769649878 0.0009577948453 
0.00096798900454 0.00097822789907 0.00078517305106 0.00079101512951 0.0007966802898 0.00080221047302 0.0008076566377 0.0008130802865 0.00081856072593 
0.00082441206805 0.00083026032439 0.00083637387344 0.00084281665984 0.00084960904229 0.00085675800969 0.00086426698386 0.00087209015529 0.00088028961185 
0.00088881332665 0.00089764685406 0.00090676579364 0.00091614761846 0.00092568293162 0.00093548501069 0.00094546675374 0.00095557511333 0.00096576206503 
0.00097598902305 0.00078356050073 0.00078932592243 0.00079491877742 0.00080039079609 0.00080579904599 0.00081121140526 0.00081692999859 0.00082259687735 
0.00082853454911 0.00083476550138 0.00084133538383 0.00084826326002 0.00085555354772 0.00086320194585 0.00087115529624 0.00087947711719 0.00088811016285 
0.00089703762211 0.00090623571436 0.00091568153413 0.00092527231036 0.00093510750125 0.00094511057456 0.00095522558087 0.00096540825816 0.00097562027766 
0.00078351975738 0.00078922729566 0.00079476806108 0.00080020463191 0.00080559979753 0.00081103557258 0.0008167863064 0.00082255036014 0.00082860933014 
0.00083497972195 0.00084170428219 0.00084879705917 0.00085625418958 0.0008640671118 0.00087216855262 0.00088063893278 0.00088940097116 0.00089844038932 
0.00090773282764 0.00091718737355 0.00092690803417 0.00093678498731 0.00094681246487 0.00095693610728 0.00096712234267 0.00097731320963 0.00078519551476 
0.00079082937688 0.00079633501721 0.00080176082823 0.0008071760118 0.00081264861712 0.00081848872821 0.00082437420035 0.00083057876593 0.00083711484307 
0.00084401879504 0.00085129704515 0.00085894290201 0.0008669394715 0.00087521316632 0.00088384562267 0.00089275893033 0.00090193043498 0.00091133396544 
0.00092088510347 0.00093067735199 0.0009406085919 0.0009506679328 0.00096081718963 0.00097100282642 0.00098118313852 0.00078858138843 0.00079418823274 
0.00079968322823 0.00080512650591 0.00081058804234 0.00081632480438 0.00082208811796 0.00082811979544 0.00083449317938 0.00084121502204 0.00084831802407 
0.0008557985986 0.00086364767782 0.00087184184994 0.00088030259563 0.00088911634216 0.00089819631091 0.00090751724997 0.00091705335768 0.00092671816339 
0.00093660065674 0.000946599183 0.00095671488907 0.00096689242234 0.00097709343873 0.00098727493377 0.00079372720633 0.00079932748811 0.00080484263656 
0.0008103253955 0.00081584292532 0.00082169868831 0.00082760375144 0.00083380432116 0.00084036640661 0.00084729116214 0.00085460416164 0.00086229817884 
0.00087035842409 0.00087876086419 0.00088741900854 0.00089642369557 0.00090568260072 0.00091517037486 0.00092485434766 0.00093465523501 0.00094464347359 
0.00095473892023 0.00096492142144 0.00097514686849 0.00098538133187 0.00099558203509 0.00080062798513 0.0008062445488 0.00081179471358 0.00081733038418 
0.00082296752138 0.00082895376797 0.00083502419355 0.00084141252756 0.00084817819018 0.00085531623353 0.00086284610156 0.00087075881662 0.00087903468648 
0.00088758606466 0.0008965079062 0.0009057111926 0.00091515768572 0.00092482061345 0.00093462358948 0.00094461803784 0.00095474285952 0.00096494382453 
0.00097521782018 0.00098551711776 0.00099580714386 0.0010060478885 0.00080922745379 0.00081488557453 0.00082050614305 0.00082613859389 0.00083190783817 
0.00083804830913 0.00084430388312 0.00085089549479 0.00085787539861 0.00086523233497 0.00087298219051 0.00088111276241 0.00088960249756 0.00089835953527 
0.00090748511227 0.00091688660662 0.00092652398193 0.00093636830105 0.00094634263547 0.00095650614021 0.00096677392499 0.00097710593944 0.00098749499524 
0.00099789417105 0.0010082647468 0.0010185748203 0.00081944317391 0.00082517715573 0.00083087722519 0.00083665710579 0.00084274171008 0.00084889952679 
0.00085535721944 0.00086216345131 0.00086936305293 0.00087694134568 0.00088490854873 0.0008932504192 0.00090194792555 0.00091090287246 0.00092022526891 
0.00092981500681 0.00093964315134 0.0009496660723 0.00095982800485 0.00097015484205 0.00098058371952 0.00099106620422 0.0010015948649 0.0010121184973 
0.0010226023349 0.0010330033458 0.00083114230505 0.00083696215368 0.00084281515917 0.00084875327536 0.00085501378263 0.00086137369323 0.00086804658937 
0.0008750744743 0.00088249481238 0.00089028937265 0.0008984655654 0.00090700966319 0.00091590227189 0.0009250436979 0.00093454980422 0.00094432194315 
0.00095432813514 0.00096450151092 0.00097486814783 0.00098536680594 0.00099596421019 0.0010066100939 0.0010172935938 0.0010279611417 0.0010385869411 
0.0010491002678 0.00084411997955 0.0008500809974 0.00085609787111 0.00086222305004 0.00086868292592 0.0008752631438 0.00088215780588 0.00088940872952 
0.00089704687706 0.00090505077787 0.00091342379077 0.00092215625704 0.00093122652402 0.00094053527669 0.00095020795264 0.00096014183454 0.00097031112763 
0.00098065434692 0.00099118745814 0.001001854931 0.0010126220872 0.001023441833 0.0010342919124 0.0010451354645 0.0010559146525 0.0010666259175 
0.00085805579229 0.00086421482415 0.00087042779655 0.00087676819462 0.00088344422308 0.00089025741887 0.00089738109031 0.00090485250048 0.00091269856324 
0.00092089317018 0.00092944775367 0.00093834661622 0.00094757303517 0.00095702564225 0.00096684080453 0.00097691733976 0.000987229765 0.00099772506926 
0.001008410985 0.0010192388823 0.0010301666676 0.0010411616672 0.0010521854669 0.0010632169682 0.0010742050427 0.0010851115852 0.00087258612277 
0.00087895465318 0.00088539375391 0.00089196846405 0.00089887722565 0.00090592376957 0.00091327387536 0.00092095822098 0.000928997323 0.00093736676413 
0.00094607957251 0.0009551210716 0.00096447705282 0.00097404156833 0.00098397458605 0.00099416669237 0.0010045980289 0.0010152233577 0.0010260369219 
0.0010370095923 0.0010481033544 0.0010592545133 0.0010704768754 0.001081719327 0.0010929056209 0.0011040357883 0.00088714983403 0.00089375716146 
0.00090043671873 0.00090737862445 0.00091440949179 0.0009216928009 0.00092926145402 0.00093714166194 0.00094535396571 0.00095387736996 0.00096271825308 
0.00097187081957 0.00098131993929 0.000990971045 0.0010009854082 0.0010112604113 0.0010217711211 0.0010325029123 0.0010434333012 0.0010545178075 
0.0010657535928 0.0010770828365 0.001088497447 0.0010999169632 0.0011113378179 0.001122709335 0.00090108211501 0.00090794385774 0.0009148831068 
0.00092207637125 0.00092935303906 0.00093686474732 0.00094463843269 0.00095269162582 0.0009610532072 0.00096969663512 0.00097863249626 0.00098785901969 
0.00099727786875 0.0010070659237 0.0010171248895 0.0010274379267 0.0010380071962 0.0010488118607 0.0010598112877 0.0010710124337 0.0010823735806 
0.0010938591583 0.0011054369098 0.0011170552193 0.0011286991643 0.0011403013672 0.00091365868336 0.00092078366018 0.00092798312029 0.00093542089843 
0.00094293324862 0.00095065493044 0.00095860846202 0.0009668116295 0.00097528901991 0.00098401571001 0.00099301114986 0.0010022723512 0.0010117062439 
0.0010215000111 0.0010315558118 0.0010418816374 0.0010524724081 0.0010632948202 0.0010743595876 0.001085635347 0.001097104331 0.0011087096968 
0.0011204448527 0.0011322509611 0.0011440943221 0.0011559674476 0.00092415896707 0.00093154003148 0.00093899101299 0.0009466567203 0.0009543835655 
0.00096228860016 0.00097039330879 0.00097871234585 0.00098726635016 0.00099604128726 0.0010050531162 0.001014308046 0.0010237046482 0.0010334606077 
0.0010434814809 0.001053766094 0.001064327222 0.0010751595589 0.0010862421995 0.0010975695553 0.0011091052364 0.001120816554 0.0011326782338 
0.0011446462647 0.0011567146047 0.0011688282777 0.00093198380085 0.00093960023976 0.00094736309118 0.00095514641288 0.00096305661932 0.00097111127331 
0.00097933199018 0.00098772681264 0.00099632436647 0.0010051037508 0.0010140904634 0.0010232856964 0.0010326127682 0.0010422862189 0.0010522055211 
0.001062434333 0.0010729302597 0.0010837176968 0.0010947852662 0.0011061258754 0.0011177076064 0.001129481384 0.0011414570377 0.001153593977 
0.0011658474508 0.0011781866162 0.00089301260449 0.00090017853417 0.00090732792007 0.00091443291475 0.00092150240743 0.00092855221998 0.00093560348038 
0.00094267186233 0.00094979389529 0.00095731221448 0.00096465087521 0.00097213939666 0.00097980542581 0.00098767605818 0.00099576940869 0.0010041060923 
0.0010126741469 0.0010215317049 0.0010306567872 0.0010400495559 0.0010497051522 0.0010595959221 0.0010697371687 0.0010799697838 0.001090514743 
0.001101226741 0.00089424360509 0.00090137162434 0.00090847439173 0.00091551980445 0.00092252681251 0.00092951292929 0.00093649339972 0.00094350598845 
0.00095059327576 0.00095808610287 0.00096542821603 0.00097294589524 0.00098066831466 0.00098861594062 0.00099681750232 0.0010052667055 0.0010139828675 
0.0010229861043 0.0010322647342 0.0010418140032 0.0010516229693 0.0010616613674 0.0010719419624 0.0010823078365 0.0010929697542 0.0011037834645 
0.00089383037079 0.00090091140188 0.00090795772608 0.00091492532885 0.00092186236858 0.00092876377592 0.0009356695763 0.0009426231796 0.00094992816038 
0.00095711651793 0.00096445187511 0.00097198823798 0.00097975096881 0.00098777089016 0.00099605002656 0.0010046158428 0.0010134475268 0.0010225806121 
0.001031991605 0.0010416757223 0.0010516169941 0.0010617831516 0.0010720710278 0.0010826636001 0.0010934221242 0.0011043173922 0.00089216347301 
0.00089918901696 0.00090615855786 0.00091305353184 0.00091990071717 0.00092672041688 0.00093355476729 0.00094044151955 0.00094769048688 0.00095484599097 
0.00096217396532 0.00096972027793 0.00097752499068 0.00098559570902 0.00099396179433 0.0010025992182 0.0010115520378 0.0010207969219 0.0010303232991 
0.0010401232886 0.0010501792299 0.001060451799 0.0010708445472 0.0010815262844 0.0010923650018 0.0011033258674 0.00088970943886 0.00089668241736 
0.0009035648491 0.00091038007672 0.0009171392349 0.00092388398676 0.00093064483558 0.00093747195464 0.00094467265008 0.00095180589713 0.0009591314251 
0.00096669762854 0.00097453470163 0.00098267138805 0.000991110718 0.00099982693586 0.0010088734106 0.001018214028 0.0010278432822 0.00103774272 
0.0010478943292 0.0010581601609 0.0010687410711 0.0010794978176 0.0010903980747 0.0011014084285 0.00088694379135 0.00089385791618 0.00090066853899 
0.00090740007336 0.0009140876168 0.00092076009127 0.00092746316564 0.00093449073191 0.00094143094172 0.00094854104423 0.00095587393447 0.00096347294351 
0.00097136581422 0.00097956458335 0.00098807750597 0.00099687314414 0.0010060076425 0.0010154391199 0.0010251571507 0.001035142578 0.001045377377 
0.0010557252482 0.0010663767109 0.0010771931328 0.0010881424724 0.0010991899896 0.00088434102067 0.0008911847216 0.0008979307758 0.0009045940319 
0.00091121699348 0.00091783395758 0.00092449527226 0.0009314937944 0.00093843148522 0.00094554892202 0.00095291881458 0.00096057585105 0.00096853660311 
0.00097680981131 0.00098540666479 0.00099428349686 0.0010035033124 0.001013020116 0.0010228214493 0.0010328861751 0.0010431948281 0.0010536146731 
0.0010643242391 0.001075189926 0.0010861776563 0.001097250718 0.00088228196275 0.00088907743256 0.00089575149905 0.00090236136085 0.00090893482947 
0.00091551661923 0.00092215744927 0.00092915305735 0.00093610724491 0.00094328036825 0.00095071010014 0.00095844207739 0.00096648776048 0.00097485409095 
0.00098354253894 0.00099250988591 0.0010018202873 0.0010114254645 0.0010213091529 0.0010314509625 0.0010417429686 0.0010523112467 0.0010630722134 
0.0010739791057 0.0010849971483 0.0010960840666 0.00088109944287 0.00088783256741 0.00089446162978 0.00090102662331 0.00090756989631 0.00091413733133 
0.00092078717094 0.00092781161946 0.00093481372666 0.00094204994065 0.00094957581715 0.00095740988857 0.00096556131937 0.00097403755856 0.0009827968764 
0.00099190671939 0.0010013172182 0.0010110175944 0.0010209866874 0.0010312055296 0.0010415691138 0.0010521953263 0.0010630033785 0.0010739470915 
0.0010849892699 0.0010960920575 0.00088101248877 0.00088770510699 0.00089429787274 0.00090083864841 0.00090737232515 0.00091395181533 0.0009208526111 
0.0009276958037 0.00093478381653 0.00094212882551 0.00094976800966 0.00095772417731 0.0009660047028 0.00097461093538 0.00098349547415 0.00099272647586 
0.0010022506965 0.0010120544482 0.0010221167813 0.0010324177431 0.0010428581293 0.0010535417571 0.0010643975646 0.0010753763489 0.0010864418315 
0.0010975650369 0.00088219560217 0.00088886452509 0.00089543861948 0.00090197418552 0.00090851939507 0.00091513578861 0.00092207390341 0.00092900990623 
0.00093620810029 0.00094367527216 0.00095145144076 0.00095955332269 0.00096798287241 0.00097673847564 0.00098575978366 0.00099513273509 0.0010047846997 
0.0010147047431 0.0010248713943 0.0010351961545 0.0010457858583 0.0010565345841 0.001067441226 0.0010784577234 0.0010895582573 0.0011006942329 
0.0008847706457 0.00089142613868 0.00089799543261 0.00090454535089 0.00091112820017 0.00091778960045 0.00092481530661 0.00093186224076 0.0009391892058 
0.00094680101567 0.00095473371647 0.00096299825994 0.00097159433111 0.00098051505806 0.00098969274891 0.00099921612488 0.001009012692 0.001019063166 
0.001029346324 0.0010397781599 0.0010504563678 0.0010612795522 0.0010722430808 0.0010833137357 0.0010944452981 0.0011056051974 0.00088882082331 
0.00089545136176 0.00090203654558 0.00090862426849 0.00091526520861 0.00092219246651 0.00092913376545 0.00093631127116 0.00094378584589 0.00095155942555 
0.00095966616323 0.00096810825708 0.00097688410585 0.00098598087606 0.00099532681717 0.001005016127 0.0010149682057 0.0010251626271 0.0010355772541 
0.0010461287442 0.0010569072607 0.0010678154041 0.0010788574054 0.0010899830947 0.0011011603589 0.0011123554012 0.00089431549781 0.00090096625687 
0.0009075936293 0.0009142362894 0.00092093907851 0.00092798129881 0.00093505137366 0.00094237806623 0.00095001762377 0.00095796811853 0.00096625876666 
0.00097488896824 0.00098385259144 0.00099313479788 0.0010026580181 0.0010125207511 0.0010226375499 0.0010329886018 0.0010435459643 0.0010542322818 
0.0010651237695 0.0010761406385 0.0010872673887 0.0010984636085 0.0011097026882 0.0011209484435 0.00090127624294 0.00090796643428 0.00091464671511 
0.00092135092309 0.00092817331193 0.00093533641802 0.00094255443018 0.00095004602852 0.00095786326637 0.00096600069662 0.00097448220569 0.0009833063272 
0.00099246230329 0.0010018716087 0.0010116387054 0.0010216819446 0.0010319705539 0.0010424840801 0.0010531497379 0.0010640269092 0.0010750548152 
0.0010861837062 0.0010974142036 0.0011087025456 0.001120020426 0.0011313353268 0.00090964102948 0.00091639092929 0.00092315304721 0.00092995756824 
0.00093690572884 0.00094420812506 0.00095159012681 0.0009592597844 0.00096726456673 0.00097559449564 0.00098427091696 0.00099328954492 0.0010026377736 
0.0010122330178 0.001022184688 0.0010324090328 0.0010428727175 0.001053553503 0.0010643802669 0.0010754171936 0.0010865839432 0.0010978446679 