# vtk DataFile Version 5.1
vtk output
ASCII
DATASET STRUCTURED_POINTS
DIMENSIONS 26 26 26
SPACING 0.08 0.08 0.08
ORIGIN -1 -1 0.5
POINT_DATA 17576
FIELD FieldData 1
potential 1 17576 double
0.0077082713371 0.0076406229366 0.0075733065249 0.0075068320209 0.0074416409907 0.0073780807003 0.0073163252464 0.0072563774148 0.0071979858255 
0.0071406968857 0.0070838787394 0.0070268098162 0.0069687530585 0.0069090342331 0.006847041402 0.0067823485727 0.0067146220876 0.0066437225261 
0.0065696407903 0.0064924852847 0.0064124595992 0.0063298398405 0.0062449596661 0.0061581981107 0.0060699437065 0.005980629099 0.007842202942 
0.0077711374152 0.0077003213276 0.0076303277151 0.0075616899387 0.0074948434758 0.0074300321538 0.0073673022282 0.0073064106262 0.0072468740914 
0.0071880096585 0.0071290301237 0.0070691424597 0.0070076279659 0.0069438841199 0.0068774244322 0.0068079512539 0.0067353091017 0.0066594644514 
0.0065805147413 0.0064986392848 0.0064141002365 0.0063272185373 0.0062383560631 0.0061479196896 0.0060563228403 0.0079572444907 0.0078826305292 
0.0078080970769 0.0077343157384 0.0076619603058 0.0075915274607 0.0075233446864 0.0074575211615 0.0073938462082 0.0073318519778 0.0072708164714 
0.0072099054286 0.0071482723526 0.0070851364029 0.0070198439151 0.0069519353858 0.0068810182153 0.0068069328491 0.0067296326445 0.0066491761546 
0.0065657307577 0.0064795399705 0.0063909046106 0.0063001787979 0.0062077580684 0.0061140721162 0.0080648647604 0.007986393143 0.0079078239222 
0.0078299244647 0.0077534047923 0.0076788558454 0.0076067395744 0.0075372035821 0.0074701187471 0.0074050442461 0.0073413065968 0.007278054641 
0.0072144111512 0.007149545846 0.0070827471828 0.0070134703218 0.0069413006659 0.0068660138741 0.0067875156619 0.0067058396453 0.0066211017492 
0.006533530418 0.0064434057551 0.0063510675075 0.00625690561 0.0061613420436 0.0081778671569 0.0080952209233 0.0080122117769 0.0079296778649 
0.0078484119568 0.0077690936303 0.0076922067629 0.0076180432204 0.0075465557533 0.007477412111 0.0074100195034 0.0073435913319 0.0072772757407 
0.0072102079897 0.007141614265 0.0070708439261 0.0069974509466 0.0069210812171 0.0068415806947 0.006758912737 0.0066731559902 0.0065844860297 
0.0064931477861 0.0063994622423 0.0063038039456 0.0062065937359 0.0083082782789 0.0082210965841 0.0081331622562 0.0080454104568 0.0079586939415 
0.0078737521537 0.0077911601076 0.0077112569822 0.0076341225172 0.0075596158469 0.0074872876344 0.0074165023873 0.0073464653929 0.0072763496451 
0.0072053448179 0.0071326999165 0.0070578500007 0.0069803648667 0.0068999314443 0.0068164352446 0.0067298738842 0.0066403524195 0.0065480760712 
0.0064533169538 0.0063564274651 0.0062578150738 0.0084658484739 0.0083736078714 0.0082802015425 0.0081865797337 0.0080936687928 0.0080021944138 
0.0079128221487 0.0078259933781 0.0077419331823 0.0076606469766 0.0075819122202 0.0075053299294 0.007430260727 0.0073559386533 0.007281575093 
0.0072063630056 0.0071295871396 0.0070507105909 0.0069692571066 0.0068849835246 0.0067977656373 0.0067076103679 0.0066146408041 0.0065190808192 
0.0064212281031 0.0063214665942 0.0086572490692 0.0085594877548 0.0084600095985 0.0083598111959 0.0082598274138 0.0081608891591 0.008063713361 
0.0079687814253 0.0078764941692 0.0077870583658 0.0077004943728 0.0076166230879 0.0075350235155 0.007455136935 0.0073762031327 0.0072974282709 
0.0072179967476 0.007137208365 0.0070544809961 0.0069693317039 0.0068815027644 0.0067908617258 0.0066974178701 0.0066013010578 0.006502753606 
0.0064021010285 0.008886436613 0.008782607143 0.0086764144302 0.0085688945926 0.0084610358388 0.0083537029493 0.008247652992 0.0081435148286 
0.0080418545025 0.0079430048009 0.0078472620274 0.0077546975075 0.0076651615196 0.0075782575093 0.0074934276056 0.0074098941077 0.007326842923 
0.0072434205838 0.007158884929 0.0070726110747 0.0069840811654 0.0068930081657 0.0067992466246 0.0067027930473 0.0066037908778 0.0065025064602 
0.0091551709576 0.0090446792489 0.0089310850561 0.0088154820634 0.0086988736498 0.0085822302574 0.0084663671046 0.0083520239224 0.0082398885301 
0.0081305468419 0.0080245139672 0.0079220466085 0.0078232767995 0.0077280602274 0.0076359975053 0.0075464422536 0.0074586282295 0.0073716523059 
0.0072846289612 0.0071967501157 0.0071072677545 0.0070156874179 0.0069216650638 0.0068250320652 0.006725793501 0.0066241050829 0.0094637804562 
0.0093459127477 0.0092240984477 0.0090995808317 0.0089733838594 0.0088465152742 0.0087199010762 0.0085943988207 0.0084708971835 0.0083501435734 
0.0082328316322 0.0081194942135 0.0080104882574 0.0079058351956 0.0078053727781 0.0077086390942 0.0076149191443 0.0075233602167 0.0074329999591 
0.0073428480372 0.0072520241005 0.0071597139551 0.0070653786034 0.0069686372303 0.0068693137175 0.0067674204842 0.0098111630967 0.0096852767972 
0.0095545004377 0.0094201749792 0.0092834334633 0.0091453915151 0.0090071073535 0.0088696122318 0.0087339196531 0.0086009875498 0.0084716638986 
0.008346726532 0.0082266713163 0.0081118000339 0.0080020514994 0.0078971603738 0.0077965653846 0.0076994606894 0.0076048378467 0.0075116371121 
0.0074188747948 0.0073254648008 0.0072306260006 0.007133731187 0.0070343856652 0.0069324199346 0.010195866223 0.010061052376 0.0099204080797 
0.0097752288701 0.0096269293888 0.0094767116765 0.0093258080689 0.0091754316429 0.0090267860101 0.008881014599 0.0087391689641 0.0086021341902 
0.0084705884569 0.0083449222414 0.0082253487907 0.0081117132028 0.0080035203894 0.0079000854961 0.0078004623826 0.0077035364446 0.0076081673603 
0.0075131927735 0.0074175047279 0.0073202753548 0.0072208542049 0.0071188493131 0.010615829244 0.010471075017 0.010319424108 0.010162361488 
0.0100013075 0.0098378193233 0.0096732835615 0.0095091357769 0.0093467839963 0.0091875858444 0.0090327446698 0.0088832969618 0.0087400460144 
0.0086035179908 0.0084739577333 0.0083513045828 0.008235169922 0.0081250136917 0.0080198439229 0.0079186099266 0.0078200596777 0.0077229186591 
0.007625987628 0.0075281025879 0.0074284155768 0.0073262904529 0.011068599055 0.010912687514 0.010748735996 0.010578416615 0.010403409852 
0.010225358745 0.010046069862 0.0098671874779 0.0096903650044 0.0095171722339 0.0093489871017 0.0091869747694 0.0090320367681 0.0088847609264 
0.0087454322499 0.0086140135362 0.0084901680746 0.0083732810662 0.0082624693409 0.0081566275485 0.008054539999 0.0079548235489 0.0078561537819 
0.0077572287232 0.0076569424247 0.0075544452952 0.011551338247 0.011382788407 0.011204996099 0.011019849837 0.010829308938 0.010635366072 
0.010439991948 0.010245297652 0.01005317286 0.00986541446 0.0096835940197 0.0095090022413 0.0093426114896 0.0091850392978 0.0090365395491 
0.0088970292617 0.0087661084162 0.0086430980883 0.0085270573139 0.0084168532295 0.008311239683 0.0082087154612 0.0081079812676 0.0080076280481 
0.0079063244257 0.0078030844309 0.012060436983 0.011877440569 0.011683936911 0.011482401634 0.011274511834 0.011062934294 0.01085008337 
0.010638283676 0.010429907834 0.010226977497 0.01003126604 0.0098441975786 0.0096667966364 0.0094996624606 0.0093429804114 0.0091965202967 
0.009059730006 0.0089317547548 0.0088115122063 0.0086977369522 0.0085890692842 0.0084840610722 0.0083812437191 0.0082791757227 0.0081764460901 
0.0080719560052 0.012592580174 0.012392907331 0.012181418827 0.011960621225 0.011733211238 0.011501998376 0.011269852754 0.01103957674 
0.010814100093 0.010595302588 0.010385445402 0.010186110415 0.0099983520259 0.0098227113369 0.0096592271336 0.0095074650968 0.0093665758376 
0.0092354289389 0.0091126643061 0.0089967776509 0.0088862268381 0.0087794409782 0.0086748899047 0.0085711285608 0.0084667892455 0.0083606283159 
0.013142467905 0.012923395852 0.012691298067 0.012448821699 0.012199278493 0.011946016951 0.011692440019 0.01144188753 0.011197434281 
0.010961957217 0.010737689531 0.010526379624 0.010329429618 0.010146670789 0.009978223268 0.0098233160816 0.0096807190303 0.009548857738 
0.0094259494008 0.0093101228025 0.0091995165706 0.0090923763057 0.0089870463865 0.008882042847 0.0087760342028 0.0086678520178 0.013705084348 
0.01346331439 0.013206998077 0.012939095018 0.012664083432 0.012385648243 0.012108088252 0.01183512087 0.01157057175 0.011317342168 
0.011078335923 0.010855432074 0.010649770964 0.010461662505 0.010290591025 0.010135332905 0.0099944081656 0.0098650261314 0.0097451082869 
0.0096322504568 0.0095241492809 0.009418742535 0.0093141967505 0.0092089493838 0.0091016995985 0.0089913709811 0.014270465049 0.014002109962 
0.013717758979 0.013421457618 0.013117641907 0.012811012709 0.012506365765 0.012208378118 0.01192122027 0.011649083343 0.011394385538 
0.011160076205 0.010947346421 0.010756210185 0.01058543357 0.010433326411 0.010297338343 0.010174455611 0.010061486005 0.0099553064329 
0.0098533204529 0.0097524323222 0.0096508470966 0.0095468878168 0.0094392919951 0.0093271069734 0.014829350903 0.014529774167 0.014212761885 
0.013883039914 0.013545801104 0.013206620498 0.012871167279 0.012544988758 0.012233268282 0.011940557375 0.011670537565 0.011425577871 
0.011207349014 0.011015530491 0.010848635409 0.010703981684 0.010577269592 0.010465985682 0.010364820293 0.010269864516 0.010177457838 
0.010084552559 0.0099887137076 0.0098884306628 0.0097818437567 0.0096684409503 0.015369636371 0.015033716065 0.014678727545 0.014310246317 
0.013934347668 0.013557749058 0.013187162499 0.012828907036 0.012489343028 0.012173958019 0.011887198561 0.011632136197 0.011410153894 
0.011220937771 0.011062104296 0.0109301404 0.010819947809 0.010725935384 0.010642417402 0.010564104337 0.010486119715 0.010404992367 
0.010318222688 0.010223551711 0.010119746443 0.010006177824 0.015879298195 0.015501325943 0.015102400575 0.014689112585 0.014268688599 
0.013848817203 0.01343740394 0.013042309445 0.012671048502 0.01233020607 0.012025321712 0.011760176632 0.011536436106 0.011353474211 
0.011208090605 0.011095077807 0.011007489184 0.01093812298 0.01087911522 0.010823734971 0.010766242059 0.01070213181 0.010628185112 
0.010542299887 0.010443048634 0.010330331249 0.016349078628 0.015922762777 0.015473265346 0.015008305446 0.014536368297 0.014066470693 
0.01360795603 0.013170200314 0.012762222558 0.012392268521 0.012067259023 0.01179189857 0.011568395066 0.01139571676 0.011269595539 
0.011182845999 0.011126179531 0.011089450883 0.01106278078 0.011037318753 0.011006155939 0.010963839541 0.01090675753 0.010832728381 
0.010740885088 0.010631003669 0.016777329106 0.016295808862 0.015788318281 0.015263946904 0.014732570006 0.014204737152 0.013691481031 
0.013203977691 0.012753198218 0.012349317952 0.012001041143 0.01171464951 0.011493129448 0.011335083077 0.011234788484 0.011182551464 
0.011165823031 0.011171061846 0.011185324571 0.011197632401 0.01119924753 0.011183885039 0.011147741976 0.011088617257 0.011005862419 
0.01089990043 0.0085347774616 0.0084613091947 0.0083876575375 0.008314247563 0.0082414393086 0.0081695143257 0.0080986147678 0.0080287641486 
0.007959797691 0.0078914122585 0.0078231713855 0.007754564164 0.007685058317 0.0076141498426 0.0075413641081 0.0074663589228 0.0073888870134 
0.0073087925277 0.0072260629812 0.0071407710033 0.0070530712209 0.0069631841624 0.0068713856295 0.0067779969181 0.0066833499246 0.0065878217577 
0.008718872618 0.0086415887863 0.0085640054863 0.0084865920653 0.0084097794207 0.0083339165394 0.0082591993343 0.0081856897946 0.0081132432663 
0.0080415569531 0.0079701828959 0.0078985871812 0.0078262104339 0.0077525246188 0.0076770711069 0.0075994521422 0.0075194177018 0.0074368223004 
0.0073516142041 0.0072638528721 0.0071736673872 0.007081263136 0.0069869014456 0.006890884748 0.0067935599689 0.0066952817529 0.0088929404315 
0.0088116744893 0.0087299088092 0.0086481932078 0.0085670776746 0.0084869512198 0.0084080756758 0.0083305653639 0.0082543110179 0.0081790428135 
0.0081043062483 0.0080295581562 0.0079542220945 0.0078777372798 0.0077996090452 0.0077194774839 0.0076369994967 0.0075520242988 0.0074644847695 
0.0073743989171 0.0072818810697 0.0071871148633 0.0070903370983 0.006991841197 0.0068919556783 0.0067910475421 0.0090650458037 0.0089794610528 
0.008893176963 0.008806821633 0.0087209661413 0.0086360773791 0.0085525355829 0.0084704812504 0.0083898776208 0.0083104806249 0.0082318921547 
0.0081535747446 0.0080749504805 0.0079954469544 0.0079145388435 0.0078318061743 0.007746899218 0.00765961211 0.0075698340663 0.0074775587226 
0.0073828534625 0.0072858649181 0.0071868245044 0.0070859968108 0.0069837023609 0.0068802933186 0.0092442210539 0.0091539797589 0.0090627639165 
0.0089712645403 0.0088801263918 0.008789897859 0.0087009737367 0.0086136270976 0.0085278838533 0.008443582673 0.0083603779929 0.0082778085215 
0.0081953141592 0.0081123214803 0.0080282862395 0.0079427192458 0.0078552747169 0.0077656398128 0.0076736602539 0.0075792676263 0.0074824888771 
0.0073834355247 0.0072822817621 0.0071792745191 0.0070747127642 0.0069689407475 0.0094392638589 0.0093439842752 0.0092473492635 0.0091501436823 
0.0090530730683 0.0089567495754 0.0088616617312 0.008768123086 0.0086762616113 0.0085860633588 0.0084972804392 0.0084095384249 0.0083223375964 
0.0082351480464 0.0081474205721 0.0080586193648 0.0079683233787 0.0078761933335 0.0077819418543 0.0076854460215 0.0075866637883 0.0074856412258 
0.0073825128132 0.0072774732947 0.0071707936799 0.0070627987284 0.0096578149034 0.0095569508835 0.0094543457277 0.0093507997992 0.0092471091626 
0.0091438778814 0.009041699152 0.0089409871211 0.0088419900299 0.0087447882185 0.0086492891206 0.0085552845841 0.0084623785262 0.0083700820561 
0.0082778875038 0.0081852422783 0.0080916352996 0.0079966717949 0.0078999580585 0.0078012785699 0.0077004959145 0.0075975729739 0.0074925692028 
0.0073856320047 0.0072769748202 0.0071668919197 0.0099056251203 0.0097986855274 0.009689499544 0.0095789239619 0.0094677703569 0.0093567753632 
0.0092465976388 0.0091376939073 0.0090304660004 0.0089251454253 0.0088218088855 0.0087203852529 0.0086206210538 0.0085221831171 0.008424576099 
0.0083272804205 0.0082297329885 0.0081314392545 0.0080319627513 0.007930906324 0.0078280416102 0.0077232224109 0.0076164128344 0.007507674833 
0.0073971682053 0.0072851259964 0.010186644494 0.010073044329 0.0099566140921 0.0098382604217 0.0097188659291 0.0095992228304 0.0094800488973 
0.0093619588235 0.0092454718435 0.0091309347946 0.0090186243859 0.0089086453216 0.0088009264097 0.0086952248029 0.008591198045 0.0084883284757 
0.0083860659908 0.00828384264 0.0081811010334 0.0080773790671 0.0079722510898 0.0078654685588 0.0077568613432 0.0076463917032 0.0075341264718 
0.0074202414797 0.010503180935 0.010382278419 0.010257885896 0.010130977294 0.010002469485 0.0098732800804 0.0097441983128 0.009615944009 
0.0094891717588 0.0093644163039 0.0092421364216 0.0091225522428 0.0090058040101 0.0088918198017 0.008780345038 0.0086709452313 0.0085631129956 
0.008456224179 0.0083496573078 0.0082428270472 0.0081351499107 0.0080262312169 0.0079157668485 0.0078035781651 0.0076896194418 0.0075739701348 
0.010856297024 0.01072732321 0.010594181409 0.01045786062 0.010319386431 0.010179729904 0.010039799834 0.0099004308793 0.0097624629654 
0.0096265678069 0.0094933465569 0.0093632799351 0.0092365818376 0.0091133697946 0.0089935197049 0.0088767140494 0.0087624498974 0.0086501367121 
0.0085390964319 0.0084286120839 0.0083180370066 0.0082067323613 0.0080942669238 0.0079803045295 0.0078646601171 0.00774729108 0.011246007696 
0.011108252434 0.010965423598 0.010818761933 0.010669339392 0.010518243889 0.010366517995 0.010215158448 0.010065120338 0.0099172585853 
0.0097723078258 0.0096309328765 0.0094935392358 0.0093603804639 0.0092313996743 0.0091064086564 0.0089849923272 0.0088665597303 0.0087503213947 
0.008635650356 0.0085217026956 0.0084076847473 0.0082929983535 0.0081771323757 0.0080597416437 0.0079406411749 0.011671513828 0.01152400183 
0.011370600627 0.011212512422 0.011051095362 0.010887524537 0.010723007973 0.01055871052 0.010395753155 0.010235164429 0.010077864447 
0.0099246078717 0.0097759597685 0.0096322293494 0.0094935912283 0.0093599099678 0.0092307724862 0.0091056478412 0.0089838088274 0.0088644112095 
0.0087466108263 0.0086295343812 0.0085123277283 0.0083943528422 0.0082750779161 0.0081541609987 0.012131662075 0.011973311116 0.011808149297 
0.011637565314 0.01146292341 0.011285743102 0.011107368837 0.010929165572 0.010752436191 0.010578406463 0.010408136556 0.010242523348 
0.010082246607 0.0099277362625 0.0097791745203 0.0096364823139 0.009499306665 0.0093672022181 0.0092393378617 0.0091148869112 0.008992870683 
0.0088723141322 0.0087523109739 0.0086319538237 0.0085105886043 0.008387698063 0.012624784273 0.012454317546 0.012276056297 0.012091572171 
0.011902477258 0.011710357273 0.011516947916 0.011323792667 0.011132413783 0.010944230958 0.010760468579 0.010582147698 0.010410044965 
0.0102446497 0.010086176441 0.0099345568035 0.0097894612924 0.0096503307859 0.0095164127328 0.0093867106046 0.0092602838999 0.0091360401476 
0.0090129149503 0.0088899016806 0.0087661765369 0.0086410557166 0.013148800625 0.012964696973 0.012771766514 0.012571798534 0.012366651563 
0.012158232849 0.011948403815 0.011739135991 0.011532157739 0.01132909434 0.011131352836 0.010940077143 0.010756118418 0.010580003309 
0.010411922765 0.010251767754 0.010099142018 0.0099534068442 0.0098137018564 0.0096790203116 0.0095482921762 0.0094202426101 0.0092938400736 
0.0091679641086 0.0090415668122 0.0089139066137 0.013700885338 0.013501327875 0.013291868958 0.013074855384 0.012851845069 0.012625370754 
0.012397688088 0.012170936918 0.011947291246 0.011728575445 0.011516384589 0.011311992894 0.011116310259 0.010929859982 0.010752783889 
0.010584848823 0.010425525291 0.010274009827 0.010129297163 0.0099902275126 0.0098555813658 0.009724075343 0.0095944937727 0.0094656131759 
0.00933630624 0.0092057391107 0.014278609778 0.014061415262 0.013833199918 0.01359632109 0.013353311877 0.013106793064 0.012859413123 
0.012613695147 0.012372466389 0.012137230433 0.011910101143 0.011692504755 0.011485388935 0.011289239636 0.011104083034 0.010929521649 
0.010764770399 0.010608786154 0.01046031305 0.010317961224 0.010180315551 0.01004594729 0.0099134947748 0.0097817109938 0.0096494550007 
0.0095157165671 0.014877824207 0.014640394021 0.014390914399 0.014131853499 0.01386631791 0.013597390116 0.013328191061 0.01306175509 
0.012800858915 0.012548110536 0.012305526122 0.012074676153 0.011856868198 0.011651905628 0.011459936293 0.011280287581 0.011111857953 
0.010953227017 0.010802772164 0.010658776345 0.010519520859 0.010383384221 0.010248842871 0.010114555578 0.0099793546605 0.0098422613053 
0.01549517423 0.015234434996 0.014960285928 0.014675480587 0.014384223664 0.014089865017 0.013796339041 0.013506985519 0.013225266325 
0.012953759148 0.012695102643 0.012450990234 0.012222467175 0.012009844971 0.011812702496 0.011629988839 0.011460450967 0.01130155274 
0.011151467012 0.011008015811 0.010869084847 0.010732760331 0.010597324857 0.010461314217 0.010323526456 0.010183000695 0.016123279912 
0.015835656637 0.015533353617 0.015220091707 0.014899994465 0.014577350938 0.014256500387 0.013941476219 0.013636540962 0.013344944257 
0.013068964251 0.012811327299 0.012573127506 0.012354418486 0.012154140007 0.011970891031 0.011802485477 0.011646307915 0.01149955152 
0.011359428979 0.011223609052 0.011089183904 0.010954476823 0.010817885999 0.010678165096 0.010534423145 0.016756832213 0.016438187817 
0.016103483996 0.015757075222 0.015403828224 0.0150487902 0.014697075651 0.014353663522 0.014023179847 0.01370967432 0.013416415182 
0.013145492483 0.012898457371 0.012675074959 0.012474138779 0.012293417295 0.01212917701 0.011979505126 0.011839682757 0.011706266872 
0.011575986429 0.011446034123 0.011314109234 0.011178737518 0.011038053782 0.010891503734 0.017389353391 0.017035054842 0.016663095049 
0.016278704386 0.015887531248 0.015495734946 0.015108950513 0.014733269543 0.014374198786 0.014036574707 0.013724293007 0.013440038016 
0.013185037787 0.012958966336 0.01276028789 0.01258573482 0.012431224419 0.012292066433 0.01216342055 0.012040695511 0.011919524072 
0.011796750193 0.011670019712 0.011537089283 0.01139665222 0.011247961399 0.018016368682 0.01762123123 0.01720661004 0.016778674443 
0.0163440781 0.015909809096 0.015482976091 0.01507063145 0.014679243228 0.014314692534 0.013981702616 0.01368349255 0.013421480205 
0.013195204599 0.013002085716 0.012837936088 0.012697094134 0.012573699273 0.012461116181 0.012353590881 0.012246059904 0.012134405727 
0.01201555654 0.011887368349 0.011748267133 0.011597937391 0.01863647945 0.01819473197 0.017731364378 0.017253606182 0.016769259885 
0.016286519085 0.015813776608 0.015359325193 0.014931055867 0.014536043325 0.014180127609 0.013867158507 0.013598925827 0.013374545013 
0.013190720954 0.01304168576 0.012920094448 0.012817786911 0.012726643187 0.012639158021 0.012549288489 0.012452028473 0.012343874738 
0.012222513372 0.012086821439 0.011936222128 0.019255304476 0.018760550966 0.018241616833 0.017706961665 0.017165667283 0.016627319455 
0.016101787775 0.015598934869 0.015128240587 0.014698295285 0.01431624971 0.013987086194 0.013713052716 0.01349289419 0.013322107259 
0.01319321436 0.013096503029 0.013021341202 0.012957281153 0.012895153664 0.012827303488 0.012747911044 0.012653179822 0.012540630281 
0.012409169183 0.012258707292 0.009378271683 0.0092986805664 0.0092184346649 0.0091378952802 0.0090573667254 0.0089770904667 0.0088971958411 
0.0088177310758 0.008738600222 0.0086596112339 0.0085804705594 0.0085008258409 0.0084203018981 0.0083385370768 0.0082551746048 0.0081699601604 
0.0080826927269 0.0079932740806 0.0079016623988 0.0078079221896 0.0077121760876 0.0076146040304 0.0075154363942 0.0074149466569 0.0073134178701 
0.0072111792842 0.0096067637576 0.0095229608691 0.009438364667 0.0093533688611 0.0092683370748 0.0091835614872 0.0090992213743 0.0090153988664 
0.0089320249417 0.0088489215897 0.0087658034048 0.008682315897 0.0085980750701 0.0085127060713 0.008425876146 0.0083372768303 0.0082467148161 
0.0081540711157 0.0080592955571 0.0079624299304 0.0078635720553 0.0077628871209 0.0076605905729 0.0075569368733 0.0074522217021 0.0073467482965 
0.0098318499407 0.0097436181084 0.0096544062397 0.0095646270621 0.0094747647479 0.0093851439081 0.0092959949958 0.0092074491123 0.009119472443 
0.0090319282193 0.0089445387202 0.0088569582372 0.0087688040289 0.0086796861838 0.0085892692649 0.0084972247435 0.0084033404248 0.0083074711055 
0.0082095548072 0.0081095939991 0.0080076721272 0.0079039326327 0.0077985658649 0.0076918147973 0.0075839553862 0.0074752996091 0.010059428811 
0.0099664369766 0.0098722203 0.009777309015 0.0096821609802 0.0095872280857 0.0094927901702 0.0093990153793 0.0093059375663 0.0092134431033 
0.0091213132937 0.0090292170783 0.0089367822237 0.0088436302365 0.0087493727149 0.008653741777 0.0085564275826 0.0084572772904 0.0083561911081 
0.0082531514562 0.0081481982058 0.0080414383414 0.00793305688 0.007823265396 0.0077123301999 0.007600544291 0.010296116963 0.010197987875 
0.010098358019 0.0099978126611 0.0098968971366 0.0097960785594 0.0096957041323 0.0095960460489 0.0094971867634 0.0093990839629 0.009301556776 
0.0092043440338 0.0091070972748 0.0090094434374 0.0089110119978 0.0088114508653 0.0087105166293 0.0086079381492 0.0085036052817 0.0083974423085 
0.0082894598792 0.0081797222241 0.0080683694014 0.0079555920899 0.0078416300641 0.0077267671879 0.010548538085 0.010444868589 0.010339330554 
0.010232599652 0.010125280207 0.010017902047 0.0099109024355 0.0098045860335 0.0096991211588 0.0095945855357 0.0094908704417 0.0093877778547 
0.0092850066208 0.0091822291852 0.0090790835563 0.0089751989263 0.0088702745001 0.0087640585481 0.008656313552 0.008546934949 0.008435872867 
0.008323146795 0.0082088501875 0.0080931265466 0.0079761882101 0.0078582952497 0.010822749639 0.010712970425 0.01060096573 0.010487459664 
0.010373049466 0.010258362884 0.010143905652 0.010030077921 0.0099171492689 0.0098052601673 0.0096944201374 0.0095845571899 0.0094754451844 
0.0093667852413 0.0092582580563 0.0091494946898 0.0090401364034 0.0089299070392 0.0088184954186 0.0087057316802 0.0085914931697 0.0084757319772 
0.0083584770091 0.008239829175 0.0081199470738 0.0079990578483 0.011123624274 0.011007217903 0.010888123542 0.010767092702 0.010644844139 
0.010522074533 0.010399298894 0.010277049558 0.010155699219 0.010035507477 0.0099166083781 0.0097990036274 0.0096826204567 0.009567230623 
0.0094525370781 0.0093382066124 0.0092238524975 0.0091091322211 0.0089937282705 0.0088773261686 0.0087597436286 0.00864084857 0.0085205925315 
0.0083990036311 0.0082761913089 0.0081523255061 0.011454857747 0.011331205421 0.011204339163 0.011075064852 0.010944180381 0.010812414078 
0.010680440629 0.010548880966 0.010418155022 0.010288672434 0.010160724656 0.010034448504 0.0099098507949 0.0097868056284 0.0096651225232 
0.0095444607038 0.0094244552159 0.0093047156707 0.0091848400667 0.0090644888156 0.0089433271993 0.0088211407955 0.0086977884903 0.0085732138352 
0.0084474466197 0.0083206057624 0.011818957091 0.011687377741 0.011551994291 0.011413663213 0.011273291866 0.011131678312 0.010989588037 
0.010847716641 0.010706676634 0.01056701901 0.010429083311 0.010293183563 0.010159457812 0.010027904601 0.0098983820287 0.0097706060798 
0.0096442465503 0.0095188677482 0.0093940303718 0.0092693099103 0.0091442519414 0.0090185520303 0.0088919575063 0.0087643051373 0.0086355332223 
0.0085056792005 0.012217415456 0.012077143362 0.011932421448 0.011784201675 0.011633435649 0.011481043467 0.011327894983 0.011174786559 
0.011022514497 0.010871700348 0.01072289547 0.010576543654 0.010432847983 0.010291951717 0.010153800193 0.01001818971 0.0098847705585 
0.0097531333494 0.0096227942851 0.0094932247485 0.0093639393841 0.0092344543148 0.0091044136657 0.0089735416055 0.0088416679405 0.0087087305577 
0.012651031325 0.012501204107 0.012346168641 0.012187076718 0.01202493234 0.011860772434 0.011695596114 0.011530352712 0.011365939128 
0.011203139793 0.01104261746 0.010884973475 0.010730569861 0.010579650838 0.01043218806 0.010288068402 0.010146996421 0.010008533705 
0.0098720984574 0.0097372436449 0.0096033286955 0.0094697338224 0.0093360015678 0.0092017191846 0.0090665959368 0.0089304591895 0.013119554269 
0.012959195846 0.012792919344 0.012621838294 0.012447240856 0.01227024683 0.012092011492 0.01191363868 0.011736174438 0.011560560723 
0.011387627335 0.011218045928 0.01105231636 0.010890712281 0.010733406062 0.010580303318 0.010431075961 0.010285322346 0.010142482707 
0.01000190721 0.0098629589361 0.0097249662597 0.0095872548928 0.0094493303608 0.0093107594894 0.0091712534226 0.013622611312 0.013450591977 
0.013271848703 0.013087678218 0.012899368257 0.012708371702 0.012515964922 0.012323433641 0.012131990724 0.011942747715 0.011756670568 
0.011574556336 0.011397006508 0.011224398528 0.01105689431 0.010894431526 0.010736714739 0.010583398415 0.010433792709 0.010287239462 
0.010142984757 0.010000241864 0.0098583181573 0.0097164860326 0.0095742373086 0.0094311420044 0.014159286326 0.013974293087 0.013781716789 
0.013583028071 0.013379752523 0.013173390449 0.012965586601 0.012757781611 0.012551382303 0.012347686796 0.012147801429 0.011952641704 
0.011762899272 0.011579004477 0.011401145221 0.011229257791 0.011063055117 0.010902057855 0.010745593311 0.010592932684 0.010443206421 
0.010295565715 0.010149159482 0.010003184557 0.0098569956112 0.0097100468571 0.014728290971 0.01452878592 0.014320795618 0.014105998283 
0.013886144899 0.013663031994 0.013438401787 0.013214091219 0.01299168751 0.012772674116 0.012558326425 0.012349675684 0.012147486336 
0.011952228643 0.011764068863 0.011582908016 0.011408390662 0.01123995235 0.011076838796 0.010918180047 0.010763071317 0.010610427467 
0.010459421795 0.010309141963 0.010158737021 0.010007633987 0.015327677085 0.015111858245 0.014886612719 0.014654159624 0.01441592425 
0.01417429415 0.013931315125 0.013689112197 0.013449530543 0.013214280358 0.012984809463 0.012762272693 0.01254749497 0.012340952165 
0.012142776551 0.011952761017 0.011770435132 0.011595081136 0.011425805498 0.011261580518 0.011101340095 0.010943973305 0.010788451204 
0.010633746497 0.010478928306 0.01032334269 0.015956056087 0.015721800832 0.01547713015 0.01522425373 0.014965537077 0.014703413649 
0.014440327231 0.014178586865 0.013920806236 0.013668294493 0.013422998044 0.013186215575 0.012958813819 0.012741246463 0.012533556244 
0.012335403604 0.01214609732 0.011964713936 0.011790134799 0.011621118403 0.011456404994 0.011294727682 0.011134892916 0.0109758278 
0.010816571102 0.01065627907 0.016610611344 0.016355441121 0.016088948632 0.015813429573 0.015531780342 0.01524684555 0.01496148559 
0.014678466528 0.014400302417 0.014129367621 0.01386750087 0.013616112031 0.013376439668 0.013148278605 0.012931828802 0.012726526178 
0.012531419678 0.012345265623 0.012166630286 0.011993982556 0.011825781579 0.011660571372 0.011496984058 0.011333828061 0.011170091808 
0.011004915342 0.017289784 0.017010816562 0.016718817281 0.016417510471 0.016110063239 0.01579938643 0.015489288348 0.015182776717 
0.014882992732 0.014592232337 0.014312901155 0.01404653471 0.013794116549 0.013555962972 0.013331763048 0.013120643342 0.012921586595 
0.012732321022 0.012551286981 0.012376558992 0.012206245598 0.012038618897 0.011872115813 0.011705401677 0.011537387133 0.011367218947 
0.017988698797 0.017682625056 0.017362797792 0.017032692095 0.016696115812 0.016356988447 0.016019246423 0.015686515142 0.015362654895 
0.015050567638 0.014751997104 0.014470242889 0.014205563719 0.013958321239 0.013727628686 0.01351236496 0.013310697887 0.013120400802 
0.012939052189 0.012764214006 0.012593846689 0.012425270277 0.012256972012 0.012087466371 0.011915576898 0.011740480829 0.018705426712 
0.018368443524 0.018016405032 0.017653366898 0.017283813055 0.016912339979 0.016543569855 0.016181969666 0.015831676599 0.015496295673 