# vtk DataFile Version 5.1
vtk output
ASCII
DATASET STRUCTURED_POINTS
DIMENSIONS 26 26 26
SPACING 0.08 0.08 0.08
ORIGIN -1 -1 0.5
POINT_DATA 17576
FIELD FieldData 1
potential 1 17576 double
0.0043158209823 0.0042166079358 0.0041219716804 0.0040320766476 0.0039469697237 0.0038665972454 0.0037907514539 0.0037190508833 0.0036511787374 
0.0035866380928 0.0035249978215 0.0034657906887 0.0034086170517 0.0033532950251 0.0032992793504 0.0032462957211 0.0031940271676 0.0031422291653 
0.0030906269933 0.0030391529502 0.0029876815239 0.0029362457038 0.0028849034703 0.0028337628346 0.0027829535645 0.0027326330087 0.004233874659 
0.0041383265383 0.0040475557849 0.0039616854388 0.0038807346109 0.0038045525303 0.0037327740126 0.0036650417702 0.0036007669802 0.0035393791452 
0.0034802802874 0.0034229960599 0.0033673321827 0.0033127866218 0.0032591687776 0.0032062425804 0.0031538351215 0.003101696532 0.0030497780713 
0.0029979531986 0.0029462323718 0.0028946460069 0.0028432812859 0.002792244033 0.0027416726876 0.0026917230863 0.0041325074361 0.0040409309054 
0.0039543349968 0.0038728271145 0.0037963073661 0.003724645909 0.0036573598117 0.0035938783873 0.0035335184829 0.0034755175245 0.0034192762102 
0.0033643535289 0.0033103175703 0.0032569701152 0.0032041143626 0.0031516242305 0.0030994269296 0.003047379262 0.0029954358539 0.0029436064284 
0.0028919283683 0.0028404608209 0.0027893073073 0.0027385876294 0.0026884465349 0.0026390446318 0.0040161703574 0.0039288207613 0.0038466625168 
0.0037697102851 0.0036979480034 0.0036310084534 0.0035683695239 0.0035093160359 0.0034529465576 0.0033985534597 0.0033453287434 0.0032927612418 
0.0032406597813 0.0031887629597 0.0031369812126 0.0030853089062 0.0030336296802 0.0029819550556 0.0029303337854 0.0028788093005 0.0028274450146 
0.0027763439138 0.0027256284295 0.0026754390502 0.0026259137962 0.0025772252062 0.003890233234 0.0038072746179 0.0037297333641 0.0036575823883 
0.0035906424544 0.0035285515979 0.0034705622744 0.0034158432827 0.003363524505 0.0033125438768 0.0032622732568 0.0032121780923 0.0031620881954 
0.0031118069185 0.0030613810073 0.0030106562196 0.0029597715078 0.002908780371 0.002857758826 0.0028068071591 0.0027560099503 0.002705511108 
0.0026554411253 0.0026059530758 0.0025572176666 0.0025094038103 0.0037599611668 0.0036816263341 0.0036088086514 0.0035414710328 0.0034794096457 
0.0034220229521 0.0033685730355 0.0033180919412 0.0032694309666 0.0032217184701 0.0031741929408 0.003126525272 0.0030783970946 0.0030297865591 
0.0029807422414 0.0029311905921 0.0028813122135 0.0028312149457 0.0027810156906 0.0027308388724 0.0026808206384 0.002631119671 0.0025818862616 
0.002533286676 0.0024854976353 0.0024387028684 0.0036300077914 0.0035563233249 0.003488261108 0.0034257566696 0.0033684191473 0.0033156535366 
0.0032664463126 0.0032197630633 0.0031745084995 0.0031297442551 0.0030847633999 0.0030392343295 0.0029929855081 0.0029460254553 0.0028983016307 
0.0028499922986 0.0028012352781 0.0027521785146 0.0027029651567 0.0026537399064 0.0026046833546 0.0025559483195 0.0025077083087 0.0024601437361 
0.0024134378354 0.0023677807051 0.0035038256147 0.0034348513893 0.0033715250704 0.0033136834051 0.003260950531 0.0032124237577 0.0031671392358 
0.0031239303351 0.0030816854168 0.003039503361 0.0029966995408 0.0029530976979 0.0029085706166 0.0028630178509 0.0028166325753 0.0027695631382 
0.0027219758628 0.0026740372614 0.0026259172857 0.0025777717019 0.0025297978761 0.0024821637765 0.0024350465966 0.0023886451818 0.0023431386042 
0.0022987307806 0.0033840023808 0.003319613013 0.0032609522565 0.0032076390269 0.0031591518389 0.0031145977684 0.0030728502552 0.0030326982273 
0.0029930574647 0.0029530559422 0.0029121387199 0.0028702426703 0.0028270829705 0.0027828504996 0.0027377004428 0.0026918120145 0.0026453861031 
0.0025985896003 0.0025515995948 0.0025046211772 0.0024578172509 0.0024113727829 0.0023654759509 0.0023203199226 0.0022761000935 0.0022330322876 
0.0032720865996 0.0032123015569 0.0031580692704 0.0031090766204 0.0030646042644 0.0030236607666 0.0029850428732 0.0029475326612 0.002910078439 
0.0028718652073 0.0028325758408 0.0027920381228 0.0027501111393 0.0027070262664 0.0026629793209 0.0026181768082 0.0025728364121 0.002527136403 
0.0024813020423 0.0024355029083 0.0023899136742 0.0023447173965 0.0023001032294 0.0022562679285 0.0022134066688 0.0021717356929 0.0031693863024 
0.0031139625408 0.0030640133385 0.0030190533932 0.0029782663849 0.0029405489367 0.0029046301809 0.0028693675481 0.0028337457189 0.0027970495512 
0.0027591185923 0.0027196230815 0.0026787301765 0.0026366309541 0.0025935462751 0.002549718485 0.0025053778862 0.0024607254002 0.002415991293 
0.0023713495628 0.0023269768594 0.0022830474165 0.0022397493469 0.0021972670587 0.0021558083492 0.0021155672953 0.0030765627598 0.0030253670903 
0.0029794575535 0.002938235695 0.0029007692726 0.0028658527893 0.00283228314 0.0027988674906 0.0027647272859 0.0027293367584 0.0026923537552 
0.0026537798157 0.0026137507577 0.0025724809256 0.002530232029 0.0024872606519 0.0024438058492 0.0024001329536 0.0023564311891 0.00231289366 
0.0022696983068 0.0022270150219 0.0021850253299 0.0021439045776 0.0021038546126 0.0020650645445 0.0029942249909 0.0029470264293 0.0029048700081 
0.002867022305 0.0028324796879 0.0028000197118 0.0027683660291 0.0027364487303 0.0027035248964 0.0026690494165 0.0026328878837 0.0025950639486 
0.0025557540096 0.0025151959541 0.0024736721251 0.0024314586212 0.0023888082187 0.002346002741 0.0023032435476 0.0022607300046 0.0022186430727 
0.0021771532402 0.0021364229078 0.0020966398863 0.0020579704393 0.0020206119662 0.0029227754228 0.0028792895908 0.0028405301876 0.0028057096206 
0.0027737132405 0.0027432588818 0.0027131488818 0.002682502716 0.0026503720805 0.002616633237 0.0025811159497 0.0025438973044 0.002505186121 
0.0024652406923 0.0024243538142 0.0023827914357 0.0023408815545 0.0022988586618 0.002256952351 0.0022153734077 0.0021743050053 0.0021339221853 
0.0020943741135 0.0020558579671 0.0020185239059 0.0019820400045 0.0028624945939 0.0028223897628 0.0027866708015 0.002754468092 0.0027245661909 
0.0026957191797 0.0026668962809 0.0026370019506 0.0026055271314 0.0025723290627 0.0025373041943 0.0025005745815 0.0024623688528 0.0024229599031 
0.0023826210841 0.0023416946211 0.0023004386931 0.0022591242775 0.002217979262 0.0021772420722 0.0021370988999 0.0020977202624 0.0020592853546 
0.0020213943368 0.0019853309664 0.0019506991823 0.0028135970572 0.0027764634895 0.002743388366 0.0027133309749 0.0026850891549 0.002657547289 
0.0026294581307 0.0026000854372 0.0025691097307 0.0025362859156 0.0025016300956 0.0024652957735 0.0024275263388 0.0023885984657 0.0023487746035 
0.0023084186074 0.0022677774405 0.0022271206575 0.0021866919533 0.0021467198344 0.002107407177 0.0020683627706 0.0020309152832 0.0019946543763 
0.0019597267158 0.0019261553484 0.0027760983724 0.0027415317145 0.0027105880055 0.0026822081782 0.0026552809775 0.0026284503174 0.0026008637274 
0.0025718227498 0.0025410926845 0.0025085048524 0.0024741059029 0.0024380970325 0.0024007186551 0.0023622154353 0.0023229350937 0.0022831288128 
0.0022430805971 0.002203050922 0.0021632876551 0.0021240181701 0.0020848733136 0.0020472231094 0.002010643278 0.001975223377 0.0019412249802 
0.0019088882479 0.0027498903299 0.0027173473889 0.0026880312986 0.0026609303092 0.0026346680218 0.002608245926 0.0025808690375 0.0025519290176 
0.0025212811664 0.0024888179982 0.0024546244491 0.0024189012378 0.0023818592243 0.0023438248272 0.0023050470402 0.0022657923562 0.0022263333989 
0.0021869224335 0.0021472043842 0.0021086122632 0.0020707502177 0.0020337162948 0.0019979092196 0.0019633177414 0.0019302574786 0.001898829913 
0.0027344498248 0.0027033871866 0.0026752463434 0.0026487172213 0.0026227671357 0.0025964252218 0.0025689226198 0.002539951093 0.0025092555281 
0.0024768279017 0.0024427842658 0.0024072931138 0.0023706424026 0.002333058754 0.002294801271 0.0022561182489 0.0022166504042 0.0021778815345 
0.0021394150416 0.0021013665066 0.0020641547588 0.0020278922542 0.001992684707 0.0019588610091 0.0019265462159 0.0018958395755 0.0027288510623 
0.0026987704834 0.0026710330417 0.0026446676889 0.0026186146012 0.0025920210667 0.0025642239129 0.0025349991798 0.0025041576682 0.0024717142758 
0.0024378019325 0.0024025760134 0.0023663125164 0.0023292145624 0.0022915133904 0.0022528228765 0.0022146262221 0.0021765145034 0.0021385988607 
0.00210130997 0.0020647344355 0.0020290190097 0.0019944947531 0.0019612641791 0.001929540344 0.0018994213165 0.0027315402118 0.002701638857 
0.0026738616704 0.0026471769482 0.0026206451123 0.0025934567277 0.0025652372275 0.0025356504593 0.0025046061264 0.0024721381632 0.0024383397721 
0.0024034470824 0.0023676169706 0.0023304133326 0.0022933408419 0.0022559512031 0.0022183455799 0.002180939906 0.002143823396 0.0021071975122 
0.0020711995836 0.0020361598128 0.0020021981542 0.001969499796 0.0019382665224 0.0019089482059 0.0027397726357 0.0027095991563 0.0026812693576 
0.0026538641527 0.0026265491839 0.0025986285565 0.0025698019796 0.0025397925504 0.0025085353652 0.0024760346078 0.002442463036 0.00240728186 
0.0023719733581 0.0023359328855 0.0022995633127 0.0022629241859 0.0022261957506 0.002189550771 0.0021531746394 0.0021171953955 0.0020819241609 
0.0020474900253 0.002014070778 0.0019818784049 0.0019513854215 0.0019220560805 0.0027501977429 0.0027192775595 0.0026900153094 0.0026615927016 
0.0026332923603 0.0026045190535 0.0025750389146 0.0025446114882 0.0025131487463 0.0024800748956 0.0024468002161 0.0024126342911 0.002377940277 
0.0023427377418 0.0023071688584 0.0022713713741 0.0022354978981 0.0021996201102 0.0021640620712 0.0021289092948 0.0020943374811 0.0020605219847 
0.0020279923942 0.0019962462757 0.0019657803316 0.001936775795 0.0027585774648 0.0027266239448 0.0026961964075 0.0026666030183 0.0026371839773 
0.0026076020229 0.0025775037657 0.0025460457803 0.0025145190502 0.0024821835541 0.0024493128071 0.0024158562009 0.002381904648 0.0023475561851 
0.0023129102147 0.002278068475 0.0022430817596 0.0022082069925 0.0021735304021 0.0021391950429 0.0021053642789 0.0020725557513 0.0020402266739 
0.0020089342978 0.0019788501565 0.0019501184032 0.0027605020271 0.00272741195 0.0026957740101 0.0026650170899 0.0026345934387 0.0026035406933 
0.0025729534858 0.0025418226639 0.0025104006251 0.0024785141011 0.0024461986214 0.0024134905144 0.0023804337633 0.0023470877152 0.0023135035153 
0.002279676404 0.0022458183082 0.0022119795077 0.0021782656803 0.0021451850727 0.0021121882606 0.002079689607 0.0020480055188 0.0020172525307 
0.0019874590533 0.0019588588529 0.0027520922374 0.0027179520892 0.0026852336026 0.0026527076688 0.0026213953598 0.0025904635743 0.0025595322817 
0.0025285386536 0.0024973741648 0.0024659995242 0.0024344217035 0.0024026360081 0.0023706444356 0.0023384591886 0.0023060215972 0.0022734633815 
0.0022407970388 0.0022081292431 0.0021758160007 0.002143306135 0.0021111064688 0.0020793686802 0.0020484003461 0.0020180588446 0.0019886451481 
0.0019602912861 0.0047641425453 0.0046573832612 0.0045551068262 0.0044574129141 0.004364303895 0.0042757105303 0.0041914456036 0.004111184531 
0.0040346934307 0.0039615651598 0.0038914459739 0.0038238793344 0.0037586414153 0.003695445315 0.0036338284412 0.0035735595637 0.00351436592 
0.0034560380431 0.0033983231587 0.003341155852 0.0032843977472 0.0032280555927 0.0031721531435 0.003116759597 0.0030619640391 0.0030078828941 
0.0046792652596 0.0045761739743 0.0044776825201 0.0043838481568 0.0042946496001 0.0042099339474 0.0041293832945 0.0040527377723 0.0039795395783 
0.0039093574528 0.0038417014057 0.00377616897 0.0037125989392 0.0036505031092 0.0035896997608 0.003529959889 0.0034711203036 0.0034129390695 
0.003355366498 0.0032982667918 0.0032416310326 0.0031854628383 0.0031298170836 0.0030747645995 0.0030204066609 0.0029668618738 0.0045800172226 
0.0044808347786 0.0043863639756 0.0042966478863 0.004211546202 0.0041309421124 0.0040544326948 0.0039815868712 0.0039119063792 0.0038448115929 
0.0037798434876 0.0037166409088 0.0036547972955 0.0035941084372 0.003534358144 0.0034753995824 0.0034171413289 0.0033594242033 0.0033021847931 
0.003245411444 0.003189116253 0.0031333294036 0.0030781224899 0.0030235819377 0.0029698175046 0.0029169546447 0.0044692842508 0.0043742084571 
0.0042839637406 0.0041984943142 0.0041177534591 0.0040414054538 0.0039690400035 0.0039001318958 0.0038340142472 0.0037702176283 0.0037080477856 
0.0036471226996 0.0035872447313 0.0035281370953 0.0034696582527 0.0034117816893 0.0033542916209 0.0032972248089 0.0032405780509 0.0031843637363 
0.0031286142259 0.003073399979 0.0030188114863 0.0029649555666 0.0029119365434 0.0028598921622 0.0043506835647 0.0042598315452 0.0041739451961 
0.0040929284293 0.0040165821052 0.0039446007658 0.0038763886164 0.003811352093 0.0037488981958 0.003688213751 0.003628841102 0.0035703181847 
0.0035124716587 0.0034550623848 0.0033980766813 0.0033413007301 0.0032848194664 0.0032286375573 0.0031727893824 0.0031173368932 0.0030623287349 
0.003007873966 0.0029540688713 0.0029010324973 0.0028489013693 0.0027978098137 0.0042279334361 0.0041415009898 0.0040600491998 0.0039834779489 
0.003911581486 0.0038438477347 0.0037797339424 0.0037185545682 0.0036594687695 0.0036018641897 0.0035451405148 0.0034890238431 0.0034331774686 
0.0033775215928 0.0033220268808 0.0032665551163 0.0032112213825 0.0031560787849 0.003101196203 0.0030466552536 0.0029925527692 0.0029390102677 
0.0028861422996 0.002834080044 0.0027829648689 0.0027329461053 0.0041045873927 0.0040225739869 0.0039455716624 0.0038734646746 0.0038058880056 
0.0037423745602 0.0036821521222 0.0036245049552 0.0035686616369 0.0035139466197 0.0034597618882 0.0034058392578 0.0033519585373 0.003298054334 
0.0032439928479 0.0031898775016 0.0031357776562 0.0030817836907 0.0030279900711 0.002974495856 0.0029214439165 0.0028689458729 0.0028171394448 
0.002766168935 0.0027161816191 0.0026673308473 0.0039834760705 0.0039059223623 0.0038333439103 0.0037655463197 0.0037022116442 0.0036426109831 
0.0035860650362 0.0035317522055 0.0034788849343 0.0034267932941 0.0033749070999 0.0033230442796 0.0032710299793 0.0032186751365 0.0031660835487 
0.0031133240967 0.0030604960237 0.0030077096583 0.0029550858388 0.0029027404194 0.0028508300158 0.0027994803115 0.0027488373103 0.0026990614201 
0.002650294819 0.0026027025499 0.0038669314839 0.0037937016815 0.0037254807874 0.0036618829634 0.0036024851841 0.0035466150273 0.0034934675628 
0.0034421929633 0.0033920143081 0.0033422607001 0.0032924538634 0.003242508402 0.0031920641196 0.0031412139854 0.0030900182725 0.0030385833304 
0.0029870143184 0.0029354573782 0.0028840303711 0.0028329007443 0.0027821955552 0.0027320643255 0.0026826596862 0.0026341389412 0.00258666017 
0.0025403987107 0.0037564734184 0.0036875812219 0.0036235024707 0.0035639194373 0.0035082885782 0.0034558735123 0.003405822344 0.0033572762301 
0.0033094677632 0.0032617449732 0.0032138310139 0.003165508535 0.0031165455679 0.0030670664499 0.0030171668324 0.0029669714178 0.0029166224616 
0.002866255055 0.0028160506841 0.0027661446523 0.00271668017 0.0026678091334 0.002619688404 0.0025724805745 0.0025263438899 0.002481455589 
0.0036534808961 0.0035886841371 0.0035285988233 0.0034728055249 0.0034206780393 0.0033714196926 0.003324128889 0.0032780091218 0.0032322941678 
0.0031863933754 0.0031401519154 0.0030931765691 0.0030455287334 0.0029972886621 0.0029485723519 0.0028995350571 0.0028503385942 0.0028011299068 
0.0027521080148 0.0027034092994 0.0026551865585 0.0026075881888 0.0025607744848 0.0025148989559 0.0024701349004 0.0024266372091 0.003558713527 
0.003497886604 0.0034415871488 0.0033893264602 0.0033404073442 0.0032939637013 0.0032491696334 0.0032051498331 0.0031612398462 0.0031169920213 
0.0030720454601 0.0030263190311 0.0029798341594 0.0029326982351 0.0028850585834 0.0028370857549 0.0027889482382 0.0027408581621 0.0026929660898 
0.0026454372969 0.0025984264379 0.0025520838058 0.0025065666236 0.0024620257847 0.0024186311371 0.0023765345891 0.003472860195 0.0034157878306 
0.0033630222679 0.0033139850889 0.0032679508355 0.0032240603645 0.0031814048705 0.0031391999929 0.0030968707972 0.0030539152677 0.0030101548 
0.0029655177095 0.0029200648197 0.0028739196512 0.0028272551333 0.0027802634434 0.0027331207826 0.0026860565199 0.0026392303989 0.002592812748 
0.0025469634658 0.0025018355611 0.0024575740791 0.0024143453867 0.002372288907 0.0023315683165 0.0033963651204 0.0033427869765 0.0032932485919 
0.0032471465071 0.0032036965237 0.0031619850776 0.003121162531 0.0030805948554 0.0030394569362 0.0029976331342 0.0029548896471 0.0029111998418 
0.0028666555515 0.0028214024034 0.0027756298432 0.0027295162542 0.0026833164734 0.0026372107393 0.0025913818053 0.0025460100245 0.0025012554133 
0.0024572779756 0.0024142103455 0.0023722333338 0.0023314750246 0.0022915749281 0.0033295038931 0.0032791251886 0.0032325028198 0.0031890083303 
0.0031477702577 0.003107914861 0.003068728258 0.0030293185336 0.0029892560229 0.0029483773721 0.0029065000704 0.0028636376539 0.0028199035144 
0.0027754615744 0.0027304853601 0.002685234201 0.0026398947781 0.0025946800935 0.0025497712988 0.002505374159 0.0024616457961 0.0024187409998 
0.0023768216333 0.0023354748006 0.0022959640795 0.0022578944809 0.0032724197649 0.0032248994635 0.0031808713822 0.0031395881456 0.0031002103296 
0.0030619801212 0.0030239295165 0.002985479329 0.002946349473 0.0029062525234 0.0028651139725 0.0028229771702 0.0027799737365 0.0027362771351 
0.0026920548394 0.0026475930721 0.0026030699113 0.0025586977962 0.002514673339 0.0024711870961 0.0024284121905 0.002385934325 0.0023450663651 
0.002305379093 0.0022670036153 0.0022299406587 0.0032250807292 0.0031800532765 0.0031381921194 0.0030987439902 0.0030609666291 0.0030238371044 
0.0029867368163 0.0029490796308 0.0029106393995 0.0028711842618 0.0028306644687 0.0027891722018 0.0027468413088 0.002703820229 0.0026603671219 
0.0026166621803 0.0025729239064 0.0025293587812 0.002486167071 0.0024435355823 0.0024010673811 0.0023600987021 0.0023201865674 0.0022814006739 
0.0022439839511 0.0022081549027 0.0031872091056 0.0031442396018 0.0031041416173 0.0030662335307 0.0030294962319 0.002993229649 0.0029568270889 
0.0029197527508 0.0028818415147 0.0028429113934 0.00280294789 0.0027620464729 0.0027203181843 0.0026780007315 0.0026352601995 0.0025922990497 
0.002549329386 0.0025065517904 0.0024635661915 0.0024217672714 0.0023807226025 0.0023405001054 0.002301471712 0.0022636026704 0.0022271860932 
0.0021922996309 0.0031581840397 0.0031168461374 0.0030781803505 0.0030412155796 0.0030052546814 0.0029695841146 0.0029335797086 0.0028969681141 
0.0028594542351 0.0028209522067 0.0027814756222 0.0027410926727 0.0027000064798 0.0026583565935 0.0026163283267 0.0025741136323 0.0025312990606 
0.0024893186635 0.002447734822 0.0024066249836 0.0023663722948 0.0023270568597 0.0022887542245 0.0022517648611 0.002216186327 0.0021820917129 
0.0031370379963 0.003096974008 0.0030591052192 0.0030227926094 0.0029872799769 0.0029519292641 0.0029161810389 0.0028798187875 0.002842601599 
0.0028044605146 0.0027654347409 0.0027255886723 0.0026851153311 0.0026441452702 0.0026028469936 0.0025607811123 0.0025193807097 0.002478090847 
0.0024372983312 0.0023970829859 0.0023576020474 0.0023189691623 0.0022814830718 0.0022452147604 0.0022103455974 0.002176967252 0.0031223453545 
0.0030829107372 0.0030455391769 0.0030095104974 0.0029741512005 0.0029388260597 0.0029032220462 0.0028670005736 0.0028300099746 0.0027922042065 
0.0027535905147 0.0027143236369 0.0026744879954 0.002633585715 0.0025930634217 0.0025523231342 0.0025117455895 0.0024713853303 0.0024314052815 
0.0023919732783 0.0023531950423 0.0023153671649 0.0022785772508 0.0022429775247 0.0022087346804 0.0021762657863 0.0031117829082 0.0030726844756 
0.0030354328873 0.0029993890888 0.0029639423739 0.00292853097 0.0028928972228 0.0028567459003 0.0028199531678 0.0027824504506 0.002744334748 
0.002704998912 0.0026658611571 0.0026262656152 0.0025865697776 0.0025467944505 0.0025070852264 0.0024675828669 0.0024284424591 0.0023897610998 
0.0023518201327 0.0023147172631 0.0022785986118 0.0022436410852 0.0022102846094 0.0021779572011 0.0031028043629 0.0030636998555 0.0030262952582 
0.0029900108815 0.0029542534631 0.0029187044631 0.0028829825416 0.0028468835843 0.0028102676591 0.0027724966992 0.0027349165582 0.0026967797188 
0.0026583996186 0.0026197540941 0.0025809501168 0.0025420947855 0.0025033136393 0.0024646518343 0.0024264069832 0.0023886375883 0.002351491173 
0.002315113627 0.0022800030097 0.0022456252472 0.0022124423703 0.0021806036559 0.0030923387867 0.0030530208199 0.0030152850514 0.002978632704 
0.0029425479555 0.0029067697635 0.0028709653663 0.0028342369988 0.0027979357671 0.0027611669503 0.0027241886138 0.0026869057497 0.0026493717975 
0.0026116544027 0.0025738284606 0.0025359744842 0.002498123376 0.0024605114823 0.0024232028707 0.002386316365 0.0023499889564 0.0023147101351 
0.0022799370397 0.0022461095234 0.0022134524587 0.0021820490091 0.0030773092212 0.003037684502 0.0029995634779 0.002962523979 0.0029261279657 
0.0028894722842 0.0028536650358 0.0028176830712 0.0027817460831 0.0027456424905 0.0027093714607 0.0026729343709 0.002636353301 0.0025996684048 
0.0025629181929 0.0025260867784 0.0024893755449 0.0024528170672 0.0024165018607 0.0023809144306 0.0023454815311 0.0023105899974 0.0022765276977 
0.0022433810773 0.002211149183 0.0021800351482 0.0030550301994 0.0030151289906 0.002976686106 0.0029385831891 0.0029019175336 0.0028659025541 
0.0028301708192 0.0027946495049 0.0027592069781 0.0027237765325 0.0026883395389 0.0026528715298 0.0026173624206 0.002581819493 0.0025461842154 
0.0025105889364 0.0024750436213 0.002439646339 0.0024047384142 0.0023697460963 0.0023351536079 0.002301084553 0.0022678181451 0.0022351834606 
0.0022034519807 0.0021727309222 0.0052243912849 0.0051096390967 0.0049993403829 0.0048935432588 0.0047922168861 0.0046952816189 0.0046025655482 
0.0045137833012 0.0044287569554 0.0043471411482 0.0042686391938 0.0041928424637 0.0041195634693 0.0040485495417 0.0039793716369 0.0039118339299 
0.0038456969547 0.0037807788311 0.003716844393 0.0036538319903 0.0035915958555 0.003530123984 0.0034694139287 0.0034095035427 0.0033504476663 
0.0032923287277 0.0051347829468 0.0050237554577 0.0049172311906 0.0048152197356 0.0047176751273 0.0046244469142 0.0045352550957 0.0044499051654 
0.0043680273386 0.0042892798132 0.0042132502612 0.0041395933985 0.0040681950766 0.0039985522595 0.0039305371615 0.0038639201179 0.0037985486641 
0.0037341892083 0.0036707923411 0.0036082162816 0.0035464375481 0.0034854386772 0.0034252477993 0.0033659068214 0.0033074838079 0.0032500643188 
0.0050345312318 0.0049274117334 0.0048248379352 0.0047268079191 0.0046331644411 0.0045438093602 0.0044583993908 0.0043765998368 0.0042980305543 
0.0042222294118 0.0041488329835 0.0040775438823 0.0040079869813 0.0039399688486 0.0038732725651 0.0038077415939 0.0037433070222 0.0036797149385 
0.0036169721243 0.0035550246337 0.0034938633635 0.0034334944114 0.0033739621093 0.0033153233174 0.0032576566861 0.0032010555309 0.0049255463989 
0.0048224837337 0.0047240156321 0.0046300462809 0.0045405205133 0.0044551400736 0.0043736106588 0.004295434324 0.0042201920535 0.0041475220346 
0.0040768389932 0.004007828108 0.0039403141463 0.0038740257116 0.0038087964967 0.0037445834247 0.0036811429193 0.0036184890449 0.0035565948165 
0.0034954481884 0.0034350573496 0.0033754616993 0.0033167347243 0.0032589278271 0.0032021392283 0.0031464662946 0.0048103153036 0.0047113857635 
0.0046171185744 0.0045273830941 0.0044419846896 0.0043606731981 0.0042829644303 0.0042084195664 0.0041366183929 0.0040669085319 0.0039989461208 
0.0039323326167 0.0038669124431 0.0038024335237 0.0037388517379 0.0036759194317 0.0036136844205 0.0035521172286 0.0034912295655 0.0034310260626 
0.0033715519332 0.0033128768858 0.0032550674615 0.003198215499 0.0031424152525 0.0030877801364 0.0046914934609 0.004596861587 0.0045068463603 
0.004421321705 0.004340101937 0.0042627535998 0.0041888715562 0.0041179524688 0.0040493478865 0.0039826121104 0.0039172601696 0.0038530722558 
0.0037897197675 0.0037270982862 0.0036651368678 0.0036036570467 0.0035427257825 0.0034823565492 0.0034225792013 0.0033634450498 0.0033050132356 
0.003247374628 0.0031906121249 0.0031348252571 0.0030801244234 0.0030266234033 0.0045717924227 0.0044814352265 0.0043956653316 0.0043143778679 
0.0042372212469 0.0041638435168 0.0040936323928 0.00402607978 0.0039606166135 0.0038967336478 0.0038339399548 0.0037720088629 0.0037107158032 
0.0036499614959 0.0035895596084 0.0035295666753 0.0034700014157 0.003410909627 0.0033523454876 0.003294371073 0.0032370944787 0.003180594088 
0.0031249764358 0.0030703491496 0.003016831268 0.0029645411357 0.0044534739658 0.0043674179411 0.0042858800216 0.0042086799685 0.0041355286206 
0.0040658591369 0.00399917201 0.0039348651546 0.0038723579287 0.0038111367839 0.0037507257827 0.0036909680048 0.0036316717419 0.003572602552 
0.0035138082715 0.0034553016386 0.0033971301919 0.0033393581991 0.0032820535674 0.0032253308458 0.0031692759749 0.0031139934529 0.0030595965623 
0.0030062130045 0.0029539517892 0.0029029437939 0.0043385442151 0.0042566464008 0.0041792715496 0.0041060553092 0.0040366625169 0.0039705781785 
0.0039072052414 0.0038459300724 0.0037861681796 0.0037273971947 0.0036692117889 0.0036115355606 0.0035539788235 0.0034965790571 0.0034393345796 
0.0033822919557 0.0033255028829 0.0032690671391 0.0032130623439 0.0031576199804 0.0031028338586 0.003048821211 0.0029957030557 0.00294360436 
0.0028926500227 0.0028429805054 0.0042283739875 0.0041506581152 0.0040772314854 0.0040078530129 0.0039420830988 0.0038793682322 0.0038190826025 
0.0037606072226 0.0037033351877 0.0036467706358 0.0035907608876 0.0035348309442 0.0034789597951 0.003423123322 0.003367349931 0.0033117012352 
0.0032562647115 0.003201129123 0.0031464367009 0.0030922887735 0.0030387975155 0.0029860849399 0.0029342779121 0.0028835080031 0.0028339008288 
0.0027855989438 0.0041242971446 0.0040505041825 0.0039809165233 0.0039151846357 0.0038528229067 0.0037932396835 0.0037357702182 0.0036798419703 
0.0036248626537 0.0035703451336 0.0035161648212 0.0034619097015 0.0034075859407 0.0033532040252 0.0032988086494 0.0032444892576 0.0031903512395 
0.00313649386 0.0030830807987 0.0030302131266 0.0029780159819 0.0029266109969 0.0028761306727 0.0028266997091 0.0027784601506 0.0027315328799 
0.0040270777374 0.0039571040439 0.0038911617875 0.0038288569887 0.0037696598729 0.0037129269135 0.0036580716464 0.0036044321366 0.0035515040907 
0.0034989005916 0.003446285046 0.0033935455529 0.0033406366135 0.0032875917639 0.0032344833735 0.0031814145088 0.00312849578 0.0030758902649 
0.0030237143476 0.0029720978883 0.002921170392 0.0028710574795 0.0028218918912 0.0027737982328 0.002726917236 0.0026813682129 0.0039374212761 
0.0038710693323 0.0038085507621 0.0037494081446 0.0036931060354 0.0036390200054 0.0035864778266 0.0035348915445 0.0034838153279 0.0034328030814 
0.0033816720247 0.0033303043206 0.0032786915241 0.0032268804151 0.0031749676393 0.003123056193 0.0030713254463 0.0030198939095 0.0029689041303 
0.0029184915539 0.0028687937491 0.0028199398772 0.0027720529304 0.0027252762786 0.0026797213181 0.0026355227767 0.0038557785893 0.0037928135208 
0.0037334488019 0.0036772301517 0.0036235786216 0.0035718231293 0.0035213399652 0.0034716706001 0.0034220976456 0.0033725320349 0.0033227262697 
0.0032725968245 0.0032221624604 0.0031714904132 0.0031206945679 0.003069884906 0.0030192568768 0.0029689413095 0.0029190806839 0.0028698218717 
0.002821303133 0.0027736556456 0.0027269970715 0.0026814746154 0.0026366799011 0.0025938200556 0.0037824127968 0.0037225760654 0.0036661096021 
0.0036125307678 0.0035612167151 0.003511523792 0.0034629497399 0.0034147550685 0.0033665894226 0.0033183019509 0.0032696781743 0.0032206699039 
0.0031713154553 0.003121699269 0.0030719258544 0.0030221823587 0.002972598699 0.0029233381942 0.0028745401886 0.0028263783355 0.0027789806199 
0.0027324794675 0.0026870217123 0.0026421596054 0.0025991483125 0.0025575627802 0.0037174318679 0.0036604284381 0.0036065776524 0.0035553217777 
0.0035060532536 0.0034582453646 0.003411125221 0.0033642372259 0.0033173553039 0.0032701898964 0.0032226232425 0.0031746327098 0.0031262746403 
0.0030776211817 0.0030288446192 0.0029800910529 0.002931506337 0.002883254259 0.002835489813 0.0027883686073 0.0027420345738 0.0026960501851 
0.002651704108 0.0026085482119 0.0025666925795 0.002526114003 0.0036607561212 0.0036062783573 0.0035546892312 0.0035054397166 0.003458020406 
0.0034116288019 0.0033658136779 0.0033200904896 0.0032742637313 0.0032280851281 0.0031814541899 0.0031343950325 0.0030869676862 0.0030392480258 
0.002991426441 0.0029436217667 0.0028959994296 0.0028487175123 0.0028019355305 0.0027558059064 0.0027098985567 0.0026655244306 0.0026222171554 
0.0025800249956 0.0025391698577 0.0024998439074 0.0036120593297 0.0035597456622 0.0035100909301 0.0034626264017 0.0034165623875 0.0033713992897 
0.0033266734305 0.0032819250696 0.0032370019581 0.0031916940088 0.0031459312969 0.0030997413731 0.0030531644988 0.003006369746 0.002959460427 
0.0029125820193 0.0028658960048 0.0028195580679 0.0027731297311 0.0027279675055 0.0026836088885 0.0026400938977 0.0025977683497 0.002556574043 
0.0025168077818 0.0024784424528 0.0035707059709 0.0035202169785 0.0034722517501 0.0034260568991 0.0033811488817 0.0033369959323 0.0032930915438 
0.0032492133641 0.003205066791 0.0031605305363 0.003115557199 0.0030701527853 0.0030244523883 0.0029785326841 0.0029325212652 0.0028865580739 
0.0028401845279 0.0027947897562 0.0027499009223 0.0027055604091 0.0026621196666 0.002619629849 0.002578139272 0.0025379223581 0.0024990512632 
0.0024615707434 0.003535791332 0.0034868675753 0.0034400594573 0.0033949145391 0.0033508997439 0.0033075247517 0.0032643243855 0.0032211159573 
0.0031776438437 0.0031338057276 0.0030895721001 0.0030449566331 0.0030000875311 0.0029550383389 0.0029092953079 0.0028642658226 0.0028194462576 