# vtk DataFile Version 5.1
vtk output
ASCII
DATASET STRUCTURED_POINTS
DIMENSIONS 26 26 26
SPACING 0.08 0.08 0.08
ORIGIN -1 -1 0.5
POINT_DATA 17576
FIELD FieldData 1
potential 1 17576 double
0.024685563496 0.024223369266 0.023723123908 0.023192175053 0.022638296534 0.022069545922 0.02149410808 0.020920202694 0.020356064686 
0.019809834678 0.019289327884 0.018801531463 0.018351803598 0.017943067274 0.017575134403 0.017244385511 0.016944601858 0.016667757575 
0.016405401628 0.0161496059 0.01589363353 0.015632426115 0.015362596022 0.015081965161 0.014789873175 0.014486585882 0.023606407181 
0.023191104512 0.022745443857 0.022275600551 0.021787981299 0.021288998777 0.020784910829 0.020281779345 0.019785478251 0.019301745393 
0.018836137987 0.01839371248 0.017978478353 0.01759274704 0.017236487974 0.016907502174 0.016601510783 0.01631300991 0.016035963851 
0.015764545569 0.015493820973 0.015220005745 0.014940241163 0.014653039165 0.01435782225 0.014054838595 0.022513321738 0.022140890229 
0.021744981392 0.021330712893 0.020903212467 0.020467378475 0.020027669199 0.019588128886 0.019152481997 0.018724388973 0.018307540663 
0.017905592378 0.017521432846 0.017157084161 0.016812991075 0.016487984519 0.016179394746 0.015883693873 0.015596703532 0.015314514276 
0.015033415551 0.014750682264 0.014464338865 0.014173242481 0.013877018388 0.013575959343 0.02140646391 0.021073433768 0.020723041682 
0.020359450112 0.019986610156 0.019607983542 0.019226385846 0.018843991078 0.018462634457 0.018084222017 0.017711053855 0.017345441539 
0.016989879714 0.016646159748 0.016315129548 0.015996465098 0.015688902248 0.015390308231 0.015097966556 0.014809345846 0.014522062179 
0.014234233208 0.013944514563 0.01365198986 0.013356901528 0.013059367861 0.020297069592 0.020000367654 0.019691720419 0.019374387013 
0.019051209386 0.018724320371 0.018394964293 0.018063685566 0.017730808608 0.017396637212 0.017062369032 0.016729708493 0.016400653797 
0.01607696777 0.015759832029 0.015449774451 0.015146252581 0.014848345992 0.014554666634 0.014263488178 0.013973819836 0.013684298432 
0.013394102938 0.013103007069 0.012811073889 0.012518798301 0.019200860927 0.018937716295 0.01866735359 0.018392189082 0.018114005164 
0.017833645716 0.017551063853 0.017265163139 0.016974982372 0.016679947376 0.016380370279 0.016077473612 0.015772959946 0.015468743172 
0.015165851019 0.014865869477 0.01456890609 0.01427482682 0.013983145038 0.013693158097 0.013404305154 0.013116029884 0.012828065498 
0.012540437009 0.012253488674 0.01196784395 0.018133329906 0.017901155955 0.017665846924 0.017429010569 0.017191481189 0.016952698539 
0.016711357104 0.016465365548 0.016212675064 0.015951977958 0.015682837699 0.015406736364 0.015124876964 0.01483910063 0.014551221496 
0.014262523421 0.013973978276 0.013686086003 0.013399035617 0.013112844188 0.012827461298 0.012542897738 0.012259305941 0.011976991884 
0.011696615182 0.011418932238 0.017107283293 0.016903648995 0.016700461819 0.016498281902 0.016296683358 0.016094764346 0.015889707671 
0.015678474965 0.015458330854 0.015227597738 0.014985665461 0.014733377442 0.014472187721 0.014204069645 0.013930850834 0.013654177023 
0.013375373456 0.013095418371 0.012815024325 0.012534709982 0.012254903839 0.011975987968 0.01169857093 0.011423407689 0.011150905391 
0.010882207139 0.016132273564 0.015954808955 0.015780589468 0.015609573627 0.01544054386 0.015270993323 0.015097454684 0.01491623571 
0.014724083696 0.01451908431 0.014300699603 0.014069584438 0.013827313713 0.013575756124 0.013316887992 0.013052544811 0.012784532005 
0.0125137464 0.012241409237 0.011968578628 0.01169596959 0.011424349169 0.011154508478 0.010887311324 0.010623726231 0.010364852818 
0.015215333584 0.015061773744 0.01491380848 0.014770862467 0.0146303043 0.014488899365 0.014342457205 0.014186776341 0.014018499865 
0.013835634123 0.013637710868 0.013425363486 0.013200187982 0.012964066359 0.012719036536 0.012467045132 0.012209782092 0.011948975234 
0.011685877221 0.011421683158 0.011157461512 0.010894238284 0.010633119203 0.010375009756 0.010121121077 0.0098726742542 0.014361415403 
0.014229513874 0.014105052092 0.013986416439 0.013870586968 0.013753348953 0.013629908204 0.013495834303 0.013347744983 0.013183768673 
0.013003479175 0.01280771763 0.012597957588 0.012376034601 0.012144209005 0.011904385896 0.01165843444 0.011408060137 0.011154876715 
0.010900094079 0.010645088044 0.01039107952 0.010139284018 0.009890924229 0.0096472744892 0.0094096596272 0.013573311601 0.013460794159 
0.013357123837 0.013259904576 0.013165322793 0.013068500562 0.012964326569 0.012848250036 0.012717048938 0.012568999236 0.012403848932 
0.0122226191 0.012026719191 0.011818178187 0.011598826026 0.011370789063 0.011136008613 0.010896255581 0.010653174403 0.01040829143 
0.010163037538 0.0099187802055 0.0096768817235 0.0094386905101 0.0092055965211 0.0089790198108 0.012853568071 0.012758197773 0.012672641447 
0.012593747451 0.01251705084 0.012437182574 0.012348805225 0.012247475339 0.012130174379 0.011995581256 0.011843564923 0.01167503382 
0.011491541321 0.011294963085 0.011087320147 0.010870611899 0.010646783557 0.010417642207 0.010184892245 0.0099501492337 0.0097149376292 
0.009480735022 0.0092489933431 0.0090211805031 0.0087987636999 0.0085835527833 0.012203943094 0.012123435073 0.012053292669 0.011989611809 
0.011927583212 0.011861377217 0.011785646703 0.011696130864 0.01159022966 0.011466763154 0.011325810987 0.011168349976 0.010995927897 
0.010810378522 0.010613663486 0.010407743506 0.010194526507 0.0099758333945 0.0097533859564 0.0095288338822 0.0093037533986 0.0090796990208 
0.0088585017348 0.0086410839817 0.0084292964541 0.0082247327949 0.011624992085 0.011557044804 0.011499660372 0.011448541427 0.011398104064 
0.011342511554 0.011276505459 0.011196280461 0.011099432741 0.010985091283 0.01085348299 0.010705637858 0.010543073466 0.010367572209 
0.010181015352 0.0099852988697 0.0097822770681 0.0095737467439 0.0093617359401 0.0091472663942 0.0089322651933 0.0087183075475 0.0085069733943 
0.0082998868114 0.0080985379656 0.0079045922802 0.011117512642 0.01105977979 0.011012567579 0.010970977994 0.010929197834 0.010881349164 
0.010822579595 0.010749278899 0.010659477875 0.010552513192 0.010428745304 0.010289226384 0.010135431128 0.0099690603744 0.0097922347754 
0.0096061243355 0.0094128375603 0.0092141122328 0.0090116276839 0.0088070289572 0.0086019147066 0.0083979014757 0.0081965197984 0.0079994061407 
0.0078081745187 0.0076244733389 0.010680957627 0.010631115327 0.01059139363 0.010556566079 0.010520641358 0.010478055883 0.010424140641 
0.010355755349 0.010271238505 0.010170141616 0.010053230435 0.0099209098866 0.009774918905 0.0096168610367 0.0094484330369 0.009271349739 
0.0090873148896 0.0088979925882 0.0087050146889 0.0085099788015 0.008314492245 0.0081200766093 0.0079283400204 0.0077408699721 0.0075593290302 
0.0073853677894 0.010313917544 0.010269621501 0.010234841467 0.010204081199 0.010171574529 0.010132196032 0.010081103264 0.010015868953 
0.0099351404044 0.0098386306508 0.0097268300646 0.0096007524115 0.0094617280887 0.0093112520604 0.0091509075508 0.0089822979885 0.0088070305061 
0.008626685036 0.0084428520253 0.0082569892447 0.0080707296559 0.0078855684822 0.0077030890434 0.0075248584009 0.0073525024432 0.0071876611075 
0.010013759362 0.0099727960412 0.0099404630539 0.0099114362356 0.0098799967112 0.0098411391205 0.0097911205575 0.0097275969153 0.0096494277592 
0.0095564453293 0.0094491587906 0.0093285264679 0.0091957050503 0.009052184621 0.0088993628998 0.008738722335 0.0085717896949 0.0083999944499 
0.0082248471884 0.0080478176907 0.0078704029239 0.0076940974916 0.0075204076737 0.0073508924145 0.0071871481676 0.0070307360757 0.009774726115 
0.009734959994 0.0097029643472 0.0096734443933 0.0096411030382 0.0096014248566 0.0095510953139 0.009488108485 0.0094115328631 0.0093212495537 
0.0092177675753 0.0091019391523 0.0089748568669 0.0088377663945 0.008691978563 0.0085388848416 0.0083797952997 0.0082161302698 0.0080492757524 
0.0078806497377 0.007711655417 0.0075437308335 0.0073783506699 0.0072169152129 0.0070611386423 0.0069124454002 0.0095894790058 0.0095492052249 
0.0095155961957 0.0094837784808 0.0094489592249 0.0094071113256 0.0093554236592 0.0092921331604 0.009216451851 0.0091282962765 0.0090280991807 
0.0089166023788 0.0087947672553 0.0086636198312 0.0085244604241 0.0083784554286 0.0082268485184 0.0080709284937 0.0079119911895 0.0077513475468 
0.0075903393882 0.0074303440446 0.0072727535494 0.0071189981522 0.0069705531857 0.0068288241147 0.0094466787375 0.0094044234763 0.0093677517626 
0.0093323229487 0.0092939301595 0.0092491004617 0.0091953807076 0.0091312661519 0.0090560626796 0.0089696776947 0.0088724382805 0.0087649990264 
0.008648112886 0.0085227401468 0.0083899168902 0.0082507180137 0.0081062731136 0.0079577428883 0.0078063311061 0.0076532694291 0.0074998127328 
0.0073472836265 0.007196975207 0.0070502638304 0.0069084698249 0.0067730139526 0.0093318917488 0.0092867214245 0.0092461050481 0.0092063208438 
0.0091637919351 0.009115565613 0.0090595502451 0.0089944275913 0.0089195620415 0.008834838106 0.0087404319942 0.0086368432098 0.008524742112 
0.0084048990288 0.0082781866969 0.0081455408324 0.0080079684877 0.0078665122158 0.0077222959953 0.0075764507619 0.0074301611231 0.0072846380827 
0.0071411165657 0.0070008990752 0.0068652120546 0.0067353577761 0.0092279024949 0.009179451523 0.0091346159053 0.0090903346559 0.0090436427213 
0.0089921041223 0.0089339134716 0.0088679446467 0.0087935301423 0.0087104881844 0.0086189623998 0.0085192745979 0.0084119207044 0.00829751995 
0.0081767844765 0.008050510069 0.0079195766816 0.0077849353607 0.0076475948526 0.0075086135397 0.0073690978685 0.0072301622092 0.0070930014765 
0.0069587305752 0.006828901017 0.0067040375726 0.0091172290322 0.009065656148 0.0090169112108 0.0089685446398 0.0089181726611 0.0088638284719 
0.0088039185454 0.0087374440257 0.0086638181995 0.008582780368 0.0084943385807 0.0083986830798 0.0082961470797 0.0081871907172 0.0080723700897 
0.0079523382181 0.0078278618643 0.0076997940595 0.0075690467448 0.0074365933652 0.0073035044689 0.0071710329382 0.0070398303074 0.0069111830443 
0.0067861718455 0.0066658321156 0.0089846364757 0.0089305349818 0.0088786635373 0.008827076822 0.0087738754427 0.0087174633276 0.0086565560187 
0.008590236066 0.0085179258532 0.0084393037186 0.0083542756512 0.008262889191 0.008165324538 0.0080618810459 0.0079529559528 0.0078390799991 
0.0077209043554 0.0075991910574 0.0074749832761 0.0073487829562 0.007221773818 0.0070949512327 0.0069693422599 0.0068459104218 0.0067256513572 
0.0066094863916 0.027700575522 0.027204551578 0.026671287695 0.026107407545 0.025519976705 0.024916381911 0.024304183707 0.023691001521 
0.02308443186 0.022491862537 0.021920215847 0.021375531047 0.020862430751 0.020383548547 0.019939192766 0.019527073086 0.019142961028 
0.018781112372 0.018435242322 0.018099176847 0.017767394364 0.017435525124 0.017100435532 0.016759882645 0.01641292463 0.016059413748 
0.026409726421 0.025961319496 0.025482515825 0.024978856537 0.024456166931 0.023920380604 0.023377415285 0.022833121283 0.022293208714 
0.021763185155 0.021248212699 0.020752842506 0.020280630329 0.019833718311 0.019412389921 0.019015288243 0.0186394162 0.018280761783 
0.01793474177 0.017596746813 0.017262725104 0.016929427677 0.016594228503 0.016255633767 0.015912888367 0.015565948401 0.025155788429 
0.024750733047 0.024321373037 0.023872276801 0.023408094542 0.02293343165 0.022452702182 0.021970108745 0.021489666812 0.021015253777 
0.02055056221 0.02009902948 0.019663252415 0.019245082128 0.018845079395 0.018462538075 0.018095547916 0.017741504746 0.017397165149 
0.017059433476 0.016725217415 0.016392188503 0.01605856162 0.015723212437 0.015385650751 0.015045957385 0.023929334116 0.023563923532 
0.02317960462 0.022780042768 0.022368836553 0.021949344936 0.021524610706 0.021097347468 0.020670080358 0.020245382732 0.019825593369 
0.019413225737 0.019010456622 0.018618857009 0.018239206116 0.017871371964 0.017514410085 0.01716677245 0.016826287089 0.01649093705 
0.016158746398 0.015828107001 0.015497814426 0.015166969115 0.014835729398 0.014504048067 0.022730502297 0.022401452506 0.022058250242 
0.021703725404 0.021340490329 0.020970777761 0.020596346279 0.020218621463 0.019838951752 0.019458495334 0.019078912777 0.018701938207 
0.018329337451 0.017962572725 0.017602612736 0.017249933999 0.016904115218 0.016564472965 0.016229919241 0.015899024262 0.015571043314 
0.015244784315 0.014919510573 0.014594996306 0.014271229205 0.013948564444 0.021564789427 0.021269152966 0.02096350069 0.020649899159 
0.020330045036 0.020005104056 0.019675828166 0.019342304785 0.019004845424 0.018663889304 0.018320277504 0.017975280065 0.017630334443 
0.017286981827 0.01694591967 0.016608530849 0.016274855227 0.015944803659 0.015618002661 0.01529388619 0.014972017399 0.014651924586 
0.014333373858 0.014016366415 0.013701166143 0.01338826847 0.020439707077 0.020174761033 0.019903367192 0.01962688327 0.019346228619 
0.019061406789 0.018772186877 0.018477902161 0.018177931401 0.017871776556 0.017560292214 0.017244198403 0.016924645373 0.016603042678 
0.016280775886 0.015958879448 0.015638075911 0.015318794569 0.015001210441 0.014685359225 0.01437123022 0.014058841261 0.013748334872 
0.013439967839 0.013134305621 0.012831972045 0.01936258203 0.019125797041 0.018885711826 0.018642763819 0.018396808576 0.018147758058 
0.017894122843 0.01763446542 0.017367537755 0.017092694059 0.016809776116 0.016519562366 0.01622316007 0.015922064505 0.015617646352 
0.015311177766 0.015003713802 0.014696056971 0.014388815336 0.014082450144 0.013777291742 0.01347386151 0.013172537707 0.012874058257 
0.012578723632 0.012287531272 0.018339506865 0.018128461714 0.017916559088 0.017703787691 0.017489433102 0.017272057177 0.017049733588 
0.016820475138 0.01658249127 0.016334801073 0.016077203991 0.015810225515 0.015535037529 0.015253009914 0.014965636493 0.01467456032 
0.014380620402 0.014085138666 0.01378895206 0.013493001821 0.013197916933 0.012904384558 0.012613110675 0.012324858638 0.012040472104 
0.011760891869 0.017375440291 0.01718784974 0.017001737606 0.016815961089 0.016629407678 0.016439892458 0.016244931298 0.016042057102 
0.015829285858 0.015605412865 0.015370181215 0.015124016273 0.014868076116 0.014603731248 0.014332529734 0.014055907832 0.013775485763 
0.013492458635 0.013207971254 0.012923065437 0.012638684938 0.012355744085 0.012075236744 0.01179794639 0.011524941303 0.011257274002 
0.016474030009 0.016307670377 0.016144183759 0.015982370112 0.015820194652 0.015654968996 0.015483711653 0.015303688973 0.015112752334 
0.01490964694 0.014694036872 0.014466481024 0.014227988502 0.013979885696 0.013723942476 0.013461646961 0.013194523334 0.012924092468 
0.012651474533 0.012377976584 0.01210473307 0.011832829244 0.011563346995 0.011297367264 0.011036005588 0.010780401774 0.015637171447 
0.015489831697 0.015346662213 0.015205904233 0.015064967515 0.014920679365 0.014769787128 0.014609338324 0.014437171875 0.014252012666 
0.014053575526 0.013842538244 0.01361993958 0.013386982646 0.013145345856 0.012896641098 0.012642469291 0.012384323059 0.012123618644 
0.011861692383 0.011599807666 0.011339181973 0.011081020176 0.010826518399 0.010576889112 0.010333351902 0.01486667247 0.014736229155 
0.014610891863 0.014488381386 0.014365680956 0.014239257245 0.014105602954 0.013961765734 0.013805558574 0.013635959383 0.01345269843 
0.013256299345 0.013047830272 0.012828677248 0.012600401044 0.012364625167 0.012122946504 0.011876916213 0.011628004581 0.011377630825 
0.011127144265 0.010877857406 0.010631058191 0.010388041043 0.010150082757 0.0099187767044 0.014163591839 0.014047921026 0.013937812834 
0.013830912932 0.013723611228 0.013612131113 0.013492900228 0.013362938033 0.013220316978 0.013063996011 0.012893831408 0.012710384773 
0.012514721143 0.012308204555 0.012092365967 0.011868797759 0.011639095722 0.011404819531 0.011167465907 0.01092848952 0.010689283726 
0.010451243147 0.010216012257 0.0099843335125 0.0097578529308 0.0095379325841 0.013527759333 0.013424780268 0.013327837601 0.013233960453 
0.013139366127 0.013040143455 0.012932679586 0.012814257273 0.012682962324 0.012537935286 0.012379116064 0.01220710372 0.012022946487 
0.01182797878 0.011623679639 0.011411601226 0.01119330417 0.010970336307 0.010744509541 0.010516657413 0.010288525151 0.010061517135 
0.0098370302832 0.009616495504 0.0094011877848 0.0091925423617 0.012959180493 0.012866832203 0.01278067545 0.012697340865 0.012612920559 
0.012523421555 0.012425475537 0.012316363764 0.012194440755 0.012058952923 0.011909930899 0.011747994005 0.011574167736 0.011389733799 
0.011196438538 0.010995135364 0.010787658839 0.010575513147 0.010360173515 0.010143100441 0.0099257179329 0.0097094633542 0.0094956997605 
0.0092858488443 0.0090813045402 0.0088834568437 0.012456507877 0.012372799158 0.012295156229 0.012220027104 0.012143379368 0.012061435579 
0.011970828732 0.011869115465 0.011754830926 0.011627347477 0.011487082269 0.011334019194 0.011169474538 0.01099466512 0.010810944182 
0.010619736223 0.010422492388 0.010220661311 0.010015681229 0.0098089719981 0.0096019784117 0.0093960436374 0.0091925970211 0.0089930227759 
0.0087987518723 0.0086111679597 0.012017536259 0.011940519057 0.011869285101 0.011800125749 0.011729201877 0.011653038918 0.011567904831 
0.011471902137 0.011363750755 0.011242947799 0.011109627623 0.010964404031 0.010808218449 0.010642214546 0.01046766373 0.010285907346 
0.010098322579 0.0099062892195 0.0097111848675 0.0095144029038 0.009317313061 0.0091212754963 0.0089276945933 0.0087379353512 0.0085533904559 
0.0083754270507 0.011639018703 0.011566909189 0.011500069506 0.011434993137 0.011367805354 0.011294979724 0.01121369429 0.011121990583 
0.011018719331 0.010903477358 0.010776427395 0.010638100981 0.010489483699 0.010331571998 0.010165544851 0.0099926517405 0.0098142117354 
0.0096314724181 0.0094457789694 0.0092584449678 0.0090708126903 0.0088842158037 0.0086999850372 0.0085194802971 0.0083440661589 0.0081750320129 
0.011314993854 0.011246094354 0.011182008282 0.011119211019 0.011054101713 0.01098345665 0.010904708929 0.010816124487 0.010716715551 
0.010606124164 0.010484543674 0.010352498246 0.010210772361 0.010060336442 0.0099022611006 0.009737728796 0.0095678667517 0.009393924624 
0.0092171569919 0.0090388165319 0.0088601669785 0.0086824924607 0.0085070982642 0.0083351915514 0.0081682599504 0.0080074576508 0.011038677804 
0.01097168467 0.01090881819 0.010846841686 0.01078247038 0.010712786016 0.010635524865 0.010549168866 0.010452835015 0.01034622138 
0.010229484093 0.01010308315 0.0099677172349 0.0098241781261 0.0096735582655 0.009516844569 0.0093551339702 0.0091895514161 0.0090212623057 
0.0088514424031 0.0086812997281 0.008512062438 0.0083449621532 0.0081812447475 0.0080221674261 0.0078688827135 0.010800459172 0.010734209898 
0.0106714168 0.010609176257 0.010544564247 0.010475008941 0.010398536084 0.010313785048 0.010219987809 0.010116866928 0.010004520494 
0.0098833714417 0.0097539572591 0.0096170454341 0.0094735020181 0.0093242507887 0.0091702844122 0.0090126357927 0.008852385988 0.0086906420624 
0.0085285325108 0.0083672422476 0.0082079127719 0.0080517449179 0.0078998582165 0.0077534352204 0.010589050551 0.01052277371 0.010459306048 
0.010396116757 0.010330665461 0.010260755868 0.010184651142 0.010101161932 0.010009599425 0.0099097048801 0.0098014798566 0.0096852413023 
0.0095614924184 0.0094308523875 0.0092940592342 0.0091519260223 0.0090053465614 0.0088552526774 0.0087026582805 0.0085485814723 0.0083940881477 
0.008240261187 0.0080881935536 0.0079390265304 0.0077937990973 0.0076536058383 0.010391613175 0.010324921033 0.010260433554 0.01019602328 
0.010129543436 0.01005913106 0.0099832942604 0.0099010179102 0.0098115994577 0.0097147701258 0.009610544521 0.009499115008 0.0093808563203 
0.0092562783244 0.009125994127 0.008990706211 0.0088512026806 0.0087083406228 0.0085630304988 0.0084162267833 0.0082689248858 0.0081221201948 
0.0079768938336 0.0078341593189 0.0076953561359 0.007560803563 0.010195481604 0.010128330169 0.01006286886 0.009997344931 0.0099299900553 
0.0098592799564 0.009783876764 0.009702884954 0.0096157203767 0.0095220680518 0.0094218591516 0.0093151999784 0.0092023508345 0.0090837032156 
0.0089597507071 0.008831081793 0.0086983955422 0.0085624579866 0.0084240996716 0.0082841941184 0.0081437068663 0.0080037780615 0.0078649383698 
0.0077283412233 0.0075949218247 0.0074655538903 0.0099895648583 0.0099222092869 0.0098561567301 0.0097899596843 0.0097221669522 0.0096515169477 
0.0095769310485 0.0094975915015 0.0094129448531 0.0093226516375 0.0092265825884 0.0091247485369 0.0090172989033 0.0089045077284 0.0087867466369 
0.0086645116176 0.008538403591 0.0084091166641 0.0082776126792 0.0081442927365 0.0080102451381 0.0078763555572 0.0077435379091 0.0076126371828 
0.0074845193755 0.0073599764907 0.03070150671 0.030170563364 0.029603397903 0.029005968908 0.028384681245 0.02774627544 0.02709768049 
0.026445882284 0.025797811603 0.025160134406 0.024539011063 0.023939764886 0.023366505896 0.022821750552 0.022306236987 0.02181869591 
0.021356393829 0.020915332655 0.020490953504 0.020078574695 0.019673808631 0.019273029866 0.018873495018 0.018473065476 0.018070687958 
0.017665957277 0.029213922425 0.028731541461 0.028219025189 0.027681360712 0.027123857607 0.026551990882 0.025971299092 0.025387303578 
0.024805411658 0.024230787135 0.023668196568 0.023121788269 0.022594884036 0.022089379023 0.021606060682 0.02114420362 0.020701834389 
0.02027614173 0.019863749132 0.019461112106 0.019065009202 0.018672756327 0.01828204089 0.017891470523 0.017500220505 0.017108058146 
0.027800906473 0.027362623032 0.026899617232 0.026416001029 0.025916040849 0.025404068288 0.024884354458 0.024361070977 0.023838251164 
0.023319755732 0.022809171712 0.022309755363 0.021823935542 0.021353516696 0.020899235347 0.020460812792 0.020037032737 0.01962596784 
0.019225291391 0.018832608396 0.018445415099 0.018061796997 0.017680208382 0.017299608522 0.016919462803 0.016539708416 0.026447828235 
0.026049742561 0.025631719621 0.025197060395 0.024749106116 0.024291120712 0.023826236547 0.023357390943 0.022887428349 0.022419164717 
0.021955051031 0.021497567902 0.021048783874 0.020610201986 0.02018264413 0.019766201578 0.019360296946 0.018963862708 0.018575241199 
0.018192895986 0.017815254069 0.017440984684 0.017068867824 0.016698643941 0.016329848444 0.015962511707 0.025148047459 0.024786700002 
0.024409629474 0.024019389208 0.023618462654 0.023209159221 0.022793543372 0.022373520202 0.021950975718 0.021527524639 0.021105082036 
0.020685429694 0.02027025416 0.019860898673 0.0194582729 0.019062902356 0.01867452984 0.018292723569 0.017916475874 0.017545293666 
0.017178035208 0.016813906806 0.016452278431 0.016092961439 0.015735873225 0.015381288894 0.023900211033 0.023572507877 0.02323274598 
0.02288280673 0.022524389957 0.022158912865 0.021787633512 0.021411331953 0.02103103936 0.020647780446 0.02026273749 0.019877268277 
0.019492719267 0.019110466216 0.018731056776 0.018355806181 0.01798475718 0.017617911862 0.017254989231 0.016895699051 0.016539612293 
0.016186397527 0.015835870755 0.015488029732 0.015143050378 0.014801417542 0.022705909281 0.022409014671 0.02210322569 0.021789821571 
0.021469852776 0.02114375859 0.020811989902 0.020474747635 0.02013225332 0.019784667639 0.019433215129 0.019078703237 0.018722168347 
0.018364812143 0.018007799756 0.017652004878 0.017298052583 0.016946343353 0.016597071864 0.016250318132 0.015906117855 0.015564519167 
0.015225622025 0.014889782844 0.014557358701 0.014228906131 0.021567881784 0.021299189657 0.021024420502 0.02074375608 0.020458192494 
0.020167369214 0.019870953701 0.019568488014 0.019259655142 0.018944436126 0.018623081331 0.018296412725 0.01796539489 0.017631273409 
0.017295155935 0.016958086563 0.016620951032 0.016284442239 0.015949107428 0.015615372556 0.015283553351 0.014954143302 0.014627483679 
0.014304249359 0.013984650178 0.013669559946 0.020488915207 0.020245962454 0.019999116586 0.019748509245 0.019493865794 0.019234502708 
0.018969536001 0.018697898603 0.018418877741 0.018132099812 0.017837675895 0.017536152767 0.017228523286 0.016915880959 0.016599423171 
0.016280524803 0.015959808495 0.01563843191 0.01531711558 0.014996710697 0.014677779466 0.014360943823 0.014046838028 0.013736137503 
0.013429576234 0.01312795879 0.019471681834 0.019252437588 0.019030919714 0.018807043136 0.018580026688 0.018348586128 0.018111335888 
0.017866917776 0.017614248562 0.017352730506 0.017082307076 0.016803513253 0.016517160314 0.016224365634 0.015926361528 0.015624295648 
0.015319537939 0.015013087812 0.01470593438 0.01439899527 0.014093109659 0.013789095153 0.01348784639 0.013190037525 0.01289660948 
0.012608465277 0.018518228901 0.018319974781 0.018121235579 0.017921222523 0.017718642055 0.017511835149 0.017298990253 0.017078478214 
0.016849007953 0.016609840169 0.016360819432 0.016102426226 0.015835431447 0.015560850649 0.015280124427 0.014994442137 0.014705067285 
0.014413302603 0.014120091294 0.013826589282 0.013533801436 0.013242692857 0.012954224439 0.012669348779 0.012389038212 0.01211426939 
0.017629290935 0.017450137625 0.017271731241 0.017092862951 0.016911825695 0.01672657971 0.016535078013 0.016335439353 0.016126282872 
0.015906631631 0.015676674771 0.015436601216 0.015187309243 0.014929683342 0.014665073941 0.014394791187 0.014120170518 0.013842476427 
0.013562939581 0.013282725161 0.013002951844 0.012724698822 0.012449033748 0.012177008409 0.011909677559 0.011648084372 0.016805758552 
0.016643681223 0.016483278575 0.01632296114 0.016160721571 0.015994235269 0.015821206039 0.015639685447 0.015448171282 0.015245971968 
0.015032855987 0.014809182284 0.014575740778 0.014333596792 0.014083988071 0.013828243414 0.013567691169 0.013303660864 0.013037430104 
0.012770227185 0.012503261504 0.012237689757 0.011974649768 0.011715280598 0.011460682695 0.011212265671 0.016047906647 0.015900913567 
0.015756103516 0.015611941011 0.015465927878 0.015315547255 0.015158399612 0.014992436797 0.014816308225 0.014629209091 0.014430976025 
0.0142219723 0.014002975633 0.013775031781 0.013539359459 0.013297263801 0.013050085559 0.012799161083 0.012545790884 0.012291249563 
0.012036786385 0.011783607171 0.011533224848 0.011286190566 0.011044017255 0.010807779059 0.015354852529 0.015221041439 0.015090020965 
0.014959632925 0.01482743221 0.014690721025 0.014547014499 0.01439442092 0.014231500663 0.014057551341 0.013872436883 0.013676536422 
0.013470608175 0.013255671442 0.013032923065 0.012803624626 0.012569098378 0.012330676665 0.012089977713 0.011847665497 0.011605316519 
0.011364175126 0.011125503357 0.010890466653 0.010660240053 0.010436018082 0.014725924088 0.014603439366 0.014484000357 0.014365283849 
0.014244632491 0.014119298285 0.013986970147 0.013845637863 0.01369403408 0.013531490486 0.013357921319 0.013173712318 0.012979602918 
0.012776581042 0.012566101461 0.012348771812 0.012126189833 0.011899655753 0.011670460185 0.011439893259 0.011209216206 0.010979704321 
0.010752552932 0.010529003902 0.010310254176 0.010097475483 0.014159168789 0.014046258832 0.013936453182 0.013827320009 0.013716096191 
0.013600204832 0.01347722994 0.01334534255 0.013203360486 0.013050682973 0.012887582155 0.012713805265 0.012530392173 0.012338280806 
0.012138561284 0.011932417266 0.011721088399 0.011505827091 0.011287897279 0.011068557243 0.010849084776 0.010630671011 0.010414574411 
0.01020199796 0.0099941721945 0.0097922532343 0.013651892257 0.01354687304 0.013444895044 0.013343409891 0.013239829884 0.013131807742 
0.013016459281 0.012892397157 0.012758548266 0.012614391681 0.012459901827 0.012295459335 0.012121745894 0.011939647248 0.011750193451 
0.011554505764 0.011353763347 0.011149166771 0.01094192938 0.010733286709 0.010524455848 0.010316640366 0.010111078548 0.0099089541548 
0.0097114754698 0.0095197330001 0.013200588239 0.01310194973 0.013006087266 0.012910655 0.012812973038 0.0127105527 0.012601309078 
0.012483701299 0.012356725669 0.01221993297 0.012073319481 0.011917199827 0.011752318098 0.011579438496 0.011399521844 0.01121361886 
0.011022868359 0.010828352245 0.010631265502 0.010432770998 0.01023406554 0.010036331408 0.0098407373719 0.0096484651905 0.0094606802571 
0.0092784447369 0.012799431261 0.012705740045 0.012614639172 0.012523711126 0.012430476952 0.01233263389 0.012228247553 0.012115925256 
0.011994769888 0.011864383476 0.011724762615 0.011576268233 0.011419459716 0.011255100491 0.011084098117 0.010907369301 0.010725968934 
0.010540967438 0.010353476928 0.010164613227 0.0099755057928 0.0097872873429 0.0096010240864 0.0094180074917 0.0092392744444 0.0090658487217 
0.012442359048 0.012352539281 0.012264897593 0.012177228547 0.01208724702 0.011992838934 0.011892274648 0.011784309741 0.011668132406 
0.011543376903 0.0114100595 0.011268464776 0.011119009961 0.010962605381 0.010799888975 0.010631765124 0.010459216508 0.010283224735 
0.010104826373 0.0099250699584 0.0097450333387 0.0095658075464 0.0093884756542 0.0092141424013 0.0090438096209 0.0088784950035 0.012121258044 
0.012034310589 0.01194914551 0.011863771222 0.011776129847 0.011684332888 0.011586851682 0.011482549977 0.011370715499 0.011251015758 
0.011123432412 0.010988242555 0.010845833162 0.010696823458 0.010541940108 0.010381976626 0.010217802079 0.010050331005 0.009880524176 
0.0097093857732 0.0095379212665 0.0093671480014 0.0091981232293 0.0090318627281 0.0088693195336 0.008711482614 0.011827157953 0.011742382811 
0.011659001934 0.011575255565 0.011489327214 0.011399586682 0.0113046666 0.011203565286 0.011095644669 0.010980607056 0.010858365161 
0.010729123122 0.010593266453 0.0104512964 0.010303839606 0.010151602027 0.0099953735629 0.0098359831163 0.0096743408665 0.0095113575821 
0.0093479869105 0.0091851918367 0.0090239351548 0.0088652147454 0.0087099120382 0.0085588752157 0.011550168232 0.011467142184 0.011385137007 