# vtk DataFile Version 5.1
vtk output
ASCII
DATASET STRUCTURED_POINTS
DIMENSIONS 26 26 26
SPACING 0.08 0.08 0.08
ORIGIN -1 -1 0.5
POINT_DATA 17576
FIELD FieldData 1
potential 1 17576 double
0.00063089511449 0.00062598942931 0.00062125421233 0.00061669948115 0.00061231982662 0.00060812325594 0.00060404936719 0.00060018286167 0.00059644442774 
0.00059281230986 0.00058926598584 0.00058578052928 0.00058233798762 0.00057891648435 0.0005755162977 0.00057211593435 0.0005687006973 0.0005652481264 
0.00056175563378 0.00055821641978 0.00055462822032 0.00055099141297 0.00054731633452 0.00054361034381 0.00053988402811 0.00053615088363 0.00062458007552 
0.0006197909755 0.00061518956432 0.00061077596972 0.00060656783445 0.00060248332495 0.00059863552458 0.00059493799638 0.00059136209929 0.00058786980136 
0.00058443175264 0.00058102303193 0.00057762748083 0.00057421894693 0.00057080852859 0.00056737743827 0.00056390702749 0.00056039769806 0.00055684473421 
0.00055324609818 0.00054960147524 0.00054591951478 0.00054220701008 0.00053847307639 0.00053473047381 0.00053099188412 0.00061556084473 0.00061090481774 
0.00060644649701 0.00060220774738 0.00059817970084 0.00059427534285 0.00059061794429 0.00058711146112 0.00058370699451 0.00058036654438 0.00057705164395 
0.00057373667797 0.00057040247717 0.00056703052288 0.00056362617575 0.00056018415572 0.00055668843652 0.00055314570541 0.00054955523564 0.00054591917161 
0.00054224069063 0.00053853099834 0.00053479784095 0.00053105224638 0.00052730710671 0.00052357675821 0.0006045095127 0.00059999353011 0.00059570719431 
0.00059164760683 0.00058781173219 0.00058409363419 0.00058064089766 0.00057732933132 0.00057409938498 0.00057091194948 0.00056772526287 0.0005645079042 
0.00056124756765 0.00055791999036 0.00055454655034 0.00055110702559 0.00054760876389 0.00054405380938 0.00054044669428 0.00053679416158 0.00053309981962 
0.00052937996527 0.00052564273938 0.00052190104658 0.00051816751625 0.0005144574623 0.00059222362467 0.00058786604005 0.00058375372983 0.00057988152281 
0.00057623791576 0.00057271877567 0.00056946274742 0.00056633480726 0.00056327422924 0.00056023152576 0.00055716363557 0.00055404165335 0.00055084100972 
0.00054758325505 0.00054424068116 0.00054082268816 0.00053733625907 0.00053378667343 0.00053018143459 0.00052652806155 0.00052283991715 0.00051912632234 
0.00051540002181 0.00051167415592 0.00050796528944 0.00050428771315 0.00057947325546 0.00057529158079 0.00057135889144 0.00056767295303 0.00056422968441 
0.00056089196702 0.00055782301256 0.00055486322802 0.00055195318345 0.00054903663462 0.00054607175776 0.00054303658039 0.0005398964153 0.00053668725442 
0.00053338770798 0.00052999918867 0.00052653511739 0.00052300385328 0.00051941474717 0.00051577591136 0.00051210501205 0.00050841159679 0.00050471021011 
0.00050101524028 0.0004973427227 0.00049370904042 0.00056693884575 0.00056292636124 0.00055917384831 0.00055567809771 0.00055242006926 0.00054925399437 
0.00054635549951 0.00054353850634 0.00054075324093 0.00053793833636 0.00053505797703 0.00053208371635 0.00052900381496 0.00052582953616 0.00052256496592 
0.00051920803408 0.00051577115844 0.0005122662809 0.00050870297406 0.00050509135851 0.00050144939726 0.00049778808982 0.00049412272516 0.00049046898507 
0.00048684302879 0.00048325734771 0.00055510854831 0.00055127062622 0.00054769364863 0.00054437621985 0.00054116956692 0.00053828279701 0.00053552844645 
0.00053283211426 0.00053014380614 0.00052740641497 0.00052457917129 0.00052165643698 0.00051860459622 0.00051546171213 0.00051222377417 0.00050889377495 
0.00050548514292 0.00050200901349 0.00049847772376 0.00049490047991 0.00049129583192 0.00048767617062 0.00048405629629 0.00048045334799 0.00047688294024 
0.00047335851817 0.00054433593415 0.00054066187556 0.00053725989487 0.00053411182044 0.00053105521687 0.00052831057487 0.00052567517144 0.00052307292842 
0.00052045629533 0.00051776385042 0.0005149714756 0.00051207174241 0.0005090378079 0.0005059105275 0.00050268950927 0.00049937808064 0.00049599410957 
0.00049254633741 0.00048904529241 0.00048550911213 0.00048194729276 0.00047837491272 0.00047480743416 0.00047126096545 0.00046774748422 0.00046429666997 
0.00053483562312 0.00053133013494 0.00052809196489 0.00052510218638 0.00052217865008 0.00051955458622 0.00051701112593 0.00051447802516 0.0005119044676 
0.00050923751127 0.00050646423952 0.00050356286344 0.00050052970844 0.00049740357094 0.00049418727142 0.00049088536422 0.00048751620658 0.00048409147725 
0.00048062105785 0.00047712332711 0.0004736067325 0.00047008496611 0.00046657408062 0.00046308976923 0.0004596438966 0.0004562655768 0.00052676258597 
0.00052341520274 0.00052032994174 0.00051748225196 0.00051467273336 0.00051214727867 0.00050967160942 0.00050718442589 0.00050463048411 0.00050197457402 
0.00049918877952 0.0004962756758 0.00049322928866 0.00049009157747 0.00048686727311 0.00048356500744 0.00048020215788 0.00047679340415 0.00047334817313 
0.00046988448593 0.00046641179044 0.00046294128728 0.00045948880141 0.0004560636109 0.0004526936887 0.00044938850802 0.00052019782013 0.00051700043984 
0.00051405620716 0.00051116772974 0.00050861820939 0.00050616628722 0.00050374188909 0.00050127737256 0.00049871963233 0.000496051272 0.00049324516167 
0.00049029311745 0.00048723627826 0.00048407635141 0.00048083484021 0.00047752072026 0.00047415617593 0.00047075195644 0.00046732684781 0.00046389140825 
0.00046045729388 0.00045703510925 0.00045363961729 0.00045027872168 0.00044697970146 0.00044375139373 0.00051519435115 0.00051213599829 0.00050931818195 
0.00050652760889 0.00050405801649 0.00050166020845 0.00049926078514 0.00049679754903 0.0004942293747 0.000491528503 0.00048869030334 0.00048570425208 
0.0004826151018 0.00047942472922 0.00047615819624 0.00047282579584 0.00046945047404 0.00046604467941 0.0004626292884 0.00045921350712 0.0004558106074 
0.00045243156681 0.00044908196488 0.00044578825405 0.00044255516654 0.00043940422251 0.00051178314958 0.00050884790033 0.0005061402335 0.00050342680616 
0.00050101999603 0.00049865044254 0.00049625545647 0.00049378261115 0.00049117739442 0.00048843942073 0.00048556022066 0.00048253308911 0.00047940571263 
0.00047618103717 0.00047288472707 0.00046952794146 0.00046613483107 0.00046272117661 0.00045930662277 0.00045590371318 0.00045252308023 0.00044917778157 
0.00044587318934 0.00044263358773 0.00043946419375 0.00043638773695 0.00050997909881 0.00050715108725 0.00050452910768 0.00050187575998 0.0004995014186 
0.00049714329278 0.00049473982357 0.00049222908852 0.00048958206119 0.00048679768726 0.0004838713168 0.00048079939328 0.00047763057943 0.00047436908331 
0.00047104093814 0.00046765781063 0.00046424058684 0.00046081567341 0.00045739569228 0.00045399647481 0.00045063077231 0.00044730421624 0.00044404222769 
0.00044084935594 0.00043773823471 0.00043472294584 0.00050977696936 0.00050703331866 0.00050448345577 0.00050186013059 0.00049949883761 0.00049712873339 
0.00049469383218 0.00049213760367 0.00048944033493 0.00048660278764 0.00048362578937 0.00048050695982 0.00047729600001 0.00047399759734 0.00047063699682 
0.00046722700098 0.00046378859741 0.00046034769422 0.00045691792351 0.00045351641217 0.00045015756022 0.0004468491515 0.0004436096308 0.00044045289181 
0.00043738654569 0.00043442375013 0.00051114930093 0.00050847548069 0.00050574971123 0.00050334777768 0.00050097656191 0.00049858011221 0.00049609088059 
0.00049347887354 0.00049072294059 0.00048782915165 0.00048479875902 0.00048163311906 0.00047838216446 0.0004750491791 0.00047166042296 0.00046822256547 
0.00046476779533 0.00046131091989 0.00045787053615 0.00045446274975 0.00045110015168 0.00044780329206 0.00044457917685 0.00044144612369 0.00043841171629 
0.00043549153341 0.00051404976736 0.00051140823722 0.00050868822345 0.00050627208353 0.00050387603008 0.00050142103495 0.00049886999989 0.00049619191047 
0.0004933718762 0.00049041985979 0.00048732225052 0.00048412923515 0.0004808416974 0.00047747888492 0.0004740658678 0.00047060828269 0.00046713742845 
0.00046366785241 0.00046022003143 0.00045680527143 0.00045343707486 0.00045013807913 0.00044692381781 0.00044380245939 0.00044079025817 0.00043789728582 
0.00051835845185 0.00051572158201 0.00051297586885 0.00051052772658 0.00050806846836 0.00050554519333 0.00050291838197 0.00050016850614 0.00049728637159 
0.00049427099348 0.00049112517971 0.00048789306069 0.00048457456436 0.00048118846811 0.00047775800362 0.00047428750017 0.00047080939134 0.00046733208629 
0.00046387557047 0.00046044932993 0.0004570799253 0.00045378305853 0.00045056765704 0.00044745121005 0.00044444690232 0.00044156666516 0.00052388895486 
0.00052097644472 0.00051841933604 0.0005159056744 0.000513366751 0.00051075979146 0.0005080498374 0.00050522236518 0.00050227328116 0.00049920152484 
0.00049601217569 0.00049274736024 0.00048940652554 0.00048600639132 0.00048256423702 0.00047909593533 0.00047561364995 0.00047213612749 0.00046867225831 
0.00046525206984 0.00046188049817 0.00045857858649 0.00045536198936 0.00045224192596 0.00044923500234 0.00044635304163 0.00053033751759 0.00052735230114 
0.0005247184463 0.00052210856424 0.00051947145924 0.00051676576017 0.00051396630832 0.00051106087505 0.00050804733311 0.00050492615932 0.00050170121737 
0.00049841398772 0.00049506077561 0.00049165875624 0.00048821960245 0.00048475511861 0.00048128175609 0.00047781337701 0.00047435771359 0.00047093988491 
0.00046757245394 0.00046427069187 0.00046104909644 0.0004579223974 0.00045490564294 0.00045201025355 0.00053725147098 0.00053416642277 0.00053141737987 
0.00052869302907 0.00052594287105 0.00052313251227 0.00052024085939 0.00051725854429 0.00051418627278 0.00051102466429 0.00050777404026 0.00050447821476 
0.00050112583824 0.00049772786914 0.00049430888397 0.00049086512642 0.00048741383815 0.00048395957947 0.00048052512555 0.0004771226315 0.0004737642399 
0.00047046579382 0.00046724075105 0.00046410544174 0.00046107203648 0.00045815745572 0.00054403080086 0.00054080446745 0.00053792767227 0.00053507430202 
0.00053220265015 0.00052928439998 0.00052630320685 0.00052325093424 0.00052012940859 0.00051692291474 0.00051367820116 0.00051038306591 0.00050704732156 
0.00050367521299 0.00050028857333 0.00049687979537 0.00049346389995 0.00049003932309 0.00048663781281 0.00048325991444 0.00047991932872 0.00047662905083 
0.00047340343664 0.00047026054552 0.00046721234046 0.00046426820597 0.00054965080777 0.00054656096029 0.00054354236443 0.00054055376718 0.00053756033271 
0.00053453891185 0.00053147601651 0.00052836732019 0.00052520933147 0.00052198413121 0.00051874375768 0.00051547001879 0.00051216846786 0.00050884056901 
0.00050550388748 0.00050214753141 0.00049877586525 0.00049540692986 0.00049204767767 0.00048870448908 0.00048539013607 0.00048211463733 0.00047889684323 
0.00047574918858 0.00047268799866 0.00046971864344 0.00055392284823 0.00055069031685 0.00054753225274 0.00054441320194 0.00054130624358 0.00053819520265 
0.00053506373896 0.00053190822431 0.00052872963772 0.00052550746284 0.00052228949531 0.00051905614739 0.00051580464293 0.00051254471815 0.00050927741838 
0.000505984491 0.00050268592945 0.00049938417545 0.00049608102458 0.00049278304265 0.00048950527042 0.00048625746165 0.000483053766 0.00047990831298 
0.00047683472531 0.00047384893825 0.00055591554889 0.00055255369662 0.00054926923907 0.00054603752249 0.00054283332485 0.00053964427429 0.00053646234675 
0.00053328203967 0.00053010270732 0.00052690221506 0.00052372718969 0.00052055415839 0.00051737751156 0.00051420237603 0.00051102375533 0.00050781927836 
0.00050461064717 0.00050138863029 0.00049815434639 0.00049491743365 0.0004916858895 0.00048847169118 0.00048529030762 0.00048215257172 0.00047907443915 
0.00047607085718 0.00069689686521 0.00069158802395 0.00068643483267 0.00068144437064 0.00067660936465 0.0006719375592 0.000667370435 0.00066299669126 
0.00065874263807 0.00065459249493 0.00065053084104 0.0006465359167 0.00064259330206 0.00063868148967 0.00063480296265 0.00063093845062 0.00062707604316 
0.00062319544083 0.00061929577933 0.00061537093914 0.00061141833848 0.00060743719417 0.000603436064 0.00059942013477 0.00059539758568 0.00059137938092 
0.00069117239034 0.0006859666154 0.00068092938511 0.00067605750204 0.00067136671387 0.0006667755282 0.00066240024967 0.00065816078753 0.00065403670244 
0.00064999980422 0.00064602713563 0.00064209887896 0.00063820125235 0.0006343088774 0.00063043363582 0.00062655672353 0.00062266020677 0.0006187449851 
0.00061480652967 0.00061084247201 0.00060685159169 0.00060284111605 0.00059881597154 0.0005947833095 0.0005907534608 0.00058673673948 0.00068341888777 
0.00067832976526 0.00067341413495 0.0006686909614 0.00066414868956 0.00065970141505 0.00065547772218 0.00065138998278 0.00064740106735 0.0006434847111 
0.00063961174551 0.00063576215799 0.00063191900144 0.00062806379708 0.00062420094033 0.00062032397598 0.00061641584186 0.00061248224167 0.00060852144197 
0.00060453438774 0.00060052280032 0.00059649616097 0.00059246021544 0.0005884240078 0.0005843980026 0.00058039419126 0.00067408095327 0.00066911289391 
0.0006643456845 0.00065977226212 0.00065538790286 0.00065108864804 0.00064702877668 0.00064309577448 0.00063924464303 0.00063545078944 0.00063168180536 
0.00062791340957 0.00062412188135 0.0006203202766 0.0006164897257 0.00061262055824 0.00060871731795 0.00060478051132 0.00060081262918 0.00059681849612 
0.00059279989318 0.00058877066918 0.00058473726085 0.00058071018795 0.000576699769 0.00057271880982 0.00066370203111 0.00065887154675 0.00065425258396 
0.00064983588825 0.00064560872213 0.00064147030318 0.0006375682564 0.00063378198894 0.00063006777828 0.00062639152802 0.00062272142889 0.00061903461005 
0.00061530640795 0.00061155704383 0.00060775598799 0.00060390927615 0.0006000213234 0.00059609427724 0.00059213325634 0.0005881433685 0.00058413566307 
0.00058011715344 0.00057609824869 0.0005720897028 0.00056810560859 0.00056415768584 0.00065282886803 0.00064815198773 0.00064368591386 0.00063942456569 
0.00063536360887 0.00063137120453 0.00062762207302 0.00062397365846 0.00062038524459 0.00061681662879 0.0006132363462 0.0006096267266 0.00060595298853 
0.00060225210061 0.00059848845569 0.0005946707017 0.00059080530851 0.00058689764798 0.00058295422828 0.00057898053241 0.00057499167303 0.00057099469204 
0.00056700162455 0.00056302431574 0.0005590760638 0.00055517087068 0.00064198477324 0.00063745386491 0.00063314094863 0.00062903907662 0.00062513214312 
0.00062128038207 0.00061767418372 0.00061414665418 0.00061066757361 0.00060719175844 0.0006036899769 0.00060013873373 0.00059652407605 0.00059285381061 
0.00058912803797 0.00058534116804 0.00058150222199 0.00057761988264 0.00057370130103 0.00056975363674 0.00056579288689 0.00056182683918 0.00055786837796 
0.00055393051012 0.00055002663186 0.0005461663133 0.00063157155879 0.0006271913856 0.00062302725696 0.00061907564491 0.00061519115072 0.00061159299428 
0.00060811077218 0.00060469075602 0.00060130241819 0.00059790265959 0.00059445745234 0.00059096193607 0.00058737967199 0.00058374426606 0.00058004732697 
0.00057628803594 0.00057247664121 0.0005686215691 0.00056473008534 0.00056081685729 0.00055689028459 0.00055296252975 0.00054904612755 0.00054515536418 
0.00054130297011 0.00053749913189 0.00062191037203 0.00061767021448 0.00061365507084 0.00060984627878 0.00060608720662 0.00060261128436 0.00059923279303 
0.00059590427843 0.00059258945884 0.0005892414145 0.00058584043328 0.00058237819652 0.00057882331118 0.00057521136189 0.00057153702082 0.0005678005552 
0.00056401331102 0.00056018619463 0.00055632511948 0.00055244668042 0.00054855849847 0.00054467338786 0.00054080427435 0.00053696465218 0.00053316353938 
0.00052942704946 0.00061321646265 0.0006091210066 0.00060524587751 0.00060157015863 0.00059792366665 0.00059455416176 0.00059126390857 0.0005880041503 
0.00058474099798 0.00058143110022 0.00057806381753 0.00057461453024 0.00057107405508 0.00056747499575 0.00056381465203 0.0005600933804 0.00055632583434 
0.00055252199679 0.00054868992899 0.00054484655981 0.00054099882066 0.00053715861045 0.000533339842 0.00052955573355 0.00052581512433 0.00052214408684 
0.00060565952947 0.00060169864875 0.00059795183623 0.00059439808181 0.00059084943686 0.00058756993118 0.0005843475093 0.00058114156953 0.00057791135306 
0.00057462965537 0.00057126786095 0.00056782490391 0.00056428730999 0.00056069145475 0.00055703545796 0.00055332322821 0.00054956866781 0.00054578395283 
0.00054197764543 0.00053816610183 0.00053435796719 0.00053056321322 0.00052679595526 0.00052306330461 0.00051939065126 0.00051578412956 0.00059933885081 
0.00059550508138 0.00059187727733 0.00058826481791 0.00058496433621 0.00058175252074 0.00057858932705 0.00057541415189 0.00057220241756 0.00056892764769 
0.00056556567082 0.00056210293974 0.00055857326923 0.00055497193954 0.00055131324434 0.00054760129611 0.00054385436633 0.00054008060491 0.00053629714569 
0.00053251387054 0.00052874143819 0.00052499007319 0.00052127293012 0.00051759670105 0.00051398617884 0.00051044709676 0.00059432166165 0.00059060519096 
0.0005870841895 0.00058355484956 0.00058032714088 0.00057717370773 0.00057404306616 0.00057089020503 0.00056768358887 0.00056439774823 0.00056102492965 
0.00055754842998 0.00055400557262 0.00055039135422 0.00054672298278 0.00054300676742 0.00053926043463 0.00053549396343 0.00053172611327 0.0005279649952 
0.00052422331808 0.00052051158802 0.00051683488642 0.00051321835054 0.00050966485291 0.00050619333273 0.00059064694518 0.00058703312565 0.00058360581288 
0.00058014258048 0.00057697525735 0.00057385654691 0.00057074459544 0.00056760155662 0.00056437988022 0.00056107933603 0.00055768711955 0.00055418980505 
0.00055062744802 0.00054699600609 0.00054331434572 0.00053958798752 0.00053583408739 0.00053207371125 0.00052831502847 0.00052457224213 0.00052085506187 
0.00051717636384 0.00051354091773 0.00050997233705 0.00050647446625 0.00050306778677 0.00058832979239 0.00058480495189 0.00058144954904 0.00057804033417 
0.00057490797187 0.000571811686 0.00056870905087 0.00056554991292 0.00056230961057 0.00055898544868 0.00055556749748 0.00055204517824 0.00054845968206 
0.00054480825851 0.00054111034871 0.00053737243218 0.00053361074686 0.00052984803343 0.00052609411879 0.00052236290913 0.00051866533428 0.00051500794099 
0.00051141408129 0.00050788823632 0.00050444224836 0.00050108878267 0.00058735450661 0.00058390128132 0.00058040261634 0.00057722813266 0.00057411616717 
0.00057102340571 0.00056791025055 0.00056472913023 0.00056146256944 0.000558107968 0.00055466028398 0.00055111001759 0.00054749961144 0.00054382715093 
0.00054011153023 0.00053636066631 0.00053259095342 0.00052882454046 0.00052507200728 0.00052134809159 0.00051766543476 0.00051403034763 0.00051046130309 
0.00050697067765 0.00050356549111 0.00050025741262 0.00058768527368 0.00058428932293 0.0005808173213 0.00057766178338 0.00057455257578 0.00057145298874 
0.00056830913901 0.00056509713076 0.00056179621426 0.00055840772886 0.00055492672668 0.00055134752042 0.00054771311539 0.00054402064943 0.00054029033208 
0.00053652438607 0.00053275048333 0.00052898002052 0.00052522814584 0.00052150794219 0.00051783114357 0.00051421504656 0.00051066632769 0.00050720165979 
0.00050382774323 0.00050055875573 0.00058925070512 0.00058588229372 0.0005824178952 0.00057925904151 0.00057614306503 0.00057300841952 0.00056982868545 
0.00056657668999 0.00056323587556 0.0005598108711 0.00055628168451 0.00055269163793 0.00054903518303 0.00054532592535 0.0005415832526 0.00053780886727 
0.00053402995021 0.00053025743631 0.00052650865259 0.0005227923472 0.00051911953926 0.00051551041945 0.00051197877523 0.00050853114658 0.00050518226279 
0.00050194049033 0.0005919157875 0.00058855480744 0.00058507457305 0.00058190103057 0.00057874554539 0.00057556948294 0.00057234245368 0.00056904532473 
0.00056566186248 0.00056219862855 0.00055863898093 0.00055502461835 0.00055135027817 0.00054762901266 0.00054387897097 0.00054010117177 0.00053632421802 
0.00053255330996 0.00052880546385 0.00052508740323 0.00052142306724 0.00051782569103 0.00051430189575 0.0005108669985 0.00050753210393 0.00050430710197 
0.00059548965899 0.00059186526813 0.00058859208555 0.00058537754335 0.00058217184158 0.00057894312044 0.00057566223426 0.00057231440467 0.00056889166219 
0.00056538728077 0.00056180018021 0.00055816654786 0.00055448052069 0.00055075415832 0.0005470007177 0.00054323255288 0.0005394587053 0.00053569456064 
0.0005319477535 0.00052824421431 0.00052458677346 0.00052099386981 0.00051747857062 0.00051404952154 0.00051072075355 0.00050750141645 0.0005996934992 
0.00059601894849 0.00059269727922 0.00058941929852 0.00058614931185 0.00058285570071 0.00057951575963 0.00057611676354 0.00057265166607 0.00056911581876 
0.000565507298 0.0005618622823 0.00055817245282 0.00055445099276 0.00055070569443 0.00054694642151 0.00054318697849 0.00053943778222 0.00053570465919 
0.00053201022097 0.00052836480838 0.00052478082127 0.00052127014434 0.00051784481007 0.0005145165977 0.00051129434372 0.00060414971091 0.00060040910958 
0.00059700943436 0.00059365622405 0.00059031173573 0.00058694874468 0.00058354739574 0.00058009769631 0.00057659458227 0.00057303419399 0.00056941176687 
0.00056576657109 0.00056208340257 0.00055836996979 0.00055464814875 0.00055091189685 0.00054717637226 0.00054344413836 0.00053973606102 0.00053606180166 
0.00053243150116 0.00052885837085 0.00052535356908 0.00052192931997 0.00051859595322 0.00051536680539 0.0006083991006 0.00060456028362 0.00060107774513 
0.00059763975732 0.00059421439319 0.00059078047368 0.00058732021282 0.00058382418563 0.00058029018949 0.00057669798666 0.00057309040581 0.00056945117645 
0.00056578721062 0.00056210028385 0.0005584102721 0.00055470794473 0.00055100709019 0.00054730458392 0.00054363051883 0.00053998357641 0.0005363753173 
0.0005328163391 0.00052931834103 0.00052589650093 0.00052255924564 0.00051931423154 0.00061162065396 0.00060796711202 0.00060439183111 0.00060086502264 
0.00059735989682 0.00059385713662 0.00059034351394 0.00058681271848 0.0005832574273 0.00057965654691 0.00057605844872 0.00057244210465 0.00056881086919 
0.00056516467519 0.00056152008601 0.00055786550808 0.00055420461865 0.00055055457694 0.00054692112471 0.000543309045 0.00053972908 0.00053618910684 
0.00053270586371 0.00052928721879 0.00052594812765 0.00052269056833 0.00061385745006 0.00061011152535 0.0006064457201 0.00060283356625 0.000599254078 
0.00059569385523 0.00059213664455 0.00058857665015 0.0005850124844 0.00058142054963 0.00057784620374 0.00057426702234 0.00057067978398 0.00056709337204 
0.00056350900769 0.00055990866549 0.0005563128563 0.00055272295891 0.0005491408714 0.00054557150765 0.00054202802384 0.00053851790672 0.00053505283454 
0.00053164387041 0.00052830213613 0.00052504047715 0.00061438736382 0.00061055889002 0.00060681175424 0.00060312755882 0.00059948534723 0.00059587468241 
0.00059228718382 0.00058871601249 0.0005851582105 0.00058158932962 0.00057805396556 0.00057452741529 0.00057100374679 0.00056748866697 0.00056397850585 
0.00056045248161 0.00055693356234 0.00055341310595 0.00054989215391 0.00054637838864 0.00054287867562 0.00053940239423 0.00053596236983 0.00053256669501 
0.00052922823041 0.00052595992031 0.00076508951788 0.00075935110096 0.00075375704266 0.00074831226079 0.00074300836193 0.00073785318116 0.00073278979134 
0.0007279097944 0.00072314341314 0.00071847901891 0.00071390493546 0.00070940239922 0.00070495922086 0.00070055577061 0.00069619633624 0.00069186366135 
0.00068754782525 0.00068323061847 0.00067891233516 0.00067458760803 0.00067025379046 0.00066590934322 0.00066156150563 0.00065721374273 0.00065287222949 
0.00064854598118 0.00075966507119 0.00075401889772 0.00074852666687 0.00074318303914 0.00073800308409 0.00073290563921 0.00072801014246 0.0007232406075 
0.00071858262067 0.00071401380289 0.00070951633136 0.00070507416126 0.00070067623452 0.00069629752887 0.00069195217251 0.0006876215134 0.0006832884689 
0.00067895450645 0.00067461538017 0.00067026857868 0.00066591225739 0.00066155256177 0.00065719284343 0.00065283882373 0.0006484985186 0.00064418021286 
0.00075270472266 0.00074716181585 0.00074177455846 0.00073655944404 0.00073150443334 0.00072652514932 0.00072175405356 0.00071710972146 0.0007125625996 
0.00070809401904 0.00070368113584 0.00069930828418 0.0006949609061 0.00069062147731 0.00068629486591 0.00068197324607 0.00067764167746 0.00067330118442 
0.00066895259839 0.00066459557792 0.00066023041192 0.000655865185 0.00065150400318 0.0006471540566 0.00064282380026 0.00063852305655 0.00074450937359 
0.00073907235118 0.0007338145024 0.00072872700254 0.00072380428303 0.00071894597354 0.00071431309751 0.00070979359973 0.0007053596459 0.00070099308809 
0.00069666847819 0.00069236638355 0.00068806491634 0.00068377829059 0.00067948570865 0.00067517829349 0.00067085763443 0.00066652356083 0.00066217719926 
0.00065782194308 0.00065345835547 0.00064909773287 0.00064474609883 0.00064040987887 0.00063609933114 0.00063182416777 0.00073545760571 0.000730141308 
0.00072501163899 0.00072005748021 0.00071526650609 0.00071054136762 0.00070603655158 0.00070164089697 0.00069732120254 0.0006930542235 0.0006888149444 
0.00068458492441 0.00068034160386 0.00067610486432 0.00067184295893 0.00066756023665 0.00066325916448 0.00065893981946 0.00065460647243 0.00065026035883 
0.00064591268922 0.00064156756684 0.00063723374276 0.000632920629 0.00062863746009 0.00062439626842 0.00072594223394 0.0007207616153 0.00071576397908 
0.00071094177619 0.00070629191326 0.0007016873704 0.00069731106532 0.00069303157535 0.00068881998428 0.00068464648108 0.00068048699867 0.00067632781278 
0.00067213528372 0.00066794550856 0.00066372087964 0.000659468646 0.00065519221105 0.00065089503024 0.00064658137382 0.00064225504271 0.00063792869492 
0.00063360741139 0.00062930107411 0.00062501929738 0.00062077310553 0.00061657386118 0.00071636576894 0.0007113125402 0.00070644409205 0.00070176221588 
0.00069712635582 0.0006927566471 0.00068850266514 0.00068432750823 0.00068021288645 0.00067612382063 0.00067203797039 0.00066793478662 0.00066380065246 
0.00065964560957 0.000655456317 0.00065123587728 0.00064698713647 0.00064271645415 0.00063842879554 0.00063412917885 0.00062983146338 0.00062554127501 
0.00062126934918 0.0006170260828 0.00061282277368 0.00060866624815 0.00070704990397 0.00070212871178 0.00069739159239 0.00069283592875 0.0006883178342 
0.00068406633931 0.00067992108031 0.00067584255436 0.00067181233941 0.00066779681749 0.00066376784937 0.00065972217943 0.00065562370843 0.00065150284779 
0.00064734880946 0.0006431580325 0.00063893821862 0.00063469548788 0.00063043504285 0.0006261692902 0.00062190476518 0.00061765143827 0.00061341960944 
0.00060922120117 0.00060506643309 0.00060096280917 0.00069827166714 0.00069347185801 0.00068886407619 0.00068443086052 0.00068002085529 0.00067587668586 
0.00067182521859 0.00066783341246 0.00066387549126 0.00065991461117 0.00065593507018 0.00065192936556 0.00064786450139 0.00064377311705 0.00063964667365 
0.00063548246361 0.00063128917125 0.00062707545096 0.00062284523786 0.0006186132463 0.00061438525125 0.00061017199291 0.00060598434828 0.00060183345969 
0.00059772585231 0.00059368476731 0.00069022754655 0.00068555581222 0.00068106842851 0.00067675080757 0.0006724386284 0.00066839039534 0.00066442184046 
0.00066050104107 0.00065659639891 0.00065268148498 0.00064874422459 0.00064476165338 0.00064072091835 0.00063665124517 0.00063254626027 0.00062840300605 
0.00062423336746 0.00062004508904 0.00061584437655 0.00061164649114 0.00060745674219 0.00060328528061 0.00059914407176 0.00059504413732 0.00059099184436 
0.00058701048004 0.00068308544951 0.00067852919091 0.00067415370059 0.0006699435798 0.00066571785566 0.00066175295425 0.00065785134933 0.00065398553782 
0.00065012515042 0.00064624900543 0.00064233026858 0.00063836646727 0.00063434081348 0.0006302854802 0.00062619449924 0.00062206814303 0.00061791733309 
0.00061374907576 0.00060957868432 0.00060541246475 0.00060126047804 0.00059713138227 0.0005930374587 0.00058898388626 0.00058499370144 0.00058107033407 
0.00067694708695 0.00067250128696 0.00066823001337 0.00066394837333 0.00065996267024 0.00065606298483 0.00065222356156 0.00064839648491 0.0006445723609 
0.0006407108575 0.00063680629857 0.0006328373132 0.00062883339594 0.00062478548406 0.00062070318879 0.00061658678037 0.00061245129095 0.00060830231473 
0.00060415533412 0.00060001855359 0.00059590154017 0.00059181323819 0.00058776544212 0.00058376311986 0.00057982892569 0.00057596602879 0.00067188508986 
0.00066754114989 0.00066336343875 0.00065915534387 0.00065523785597 0.00065139771461 0.00064759751317 0.00064380386601 0.0006399927512 0.0006361418025 
0.00063224269085 0.00062827565274 0.00062427346631 0.00062022648782 0.00061614703751 0.00061203747026 0.00060791170161 0.00060377735038 0.00059965123176 
0.00059553929123 0.00059145368632 0.00058740366307 0.00058339314762 0.00057944593713 0.00057556268411 0.00057176033029 0.00066794124353 0.00066368623173 
0.00065959105121 0.00065544307739 0.00065158495307 0.00064778433512 0.0006440126872 0.00064024259308 0.00063643294064 0.00063258374592 0.00062868213246 
0.00062471053614 0.00062070423439 0.00061665420035 0.00061257452004 0.00060846646061 0.00060434355283 0.00060022392739 0.00059611349738 0.00059202421394 
0.00058796629013 0.00058394936878 0.00057997851862 0.00057607239683 0.00057224482035 0.00056849846194 0.00066513025296 0.00066095299412 0.00065692336423 
0.00065282463295 0.00064900423152 0.00064523419503 0.00064148470399 0.00063771441678 0.00063390310595 0.0006300485374 0.00062613844239 0.00062215816236 
0.00061814395659 0.00061408773645 0.00061000520939 0.00060589757557 0.00060177771375 0.00059766527643 0.00059356737046 0.00058949665336 0.00058546185787 
0.00058146857436 0.0005775398841 0.00057367671713 0.00056989192883 0.00056619550428 0.00066343069471 0.00065931836256 0.00065514009339 0.00065127799911 