# vtk DataFile Version 5.1
vtk output
ASCII
DATASET POLYDATA
POINTS 12491 double
103 -22 2.2104715587e-14 105.5 -22 2.2659825405e-14 103 -19.698863983 2.2061344112e-14 
103 -19.698863983 2.2061344112e-14 105.5 -22 2.2659825405e-14 105.5 -19.5 2.2612705771e-14 
103 -19.698863983 2.2061344112e-14 105.5 -19.5 2.2612705771e-14 103 -17.397727966 2.2017972637e-14 
103 -17.397727966 2.2017972637e-14 105.5 -19.5 2.2612705771e-14 103.625 -17 2.2149253773e-14 
103 -17.397727966 2.2017972637e-14 103.625 -17 2.2149253773e-14 101.875 -17 2.17606769e-14 
101.875 -17 2.17606769e-14 103.625 -17 2.2149253773e-14 103 -15.096590042 2.1974601126e-14 
101.875 -17 2.17606769e-14 103 -15.096590042 2.1974601126e-14 101.875 -14.65625 2.1716502243e-14 
101.875 -14.65625 2.1716502243e-14 103 -15.096590042 2.1974601126e-14 103.625 -14.65625 2.2105079116e-14 
101.875 -14.65625 2.1716502243e-14 103.625 -14.65625 2.2105079116e-14 103 -12.795454979 2.1931229669e-14 
103 -12.795454979 2.1931229669e-14 103.625 -14.65625 2.2105079116e-14 103.625 -12.3125 2.2060904458e-14 
103 -12.795454979 2.1931229669e-14 103.625 -12.3125 2.2060904458e-14 101.875 -12.3125 2.1672327586e-14 
101.875 -12.3125 2.1672327586e-14 103.625 -12.3125 2.2060904458e-14 103 -10.494318008 2.1887858176e-14 
101.875 -12.3125 2.1672327586e-14 103 -10.494318008 2.1887858176e-14 101.875 -9.96875 2.1628152928e-14 
101.875 -9.96875 2.1628152928e-14 103 -10.494318008 2.1887858176e-14 103.625 -9.96875 2.2016729801e-14 
101.875 -9.96875 2.1628152928e-14 103.625 -9.96875 2.2016729801e-14 103 -8.1931819916 2.1844486701e-14 
103 -8.1931819916 2.1844486701e-14 103.625 -9.96875 2.2016729801e-14 103.625 -7.625 2.1972555144e-14 
103 -8.1931819916 2.1844486701e-14 103.625 -7.625 2.1972555144e-14 101.875 -7.625 2.1583978271e-14 
101.875 -7.625 2.1583978271e-14 103.625 -7.625 2.1972555144e-14 103 -5.8920450211 2.1801115208e-14 
101.875 -7.625 2.1583978271e-14 103 -5.8920450211 2.1801115208e-14 101.875 -5.28125 2.1539803614e-14 
101.875 -5.28125 2.1539803614e-14 103 -5.8920450211 2.1801115208e-14 103.625 -5.28125 2.1928380487e-14 
101.875 -5.28125 2.1539803614e-14 103.625 -5.28125 2.1928380487e-14 103 -3.5909099579 2.1757743751e-14 
103 -3.5909099579 2.1757743751e-14 103.625 -5.28125 2.1928380487e-14 103.625 -2.9375 2.188420583e-14 
103 -3.5909099579 2.1757743751e-14 103.625 -2.9375 2.188420583e-14 101.875 -2.9375 2.1495628957e-14 
101.875 -2.9375 2.1495628957e-14 103.625 -2.9375 2.188420583e-14 103 1.0113635063 2.1671000773e-14 
101.875 -2.9375 2.1495628957e-14 103 1.0113635063 2.1671000773e-14 99.75 -1.3125 2.0993157849e-14 
99.75 -1.3125 2.0993157849e-14 103 1.0113635063 2.1671000773e-14 99.75 -2.1316282073e-14 2.0968420041e-14 
99.75 -2.1316282073e-14 2.0968420041e-14 103 1.0113635063 2.1671000773e-14 100.5 1.0113635063 2.1115890955e-14 
99.75 -2.1316282073e-14 2.0968420041e-14 100.5 1.0113635063 2.1115890955e-14 99.75 1.3125 2.0943682233e-14 
99.75 1.3125 2.0943682233e-14 100.5 1.0113635063 2.1115890955e-14 100.5 3.3125 2.1072519471e-14 
99.75 1.3125 2.0943682233e-14 100.5 3.3125 2.1072519471e-14 98 3.3125 2.0517409653e-14 
105.5 -19.5 2.2612705771e-14 105.5 -17 2.2565586136e-14 103.625 -17 2.2149253773e-14 
103.625 -17 2.2149253773e-14 103.625 -14.65625 2.2105079116e-14 103 -15.096590042 2.1974601126e-14 
103.625 -12.3125 2.2060904458e-14 103.625 -9.96875 2.2016729801e-14 103 -10.494318008 2.1887858176e-14 
103.625 -7.625 2.1972555144e-14 103.625 -5.28125 2.1928380487e-14 103 -5.8920450211 2.1801115208e-14 
105.5 -2.9375 2.2300538193e-14 105.5 -0.85416680574 2.2261271834e-14 103.625 -2.9375 2.188420583e-14 
103.625 -2.9375 2.188420583e-14 105.5 -0.85416680574 2.2261271834e-14 103 1.0113635063 2.1671000773e-14 
105.5 -0.85416680574 2.2261271834e-14 105.5 1.2291667461 2.2222005468e-14 103 1.0113635063 2.1671000773e-14 
103 1.0113635063 2.1671000773e-14 105.5 1.2291667461 2.2222005468e-14 103 3.3125 2.1627629289e-14 
103 1.0113635063 2.1671000773e-14 103 3.3125 2.1627629289e-14 100.5 3.3125 2.1072519471e-14 
105.5 1.2291667461 2.2222005468e-14 105.5 3.3125 2.2182739108e-14 103 3.3125 2.1627629289e-14 
99.75 1.3125 2.0943682233e-14 98 3.3125 2.0517409653e-14 97.259025574 1.3125 2.0390576489e-14 
97.259025574 1.3125 2.0390576489e-14 98 3.3125 2.0517409653e-14 95.5 3.3125 1.9962299835e-14 
97.259025574 1.3125 2.0390576489e-14 95.5 3.3125 1.9962299835e-14 94.768074036 1.3125 1.9837475827e-14 
94.768074036 1.3125 1.9837475827e-14 95.5 3.3125 1.9962299835e-14 93 3.3125 1.9407190016e-14 
94.768074036 1.3125 1.9837475827e-14 93 3.3125 1.9407190016e-14 92.277099609 1.3125 1.9284370082e-14 
92.277099609 1.3125 1.9284370082e-14 93 3.3125 1.9407190016e-14 90.5 3.3125 1.8852080198e-14 
92.277099609 1.3125 1.9284370082e-14 90.5 3.3125 1.8852080198e-14 89.786148071 1.3125 1.873126942e-14 
89.786148071 1.3125 1.873126942e-14 90.5 3.3125 1.8852080198e-14 88 3.3125 1.829697038e-14 
89.786148071 1.3125 1.873126942e-14 88 3.3125 1.829697038e-14 87.295173645 1.3125 1.8178163675e-14 
87.295173645 1.3125 1.8178163675e-14 88 3.3125 1.829697038e-14 85.5 3.3125 1.7741860562e-14 
87.295173645 1.3125 1.8178163675e-14 85.5 3.3125 1.7741860562e-14 84.804222107 1.3125 1.7625063013e-14 
84.804222107 1.3125 1.7625063013e-14 85.5 3.3125 1.7741860562e-14 83 3.3125 1.7186750743e-14 
84.804222107 1.3125 1.7625063013e-14 83 3.3125 1.7186750743e-14 82.313247681 1.3125 1.7071957269e-14 
82.313247681 1.3125 1.7071957269e-14 83 3.3125 1.7186750743e-14 80.5 3.3125 1.6631640925e-14 
82.313247681 1.3125 1.7071957269e-14 80.5 3.3125 1.6631640925e-14 79.822303772 1.3125 1.6518858301e-14 
79.822303772 1.3125 1.6518858301e-14 80.5 3.3125 1.6631640925e-14 78 3.3125 1.6076531107e-14 
79.822303772 1.3125 1.6518858301e-14 78 3.3125 1.6076531107e-14 77.331321716 1.3125 1.5965750862e-14 
77.331321716 1.3125 1.5965750862e-14 78 3.3125 1.6076531107e-14 75.5 3.3125 1.5521421289e-14 
77.331321716 1.3125 1.5965750862e-14 75.5 3.3125 1.5521421289e-14 74.840377808 1.3125 1.5412651894e-14 
74.840377808 1.3125 1.5412651894e-14 75.5 3.3125 1.5521421289e-14 73 3.3125 1.496631147e-14 
74.840377808 1.3125 1.5412651894e-14 73 3.3125 1.496631147e-14 72.349403381 1.3125 1.485954615e-14 
72.349403381 1.3125 1.485954615e-14 73 3.3125 1.496631147e-14 70.5 3.3125 1.4411201652e-14 
72.349403381 1.3125 1.485954615e-14 70.5 3.3125 1.4411201652e-14 69.858421326 1.3125 1.4306438711e-14 
69.858421326 1.3125 1.4306438711e-14 70.5 3.3125 1.4411201652e-14 68 3.3125 1.3856091834e-14 
69.858421326 1.3125 1.4306438711e-14 68 3.3125 1.3856091834e-14 67.367477417 1.3125 1.3753339743e-14 
67.367477417 1.3125 1.3753339743e-14 68 3.3125 1.3856091834e-14 65.5 3.3125 1.3300982016e-14 
67.367477417 1.3125 1.3753339743e-14 65.5 3.3125 1.3300982016e-14 64.876502991 1.3125 1.3200233999e-14 
64.876502991 1.3125 1.3200233999e-14 65.5 3.3125 1.3300982016e-14 63 3.3125 1.2745872198e-14 
64.876502991 1.3125 1.3200233999e-14 63 3.3125 1.2745872198e-14 62.385551453 1.3125 1.2647133336e-14 
62.385551453 1.3125 1.2647133336e-14 63 3.3125 1.2745872198e-14 60.5 3.3125 1.2190762379e-14 
62.385551453 1.3125 1.2647133336e-14 60.5 3.3125 1.2190762379e-14 59.894573212 1.3125 1.2094026745e-14 
59.894573212 1.3125 1.2094026745e-14 60.5 3.3125 1.2190762379e-14 58 3.3125 1.1635652561e-14 
59.894573212 1.3125 1.2094026745e-14 58 3.3125 1.1635652561e-14 57.403625488 1.3125 1.154092693e-14 
57.403625488 1.3125 1.154092693e-14 58 3.3125 1.1635652561e-14 55.5 3.3125 1.1080542743e-14 
57.403625488 1.3125 1.154092693e-14 55.5 3.3125 1.1080542743e-14 54.912651062 1.3125 1.0987821185e-14 
54.912651062 1.3125 1.0987821185e-14 55.5 3.3125 1.1080542743e-14 53 3.3125 1.0525432925e-14 
54.912651062 1.3125 1.0987821185e-14 53 3.3125 1.0525432925e-14 52.421672821 1.3125 1.0434714594e-14 
52.421672821 1.3125 1.0434714594e-14 53 3.3125 1.0525432925e-14 50.5 3.3125 9.9703231063e-15 
52.421672821 1.3125 1.0434714594e-14 50.5 3.3125 9.9703231063e-15 49.930725098 1.3125 9.8816147787e-15 
49.930725098 1.3125 9.8816147787e-15 50.5 3.3125 9.9703231063e-15 48 3.3125 9.415213288e-15 
49.930725098 1.3125 9.8816147787e-15 48 3.3125 9.415213288e-15 47.439750671 1.3125 9.3285090343e-15 
47.439750671 1.3125 9.3285090343e-15 48 3.3125 9.415213288e-15 45.5 3.3125 8.8601034698e-15 
47.439750671 1.3125 9.3285090343e-15 45.5 3.3125 8.8601034698e-15 44.948799133 1.3125 8.775408372e-15 
44.948799133 1.3125 8.775408372e-15 45.5 3.3125 8.8601034698e-15 43 3.3125 8.3049936515e-15 
44.948799133 1.3125 8.775408372e-15 43 3.3125 8.3049936515e-15 42.457824707 1.3125 8.2223026276e-15 
42.457824707 1.3125 8.2223026276e-15 43 3.3125 8.3049936515e-15 40.5 3.3125 7.7498838333e-15 
42.457824707 1.3125 8.2223026276e-15 40.5 3.3125 7.7498838333e-15 39.966876984 1.3125 7.6692028124e-15 
39.966876984 1.3125 7.6692028124e-15 40.5 3.3125 7.7498838333e-15 38 3.3125 7.194774015e-15 
39.966876984 1.3125 7.6692028124e-15 38 3.3125 7.194774015e-15 37.475898743 1.3125 7.116096221e-15 
37.475898743 1.3125 7.116096221e-15 38 3.3125 7.194774015e-15 35.5 3.3125 6.6396641968e-15 
37.475898743 1.3125 7.116096221e-15 35.5 3.3125 6.6396641968e-15 34.984947205 1.3125 6.5629955588e-15 
34.984947205 1.3125 6.5629955588e-15 35.5 3.3125 6.6396641968e-15 33 3.3125 6.0845543786e-15 
34.984947205 1.3125 6.5629955588e-15 33 3.3125 6.0845543786e-15 32.493976593 1.3125 6.0098906614e-15 
32.493976593 1.3125 6.0098906614e-15 33 3.3125 6.0845543786e-15 30.5 3.3125 5.5294445603e-15 
32.493976593 1.3125 6.0098906614e-15 30.5 3.3125 5.5294445603e-15 30.003000259 1.3125 5.4567844935e-15 
30.003000259 1.3125 5.4567844935e-15 30.5 3.3125 5.5294445603e-15 28 3.3125 4.9743347421e-15 
30.003000259 1.3125 5.4567844935e-15 28 3.3125 4.9743347421e-15 27.512050629 1.3125 4.9036842548e-15 
27.512050629 1.3125 4.9036842548e-15 28 3.3125 4.9743347421e-15 25.5 3.3125 4.4192249238e-15 
27.512050629 1.3125 4.9036842548e-15 25.5 3.3125 4.4192249238e-15 25.021076202 1.3125 4.3505785103e-15 
25.021076202 1.3125 4.3505785103e-15 25.5 3.3125 4.4192249238e-15 23 3.3125 3.8641151056e-15 
[...]
CELL_DATA 4213
FIELD FieldData 4
electrode_index 1 4213 int
0 0 0 0 0 0 0 0 0 
0 0 0 0 0 0 0 0 0 
0 0 0 0 0 0 0 0 0 
0 0 0 0 0 0 0 0 0 
0 0 0 0 0 0 0 0 0 
0 0 0 0 0 0 0 0 0 
0 0 0 0 0 0 0 0 0 
0 0 0 0 0 0 0 0 0 
0 0 0 0 0 0 0 0 0 
0 0 0 0 0 0 0 0 0 
0 0 0 0 0 0 0 0 0 
0 0 0 0 0 0 0 0 0 
0 0 0 0 0 0 0 0 0 
0 0 0 0 0 0 0 0 0 
0 0 0 0 0 0 0 0 0 
0 0 0 0 0 0 0 0 0 
0 0 0 0 0 0 0 0 0 
0 0 0 0 0 0 0 0 0 
0 0 0 0 0 0 0 0 0 
0 0 0 0 0 0 0 0 0 
0 0 0 0 0 0 0 0 0 
0 0 0 0 0 0 0 0 0 
0 0 0 0 0 0 0 0 0 
0 0 0 0 0 0 0 0 0 
0 0 0 0 0 0 0 0 0 
0 0 0 0 0 0 0 0 0 
0 0 0 0 0 0 0 0 0 
0 0 0 0 0 0 0 0 0 
0 0 0 0 0 0 0 0 0 
0 0 0 0 0 0 0 0 0 
0 0 0 0 0 0 0 0 0 
0 0 0 0 0 0 0 0 0 
0 0 0 0 0 0 0 0 0 
0 0 0 0 0 0 0 0 0 
0 0 0 0 0 0 0 0 0 
0 0 0 0 0 0 0 0 0 
0 0 0 0 0 0 0 0 0 
0 0 0 0 0 0 0 0 0 
0 0 0 0 0 0 0 0 0 
0 0 0 0 0 0 0 0 0 
0 0 0 0 0 0 0 0 0 
0 0 0 0 0 0 0 0 0 
0 0 0 0 0 0 0 0 0 
0 0 0 0 0 0 0 0 0 
0 0 0 0 0 0 0 0 0 
0 0 0 0 0 0 0 0 0 
0 0 0 0 0 0 0 0 0 
0 0 0 0 0 0 0 0 0 
0 0 0 0 0 0 0 0 0 
0 0 0 0 0 0 0 0 0 
0 0 0 0 0 0 0 0 0 
0 0 0 0 0 0 0 0 0 
0 0 0 0 0 0 0 0 0 
0 0 0 0 0 0 0 0 0 
0 0 0 0 0 0 0 0 0 
0 0 0 0 0 0 0 0 0 
0 0 0 0 0 0 0 0 0 
0 0 0 0 0 0 0 0 0 
0 0 0 0 0 0 0 0 0 
0 0 0 0 0 0 0 0 0 
0 0 0 0 0 0 0 0 0 
0 0 0 0 0 0 0 0 0 
0 0 0 0 0 0 0 0 0 
0 0 0 0 0 0 0 0 0 
0 0 0 0 0 0 0 0 0 
0 0 0 0 0 0 0 0 0 
0 0 0 0 0 0 0 0 0 
0 0 0 0 0 0 0 0 0 
0 0 0 0 0 0 0 0 0 
0 0 0 0 0 0 0 0 0 
0 0 0 0 0 0 0 0 0 
0 0 0 0 0 0 0 0 0 
0 0 0 0 0 0 0 0 0 
0 0 0 0 0 0 0 0 0 
0 0 0 0 0 0 0 0 0 
0 0 0 0 0 0 0 0 0 
0 0 0 0 0 0 0 0 0 
0 0 0 0 0 0 0 0 0 
0 0 0 0 0 0 0 0 0 
0 0 0 0 0 0 0 0 0 
0 0 0 0 0 0 0 0 0 
0 0 0 0 0 0 0 0 0 
0 0 0 0 0 0 0 0 0 
0 0 0 0 0 0 0 0 0 
0 0 0 0 0 0 0 0 0 
0 0 0 0 0 0 0 0 0 
0 0 0 0 0 0 0 0 0 
0 0 0 0 0 0 0 0 0 
0 0 0 0 0 0 0 0 0 
0 0 0 0 0 0 0 0 0 
0 0 0 0 0 0 0 0 0 
0 0 0 0 0 0 0 0 0 
0 0 0 0 0 0 0 0 0 
0 0 0 0 0 0 0 0 0 
0 0 0 0 0 0 0 0 0 
0 0 0 0 0 0 0 0 0 
0 0 0 0 0 0 0 0 0 
0 0 0 0 0 0 0 0 0 
0 0 0 0 0 0 0 0 0 
0 0 0 0 0 0 0 0 0 
0 0 0 0 0 0 0 0 0 
0 0 0 0 0 0 0 0 0 
0 0 0 0 0 0 0 0 0 
0 0 0 0 0 0 0 0 0 
0 0 0 0 0 0 0 0 0 
0 0 0 0 0 0 0 0 0 
0 0 0 0 0 0 0 0 0 
0 0 0 0 0 0 0 0 0 
0 0 0 0 0 0 0 0 0 
0 0 0 0 0 0 0 0 0 
0 0 0 0 0 0 0 0 0 
0 0 0 0 0 0 0 0 0 
0 0 0 0 0 0 0 0 0 
0 0 0 0 0 0 0 0 0 
0 0 0 0 0 0 0 0 0 
0 0 0 0 0 0 0 0 0 
0 0 0 0 0 0 0 0 0 
0 0 0 0 0 0 0 0 0 
0 0 0 0 0 0 0 0 0 
0 0 0 0 0 0 0 0 0 
0 0 0 0 0 0 0 0 0 
0 0 0 0 0 0 0 0 0 
0 0 0 0 0 0 0 0 0 
0 0 0 0 0 0 0 0 0 
0 0 0 0 0 0 0 0 0 
0 0 0 0 0 0 0 0 0 
0 0 0 0 0 0 0 0 0 
0 0 0 0 0 0 0 0 0 
0 0 0 0 0 0 0 0 0 
0 0 0 0 0 0 0 0 0 
0 0 0 0 0 0 0 0 0 
0 0 0 0 0 0 0 0 0 
0 0 0 0 0 0 0 0 0 
0 0 0 0 0 0 0 0 0 
0 0 0 0 0 0 0 0 0 
0 0 0 0 0 0 0 0 0 
0 0 0 0 0 0 0 0 0 
0 0 0 0 0 0 0 0 0 
0 0 0 0 0 0 0 0 0 
0 0 0 0 0 0 0 0 0 
0 0 0 0 0 0 0 0 0 
0 0 0 0 0 0 0 0 0 
0 0 0 0 0 0 0 0 0 
0 0 0 0 0 0 0 0 0 
0 0 0 0 0 0 0 0 0 
0 0 0 0 0 0 0 0 0 
0 0 0 0 0 0 0 0 0 
0 0 0 0 0 0 0 0 0 
0 0 0 0 0 0 0 0 0 
0 0 0 0 0 0 0 0 0 
0 0 0 0 0 0 0 0 0 
0 0 0 0 0 0 0 0 0 
0 0 0 0 0 0 0 0 0 
0 0 0 0 0 0 0 0 0 
0 0 0 0 0 0 0 0 0 
0 0 0 0 0 0 0 0 0 
0 0 0 0 0 0 0 0 0 
0 0 0 0 0 0 0 0 0 
0 0 0 0 0 0 0 0 0 
0 0 0 0 0 0 0 0 0 
0 0 0 0 0 0 0 0 0 
0 0 0 0 0 0 0 0 0 
0 0 0 0 0 0 0 0 0 
0 0 0 0 0 0 0 0 0 
0 0 0 0 0 0 0 0 0 
0 0 0 0 0 0 0 0 0 
0 0 0 0 0 0 0 0 0 
0 0 0 0 0 0 0 0 0 
0 0 0 0 0 0 0 0 0 
0 0 0 0 0 0 0 0 0 
0 0 0 0 0 0 0 0 0 
0 0 0 0 0 0 0 0 0 
0 0 0 0 0 0 0 0 0 
0 0 0 0 0 0 0 0 0 
0 0 0 0 0 0 0 0 0 
0 0 0 0 0 0 0 0 0 
0 0 0 0 0 0 0 0 0 
0 0 0 0 0 0 0 0 0 
0 0 0 0 0 0 0 0 0 
0 0 0 0 0 0 0 0 0 
0 0 0 0 0 0 0 0 0 
0 0 0 0 0 0 0 0 0 
0 0 0 0 0 0 0 0 0 
0 0 0 0 0 0 0 0 0 
0 0 0 0 0 0 0 0 0 
0 0 0 0 0 0 0 0 0 
0 0 0 0 0 0 0 0 0 
0 0 0 0 0 0 0 0 0 
0 0 0 0 0 0 0 0 0 
0 0 0 0 0 0 0 0 0 
0 0 0 0 0 0 0 0 0 
0 0 0 0 0 0 0 0 0 
0 0 0 0 0 0 0 0 0 
0 0 0 0 0 0 0 0 0 
0 0 0 0 0 0 0 0 0 
0 0 0 0 0 0 0 0 0 
0 0 0 0 0 0 0 0 0 
0 0 0 0 0 0 0 0 0 
0 0 0 0 0 0 0 0 0 
0 0 0 0 0 0 0 0 0 
0 0 0 0 0 0 0 0 0 
0 0 0 0 0 0 0 0 0 
0 0 0 0 0 0 0 0 0 
0 0 0 0 0 0 0 0 0 
0 0 0 0 0 0 0 0 0 
0 0 0 0 0 0 0 0 0 
0 0 0 0 0 0 0 0 0 
0 0 0 0 0 0 0 0 0 
0 0 0 0 0 0 0 0 0 
0 0 0 0 0 0 0 0 0 
0 0 0 0 0 0 0 0 0 
0 0 0 0 0 0 0 0 0 
0 0 0 0 0 0 0 0 0 
0 0 0 0 0 0 0 0 0 
0 0 0 0 0 0 0 0 0 
0 0 0 0 0 0 0 0 0 
0 0 0 0 0 0 0 0 0 
0 0 0 0 0 0 0 0 0 
0 0 0 0 0 0 0 0 0 
0 0 0 0 0 0 0 0 0 
0 0 0 0 0 0 0 0 0 
0 0 0 0 0 0 0 0 0 
0 0 0 0 0 0 0 0 0 
0 0 0 0 0 0 0 0 0 
0 0 0 0 0 0 0 0 0 
0 0 0 0 0 0 0 0 0 
0 0 0 0 0 0 0 0 0 
0 0 0 0 0 0 0 0 0 
0 0 0 0 0 0 0 0 0 
0 0 0 0 0 0 0 0 0 
0 0 0 0 0 0 0 0 0 
0 0 0 0 0 0 0 0 0 
0 0 0 0 0 0 0 0 0 
0 0 0 0 0 0 0 0 0 
0 0 0 0 0 0 0 0 0 
0 0 0 0 0 0 0 0 0 
0 0 0 0 0 0 0 0 0 
0 0 0 0 0 0 0 0 0 
0 0 0 0 0 0 0 0 0 
0 0 0 0 0 0 0 0 0 
0 0 0 0 0 0 0 0 0 
0 0 0 0 0 0 0 0 0 
0 0 0 0 0 0 0 0 0 
0 0 0 0 0 0 0 0 0 
0 0 0 0 0 0 0 0 0 
0 0 0 0 0 0 0 0 0 
0 0 0 0 0 0 0 0 0 
0 0 0 0 0 0 0 0 0 
0 0 0 0 0 0 0 0 0 
0 0 0 0 0 0 0 0 0 
0 0 0 0 0 0 0 0 0 
0 0 0 0 0 0 0 0 0 
0 0 0 0 0 0 0 0 0 
0 0 0 0 0 0 0 0 0 
0 0 0 0 0 0 0 0 0 
0 0 0 0 0 0 0 0 0 
0 0 0 0 0 0 0 0 0 
0 0 0 0 0 0 0 0 0 
0 0 0 0 0 0 0 0 0 
0 0 0 0 0 0 0 0 0 
0 0 0 0 0 0 0 0 0 
0 0 0 0 0 0 0 0 0 
0 0 0 0 0 0 0 0 0 
0 0 0 0 0 0 0 0 0 
0 0 0 0 0 0 0 0 0 
0 0 0 0 0 0 0 0 0 
0 0 0 0 0 0 0 0 0 
0 0 0 0 0 0 0 0 0 
0 0 0 0 0 0 0 0 0 
0 0 0 0 0 0 0 0 0 
0 0 0 0 0 0 0 0 0 
0 0 0 0 0 0 0 0 0 
0 0 0 0 0 0 0 0 0 
0 0 0 0 0 0 0 0 0 
0 0 0 0 0 0 0 0 0 
0 0 0 0 0 0 0 0 0 
0 0 0 0 0 0 0 0 0 
0 0 0 0 0 0 0 0 0 
0 0 0 0 0 0 0 0 0 
0 0 0 0 0 0 0 0 0 
0 0 0 0 0 0 0 0 0 
0 0 0 0 0 0 0 0 0 
0 0 0 0 0 0 0 0 0 
0 0 0 0 0 0 0 0 0 
0 0 0 0 0 0 0 0 0 
0 0 0 0 0 0 0 0 0 
0 0 0 0 0 0 0 0 0 
0 0 0 0 0 0 0 0 0 
0 0 0 0 0 0 0 0 0 
0 0 0 0 0 0 0 0 0 
0 0 0 0 0 0 0 0 0 
0 0 0 0 0 0 0 0 0 
0 0 0 0 0 0 0 0 0 
0 0 0 0 0 0 0 0 0 
0 0 0 0 0 0 0 0 0 
0 0 0 0 0 0 0 0 0 
0 0 0 0 0 0 0 0 0 
0 0 0 0 0 0 0 0 0 
0 0 0 0 0 0 0 0 0 
0 0 0 0 0 0 0 0 0 
0 0 0 0 0 0 0 0 0 
0 0 0 0 0 0 0 0 0 
0 0 0 0 0 0 0 0 0 
0 0 0 0 0 0 0 0 0 
0 0 0 0 0 0 0 0 0 
0 0 0 0 0 0 0 0 0 
0 0 0 0 0 0 0 0 0 
0 0 0 0 0 0 0 0 0 
0 0 0 0 0 0 0 0 0 
0 0 0 0 0 0 0 0 0 
0 0 0 0 0 0 0 0 0 
0 0 0 0 0 0 0 0 0 
0 0 0 0 0 0 0 0 0 
0 0 0 0 0 0 0 0 0 
0 0 0 0 0 0 0 0 0 
0 0 0 0 0 0 0 0 0 
0 0 0 0 0 0 0 0 0 
0 0 0 0 0 0 0 0 0 
0 0 0 0 0 0 0 0 0 
0 0 0 0 0 0 0 0 0 
0 0 0 0 0 0 0 0 0 
0 0 0 0 0 0 0 0 0 
0 0 0 0 0 0 0 0 0 
0 0 0 0 0 0 0 0 0 
0 0 0 0 0 0 0 0 0 
0 0 0 0 0 0 0 0 0 
0 0 0 0 0 0 0 0 0 
0 0 0 0 0 0 0 0 0 
0 0 0 0 0 0 0 0 0 
0 0 0 0 0 0 0 0 0 
0 0 0 0 0 0 0 0 0 
0 0 0 0 0 0 0 0 0 
0 0 0 0 0 0 0 0 0 
0 0 0 0 0 0 0 0 0 
0 0 0 0 0 0 0 0 0 
0 0 0 0 0 0 0 0 0 
0 0 0 0 0 0 0 0 0 
0 0 0 0 0 0 0 0 0 
0 0 0 0 0 0 0 0 0 
0 0 0 0 0 0 0 0 0 
0 0 0 0 0 0 0 0 0 
0 0 0 0 0 0 0 0 0 
0 0 0 0 0 0 0 0 0 
0 0 0 0 0 0 0 0 0 
0 0 0 0 0 0 0 0 0 
0 0 0 0 0 0 0 0 0 
0 0 0 0 0 0 0 0 0 
0 0 0 0 0 0 0 0 0 
0 0 0 0 0 0 0 0 0 
0 0 0 0 0 0 0 0 0 
0 0 0 0 0 0 0 0 0 
0 0 0 0 0 0 0 0 0 
0 0 0 0 0 0 0 0 0 
0 0 0 0 0 0 0 0 0 
0 0 0 0 0 0 0 0 0 
0 0 0 0 0 0 0 0 0 
0 0 0 0 0 0 0 0 0 
0 0 0 0 0 0 0 0 0 
0 0 0 0 0 0 0 0 0 
0 0 0 0 0 0 0 0 0 
0 0 0 0 0 0 0 0 0 
0 0 0 0 0 0 0 0 0 
0 0 0 0 0 0 0 0 0 
0 0 0 0 0 0 0 0 0 
0 0 0 0 0 0 0 0 0 
0 0 0 0 0 0 0 0 0 
0 0 0 0 0 0 0 0 0 
0 0 0 0 0 0 0 0 0 
0 0 0 0 0 0 0 0 0 
0 0 0 0 0 0 0 0 0 
0 0 0 0 0 0 0 0 0 
0 0 0 0 0 0 0 0 0 
0 0 0 0 0 0 0 0 0 
0 0 0 0 0 0 0 0 0 
0 0 0 0 0 0 0 0 0 
0 0 0 0 0 0 0 0 0 
0 0 0 0 0 0 0 0 0 
0 0 0 0 0 0 0 0 0 
0 0 0 0 0 0 0 0 0 
0 0 0 0 0 0 0 0 0 
0 0 0 0 0 0 0 0 0 
0 0 0 0 0 0 0 0 0 
0 0 0 0 0 0 0 0 0 
0 0 0 0 0 0 0 0 0 
0 0 0 0 0 0 0 0 0 
0 0 0 0 0 0 0 0 0 
0 0 0 0 0 0 0 0 0 
0 0 0 0 0 0 0 0 0 
0 0 0 0 0 0 0 0 0 
0 0 0 0 0 0 0 0 0 
0 0 0 0 0 0 0 0 0 
0 0 0 0 0 0 0 0 0 
0 0 0 0 0 0 0 0 0 
0 0 0 0 0 0 0 0 0 
0 0 0 0 0 0 0 0 0 
0 0 0 0 0 0 0 0 0 
0 0 0 0 0 0 0 0 0 
0 0 0 0 0 0 0 0 0 
0 0 0 0 0 0 0 0 0 
0 0 0 0 0 0 0 0 0 
0 0 0 0 0 0 0 0 0 
0 0 0 0 0 0 0 0 0 
0 0 0 0 0 0 0 0 0 
0 0 0 0 0 0 0 0 0 
0 0 0 0 0 0 0 0 0 
0 0 0 0 0 0 0 0 0 
0 0 0 0 0 0 0 0 0 
0 0 0 0 0 0 0 0 0 
0 0 0 0 0 0 0 0 0 
0 0 0 0 0 0 0 0 0 
0 0 0 0 0 0 0 0 0 
0 0 0 0 0 0 0 0 0 
0 0 0 0 0 0 0 0 0 
0 0 0 0 0 0 0 0 0 
0 0 0 0 0 0 0 0 0 
0 0 0 0 0 0 0 0 0 
0 0 0 0 0 0 0 0 0 
0 0 0 0 0 0 0 0 0 
0 0 0 0 0 0 0 0 0 
0 0 0 0 0 0 0 0 0 
0 0 0 0 0 0 0 0 0 
0 0 0 0 0 0 0 0 0 
0 0 0 0 0 0 0 0 0 
0 0 0 0 0 0 0 0 0 
0 0 0 0 0 0 0 0 0 
0 0 0 0 0 0 0 0 0 
0 0 0 0 0 0 0 0 0 
0 0 0 0 0 0 0 0 0 
0 0 0 0 0 0 0 0 0 
0 0 0 0 0 0 0 0 0 
0 0 0 0 0 0 0 0 0 
0 0 0 0 0 0 0 0 0 
0 0 0 0 0 0 0 0 0 
0 0 0 0 0 0 0 0 0 
0 0 0 0 0 0 0 0 0 
0 0 0 0 0 0 0 0 0 
0 0 0 0 0 0 0 0 0 
0 0 0 0 0 0 0 0 0 
0 0 0 0 0 0 0 0 0 
0 0 0 0 0 0 0 0 0 
0 0 0 0 0 0 0 0 0 
0 0 0 0 0 0 0 0 0 
0 0 0 0 0 0 0 0 0 
0 0 0 0 0 0 0 0 0 
0 0 0 0 0 0 0 0 0 
0 0 0 0 0 0 0 0 0 
0 0 0 0 0 0 0 0 0 
0 0 0 0 0 0 0 0 0 
0 0 0 0 0 0 0 0 0 
0 0 0 0 0 0 0 0 0 
0 0 0 0 0 0 0 0 0 
0 0 0 0 0 0 0 0 0 
0 0 0 0 0 0 0 0 0 
0 0 0 0 0 0 0 0 0 
0 0 0 0 0 0 0 0 0 
0 0 0 0 0 0 0 0 0 
0 0 0 0 0 0 0 0 0 
0 0 0 0 0 0 0 0 0 
0 0 0 0 0 0 0 0 0 
0 0 0 0 0 0 0 0 0 
0 0 0 0 0 0 0 0 0 
0 0 0 0 0 0 0 0 0 
0 0 0 0 0 0 0 0 0 
0 0 0 0 0 0 0 0 0 
0 0 0 0 0 0 0 0 0 
0 0 0 0 0 0 0 0 0 
0 0 0 0 0 0 0 0 0 
0 0 0 0 0 0 0 0 0 
0 
area 1 4213 double
2.8764200211 3.125 2.8764200211 0.35332791485 0.086650724762 1.6654837132 1.318359375 0.38529753685 1.6281956434 
0.419921875 0.42258560658 1.5909092426 1.318359375 0.45987200737 1.5536220074 0.419921875 0.49715924263 1.5163356066 
1.318359375 0.53444564342 1.4790475368 0.732421875 0.57173371315 3.455255568 5.1097299755 0.43928371396 0.26783600463 
0.4921875 0.86292618513 2.5 2.34375 0.419921875 0.419921875 0.419921875 1.9531248696 4.3531011604 
2.6041669399 2.8764206171 2.8764206171 2.6041665673 2.4909744263 2.5 2.4909515381 2.5 2.4909744263 
2.5 2.4909515381 2.5 2.4909744263 2.5 2.4909515381 2.5 2.4909744263 2.5 
2.4909439087 2.5 2.4909820557 2.5 2.4909439087 2.5 2.4909744263 2.5 2.4909820557 
2.5 2.4909439087 2.5 2.4909744263 2.5 2.4909515381 2.5 2.490978241 2.5 
2.4909477234 2.5 2.4909744263 2.5 2.490978241 2.5 2.4909477234 2.5 2.4909744263 
2.5 2.4909515381 2.5 2.4909744263 2.5 2.4909477234 2.5 2.490978241 2.5 
2.4909515381 2.5 2.4909706116 2.5 2.4909763336 2.5 2.4909496307 2.5 2.4909744263 
2.5 2.4909572601 2.5 2.4909610748 2.5 2.4909667969 0.036651173194 0.040070323074 0.039046229996 
0.038937330246 0.039046168327 0.038937449455 0.039046168327 0.038937449455 0.039046287537 0.03893750906 0.039046227932 0.038937538862 
0.039046213031 0.038937628269 0.039046220481 0.038937628269 0.039046257734 0.038937449455 0.039046227932 0.038937866688 0.039046227932 
0.038937687874 0.039046287537 0.038937568665 0.039046287537 0.038937568665 0.039046287537 0.038937749298 0.040174797363 0.037734319168 
2.5 2.4909648895 2.5 2.4909610748 2.5 2.4909591675 2.5 2.4909744263 2.5 
2.4909515381 2.5 2.4909744263 2.5 2.4909477234 2.5 2.490978241 2.5 2.4909706116 
2.5 2.4909515381 2.5 2.490978241 2.5 2.4909477234 2.5 2.4909744263 2.5 
2.4909515381 2.5 2.4909744263 2.5 2.4909477234 2.5 2.490978241 2.5 2.4909744263 
2.5 2.4909515381 2.5 2.4909744263 2.5 2.4909515381 2.5 2.4909744263 2.5 
2.4909439087 2.5 2.4909820557 2.5 2.4909744263 2.5 2.4909439087 2.5 2.4909820557 
2.5 2.4909439087 2.5 2.4909744263 2.5 2.4909515381 2.5 2.4909744263 2.5 
2.4909515381 2.5 2.4909744263 2.5 2.4909439087 2.5 2.4909820557 2.0447201729 2.0239167213 
2.0446953773 2.0238981247 2.044713974 2.0239167213 2.044713974 2.0238981247 2.0447015762 2.0239167213 2.0447201729 
2.0238981247 2.044713974 2.0239167213 2.0446953773 2.0238919258 2.0447201729 2.0239229202 2.0446953773 2.0238919258 
2.0447201729 2.0239167213 2.044713974 2.0239229202 2.0447201729 2.0238919258 2.0446953773 2.0239167213 2.044713974 
2.0238981247 2.0447015762 2.0239198208 2.044713974 2.0238950253 2.0447170734 2.0239167213 2.0446984768 2.0239198208 
2.044713974 2.0238950253 2.0447201729 2.0239167213 2.0446953773 2.0238981247 2.0447170734 2.0239167213 2.0447201729 
2.0238950253 2.0446953773 2.0239198208 2.0447170734 2.0238981247 2.0447170734 2.0239136219 2.0446953773 2.0239182711 
2.0447201729 2.023896575 2.0447155237 2.0239167213 2.0447000265 2.0239027739 2.0447093248 2.0239058733 2.0447124243 
2.0239105225 0.031992218381 0.030572116375 0.031908847392 0.031661182642 0.031911171973 0.031661182642 0.031911075115 0.031661085784 
0.031910929829 0.031661134213 0.031910929829 0.031661109999 0.03191109933 0.031661109999 0.031911052414 0.031661097892 0.031911050901 
0.031661327928 0.031910978258 0.031661085784 0.031911123544 0.031661085784 0.0319108814 0.031660988927 0.03191126883 0.031661085784 
0.031911075115 0.031661182642 0.031909137964 0.030645534396 0.030924096704 2.0239089727 2.0447077751 2.0239058733 2.0447077751 
2.0239043236 2.0447170734 2.0239167213 2.0446969271 2.0238981247 2.0447155237 2.0239167213 2.0447201729 2.0238950253 
2.0446953773 2.0239198208 2.0447170734 2.0239136219 2.0447170734 2.0238981247 2.0446953773 2.0239198208 2.0447201729 
2.0238950253 2.0447170734 2.0239167213 2.0446953773 2.0238981247 2.0447201729 2.0239167213 2.044713974 2.0238950253 
2.0446984768 2.0239198208 2.0447170734 2.0239167213 2.044713974 2.0238981247 2.0447015762 2.0239167213 2.044713974 
2.0238981247 2.0446953773 2.0239167213 2.0447201729 2.0238919258 2.044713974 2.0239229202 2.0447201729 2.0239167213 
2.0446953773 2.0238919258 2.0447201729 2.0239229202 2.0446953773 2.0238919258 2.044713974 2.0239167213 2.0447201729 
2.0238981247 2.0447015762 2.0239167213 2.044713974 2.0238981247 2.044713974 2.0239167213 2.0446953773 2.0238919258 
2.0447201729 2.0239229202 1.318359375 1.318359375 1.318359375 1.71875 1.6796879768 2.8764200211 3.125 
2.8764200211 2.8764206171 0.064993322492 0.039346223709 0.040111884165 0.03895450142 0.038996101937 0.039033136218 0.039053032638 
0.039054632187 0.038928747177 0.038952827454 0.038928866386 0.039030909538 0.039054751396 0.039055109024 0.038928747177 0.038952708244 
0.038929104805 0.039031028748 0.039054870605 0.039055109024 0.038928985596 0.038952469826 0.038928747177 0.039030909538 0.03905493021 
0.039054691792 0.038928806782 0.038952827454 0.038928985596 0.039030909538 0.039054751396 0.039054989815 0.038928747177 0.038952827454 
0.038929015398 0.039030969143 0.039054840803 0.039054870605 0.038928940892 0.038952872157 0.038928907365 0.039030961692 0.039054881781 
0.039054870605 0.038928937167 0.038952827454 0.038928940892 0.039030939341 0.039054870605 0.039054661989 0.038929075003 0.038953065872 
0.0389290452 0.039030969143 0.039054691792 0.039055109024 0.0389290452 0.038952827454 0.038928806782 0.039030969143 0.039054751396 
0.039054989815 0.038928747177 0.038952827454 0.038929104805 0.039030909538 0.039054751396 0.039054632187 0.038929104805 0.038952827454 
0.038928627968 0.039030909538 0.039055109024 0.039055109024 0.038928866386 0.038952827454 0.038928985596 0.039030790329 0.039054632187 
0.039054870605 0.038928747177 0.038955099885 0.038926123702 0.039024985692 0.03912178723 0.040238342116 0.041931311689 0.064404795296 
0.05635434659 0.037132660123 0.030606791377 0.031703611401 0.031578563154 0.031868457794 0.031873591244 0.031930737197 0.031696148217 
0.031640939415 0.031640939415 0.031931221485 0.031875915825 0.03193102777 0.031696341932 0.031641326845 0.031641326845 0.03193102777 
0.03187610954 0.031931221485 0.031696341932 0.031641036272 0.031641036272 0.031931318343 0.031876206398 0.031931076199 0.031696148217 
0.031641036272 0.031641036272 0.03193102777 0.031875867397 0.03193102777 0.031696124002 0.031641036272 0.031641278416 0.031931003556 
0.03187610954 0.03193111252 0.031696196645 0.031641084701 0.031641114969 0.031931070145 0.031875974848 0.031931070145 0.031696184538 
0.031641114969 0.031641096808 0.031931064092 0.031876061112 0.031930979341 0.031696148217 0.031641036272 0.031641278416 0.03193102777 
0.031876157969 0.03193102777 0.031696099788 0.031641278416 0.031641036272 0.031930979341 0.031875867397 0.031930930912 0.031696051359 
0.031641036272 0.031641036272 0.031931124628 0.031875915825 0.031931318343 0.031696341932 0.031641036272 0.031641036272 0.031930930912 
0.03187610954 0.031930930912 0.031696148217 0.031640939415 0.031640939415 0.031931124628 0.031875915825 0.031930930912 0.031696245074 
0.031640939415 0.031641229987 0.031930834055 0.031873881817 0.031868651509 0.030680596828 0.031579047441 0.030637979507 0.03204082354 
0.058733209989 0.037907549029 0.037101417575 0.036519305451 0.040895869394 0.039873206627 0.039993087066 0.039045046821 0.03904902935 
0.039040207863 0.038943886757 0.038943886757 0.038934707642 0.039039969444 0.03904914856 0.039040088654 0.038944005966 0.038943767548 
0.038934707642 0.039040327072 0.03904902935 0.039040088654 0.038943767548 0.038943767548 0.03893494606 0.039039969444 0.039049327374 
0.039039969444 0.038943707943 0.038943767548 0.038934648037 0.039040029049 0.039049088955 0.039039969444 0.038943707943 0.038943737745 
0.038934707642 0.039040178061 0.03904914856 0.03904004395 0.038943737745 0.038943782449 0.038934677839 0.039040039759 0.039049122483 
0.039040029049 0.038943789899 0.038943767548 0.03893469274 0.039040058851 0.039049059153 0.039039999247 0.038943767548 0.038944065571 
0.038935005665 0.039039731026 0.039049088955 0.039040327072 0.038943707943 0.038943350315 0.038934707642 0.039040029049 0.03904914856 
0.039040088654 0.038943767548 0.038943529129 0.038934707642 0.039039969444 0.03904902935 0.039040088654 0.038943648338 0.038943767548 
0.038934707642 0.039039969444 0.039049386978 0.039039969444 0.038943648338 0.038943648338 0.038934707642 0.039040327072 0.039049386978 
0.039039969444 0.03894329071 0.038948247067 0.038934707642 0.039964808746 0.04010411775 0.04098237135 0.037869194111 0.038994251098 
0.035550304952 0.031873507209 0.033914837446 0.030292640582 0.029591427527 0.03076428175 0.030686698854 0.031861387193 0.031897030771 
0.031917564571 0.031675323844 0.031654112041 0.031675033271 0.031896643341 0.031897030771 0.031917758286 0.031675323844 0.031654305756 
0.031675226986 0.031896933913 0.031896933913 0.031918048859 0.031675323844 0.031654208899 0.031675614417 0.031896982342 0.031896933913 
0.031918048859 0.031675275415 0.031654208899 0.031675275415 0.031896982342 0.031896982342 0.031917806715 0.031675323844 0.031654233113 
0.031675057486 0.031896958128 0.031896885484 0.031917709857 0.031675251201 0.031654305756 0.031675239094 0.031896906672 0.031896902132 
0.031917835469 0.031675257254 0.031654317863 0.031675251201 0.031896885484 0.031896982342 0.031917952001 0.031675057486 0.031654233113 
0.031675033271 0.031896933913 0.031896982342 0.031917855144 0.0316750817 0.0316545479 0.031675323844 0.031896740198 0.031896982342 
0.031917855144 0.031675226986 0.031654305756 0.031675323844 0.031896933913 0.031897030771 0.031918048859 0.031675323844 0.031654208899 
0.031675420702 0.031896933913 0.031896643341 0.031917855144 0.031675323844 0.031654208899 0.031675420702 0.031896837056 0.031897030771 
0.031917758286 0.031675226986 0.031654596329 0.031675323844 0.031896352768 0.031861484051 0.031918048859 0.030686601996 0.030763700604 
0.030682727695 0.03179910779 0.030842054434 0.032007803847 0.069565914238 0.14650674256 0.037279701442 0.04005454116 0.050295330584 
0.041168715415 0.041748346887 0.040046846985 0.038964820837 0.038836054778 0.039052875343 0.039061242774 0.039039893595 0.038933099928 
0.039016723633 0.039064171384 0.039031505585 0.039078928265 0.038986090345 0.039061071827 0.039046049118 0.039060950279 0.039055466652 
0.038928627968 0.038937449455 0.038922905922 0.038952469826 0.038967490196 0.038952469826 0.038922667503 0.038937449455 0.038928389549 
0.039016604424 0.039031505585 0.039031386375 0.039046287537 0.039055228233 0.039061188698 0.039046287537 0.03906083107 0.039055228233 
0.038928747177 0.038937449455 0.038922786713 0.038952469826 0.038967490196 0.038952589035 0.038922786713 0.038937926292 0.038928389549 
0.039016604424 0.039031147957 0.039031147957 0.039045929909 0.039055109024 0.039061069489 0.039046287537 0.03906083107 0.039055228233 
0.038928508759 0.038937926292 0.038922548294 0.038952469826 0.038967251778 0.03895252943 0.038922786713 0.038937747478 0.038928508759 