# vtk DataFile Version 5.1
vtk output
ASCII
DATASET STRUCTURED_POINTS
DIMENSIONS 26 26 26
SPACING 0.08 0.08 0.08
ORIGIN -1 -1 0.5
POINT_DATA 17576
FIELD FieldData 1
potential 1 17576 double
0.00047132505584 0.00046676502718 0.00046233686066 0.0004580479121 0.00045389755319 0.00044975148229 0.00044586324984 0.0004420870901 0.00043839733129 
0.00043476938185 0.00043117514175 0.00042760195003 0.00042401672831 0.00042040952292 0.00041676430408 0.0004130728736 0.00040932687896 0.00040552401401 
0.00040166689542 0.00039776100899 0.000393815031 0.00038984003671 0.000385849973 0.00038186180658 0.00037788576652 0.00037394048823 0.00046964898658 
0.00046511469542 0.0004607209733 0.00045647596117 0.00045237868105 0.00044842526828 0.00044446805434 0.00044074765746 0.00043711107591 0.00043352391575 
0.00042995761456 0.00042638423785 0.0004227951509 0.00041916441543 0.00041548452846 0.00041174979786 0.00040795659401 0.0004041069775 0.00040020354015 
0.00039625427236 0.00039226832481 0.0003882580447 0.00038423738919 0.00038022072368 0.00037622641973 0.00037226534156 0.00046602548672 0.00046152714057 
0.00045718509105 0.00045299878296 0.0004489723799 0.00044509460716 0.00044121507305 0.00043757413464 0.000434001034 0.00043046920779 0.00042694216745 
0.00042339143577 0.00041980922177 0.00041617054908 0.00041247083711 0.00040871021243 0.00040488543704 0.00040100174412 0.00039706578675 0.0003930846879 
0.00038906995425 0.00038503467151 0.00038099262287 0.00037695885576 0.0003729492876 0.00036898267014 0.00046098201021 0.00045654042916 0.00045226435172 
0.00044815292266 0.00044420646746 0.00044041294872 0.00043662141252 0.00043306262552 0.00042956543988 0.00042608890468 0.00042260615431 0.0004190837093 
0.00041551113136 0.00041188015097 0.00040817420561 0.00040439763756 0.00040055471672 0.00039665030638 0.0003926923826 0.00038869200859 0.00038465877296 
0.00038060785797 0.00037655357066 0.00037251138412 0.00036849755646 0.00036452841937 0.00045516007178 0.00045079393595 0.00044658658432 0.00044255665313 
0.00043869740436 0.00043499428408 0.00043128820574 0.00042780757409 0.00042437745846 0.0004209571 0.00041751229138 0.00041401439547 0.00041045056673 
0.00040682251074 0.00040311968775 0.00039933643594 0.00039548413103 0.00039156901638 0.00038760032387 0.00038358904804 0.00037954808282 0.00037549176081 
0.00037143400396 0.00036739128913 0.00036338063017 0.00035941885331 0.0004491691354 0.00044488252781 0.00044076505043 0.00043681476873 0.00043304313562 
0.00042942512635 0.00042579949291 0.00042238503357 0.00041900544855 0.00041562243119 0.00041220145066 0.00040872147447 0.00040515932056 0.00040152843052 
0.00039782727795 0.00039404003878 0.00039018326544 0.00038626411143 0.00038229205837 0.00037827854486 0.00037423744989 0.00037018252111 0.00036613007072 
0.00036209496764 0.00035809497255 0.00035414760742 0.00044353353175 0.00043932013686 0.00043528858014 0.00043143415002 0.00042774112644 0.00042419893915 
0.00042076661707 0.00041727260252 0.00041392702692 0.00041056060184 0.00040714293143 0.00040365889084 0.00040009601791 0.00039644859126 0.00039273373511 
0.00038894528368 0.00038508320037 0.00038116278244 0.00037719122897 0.00037318143606 0.00036914652655 0.00036510038287 0.00036105871149 0.00035703848099 
0.00035305564512 0.00034912845787 0.0004386145997 0.00043448778516 0.000430542848 0.00042677217479 0.00042315461971 0.00041967651364 0.00041629413387 
0.00041282797572 0.00040949421529 0.00040612295321 0.00040268983978 0.00039918324978 0.0003955927367 0.00039192547174 0.00038818675363 0.00038438351495 
0.00038051248847 0.00037658786652 0.00037261925308 0.00036861537468 0.00036459057049 0.00036055815597 0.00035653331414 0.00035253237145 0.00034857294275 
0.00034467165577 0.00043467432917 0.00043064191373 0.00042677526223 0.00042308278508 0.00041954053967 0.00041610540094 0.00041275004957 0.00040929316039 
0.00040595073326 0.00040255238819 0.0003990824821 0.00039553336379 0.00039190133992 0.00038819523555 0.00038442371856 0.0003805856772 0.00037670274976 
0.00037276852323 0.00036879773918 0.00036480091461 0.00036078719585 0.0003567710363 0.00035276660797 0.00034878949859 0.00034485623412 0.00034098643895 
0.00043175084853 0.00042792222509 0.00042413714144 0.00042051632826 0.00041702956956 0.00041362975237 0.00041028758341 0.00040681830022 0.00040344282178 
0.00040000064327 0.00039647864589 0.00039286969245 0.00038917820871 0.00038541803901 0.00038159810596 0.00037772271212 0.0003738069527 0.00036985458248 
0.00036587600391 0.00036188101042 0.0003578773997 0.00035387712567 0.00034989449039 0.00034594366427 0.00034204066666 0.00033820380336 0.00043016320008 
0.00042642184905 0.00042271988803 0.00041915423705 0.00041571070758 0.00041233924406 0.00040898352197 0.00040548779154 0.00040206376408 0.00039855950311 
0.00039496698185 0.00039128499354 0.00038752261142 0.00038369337786 0.00037981114141 0.0003758846067 0.00037192439011 0.00036794365914 0.00036394788331 
0.00035994644521 0.00035594847918 0.00035196192928 0.00034799975316 0.00034407513029 0.00034020381886 0.00033640181728 0.00042983875133 0.0004261811272 
0.0004225482231 0.00041903515533 0.00041562043183 0.00041225317183 0.00040888404079 0.00040546507977 0.00040185235763 0.00039827472076 0.00039460146377 
0.00039083299591 0.00038698825462 0.00038308145343 0.00037912868846 0.00037513461265 0.00037112215459 0.00036709904594 0.0003630738872 0.00035905672434 
0.00035505550143 0.00035107655234 0.00034713143648 0.00034323104581 0.00033938972316 0.00033562266667 0.0004307927609 0.00042721246671 0.0004236398354 
0.00042016627723 0.00041676678678 0.00041338840285 0.00040998329809 0.00040650719256 0.0004028232864 0.00039916106492 0.00039539800058 0.0003915404522 
0.00038760609195 0.00038361019758 0.00037957619548 0.00037551042059 0.00037143378835 0.00036735765307 0.0003632973206 0.00035924819995 0.00035523252679 
0.00035125349763 0.0003473174262 0.00034343664343 0.00033962177978 0.00033588712384 0.00043302354169 0.00042939019699 0.00042598758658 0.00042254716837 
0.00041914069996 0.0004157358055 0.00041228162034 0.00040874282433 0.00040496897575 0.00040121875506 0.00039736021623 0.00039340620525 0.00038938007692 
0.00038529433894 0.00038117475854 0.00037702989954 0.00037287855591 0.00036874247405 0.00036462688965 0.00036054919377 0.00035650444871 0.00035251131601 
0.00034857633186 0.00034470612336 0.00034091128875 0.0003372046682 0.00043651710498 0.00043293806219 0.00042957100304 0.00042614125274 0.00042271856441 
0.00041927211886 0.00041575507333 0.00041213651694 0.0004082734267 0.00040442809675 0.00040047396008 0.00039642212479 0.00039230176272 0.00038812501196 
0.00038391884315 0.00037969234813 0.00037546548077 0.00037125983583 0.00036708602968 0.00036296092135 0.00035888384041 0.00035486372312 0.00035091665609 
0.00034704702967 0.00034326280667 0.00033957466565 0.00044124669076 0.00043770546362 0.00043435796433 0.00043092023757 0.00042746403633 0.00042396087728 
0.00042036818041 0.00041666197559 0.00041271012878 0.0004087598231 0.00040470788386 0.00040056029094 0.00039634568001 0.00039208189285 0.00038779085634 
0.00038348372076 0.00037918119421 0.00037490530473 0.00037066785401 0.00036648176181 0.00036236496931 0.00035830961958 0.00035433903351 0.00035045788481 
0.00034667071238 0.00034299054909 0.00044716950949 0.00044364685114 0.00044017352663 0.00043683099313 0.00043332969053 0.00042974756106 0.00042606730238 
0.00042226496901 0.00041821394836 0.00041417092258 0.00041001559112 0.00040577659334 0.00040147198037 0.00039712219187 0.00039275310994 0.00038836922057 
0.00038399674036 0.00037964965762 0.00037534803346 0.00037110283281 0.00036693171516 0.00036283666178 0.00035882885097 0.00035492229383 0.00035112069161 
0.00034743311051 0.00045421764347 0.00045068650012 0.00044718503642 0.00044379320156 0.00044022105523 0.00043655043933 0.00043277209318 0.00042886702158 
0.00042471339915 0.00042057148354 0.00041631927726 0.00041199556413 0.00040761035934 0.00040318187216 0.00039874019802 0.00039428745915 0.00038984859225 
0.00038543771147 0.00038107490729 0.00037677087207 0.00037253993463 0.00036839779201 0.00036434767432 0.00036040069881 0.00035657133343 0.00035286415568 
0.00046227975235 0.00045870946385 0.00045515026292 0.00045168447058 0.00044801939408 0.00044425221061 0.00044035785672 0.00043634540653 0.00043221222035 
0.00042785027701 0.00042351599274 0.00041910502086 0.0004146455677 0.00041014947618 0.00040564345112 0.00040113298574 0.00039663747926 0.00039217082643 
0.00038775240571 0.0003833934457 0.00037910769633 0.00037491320286 0.00037081204243 0.00036682042718 0.00036294543453 0.00035920349826 0.00047117777619 
0.00046753311853 0.00046388309559 0.00046018822433 0.00045653703804 0.00045265243427 0.00044864085386 0.00044451655603 0.00044028037878 0.00043582559183 
0.00043140957248 0.00042692673418 0.00042240479995 0.00041785523025 0.00041329696636 0.00040874060985 0.00040419945591 0.0003996902164 0.00039522335113 
0.00039081740791 0.00038648160866 0.00038223094498 0.00037808157312 0.00037403681591 0.00037011282937 0.00036631590641 0.00048064272663 0.00047688322094 
0.00047310888876 0.00046928173622 0.00046549739009 0.00046147944674 0.00045734363736 0.00045310606096 0.00044876991211 0.00044422971303 0.00043974146413 
0.0004352052312 0.00043062786144 0.00042603727436 0.00042144615243 0.0004168546755 0.00041228610054 0.00040774620068 0.00040324593954 0.00039880246075 
0.00039442481053 0.00039012749895 0.00038592649388 0.00038182627574 0.00037784369905 0.00037398945465 0.00049027680952 0.00048636154148 0.00048242971675 
0.0004784445047 0.00047450897198 0.00047034843258 0.00046609029667 0.00046173327378 0.00045730216199 0.00045268653208 0.00044813605008 0.00044355381476 
0.0004389430873 0.0004343287428 0.00042972162127 0.00042511751539 0.00042053600627 0.00041598330485 0.00041146526754 0.00040699796533 0.00040258968015 
0.00039825382192 0.000394002145 0.0003898515982 0.0003858071978 0.00038188506995 0.0004995528444 0.00049544648105 0.00049132700868 0.00048716450203 
0.00048306408089 0.0004787539196 0.00047436652488 0.00046990099227 0.00046538313536 0.00046069926359 0.00045610576276 0.00045149406287 0.00044687471856 
0.00044225138671 0.00043764895555 0.00043305476264 0.0004284790735 0.00042393203538 0.00041941617145 0.00041493895037 0.00041051423987 0.00040614992944 
0.00040185934321 0.00039765970315 0.00039355559437 0.00038955957248 0.00050783903004 0.00050351970414 0.00049919327351 0.00049483784212 0.00049043442704 
0.00048610688919 0.00048159319612 0.00047702733865 0.00047243372465 0.00046769824224 0.00046307545009 0.00045845417627 0.00045384194849 0.00044923859743 
0.00044466429326 0.00044010263795 0.00043556029684 0.00043103758061 0.0004265436104 0.00042207586652 0.00041764853969 0.00041326858434 0.00040894975274 
0.0004047079893 0.00040054944228 0.00039648583263 0.0005144844736 0.00050993794478 0.00050540311271 0.0005008523985 0.00049627767254 0.00049180556275 
0.00048717443668 0.00048251997823 0.00047786455088 0.0004730950203 0.00046846241903 0.00046385286494 0.00045927101885 0.00045471893379 0.00045019386766 
0.00044569009751 0.00044120494455 0.0004367336306 0.00043228109148 0.00042784228384 0.00042342952207 0.0004190492141 0.00041471435369 0.00041043661679 
0.00040623385943 0.00040211043684 0.00051893080274 0.00051416516494 0.00050942155732 0.00050468848054 0.00049995237068 0.00049534637181 0.0004906106837 
0.00048588710114 0.00048118123726 0.00047639579037 0.00047177371981 0.00046719869917 0.0004626727677 0.00045819284246 0.00045374987141 0.00044933220102 
0.00044493123617 0.00044053760104 0.00043614444264 0.00043175848524 0.00042737600087 0.00042301035945 0.0004186726451 0.00041437424498 0.0004101336965 
0.00040595622246 0.00052113197193 0.00051622127205 0.00051142943438 0.00050676133015 0.00050221470454 0.00049765509809 0.00049333733278 0.00048911925034 
0.00048498028724 0.0004809017088 0.00047686101809 0.00047284993718 0.00046883981553 0.00046482262464 0.00046078479256 0.00045671966986 0.00045262031111 
0.00044848433849 0.00044431395903 0.00044011342092 0.00043588963473 0.00043165157881 0.00042741093558 0.00042318234957 0.00041897373973 0.00041480145159 
0.00052054769455 0.00051564867366 0.00051087457307 0.00050623065824 0.00050171417768 0.0004973212332 0.00049290669774 0.00048871594196 0.0004846031157 
0.00048054198174 0.0004765107955 0.00047248707101 0.00046846560568 0.00046442233399 0.00046035105397 0.00045624613475 0.00045210390297 0.00044792577258 
0.00044371320775 0.00043947263443 0.0004352113141 0.00043093949443 0.00042666888737 0.00042241170101 0.00041818394153 0.00041399424644 0.00051850963064 
0.00051362980764 0.00050888754551 0.00050427921039 0.0004998068421 0.00049545947765 0.00049109043573 0.00048694637871 0.00048286596627 0.00047883246553 
0.00047481782367 0.00047079941791 0.00046677266675 0.00046271385192 0.0004586184122 0.00045448576208 0.00045031157725 0.00044609965938 0.00044185497711 
0.00043758275021 0.00043329240904 0.00042899485686 0.00042470156054 0.00042042552845 0.00041618016984 0.00041198200869 0.00051536635961 0.00051052416863 
0.0005058257794 0.00050126657031 0.00049684496784 0.00049254979881 0.0004882348783 0.00048413930355 0.00048010325934 0.00047609733475 0.00047210352558 
0.00046809469605 0.00046406066576 0.00046000107931 0.00045589137393 0.00045173695838 0.00044754014786 0.00044330400023 0.0004390343415 0.00043474001977 
0.00043042861658 0.00042611220718 0.00042180357594 0.00041751559323 0.00041326217471 0.00040905724741 0.00051156000587 0.00050677231099 0.0005021186251 
0.00049761376885 0.00049324933938 0.00048901255257 0.00048475064966 0.00048070222246 0.00047670528 0.00047273128735 0.00046875181482 0.00046475453871 
0.00046071785104 0.0004566471398 0.00045253073543 0.00044836104157 0.00044414761283 0.00043989422637 0.00043560786726 0.0004312971165 0.00042697246061 
0.00042264580364 0.00041832864096 0.00041403501035 0.00040977946191 0.00040557630644 0.00050752568478 0.0005027950102 0.00049820607841 0.0004937532595 
0.00048944697841 0.00048526532526 0.00048105518717 0.0004770473246 0.00047307942636 0.00046912546547 0.00046515940439 0.00046116455331 0.00045711897644 
0.00045303929979 0.00044891113223 0.00044472822835 0.00044050122531 0.00043623520471 0.0004319372519 0.00042761644802 0.00042328422285 0.00041895183659 
0.00041463308439 0.00041034029609 0.00040608858588 0.00040189296754 0.00050366671544 0.00049898558027 0.00049445685043 0.00049006493038 0.00048581703965 
0.00048168456305 0.00047764413021 0.00047353800011 0.00046959033796 0.00046564362229 0.00046167408269 0.00045766971627 0.00045361790199 0.00044951155435 
0.00044536601014 0.00044117340867 0.00043693193011 0.00043265492797 0.00042834774398 0.00042402102644 0.00041968573612 0.00041535317629 0.0004110365706 
0.00040675026863 0.00040250752057 0.00039832373496 0.00050028028336 0.00049566107254 0.00049119301231 0.00048686597656 0.00048266037187 0.00047856931209 
0.00047456097754 0.00047047076406 0.00046652864355 0.00046257504918 0.00045859061588 0.00045456475095 0.00045048550529 0.00044635770439 0.00044218445605 
0.00043797093039 0.00043371244463 0.00042942184633 0.00042510704044 0.00042077586353 0.00041643995645 0.00041211056538 0.00040780056226 0.00040352362029 
0.00039929456724 0.00039512702443 0.00049760752129 0.00049305733297 0.00048864165097 0.00048436748571 0.00048021421138 0.00047614760582 0.00047215389426 
0.00046806735578 0.00046411657667 0.00046014009257 0.00045612512914 0.00045206355168 0.00044794832754 0.00044378503102 0.00043957948172 0.00043532874668 
0.00043105191995 0.0004267445729 0.00042241813228 0.00041808281531 0.00041374645121 0.00040942172313 0.00040512051383 0.00040085605816 0.00039664205898 
0.00039249496536 0.00049569177008 0.00049131924343 0.00048695961899 0.00048273297396 0.00047861495284 0.00047456917346 0.00047058117993 0.00046648160403 
0.00046250301096 0.00045849153873 0.00045443524547 0.00045032453687 0.00044615963094 0.00044194997689 0.00043770087873 0.00043341421653 0.00042910348273 
0.00042477197549 0.00042042972369 0.00041608616869 0.00041174844215 0.00040742732606 0.00040313542771 0.0003988847659 0.00039468856111 0.0003905623155 
0.00049486800693 0.00049055611686 0.0004862543826 0.00048206069508 0.00047796845929 0.00047394032785 0.00046993558732 0.00046581320131 0.00046179474059 
0.0004577332244 0.00045361977381 0.00044945160259 0.0004452262952 0.00044095860664 0.00043665576352 0.00043232339285 0.0004279702431 0.00042360864542 
0.00041924407744 0.00041488596138 0.0004105434662 0.00040622412455 0.00040193979618 0.00039770195361 0.00039352415474 0.00038941933138 0.00049508295312 
0.00049082771425 0.00048656993689 0.00048240820168 0.00047833015545 0.00047429878595 0.00047028137744 0.00046611533761 0.00046204688298 0.00045792569474 
0.00045374631928 0.00044950441726 0.00044521301822 0.00044088084534 0.00043651848369 0.00043212729387 0.00042772756311 0.00042332576286 0.0004189300196 
0.00041455124595 0.00041019724099 0.00040587486424 0.00040159512143 0.00039736792136 0.0003932062963 0.00038912215997 0.00049636619163 0.00049216109253 
0.00048793962514 0.00048379863517 0.0004797240923 0.00047567805365 0.00047162798326 0.0004675412316 0.0004632873797 0.0004590963525 0.0004548424844 
0.0004505266607 0.00044616029542 0.00044175272063 0.00043732169203 0.0004328697156 0.00042841428284 0.00042396507399 0.00041953652348 0.00041512409193 
0.000410750554 0.00040641968554 0.0004021382726 0.00039791814451 0.0003937685919 0.00038970240917 0.00049872585691 0.00049444057166 0.00049036653743 
0.00048624212499 0.00048215188194 0.0004780785974 0.00047398562538 0.00046984734686 0.00046551748453 0.00046125348574 0.00045691929298 0.000452521789 
0.00044807784791 0.00044359396501 0.00043909032581 0.00043456857956 0.00043005094547 0.00042555031153 0.0004210719829 0.00041663317224 0.00041222912964 
0.0004078792243 0.00040359056461 0.00039937005258 0.00039522777235 0.00039117509001 0.00050215085669 0.00049789339424 0.00049383386017 0.00048970642616 
0.0004855943863 0.00048148176717 0.00047733442207 0.00047312886593 0.00046872416527 0.00046437992419 0.00045996467545 0.00045548327547 0.00045095845096 
0.00044639637464 0.00044181835542 0.00043722914205 0.0004326448044 0.00042808400397 0.00042355660728 0.00041907442414 0.0004146364448 0.00041026212528 
0.00040595655835 0.00040172833525 0.00039758593476 0.00039353909446 0.00050660992888 0.00050236578672 0.00049830830548 0.00049416135906 0.00049001350063 
0.00048584934579 0.00048163682546 0.00047735607831 0.00047287818464 0.00046844336002 0.00046394394521 0.00045937954715 0.00045477247887 0.00045013485187 
0.0004454830551 0.00044082406982 0.00043617464396 0.00043155363402 0.00042697037019 0.00042243600742 0.00041796741539 0.00041355631496 0.00040922631778 
0.00040498226405 0.00040082897611 0.00039677906164 0.00051205116992 0.00050780343279 0.00050360442707 0.00049954671922 0.00049535515242 0.00049112003301 
0.00048683221982 0.00048247052889 0.00047790695547 0.00047339308497 0.00046880280468 0.00046415836684 0.00045947173131 0.00045475794872 0.0004500375536 
0.00044531120423 0.00044060120807 0.0004359184402 0.00043128016142 0.00042669505397 0.0004221795098 0.00041773365606 0.00041336941358 0.00040909945914 
0.00040492788102 0.00040086349216 0.00051839224155 0.00051411859702 0.00050988122536 0.00050577235372 0.00050151539763 0.00049720272401 0.00049283061596 
0.0004883809596 0.00048372914009 0.00047912918291 0.00047445325489 0.0004697338731 0.0004649752859 0.00046019072444 0.00045540521075 0.00045061747659 
0.00044584882591 0.0004411101779 0.00043641895315 0.00043178348935 0.00042721611923 0.00042273069075 0.0004183292613 0.00041402208593 0.00040982304908 
0.0004057360235 0.00052550945484 0.00052118597548 0.00051688721958 0.00051270800267 0.00050836826112 0.00050396616464 0.00049950060107 0.00049495887761 
0.00049021904223 0.00048553260815 0.00048078447212 0.00047598572828 0.00047115959354 0.00046631317301 0.00046146846274 0.00045662815169 0.00045180825883 
0.00044701985778 0.00044227972148 0.000437596655 0.00043298215125 0.00042845216973 0.00042400696967 0.00041966120216 0.00041542065553 0.00041130069673 
0.00053322249871 0.00052882320268 0.00052443822507 0.00052016823219 0.00051572963891 0.00051123407157 0.00050666152932 0.00050202345353 0.00049731554293 
0.00049242508464 0.00048760308306 0.00048273847477 0.00047785404889 0.00047295707134 0.00046806292976 0.00046317918038 0.00045831642406 0.00045348882067 
0.00044870474296 0.00044398018333 0.00043932217202 0.00043474341979 0.00043025786995 0.00042586674997 0.00042158426349 0.00041741489961 0.0005412848587 
0.00053678038047 0.00053228597416 0.00052777439376 0.00052335041138 0.00051874181763 0.00051406334686 0.00050932777261 0.00050453182765 0.00049956488177 
0.00049467662051 0.00048976209697 0.00048482380097 0.00047988602467 0.00047495832427 0.00047003885498 0.0004651484309 0.00046029074522 0.00045547485481 
0.00045071580521 0.00044602060576 0.00044140131912 0.00043687155491 0.00043243352983 0.00042810110335 0.00042388319534 0.0005493641709 0.00054472735486 
0.0005400998829 0.00053545625484 0.00053090637196 0.00052617798452 0.0005213897877 0.00051655645056 0.00051167671642 0.0005066413243 0.00050169432837 
0.00049673439053 0.00049176105334 0.00048679623641 0.00048184852359 0.00047691193253 0.00047200450963 0.0004671310049 0.00046229594914 0.00045751315069 
0.00045278941231 0.00044813573966 0.0004435654539 0.00043908081916 0.0004346961986 0.00043042097853 0.00055705576809 0.00055226287194 0.00054748233283 
0.00054269404213 0.00053800836177 0.0005331558087 0.00052826427932 0.00052332980883 0.00051837245602 0.00051327329512 0.00050828380506 0.00050329150764 
0.00049830400832 0.00049332286777 0.00048837121373 0.00048343554154 0.00047852564644 0.0004736507506 0.00046881238048 0.00046401665445 0.00045927569387 
0.00045459528262 0.00044998629561 0.00044546326401 0.00044102779771 0.00043668998509 0.00056390621701 0.00055894407377 0.00055399776713 0.00054905352924 
0.0005440965693 0.00053925094685 0.00053425215369 0.0005292297804 0.0005242033746 0.0005190541174 0.00051403216731 0.00050902321965 0.00050403252259 
0.00049905862818 0.00049412126303 0.00048920414168 0.00048431418638 0.00047945179701 0.00047462572338 0.00046983251609 0.00046508482843 0.00046038766993 
0.00045575273983 0.000451192108 0.00044670997416 0.00044231506833 0.00056946897719 0.00056432707725 0.00055921579187 0.00055411420475 0.00054901705654 
0.00054405074118 0.00053895222123 0.00053385007427 0.00052876543154 0.00052357995615 0.00051854121507 0.000513531603 0.00050855549153 0.00050361417974 
0.00049870593879 0.00049382627165 0.00048897420411 0.00048414585457 0.00047934678489 0.00047457136468 0.0004698305713 0.00046512882579 0.00046047676175 
0.00045588288541 0.0004513626226 0.00044691713922 0.00057337153628 0.00056805593862 0.00056277745637 0.0005575289696 0.00055229881315 0.00054721959936 
0.00054202891846 0.00053686524435 0.00053173007672 0.00052652236784 0.00052148160713 0.00051648943922 0.00051154718599 0.00050665260853 0.000501798961 
0.00049697775456 0.00049218361386 0.00048740964935 0.00048265031245 0.00047791205438 0.00047319006318 0.00046849554081 0.00046383691022 0.00045922264085 
0.00045466814914 0.00045017587575 0.00057255104875 0.00056726623343 0.00056209027127 0.00055702622801 0.0005520709143 0.00054709013554 0.00054233984139 
0.00053768072249 0.00053309596011 0.00052857107901 0.00052408779932 0.00051964158935 0.0005152069253 0.00051077830173 0.00050634414558 0.00050189928906 
0.00049743759911 0.00049295732745 0.00048846000752 0.0004839490845 0.00047943009687 0.00047491032351 0.00047039954114 0.00046591037423 0.00046144867833 
0.00045702888778 0.00057281322207 0.00056752761584 0.00056235504228 0.0005572988916 0.00055235572569 0.00054752164899 0.00054265428064 0.00053800213964 
0.00053342458776 0.00052890074484 0.00052441391682 0.00051994576253 0.00051549420207 0.00051103687762 0.00050656933246 0.00050208634459 0.00049758444442 
0.00049306470578 0.00048852780655 0.00048397897676 0.00047942396023 0.00047487125206 0.00047033060535 0.00046581237954 0.0004613303739 0.00045689119766 
0.0005719795486 0.00056669817597 0.00056154081224 0.0005565013275 0.00055158115053 0.00054677019877 0.00054192484952 0.00053729625661 0.00053272939154 
0.00052821399774 0.00052372781608 0.00051925265608 0.00051478683045 0.00051030824957 0.00050581380634 0.00050130050331 0.00049676622624 0.00049221229605 
0.00048764305641 0.00048306230657 0.00047847767742 0.00047389823126 0.00046933348347 0.00046479441122 0.00046029236264 0.00045584171992 0.00057028480703 
0.00056502449778 0.00055989089852 0.00055488081841 0.00054998680393 0.00054520576168 0.0005403901434 0.00053578574986 0.00053124096051 0.00052673349154 
0.00052225154216 0.00051777255253 0.0005132887191 0.00050880165258 0.00050428489953 0.00049974744927 0.0004951867221 0.00049060586272 0.00048600916121 
0.00048140376909 0.00047679550752 0.00047219433728 0.00046761128186 0.00046305673614 0.00045854291394 0.00045408131405 0.0005680415882 0.00056281742595 
0.00055770949423 0.00055273061549 0.00054787215479 0.00054312340351 0.00053833656307 0.0005337568507 0.00052923045731 0.00052473725772 0.00052025472948 
0.00051577483538 0.00051127838816 0.00050677145546 0.00050224212967 0.00049768196273 0.00049309941405 0.00048849605724 0.00048387805232 0.00047925157644 
0.00047462619039 0.00047000959883 0.00046541328437 0.00046084862161 0.00045632740474 0.00045186220051 0.00056556495821 0.00056037824268 0.00055531397288 
0.00055036476333 0.00054554132145 0.00054082472507 0.00053606778078 0.00053150894198 0.00052699482814 0.00052250740417 0.00051802667025 0.00051353961663 
0.00050902599487 0.00050450264384 0.00049995447241 0.000495374519 0.00049077165638 0.00048614953595 0.00048151350048 0.00047687091905 0.00047223113826 
0.00046760341714 0.00046299941739 0.00045842926353 0.00045390579398 0.00044944157026 0.00056316518446 0.00055800748257 0.00055298169843 0.00054807377416 
0.00054328404709 0.00053859630717 0.00053399017738 0.00052931760576 0.0005248114065 0.00052032182319 0.00051583057169 0.00051132827488 0.00050680325397 
0.00050225201699 0.00049767711012 0.00049308126955 0.00048845738602 0.00048381732056 0.00047916486535 0.00047450894133 0.00046985865612 0.00046522332481 
0.00046061408479 0.00045604293069 0.00045152093986 0.00044706091412 0.00056107924545 0.00055596238273 0.00055097587534 0.00054610899951 0.0005413438425 
0.00053668097178 0.00053208989457 0.00052742207145 0.00052291395234 0.0005184130801 0.00051390444874 0.00050937752521 0.00050482529643 0.00050024655744 
0.00049564469942 0.00049102349766 0.00048637696127 0.00048171663084 0.00047704909754 0.00047238068312 0.00046772145131 0.00046308080156 0.00045846958871 
0.00045389928764 0.00044938234794 0.00044492983977 0.00055951697972 0.00055444752596 0.00054949199248 0.00054465740454 0.00053992619595 0.00053527040783 
0.00053068492839 0.00052601609284 0.0005214941649 0.00051697032373 0.00051243297055 0.0005078745021 0.00050328686225 0.00049867383368 0.00049403933925 
0.00048937884555 0.00048471005039 0.00048002740447 0.00047534128097 0.00047066075504 0.00046599241166 0.00046134722143 0.00045673540125 0.00045216805971 
0.00044765660388 0.00044321479329 0.00055862654769 0.00055359750246 0.00054867680059 0.00054387019504 0.00053915804034 0.00053451085778 0.00052992339603 
0.00052523720732 0.00052068929275 0.00051613628899 0.00051156058961 0.00050695886422 0.00050232694492 0.00049767184048 0.00049299642274 0.00048830056986 
0.00048359625998 0.00047888572047 0.00047417812319 0.00046948210215 0.00046480386978 0.00046015301046 0.00045554061553 0.00045097685016 0.00044647273438 
0.00044204123555 0.00055839740567 0.00055352244306 0.00054863228223 0.0005438480159 0.00053914728685 0.00053450691996 0.00052989919144 0.00052518917156 
0.00052060620504 0.00051600734094 0.00051138448165 0.00050673337741 0.00050204887192 0.00049734251963 0.00049261857877 0.00048788024333 0.00048313447138 
0.00047839211942 0.00047365872754 0.00046894231301 0.00046425160693 0.00045959371541 0.0004549790037 0.00045041752129 0.00044592085612 0.00044149954272 
0.00055912982448 0.00055428927509 0.00054943030814 0.00054465451298 0.00053995589698 0.000535306379 0.00053068301421 0.00052593197151 0.00052130552427 
0.00051665483841 0.00051197537817 0.00050726027356 0.00050251901398 0.00049775676922 0.00049298053509 0.00048818887279 0.00048339989821 0.00047862262663 
0.00047385234789 0.00046911140657 0.00046440330446 0.00045973438277 0.00045511494862 0.0004505537433 0.00044606214745 0.00044164991355 0.00056074450937 
0.00055593226774 0.00055109077895 0.00054632090499 0.00054161589225 0.00053694715189 0.00053229164361 0.00052762444107 0.00052281995283 0.00051810930445 
0.00051336576958 0.00050858725254 0.00050378123468 0.00049895311624 0.00049411672203 0.00048927143713 0.00048443210013 0.00047960672208 0.00047480863677 
0.00047003246491 0.0004653008453 0.00046061725101 0.00045598806179 0.00045142437302 0.00044693405481 0.00044252820982 0.00056325490701 0.00055834137898 
0.00055362961609 0.00054886347007 0.00054413511629 0.00053943692477 0.00053474112189 0.00053002874004 0.00052515778849 0.00052038363038 0.00051557047308 
0.00051072097427 0.00050584779419 0.00050095313714 0.00049605318962 0.00049114614904 0.00048625139408 0.00048137967166 0.00047653483236 0.00047172937824 
0.00046696951211 0.00046226279962 0.00045762018191 0.00045304744706 0.00044855535379 0.00044415145019 0.00056665213715 0.00056174652948 0.00055703366384 
0.00055225335909 0.00054749799703 0.00054276051111 0.00053801484334 0.00053324286164 0.00052830595281 0.00052346271322 0.0005185791369 0.00051365616498 
0.00050871212076 0.0005037486973 0.00049878342704 0.00049381718638 0.00048886311402 0.00048393745065 0.0004790477229 0.00047420605867 0.00046940912456 
0.00046467645871 0.00046001299593 0.00045542665294 0.00045092561127 0.0004465183673 0.00057090377909 0.00056599358103 0.00056126907046 0.00055646126417 