# vtk DataFile Version 5.1
vtk output
ASCII
DATASET STRUCTURED_POINTS
DIMENSIONS 26 26 26
SPACING 0.08 0.08 0.08
ORIGIN -1 -1 0.5
POINT_DATA 17576
FIELD FieldData 1
potential 1 17576 double
0.0020582801823 0.0020845315945 0.0021102927808 0.0021355491741 0.0021602932869 0.0021846752022 0.0022088519487 0.0022331765547 0.00225768154 
0.0022831642606 0.002309667943 0.0023374182299 0.0023665730122 0.0023972376367 0.0024294787241 0.0024633286128 0.0024987886297 0.0025358629187 
0.0025745250809 0.0026146206394 0.0026560821287 0.0026987546517 0.0027424603593 0.0027869977619 0.0028321418888 0.0028776537288 0.0020657454402 
0.0020916788355 0.0021169962178 0.0021416169231 0.0021655719596 0.0021891360451 0.0022125025641 0.0022358004672 0.0022598981482 0.002284968946 
0.0023113602262 0.0023393333697 0.0023690552699 0.0024006158026 0.002434036528 0.0024693106573 0.0025063880482 0.002545238738 0.0025856853378 
0.0026276495634 0.0026709716912 0.0027154616554 0.0027609201283 0.0028071131013 0.0028537941571 0.0029005842602 0.0020657298801 0.0020912975828 
0.0021160593127 0.0021399028695 0.0021630709721 0.0021856967579 0.0022078869529 0.0022305385748 0.0022539201705 0.0022785295037 0.0023047643809 
0.0023329162794 0.0023631505771 0.0023955355641 0.0024300579753 0.0024666592124 0.0025052813877 0.0025457344868 0.002587903205 0.0026316330452 
0.002676718845 0.002722946061 0.0027699428947 0.0028177345148 0.0028658880797 0.002914099462 0.0020607511761 0.0020858860081 0.0021099398828 
0.002133073929 0.0021551366634 0.0021768055051 0.0021982838708 0.0022200949167 0.0022428261817 0.0022670432893 0.0022931942707 0.0023215786396 
0.0023523553811 0.0023855678718 0.0024211591765 0.0024590726268 0.0024991007863 0.0025411159421 0.0025849287519 0.0026303405246 0.0026769600801 
0.0027248575154 0.0027736091454 0.0028229254314 0.0028725028104 0.0029220155779 0.0020535916874 0.0020781766266 0.0021016555934 0.0021238202213 
0.0021452413691 0.0021660432797 0.0021867010684 0.0022078355873 0.0022301132411 0.0022541439835 0.0022804000965 0.0023091801364 0.0023406229705 
0.0023747338953 0.0024114695231 0.0024506278478 0.0024920531925 0.0025356235799 0.0025808529622 0.0026278982538 0.0026763201901 0.002725840494 
0.0027761650891 0.0028269783307 0.0028779454584 0.0029287137412 0.0020468908829 0.0020710646973 0.0020937407488 0.0021154106874 0.0021360988429 
0.0021561910686 0.0021762562629 0.0021969871577 0.0022191139926 0.0022432710019 0.0022699255174 0.0022993589451 0.0023316622338 0.0023668048696 
0.002404803274 0.0024452973422 0.0024879927419 0.0025330546341 0.0025800461772 0.0026287017195 0.0026787406123 0.0027298580357 0.0027817364233 
0.0028340293058 0.0028863766132 0.0029383540991 0.0020430845918 0.0020665965268 0.0020889435189 0.0021100372195 0.002130162627 0.0021497807317 
0.0021695479612 0.0021902251951 0.002212578173 0.0022372215994 0.0022646222491 0.0022950092992 0.0023285047048 0.0023649607218 0.0024040278181 
0.0024459826656 0.0024904024276 0.0025370315794 0.0025856281496 0.0026359057704 0.0026875646349 0.0027402807487 0.0027937117782 0.0028474451545 
0.0029011831208 0.0029544361263 0.002043545345 0.0020668912854 0.0020888177875 0.0021094965833 0.0021292717246 0.0021486987232 0.0021684908103 
0.0021894966298 0.0022124800843 0.0022381060365 0.0022666249454 0.0022982992614 0.002332951598 0.0023708880698 0.0024117397234 0.0024553125232 
0.0025013622607 0.0025496562033 0.0025999208049 0.002651864639 0.0027051760877 0.0027595162476 0.0028144780666 0.0028697705658 0.0029248980908 
0.0029794885311 0.0020498424694 0.0020729143262 0.0020945660438 0.0021149951112 0.0021346713025 0.0021542142519 0.0021744226534 0.0021962374919 
0.0022202266388 0.002247042981 0.0022767875502 0.0023101116489 0.0023466716002 0.0023863707778 0.0024290214272 0.0024743887117 0.0025222346271 
0.0025723115479 0.0026243407102 0.0026780289221 0.0027330554165 0.0027890231006 0.002845664972 0.0029024878491 0.0029591267392 0.0030151048705 
0.0020624540259 0.0020853807418 0.0021069147551 0.0021273465388 0.0021472912285 0.0021672652384 0.0021882312002 0.0022110262528 0.0022363876957 
0.0022645607895 0.0022963720861 0.0023315648196 0.0023700969438 0.0024118044889 0.0024564706926 0.0025038384207 0.0025536544437 0.002605667681 
0.0026595916285 0.0027151328343 0.0027719155492 0.002829696148 0.0028880106111 0.0029465088589 0.003004724835 0.003062168536 0.0020818255314 
0.0021047489192 0.0021264547899 0.0021470943357 0.0021673802658 0.0021881129204 0.0022101573738 0.0022340961405 0.0022611548309 0.002291490688 
0.0023253500143 0.0023626873794 0.0024034225804 0.0024473555183 0.0024942325561 0.0025437979922 0.0025957684116 0.0026498858094 0.002705858904 
0.0027633344841 0.0028221041185 0.0028817229565 0.0029418896608 0.0030021468525 0.0030620373634 0.0031210710034 0.0021082515966 0.0021313206748 
0.0021531737338 0.0021742649854 0.002195284185 0.0022167769492 0.0022402269206 0.0022661566731 0.0022951782251 0.0023276914065 0.0023637845812 
0.0024034611751 0.0024465804989 0.002492903882 0.0025421707209 0.0025940949837 0.0026484014988 0.0027047964677 0.0027629250083 0.002822569567 
0.0028834202568 0.002945095074 0.0030072172832 0.0030693631148 0.0031310722923 0.0031918456021 0.0021415480005 0.0021649401683 0.0021872642906 
0.0022090652073 0.0022307844054 0.0022539123715 0.0022790504622 0.0023069532623 0.0023381946589 0.0023730163442 0.0024115423482 0.0024537038429 
0.002499336905 0.0025481798181 0.0025999662946 0.0026543963561 0.0027111787055 0.0027699471255 0.00283048199 0.002892476276 0.0029555813749 
0.0030194454471 0.0030836874447 0.0031478901029 0.0032115888072 0.0032742845672 0.0021818000501 0.0022057086752 0.0022284265847 0.0022511816398 
0.0022744794265 0.002299234387 0.0023263118368 0.0023564351504 0.0023900194349 0.0024273265847 0.0024684016392 0.0025131533271 0.0025613778284 
0.0026128269706 0.002667217929 0.002724245908 0.0027835530656 0.0028449112994 0.0029080056734 0.0029724874487 0.0030380185283 0.0031042733985 
0.0031708298853 0.0032372812344 0.0033031775412 0.0033680155738 0.0022285812477 0.0022532268907 0.0022771888895 0.0023011654542 0.0023260179404 
0.0023526529481 0.0023818919189 0.0024143868991 0.0024504800059 0.0024903725623 0.0025340763493 0.0025814556898 0.0026323182187 0.002686406662 
0.002743443856 0.0028030627703 0.0028650503213 0.0029291058542 0.0029948480149 0.0030619559967 0.0031301020256 0.0031988927144 0.0032679716961 
0.0033369051517 0.0034052320936 0.0034724522838 0.0022823603734 0.0023079586538 0.00233312003 0.0023585892021 0.0023852558057 0.0024140030157 
0.0024456174899 0.0024805984798 0.0025192954774 0.0025618291773 0.002608181919 0.0026582027373 0.0027116978823 0.0027684327041 0.0028280425134 
0.0028903486372 0.0029550419502 0.0030217873945 0.0030902488171 0.0031601066993 0.0032309851011 0.003302531 0.0033743448527 0.0034459945772 
0.0035170129623 0.0035869336027 0.002342528123 0.0023693495579 0.0023959806169 0.0024232159713 0.0024519447982 0.0024830342548 0.0025171284862 
0.0025547209859 0.0025960720428 0.002641268646 0.0026902588315 0.002742882157 0.0027989584384 0.0028581950191 0.0029204215479 0.0029853650718 
0.0030527107336 0.0031221502714 0.0031933629389 0.0032660308481 0.0033397834974 0.0034142559363 0.0034890160746 0.003563624793 0.0036376294252 
0.0037101974895 0.0024086606577 0.002436982912 0.0024653774258 0.0024946505613 0.0025256749329 0.0025592595568 0.0025959881431 0.0026362480288 
0.0026802665142 0.0027280745625 0.0027796158994 0.0028347594083 0.0028932633964 0.0029550011008 0.0030197323415 0.0030872137202 0.0031571328338 
0.0032292173375 0.0033031874574 0.0033786972504 0.0034553882462 0.0035328722313 0.0036107365958 0.0036882416145 0.0037654832105 0.003841669532 
0.0024800874649 0.0025102175654 0.0025406634408 0.0025722504339 0.0026057989751 0.0026420003367 0.0026814045916 0.0027243440677 0.002770987988 
0.0028213510755 0.0028753451533 0.0029328150931 0.002993682751 0.0030577601092 0.0031248239649 0.0031946598387 0.0032670205595 0.0033416791929 
0.0034183299888 0.0034966564441 0.0035763102113 0.0036569045185 0.0037377324252 0.0038189093485 0.0038996569673 0.0039794916085 0.0025557591076 
0.0025880270483 0.0026208159247 0.0026549497708 0.0026911571505 0.0027301148941 0.0027722389476 0.002817827476 0.0028669861576 0.0029197326709 
0.002975965137 0.0030356807533 0.0030986735764 0.003164865968 0.0032340340419 0.0033060543064 0.0033807146969 0.0034577833878 0.0035370016919 
0.003618075212 0.0037003773805 0.0037841181226 0.0038685744764 0.0039533009499 0.0040378110941 0.0041215898983 0.0026341609482 0.0026688636495 
0.0027042586126 0.0027411312842 0.0027801400635 0.0028218559906 0.0028666635794 0.0029147976647 0.0029663292654 0.0030212732151 0.0030795788995 
0.0031412326738 0.0032061373553 0.0032741411774 0.0033452088188 0.0034191741064 0.0034958902353 0.0035751706203 0.0036565120874 0.0037402055106 
0.0038256707799 0.0039125244484 0.004000371088 0.0040887537046 0.0041771961938 0.0042651871465 0.0027130782368 0.0027504342986 0.0027886618387 
0.0028283884632 0.0028702551551 0.0029147279258 0.002962113885 0.0030126256421 0.003066340864 0.0031232281791 0.0031833545897 0.003246679369 
0.0033131118947 0.0033826705068 0.0034552851421 0.0035308832362 0.0036093753337 0.003690338691 0.0037741421106 0.0038603047593 0.0039485084206 
0.0040384223592 0.0041296519251 0.004221752731 0.0043142548435 0.0044066593516 0.0027895687873 0.0028297833016 0.0028709469343 0.0029136163804 
0.0029582881119 0.0030054241349 0.0030552533932 0.0031079344007 0.0031635142514 0.003222101377 0.003283669653 0.0033482836494 0.0034159259016 
0.0034866296687 0.0035604082435 0.0036370053395 0.0037169206468 0.0037998172748 0.0038855726177 0.003973969698 0.0040647612582 0.0041576213168 
0.0042521718133 0.0043479862767 0.0044446053136 0.0045415396028 0.0028602720901 0.0029033867355 0.0029474814842 0.0029930205064 0.0030404294167 
0.0030900400722 0.0031420533031 0.0031965800582 0.003253780209 0.0033136557512 0.0033763241448 0.0034418087929 0.0035102050385 0.003581603965 
0.0036558552212 0.0037335655125 0.0038145299381 0.0038987527475 0.0039861300418 0.0040765187277 0.004169689295 0.0042653334205 0.0043630950009 
0.0044625513318 0.0045632753765 0.0046647958355 0.0029216565222 0.0029676304353 0.0030145464904 0.0030627817777 0.0031126846637 0.0031644852005 
0.0032183459067 0.0032744556296 0.0033328442754 0.0033936628973 0.0034569653448 0.0035228732754 0.0035912854902 0.0036628902358 0.0037376504878 
0.0038157494501 0.0038973455141 0.0039824875177 0.0040711639072 0.0041632621718 0.004258573987 0.0043568127187 0.0044576233029 0.004560604241 
0.0046653463178 0.0047715073735 0.0029707743527 0.0030193847761 0.0030688726015 0.0031195248316 0.0031716023069 0.0032252706676 0.0032806604872 
0.0033379042902 0.0033971530029 0.0034584503863 0.0035219324575 0.0035875237363 0.0036559513185 0.0037272566823 0.0038017614149 0.0038797807997 
0.0039615419442 0.0040472016601 0.0041368286005 0.0042303335405 0.0043275309385 0.0044281372412 0.0045318222424 0.0046382922207 0.0047468976573 
0.0048573563753 0.0022732597399 0.0023024128339 0.0023313219976 0.002359993055 0.0023884277857 0.0024167662087 0.002445131423 0.0024738176296 
0.002502782141 0.0025327430431 0.0025636788271 0.0025957717558 0.0026291583328 0.0026639360982 0.0027001706 0.0027378916607 0.0027771078671 
0.002817817383 0.0028600018939 0.0029035186798 0.0029483176172 0.0029942667236 0.0030412154187 0.0030889928705 0.0031374076381 0.0031862569112 
0.0022882294384 0.002317317168 0.002346085815 0.0023744808175 0.0024025438296 0.0024305346644 0.0024585984446 0.0024867813379 0.002515843361 
0.00254585057 0.0025770610094 0.0026096819861 0.0026438582526 0.0026796762194 0.0027171808976 0.0027563696924 0.0027972124601 0.0028396955995 
0.0028836599864 0.002929047832 0.0029757234041 0.0030235240113 0.003072280253 0.0031217931007 0.0031718509925 0.0032221149077 0.0022977862357 
0.0023267891677 0.0023553384466 0.0023833548698 0.0024110924256 0.0024386631378 0.0024661090348 0.0024942143415 0.0025231073597 0.002553145923 
0.002584619313 0.0026177567998 0.0026527043899 0.0026895401053 0.0027282755183 0.002768881793 0.0028113310951 0.0028554627164 0.00290118984 
0.0029483868358 0.0029968788829 0.0030464835325 0.0030970009245 0.0031480806726 0.0031997426508 0.0032515892379 0.0023036895874 0.0023325369391 
0.0023607666335 0.0023884987025 0.0024156193164 0.0024427738321 0.0024700791878 0.0024979166529 0.0025266999241 0.0025568286371 0.0025886278412 
0.0026223334492 0.0026580905003 0.0026959632767 0.0027359296532 0.0027779744633 0.0028219312114 0.0028677111522 0.0029151619288 0.0029641208015 
0.0030142545586 0.0030656045411 0.0031178513727 0.0031707249681 0.0032239664861 0.0032772993606 0.0023078761723 0.0023365199246 0.0023645270376 
0.0023917284149 0.0024187001326 0.002445520485 0.002472552086 0.0025002426691 0.0025290568388 0.0025594214635 0.002591682847 0.0026260806753 
0.002662749712 0.0027017246217 0.0027429708355 0.0027864417946 0.00283192545 0.0028793736215 0.0029283562226 0.002979059431 0.0030310888918 
0.0030842077869 0.0031381651537 0.0031926912023 0.0032475009474 0.0033022966759 0.0023122451314 0.0023408090067 0.0023683990094 0.0023955424492 
0.0024222593096 0.0024488677426 0.0024757948453 0.0025035309199 0.0025325848105 0.0025634030015 0.0025963339961 0.0026316132941 0.0026693402836 
0.0027095235789 0.0027522293102 0.0027971516152 0.0028440466157 0.0028931275999 0.0029440034163 0.0029964529341 0.0030502397887 0.0031051043587 
0.0031607763017 0.0032169596697 0.0032733490433 0.003329582799 0.002318716233 0.002346955861 0.0023746006946 0.0024015916785 0.0024281936295 
0.0024547711256 0.0024818083588 0.0025098390221 0.0025393981057 0.0025709198688 0.0026047686155 0.0026411466935 0.0026801992656 0.0027218267945 
0.0027657359465 0.002812257813 0.0028610204603 0.0029118156095 0.0029644472686 0.003018673988 0.0030742421732 0.0031308752335 0.0031882816373 
0.0032461036806 0.0033041041207 0.0033618963535 0.0023283870936 0.0023567983498 0.0023843995531 0.0024113791073 0.0024380360024 0.0024648001651 
0.0024921819427 0.0025207849401 0.0025511434649 0.0025837614712 0.0026188018174 0.0026565298232 0.0026968045175 0.0027399904714 0.0027857796488 
0.0028340335833 0.0028845574739 0.0029371633585 0.0029916206109 0.0030476813761 0.0031050792604 0.0031635238925 0.0032226615181 0.0032822596172 
0.0033418883866 0.0034012497482 0.0023427329867 0.0023712060798 0.0023988970665 0.002426002342 0.0024529185618 0.0024801071613 0.0025081389773 
0.0025376981314 0.0025691327638 0.002602959243 0.0026394679457 0.0026785935342 0.0027207790751 0.0027657523316 0.0028133920708 0.0028635213772 
0.0029159482189 0.0029704724779 0.0030268492762 0.0030848264977 0.0031441264978 0.003204400589 0.0032654334753 0.0033267956672 0.003388191302 
0.0034492202856 0.0023622485049 0.0023909069229 0.0024188289306 0.002446280297 0.0024737726305 0.0025016319408 0.0025305711225 0.0025611732058 
0.0025939754022 0.0026291101876 0.002667376552 0.0027085529065 0.002752664775 0.0027996253125 0.0028492901361 0.002901463359 0.0029559407139 
0.0030125116643 0.0030709252763 0.0031309235088 0.0031921696571 0.0032544649086 0.0033173987205 0.003380686596 0.0034439225002 0.0035067245701 
0.0023874384327 0.0024164158577 0.0024448407192 0.0024728087293 0.0025008977756 0.002529689172 0.0025597857979 0.0025915253243 0.0026259571181 
0.0026631567612 0.002703365005 0.00274659059 0.0027928214841 0.0028419549933 0.0028938058575 0.0029481858488 0.0030048638135 0.0030636228866 
0.0031242064032 0.0031862934504 0.0032497102116 0.0033140554993 0.0033790728726 0.0034443690361 0.0035095730328 0.0035742733035 0.0024186731601 
0.0024481070854 0.0024769818012 0.0025056719379 0.0025346964927 0.002564358933 0.0025958768659 0.0026295443682 0.0026658293964 0.0027050740867 
0.0027473854195 0.0027928301123 0.0028413514705 0.0028927988274 0.0029469913224 0.0030037126571 0.0030627435147 0.0031238346758 0.0031866658974 
0.0032510560896 0.003316722692 0.0033833240014 0.0034505261615 0.0035179792739 0.0035852872445 0.0036520487253 0.0024558121378 0.0024858659237 
0.0025154879462 0.0025451154959 0.0025749885357 0.0026063381588 0.002639505499 0.0026750410976 0.0027134036227 0.0027548061222 0.0027994078664 
0.0028472124327 0.0028981434538 0.0029520283974 0.003008681436 0.0030678753142 0.0031293772747 0.0031928709304 0.0032581761159 0.0033250199862 
0.0033930871159 0.0034620581848 0.0035316101335 0.0036013719225 0.0036709588903 0.0037399682435 0.0024989660205 0.002529809012 0.002560070695 
0.0025908339498 0.0026223789913 0.0026553529267 0.0026903746436 0.0027279923701 0.0027685370089 0.0028122655777 0.0028592725385 0.0029095448613 
0.0029629669745 0.0030193792395 0.0030785785807 0.0031403320236 0.003204344084 0.0032704390097 0.0033383461989 0.0034077569732 0.0034783691027 
0.0035498957493 0.0036219599056 0.003694212478 0.0037662785133 0.0038377512607 0.0025476996162 0.0025795244239 0.0026112334485 0.0026433492119 
0.0026764875523 0.0027112878847 0.0027483476517 0.0027881750047 0.0028310574306 0.0028772119183 0.0029267102312 0.0029794981351 0.003035470507 
0.0030944559039 0.0031562515925 0.00322056439 0.0032872418799 0.0033560384414 0.0034266239435 0.0034987166973 0.0035720308264 0.0036462313988 
0.0037209930061 0.0037959462165 0.0038707057754 0.003944868358 0.002602433689 0.002635421465 0.0026684850459 0.0027021683014 0.002737102882 
0.0027739159138 0.0028131960904 0.0028553317863 0.002900644628 0.0029492876885 0.0030013105824 0.0030566444342 0.003115179745 0.0031767622217 
0.0032411009676 0.0033080839849 0.0033774627285 0.0034489580178 0.0035222857859 0.0035971757552 0.003673300331 0.0037503557695 0.0038279968576 
0.0039058542807 0.0039835387951 0.0040606668018 0.0026624920408 0.0026968630541 0.0027314942559 0.0027669567273 0.0028038801093 0.0028428931244 
0.0028844732079 0.0029290339732 0.002976831896 0.0030279983838 0.0030825531618 0.0031404162665 0.0032014872705 0.0032655487029 0.0033324976289 
0.0034021234789 0.0034741699613 0.003548382825 0.003624493978 0.0037022374009 0.0037812978777 0.0038613456821 0.0039420676042 0.004023037358 
0.0041039045523 0.0041839396697 0.0027273627748 0.0027633326797 0.0027997563172 0.0028372039976 0.0028762940158 0.0029176222519 0.0029616229812 
0.0030086785675 0.0030589854909 0.0031126432361 0.003169668281 0.0032300063611 0.0032934901765 0.0033600606871 0.0034295390117 0.0035017390477 
0.0035764051459 0.0036533058842 0.0037322238049 0.0038128621132 0.0038949223405 0.0039780742136 0.0040619745357 0.0041459617273 0.0042302213197 
0.0043140701851 0.002796301894 0.0028341006844 0.0028725266619 0.0029121495031 0.0029535959377 0.0029973288485 0.0030438105779 0.0030933482309 
0.0031461386457 0.0032022573613 0.003261685674 0.0033243399905 0.0033902093573 0.0034591670407 0.0035310397247 0.0036056677269 0.0036828499356 
0.0037624066878 0.0038440814395 0.0039276104622 0.004012703446 0.0040990385946 0.0041859831431 0.0042737359609 0.0043616175569 0.0044492596617 
0.0028682484867 0.0029081150695 0.0029487483141 0.0029907388055 0.0030345949257 0.0030808463578 0.0031298346983 0.0031818522032 0.0032370424946 
0.0032954831406 0.0033571391504 0.0034220714171 0.003490132813 0.0035612968264 0.0036353855221 0.0037123172885 0.0037919207682 0.0038740058431 
0.0039583592472 0.0040447368284 0.0041325702841 0.0042221348614 0.0043127851082 0.0044041649649 0.0044958922242 0.0045875724583 0.0029418143164 
0.0029839349787 0.0030269599922 0.0030714237484 0.0031178085339 0.003166565544 0.0032180304718 0.0032724485088 0.0033299291393 0.0033905485966 
0.0034543154301 0.0035212711499 0.0035913670042 0.0036644927492 0.0037406475308 0.0038197006883 0.0039015348635 0.0039859992133 0.0040726309697 
0.0041617667403 0.0042528838016 0.0043456640277 0.0044397905381 0.0045349052889 0.0046306185179 0.0047265645253 0.0030151418698 0.00305965934 
0.0031051997924 0.003152198026 0.0032011395088 0.0032523991499 0.0033062551367 0.0033629379971 0.0034225673976 0.0034851654939 0.0035508503532 
0.0036196269327 0.0036914421238 0.0037663435349 0.0038442847 0.003925214014 0.0040090639635 0.0040954384192 0.0041847460578 0.004276529246 
0.0043705426339 0.0044665143152 0.0045641281016 0.004663030505 0.0047628607071 0.0048632435881 0.0030859453111 0.0031329767401 0.0031810895126 
0.0032306790724 0.0032821205729 0.0033358106334 0.0033919551856 0.0034507432407 0.0035122596447 0.0035766581044 0.0036439557276 0.0037142512401 
0.0037875558809 0.0038639076628 0.0039433435176 0.0040255949322 0.0041111868969 0.0041997929487 0.0042913166001 0.0043855790663 0.0044823840198 
0.004581469504 0.0046825347604 0.0047852445123 0.0048892444208 0.0049941676832 0.0031518111283 0.0032013593337 0.003252019393 0.0033041297122 
0.0033580245792 0.0034139902217 0.0034722226618 0.0035328557566 0.0035960861739 0.0036619542562 0.0037306111742 0.0038021035771 0.0038765371011 
0.0039540015747 0.0040343376295 0.0041181389569 0.0042051937508 0.0042955094476 0.0043889998504 0.0044855554713 0.0045849959149 0.0046870770215 
0.0047915199493 0.0048979985292 0.0050061665526 0.0051156903838 0.0032102818554 0.00326232076 0.0033154402264 0.003369939163 0.003426099048 
0.0034841251253 0.0035442161034 0.0036064775289 0.0036710650044 0.0037381514377 0.0038078060243 0.0038801614113 0.0039551124329 0.0040333242274 
0.0041147287723 0.0041994718365 0.0042876838822 0.0043794003417 0.0044746188195 0.0045732564732 0.0046751543358 0.0047800913157 0.0048877986419 
0.004997942009 0.005110236629 0.0052244398033 0.0032593904331 0.0033137447006 0.003369148918 0.0034258321048 0.0034840175355 0.0035438631216 
0.0036054979119 0.003669092664 0.003734826504 0.0038027732761 0.0038730879538 0.0039456964154 0.0040213026762 0.0040999032066 0.0041817569925 
0.0042671121333 0.0043561397825 0.0044489649177 0.0045456539197 0.0046461477261 0.0047503110271 0.0048579314484 0.0049687621285 0.0050826019941 
0.0051989010241 0.0053174820306 0.0024951342163 0.0025273298914 0.0025594376743 0.0025915626899 0.0026236789689 0.0026559132845 0.0026883595003 
0.0027212671725 0.0027545401205 0.0027888400249 0.0028240982059 0.0028604620117 0.002898046364 0.0029369374852 0.0029771955715 0.0030188482265 
0.0030619011214 0.0031063613127 0.0031522088457 0.0031993137281 0.0032476406607 0.0032970774233 0.0033474973262 0.0033987568528 0.0034506948641 
0.0035031442406 0.0025165428511 0.0025488730483 0.0025811365957 0.0026132920251 0.0026454323959 0.0026776435061 0.0027101844452 0.0027429889492 
0.0027767432812 0.0028114402549 0.0028472762663 0.002884416101 0.0029229818716 0.0029630517859 0.0030046755508 0.0030478567085 0.0030925761756 
0.0031388327378 0.0031864824228 0.0032354849505 0.0032857255799 0.0033370659698 0.0033893637363 0.003442451685 0.0034961504041 0.0035501576372 
0.0025340498842 0.0025665431907 0.0025988830757 0.0026309942255 0.002663131311 0.0026953801193 0.0027277293449 0.0027608831918 0.0027948772126 
0.0028299777943 0.0028664001739 0.0029043255086 0.0029438776089 0.0029851323275 0.0030281125745 0.0030728048166 0.0031192038998 0.0031671694087 
0.0032166371066 0.0032675074082 0.0033196314172 0.0033728555237 0.0034270112755 0.0034817784418 0.0035372262429 0.0035929854297 0.0025489242339 
0.0025815345235 0.0026138615654 0.0026460407117 0.0026779503019 0.0027102042896 0.0027428463931 0.0027761613827 0.0028104511873 0.0028460085983 
0.0028830754596 0.0029218374356 0.0029624197593 0.0030048910288 0.0030492458123 0.0030954603456 0.0031435031216 0.0031932064766 0.0032444840876 
0.0032972035813 0.003351063573 0.0034061381829 0.0034621439423 0.0035188480369 0.0035760347297 0.0036334712617 0.0025625457375 0.0025952334907 
0.002627659488 0.0026596684782 0.0026918229673 0.0027241542665 0.0027569404089 0.0027905124534 0.0028252039489 0.0028613325873 0.002899150012 
0.0029388491628 0.0029805510173 0.0030243000269 0.0030700863072 0.003117894768 0.00316756888 0.0032190310814 0.0032719501421 0.0033265254636 
0.0033823993271 0.0034393707194 0.0034972293794 0.0035557477626 0.0036146855725 0.0036737966391 0.0025762976992 0.002609193731 0.0026415278602 
0.0026738355466 0.0027061155386 0.0027386243906 0.0027716864666 0.0028056592611 0.0028409112344 0.0028777670398 0.0029164904372 0.0029572742291 
0.0030002106734 0.003045325282 0.003092663192 0.0031421082755 0.0031933009793 0.0032465436572 0.0033014828945 0.0033579358478 0.0034157047777 
0.0034745707046 0.0035343062741 0.0035946618667 0.0036553825902 0.0037161622524 0.0025916980266 0.0026245561987 0.0026572706296 0.0026897737562 
0.002722292657 0.0027551226171 0.0027886231896 0.0028231827357 0.0028591889456 0.0028969483677 0.0029367707355 0.0029788027381 0.0030231993157 
0.0030698853476 0.0031186021612 0.0031697210587 0.0032229096675 0.0032779992119 0.0033348326404 0.0033932079994 0.0034529124422 0.0035137123086 
0.0035753621407 0.0036375996969 0.0037001060229 0.0037626923688 0.0026095831338 0.0026429057298 0.0026758841049 0.0027086992059 0.0027416006887 
0.0027749244415 0.0028090370003 0.0028443925287 0.0028813749776 0.0029203752197 0.0029614906061 0.0030049642329 0.0030506724168 0.0030990070418 
0.0031497021444 0.0032026613066 0.0032577308482 0.0033147622461 0.0033735637933 0.0034339270529 0.0034956269638 0.0035584173928 0.0036219928321 
0.003686173826 0.003750589994 0.0038150091783 0.0026312874549 0.0026649548534 0.0026983219127 0.0027315646487 0.0027650132723 0.0027990148027 
0.0028339889732 0.00287046019 0.0029086266183 0.0029489065606 0.0029915406815 0.003036454983 0.0030841158711 0.0031342908773 0.0031868987158 
0.003241824352 0.0032989009592 0.0033579732324 0.0034188343281 0.003481270552 0.0035450457304 0.0036098534531 0.0036755299271 0.0037417008254 
0.0038081359219 0.0038744967882 0.0026572533976 0.0026913810186 0.0027252610319 0.0027591238135 0.0027932969736 0.0028282757018 0.0028643086399 
0.0029019171542 0.0029415019923 0.002983112881 0.003027503987 0.0030744679516 0.0031240607281 0.0031762425455 0.0032309195788 0.0032879441108 
0.0033471555252 0.0034083826981 0.0034714118974 0.0035360221948 0.0036019164734 0.0036689393568 0.0037367304338 0.0038050619448 0.0038735937624 
0.0039420193973 0.0026879832015 0.0027226930036 0.0027573383576 0.0027919636429 0.0028270424631 0.0028630091848 0.0029002981878 0.0029390878986 
0.0029803050415 0.0030239543759 0.0030702556142 0.0031192356629 0.0031709244316 0.0032252722196 0.0032821488746 0.0033414174918 0.0034028928384 
0.003466398499 0.0035317152871 0.0035985585285 0.0036667921213 0.003736058334 0.0038061492403 0.0038767297029 0.0039474965565 0.0040181171258 
0.002723864887 0.0027592811388 0.0027946168428 0.0028301771226 0.0028663596213 0.002903308643 0.0029420704704 0.0029827884481 0.0030258236439 
0.003071463238 0.0031198080693 0.0031709532365 0.0032248887132 0.0032815276168 0.0033407413781 0.003402370041 0.0034662426246 0.0035321513533 
0.0035998183301 0.003669128932 0.0037397391448 0.0038114465066 0.0038839363229 0.003956915145 0.0040300559304 0.004103038845 0.0027647800251 
0.0028010469807 0.0028373447494 0.0028740217559 0.0029111807982 0.0029498846914 0.0029903063797 0.0030328575471 0.0030779065435 0.0031256288142 
0.0031761897652 0.0032296296902 0.0032859241509 0.0033449667256 0.0034066264965 0.0034707344389 0.003537108384 0.0036054774225 0.0036757350007 
0.0037475472538 0.0038207342601 0.0038949884808 0.0039700341795 0.0040455584359 0.0041212456371 0.0041967770126 0.0028108462534 0.0028481126987 
0.0028852359042 0.0029231923018 0.0029621106582 0.0030024666832 0.0030447177033 0.0030892881004 0.003136436823 0.0031863974248 0.0032392827952 
0.0032951226739 0.003353858431 0.0034153922127 0.0034795819284 0.0035462518994 0.0036151591759 0.0036861749847 0.0037590725168 0.0038335807307 
0.0039094441238 0.0039864139941 0.0040641649118 0.0041424048442 0.0042208309207 0.0042991145036 0.0028616247628 0.0029000572585 0.0029387804542 
0.0029781932624 0.003018752485 0.0030609254631 0.0031051593649 0.0031518554754 0.0032012466226 0.0032535415591 0.0033088384181 0.0033671307653 
0.0034283716697 0.0034924507534 0.0035592268095 0.0036284625634 0.0037000583132 0.0037738174509 0.0038494523482 0.0039267331746 0.0040054104893 
0.0040851977792 0.0041658213498 0.0042469711433 0.0043283340667 0.0044095924401 0.0029175166851 0.0029572636684 0.0029974554218 0.0030384996701 
0.0030808621204 0.0031250038269 0.0031713779292 0.0032202836371 0.0032720046509 0.003326698175 0.0033844472067 0.0034452333541 0.0035090051056 
0.0035756679904 0.0036449892385 0.0037169126284 0.0037912404391 0.0038677431281 0.0039461840874 0.0040263393998 0.0041079287183 0.0041906980463 
0.0042743570494 0.0043585993488 0.0044431095611 0.0045275915493 0.0029778193696 0.0030190612484 0.0030608911465 0.0031037339349 0.0031480525225 
0.0031943193921 0.0032428923114 0.0032941154904 0.0033482216152 0.003405356597 0.0034655785441 0.0035288587979 0.0035951532653 0.0036643017301 
0.003736255603 0.0038108562763 0.0038878986152 0.0039671756829 0.0040484823887 0.0041315565519 0.0042161767872 0.0043020531527 0.0043889310002 
0.0044764510301 0.0045643408139 0.004651959101 0.0030419999356 0.0030849046929 0.0031285481736 0.0031733487672 0.0032197622143 0.0032682415069 
0.0033191196825 0.0033727262103 0.0034292479895 0.0034888064753 0.0035514591974 0.0036172022759 0.0036859222741 0.0037576375899 0.0038321439516 
0.0039093795809 0.0039891103449 0.0040711511219 0.0041553312508 0.0042414029274 0.0043291197614 0.0044182083075 0.0045083883765 0.0045990701791 
0.0046905197692 0.0047821465247 0.0031093232142 0.0031540653228 0.0031996779278 0.0032465786002 0.0032952388661 0.0033459966661 0.0033992307814 
0.003455211401 0.0035141335206 0.0035760905646 0.0036411510548 0.0037092284445 0.0037804013746 0.0038545210347 0.0039315288611 0.0040112851637 
0.0040936313157 0.0041784301292 0.0042654710072 0.0043545374614 0.0044453924172 0.0045377730042 0.0046311133132 0.004725686011 0.0048209072859 
0.0049164750605 0.0031788022985 0.0032255591369 0.0032732923455 0.0033224348211 0.0033733616623 0.0034264942029 0.0034821073662 0.0035404704794 
0.0036017352415 0.0036660104901 0.0037333527108 0.0038037098616 0.0038771360197 0.0039535920359 0.0040329393046 0.0041151317792 0.0042000361449 