# vtk DataFile Version 5.1
vtk output
ASCII
DATASET STRUCTURED_POINTS
DIMENSIONS 26 26 26
SPACING 0.08 0.08 0.08
ORIGIN -1 -1 0.5
POINT_DATA 17576
FIELD FieldData 1
potential 1 17576 double
0.0014689717869 0.0014861078368 0.0015029060297 0.0015193134068 0.0015355197572 0.0015514829812 0.0015670635574 0.0015829340716 0.0015988119495 
0.0016150522681 0.0016317651323 0.0016490970177 0.0016671649439 0.0016860661368 0.0017058787962 0.001726664841 0.0017483662629 0.0017713065233 
0.0017952056098 0.0018201479756 0.0018461004188 0.0018729698199 0.0019007174695 0.001929223204 0.0019583680858 0.0019880260911 0.0014687365146 
0.0014856374376 0.0015021303205 0.0015181367397 0.0015338150168 0.0015491219215 0.0015644947207 0.0015797370707 0.0015952335073 0.0016111516671 
0.0016276859324 0.0016450021675 0.0016632239322 0.001682439501 0.0017027067623 0.0017240608776 0.0017465197801 0.0017700764455 0.0017947241622 
0.0018204299833 0.0018471087934 0.0018747078146 0.0019031322181 0.001932257255 0.0019619621318 0.0019921117031 0.0014628988225 0.0014794429817 
0.0014954544126 0.001511029292 0.0015261082566 0.0015410860123 0.0015557467557 0.0015704802422 0.001585480067 0.0016010334522 0.0016173357233 
0.0016345775075 0.0016528766622 0.001672329043 0.0016929656383 0.0017147903895 0.0017377907347 0.0017619657241 0.0017872542873 0.0018135927987 
0.0018409341302 0.0018691568444 0.0018981746134 0.0019278401304 0.0019580245841 0.0019885415786 0.0014529931036 0.0014690959193 0.0014847063086 
0.001499874135 0.0015143526981 0.0015287418195 0.0015428598799 0.0015570418545 0.0015715724297 0.0015867683102 0.0016028530363 0.0016200095785 
0.0016383803363 0.001658038215 0.0016789699428 0.0017011776909 0.0017246565757 0.0017493498779 0.0017751625336 0.0018020815473 0.0018299821464 
0.0018587428752 0.0018882611456 0.0019183905511 0.0019489560569 0.0019798486368 0.0014408932732 0.001456663464 0.0014719231176 0.0014863899758 
0.0015006094067 0.0015143585168 0.0015279362575 0.0015416406141 0.001555800939 0.0015707249349 0.0015866605439 0.0016038145831 0.0016223073812 
0.0016421481468 0.0016633555035 0.0016859275799 0.0017098113921 0.0017349222568 0.0017612480354 0.0017886501786 0.0018170284854 0.0018462564421 
0.0018762096337 0.001906711645 0.0019376478585 0.0019688215593 0.0014286040926 0.0014440991282 0.0014587301438 0.0014730023976 0.0014866424457 
0.0014999038163 0.001513050058 0.0015264007919 0.0015403349765 0.0015551482869 0.001571087215 0.0015883782828 0.0016070331589 0.001627125782 
0.0016486470542 0.0016715714162 0.0016958564077 0.0017213723158 0.0017481136146 0.0017759406283 0.0018047392988 0.001834371199 0.0018646837889 
0.0018955471997 0.0019267749854 0.0019581810108 0.00141777904 0.0014327067018 0.001447129867 0.0014609757205 0.0014741956659 0.0014870788756 
0.0014999316995 0.0015131051901 0.001526991951 0.0015419602703 0.001558030643 0.0015755478363 0.0015945251635 0.0016149642202 0.0016368792805 
0.0016601941181 0.0016848377117 0.0017107801236 0.0017379187114 0.0017661365176 0.0017953131524 0.0018252896441 0.0018559495332 0.0018871097172 
0.0019185859213 0.0019501844336 0.0014094408725 0.0014240727384 0.0014382181272 0.0014516214044 0.0014645152158 0.001477151986 0.0014898683684 
0.0015030487057 0.0015171656175 0.0015322735866 0.0015487685438 0.0015667149919 0.0015861525394 0.0016070802005 0.0016294574433 0.0016532001141 
0.0016783057274 0.0017046771353 0.0017322157379 0.0017608129544 0.0017903359716 0.0018206530082 0.0018516142243 0.0018830367162 0.0019147330943 
0.0019466473781 0.0014043300068 0.0014188982525 0.001432657712 0.001445777364 0.0014584590864 0.0014709903954 0.0014837381518 0.0014972213159 
0.0015115703586 0.0015271299177 0.0015441761186 0.0015627045932 0.0015827552534 0.0016042924551 0.0016272224373 0.0016515526855 0.0016771713066 
0.0017040134675 0.0017319808846 0.0017609649838 0.0017908505595 0.001821489846 0.0018527355621 0.0018844054502 0.0019164483544 0.0019482358714 
0.0014032152003 0.0014175320753 0.0014310544682 0.0014439935065 0.0014565873918 0.0014691584463 0.0014822082641 0.0014959205506 0.0015107459036 
0.0015269814278 0.0015447001222 0.0015639722912 0.0015847718896 0.0016070472738 0.0016306826984 0.0016556733505 0.0016818943011 0.0017092818886 
0.0017377340462 0.00176715083 0.0017974184004 0.0018283880883 0.001859924119 0.0018919782369 0.001923948354 0.00195601805 0.0014063371038 
0.0014203755777 0.0014337427751 0.001446596222 0.0014592157145 0.0014720753869 0.0014853478947 0.0014995678656 0.0015150834568 0.0015320562428 
0.0015505890482 0.0015707124129 0.0015923772718 0.0016154591179 0.0016399435305 0.0016657047702 0.0016926294776 0.0017206554252 0.0017496685324 
0.0017795796857 0.001810272062 0.0018416508587 0.0018735053444 0.0019056428036 0.0019379627295 0.0019701999071 0.0014136944578 0.0014275964558 
0.0014408828918 0.0014537568556 0.001466638782 0.0014797012024 0.0014934572896 0.0015083466708 0.0015246289538 0.0015424508729 0.0015619031206 
0.0015829662766 0.0016055343877 0.0016295908071 0.0016549800659 0.0016815906532 0.0017093353013 0.0017380860697 0.0017677520347 0.0017982357546 
0.0018294576866 0.0018612278187 0.0018933959387 0.0019258855912 0.0019584574428 0.0019908964474 0.0014254169796 0.0014392621326 0.0014525651769 
0.0014656777429 0.0014787498448 0.0014922157202 0.0015066246878 0.0015222731312 0.0015394131082 0.0015581795159 0.0015786138859 0.001600677379 
0.0016242475136 0.0016492944036 0.001675652421 0.001703209763 0.0017318260835 0.0017613959492 0.0017918104128 0.001822982759 0.0018547619826 
0.0018869914146 0.0019196396158 0.0019524975102 0.001985377122 0.0020180750038 0.0014415271937 0.0014554004965 0.0014689423873 0.0014821954527 
0.0014956277566 0.0015096998886 0.0015248375881 0.0015413320708 0.0015594198836 0.0015791824396 0.0016006412321 0.0016236942877 0.0016483429644 
0.0016744156053 0.0017017972195 0.0017303172715 0.001759874404 0.0017903375909 0.0018215986922 0.0018535117703 0.001886063635 0.0019188053534 
0.0019519808628 0.0019852853708 0.0020185589925 0.0020515938161 0.0014620056936 0.0014761093145 0.0014897555211 0.0015033419063 0.0015173164827 
0.001532095923 0.0015480596314 0.0015654828266 0.0015845659055 0.0016053600174 0.0016278153759 0.0016519636556 0.0016776536104 0.0017047754416 
0.0017331593789 0.0017626805788 0.001793211003 0.0018246229092 0.0018567691787 0.0018896170141 0.0019227145078 0.0019562877393 0.0019900978631 
0.0020239717066 0.0020577400726 0.0020912106635 0.0014868516989 0.0015010734605 0.0015150659183 0.0015291298065 0.0015437638282 0.0015593350809 
0.0015761999179 0.0015946166141 0.0016147302797 0.0016365709714 0.0016600709188 0.0016852573944 0.0017119732607 0.001740115009 0.0017694953381 
0.001800016876 0.0018315273212 0.0018638947458 0.0018970694698 0.0019305861914 0.0019646698044 0.0019990627499 0.0020336186401 0.0020681760989 
0.0021025629334 0.0021366244788 0.001515709131 0.0015302846072 0.0015447106446 0.0015594307712 0.0015748211758 0.0015912755277 0.0016091216577 
0.0016285653936 0.0016497245293 0.0016725552077 0.0016971358691 0.0017233288196 0.0017510635387 0.0017801523619 0.0018104989844 0.0018419709257 
0.0018744461326 0.0019078631681 0.0019417298357 0.001976331456 0.0020113527566 0.0020466441381 0.0020820545297 0.0021174197204 0.0021525907886 
0.0021872793287 0.0015484425721 0.0015634697698 0.0015785458081 0.0015940108429 0.0016102717205 0.0016276928389 0.0016465679632 0.0016670589068 
0.0016892031877 0.0017131054373 0.0017386703693 0.0017658541366 0.0017944902569 0.0018244932503 0.0018557432701 0.0018881209802 0.001921603589 
0.0019556798579 0.0019906516788 0.0020262026784 0.0020621806946 0.0020984222166 0.0021347768789 0.0021710333915 0.0022070835838 0.0022427027908 
0.0015846505775 0.0016003175365 0.001616146973 0.0016324873704 0.0016497128786 0.0016681738794 0.0016881030159 0.001709644618 0.0017328065571 
0.0017576861925 0.0017842148651 0.0018122500471 0.0018417358961 0.0018725679623 0.0019046211023 0.0019378343488 0.0019719836153 0.0020070988742 
0.002042967617 0.0020794477501 0.0021163891885 0.0021536242992 0.0021909577859 0.002228275861 0.0022653549599 0.0023020398374 0.001623661825 
0.001640158162 0.0016568866636 0.001674213089 0.001692500044 0.0017120506308 0.0017330510854 0.0017555622592 0.0017797526436 0.0018055743534 
0.0018329111989 0.0018617346972 0.0018919697521 0.0019234991569 0.0019562556529 0.0019901424154 0.0020251191212 0.0020610178978 0.0020977171883 
0.0021350825423 0.0021729083468 0.0022111649526 0.0022495853652 0.0022880072208 0.0023262582777 0.0023641085012 0.0016645806564 0.0016820322766 
0.0016997946535 0.0017182163828 0.0017376236985 0.0017582741814 0.0017803327181 0.0018038287939 0.0018289200228 0.0018555602417 0.0018836378222 
0.0019131371154 0.0019439623944 0.0019760669905 0.002009404417 0.0020439406156 0.0020795481648 0.0021161244705 0.0021535085327 0.0021916860025 
0.0022304848363 0.0022696951012 0.0023091810711 0.0023487694681 0.0023882317673 0.0024273921184 0.0017059858829 0.0017245191535 0.0017434192572 
0.0017630099226 0.0017835765662 0.0018053303217 0.0018283405217 0.0018528139907 0.0018787633349 0.0019060671229 0.0019347515416 0.0019647397666 
0.0019960314188 0.0020285680866 0.0020623855168 0.002097371507 0.0021334668511 0.002170539846 0.0022086033041 0.0022475217672 0.0022871185714 
0.0023272632497 0.0023678103911 0.0024085405914 0.002449283761 0.0024898424454 0.001746029263 0.0017657472091 0.0017858628191 0.0018066631206 
0.0018283802695 0.0018511271793 0.0018751519244 0.0019004944605 0.0019270845369 0.0019549526713 0.0019839950155 0.0020143935446 0.0020461232489 
0.0020788274881 0.0021128966346 0.0021481025275 0.0021845186621 0.0022220442109 0.0022606251578 0.0023001263703 0.0023404522726 0.0023814690247 
0.0024229990201 0.0024648707432 0.0025069030524 0.0025487484886 0.0017825612588 0.0018035021791 0.0018248486648 0.001846834907 0.0018696561475 
0.0018933835482 0.0019183038417 0.001944286899 0.0019714190563 0.0019995801137 0.0020290037162 0.0020595778668 0.0020912599236 0.0021241728172 
0.002158242227 0.0021935785294 0.0022301344643 0.0022679113096 0.0023068120473 0.00234678395 0.0023877351501 0.0024295020549 0.0024719555645 
0.0025147718426 0.0025580610513 0.002601499739 0.0018133516256 0.0018354940783 0.0018580212769 0.0018811178136 0.0019048706766 0.0019295868638 
0.0019551574172 0.0019816804899 0.0020090663836 0.0020375625253 0.002067070266 0.0020975661199 0.0021291344671 0.0021618850835 0.0021958367493 
0.0022310360404 0.0022675526507 0.0023053537585 0.0023444299411 0.0023847371499 0.0024261611998 0.0024685830005 0.0025117242913 0.0025556896565 
0.0026001762045 0.0026449163895 0.001836505756 0.0018597524233 0.0018833439527 0.0019074271659 0.001932038901 0.0019574685389 0.0019835806935 
0.0020103410301 0.0020380475853 0.0020665723115 0.0020959095665 0.0021261597007 0.0021574376754 0.0021897970519 0.002223348252 0.0022582184889 
0.0022944429297 0.0023320933021 0.0023711823318 0.0024116507821 0.0024534227254 0.0024962428895 0.0025402363196 0.0025851091555 0.0026306981842 
0.0026768202902 0.0016214483761 0.0016403090036 0.0016589695317 0.0016773910024 0.0016957717615 0.0017140687684 0.001732129598 0.0017505998192 
0.0017691607726 0.0017881272156 0.001807573594 0.0018276196327 0.0018483651344 0.0018698962534 0.0018922830662 0.0019155794657 0.0019397240527 
0.0019650333498 0.0019912287003 0.0020183993328 0.0020465213007 0.002075514821 0.0021053569054 0.0021359457625 0.0021671823822 0.0021989622531 
0.0016253827171 0.0016441229362 0.0016626176342 0.0016808049361 0.001698852997 0.0017167156288 0.0017348100979 0.0017529022339 0.0017713235516 
0.0017901878861 0.0018096394509 0.0018298111771 0.0018508080891 0.0018727061343 0.0018955764306 0.0019194412904 0.0019443263111 0.0019702291969 
0.0019971501772 0.0020250659339 0.0020539040916 0.0020836266921 0.0021141541272 0.0021453873861 0.0021772200386 0.0022095418761 0.001625180767 
0.0016436931828 0.0016618619883 0.0016798040338 0.0016974698638 0.0017152484378 0.0017328973433 0.0017507540159 0.0017689439356 0.0017876829916 
0.0018071074181 0.0018273692331 0.0018485679501 0.0018707956961 0.0018940885043 0.0019184588693 0.0019439048393 0.0019704368669 0.0019980066143 
0.0020265645707 0.0020560790566 0.0020864461591 0.0021175920157 0.002149409552 0.0021817728554 0.0022145267572 0.0016218492896 0.001640051969 
0.0016579967956 0.0016757302525 0.0016930249523 0.00171047027 0.001727847584 0.0017454261997 0.0017634069239 0.0017820227963 0.0018014307479 
0.0018217739688 0.001843177853 0.0018657165707 0.0018893853772 0.0019142008528 0.0019401735797 0.0019672634665 0.0019953926092 0.0020245652169 
0.0020546805626 0.0020856210796 0.0021173209683 0.0021496511297 0.0021824611402 0.0022156684755 0.001616674412 0.0016347014333 0.0016524626506 
0.0016696995346 0.001686964982 0.0017040194414 0.001721112399 0.0017384617397 0.0017563002183 0.0017748443727 0.0017942861931 0.0018147616296 
0.001836411739 0.0018592385478 0.0018832836335 0.0019085303878 0.0019349783182 0.0019625721945 0.0019912477674 0.0020209593986 0.0020516035291 
0.0020830754579 0.002115273801 0.0021480469563 0.0021813067709 0.0022148861215 0.0016111455612 0.0016290507864 0.001646362202 0.0016636066942 
0.0016805139258 0.0016973099511 0.0017141948791 0.0017313945232 0.0017491826652 0.0017677630011 0.0017873197978 0.0018080494549 0.0018299576867 
0.0018531268731 0.0018775618857 0.0019032554059 0.001930183191 0.0019582352108 0.0019874255508 0.0020176358469 0.0020487741688 0.0020807254737 
0.0021133622064 0.0021465810299 0.0021802241268 0.0022141396816 0.0016065554692 0.0016240496711 0.0016413305234 0.0016583433964 0.0016750353489 
0.0016916534361 0.0017084258924 0.0017255982005 0.0017434540643 0.0017622748121 0.001782028542 0.0018030411281 0.0018253286382 0.0018489060573 
0.0018738044017 0.0018999645745 0.0019273327162 0.0019558954522 0.0019855694915 0.0020162578513 0.0020478626002 0.0020802485824 0.0021133253796 
0.0021469386425 0.0021809356706 0.0022151570334 0.0016037324594 0.0016210871521 0.0016382635876 0.0016550183841 0.0016715666876 0.0016881048567 
0.0017048761253 0.0017221506447 0.0017402931589 0.0017593369072 0.0017794699095 0.001800919039 0.0018236805502 0.0018477732425 0.0018731764763 
0.0018998232655 0.0019277256147 0.0019568008012 0.0019869656403 0.0020181294377 0.0020501798581 0.0020830082552 0.0021164916943 0.002150477165 
0.0021848109552 0.0022194747025 0.0016033482547 0.0016207945529 0.001637752369 0.0016543936693 0.0016708889308 0.0016874533573 0.0017043539934 
0.0017219712165 0.0017403515512 0.0017597695444 0.0017804640332 0.001802471614 0.0018258202184 0.0018505127866 0.0018764799815 0.0019037477111 
0.0019322155747 0.0019618362565 0.0019925175 0.0020241660718 0.0020566843072 0.0020899461718 0.0021238293954 0.0021581829697 0.0021929903223 
0.002227796367 0.0016061786417 0.0016235264425 0.0016404068533 0.0016570217632 0.0016735633261 0.0016902653256 0.0017075123711 0.0017253692789 
0.0017441933686 0.0017642299242 0.0017855408193 0.0018082135929 0.0018322535567 0.0018576428087 0.0018842951917 0.0019122274795 0.0019413295782 
0.0019715481593 0.0020027896563 0.0020349635876 0.0020679694134 0.0021016765982 0.0021359730667 0.0021707538599 0.0022058457252 0.0022408142153 
0.0016125023337 0.0016297210095 0.0016465971197 0.0016632642892 0.0016799402843 0.0016969965394 0.0017144825546 0.0017328178923 0.0017522679413 
0.0017729608856 0.0017949965547 0.0018184344674 0.0018432563548 0.0018693898494 0.0018968444641 0.0019255236803 0.0019553322004 0.0019862190152 
0.0020180774711 0.0020508250574 0.002084354157 0.0021185441611 0.0021533237895 0.0021885449888 0.0022237747616 0.0022591988687 0.0016223661984 
0.0016395923714 0.0016565249631 0.0016733322044 0.0016903537984 0.0017076485018 0.0017256041459 0.0017445524728 0.0017646874358 0.0017861304277 
0.0018089840873 0.0018332620522 0.0018589007229 0.0018859262011 0.0019142204856 0.0019437030052 0.0019743085262 0.0020059235566 0.0020384654288 
0.0020718451813 0.0021059870154 0.0021407129385 0.0021760255128 0.0022114610689 0.0022472262977 0.0022830118481 0.0016359296226 0.0016532372804 
0.0016703110946 0.0016874553976 0.001704724653 0.0017224305739 0.0017409991297 0.0017606309444 0.0017815255303 0.0018038068143 0.0018275363793 
0.0018527131177 0.0018792593583 0.0019071898381 0.001936377583 0.0019667462714 0.0019981802754 0.0020305939139 0.0020638905847 0.0020979915246 
0.002132752731 0.0021681645183 0.0022037915273 0.0022398626482 0.0022760816423 0.0023122872354 0.0016532311962 0.0016706925608 0.001688116513 
0.0017054780505 0.0017231387673 0.0017414323145 0.0017606677823 0.0017810545028 0.0018027909662 0.0018259591905 0.0018506074521 0.0018766746575 
0.0019042067464 0.0019330779568 0.0019632129004 0.001994476404 0.0020267964808 0.0020600651102 0.0020941900012 0.0021290408895 0.0021646106016 
0.0022004603765 0.0022368454794 0.0022734795272 0.0023102303037 0.002346929501 0.0016742483073 0.0016920498871 0.0017096684913 0.0017274158367 
0.001745624174 0.0017645812587 0.0017845626413 0.0018057759066 0.0018283975297 0.0018524890371 0.0018780326465 0.0019051017044 0.0019335900495 
0.0019634100094 0.0019944958081 0.002026693795 0.0020599280535 0.002094096653 0.0021290754401 0.0021648449852 0.0022009686471 0.0022376898128 
0.0022747762027 0.0023120743503 0.0023494410847 0.0023867211942 0.0016989401085 0.0017169595368 0.0017349913293 0.0017532413291 0.0017720856219 
0.001791769848 0.0018125570542 0.0018346542052 0.0018581955368 0.0018832293197 0.0019097231946 0.0019377462903 0.0019671850772 0.0019979776385 
0.0020299743697 0.0020631125303 0.0020972704578 0.0021323441703 0.0021683081605 0.002204718772 0.0022418194774 0.0022793696649 0.0023172403981 
0.0023552895753 0.0023933709406 0.0024313640978 0.0017269152308 0.00174536013 0.0017638646988 0.001782765352 0.0018023159347 0.0018227968695 
0.0018444576062 0.0018674676427 0.0018919457925 0.0019178719661 0.0019453614153 0.0019743181209 0.0020047127238 0.0020363962659 0.0020693076831 
0.0021033542697 0.0021384221314 0.0021744997666 0.0022111132944 0.0022485713788 0.0022865848988 0.0023250186059 0.0023637601398 0.002402653891 
0.0024415845771 0.002480300384 0.001757977267 0.0017769148804 0.0017960736727 0.0018156816743 0.0018360248984 0.0018573670461 0.0018799360418 
0.001903881163 0.0019292403145 0.0019561488096 0.0019845492305 0.002014437377 0.0020456848691 0.0020782418234 0.0021120203894 0.002146931096 
0.002182884198 0.0022196805408 0.0022573623961 0.0022957334917 0.0023346720134 0.0023740367335 0.002413706377 0.002453499292 0.0024933404023 
0.0025330444419 0.0017916762066 0.0018112554758 0.0018311329657 0.0018515394163 0.00187274516 0.0018950053555 0.0019185064087 0.0019433849656 
0.0019696639128 0.0019974724296 0.002026777494 0.0020574732631 0.0020895393533 0.0021229028865 0.0021574658407 0.0021931956559 0.0022298928687 
0.0022676120436 0.0023061659483 0.0023454386812 0.0023853078278 0.002425635362 0.002466257858 0.0025070960945 0.0025479651432 0.0025887537434 
0.0018273320086 0.0018476956154 0.0018683930657 0.0018896794443 0.0019118103288 0.0019350223967 0.0019594674846 0.001985206164 0.0020124270173 
0.0020411136777 0.0020711842764 0.0021026438071 0.0021354476792 0.0021695058954 0.0022047761177 0.0022411838919 0.0022787107723 0.0023172109594 
0.0023565864578 0.0023967278405 0.0024374575427 0.0024787766489 0.0025204527904 0.0025623620479 0.0026043752463 0.002646309558 0.0018641285271 
0.0018853461735 0.0019069557542 0.0019291889353 0.0019522872316 0.0019764525042 0.0020018278963 0.002028450849 0.0020564988582 0.0020859581208 
0.002116747468 0.0021488805058 0.0021822871854 0.0022169437488 0.0022528214582 0.0022899094681 0.0023280932265 0.0023672909856 0.0024073620298 
0.002448315235 0.0024900067391 0.0025322566944 0.0025749652756 0.0026180018338 0.0026611772938 0.0027043737667 0.0019008720665 0.0019230261088 
0.0019456000324 0.0019688245288 0.0019929110901 0.0020180285727 0.0020442345099 0.002071746049 0.0021005979777 0.0021306970795 0.0021620961615 
0.0021947428456 0.0022286576953 0.0022637990445 0.0023002168299 0.0023378117942 0.0023765378086 0.0024162779005 0.0024570645637 0.0024987775775 
0.0025412718727 0.0025844453927 0.0026281885164 0.0026723218448 0.0027167229109 0.0027612463659 0.0019361329453 0.0019592797023 0.001982867138 
0.0020071038247 0.0020321638398 0.0020581304234 0.0020852410423 0.002113552496 0.002143014165 0.0021736804105 0.0022054706526 0.0022385854541 
0.0022729161361 0.0023084130208 0.0023451785957 0.0023830858575 0.002422220396 0.0024624895462 0.0025038532042 0.0025461951084 0.0025894436491 
0.0026334943294 0.0026782042548 0.0027234421803 0.0027690717549 0.0028147999437 0.0019683635589 0.0019925175022 0.0020171193261 0.0020423413359 
0.0020683345983 0.0020951490979 0.0021230695401 0.0021519779786 0.0021819799899 0.0022129753185 0.0022452158457 0.0022786033026 0.0023131033771 
0.0023488421701 0.0023857451933 0.0024239210071 0.002463322466 0.0025039549377 0.0025457313381 0.0025886151515 0.0026325368003 0.0026773620384 
0.002722995223 0.0027692959234 0.0028159842507 0.0028632198493 0.001996016257 0.0020211582727 0.0020467314498 0.0020728788421 0.0020996552659 
0.002127294848 0.0021558657682 0.0021853032696 0.0022155923967 0.0022469972257 0.002279433509 0.0023128856594 0.0023474399743 0.0023832002362 
0.0024201757726 0.0024584006199 0.0024979358877 0.0025387449263 0.0025808247057 0.0026241448403 0.0026686129716 0.0027141383599 0.0027606156643 
0.0028077699711 0.0028557585832 0.0029042198248 0.0020178154775 0.0020438697776 0.0020703294391 0.0020973110536 0.0021248320919 0.0021531756574 
0.0021822071726 0.0022119081476 0.002242590769 0.0022741418838 0.0023065664973 0.00233996831 0.0023744561426 0.0024100680371 0.0024468917407 
0.002485029567 0.0025244960786 0.0025653517084 0.0026076014054 0.0026512238489 0.0026961398297 0.0027421321747 0.0027893601152 0.0028375681779 
0.0028866336856 0.0029364169609 0.001779078059 0.001799742816 0.0018203361257 0.0018408175917 0.001861393067 0.0018820161009 0.001902522776 
0.0019235378161 0.0019447169406 0.0019663462419 0.0019884740763 0.002011198851 0.0020346045668 0.002058765977 0.0020837444286 0.0021095870181 
0.0021362263226 0.0021639780502 0.0021925615336 0.0022220706863 0.0022524890602 0.0022837480583 0.0023158380912 0.002348673591 0.0023821734754 
0.0024162568893 0.0017864674541 0.0018071182083 0.0018276632597 0.0018480505299 0.0018685284182 0.0018888149126 0.0019095392916 0.0019303626573 
0.0019515811646 0.0019732708308 0.0019955422431 0.0020185026366 0.0020422402868 0.0020668196881 0.0020923122562 0.0021187344584 0.0021461139755 
0.0021744515143 0.002203752577 0.0022340016401 0.0022651371088 0.0022971337629 0.0023299268086 0.0023634364335 0.0023975734796 0.00243224935 
0.0017907897926 0.0018113254172 0.0018316795116 0.0018519757269 0.0018721680673 0.0018926358949 0.0019131139197 0.0019339025841 0.0019550820761 
0.0019768216619 0.0019992175051 0.0020223926336 0.0020464294489 0.0020714125648 0.0020973779685 0.0021243399132 0.0021523045159 0.0021812887265 
0.0022112519488 0.0022421594071 0.0022739911096 0.0023066585257 0.002340104806 0.0023742415436 0.0024089641422 0.0024441396808 0.0017927120224 
0.0018130621235 0.0018333335985 0.0018535837132 0.0018735848584 0.0018939156685 0.0019143244629 0.0019350356224 0.001956196118 0.001977985002 
0.0020005144026 0.0020238974153 0.0020482428909 0.0020736205164 0.0021000270291 0.0021274981344 0.0021560219651 0.0021856008746 0.0022161599445 
0.0022477171235 0.0022801877895 0.0023134712082 0.002347520908 0.0023822272337 0.0024174647447 0.0024531732755 0.0017931344298 0.0018134378323 
0.0018336733091 0.0018535928492 0.0018737464847 0.0018938757862 0.0019141928795 0.0019348609832 0.0019560407756 0.0019779218183 0.0020006188196 
0.0020242480648 0.0020489374965 0.0020746864727 0.0021015420539 0.002129497437 0.0021585688676 0.00218869999 0.0022198571293 0.0022520049623 
0.0022850584019 0.0023189306898 0.0023535418918 0.0023887631345 0.0024245289934 0.0024607008595 0.0017931880649 0.0018135016829 0.0018334365038 
0.0018535268369 0.0018734960921 0.0018935442458 0.0019138251224 0.0019345027969 0.0019557840732 0.0019778127016 0.0020007287359 0.0020247027473 
0.0020497303937 0.002075895074 0.0021032067219 0.0021316775073 0.0021612881683 0.0021919464571 0.002223681781 0.0022563935096 0.0022900081026 
0.0023244308602 0.0023595563812 0.0023953051347 0.002431545917 0.0024681560496 0.0017938853864 0.0018140767374 0.0018339720119 0.0018539894619 
0.0018739025247 0.0018939302175 0.0019142423495 0.0019350179434 0.0019564705801 0.0019787229905 0.0020020047643 0.002026320664 0.0020517825044 
0.0020784106128 0.002106245217 0.0021352405962 0.0021653562893 0.0021965931081 0.0022288834937 0.0022621476435 0.0022963064913 0.0023312458781 
0.0023668981769 0.0024031333774 0.0024398306783 0.0024768586661 0.0017958711307 0.0018158995255 0.0018359876813 0.0018558923324 0.0018758080321 
0.0018958893828 0.0019163125426 0.0019372794408 0.0019590835215 0.0019817040793 0.0020052965525 0.0020300737506 0.0020560368898 0.0020832112659 
0.0021115904547 0.0021411212763 0.0021718288627 0.0022036442847 0.0022364989165 0.0022703180809 0.0023050077756 0.0023404797383 0.0023766345498 
0.0024133456892 0.002450489276 0.0024880801476 0.0017997174886 0.0018199664641 0.0018399712598 0.001859896936 0.0018798850812 0.0019000988584 
0.0019207354248 0.0019421012436 0.0019641710527 0.001987175528 0.002011327986 0.0020366598442 0.0020632073124 0.002090988118 0.0021199834781 
0.0021501329339 0.0021814515528 0.0022138709809 0.0022473120976 0.0022816961371 0.0023169421647 0.0023529429711 0.0023896002531 0.0024267895343 
0.0024644401478 0.0025023870579 0.0018061606646 0.0018264366329 0.0018464906838 0.0018665106317 0.0018866463788 0.0019070854487 0.001928121792 
0.001949750018 0.0019722632893 0.0019958694192 0.0020206083298 0.002046575369 0.0020737885422 0.0021022497748 0.0021318934271 0.0021627536844 
0.0021947357619 0.002227798993 0.0022618619328 0.0022968464662 0.0023326669058 0.0023692106966 0.0024063876811 0.0024441190714 0.002482263629 
0.0025204235038 0.0018154750973 0.0018357416364 0.001855908746 0.0018760880636 0.0018964494321 0.0019172959737 0.0019385987853 0.0019607029186 
0.0019838169966 0.0020080370823 0.0020334544102 0.002060137796 0.0020880890153 0.0021172600067 0.0021476837343 0.0021792846261 0.0022119844885 
0.0022457459504 0.0022804741632 0.0023160979566 0.002352522672 0.0023896439857 0.0024274103329 0.0024656997915 0.0025041104924 0.0025428652238 
0.0018277129966 0.0018481052359 0.0018684355404 0.0018888457624 0.0019096193057 0.0019307406401 0.0019525175006 0.0019752110449 0.0019989661864 
0.0020238798977 0.0020500536341 0.0020775162899 0.0021062260546 0.0021362437339 0.0021674707993 0.0021998528419 0.0022333441673 0.0022678452507 
0.0023032907428 0.0023395976495 0.002376674845 0.0024144504418 0.002452852181 0.0024914719295 0.0025305463862 0.0025698035671 0.0018430609007 
0.001863634065 0.0018841998354 0.0019050216534 0.0019260900436 0.0019476379819 0.0019700121433 0.0019933485657 0.0020178055666 0.0020434910571 
0.0020704717475 0.0020987660421 0.0021283214727 0.0021591890604 0.0021912641629 0.0022244988114 0.0022587990644 0.0022940974882 0.0023303115683 
0.0023673531967 0.0024051596311 0.0024436648211 0.0024824742854 0.0025218392823 0.0025614919471 0.0026013082726 0.0018615470923 0.0018823682279 
0.0019033638786 0.0019244606535 0.0019459480807 0.0019680794481 0.00199108781 0.0020151251313 0.0020403573575 0.0020668572286 0.0020946844178 
0.0021238006603 0.0021542805337 0.0021860296856 0.0022190028734 0.0022530922395 0.0022882498287 0.0023243881108 0.0023614161083 0.0023992648401 
0.0024378965299 0.0024768990988 0.0025165462772 0.0025565719178 0.002596873175 0.0026373142011 0.0018831501187 0.0019043931226 0.0019256479974 
0.0019471679309 0.0019692111014 0.0019919835332 0.0020156904395 0.0020404900194 0.0020665343933 0.0020938834375 0.0021225345779 0.0021525858147 
0.0021839612584 0.0022166041566 0.0022504805104 0.0022854631598 0.0023215019573 0.0023585092588 0.0023964024011 0.0024351620388 0.0024743692304 
0.0025142852789 0.0025546959005 0.0025954684946 0.0026364875244 0.0026776319315 0.001907815578 0.0019293419984 0.0019510547999 0.0019730958617 
0.0019957627205 0.0020192226787 0.0020436757739 0.0020692874449 0.002096175937 0.0021243937216 0.0021539270179 0.0021848709079 0.0022171421512 
0.0022507097347 0.0022854530754 0.0023213384413 0.0023582683323 0.0023961634989 0.0024350192538 0.0024744122523 0.0025146045726 0.0025553743461 
0.0025966125113 0.0026381996786 0.0026800169815 0.0027219778153 0.0019351336861 0.0019571309785 0.0019793397816 0.0020020272249 0.0020253683949 
0.00204957016 0.0020748259268 0.002101273948 0.0021290234334 0.0021580638033 0.0021885304128 0.0022203544041 0.0022535357387 0.0022879548019 
0.0023235788522 0.0023603415427 0.002398154999 0.002437030755 0.0024765397944 0.0025169473536 0.0025580497489 0.0025997130406 0.0026418470579 
0.0026843212647 0.0027270506729 0.0027698135765 0.0019648927395 0.0019874039452 0.0020102649455 0.0020336318184 0.0020577136178 0.0020827068767 
0.0021087923994 0.0021360959762 0.0021646531863 0.0021946114847 0.0022259356462 0.0022586479728 0.0022926477977 0.0023279121097 0.0023643814428 
0.0024019889274 0.0024406698996 0.0024802482865 0.0025207889621 0.0025621186504 0.0026041388166 0.0026467324829 0.0026898039737 0.0027331996557 
0.0027768759158 0.0028206822296 0.0019966465341 0.002019791744 0.0020433414844 0.0020674547104 0.002092326687 0.0021181553705 0.0021450881983 
0.0021732459222 0.0022026533773 0.0022334521721 0.0022656434931 0.0022991332226 0.0023339308147 0.0023699903235 0.0024072352948 0.0024456568161 
0.0024850773398 0.0025255726647 0.0025669789831 0.0026092023699 0.0026521451059 0.0026956952343 0.0027397174845 0.0027841631965 0.0028288844214 
0.0028737973108 0.0020297605724 0.0020536500117 0.0020779617597 0.0021028748726 0.0021285821967 0.002155269628 0.0021830585067 0.0022120007493 