# vtk DataFile Version 5.1
vtk output
ASCII
DATASET STRUCTURED_POINTS
DIMENSIONS 26 26 26
SPACING 0.08 0.08 0.08
ORIGIN -1 -1 0.5
POINT_DATA 17576
FIELD FieldData 1
potential 1 17576 double
0.0065504229948 0.0066225057656 0.006690556992 0.006754781542 0.0068156289346 0.0068738614912 0.0069305009717 0.0069867656953 0.0070438640887 
0.007102861492 0.0071644338813 0.0072288553442 0.0072960173192 0.0073655426897 0.0074369003415 0.0075095751116 0.0075828258668 0.0076561773468 
0.0077290928108 0.0078010688873 0.0078716113997 0.0079402379589 0.0080064883665 0.0080699214708 0.0081301190138 0.0081867019101 0.0066513642624 
0.0067227338116 0.0067892755 0.0068512380226 0.0069092163489 0.0069642100127 0.0070175619268 0.0070709808085 0.0071259361572 0.0071839095182 
0.007245809203 0.0073119703649 0.0073822161358 0.0074560072353 0.0075325930508 0.0076111534914 0.0076908646121 0.0077709425769 0.0078506586336 
0.0079293300012 0.0080063129909 0.0080810062547 0.0081528524973 0.0082213259728 0.0082859491932 0.0083462863664 0.0067368377844 0.006807337997 
0.0068720259389 0.0069313153304 0.0069859847108 0.0070372614844 0.0070868626766 0.007136886624 0.0071894275437 0.0072462665718 0.0073085195024 
0.0073765605113 0.007450105045 0.0075284142495 0.0076104956223 0.007695279111 0.0077816860141 0.0078687178112 0.0079554364494 0.0080409850318 
0.0081245754791 0.0082054849449 0.0082830563078 0.0083566719252 0.0084257831101 0.0084896367272 0.0068163967962 0.0068856435133 0.0069482648862 
0.0070046814234 0.0070557982452 0.0071031652724 0.0071489178378 0.0071956065187 0.0072458176046 0.0073016914664 0.0073645469254 0.0074347622058 
0.0075119252976 0.0075950811086 0.0076829809326 0.0077742856095 0.0078676842477 0.0079619361982 0.0080559042484 0.008148561599 0.0082387203717 
0.008326026236 0.0084094686802 0.0084883507665 0.0085620469252 0.0086299955686 0.006900448226 0.0069685209716 0.007029075464 0.007082605849 
0.0071302594131 0.0071738885794 0.0072160536278 0.0072597998573 0.0073081532247 0.0073635658272 0.0074275027741 0.0075003340234 0.0075815158721 
0.0076698829356 0.0077639386726 0.0078620950629 0.0079625350343 0.0080643042599 0.0081658066337 0.0082658294737 0.0083632927295 0.0084572196242 
0.0085467323023 0.0086310418732 0.0087094431462 0.008781307234 0.0069992291401 0.0070662827283 0.0071249358721 0.0071758605514 0.0072204266192 
0.0072608490405 0.0073001332238 0.0073417521633 0.0073890965363 0.0074448487585 0.0075105551172 0.0075865607349 0.0076721954297 0.0077658803656 
0.0078664163275 0.0079717094373 0.0080799862815 0.008189542345 0.0082988465523 0.0084065101135 0.0085112917861 0.0086120774561 0.0087078762897 
0.0087977962046 0.0088810471543 0.0089569486629 0.0071211752459 0.0071874690337 0.0072446200805 0.0072934445607 0.0073356137537 0.0073737133499 
0.007411173503 0.0074518365615 0.0074993406744 0.0075562272697 0.0076245383959 0.0077043373265 0.0077948868652 0.0078946957314 0.0080019413674 
0.0081145894578 0.0082306487785 0.0083482253393 0.0084655778745 0.0085811339926 0.0086934855345 0.0088013736271 0.0089036797956 0.0089994301873 
0.0090876901069 0.0091677235572 0.0072724273734 0.0073384408609 0.007394650205 0.0074421118319 0.0074828174395 0.0075197584076 0.0075564993731 
0.0075976200084 0.0076466446115 0.0077063609693 0.007778233592 0.0078625090253 0.0079583849853 0.0080643437605 0.0081784395731 0.0082985444877 
0.008422495479 0.0085482197306 0.0086737849179 0.0087974258812 0.0089175603272 0.0090327714465 0.0091418261025 0.0092435536846 0.0093370106619 
0.0094212812016 0.0074570977911 0.0075234070079 0.0075794124787 0.0076262024936 0.0076665979892 0.0077037409169 0.0077417456004 0.0077848821829 
0.0078369006843 0.0079004434614 0.0079768911885 0.0080663600201 0.0081680249992 0.0082803551697 0.0084013941502 0.0085289506839 0.0086607755028 
0.0087946493785 0.0089284719299 0.0090602994719 0.0091883594113 0.0093110919106 0.0094270362006 0.0095349633309 0.0096337286957 0.0097223866884 
0.0076773189607 0.0077446409618 0.0078013178941 0.0078489872632 0.0078903975905 0.0079292398897 0.0079698858036 0.0080166447076 0.0080731351372 
0.008141814928 0.0082238473716 0.0083192640817 0.0084271975831 0.008546142705 0.0086741715044 0.0088091072994 0.0089486710488 0.0090905680177 
0.0092325631686 0.0093725501886 0.0095086021738 0.0096388897833 0.0097618746687 0.0098760940426 0.0099803239147 0.010073470969 0.0079348177918 
0.008003982669 0.0080623489283 0.0081118632096 0.0081556485398 0.0081977520913 0.0082426561289 0.0082946243325 0.0083570313976 0.0084320680871 
0.0085206946752 0.0086228196096 0.0087375433459 0.0088633786664 0.0089984680968 0.0091407030039 0.0092878208702 0.0094375149097 0.0095874748954 
0.0097354921621 0.0098793940084 0.010017265449 0.01014729001 0.010267890902 0.010377658233 0.010475363928 0.0082297210592 0.0083016560404 
0.0083627765182 0.008415426176 0.0084630719627 0.0085100130125 0.0085607644349 0.0086194232146 0.008689091488 0.0087716518513 0.0088678368996 
0.0089774208315 0.0090994660351 0.0092325318578 0.0093748200506 0.00952430635 0.0096788097123 0.0098360437353 0.0099937027673 0.010149439912 
0.010301003581 0.010446271803 0.010583277993 0.010710230092 0.010825536306 0.010927808283 0.0085617895292 0.0086375121102 0.0087025877473 
0.0087597259422 0.0088127257065 0.0088660254089 0.0089241240551 0.0089908618858 0.0090690076717 0.009160140084 0.0092647609058 0.0093825174104 
0.0095124398868 0.0096531070464 0.0098028072636 0.0099596014767 0.010121381682 0.010285957968 0.010450986818 0.01061410788 0.010773016852 
0.010925439434 0.011069221301 0.011202379722 0.011323122391 0.011429879367 0.0089304483115 0.0090110600214 0.0090813546066 0.0091443707815 
0.0092041766965 0.0092653203697 0.0093321446381 0.0094081882128 0.0094958747189 0.0095964806626 0.0097102985306 0.0098368704058 0.0099751967783 
0.010123887568 0.010281286112 0.01044552837 0.010614623328 0.01078638582 0.010958532582 0.011128747958 0.011294647648 0.011453986302 
0.011604233321 0.011743327453 0.011869282638 0.011980244152 0.0093347667765 0.0094214456247 0.0094982395304 0.0095685395111 0.0096366000693 
0.0097069532136 0.0097837286323 0.0098701274899 0.0099682307938 0.010079042752 0.010202683475 0.01033861197 0.010485816279 0.010642936764 
0.010808371006 0.010980347062 0.011156864273 0.011335933439 0.011515118314 0.011692206486 0.011864718117 0.012030374056 0.012186694654 
0.0123313498 0.012462161727 0.012577168504 0.0097734178778 0.0098674084462 0.0099520660209 0.01003104303 0.010108710571 0.010189500843 
0.010277262404 0.010374857369 0.010484045579 0.01060560147 0.010739521232 0.010885217521 0.011041687913 0.011207728461 0.011381587851 
0.011561585959 0.011745793762 0.011932076945 0.012118373831 0.012302286687 0.01248139257 0.012653195575 0.01281521234 0.012964996218 
0.013100203809 0.013218716368 0.010244639722 0.010347259391 0.010441146206 0.010530144747 0.010618656565 0.010710924596 0.010810492198 
0.010919878056 0.011040574856 0.01117319043 0.011317757383 0.01147346995 0.011639479087 0.011814554609 0.011997082733 0.012185480899 
0.012377787447 0.012571913824 0.012765622434 0.012956543938 0.013142191211 0.013319590113 0.01348703858 0.013641542409 0.013780645812 
0.013902047331 0.010745973559 0.010858573522 0.010963046851 0.011063340692 0.011163771003 0.011268337237 0.011380367522 0.011501860922 
0.011634208076 0.011777932415 0.011932945255 0.012098662356 0.012274358296 0.012458757733 0.012650421198 0.012847245237 0.013048168684 
0.013250601175 0.013452235255 0.013650592789 0.013843087559 0.014027062014 0.014199840441 0.0143587601 0.014501281193 0.014624986384 
0.011273955657 0.011397900984 0.011514248271 0.011627061353 0.011740260213 0.011857664323 0.011982169036 0.012115759092 0.012259539446 
0.012413693812 0.012579003843 0.012754689552 0.012939968871 0.0131338228 0.013334858976 0.013541426958 0.013751566375 0.013963034367 
0.01417335683 0.014379880241 0.014579831563 0.014770376493 0.014948663877 0.015111936922 0.015257830735 0.01538321453 0.011823578021 
0.011960285437 0.012089679498 0.012215708099 0.012342242758 0.012472268294 0.01260916739 0.012754451199 0.012909200793 0.013074010044 
0.013249081229 0.013434197969 0.013628821814 0.01383209365 0.014042759851 0.014259511761 0.014479634072 0.014701070139 0.014921114253 
0.015136844887 0.015345189561 0.015543073469 0.015727407228 0.015895214622 0.016043684736 0.016170224012 0.012387974525 0.01253816553 
0.012681521278 0.012821427024 0.012961405772 0.013104615069 0.013253422504 0.013409575235 0.013574622438 0.013748682317 0.013932562979 
0.014126355022 0.014329839013 0.014542392794 0.014762925228 0.014989794312 0.015220850167 0.015453455435 0.015684570164 0.015910916886 
0.016129018904 0.016335398116 0.016526640044 0.016699704368 0.016851170464 0.016978530638 0.012957078459 0.013122148574 0.013279992142 
0.013434270291 0.013587480947 0.01374275456 0.013902336378 0.014068066695 0.014241268373 0.014423115505 0.014614434423 0.014815814116 
0.015027445521 0.01524904273 0.015479688611 0.015717767655 0.015960978854 0.016206278372 0.016450475325 0.016689311743 0.01691897003 
0.017135451447 0.017334889119 0.017513666506 0.017668516316 0.017796558627 0.013519527052 0.01369966229 0.013872090537 0.014039663834 
0.014205162037 0.014371246733 0.014540022538 0.014713415589 0.014893184864 0.015080833382 0.015277861786 0.01548542803 0.01570429424 
0.015934616528 0.016175921569 0.016426229609 0.016683182015 0.016943328392 0.017202551149 0.017456299645 0.017699855873 0.017928532586 
0.018137880875 0.018323823962 0.018482738666 0.018611526578 0.014060443198 0.014255433476 0.014441823305 0.014622023318 0.01479837869 
0.014973347102 0.015149115336 0.015327862386 0.01551171156 0.015702858667 0.015903488226 0.016115734382 0.016340800825 0.01657960331 
0.016831805705 0.017095848198 0.017368788953 0.017646520819 0.017924045772 0.018195864344 0.018456311401 0.018699850349 0.018921316947 
0.019116048324 0.019280010364 0.019409822319 0.014566298048 0.014775370922 0.014974481803 0.015165571804 0.015350764113 0.015532264776 
0.015712417139 0.015893673832 0.016078914151 0.016270838067 0.016472696737 0.016687506711 0.016917780433 0.017165107821 0.017429598397 
0.017709612638 0.018001685325 0.018300764772 0.018600673316 0.018894643249 0.019175804346 0.019437568965 0.019673899185 0.019879804721 
0.020050060987 0.020181312428 0.015026434071 0.015248119131 0.015458155142 0.015658019709 0.015849528129 0.016034926369 0.016216480727 
0.016397188034 0.016580500491 0.016770354335 0.016971069826 0.017186979209 0.01742193915 0.017678551599 0.017957476711 0.018256940631 
0.018572657213 0.018898556 0.019226215799 0.01954755328 0.019854201322 0.020138313341 0.020392843984 0.020611688751 0.020789769019 
0.02092303214 0.0072508930939 0.0073321728442 0.0074100940278 0.0074848683318 0.0075568883299 0.0076267726531 0.0076953020367 0.0077633733195 
0.007831846514 0.0079014877996 0.0079727878379 0.008045969861 0.0081209858783 0.0081975772664 0.0082753461576 0.0083538174814 0.0084325624873 
0.0085109427018 0.0085885405335 0.0086648893398 0.0087395294653 0.0088120133774 0.0088819165173 0.0089488337464 0.0090123825674 0.0090722189209 
0.0073912493651 0.0074730269154 0.0075508632267 0.0076250258698 0.0076960438333 0.0077647292336 0.0078320952896 0.0078993979237 0.0079676130251 
0.0080377990242 0.0081106087013 0.008186320917 0.0082648585767 0.008345863515 0.0084287977173 0.0085130151409 0.0085978414799 0.0086826036471 
0.0087666556039 0.0088493783561 0.0089301804311 0.0090085059502 0.0090838388369 0.0091556934935 0.009223629211 0.0092872473793 0.0075232903765 
0.0076055570835 0.0076831436191 0.0077564969527 0.0078263182892 0.0078935947295 0.0079596072187 0.0080258463622 0.0080937397804 0.0081645066411 
0.0082389398213 0.0083173626113 0.0083996481303 0.0084853224721 0.0085736794916 0.0086639058595 0.0087551308191 0.0088465146412 0.008937237842 
0.0090265324915 0.0091136793855 0.0091980115348 0.0092789142229 0.0093558290635 0.0094282317401 0.0094954148211 0.0076538737089 0.0077363783813 
0.0078136654252 0.0078861874129 0.0079547598634 0.0080206259744 0.0080853593061 0.008150731348 0.0082184815813 0.0082900522033 0.0083663785375 
0.0084478052701 0.0085341441108 0.0086247951567 0.008718881969 0.0088154000104 0.0089133082331 0.0090115730182 0.0091092105679 0.0092053073674 
0.0092990189447 0.0093892826758 0.0094759162952 0.0095580125216 0.0096349899193 0.0097063302232 0.0077904120466 0.0078733582597 0.0079504603378 
0.0080222640754 0.0080897901522 0.008154499816 0.0082182514431 0.0082831367839 0.0083511698117 0.0084239914968 0.0085026422163 0.0085874851354 
0.008678259026 0.0087742351095 0.0088743780223 0.0089774978098 0.0090821239691 0.0091875494671 0.0092923704581 0.009395511491 0.0094959949249 
0.0095929211876 0.0096854738905 0.0097729165421 0.0098545921723 0.0099299195972 0.0079405385421 0.0080241676747 0.0081013418425 0.0081727745179 
0.0082396564231 0.0083037061787 0.0083670782092 0.0084321322991 0.0085011199972 0.008575843802 0.0086574130046 0.0087461847636 0.0088418238056 
0.0089432476729 0.0090497789012 0.0091598017549 0.009271935003 0.0093847800005 0.0094970335889 0.0096074739549 0.0097149814612 0.009818532306 
0.009917205804 0.010010168388 0.010096682746 0.01017612265 0.0081109214312 0.0081955602903 0.0082732543365 0.0083448301028 0.0084117060488 
0.0084758437892 0.0085396747658 0.0086057986949 0.0086766413795 0.0087538502738 0.0088390459419 0.0089323293009 0.0090333221151 0.0091410575537 
0.0092542769684 0.0093714703884 0.0094910918335 0.0096116022855 0.0097315320942 0.0098495092027 0.009964272358 0.010074669979 0.010179665822 
0.010278352945 0.010369856493 0.010453478631 0.0083068249568 0.0083929982969 0.0084717877151 0.0085442075846 0.0086118920498 0.0086770729038 
0.0087421776272 0.0088104542769 0.0088842013155 0.0089653514854 0.0090549937098 0.0091534404167 0.0092602515822 0.0093744307549 0.0094946015263 
0.0096191813888 0.0097464886784 0.0098748501802 0.010002649467 0.010128362409 0.010250585235 0.010368032917 0.010479572283 0.01058411214 
0.010680778204 0.010768721881 0.0085321663165 0.0086204776705 0.0087010880484 0.0087749669928 0.0088444535693 0.0089117858597 0.008979825254 
0.0090514914515 0.009129279207 0.009215130637 0.0093100910159 0.0094143984259 0.0095275541716 0.0096485303073 0.0097759134565 0.0099080478924 
0.01004317338 0.010179508359 0.010315301592 0.01044889574 0.010578737323 0.010703440971 0.010821642919 0.010932241355 0.011034166137 
0.011126548989 0.0087892905397 0.0088804687215 0.0089637416953 0.0090405259946 0.0091129508546 0.0091836611984 0.0092556880795 0.009331976764 
0.0094150486653 0.0095067023233 0.0096078860379 0.0097187593074 0.009838797201 0.0099669472876 0.01010177653 0.010241605309 0.010384628767 
0.010528988369 0.010672832649 0.010814379361 0.010951964604 0.011083966198 0.011209006476 0.011325750892 0.011433077018 0.011529994242 
0.0090803032463 0.0091751772492 0.0092620867143 0.0093426197114 0.0094191389263 0.009494518111 0.0095718495756 0.0096540849421 0.0097436228844 
0.0098421271148 0.0099504327116 0.010068618716 0.010196097657 0.010331814586 0.010474338836 0.010622004363 0.010772980951 0.010925376845 
0.011077270197 0.011226802208 0.011372103901 0.011511513691 0.011643419446 0.011766410335 0.011879217418 0.011980730369 0.0094057811688 
0.0095052637734 0.0095967883944 0.0096822214075 0.0097641101104 0.0098454758957 0.0099294355792 0.010018863288 0.010116032257 0.0102224275 
0.010338747747 0.010464966062 0.010600466259 0.010744179277 0.010894687105 0.011050346685 0.011209351991 0.011369789164 0.011529713826 
0.011687150464 0.011840159715 0.011986920602 0.012125718232 0.012254979078 0.012373288612 0.012479416199 0.0097658302535 0.0098709126485 
0.0099681768115 0.010059711204 0.010148253667 0.010236891703 0.010328758141 0.010426592426 0.010532483968 0.010647745835 0.010772923785 
0.010907893027 0.011051996669 0.011204151133 0.011362976555 0.011526858204 0.011694002942 0.01186254041 0.012030453144 0.012195714492 
0.012356353473 0.012510415903 0.012656048608 0.012791530392 0.012915302307 0.013025999555 0.01016016995 0.010271905481 0.010376075189 
0.010474939697 0.010571386575 0.010668576918 0.010769558129 0.010876910295 0.01099252872 0.011117540284 0.011252346509 0.011396738091 
0.011550017701 0.011711104352 0.011878632369 0.012051012137 0.012226516552 0.012403225053 0.012579130926 0.012752214602 0.012920405789 
0.013081785149 0.013234146901 0.013375740026 0.01350486505 0.013619928642 0.010588055787 0.010707557956 0.010819792338 0.010927226499 
0.011032839336 0.01113978053 0.011250988472 0.011368857606 0.011495082655 0.011630615973 0.011775735206 0.011930158143 0.012093161251 
0.012263665469 0.012440324425 0.012621602302 0.012805718898 0.012990903644 0.013174954431 0.01335589778 0.01353162575 0.013699928679 
0.013858890861 0.014006442752 0.01414074131 0.014260140921 0.011048248612 0.011176674204 0.011298200182 0.011415428336 0.011531393938 
0.011649193544 0.011771611473 0.011900855954 0.012038426354 0.012185121457 0.012341125421 0.012506107736 0.012679334043 0.012859851755 
0.013046134826 0.013236706462 0.013429825317 0.013623542319 0.013815985707 0.014004971814 0.014188320816 0.014363816072 0.014529290857 
0.014682642244 0.014821889539 0.014945267766 0.01153901347 0.011677559779 0.011809589265 0.011937789799 0.012065212198 0.012194845009 
0.012329310098 0.012470615795 0.012620099065 0.012778443858 0.012945881988 0.013121849391 0.013305736205 0.013496530962 0.013692814617 
0.013893177498 0.01409582157 0.01429881918 0.01450010065 0.014697482633 0.014888692782 0.015071435944 0.015243009945 0.01540204511 
0.015546024855 0.015673040993 0.012057906732 0.012207775626 0.012351495794 0.012491792507 0.01263165573 0.01277394313 0.012921097902 
0.013075066117 0.013236831305 0.013407128844 0.013586060697 0.01377325436 0.013968181886 0.014169748616 0.014376673683 0.014587002651 
0.014799817078 0.01501267069 0.015223416872 0.015429750827 0.015629288156 0.015819598266 0.015998275777 0.016162971573 0.01631150528 
0.01644185915 0.012601594517 0.012763973873 0.012920499963 0.013073884951 0.01322711727 0.013382682011 0.013542949279 0.01370962313 
0.013883777681 0.014065703548 0.014256338847 0.014455064928 0.014661248361 0.014873979027 0.015092041223 0.015313845317 0.015537577353 
0.01576113641 0.015982208655 0.016198321056 0.016406903271 0.016605349419 0.016791068148 0.016961600871 0.017114925209 0.017248302177 
0.013165522462 0.013341638369 0.013511987212 0.013679305486 0.013846309651 0.014015123652 0.014188618558 0.01436809693 0.014554626825 
0.014748880246 0.014951161524 0.015161347422 0.015378973994 0.01560324685 0.015832980054 0.016066949626 0.016302554828 0.016537883691 
0.016770407868 0.016997409723 0.017216044082 0.017423483704 0.017616908713 0.017793639627 0.017951197511 0.018087362871 0.013743923075 
0.013934145483 0.014119313773 0.014301136399 0.014482306143 0.014665253337 0.014851935771 0.015043942967 0.015242769009 0.015448579051 
0.015662191071 0.015883692927 0.016112843894 0.016349000081 0.016591070661 0.016837461457 0.017086121303 0.017334573218 0.017579988327 
0.017819338464 0.01804942339 0.018267054176 0.018469118235 0.018652683144 0.018815277585 0.018954145769 0.014328869358 0.014534869625 
0.014735032819 0.014932023311 0.015127479939 0.015323936911 0.01552330162 0.015727256164 0.015937045355 0.016153776854 0.016378181068 
0.01661071462 0.016851416756 0.01709986273 0.017355047341 0.017615349079 0.017878559637 0.018141846113 0.018402047199 0.01865581843 
0.018899149792 0.019128576109 0.019340588674 0.01953192784 0.019699665716 0.019841293101 0.014912452813 0.015134313613 0.015349960855 
0.015561419677 0.015770794083 0.015980232099 0.016191535059 0.016406480531 0.016626664246 0.016853403392 0.017087950204 0.017331156089 
0.017583453784 0.017844700659 0.018114017228 0.018389905989 0.018669560777 0.018949953461 0.019227331553 0.019497582145 0.019756453211 
0.019999719062 0.020223369715 0.020423739887 0.020597594613 0.020742214062 0.015484631145 0.015722470618 0.015953454089 0.016179357319 
0.016401991981 0.016623430653 0.016845593948 0.017070437799 0.017299837711 0.017535647378 0.017779605901 0.018033304156 0.018297372998 
0.018572194439 0.018857049514 0.019150222617 0.019448878819 0.019749256595 0.020046875961 0.020336846806 0.020614132931 0.020873798338 
0.021111226981 0.021322245021 0.021503252952 0.021651278974 0.016037246533 0.016290869186 0.016536762937 0.016776322236 0.01701132035 
0.01724366993 0.017475443227 0.017708875766 0.017946431685 0.018190293213 0.018443012631 0.018706748893 0.018983090277 0.019272766691 
0.019575273852 0.019888704824 0.020209754166 0.020533887755 0.020855688096 0.021169249266 0.021468555544 0.021747800942 0.022001632483 
0.022225628536 0.022415094457 0.022567087145 0.016564575767 0.01683355524 0.017093596136 0.017345934983 0.017592163934 0.017834200682 
0.018074452172 0.018315221881 0.018559578269 0.018810704527 0.019071886762 0.019346173537 0.019636012377 0.019942690792 0.020265917472 
0.020603546834 0.020951567481 0.02130471974 0.021655713378 0.02199768691 0.022323427636 0.022626095358 0.022899484166 0.023138177691 
0.023337662974 0.023494362665 0.007968411417 0.0080590717089 0.0081469241406 0.0082321457891 0.0083150623892 0.008396158648 0.0084760194814 
0.0085553011072 0.0086346138007 0.0087145093578 0.0087953362552 0.0088772617165 0.0089602570203 0.0090441316506 0.0091285756187 0.0092131999391 
0.0092975775316 0.0093813400157 0.0094639040927 0.0095449115652 0.0096239376704 0.0097005686056 0.0097744132447 0.0098450996663 0.0099122780459 
0.009975638097 0.0081437854227 0.0082360566764 0.0083250854811 0.0084111171514 0.0084945967462 0.0085761431867 0.0086565264705 0.0087366689556 
0.0088172102144 0.0088989170647 0.0089822539375 0.0090674320614 0.0091544113199 0.0092429366548 0.0093326050626 0.0094229019201 0.0095132704199 
0.0096031339608 0.0096919240889 0.009779084793 0.0098640774462 0.0099463923152 0.010025554626 0.010101118938 0.010172679873 0.010239874289 
0.0083161602443 0.0084100355789 0.0085003318732 0.0085871326305 0.00867113902 0.008753115241 0.008834004595 0.0089148748769 0.0089967134903 
0.0090803680123 0.0091663972491 0.0092550507329 0.0093462638694 0.0094397113172 0.0095348733286 0.0096311148364 0.009727734322 0.0098240237475 
0.0099192728613 0.010012801786 0.010103960948 0.010192141839 0.010276780103 0.010357361406 0.010433405463 0.010504241944 0.0084906432609 
0.0085862074832 0.008677616488 0.0087652927282 0.0088499073245 0.0089324365637 0.0090140191293 0.0090959026581 0.0091792838363 0.0092651534021 
0.0093541715711 0.0094466090062 0.0095423694322 0.0096410511315 0.0097420126204 0.0098444952538 0.009947651255 0.010050633211 0.01015259363 
0.010252729421 0.01035028406 0.010444266123 0.010534552059 0.010620285709 0.010700934303 0.010776022075 0.0086726866604 0.0087701202886 
0.0088629627326 0.0089517177023 0.0090372297594 0.0091206156607 0.009203220434 0.0092865040254 0.0093718394813 0.0094603537502 0.0095527764261 
0.0096494015318 0.0097500917783 0.0098543599161 0.0099614601984 0.010070488936 0.010180483772 0.010290189512 0.010399133551 0.010506121118 
0.010610281962 0.01071079778 0.010806924306 0.010897983714 0.010983370424 0.011062554481 0.0088681235203 0.0089677383479 0.0090623345233 
0.009152562627 0.0092393908248 0.0093241199442 0.0094082975098 0.0094935575056 0.0095814345238 0.0096731639881 0.0097695327764 0.0098708363557 
0.0099768878442 0.010086883368 0.01020046428 0.010316379271 0.010433509084 0.010550716317 0.010666899861 0.010780998274 0.010892016975 
0.010999031636 0.011101202074 0.011197762629 0.01128803625 0.011371452867 0.0090822567036 0.0091844278125 0.0092812599014 0.0093734872643 
0.0094622294881 0.0095489706012 0.0096354375716 0.0097234280554 0.0098145990616 0.0099100080911 0.010010958267 0.010117495329 0.01022940898 
0.010346033249 0.010466466246 0.010589561539 0.010714103119 0.010838835896 0.010962523869 0.011083981998 0.011202096782 0.011315833568 
0.011424250452 0.011526495201 0.011621833637 0.011709560839 0.0093195077007 0.0094247931934 0.0095244404538 0.0096193248377 0.0097107310639 
0.0098003146717 0.009889710644 0.0099813244603 0.010076659335 0.010177065387 0.010283327199 0.01039571927 0.010513988264 0.010637433921 
0.010765052253 0.010895638549 0.011027864941 0.011160370003 0.011291800498 0.011420847596 0.011546280564 0.011666952496 0.011781841723 
0.011889949811 0.01199048297 0.012082667006 0.00958341229 0.009692428394 0.0097956017136 0.009893706412 0.009988653847 0.010082017948 
0.010175818137 0.010272090815 0.010372554048 0.010478547398 0.010590908034 0.010709836595 0.010835014007 0.010965713766 0.011100883673 
0.011239246672 0.011379402898 0.011519900787 0.011659276648 0.011796115974 0.011929076092 0.01205690348 0.012178399352 0.012292562003 
0.012398418253 0.012495183854 0.0098762650972 0.0099897419063 0.010097249318 0.010199939724 0.010299415557 0.010397640787 0.010496690952 
0.01059864074 0.010705260843 0.010817859989 0.010937140002 0.011063288186 0.011195953714 0.011334371475 0.011477450289 0.011623870658 
0.011772182378 0.011920860441 0.012068355891 0.012213152334 0.012353813479 0.012488908606 0.012617219401 0.012737545741 0.012848880738 
0.012950337618 0.010200313418 0.010319069315 0.010431838471 0.010539871057 0.010644934673 0.010749092501 0.010854518303 0.010963289367 
0.011077113 0.011197218733 0.011324266021 0.011458368938 0.011599121104 0.011745736362 0.011897098377 0.012051873164 0.012208563659 
0.012365601072 0.01252136884 0.012674287815 0.012822739767 0.012965283507 0.013100495194 0.013227126628 0.013344049913 0.013450280502 
0.010556370271 0.01068129711 0.010800250644 0.010914674965 0.01102644196 0.011137707533 0.011250662615 0.011367348745 0.011489418747 
0.011617995246 0.0117536552 0.011896433196 0.012045892435 0.012201218469 0.01236127276 0.012524712134 0.012690032742 0.012855619539 
0.013019826775 0.01318093663 0.013337337566 0.013487390851 0.013629621679 0.013762650215 0.013885233533 0.013996294396 0.010944794987 
0.011076854778 0.011203051946 0.011324967027 0.011444588074 0.011564099599 0.011685722663 0.011811423125 0.011942749414 0.012080726982 
0.0122258309 0.012378021253 0.012536820466 0.01270138098 0.012870573531 0.013043048613 0.01321728033 0.013391668388 0.013564448529 
0.013733924405 0.013898335539 0.014056007175 0.014205330551 0.014344810601 0.01447309288 0.014588999787 0.011365543602 0.01150575197 
0.011640287246 0.011770819515 0.011899422783 0.01202833747 0.012159733042 0.012295487978 0.012437040502 0.012585297676 0.012740638489 
0.012902956757 0.013071733503 0.013246102009 0.01342492439 0.013606842569 0.013790362714 0.013973801937 0.014155398475 0.014333382954 
0.014505954259 0.014671448625 0.014827926877 0.014973889054 0.015107877502 0.01522860385 0.01181807953 0.011967502855 0.012111459472 
0.012251747799 0.012390489403 0.012529913738 0.012672132847 0.012818919045 0.012971590293 0.013130944557 0.013297271013 0.013470403855 
0.013649791934 0.013834551927 0.014023542007 0.014215427268 0.014408631431 0.014601591304 0.014792317452 0.014979078273 0.015159999185 
0.015333135424 0.015496837549 0.015649309223 0.015788976252 0.015914449915 0.012301348817 0.012461085828 0.012615609853 0.012766789586 
0.012916773029 0.013067760098 0.013221774179 0.013380482362 0.01354508217 0.013716269762 0.013894266421 0.01407886176 0.01426948249 
0.014465352163 0.014665122967 0.014867496959 0.015070909159 0.0152735947 0.015473871644 0.015669765938 0.015859325209 0.016040580946 
0.016211634077 0.01637066221 0.016515973747 0.01664609054 0.012813811136 0.012984991707 0.013151215301 0.013314387659 0.013476665748 
0.013640183193 0.013806872059 0.013978283616 0.014155513001 0.014339180511 0.014529567323 0.014726223116 0.014928680272 0.015136079348 
0.015347156552 0.015560652907 0.015774929595 0.015988221533 0.016198637046 0.016404181453 0.0166027985 0.016792429705 0.016970633835 
0.01713632213 0.017287278845 0.017421901142 0.013353288091 0.013537040408 0.013716076794 0.01389231228 0.014067859015 0.014244776757 
0.014424897165 0.014609777585 0.014800212765 0.014996894533 0.015199971708 0.015409167075 0.015624064328 0.015843677188 0.016066895433 
0.016291851102 0.016517778847 0.016742384808 0.01696369056 0.017179578056 0.01738787064 0.017586368738 0.017772922502 0.017945463017 
0.0181021133 0.018241170818 0.01391688467 0.014114324208 0.014307231767 0.014497506486 0.014687295424 0.014878356335 0.015072522532 
0.015271169043 0.015475264294 0.015685320281 0.015901206212 0.016123560411 0.01635139432 0.016583921653 0.016819977888 0.017058093204 
0.017296579112 0.017533481361 0.017766657534 0.017993826046 0.018212631671 0.018420704772 0.018615712139 0.018795475722 0.018957956649 
0.019101693056 0.014500810084 0.014713107414 0.014920894526 0.015126088839 0.015330636988 0.015536024049 0.015744643879 0.015957512241 
0.016175550277 0.016399372847 0.016629241342 0.016865123076 0.017106491709 0.01735260923 0.017602341748 0.017854541904 0.018106725926 
0.018357130315 0.018603410308 0.01884306262 0.019073478804 0.019292087547 0.019496342207 0.019683853537 0.019852447964 0.020000228237 
0.015100574356 0.015328089447 0.015551770178 0.015772588725 0.015992532425 0.016213452538 0.016436896992 0.016664193073 0.016896676243 
0.017134412262 0.017378148782 0.017627885315 0.0178833439 0.018143838515 0.018408270609 0.018675097514 0.01894237204 0.019207779337 
0.019468703443 0.019722368153 0.019965851966 0.020196260836 0.020410786629 0.020606809251 0.020782166978 0.020934441023 0.015710228497 
0.015954703284 0.016194613603 0.01643196153 0.016667768992 0.01690406607 0.017142407221 0.017384169048 0.017630449376 0.017882172128 
0.018139908513 0.018403923698 0.018674116718 0.018949925811 0.019230274378 0.019513557458 0.019797645557 0.020079914909 0.02035746065 
0.020627265248 0.020885635212 0.021129473534 0.021355629696 0.021561183592 0.021743563127 0.021900584247 0.016324619058 0.016586340468 
0.016843262157 0.017096847739 0.017348675774 0.017600457182 0.017853655975 0.018109769717 0.018370142331 0.018635860883 0.018907791152 