# vtk DataFile Version 5.1
vtk output
ASCII
DATASET STRUCTURED_POINTS
DIMENSIONS 26 26 26
SPACING 0.08 0.08 0.08
ORIGIN -1 -1 0.5
POINT_DATA 17576
FIELD FieldData 3
potential 1 17576 double
0.92192100966 0.92192173112 0.92192253533 0.92192338105 0.92192427224 0.92192515402 0.92192621652 0.92192729143 0.9219284776 
0.92192971914 0.9219311586 0.9219326851 0.92193439931 0.92193621758 0.9219383729 0.92194068209 0.9219432504 0.92194599322 
0.92194908088 0.92195230842 0.92195568135 0.9219591177 0.92196264824 0.92196603598 0.92196930022 0.92197237883 0.91906939047 
0.91907024077 0.91907113211 0.91907202703 0.9190729672 0.91907402403 0.91907511363 0.91907625656 0.91907748429 0.91907885709 
0.91908031696 0.91908187703 0.91908359316 0.91908553246 0.91908758602 0.91908981303 0.91909227795 0.91909497157 0.91909781211 
0.91910079579 0.91910392176 0.91910712915 0.91911028712 0.9191134552 0.91911648456 0.9191193923 0.91642640519 0.91642734514 
0.91642828708 0.91642924227 0.91643030978 0.91643141364 0.9164325853 0.91643373473 0.9164350811 0.91643650029 0.9164379919 
0.91643955225 0.9164413449 0.91644325284 0.916445277 0.91644742247 0.91644984302 0.91645239932 0.91645505665 0.91645780639 
0.91646077265 0.91646373604 0.91646666455 0.91646954541 0.91647242288 0.9164751559 0.91402147775 0.91402249293 0.91402348579 
0.91402453868 0.91402565632 0.91402683393 0.91402802574 0.9140293103 0.91403068372 0.91403213459 0.91403365213 0.91403528561 
0.91403706683 0.91403895439 0.91404093907 0.91404308542 0.91404539628 0.91404783173 0.91405035674 0.91405298126 0.91405569689 
0.91405846332 0.91406119161 0.9140638999 0.91406657615 0.9140691521 0.91186950688 0.9118705305 0.91187160092 0.91187271856 
0.91187391175 0.91187510313 0.91187633306 0.91187773441 0.91187912765 0.9118805723 0.91188213108 0.91188384703 0.91188559204 
0.91188742175 0.91188940784 0.91189156133 0.91189374353 0.91189603618 0.91189844958 0.91190099847 0.91190351412 0.91190607914 
0.91190864614 0.91191126424 0.91191373936 0.91191615168 0.90997623922 0.90997729101 0.90997837711 0.90997959425 0.90998084539 
0.90998206742 0.90998332699 0.90998475162 0.90998621927 0.90998770308 0.90998924544 0.90999096243 0.90999275414 0.90999457249 
0.90999650621 0.9099986134 0.91000076109 0.91000294546 0.91000524512 0.91000767509 0.91001010625 0.91001249757 0.91001494059 
0.91001739277 0.91001977971 0.91002201782 0.90834182341 0.90834292394 0.90834409768 0.90834528994 0.90834660002 0.90834786993 
0.90834922734 0.90835058873 0.90835212875 0.9083536257 0.9083552373 0.90835690246 0.90835870662 0.90836051356 0.90836243021 
0.9083644395 0.90836657133 0.90836869677 0.90837091027 0.90837318518 0.9083755083 0.90837783036 0.90838013128 0.90838246659 
0.90838471889 0.90838692762 0.90696331984 0.9069645594 0.90696579704 0.90696701188 0.90696826159 0.90696962826 0.9069710398 
0.90697244466 0.90697389084 0.90697547794 0.9069771381 0.90697877605 0.90698049545 0.90698237869 0.90698430622 0.90698623172 
0.90698824272 0.90699040736 0.90699256892 0.90699471518 0.90699693732 0.90699921878 0.90700144642 0.90700361131 0.90700579196 
0.90700797192 0.90583693305 0.90583818674 0.90583946998 0.90584072017 0.90584198012 0.90584337091 0.90584481476 0.90584624244 
0.90584769272 0.90584932387 0.90585095552 0.90585259279 0.90585431182 0.90585620042 0.90585808346 0.90585997856 0.90586194428 
0.90586407363 0.90586616708 0.90586824637 0.90587038294 0.9058726051 0.90587474981 0.90587685229 0.90587895939 0.90588107545 
0.90495809439 0.90495930437 0.90496058615 0.9049618528 0.90496321955 0.90496456977 0.90496600709 0.9049674631 0.90496899325 
0.90497053947 0.90497217729 0.90497386116 0.90497561801 0.90497739638 0.90497926666 0.90498118286 0.90498316099 0.90498514876 
0.90498718134 0.9049892859 0.90499137589 0.90499347122 0.90499555273 0.90499766052 0.90499970497 0.90500171186 0.90432258608 
0.90432382188 0.90432508096 0.90432641647 0.90432777033 0.90432914302 0.90433054236 0.90433206078 0.90433359384 0.90433514503 
0.90433674366 0.90433847004 0.90434020567 0.90434198738 0.90434380152 0.90434574083 0.90434768193 0.9043496352 0.90435164255 
0.90435371708 0.90435577154 0.90435780548 0.90435984945 0.90436192225 0.9043639422 0.90436585366 0.90392711988 0.90392838492 
0.90392969537 0.90393099107 0.90393233824 0.90393373826 0.90393519681 0.90393665311 0.90393817363 0.90393975694 0.90394140828 
0.90394306479 0.9039447911 0.90394658187 0.90394843939 0.90395028848 0.90395222137 0.90395418835 0.9039561956 0.90395816445 
0.90396021139 0.90396225012 0.90396426893 0.90396625805 0.90396825755 0.90397022091 0.90376922528 0.90377052226 0.90377181475 
0.90377310228 0.90377445244 0.90377588011 0.90377732269 0.90377876969 0.90378029069 0.90378190965 0.90378353898 0.90378517554 
0.90378690482 0.90378871984 0.90379055058 0.9037923815 0.90379429832 0.90379628127 0.90379824912 0.90380022002 0.90380224193 
0.90380427466 0.90380627251 0.90380823228 0.90381022506 0.90381218343 0.90384757192 0.90384880675 0.90385009205 0.90385142544 
0.90385278352 0.90385416223 0.90385558586 0.90385708153 0.90385860799 0.90386016809 0.90386178113 0.90386347449 0.90386520223 
0.90386696529 0.903868784 0.90387066754 0.90387258014 0.90387450442 0.90387647067 0.90387849258 0.90388050322 0.90388248583 
0.90388449023 0.90388650648 0.90388847296 0.90389036659 0.90416172124 0.90416293734 0.90416421058 0.904165537 0.90416688863 
0.90416824524 0.90416968608 0.9041711649 0.90417268204 0.90417422245 0.9041758678 0.9041775372 0.90417925168 0.90418100792 
0.9041828581 0.90418471944 0.90418663944 0.90418857433 0.90419056912 0.9041925764 0.90419457643 0.90419658165 0.90419862366 
0.90420063528 0.9042025736 0.90420451594 0.904712497 0.90471374957 0.9047150413 0.9047163069 0.90471760472 0.90471901037 
0.9047204411 0.9047218721 0.90472334861 0.90472494434 0.90472656631 0.90472821089 0.90472990638 0.9047317198 0.90473354906 
0.9047354172 0.90473731061 0.90473932492 0.90474131471 0.90474331858 0.90474533154 0.90474743476 0.90474945339 0.90475146264 
0.90475344334 0.90475544664 0.90550184764 0.90550306601 0.9055043056 0.90550552783 0.90550685924 0.90550824028 0.90550961533 
0.9055110271 0.90551253518 0.90551411512 0.90551570065 0.90551731775 0.90551906872 0.90552087596 0.90552269413 0.90552454792 
0.90552653667 0.90552853584 0.90553054113 0.90553256301 0.90553467199 0.90553676148 0.90553881546 0.90554085071 0.90554289526 
0.90554491279 0.90653238939 0.90653359375 0.90653478504 0.90653603923 0.90653730888 0.9065386363 0.90654001311 0.90654143201 
0.90654289116 0.90654442488 0.90654602236 0.90654768844 0.90654941053 0.90655119802 0.90655305077 0.90655497281 0.90655691351 
0.90655892189 0.9065609845 0.90656309503 0.90656521457 0.90656732745 0.90656945029 0.90657154814 0.90657365225 0.90657567467 
0.90780788961 0.90780899549 0.9078101843 0.90781139308 0.90781264761 0.90781390756 0.90781527666 0.90781666481 0.9078180998 
0.90781962122 0.90782121729 0.90782286043 0.90782456424 0.90782637306 0.90782824592 0.90783016646 0.90783215252 0.90783424069 
0.90783636055 0.90783849896 0.90784066572 0.90784289061 0.90784508134 0.90784726137 0.90784936732 0.90785149199 0.90933192237 
0.90933301466 0.90933415637 0.90933532717 0.90933650723 0.90933775082 0.90933908126 0.90934044563 0.90934184968 0.90934333429 
0.90934492152 0.90934656396 0.90934827135 0.90935005878 0.90935196194 0.90935393424 0.90935598454 0.90935807921 0.90936026714 
0.90936250031 0.90936476758 0.90936702347 0.90936931142 0.90937156692 0.90937377714 0.90937596641 0.91110830148 0.91110932346 
0.91111036491 0.9111115107 0.91111268224 0.91111387954 0.91111510143 0.91111645737 0.91111785196 0.91111928883 0.9111208431 
0.91112247477 0.91112420046 0.91112598538 0.91112790383 0.91112991524 0.91113201364 0.91113417165 0.91113644039 0.91113876811 
0.91114112666 0.91114349353 0.91114588795 0.91114826933 0.91115057801 0.91115282236 0.91313950495 0.91314047555 0.91314147439 
0.91314256452 0.9131436494 0.91314478587 0.91314599103 0.91314730332 0.91314863757 0.91315005664 0.91315156633 0.91315320423 
0.91315490821 0.91315671126 0.91315863619 0.91316070156 0.91316285517 0.91316509543 0.91316744894 0.9131698965 0.91317238367 
0.91317484407 0.91317739318 0.91317988936 0.91318234167 0.91318466868 0.91542530782 0.91542621929 0.91542713859 0.91542815362 
0.91542918187 0.91543028359 0.91543140916 0.9154326504 0.91543393404 0.91543533039 0.91543680525 0.91543840258 0.91544008915 
0.9154419253 0.91544387006 0.91544598107 0.9154481748 0.91545054639 0.91545299982 0.91545559051 0.91545819461 0.91546088617 
0.91546354902 0.91546621274 0.91546876289 0.91547127689 0.91796037989 0.91796120255 0.91796207338 0.91796296681 0.91796394508 
0.91796495925 0.91796604635 0.91796717993 0.91796844344 0.91796977842 0.91797119049 0.91797275567 0.9179744689 0.91797628342 
0.91797825444 0.91798040614 0.91798271729 0.91798516267 0.91798775823 0.9179904925 0.91799332019 0.91799617485 0.91799902416 
0.91800185592 0.9180046154 0.91800724206 0.92073092939 0.92073168226 0.92073244904 0.92073325329 0.92073416075 0.92073510722 
0.92073608587 0.92073716665 0.92073836124 0.92073964375 0.92074101339 0.92074253349 0.92074420553 0.92074603162 0.92074801958 
0.92075021813 0.9207526124 0.9207551844 0.92075791338 0.92076086274 0.92076389804 0.92076698805 0.92077003501 0.92077311284 
0.9207760535 0.9207788511 0.92370962767 0.92371025437 0.92371095079 0.9237116543 0.92371248974 0.92371330305 0.92371424242 
0.92371521431 0.9237163568 0.92371752525 0.92371887377 0.92372031502 0.92372199297 0.92372377771 0.9237258203 0.92372803621 
0.92373055317 0.92373324596 0.92373619088 0.9237393149 0.92374262268 0.92374595547 0.92374930865 0.92375258977 0.92375574852 
0.9237587175 0.91797424241 0.9179750498 0.91797596163 0.91797688577 0.91797785546 0.9179788536 0.91797997884 0.91798114656 
0.91798239406 0.9179837486 0.91798523182 0.91798684039 0.91798857324 0.91799047889 0.91799259518 0.91799488243 0.91799735481 
0.91800003587 0.91800291074 0.91800595041 0.91800908611 0.91801228141 0.91801551138 0.91801866683 0.918021705 0.91802459198 
0.91552812897 0.91552905227 0.91552999367 0.91553097198 0.91553203155 0.9155331455 0.91553429583 0.91553546467 0.915536832 
0.91553825913 0.915539718 0.91554134677 0.91554313467 0.91554506077 0.91554707501 0.91554930849 0.91555172076 0.9155543187 
0.91555698652 0.9155598379 0.91556278379 0.9155658045 0.91556874588 0.91557166928 0.9155745859 0.91557733 0.91323309411 
0.91323410935 0.91323509882 0.91323614731 0.91323725752 0.91323844378 0.91323962691 0.91324089677 0.91324228797 0.91324376049 
0.91324526026 0.91324690277 0.91324870984 0.91325061756 0.91325260663 0.91325476636 0.91325714473 0.91325959045 0.91326214567 
0.91326479376 0.91326760847 0.91327039775 0.9132731768 0.91327590252 0.91327863535 0.91328123949 0.91112164338 0.91112267752 
0.91112373982 0.91112485103 0.91112604029 0.91112723553 0.91112847363 0.91112984034 0.91113123922 0.91113271943 0.91113424885 
0.91113596152 0.91113772891 0.91113961222 0.91114157147 0.91114373849 0.91114597404 0.91114832521 0.91115073963 0.91115332244 
0.91115591358 0.91115851275 0.91116112826 0.91116377537 0.91116630432 0.91116875644 0.90921406902 0.90921516975 0.9092162495 
0.90921745644 0.90921870836 0.90921993916 0.9092211954 0.90922261634 0.90922408536 0.90922554173 0.90922710583 0.9092288502 
0.90923063616 0.90923243914 0.90923440038 0.9092365324 0.90923872935 0.90924092007 0.90924326239 0.90924573021 0.90924820654 
0.90925058925 0.90925310662 0.90925561924 0.9092580226 0.90926028349 0.90752248795 0.90752361912 0.90752475714 0.90752600275 
0.90752727178 0.90752854556 0.90752986885 0.9075313005 0.90753278967 0.90753430024 0.90753589626 0.90753759934 0.90753940573 
0.90754120293 0.90754313901 0.90754518886 0.9075473407 0.90754946047 0.90755172211 0.90755405252 0.90755643889 0.90755872642 
0.90756110555 0.90756346654 0.90756579701 0.90756796856 0.90605285509 0.90605404273 0.90605526301 0.90605649268 0.90605779136 
0.90605912733 0.90606051205 0.90606192418 0.90606338562 0.90606498214 0.90606660232 0.90606827336 0.90607003549 0.90607189062 
0.90607380545 0.90607577889 0.90607783484 0.9060799847 0.9060821544 0.90608435731 0.90608661066 0.90608891942 0.90609114686 
0.90609337502 0.90609558622 0.90609776677 0.90480748942 0.90480875791 0.90481001511 0.90481129698 0.90481255204 0.90481397292 
0.90481537679 0.90481682282 0.90481827841 0.90481990568 0.90482153015 0.90482320381 0.90482491698 0.90482680772 0.90482869012 
0.90483059853 0.90483258646 0.90483473347 0.90483683741 0.90483895776 0.90484111116 0.9048433469 0.90484551615 0.90484761903 
0.904849757 0.90485189035 0.9037866432 0.90378787991 0.90378919468 0.90379046598 0.90379179802 0.90379318597 0.90379463903 
0.90379608343 0.90379760299 0.9037991811 0.9038008388 0.90380250185 0.90380425062 0.9038060551 0.90380796217 0.90380984714 
0.90381181604 0.90381385718 0.90381593193 0.90381801314 0.90382010108 0.90382226363 0.90382436059 0.90382644323 0.90382848802 
0.90383055003 0.90298914156 0.902990372 0.90299164924 0.90299297293 0.90299438009 0.90299575199 0.90299714252 0.90299865063 
0.90300022568 0.903001796 0.90300337244 0.9030051074 0.90300687199 0.90300865116 0.90301048187 0.9030123986 0.90301436681 
0.90301632925 0.9030183455 0.90302039823 0.90302248128 0.90302451046 0.90302657447 0.90302864395 0.90303065548 0.90303258519 
0.90241343787 0.90241470674 0.90241596278 0.9024173178 0.90241872893 0.90242012724 0.90242152508 0.902423068 0.90242461279 
0.90242614655 0.90242776312 0.90242951036 0.90243125046 0.90243299686 0.90243484103 0.90243675689 0.90243866968 0.90244059692 
0.90244260369 0.90244464032 0.90244666171 0.90244865556 0.90245069257 0.90245271101 0.90245468342 0.9024565862 0.90205795722 
0.90205925582 0.90206060544 0.90206191284 0.90206327571 0.90206470954 0.90206619258 0.90206765502 0.90206920028 0.9020708096 
0.9020724469 0.90207409683 0.90207581443 0.90207763684 0.90207946534 0.9020813008 0.90208318735 0.9020851715 0.90208714147 
0.90208909462 0.90209108719 0.90209312402 0.90209511349 0.90209706064 0.90209901265 0.90210095338 0.90192160633 0.90192292878 
0.90192425908 0.90192558717 0.90192694966 0.9019283825 0.90192984281 0.90193130858 0.90193286528 0.90193447269 0.90193609346 
0.90193774296 0.90193948804 0.90194128542 0.9019430918 0.90194492893 0.90194683632 0.90194879019 0.90195073385 0.90195267057 
0.90195467858 0.90195668803 0.90195865455 0.90196057614 0.90196254366 0.90196446167 0.90200363732 0.90200491428 0.90200619433 
0.90200753847 0.90200894888 0.9020103497 0.90201176902 0.90201327455 0.90201483716 0.9020164084 0.90201800573 0.90201972317 
0.90202144533 0.90202320704 0.9020249906 0.90202688877 0.90202878121 0.90203069868 0.90203261876 0.9020346308 0.90203660121 
0.90203858321 0.90204054003 0.90204252546 0.9020444473 0.90204633989 0.90230365477 0.90230491638 0.90230620869 0.90230756263 
0.9023089284 0.90231031792 0.90231175125 0.90231325353 0.90231478671 0.9023163587 0.90231796444 0.90231965516 0.90232138055 
0.90232313016 0.90232495388 0.9023268188 0.90232872808 0.90233062138 0.90233261926 0.90233457863 0.90233657216 0.9023385331 
0.90234054662 0.90234250572 0.90234445869 0.90234632699 0.90282218078 0.90282343832 0.90282475755 0.90282605594 0.9028273906 
0.90282878322 0.90283022805 0.90283170099 0.90283320504 0.90283478172 0.9028363993 0.90283807613 0.90283976259 0.90284154897 
0.90284336815 0.90284524116 0.90284713742 0.90284909466 0.90285106713 0.90285306835 0.90285505387 0.90285708139 0.90285908647 
0.90286106448 0.90286301172 0.90286495415 0.90355995633 0.90356122226 0.90356248695 0.90356375224 0.90356507887 0.90356648673 
0.90356790688 0.90356932854 0.9035708395 0.90357242434 0.90357404189 0.90357565731 0.90357739785 0.90357918752 0.90358102901 
0.90358285669 0.90358480011 0.90358678331 0.90358878805 0.90359076186 0.90359281771 0.90359488193 0.90359691324 0.90359888941 
0.90360090282 0.90360288025 0.9045181126 0.90451938182 0.90452059525 0.90452186197 0.904523136 0.90452454517 0.90452591315 
0.90452735854 0.9045288067 0.90453041306 0.90453199074 0.90453365688 0.90453534514 0.90453717545 0.90453899018 0.90454086842 
0.90454282361 0.90454484895 0.90454686022 0.90454889856 0.90455098717 0.90455309764 0.90455515393 0.90455720715 0.9045592519 
0.90456126169 0.90569805627 0.90569923435 0.90570044079 0.90570167269 0.90570294873 0.90570427292 0.9057056402 0.90570705023 
0.90570852861 0.90571004938 0.90571164663 0.90571329528 0.905715016 0.90571680295 0.90571866329 0.90572058047 0.90572255287 
0.90572458102 0.90572666608 0.90572877743 0.90573090424 0.90573305113 0.9057351899 0.90573731977 0.90573940454 0.9057414539 
0.90710037301 0.90710150837 0.90710267435 0.9071038856 0.907105109 0.90710639559 0.90710773373 0.9071091303 0.90711056712 
0.9071120723 0.90711365668 0.90711529218 0.90711702118 0.90711881372 0.90712069328 0.90712264046 0.9071246257 0.9071267258 
0.90712887375 0.90713104429 0.90713322074 0.90713546008 0.90713769042 0.90713988171 0.90714201539 0.90714414186 0.90872491394 
0.9087259801 0.90872712928 0.90872827711 0.90872946333 0.9087307076 0.90873201782 0.90873336493 0.90873477173 0.90873625772 
0.90873782374 0.90873945458 0.90874117698 0.90874298049 0.90874486626 0.90874685274 0.9087489222 0.90875105184 0.90875324784 
0.90875551972 0.9087578124 0.90876011485 0.90876241589 0.90876471974 0.908766969 0.90876915499 0.91056952983 0.91057055663 
0.91057157966 0.91057270871 0.91057386884 0.91057505117 0.91057627328 0.91057761507 0.91057900894 0.91058042496 0.91058195971 
0.91058361316 0.91058534441 0.91058712065 0.91058904912 0.91059108345 0.91059319518 0.9105953778 0.91059767415 0.9106000474 
0.91060244923 0.91060483866 0.91060727635 0.91060968627 0.91061204178 0.91061429805 0.91262845982 0.91262941212 0.91263040728 
0.91263148985 0.91263255958 0.91263368599 0.91263487735 0.91263618443 0.91263750484 0.9126389111 0.91264041343 0.91264205864 
0.9126437566 0.91264556705 0.9126475012 0.91264959562 0.91265175666 0.91265404182 0.91265642139 0.91265891481 0.91266142291 
0.9126639566 0.91266652554 0.91266907603 0.91267153826 0.91267390974 0.91489063764 0.91489154009 0.91489246725 0.91489343175 
0.91489446919 0.91489555333 0.91489668791 0.9148979027 0.91489919166 0.91490059535 0.91490204851 0.91490363646 0.91490534023 
0.91490720562 0.91490913671 0.91491124844 0.91491348498 0.91491589756 0.91491838363 0.91492098333 0.91492364287 0.91492638579 
0.91492908258 0.91493175814 0.91493436478 0.91493690392 0.91733709558 0.91733792963 0.91733877913 0.91733964167 0.9173406339 
0.91734164947 0.91734272162 0.91734384456 0.91734510725 0.91734644978 0.9173478398 0.91734941018 0.9173511346 0.91735297806 
0.91735492589 0.91735709792 0.9173594481 0.91736193967 0.91736452762 0.91736729896 0.91737017196 0.91737306823 0.91737590699 
0.91737877741 0.91738158056 0.91738424298 0.91993764932 0.91993838132 0.91993914028 0.91993994907 0.91994087067 0.91994179647 
0.91994276909 0.91994386546 0.91994506892 0.91994633376 0.91994770558 0.91994923946 0.91995093477 0.91995276948 0.91995474258 
0.91995699505 0.91995941246 0.9199619982 0.91996475028 0.91996772144 0.91997077584 0.91997385114 0.91997693416 0.91998001366 
0.91998296747 0.91998575089 0.91392081596 0.91392176764 0.91392272503 0.91392373205 0.91392479049 0.91392592353 0.91392706647 
0.91392833125 0.91392966127 0.91393112341 0.9139325952 0.91393426084 0.91393604686 0.91393800642 0.913940054 0.91394230012 
0.91394470803 0.91394733134 0.91395001767 0.91395286936 0.91395579043 0.91395879315 0.91396175659 0.9139647089 0.91396754174 
0.91397029249 0.91183314313 0.9118341733 0.91183520881 0.91183625367 0.91183735701 0.91183857834 0.91183978649 0.91184104325 
0.91184243218 0.91184393478 0.91184547233 0.91184709735 0.91184890954 0.91185085613 0.91185288209 0.9118550377 0.91185740847 
0.91185990273 0.91186247283 0.91186513955 0.9118679395 0.91187076844 0.91187355002 0.91187630467 0.91187901675 0.91188162362 
0.90985433822 0.90985541337 0.90985647332 0.90985758517 0.90985876784 0.90985999908 0.90986125957 0.90986261322 0.90986401041 
0.90986551434 0.9098670718 0.90986876191 0.90987054351 0.90987245424 0.90987444149 0.90987658876 0.9098788587 0.90988124243 
0.90988369126 0.90988626858 0.90988889068 0.90989152979 0.90989416296 0.90989679645 0.90989937077 0.90990184787 0.90801632097 
0.90801741346 0.90801850533 0.9080197142 0.90802094305 0.90802220372 0.90802348697 0.90802490424 0.90802636016 0.90802783092 
0.90802942053 0.90803117325 0.90803293847 0.90803477901 0.90803676084 0.90803891256 0.9080410879 0.90804331942 0.90804570888 
0.90804820585 0.90805066568 0.90805313977 0.9080556538 0.90805819774 0.90806059963 0.90806292967 0.90634177148 0.90634288277 
0.90634404994 0.90634530813 0.90634658211 0.90634783651 0.90634918297 0.90635063201 0.9063521201 0.90635361407 0.90635522567 
0.90635695018 0.9063587391 0.90636056348 0.90636254204 0.90636460966 0.90636675463 0.90636890487 0.90637120818 0.90637356783 
0.90637595494 0.90637828161 0.90638071485 0.90638310974 0.90638541974 0.90638761322 0.90484610483 0.90484727079 0.90484850917 
0.90484973655 0.90485109658 0.90485238177 0.90485378171 0.90485519017 0.90485673751 0.90485826282 0.90485989621 0.904861594 
0.90486336661 0.9048652032 0.90486713778 0.90486915333 0.90487122107 0.9048733522 0.90487554387 0.904877818 0.90488007528 
0.90488236304 0.90488463833 0.90488692941 0.9048891314 0.90489130354 0.90353917296 0.90354042985 0.90354173225 0.90354300136 
0.90354426882 0.90354569294 0.90354712215 0.90354855809 0.90355004032 0.90355164683 0.90355331881 0.90355497245 0.90355671277 
0.90355857582 0.90356051228 0.9035624349 0.90356444506 0.90356656443 0.90356872445 0.90357084928 0.90357302414 0.90357525307 
0.90357748525 0.90357961698 0.90358174772 0.90358386458 0.90242702173 0.9024283185 0.90242962833 0.90243093754 0.90243223374 
0.90243365053 0.90243510739 0.90243655318 0.9024380575 0.90243966146 0.90244133383 0.90244299561 0.90244473004 0.90244659528 
0.9024484806 0.90245038094 0.90245235616 0.90245443591 0.90245651336 0.90245859501 0.90246071122 0.90246287948 0.90246500589 
0.90246707608 0.90246915095 0.90247121703 0.90151288922 0.90151412287 0.90151546458 0.90151679391 0.90151818552 0.9015195521 
0.90152103979 0.90152251427 0.90152407388 0.9015256211 0.90152730112 0.90152897785 0.90153074694 0.90153251561 0.9015344044 
0.90153629411 0.90153826781 0.90154022196 0.90154226353 0.90154433294 0.90154639495 0.90154843497 0.90155052035 0.90155258202 
0.90155459123 0.90155654694 0.9007983249 0.90079961697 0.90080089838 0.90080231183 0.90080368149 0.90080510293 0.90080652087 
0.90080808489 0.90080962919 0.90081120613 0.9008128137 0.90081454825 0.90081629991 0.90081807316 0.9008198704 0.90082180547 
0.90082374846 0.90082567052 0.900827642 0.90082969839 0.90083173599 0.90083372161 0.90083572145 0.90083776257 0.90083973904 
0.9008416182 0.90028398748 0.90028528274 0.90028661916 0.90028798385 0.90028938858 0.90029081117 0.90029227981 0.90029379251 
0.90029535426 0.90029693557 0.90029857735 0.90030026992 0.90030202006 0.90030378301 0.90030559589 0.9003074767 0.90030940103 
0.9003113175 0.90031326672 0.90031526072 0.90031727064 0.90031924101 0.90032121006 0.90032318777 0.90032514262 0.90032702378 
0.89996981862 0.89997113245 0.8999724935 0.89997387055 0.89997525106 0.8999766832 0.89997817856 0.8999796921 0.89998122354 
0.89998281624 0.8999844726 0.89998616635 0.8999878748 0.89998965423 0.89999147717 0.89999334018 0.89999519636 0.89999713271 
0.89999907933 0.900001039 0.90000298356 0.90000496801 0.9000069427 0.90000887969 0.90001078111 0.90001267355 0.89985578699 
0.89985711463 0.8998584839 0.89985984462 0.89986122165 0.89986267917 0.89986416744 0.89986565892 0.89986719351 0.89986880085 
0.89987045366 0.89987211196 0.89987383269 0.89987560469 0.89987742877 0.89987926478 0.89988113609 0.89988305767 0.89988499513 
0.89988693206 0.89988888095 0.89989085271 0.89989279257 0.89989471198 0.89989662583 0.89989849033 0.89994166757 0.89994296665 
0.89994429727 0.89994565042 0.89994707784 0.89994851179 0.89994996998 0.89995146924 0.89995302834 0.89995463137 0.89995624423 
0.89995792144 0.89995965455 0.89996142653 0.89996321149 0.89996505712 0.89996694501 0.89996885742 0.89997076432 0.89997270968 
0.89997467194 0.89997662339 0.899978538 0.89998048409 0.89998238853 0.89998424068 0.9002272392 0.90022852258 0.90022983388 
0.90023122335 0.9002326206 0.90023402712 0.90023546924 0.90023700102 0.90023854378 0.90024009642 0.90024172799 0.90024343951 
0.90024516134 0.90024688514 0.90024869248 0.90025057383 0.90025245515 0.90025432359 0.90025626687 0.90025823516 0.90026020317 
0.90026212505 0.90026407168 0.90026604656 0.90026794474 0.9002697788 0.90071259916 0.900713861 0.90071519786 0.90071656328 
0.90071792953 0.90071931259 0.90072078949 0.90072229461 0.90072381725 0.90072536616 0.90072701234 0.90072870372 0.90073041144 
0.90073215594 0.90073397777 0.90073584795 0.90073770764 0.90073962412 0.90074159007 0.90074356546 0.90074551344 0.90074748165 
0.90074947226 0.90075142576 0.90075332469 0.90075517878 0.90139762956 0.90139890372 0.90140020143 0.90140151548 0.9014028825 
0.90140428512 0.9014057191 0.90140719356 0.90140871349 0.90141027794 0.90141191987 0.90141358953 0.90141528851 0.90141705178 
0.90141885993 0.90142074883 0.90142265473 0.90142459644 0.90142654438 0.90142854539 0.90143054125 0.9014325396 0.9014345168 
0.90143652052 0.90143846147 0.90144037475 0.90228218457 0.90228344819 0.90228469932 0.90228596631 0.90228734 0.90228873427 
0.90229011024 0.90229156235 0.90229310405 0.90229467709 0.90229627241 0.90229790358 0.9022996566 0.90230144555 0.90230325693 
0.90230510437 0.90230705884 0.90230903278 0.90231102051 0.90231301315 0.90231508151 0.9023171332 0.90231915773 0.90232116324 
0.90232316432 0.90232512409 0.90336558222 0.90336680489 0.90336803407 0.90336932236 0.90337061567 0.90337196836 0.90337336591 
0.90337481221 0.90337630237 0.90337783482 0.90337943401 0.90338110782 0.90338282841 0.90338459752 0.90338642566 0.90338835635 
0.90339030024 0.90339228681 0.9033943116 0.90339641201 0.90339850391 0.90340057272 0.90340265333 0.90340472645 0.90340679355 
0.90340876582 0.9046462326 0.90464736532 0.90464859617 0.90464983706 0.90465110278 0.9046524196 0.90465380046 0.90465520915 
0.90465666212 0.90465820134 0.90465980029 0.90466144911 0.90466315523 0.90466495685 0.9046668248 0.90466874216 0.90467070397 
0.90467276526 0.90467486055 0.90467698146 0.90467910618 0.90468128458 0.90468344497 0.90468557561 0.90468765357 0.90468973143 
0.90612095103 0.90612207891 0.90612325272 0.90612443443 0.90612568032 0.90612695824 0.90612829976 0.90612966788 0.90613112017 
0.9061326157 0.90613420521 0.90613584476 0.90613757924 0.90613936053 0.90614125687 0.90614319883 0.90614524469 0.90614731909 
0.90614947914 0.90615165051 0.90615387897 0.90615613629 0.90615836548 0.90616056791 0.90616273704 0.90616488525 0.90778428788 
0.90778532726 0.90778643437 0.90778760095 0.9077888293 0.90779003433 0.90779132521 0.90779267525 0.90779411473 0.90779556764 
0.9077971288 0.90779876704 0.9078005159 0.9078022996 0.9078041999 0.90780619561 0.90780829027 0.90781041678 0.90781263798 
0.90781493359 0.90781725509 0.90781954892 0.90782188849 0.907824224 0.90782647592 0.90782865905 0.90962700209 0.90962800068 
0.90962905392 0.90963018536 0.90963133253 0.90963248788 0.90963374536 0.90963508037 0.90963646679 0.90963787843 0.90963942503 
0.90964107605 0.9096428006 0.90964455892 0.90964651856 0.90964856711 0.90965070488 0.90965286522 0.90965521983 0.90965759974 
0.9096600194 0.90966240392 0.9096648973 0.90966731985 0.90966967808 0.90967194026 0.91163483768 0.91163581312 0.91163678277 
0.91163785843 0.91163892742 0.91164007206 0.91164126835 0.91164255141 0.91164386833 0.91164529497 0.91164680519 0.91164843009 
0.91165012858 0.91165196768 0.91165391726 0.91165600266 0.91165816926 0.91166048503 0.91166288305 0.91166538994 0.91166790334 
0.91167046077 0.91167305447 0.91167560204 0.91167807283 0.91168046636 0.9137867495 0.91378764886 0.913788569 0.91378954303 
0.91379059252 0.91379166985 0.91379279934 0.91379402312 0.91379534035 0.9137967084 0.9137981746 0.9137997699 0.91380151123 
0.91380333754 0.91380529023 0.91380742059 0.91380970859 0.91381207125 0.91381457552 0.91381719701 0.91381991073 0.9138226065 
0.91382531592 0.91382800019 0.91383062577 0.91383314797 0.91605298477 0.91605382913 0.91605464814 0.91605558194 0.91605655858 
0.91605758978 0.9160585967 0.91605980349 0.91606106611 0.91606239076 0.91606380037 0.91606540633 0.91606713212 0.91606896562 
0.91607093147 0.9160731493 0.91607548967 0.91607796495 0.91608056975 0.91608337131 0.9160862119 0.9160890791 0.91609193248 
0.91609481595 0.91609757493 0.91610020837 0.90979940074 0.90980045986 0.90980148027 0.90980257842 0.90980372395 0.90980495124 
0.90980617729 0.90980748265 0.90980890408 0.90981041409 0.90981195916 0.90981362203 0.90981546985 0.90981741733 0.90981944751 
0.90982163964 0.90982401187 0.90982649988 0.90982905701 0.90983172704 0.9098345099 0.9098373108 0.90984005102 0.90984278902 
0.90984549245 0.90984806959 0.90802756535 0.90802866553 0.90802975254 0.90803086851 0.90803208229 0.90803334539 0.90803461361 
0.9080359554 0.90803741898 0.90803892278 0.90804049608 0.90804219089 0.90804402058 0.90804592893 0.90804793656 0.90805008292 
0.90805239398 0.90805474519 0.90805722361 0.90805978007 0.90806243876 0.90806506087 0.90806769153 0.90807029432 0.90807289248 
0.90807533489 0.90633319439 0.9063343093 0.90633542912 0.90633664311 0.90633789656 0.90633914306 0.90634045704 0.90634187622 
0.9063433559 0.90634485522 0.90634646064 0.906348207 0.90634999553 0.90635186817 0.90635384703 0.90635600931 0.90635819753 
0.90636047489 0.90636283827 0.9063653431 0.90636781614 0.90637030861 0.90637281352 0.90637535194 0.90637776088 0.90638010321 
0.90474622366 0.90474733728 0.90474850779 0.90474979642 0.90475109284 0.90475235535 0.90475370396 0.90475517042 0.9047566787 
0.90475817657 0.90475978417 0.90476153267 0.9047633474 0.9047651526 0.90476713743 0.90476922325 0.90477139397 0.90477354689 