# vtk DataFile Version 5.1
vtk output
ASCII
DATASET STRUCTURED_POINTS
DIMENSIONS 26 26 26
SPACING 0.08 0.08 0.08
ORIGIN -1 -1 0.5
POINT_DATA 17576
FIELD FieldData 1
potential 1 17576 double
0.0013295900793 0.0013134626489 0.0012979684167 0.0012831367538 0.0012693578246 0.0012558087538 0.0012429262548 0.0012306036857 0.0012186400798 
0.0012071705681 0.0011961176474 0.0011853127268 0.0011747101754 0.0011642069695 0.0011538603544 0.001143639094 0.0011330131351 0.0011226744026 
0.0011122731394 0.0011017854755 0.0010912050113 0.0010806246224 0.0010698903703 0.0010591167801 0.0010483350883 0.0010375829018 0.0013137753477 
0.0012980646332 0.0012830356856 0.0012691003862 0.0012554776115 0.0012425026428 0.0012301842172 0.0012182819646 0.0012069734165 0.0011959672174 
0.0011852501281 0.0011746994515 0.0011642632815 0.0011538209363 0.0011435401259 0.0011328361908 0.0011224232287 0.0011119548639 0.0011014105498 
0.0010907836091 0.0010801698135 0.0010693991583 0.0010585891704 0.001047766684 0.0010369667566 0.0010262260606 0.0012921543948 0.0012769158394 
0.0012628030801 0.0012490390909 0.0012360162436 0.0012236689542 0.0012118467058 0.0012006976725 0.0011899070313 0.0011794338443 0.0011691192888 
0.0011588819186 0.0011486553721 0.0011384187398 0.0011281139554 0.0011174029108 0.0011069532616 0.0010964193275 0.001085797861 0.0010750951556 
0.001064419119 0.0010536005141 0.0010427624467 0.0010319362762 0.0010211579253 0.0010104668058 0.0012661343581 0.001251815751 0.0012378686891 
0.0012247115095 0.0012123376757 0.0012005117654 0.0011894952382 0.0011790008861 0.0011687674256 0.0011588017989 0.0011489106684 0.0011389998083 
0.0011290989726 0.0011189539528 0.001108412599 0.0010981028497 0.0010876768322 0.0010771389674 0.0010665020961 0.0010557838257 0.00104509825 
0.0010342818776 0.0010234627022 0.0010126768522 0.0010019595298 0.00099135280265 0.0012373899898 0.0012236223168 0.0012102774424 0.0011977631351 
0.0011858738221 0.0011749278744 0.0011645676762 0.0011546697445 0.0011450021605 0.0011355189206 0.0011260312 0.0011164482412 0.0011067304176 
0.001096497164 0.0010864498996 0.0010762385521 0.0010658808683 0.0010553919997 0.0010447932702 0.0010342131524 0.001023470815 0.0010127031853 
0.0010019455897 0.00099123513112 0.00098061572164 0.00097012771023 0.00120795787 0.0011943770867 0.0011816546521 0.0011696511301 0.001158591341 
0.0011482770923 0.0011385480406 0.0011291664377 0.0011200675602 0.0011110200126 0.0011018926991 0.0010926866483 0.0010831166713 0.0010730834308 
0.0010631972651 0.001053109815 0.0010428532776 0.0010324521831 0.0010219335941 0.0010114317761 0.0010007710487 0.00099009256701 0.00097943608304 
0.00096884187588 0.00095835355543 0.00094801597705 0.001178438739 0.0011654577816 0.0011533641997 0.0011420353859 0.0011315963602 0.0011219067188 
0.0011127540459 0.0011038801717 0.0010952216865 0.0010865413445 0.0010777940006 0.0010687455038 0.0010590487198 0.0010495315254 0.0010397922376 
0.0010298367138 0.0010196979737 0.0010094094984 0.0009990004702 0.00098861331118 0.00097806798914 0.00096751279582 0.00095698961472 0.00094654172089 
0.00093621363327 0.00092628839621 0.00115028544 0.0011379399531 0.0011263364178 0.0011157055327 0.0011059246912 0.0010968016354 0.0010881596821 
0.0010797225467 0.0010714248473 0.0010631112635 0.0010545057624 0.0010453116548 0.0010361227235 0.0010267477097 0.0010171350278 0.0010073019915 
0.00099728559654 0.00098711928875 0.00097683853695 0.00096658744332 0.00095618256675 0.00094577802324 0.00093541511915 0.00092514083613 0.00091499826862 
0.00090527515824 0.0011242719314 0.0011123678119 0.0011015141068 0.0010914824674 0.0010822646904 0.0010736528935 0.001065448954 0.0010573700338 
0.0010494280745 0.0010412388908 0.001032813451 0.0010237524903 0.0010146741039 0.001005399648 0.0009958865311 0.00098615582946 0.00097625360714 
0.00096620940016 0.0009561767283 0.00094595906285 0.00093571095588 0.00092547415452 0.00091529156337 0.00090520788945 0.00089551565667 0.0008857688756 
0.0011006846679 0.001089514729 0.0010792463029 0.0010697807008 0.0010610784339 0.0010529134268 0.0010450087561 0.0010372737501 0.0010295225011 
0.0010214908735 0.0010128215178 0.0010041922512 0.00099517659904 0.00098596280722 0.00097651636842 0.00096686283527 0.00095705081282 0.00094711658485 
0.00093721419089 0.00092714374445 0.0009170596481 0.00090700103248 0.0008970112193 0.00088713427618 0.00087766387693 0.00086814985241 0.0010801458486 
0.0010695481483 0.0010597946 0.0010508886178 0.0010426448975 0.0010348598259 0.0010272288036 0.0010197761701 0.0010121029246 0.0010038021134 
0.00099554103532 0.00098694336125 0.00097795008463 0.00096876154019 0.00095934791259 0.00094974425351 0.00093999953895 0.00093015633873 0.00092037066733 
0.0009104373451 0.00090051466754 0.00089063645134 0.00088084518888 0.00087143692472 0.00086194222166 0.00085253907658 0.0010627025264 0.0010526541907 
0.0010434200524 0.0010349862247 0.0010271364056 0.0010196433717 0.0010123254614 0.0010049415587 0.00099734220655 0.00098907807004 0.00098082546257 
0.00097213893495 0.00096321735811 0.00095402325143 0.00094461580219 0.00093503257984 0.00092533263994 0.00091568237515 0.00090586795282 0.00089605648222 
0.0008862821699 0.00087657710004 0.00086698108477 0.00085778813243 0.00084852407046 0.00083936711567 0.0010484818516 0.0010389490507 0.0010301895702 
0.0010221678803 0.001014631357 0.0010074055443 0.0010002339976 0.00099293029363 0.00098499679926 0.00097708593009 0.00096880526126 0.00096008235936 
0.00095112751937 0.0009419052762 0.00093248208299 0.00092289965565 0.00091322018945 0.00090361646691 0.00089387443409 0.00088416279283 0.00087451760803 
0.00086497169788 0.00085582113143 0.00084657250187 0.00083740090251 0.00082861720828 0.0010375626092 0.0010284560784 0.0010201621121 0.0010124729933 
0.0010052913254 0.00099816601787 0.00099108553657 0.00098344795677 0.0009758580618 0.00096790456226 0.00095956832199 0.00095078724416 0.00094178087757 
0.00093251672744 0.00092306336357 0.00091346564778 0.00090378755473 0.00089421193784 0.00088451961985 0.00087488703554 0.00086534760874 0.00085593690945 
0.00084695071713 0.00083789030919 0.00082893152466 0.00082039054149 0.0010299915612 0.0010213031555 0.0010133452531 0.0010060299166 0.00099890381563 
0.00099195164637 0.00098453913887 0.00097724592607 0.00096959990447 0.00096157423126 0.00095316184635 0.00094430893982 0.00093524010614 0.0009259253643 
0.00091643502563 0.00090681365936 0.00089726180797 0.00088756294956 0.00087790198781 0.00086832494389 0.00085886961337 0.00084984142465 0.00084072622012 
0.00083171011654 0.00082307611216 0.0008147364659 0.0010257748996 0.0010174182585 0.0010098447241 0.001002665668 0.00099566018471 0.00098874797363 
0.00098131741961 0.00097395576166 0.00096622585528 0.00095810584814 0.00094960397158 0.00094067058012 0.00093153490875 0.00092216708078 0.00091263574607 
0.00090298862864 0.00089342778479 0.00088373204351 0.00087409141731 0.00086455371128 0.00085516039145 0.00084622903444 0.00083708926609 0.00082833735128 
0.00081986528432 0.00081170200338 0.0010248127206 0.0010168758571 0.0010094447479 0.0010023901339 0.00099543130822 0.00098813342397 0.00098099424121 
0.00097353066834 0.00096568801958 0.00095745945376 0.00094885752577 0.00093984096322 0.00093064102114 0.00092122491719 0.00091166138581 0.00090213517807 
0.0008924254538 0.00088273186573 0.00087310680423 0.00086359687928 0.00085453738474 0.00084538048275 0.00083632592623 0.00082767909274 0.00081932879013 
0.00081132602553 0.0010272158154 0.001019400212 0.0010120927964 0.0010050140046 0.00099773027603 0.00099071381881 0.00098345445597 0.00097585553377 
0.00096788049685 0.00095953408016 0.00095074313229 0.00094173985724 0.00093248289212 0.00092302743729 0.00091344073608 0.0009039057999 0.00089419576872 
0.00088451090406 0.0008749126774 0.00086542697729 0.00085639220451 0.00084714331038 0.00083828647379 0.00082970893076 0.0008214631438 0.00081357331121 
0.0010325672244 0.0010248472057 0.0010175650851 0.0010100777195 0.0010030632517 0.00099590602217 0.00098848126744 0.00098072596335 0.00097260964736 
0.00096413677456 0.00095525100983 0.00094618034486 0.00093687782581 0.0009273987766 0.00091780510799 0.00090827751983 0.00089859264671 0.00088892805469 
0.00087934389733 0.00087017208952 0.00086074279719 0.00085167148191 0.00084284835225 0.00083432945237 0.00082614646598 0.00081832931946 0.0010405731038 
0.0010328436879 0.0010254838082 0.0010178711691 0.0010106831045 0.0010033338255 0.00099571598394 0.00098778228322 0.00097951600037 0.00097092358747 
0.00096195280767 0.00095282871661 0.00094350144119 0.00093402098334 0.00092459342096 0.00091495467356 0.00090529330235 0.00089566687589 0.00088641313586 
0.00087698661263 0.00086759279466 0.00085854432262 0.00084976133017 0.00084127247837 0.00083312193182 0.0008253402489 0.001050631572 0.0010427796673 
0.0010348138439 0.001027423699 0.0010200001894 0.0010124103742 0.0010045775334 0.00099645846193 0.00098804492172 0.00097934731199 0.00097031047816 
0.00096115612542 0.00095182892665 0.00094238206584 0.00093299847232 0.00092340207197 0.00091379959809 0.00090423421442 0.00089504012107 0.00088552773552 
0.00087630932358 0.00086730389197 0.00085854634395 0.00085007775276 0.00084193926017 0.00083415667687 0.0010618377037 0.0010533911393 0.0010455321596 
0.001037856845 0.0010301484373 0.0010222948711 0.0010142325157 0.0010059282875 0.00099737976059 0.00098859844287 0.00097951915851 0.00097037517105 
0.00096108051102 0.00095183875828 0.00094237512036 0.00093286651868 0.00092335687705 0.00091418093959 0.00090462909307 0.00089532084202 0.00088616714562 
0.00087720639109 0.00086847682909 0.00086002280137 0.00085187319242 0.00084408029509 0.0010726017168 0.0010641476013 0.0010560223372 0.0010480124926 
0.001039989229 0.0010318585353 0.0010235700324 0.0010150956372 0.0010064359862 0.00099750970187 0.00098852212606 0.00097940197206 0.0009701795344 
0.00096103865843 0.00095169100203 0.00094230639415 0.00093292238159 0.00092372002362 0.00091442068949 0.00090521510751 0.00089614134637 0.00088723682791 
0.00087853711206 0.00087009811268 0.00086194791174 0.00085411211879 0.0010821925463 0.00107337053 0.0010648726641 0.00105650611 0.0010481603771 
0.0010397639801 0.0010312686166 0.0010226633796 0.0010139251934 0.0010049656907 0.00099601369541 0.00098697676503 0.00097787199281 0.00096887713816 
0.00095969003434 0.00095047259564 0.00094155392728 0.0009322095258 0.00092305151965 0.00091396816309 0.00090499482462 0.00089615830765 0.00088751538353 
0.0008790965817 0.00087094693596 0.00086308102548 0.0010886923996 0.0010794949515 0.0010706257072 0.00106191308 0.0010532683303 0.0010446448817 
0.0010359779796 0.0010272585458 0.0010184844191 0.0010095549299 0.0010006864782 0.0009917819323 0.00098301189609 0.00097404761833 0.00096507021532 
0.0009563727224 0.00094721525659 0.00093820705003 0.00092922396681 0.00092028411841 0.00091143678999 0.00090270611515 0.00089413131288 0.00088575361783 
0.00087760230876 0.00086978485454 0.0010907049351 0.0010812273996 0.0010720232859 0.0010630163073 0.001054118664 0.0010452925401 0.0010365055709 
0.0010277371662 0.0010189817988 0.0010101329676 0.0010014030768 0.00099268406366 0.00098413835285 0.00097542271224 0.00096669947033 0.000958129498 
0.00094936571005 0.00094059151522 0.00093181060592 0.00092305946088 0.00091435980534 0.00090574518347 0.00089726094231 0.00088892991568 0.00088079708457 
0.00087296410969 0.0014683770475 0.0014509594703 0.0014341370467 0.0014179295445 0.0014027205439 0.0013876869178 0.0013732704032 0.0013593765835 
0.0013458216854 0.0013327589401 0.0013201266006 0.0013077654011 0.0012956435625 0.0012836572911 0.0012718717737 0.0012602627172 0.0012483083218 
0.0012367058607 0.0012251100233 0.0012134979756 0.0012018614392 0.0011902889625 0.0011786209103 0.001166964855 0.0011553446487 0.0011437902955 
0.0014533635024 0.0014363302951 0.0014199274951 0.0014045560302 0.0013894295265 0.0013748836712 0.0013609370596 0.0013473687697 0.0013343814855 
0.0013217126586 0.0013093696605 0.0012972449011 0.0012852937337 0.0012733982015 0.0012617277081 0.0012496985927 0.0012380258385 0.001226364394 
0.0012146936409 0.00120300523 0.0011913914915 0.0011796778402 0.001167975813 0.0011563059408 0.0011446961381 0.0011331759785 0.0014339903341 
0.0014173872266 0.0014018428843 0.0013865711154 0.001371956367 0.0013579362518 0.0013443762822 0.0013314506386 0.0013188803442 0.0013066600457 
0.0012946589422 0.0012828122611 0.0012710600102 0.001259381088 0.0012477142643 0.0012357179641 0.0012240556178 0.0012123785605 0.0012006800653 
0.0011889623704 0.0011773285149 0.001165603977 0.001153905642 0.0011422586008 0.00113069178 0.0011192376441 0.0014111841154 0.0013954500072 
0.0013800066698 0.001365259345 0.0013511962172 0.00133758804 0.001324716868 0.0013123313262 0.0013002146989 0.0012884179318 0.0012767756211 
0.0012652148337 0.0012536978746 0.0012421792512 0.0012302883976 0.0012187161863 0.0012071059344 0.0011954573843 0.0011837767241 0.0011720755182 
0.0011604618309 0.0011487655498 0.0011371087014 0.0011255205345 0.0011140294439 0.0011026702857 0.001386082571 0.0013708423951 0.0013559290658 
0.0013417373245 0.0013280580286 0.0013152194912 0.001302892337 0.0012909972492 0.0012793543846 0.0012679647245 0.0012566732935 0.0012454055094 
0.0012341225106 0.0012224384807 0.0012110445981 0.0011995806085 0.0011880553566 0.0011764746536 0.0011648521336 0.0011533087312 0.0011416567386 
0.0011300260063 0.0011184449071 0.0011069435365 0.0010955586546 0.0010843232621 0.0013602495881 0.0013451346641 0.0013307679157 0.0013169982117 
0.0013040494635 0.0012917397957 0.0012799447081 0.0012684787116 0.0012573343335 0.0012463291489 0.001235363285 0.001224450075 0.001213303281 
0.0012018207414 0.0011905826561 0.0011792474094 0.0011678303722 0.0011563464751 0.0011448139155 0.0011333587179 0.001121797673 0.0011102643349 
0.0010987910687 0.0010874107698 0.0010761593494 0.0010650745278 0.0013339539781 0.0013193734438 0.0013055582082 0.0012923752972 0.001279955668 
0.0012681803419 0.0012568817981 0.0012458606812 0.0012351135027 0.0012244521642 0.0012138524431 0.0012030937078 0.0011918218949 0.0011808524869 
0.0011697710473 0.0011585715928 0.0011472759544 0.0011359074941 0.0011244872068 0.0011131486003 0.0011017052084 0.0010902962925 0.0010789564963 
0.0010677213918 0.0010566276501 0.001045949898 0.001308464531 0.0012944517275 0.0012810496309 0.0012684822606 0.0012566372365 0.0012453539649 
0.0012345079861 0.0012238865951 0.0012134841181 0.0012031880858 0.0011927433556 0.001181855196 0.0011711075459 0.0011602949175 0.0011493513753 
0.0011382815413 0.0011271117736 0.0011158664968 0.0011046852253 0.001093368206 0.0010820612874 0.0010707980399 0.0010596130513 0.0010485451558 
0.0010376293072 0.001027144081 0.0012844852656 0.0012708456249 0.001258118049 0.001246072805 0.0012347192057 0.0012238896833 0.0012133802248 
0.0012031694521 0.0011931305356 0.001182981587 0.0011727472353 0.0011620252361 0.0011514191058 0.0011407335715 0.0011299101538 0.0011189588941 
0.0011079075432 0.0010967877381 0.0010857402642 0.0010745633726 0.0010634053564 0.0010523011575 0.0010412863601 0.001030398086 0.0010199203181 
0.0010093980232 0.0012623027441 0.0012493284957 0.0012371166004 0.0012255647748 0.0012146673489 0.0012042442748 0.0011940832509 0.0011841594825 
0.00117433914 0.0011643877017 0.0011539552353 0.0011437101411 0.0011332093365 0.0011226216413 0.0011118951112 0.0011010415729 0.0010900976408 
0.0010790932626 0.0010681760467 0.0010571413005 0.0010461382877 0.0010352005791 0.0010243651639 0.0010136689625 0.0010033971027 0.00099309122625 
0.0012425688446 0.0012300989053 0.0012183311034 0.0012072799084 0.0011967946444 0.001186727905 0.001176843006 0.0011672276047 0.0011575279297 
0.0011473606591 0.0011373917477 0.0011272331535 0.0011168049232 0.0011062878671 0.0010956326199 0.0010848591073 0.0010740049676 0.0010631043992 
0.0010523094632 0.0010414097325 0.0010305602608 0.0010197908069 0.0010091387447 0.00099889359761 0.00098857905119 0.00097836392138 0.0012253681498 
0.0012133813772 0.0012020695186 0.0011914384103 0.0011813140975 0.0011714657639 0.001161978835 0.0011524694817 0.0011429020525 0.001132832089 
0.0011229336909 0.0011127456181 0.001102444478 0.00109197275 0.0010813680083 0.0010706523465 0.0010598724587 0.0010491860233 0.0010383737838 
0.0010275994932 0.0010168941952 0.001006287884 0.00099581591373 0.00098576790976 0.00097566334776 0.000965671861 0.0012108574711 0.0011993232312 
0.0011884294331 0.0011781685133 0.0011683384782 0.0011588313066 0.0011494577784 0.0011400840627 0.0011302425398 0.0011205920022 0.0011107310694 
0.0011005686508 0.0010902923914 0.0010798454034 0.0010692718287 0.0010585992628 0.0010478748598 0.0010372627639 0.001026542369 0.0010158782632 
0.0010053041445 0.00099485092648 0.00098481234006 0.00097469175058 0.00096465878441 0.00095501679384 0.0011991322282 0.0011879654364 0.0011774897388 
0.001167530808 0.001158050973 0.0011486667237 0.0011394300539 0.0011297842283 0.0011203546946 0.0011107311924 0.0011008815048 0.001090723225 
0.0010804527715 0.0010700161648 0.0010594616895 0.0010488172771 0.0010382663946 0.0010275829551 0.001016938275 0.0010063712434 0.00099591210231 
0.0009855951529 0.00097571385989 0.00096576780738 0.00095592869495 0.00094650622392 0.0011902396888 0.0011794388664 0.0011692604633 0.0011596595631 
0.0011502457157 0.0011410708866 0.0011315593493 0.0011223261991 0.001112913192 0.001103288598 0.0010934293593 0.0010832604184 0.0010729836061 
0.0010625478952 0.0010520036989 0.0010413798291 0.0010308626358 0.0010202247345 0.0010096419476 0.00099915528034 0.00098879656427 0.00097887097857 
0.0009688610532 0.00095895149945 0.00094942248195 0.00094018296543 0.0011841462296 0.0011736578827 0.001163842469 0.0011543727721 0.0011451050322 
0.0011360200929 0.0011265569279 0.0011173296561 0.0011079079235 0.001098260223 0.0010883767824 0.0010781863838 0.0010678961283 0.0010574561871 
0.0010469160227 0.001036308601 0.0010258220202 0.0010152240948 0.0010046954934 0.00099427678332 0.00098400402808 0.00097419019029 0.00096416465704 
0.00095451929072 0.00094514416891 0.00093606410426 0.0011807899648 0.0011706696758 0.001160984293 0.0011516581367 0.001142478781 0.0011330710441 
0.0011239737927 0.0011147232134 0.0011052653347 0.001095579496 0.0010856591899 0.0010754417757 0.0010651373541 0.0010546945522 0.001044163827 
0.0010337163552 0.0010231181617 0.0010125582019 0.0010020789548 0.00099171848799 0.00098180760058 0.00097179133142 0.00096186680693 0.00095233515657 
0.00094308246775 0.00093415583402 0.0011801736857 0.0011701635699 0.0011606113103 0.001151296973 0.0011418513728 0.0011327994664 0.0011236642929 
0.0011143607339 0.0011048471114 0.0010951122448 0.0010850634271 0.0010749118392 0.0010645966009 0.0010541557714 0.0010436393974 0.0010332184448 
0.0010226539478 0.001012135413 0.0010017148946 0.00099141077512 0.00098155365039 0.00097147251178 0.00096176780693 0.00095232225757 0.00094318403659 
0.00093437272 0.001181866714 0.0011719641278 0.0011624706777 0.0011528045248 0.0011437033549 0.0011345967552 0.001125385515 0.0011160101018 
0.001106428042 0.0010966362805 0.001086549613 0.0010763786338 0.0010660600855 0.0010556322931 0.0010451416671 0.0010347586238 0.0010242486019 
0.0010137794441 0.0010034025228 0.0009934413854 0.00098321935375 0.00097334429325 0.00096370003049 0.00095433654003 0.0009452797678 0.0009365540932 
0.001185563619 0.001175692088 0.0011661813211 0.0011564692462 0.0011472870484 0.0011380859315 0.0011287753254 0.001119307165 0.001109652927 
0.0010998017549 0.0010896826825 0.0010795024788 0.001069195099 0.0010587962856 0.0010484996792 0.0010380307611 0.0010275684889 0.0010171600082 
0.0010071400822 0.00099695078456 0.00098679174764 0.00097696799094 0.00096739253582 0.00095808693751 0.00094908832671 0.00094041992926 0.0011907102573 
0.0011807892015 0.0011707627515 0.0011613755942 0.0011520663135 0.0011427316314 0.0011333030832 0.001123735117 0.0011140052955 0.00110410781 
0.0010939700847 0.0010837974614 0.0010735204724 0.0010631800009 0.0010529475663 0.0010425389934 0.0010321557446 0.0010218288501 0.0010118868854 
0.0010016337487 0.00099167446571 0.00098192033988 0.00097239891735 0.00096314372505 0.00095418745033 0.00094554856724 0.0011965512589 0.001186142892 
0.0011763408113 0.0011667923374 0.0011573199726 0.0011478336675 0.0011382745878 0.0011286050362 0.0011188078816 0.0011088799233 0.0010987406378 
0.0010886091664 0.0010783876989 0.0010682695199 0.0010579716886 0.0010476636977 0.0010373829184 0.0010274575923 0.0010171728621 0.0010071407783 
0.00099726621376 0.00098758027411 0.00097811423435 0.00096890292925 0.00095996859271 0.00095135446159 0.0012017809379 0.0011915005411 0.0011815734898 
0.0011718299462 0.001162170074 0.0011525247347 0.0011428369707 0.001133075241 0.0011232282081 0.0011132009729 0.0011031863288 0.0010931010145 
0.0010829660217 0.0010729572303 0.001062780303 0.0010525995618 0.0010424480554 0.0010325017405 0.001022477179 0.0010125593111 0.0010027799975 
0.00099316988429 0.00098375718993 0.00097458995049 0.00096568720714 0.00095706857461 0.0012060791754 0.0011955850957 0.0011854398271 0.0011754858877 
0.0011656376437 0.0011558355462 0.001146032363 0.0011362119187 0.0011263379969 0.0011163144058 0.0011063581723 0.0010963681441 0.0010863544223 
0.0010764894357 0.0010664676367 0.001056447844 0.0010467560356 0.0010366651873 0.0010267828305 0.0010169924226 0.0010073234596 0.00099779651251 
0.00098846305108 0.00097933980209 0.00097046980914 0.0009618577689 0.0012079995627 0.0011972883142 0.001186926025 0.0011767685899 0.0011667458848 
0.0011568200922 0.0011469269981 0.0011370518927 0.0011271850138 0.0011172168811 0.0011073563573 0.0010974980209 0.0010878101963 0.001077961371 
0.0010681318811 0.0010586141006 0.0010486689401 0.0010389019505 0.0010291877449 0.0010195395641 0.001010001121 0.0010005901482 0.00099133891841 
0.00098228082863 0.00097343798671 0.00096490978375 0.0012065700899 0.0011957265975 0.0011851718797 0.0011748492028 0.0011646842063 0.0011546453972 
0.0011447001492 0.0011348240098 0.0011250050189 0.0011151301149 0.0011054056922 0.0010957199885 0.0010862338529 0.001076605242 0.0010669989503 
0.0010575787397 0.0010480000669 0.0010384464915 0.0010289202413 0.0010194523774 0.0010100604169 0.0010007708404 0.00099162176243 0.00098262868765 
0.00097382861026 0.00096531719479 0.0016115905696 0.0015927988814 0.0015745756674 0.0015569335263 0.0015402515993 0.0015237076737 0.0015077475126 
0.0014922855872 0.0014771501303 0.0014625069214 0.0014483058494 0.0014343972769 0.0014207565805 0.0014072861503 0.0013940568082 0.0013810503351 
0.0013677512755 0.0013548614346 0.0013420388808 0.0013292621136 0.001316521868 0.0013039036427 0.0012912435408 0.0012786435087 0.0012661211925 
0.001253700524 0.0015967727022 0.0015783416279 0.0015605041062 0.0015436535728 0.0015270018564 0.0015108855517 0.0014953320453 0.0014801335226 
0.0014655103423 0.0014512179371 0.0014372792913 0.0014235983777 0.0014101389353 0.0013967842252 0.0013837099935 0.0013703338991 0.0013573721521 
0.0013444813298 0.0013316411092 0.0013188421117 0.0013061741154 0.001293459034 0.0012808033557 0.0012682226605 0.0012557382573 0.0012433735122 
0.0015786529327 0.0015606198134 0.0015435977231 0.0015267940206 0.0015105907475 0.0014949299529 0.0014796892078 0.0014650612591 0.0014507903333 
0.0014368941027 0.0014232608914 0.0014098389766 0.0013965754091 0.0013834517705 0.0013704076575 0.0013570987112 0.0013441911391 0.001331325782 
0.0013185008785 0.0013057142978 0.0012930646866 0.0012803732429 0.0012677515978 0.0012552191762 0.0012427988627 0.0012305167445 0.0015578552625 
0.0015406519752 0.0015236813314 0.0015073418386 0.0014916200861 0.0014762957558 0.0014616886492 0.0014475020591 0.0014336178895 0.001420090956 
0.0014067771733 0.0013936177166 0.001380580109 0.0013676220113 0.0013543674772 0.0013415069774 0.0013286765526 0.0013158729021 0.0013030977802 
0.0012903581343 0.0012777576436 0.0012651195144 0.0012525631428 0.0012401067038 0.0012277773258 0.0012156014423 0.0015351695949 0.0015184159736 
0.0015019208177 0.0014860724526 0.0014706630742 0.001456031005 0.0014418682814 0.0014281244714 0.0014146522472 0.0014014841671 0.0013884868663 
0.0013755988256 0.0013627865609 0.0013496632893 0.0013369149761 0.0013241760948 0.0013114491694 0.0012987337599 0.0012860397264 0.0012734770441 
0.0012608575049 0.0012483028581 0.001235835905 0.001223482006 0.0012112665011 0.0011992206515 0.0015118342061 0.0014951581733 0.0014791522027 
0.0014636606497 0.0014489109069 0.0014347358152 0.0014210364294 0.0014076612416 0.0013946387291 0.0013818181469 0.0013691219245 0.0013565748648 
0.0013438938331 0.0013309735563 0.0013183869888 0.0013057871167 0.0012931804165 0.0012805752463 0.0012679827625 0.0012555233339 0.0012430066921 
0.001230560254 0.0012182099813 0.0012059822343 0.0011939063474 0.0011820125677 0.0014878634117 0.0014716711217 0.0014560199037 0.0014411904905 
0.0014269053443 0.0014131995947 0.0013999392819 0.0013869631492 0.0013743047353 0.0013618071878 0.0013494668084 0.0013370719214 0.0013242692039 
0.001311874211 0.0012994466804 0.0012869910417 0.0012745148336 0.0012620338614 0.0012495620984 0.0012372261993 0.0012248333826 0.0012125162565 
0.0012003030821 0.0011882219533 0.0011763033621 0.0011648140231 0.0014643556329 0.0014486793603 0.0014335225815 0.0014191113228 0.0014053385702 
0.0013920732009 0.0013792231758 0.0013666174656 0.0013542881309 0.0013421517483 0.0013299711083 0.0013174569287 0.0013051912852 0.0012929603035 
0.0012806895526 0.0012683745583 0.0012560332613 0.0012436824946 0.0012314550965 0.0012191439107 0.0012068893763 0.0011947182672 0.0011826585732 
0.0011707422853 0.0011589972064 0.0011476940944 0.001441920789 0.0014265660525 0.0014120284554 0.0013980820032 0.0013847517675 0.001371899002 
0.0013593580761 0.0013471508811 0.0013351851382 0.001323207719 0.0013112560785 0.0012989306904 0.0012868290314 0.0012747466699 0.0012626147968 
0.0012504336271 0.0012382221794 0.0012260046031 0.0012139149999 0.0012017458256 0.0011896393719 0.0011776244023 0.0011657303125 0.0011539874627 
0.0011426724218 0.0011313228582 0.0014208057955 0.0014060683784 0.0013919917813 0.0013784896191 0.0013655743358 0.0013530994061 0.0013408938439 
0.0013290513522 0.0013172438385 0.0013054893925 0.0012933689548 0.0012815533374 0.0012695887571 0.0012576334236 0.0012456237628 0.00123356089 
0.0012214723588 0.0012093806702 0.0011974270855 0.0011854016885 0.001173448377 0.0011615953222 0.0011498737104 0.0011383140973 0.0011271943133 
0.0011160488337 0.001401655567 0.0013873703659 0.0013736920925 0.0013606491401 0.0013481147525 0.0013359793806 0.0013240500738 0.0013124549321 
0.0013008721602 0.0012889373167 0.0012773209686 0.0012656312215 0.0012537779448 0.0012419288055 0.0012300216827 0.001218064948 0.0012060866341 
0.0011942356943 0.0011822908425 0.0011704040644 0.0011586032272 0.0011469137238 0.0011353675781 0.0011242483257 0.0011130735983 0.0011020045142 
0.0013845610967 0.0013707124335 0.0013574479107 0.0013447901684 0.0013325956267 0.0013206741385 0.0013091546577 0.0012976924688 0.0012859208706 
0.0012744861639 0.0012629858121 0.0012513124763 0.0012396296386 0.0012278661718 0.0012160454873 0.0012041775311 0.0011922987585 0.0011805581284 
0.0011687321189 0.0011569778221 0.0011453228135 0.0011337930488 0.0011224196296 0.0011114868248 0.0011005086484 0.0010896474282 0.0013696892462 
0.0013562501659 0.0013433670594 0.0013310537845 0.0013191429248 0.0013075690854 0.0012961861993 0.0012848960642 0.001273254585 0.001261929259 
0.0012505175034 0.0012389190127 0.0012273075715 0.0012156118844 0.0012038613988 0.0011920716689 0.0011802771179 0.0011686351197 0.0011569185464 
0.0011452855172 0.0011337670361 0.0011223901015 0.0011114445006 0.0011004301163 0.001089510418 0.0010789825699 0.0013571410185 0.0013440315638 
0.0013315366009 0.0013195099116 0.0013079492811 0.0012965160662 0.0012853029631 0.001273785584 0.0012626080732 0.001251362162 0.0012400148207 
0.0012284713799 0.0012169136229 0.0012052724556 0.0011935815963 0.0011818559294 0.0011702676261 0.0011585818071 0.0011469625029 0.0011354423518 
0.0011240500361 0.0011128129709 0.0011020233801 0.0010910416012 0.001080448786 0.0010701161752 0.0013469624786 0.0013341884182 0.0013219734666 
0.0013102953339 0.0012988123539 0.0012876164958 0.0012761709744 0.0012651169884 0.0012540103788 0.001242820907 0.0012315184518 0.0012200156432 
0.0012084992153 0.001196902356 0.0011852630228 0.0011735950672 0.0011620740711 0.0011504635213 0.001138931064 0.0011275126825 0.0011162344264 
0.0011053977285 0.0010944841249 0.0010836695369 0.0010732349636 0.0010630825445 0.0013390649879 0.001326627813 0.0013147635051 0.0013032251962 
0.0012919109338 0.001280843059 0.0012694961846 0.0012585048664 0.0012474484109 0.0012362935972 0.0012250215577 0.0012135479223 0.0012020646079 
0.0011905077773 0.0011789103013 0.0011672954099 0.0011558386242 0.0011442986861 0.0011328480861 0.001121520773 0.0011103474146 0.001099636266 
0.0010887137691 0.0010781675731 0.0010678840322 0.0010578832087 0.0013335113694 0.0013213856411 0.0013096543352 0.001298278404 0.0012870874572 
0.001275745878 0.0012648213649 0.0012538683319 0.0012428369662 0.0012317023142 0.0012204473267 0.0012089957957 0.0011975428903 0.0011860230054 
0.0011744732643 0.0011630524642 0.0011515167162 0.0011400449271 0.0011286716311 0.0011174284607 0.0011066379443 0.0010957427538 0.0010849347065 
0.0010745105778 0.0010643530997 0.0010545029933 0.0013301524707 0.0013181412312 0.0013065609111 0.0012952300527 0.0012838206605 0.0012728926537 
0.001261994447 0.0012510533656 0.0012400289222 0.0012289032377 0.0012175722912 0.0012062333033 0.0011948114341 0.001183331183 0.0011718301887 
0.0011604679462 0.001148995723 0.0011375938648 0.0011263063805 0.0011151445343 0.0011044321786 0.0010934934045 0.0010829228754 0.0010725987244 
0.001062566487 0.0010528349418 0.0013286021351 0.0013167202992 0.0013052338596 0.0012936008927 0.0012825952183 0.0012716800305 0.0012607756957 