# vtk DataFile Version 5.1
vtk output
ASCII
DATASET STRUCTURED_POINTS
DIMENSIONS 26 26 26
SPACING 0.08 0.08 0.08
ORIGIN -1 -1 0.5
POINT_DATA 17576
FIELD FieldData 1
potential 1 17576 double
0.0030760557653 0.0031359345166 0.0031955803378 0.0032547687983 0.00331343745 0.0033714750754 0.003429085947 0.0034862228188 0.0035433294432 
0.0036008558159 0.0036592622388 0.0037195075125 0.0037821792146 0.0038480247805 0.0039177938065 0.0039922087139 0.0040717999652 0.0041570761929 
0.0042483784174 0.0043458777399 0.0044496093276 0.0045594846478 0.0046753482969 0.0047968126154 0.0049235734222 0.0050552013038 0.0030295182042 
0.003087962664 0.0031460992143 0.0032036805241 0.0032606732579 0.0033169639931 0.0033725970395 0.0034278263818 0.0034831335591 0.0035387983017 
0.0035955704393 0.0036541601195 0.0037152991033 0.0037795648279 0.0038479511247 0.0039209632191 0.0039990474787 0.0040826451645 0.0041720452412 
0.0042673895011 0.0043686980342 0.0044758757579 0.0045887996343 0.0047070775913 0.004830423067 0.0049584227823 0.0029705603528 0.0030272028287 
0.0030836806625 0.0031395638637 0.0031946536579 0.0032489982025 0.0033026166074 0.0033557454287 0.0034087533105 0.0034623763079 0.0035170145546 
0.0035735214616 0.003632637543 0.0036950744167 0.0037614815492 0.0038324730849 0.0039082782216 0.0039896032566 0.0040765396171 0.0041692038782 
0.0042676045389 0.004371644997 0.0044811478644 0.0045959016278 0.0047154761051 0.0048395150609 0.0029016782551 0.0029568330961 0.0030113109024 
0.0030653300812 0.0031185308607 0.0031708046489 0.0032223578785 0.0032733391067 0.0033241773436 0.0033754134083 0.0034278933476 0.0034820900837 
0.0035388615954 0.0035989117345 0.0036628637371 0.0037313070169 0.0038046049096 0.0038831206257 0.0039670627307 0.0040565499726 0.0041514192244 
0.0042518873987 0.0043576250525 0.0044684296307 0.0045838720038 0.0047036249705 0.0028265325012 0.0028798996168 0.002932749114 0.0029846620777 
0.0030359192171 0.0030862125097 0.0031357380015 0.0031846939288 0.003233480654 0.0032826476172 0.0033328062603 0.0033847057689 0.0034391484339 
0.0034966107206 0.0035578190812 0.0036233447304 0.0036935581364 0.0037688130128 0.0038493168064 0.0039351851098 0.0040264121085 0.0041229072765 
0.0042245027035 0.0043308091509 0.0044418524135 0.0045569915929 0.0027485452133 0.0028000749978 0.00285105639 0.002901294565 0.0029504582582 
0.0029989407451 0.0030465789112 0.0030937411973 0.0031407592526 0.0031881131705 0.0032363850005 0.0032862171897 0.0033382201298 0.0033932411731 
0.0034516323381 0.0035140331617 0.0035809430551 0.0036526277434 0.0037293540746 0.0038112351491 0.0038983028691 0.0039904727344 0.0040875908789 
0.0041894195159 0.0042957113486 0.0044059920017 0.0026706824533 0.0027203454323 0.0027694548787 0.0028178529129 0.0028654362598 0.0029120055025 
0.0029581145594 0.0030037054989 0.0030493033348 0.0030952424324 0.003142012134 0.0031901392767 0.0032402059535 0.003292758399 0.0033485553838 
0.0034078962519 0.0034714014906 0.0035393760482 0.0036121095777 0.0036897687925 0.0037724031436 0.0038599641442 0.0039523210401 0.0040492559334 
0.0041504805064 0.004255697996 0.0025952260657 0.002643017156 0.0026902967728 0.0027369198215 0.0027828216924 0.0028280630597 0.0028727959276 
0.0029170756677 0.0029615175421 0.0030064422243 0.0030521357856 0.0030990131555 0.0031475270465 0.0031981918296 0.0032515091537 0.0033079909472 
0.0033683253267 0.003432598243 0.0035012834133 0.0035745921382 0.0036526196469 0.0037353858588 0.003822767244 0.003914591026 0.0040105879987 
0.0041104318349 0.0025238812342 0.0025697927712 0.0026152704206 0.00266019068 0.0027045463074 0.0027484223749 0.0027920043388 0.0028355428683 
0.0028790197319 0.0029232697822 0.0029682860083 0.0030143458041 0.0030617802184 0.0031109865539 0.0031623830906 0.0032164497466 0.0032736812376 
0.0033345863269 0.0033993376224 0.0034683283063 0.0035417148384 0.003619568005 0.0037018435866 0.003788399102 0.003879007236 0.0039733764804 
0.0024577850851 0.0025018458115 0.0025455664546 0.0025888730343 0.0026317907603 0.002674453742 0.0027170676165 0.0027598800384 0.0028031330418 
0.0028466934238 0.002891341157 0.0029369561092 0.0029837346033 0.0030319452108 0.0030819223584 0.0031340361765 0.0031887265673 0.0032464736244 
0.0033075639768 0.0033725242156 0.0034413823413 0.0035143603108 0.0035915039669 0.0036727277514 0.003757856849 0.0038466277706 0.0023977749441 
0.0024400019708 0.0024820244539 0.0025237854919 0.0025653716872 0.0026069540382 0.0026487553517 0.0026910076337 0.002733908513 0.0027775688057 
0.0028219874121 0.0028672380593 0.0029136971436 0.002961332028 0.0030103460424 0.0030610375736 0.0031137323784 0.0031688849351 0.0032267976131 
0.0032878958226 0.0033525470187 0.0034208304607 0.0034929403611 0.0035688691845 0.003648512053 0.0037316632997 0.0023444122901 0.0023848489134 
0.0024252200911 0.0024655208572 0.0025058759707 0.0025464909288 0.0025875976655 0.0026294069318 0.0026720683791 0.0027156624587 0.0027601899644 
0.0028055504998 0.0028517602005 0.002899141158 0.0029476075705 0.0029973270598 0.0030485757274 0.003101691737 0.003156952122 0.0032147719296 
0.0032755033978 0.0033393905824 0.0034067954031 0.0034775884734 0.0035518413884 0.0036294243362 0.0022985188688 0.0023368019937 0.002375587911 
0.0024145131023 0.0024537341847 0.0024934806764 0.0025339856942 0.0025754341807 0.0026179346637 0.0026615075447 0.002706130697 0.0027517138748 
0.0027980975463 0.0028452623186 0.0028934848176 0.0029426532377 0.002992930009 0.0030445158408 0.0030977491202 0.0031528821921 0.0032103010918 
0.0032703241263 0.0033332124141 0.0033992379195 0.0034683196973 0.003540488301 0.0022595673062 0.0022966124068 0.0023334646395 0.0023710947151 
0.0024092779371 0.0024482462167 0.0024882230392 0.0025293691159 0.0025717437746 0.0026153299119 0.0026600604316 0.0027057998148 0.0027523398425 
0.0027997785631 0.0028479606003 0.0028966829843 0.0029463683211 0.0029969690285 0.003048710493 0.0031017690583 0.0031564917164 0.0032132090973 
0.0032722132998 0.0033337596079 0.0033980276288 0.0034651344272 0.0022282069971 0.002263660128 0.0022994961513 0.0023359405173 0.0023727864582 
0.0024110564657 0.0024505672991 0.0024914362774 0.0025336946539 0.0025772842476 0.0026220926416 0.0026679857266 0.0027147892328 0.0027622656765 
0.0028105007704 0.0028593274869 0.0029085285206 0.0029585073747 0.0030092452747 0.0030608053015 0.0031134781244 0.003167541643 0.0032233030271 
0.0032810421753 0.0033409860596 0.0034033041342 0.0022041817662 0.0022385173355 0.0022730789122 0.0023084415555 0.0023448329849 0.0023824969048 
0.0024212082632 0.0024618250027 0.0025039584988 0.0025475189005 0.0025923693345 0.0026383531144 0.0026852729002 0.0027329671111 0.0027811768904 
0.00282999947 0.0028792477207 0.0029288813876 0.0029787525315 0.0030293592379 0.003080561143 0.0031326309827 0.0031858199234 0.0032404122051 
0.0032966668742 0.0033548130122 0.0021882681516 0.0022209080796 0.0022546870559 0.0022890932533 0.0023247536512 0.0023618726317 0.0024006008508 
0.0024406092125 0.002482595542 0.0025260780458 0.0025708999688 0.0026168833813 0.0026638517104 0.0027115943079 0.0027599546848 0.0028086752543 
0.0028578582133 0.0029072995635 0.0029569679729 0.0030067615705 0.0030569800957 0.0031076349527 0.0031589218079 0.0032110757503 0.0032643516777 
0.0033190169348 0.0021799530785 0.0022114314386 0.0022438780876 0.0022774735639 0.0023128918607 0.0023495591722 0.0023879610758 0.0024280949648 
0.002469899243 0.0025128818871 0.0025576002754 0.0026034952492 0.0026503813657 0.0026980799404 0.0027463917595 0.0027951683255 0.0028441619519 
0.0028934719398 0.0029429038061 0.0029924607925 0.0030420653751 0.0030916272469 0.0031416079768 0.0031920081035 0.0032430482866 0.0032949689196 
0.0021787952533 0.0022093791404 0.0022410544624 0.0022740344685 0.0023086141713 0.0023449153674 0.0023833658546 0.0024232649569 0.0024648497248 
0.0025079779191 0.0025524781259 0.0025978194447 0.0026445111625 0.0026920209484 0.0027401580601 0.0027887727867 0.0028377227048 0.0028867603668 
0.0029359998829 0.0029852432404 0.0030344950893 0.0030836625949 0.003132814749 0.0031818990867 0.0032313921312 0.003281339738 0.0021840407165 
0.0022139826389 0.002245122564 0.0022776868917 0.0023119242579 0.002347961065 0.0023858336248 0.002425805635 0.0024671281445 0.0025099422361 
0.0025541230604 0.0025994703103 0.0026458059071 0.0026926251046 0.0027404418501 0.0027887572165 0.0028374243697 0.0028863166702 0.0029352115448 
0.0029842243079 0.0030332037723 0.0030820119466 0.0031306930859 0.003179252514 0.0032276391447 0.0032763095308 0.0021944123199 0.0022240119998 
0.0022548709247 0.0022872350694 0.0023212641818 0.0023570965044 0.0023947390758 0.002434126524 0.0024751241155 0.002517885263 0.0025616246103 
0.0026064878605 0.0026523101754 0.0026989348475 0.0027458977118 0.0027937144943 0.0028419338598 0.0028904301719 0.002939099838 0.0029877170769 
0.0030364044814 0.0030850159206 0.0031334147199 0.0031816363674 0.0032296895443 0.0032776681141 0.0022077653286 0.0022375439809 0.0022683703351 
0.0023007012811 0.0023346679488 0.0023703909129 0.0024078205906 0.0024468985889 0.0024875032113 0.0025294658617 0.0025726310321 0.0026171515929 
0.0026622800107 0.0027081849403 0.002754752521 0.002801882538 0.0028491455767 0.0028970652092 0.0029452312503 0.0029935479934 0.0030418988867 
0.0030901870033 0.0031384064394 0.0031864608413 0.0032343450304 0.0032820740678 0.002221994406 0.0022519733016 0.0022829920172 0.0023154524886 
0.0023494833537 0.002385103602 0.0024223275018 0.0024610586182 0.0025011710712 0.0025425300442 0.0025849778267 0.0026283788577 0.0026726184219 
0.0027178752545 0.002763493357 0.0028096816883 0.0028563828444 0.0029035030032 0.0029506882019 0.0029984356534 0.0030463675572 0.0030943901544 
0.0031423761856 0.0031903477356 0.0032382243202 0.0032859904121 0.0022337550117 0.0022639718188 0.0022955299413 0.0023282271315 0.002362353658 
0.0023979094489 0.0024349053514 0.0024732174534 0.0025127489713 0.0025533553202 0.0025949199583 0.0026373249392 0.0026804616787 0.0027242685968 
0.0027686956175 0.0028139688861 0.0028595392774 0.0029056201111 0.0029521734399 0.0029991440531 0.0030461911138 0.0030937715767 0.0031415770683 
0.0031893535861 0.0032372589587 0.0032851857912 0.0022399072577 0.0022706545264 0.0023024283475 0.0023356030726 0.0023698291369 0.002405293082 
0.0024419935656 0.0024798157918 0.0025186430417 0.002558369402 0.0025988764941 0.0026400751214 0.0026818947326 0.0027242875984 0.0027672562938 
0.0028108101832 0.0028552196863 0.0029000085475 0.0029453932954 0.0029913604118 0.0030378608889 0.00308482272 0.0031319140316 0.0031796072676 
0.0032274128265 0.0032754882632 0.0022376981358 0.0022689669655 0.0023011642793 0.0023345713733 0.0023688469024 0.0024041738665 0.0024404690832 
0.002477691505 0.0025157125737 0.0025544026366 0.0025936862283 0.0026334756119 0.0026737380196 0.0027144732738 0.0027557105092 0.002797526564 
0.0028399997041 0.0028831973341 0.0029274022746 0.0029721225006 0.0030175807567 0.0030637193396 0.0031104682867 0.0031577859547 0.003205284631 
0.0032533517606 0.0033821379161 0.0034470694091 0.0035121941016 0.0035773539483 0.0036425484281 0.0037077194762 0.0037731027249 0.0038386528125 
0.0039047780831 0.003971858021 0.0040402558786 0.0041108202875 0.0041840075515 0.0042604512112 0.0043407744923 0.0044255862479 0.0045153260386 
0.0046104401793 0.004711244175 0.0048179174614 0.0049305315909 0.0050490551143 0.0051734033996 0.0053032698903 0.0054384367137 0.0055785662011 
0.0033346395299 0.0033980887172 0.003461670446 0.0035252075801 0.0035887337753 0.003652191144 0.0037156539897 0.0037793670972 0.0038437500293 
0.0039090075807 0.0039757416008 0.0040445336574 0.0041159835828 0.0041905445666 0.0042691171525 0.0043521071082 0.0044399012316 0.0045329021462 
0.0046313881403 0.0047355160814 0.0048453426634 0.0049608258652 0.0050819069283 0.0052082684843 0.0053397024455 0.0054758807578 0.0032778906221 
0.0033395194864 0.0034014309691 0.0034632976094 0.0035249680453 0.0035865520585 0.0036481111419 0.0037098531411 0.0037720822844 0.0038354165643 
0.0039001085999 0.0039668560356 0.0040362549263 0.0041088938999 0.0041853247065 0.0042660887547 0.0043513693689 0.0044418495726 0.0045376219706 
0.0046388246163 0.004745504524 0.0048576168629 0.004975045783 0.0050976490043 0.0052250717722 0.0053570383408 0.0032134145058 0.0032735569684 
0.0033334962302 0.0033935283542 0.0034533705669 0.0035129742589 0.0035725714924 0.0036322904394 0.003692483723 0.003753567324 0.0038162272634 
0.0038807734531 0.0039479083171 0.0040182067032 0.0040921904151 0.0041703791768 0.0042530954304 0.0043406871316 0.0044333705586 0.0045312898352 
0.0046343225515 0.0047427363021 0.004856263547 0.0049747684321 0.0050978959724 0.0052253965515 0.0031437850727 0.0032021574426 0.0032604962025 
0.0033184643576 0.0033764170568 0.0034341025439 0.0034917365009 0.0035494914739 0.0036076910356 0.0036667547016 0.0037271747128 0.0037895108628 
0.0038544195433 0.0039222403948 0.0039935899796 0.0040689177734 0.0041486744936 0.0042330686182 0.0043223555833 0.004416676271 0.0045160655019 
0.004620484694 0.0047298263673 0.004843768562 0.0049624088426 0.0050851854136 0.0030714632758 0.0031280248343 0.0031845276896 0.0032408560489 
0.0032967474642 0.0033526400168 0.0034083810413 0.0034643051906 0.0035206725453 0.0035778607945 0.0036363287439 0.0036965822881 0.0037590901397 
0.0038245622206 0.0038932297034 0.0039656379413 0.0040422214746 0.004123214108 0.0042088773084 0.0042993424932 0.0043946778399 0.0044948485204 
0.0045997601398 0.0047092417979 0.0048230638697 0.0049409961671 0.0029987255127 0.0030534534286 0.0031081159148 0.0031626270405 0.0032169412241 
0.0032708883246 0.0033250160607 0.0033792271296 0.0034339805357 0.0034895351873 0.0035462875911 0.0036046714349 0.003665153835 0.0037281577068 
0.0037943174614 0.003863823111 0.0039372120557 0.0040147189576 0.0040966225157 0.0041830797886 0.0042741863562 0.0043699156441 0.0044701996648 
0.0045748859495 0.0046837591489 0.0047966016491 0.0029274571226 0.0029803498324 0.003033211708 0.0030859580417 0.003138565566 0.0031911047615 
0.0032437041767 0.0032963712193 0.0033496649885 0.0034038529219 0.0034591728316 0.0035159849703 0.003574668981 0.0036356437992 0.0036992989007 
0.0037660296303 0.0038364166615 0.0039104637298 0.0039885899594 0.0040709841991 0.0041577474445 0.0042489275036 0.0043444493182 0.0044442004874 
0.0045479829955 0.0046555439775 0.0028591828651 0.0029102425249 0.0029613303197 0.0030123725427 0.0030633845689 0.0031144404448 0.0031656851001 
0.00321731289 0.003269259696 0.0033223297177 0.0033765026625 0.0034320433237 0.0034892521483 0.0035484695241 0.0036100279662 0.0036743040142 
0.0037416211555 0.0038125313992 0.00388698471 0.0039653591108 0.0040477952535 0.0041343685934 0.0042250661694 0.0043197965559 0.0044183981824 
0.0045206439971 0.0027950083707 0.0028442679167 0.0028936308064 0.002943044809 0.0029925512444 0.0030422479582 0.0030922842793 0.0031428489104 
0.0031941449452 0.0032460309637 0.0032992988297 0.0033538500885 0.003409890065 0.0034676704202 0.0035274759726 0.0035895959692 0.0036543639145 
0.0037221477841 0.003793128605 0.0038677465839 0.0039459742916 0.0040280102159 0.0041139074248 0.0042036140293 0.0042970093194 0.0043939023394 
0.0027357928833 0.0027832766206 0.0028309658487 0.002878822235 0.002926915585 0.0029753662808 0.0030243293275 0.0030739773523 0.0031244707074 
0.0031759497895 0.0032284252788 0.0032820189474 0.003337155442 0.0033938162245 0.0034521894154 0.0035125292971 0.0035750827309 0.0036402001256 
0.0037080738166 0.0037790195107 0.0038533180798 0.0039309908585 0.0040122074601 0.0040969680414 0.0041852041653 0.0042767690928 0.0026821370126 
0.0027278956748 0.0027739578121 0.0028203381605 0.0028671082029 0.0029144131348 0.0029624106643 0.0030112546717 0.0030610764033 0.0031119744921 
0.0031639979898 0.0032171082075 0.0032713784677 0.0033271777824 0.0033844387104 0.003443319371 0.0035040511125 0.0035668952022 0.0036320288233 
0.0036997577449 0.0037703165548 0.0038438967438 0.0039207172274 0.004000704019 0.0040839104065 0.0041702460622 0.0026348870798 0.0026785866469 
0.0027230784139 0.0027680505968 0.0028135853307 0.0028598349428 0.00290695638 0.0029550848769 0.0030043201094 0.0030547119331 0.0031062948846 
0.0031590485209 0.0032128843868 0.0032680310369 0.0033242459308 0.0033820051093 0.0034412601249 0.0035021829369 0.0035650336002 0.0036299673348 
0.003697259225 0.0037671197581 0.0038397209367 0.0039152739181 0.0039936728283 0.0040749593418 0.0025935153678 0.0026360308862 0.0026786424089 
0.0027222851661 0.00276667235 0.0028119499979 0.0028582699039 0.0029057524506 0.002954458657 0.0030044092214 0.0030555989288 0.0031079658503 
0.0031614813078 0.0032160011836 0.0032717397849 0.0033284321212 0.0033865193953 0.0034459459923 0.0035068972382 0.0035694815801 0.0036339503533 
0.0037005283917 0.0037693997349 0.0038407308553 0.0039146415351 0.0039912253616 0.0025586399217 0.002599638043 0.0026412568503 0.0026836723964 
0.0027266034696 0.0027709833942 0.0028165674728 0.0028634436679 0.0029116555275 0.0029611893199 0.0030119972224 0.0030640191424 0.003117156602 
0.0031712452722 0.0032264344893 0.0032826122002 0.0033396001294 0.0033978201116 0.0034572466864 0.0035179085822 0.0035800310764 0.0036438043316 
0.0037094301387 0.0037770854056 0.0038469099045 0.0039190153346 0.0025299296496 0.002569885329 0.0026102444264 0.0026515225574 0.0026938656833 
0.0027374364006 0.002781955818 0.0028282658917 0.0028760007203 0.00292512006 0.0029755525669 0.0030272139052 0.0030799801433 0.0031337608655 
0.003188363928 0.0032439453003 0.00330036857 0.0033576306146 0.0034156030063 0.0034747792155 0.0035349897718 0.0035964428607 0.0036593220223 
0.0037237974685 0.0037900342209 0.0038581772175 0.0025080779182 0.0025463956033 0.0025856039965 0.0026262158579 0.0026676812559 0.0027104962097 
0.0027547706463 0.0028001675625 0.0028474346227 0.0028961247536 0.0029461526585 0.0029974097481 0.003049788743 0.0031031463953 0.0031573898967 
0.0032123225432 0.0032680948852 0.0033245661021 0.0033817255345 0.0034394863374 0.0034981800105 0.0035577610778 0.0036183846206 0.0036802083569 
0.003743395748 0.0038081204186 0.0024924630885 0.0025296495341 0.0025678589306 0.0026071962667 0.002648253635 0.0026903974909 0.0027340870667 
0.0027793310943 0.0028261068118 0.0028739782913 0.0029235658868 0.0029743764101 0.0030262885659 0.0030791857968 0.0031329279531 0.0031874239044 
0.0032424807794 0.0032982469724 0.0033545731195 0.0034114533455 0.0034689716607 0.0035269020189 0.0035857331766 0.0036454211001 0.0037061180206 
0.0037679798071 0.0024825550618 0.0025188335458 0.0025562001652 0.0025947882632 0.0026348187114 0.0026763675328 0.0027198474804 0.0027645849994 
0.0028108599587 0.002858588131 0.0029076583452 0.002957599721 0.003008983678 0.0030613302864 0.0031145030329 0.003168404714 0.0032229433164 
0.0032779212701 0.0033334991199 0.003389522788 0.0034460326715 0.0035029621451 0.0035603880473 0.0036182450675 0.0036769719867 0.003736554195 
0.002477573892 0.0025131343353 0.0025498399531 0.002587861496 0.0026273073571 0.0026683469519 0.0027109945449 0.0027555447498 0.0028012981003 
0.0028484518619 0.0028969389448 0.0029466149192 0.0029973542059 0.0030487017251 0.0031012176965 0.0031544488158 0.0032082934145 0.0032626694716 
0.003317401543 0.0033726477723 0.0034282998537 0.0034842582111 0.0035405940122 0.0035973252024 0.0036543933856 0.0037122222452 0.002476350495 
0.0025114119853 0.0025476446767 0.0025852149539 0.0026242294887 0.0026648097411 0.0027069683332 0.0027506861623 0.002795875169 0.002842743586 
0.0028905602405 0.0029395207876 0.002989506568 0.0030404033187 0.0030917743599 0.0031442097271 0.0031972603816 0.0032508507525 0.0033049181351 
0.0033593833682 0.0034141005313 0.0034692764547 0.003524710098 0.0035804661723 0.0036365678146 0.0036931060452 0.0024770672859 0.0025120588711 
0.0025479937743 0.0025852532988 0.0026239257571 0.0026641228288 0.0027058163629 0.0027489884782 0.0027935659143 0.002839432919 0.0028864812633 
0.0029349084849 0.0029840073453 0.0030339813772 0.0030847485054 0.0031362384739 0.0031880519528 0.0032407432756 0.003293936893 0.0033475733209 
0.0034015773105 0.003455893199 0.0035105580669 0.0035655127798 0.0036207823389 0.0036763972278 0.0024782134326 0.0025130722456 0.0025488673585 
0.0025859330661 0.0026243641765 0.0026641802123 0.0027054175787 0.0027480210266 0.0027919109069 0.002836988944 0.0028831719282 0.0029303320429 
0.0029783981007 0.0030275753359 0.0030772324863 0.0031275982543 0.0031786365513 0.0032302757335 0.003282188123 0.0033349011509 0.0033880725153 
0.0034416475455 0.0034955396186 0.0035498123196 0.0036044095245 0.0036593761355 0.0024772936265 0.0025119968496 0.0025479495091 0.00258489892 
0.0026231077066 0.0026625794051 0.0027033487654 0.0027453295993 0.0027884672923 0.0028326596318 0.0028778286084 0.0029238893032 0.0029707594651 
0.0030183970705 0.0030667659426 0.0031161022393 0.0031658671402 0.0032162859924 0.0032673380102 0.0033189912642 0.0033709340018 0.0034236590936 
0.0034768949362 0.0035304270702 0.0035844506484 0.0036388893647 0.0024721194693 0.0025069312267 0.00254270478 0.0025797698298 0.0026177630031 
0.0026568744905 0.0026971250629 0.0027384344148 0.0027807240781 0.0028239261212 0.0028679568115 0.0029127547581 0.0029582699793 0.0030044656718 
0.0030513476923 0.0030989229194 0.0031472070746 0.0031964785502 0.0032462070668 0.0032966459882 0.003347769994 0.0033995373533 0.0034516513901 
0.0035046191559 0.0035579890726 0.0036119481554 0.0024607809626 0.0024957032184 0.0025315175476 0.0025684791316 0.0026062192212 0.0026449463607 
0.0026845920233 0.0027251458991 0.0027665148415 0.002808604647 0.0028513717719 0.0028947534419 0.0029387316202 0.0029833085359 0.0030285038478 
0.0030743766952 0.0031209860159 0.0031683852035 0.0032166193921 0.0032659058431 0.0033157849983 0.0033664596545 0.0034178918791 0.0034700736169 
0.0035228853426 0.0035761198229 0.0036986153855 0.0037689096395 0.0038397965467 0.0039111701176 0.0039830757947 0.0040554929149 0.0041286763999 
0.0042025791001 0.0042775812965 0.0043540095791 0.0044321536727 0.0045127730013 0.004596226383 0.0046830456803 0.0047737541656 0.0048688692915 
0.0049687566503 0.0050738113601 0.0051843237015 0.0053004752835 0.0054223631125 0.0055500002023 0.0056833603942 0.0058222075628 0.0059664011111 
0.0061156922274 0.0036490554554 0.003717798402 0.0037870790444 0.0038568236902 0.0039269661314 0.0039976307988 0.0040688825772 0.0041408902111 
0.0042140987487 0.0042886241335 0.0043649798474 0.0044436477214 0.0045251256825 0.0046097654338 0.0046983833272 0.0047913040066 0.0048888581439 
0.0049914105615 0.0050992247064 0.0052124644081 0.0053312126131 0.0054554694501 0.0055851790367 0.0057202431251 0.0058603712378 0.0060053653413 
0.0035925961329 0.0036594752101 0.0037270502849 0.0037950490744 0.0038633706032 0.0039321591029 0.0040014903014 0.0040715563175 0.0041426132418 
0.0042152001446 0.0042894709781 0.0043660144371 0.0044453189553 0.0045278745029 0.0046141486942 0.0047046141708 0.0047995656085 0.0048991905197 
0.0050040285844 0.0051140887841 0.0052294395572 0.0053500769432 0.0054759369386 0.0056069375334 0.0057427928366 0.0058833013204 0.0035301449545 
0.0035955135088 0.0036610993759 0.0037272552341 0.0037937479293 0.003860565134 0.003927948187 0.0039960046156 0.0040650357932 0.0041353790891 
0.0042076022202 0.0042819169572 0.0043589099972 0.0044390565347 0.0045227935322 0.0046105767697 0.0047026836318 0.0047994385282 0.0049010528138 
0.0050076829756 0.0051192472199 0.0052360149326 0.0053578074741 0.0054844769598 0.0056158982081 0.0057517328082 0.0034635650737 0.0035271530881 
0.0035911318224 0.0036552212914 0.0037198239838 0.0037847868437 0.0038501325752 0.0039162104707 0.0039832211693 0.0040515128819 0.0041214945067 
0.0041935450243 0.0042682867747 0.0043459340479 0.0044270171718 0.0045119207237 0.0046010398882 0.0046945654163 0.0047927454702 0.0048957266926 
0.005003574534 0.0051162866043 0.0052338038212 0.0053560022253 0.0054826180642 0.0056135850604 0.0033946485355 0.0034564244345 0.0035185651661 
0.0035810089626 0.0036435370326 0.0037066124404 0.0037700851106 0.0038342631662 0.0038993566673 0.003965671903 0.004033581201 0.0041034945655 
0.0041757814583 0.0042510540299 0.0043294485817 0.0044114599359 0.004497444698 0.004587611365 0.0046822064919 0.0047813681595 0.004885183516 
0.0049936526183 0.0051067262969 0.0052242879605 0.0053461702588 0.0054722111292 0.0033251377915 0.0033850845336 0.0034453830688 0.003505996807 
0.0035669142487 0.0036281902145 0.0036897476739 0.0037520808959 0.0038153959243 0.0038798942002 0.0039459054769 0.004013787505 0.0040839250712 
0.0041566548969 0.0042325244146 0.0043116471093 0.0043944953398 0.0044812589617 0.0045721902386 0.0046674400445 0.0047671157069 0.0048712179318 
0.0049797191362 0.005092516557 0.005209455989 0.0053303864624 0.0032565518414 0.003314672873 0.003373167148 0.003431993871 0.003491158774 
0.003550719 0.00361081226 0.0036714087079 0.0037330283494 0.0037958938899 0.0038601994234 0.0039262541044 0.0039943790778 0.0040649230315 
0.0041381994046 0.0042145260665 0.004294410947 0.0043778007464 0.0044650728139 0.0045563944859 0.0046518650531 0.004751548389 0.0048554011506 
0.0049633556842 0.0050752697879 0.0051909559939 0.0031901977641 0.0032464990077 0.0033032136739 0.0033603012939 0.0034177923279 0.0034757559942 
0.0035343146625 0.0035936320831 0.0036536970715 0.0037150250607 0.0037778334208 0.0038422749924 0.0039086166982 0.0039771522282 0.0040481539416 
0.0041219284565 0.0041987262793 0.0042790300885 0.0043627355831 0.0044501812368 0.0045414886539 0.0046367337719 0.0047359229416 0.004838999948 
0.0049458524877 0.0050563141082 0.0031270722302 0.0031815924763 0.0032365730865 0.0032919915264 0.0033478902999 0.0034043514723 0.0034614940211 
0.0035194742519 0.0035784673201 0.0036383210648 0.0036998183569 0.0037628617401 0.0038276468464 0.0038944035189 0.0039633778022 0.0040348039627 
0.004108949166 0.0041861101902 0.0042664030894 0.0043502120349 0.0044374721536 0.0045283638473 0.0046229425536 0.0047211780049 0.0048229882544 
0.0049282360754 0.0030679889299 0.0031207521007 0.0031740533482 0.0032278674061 0.0032822553462 0.0033373111094 0.0033931539392 0.0034499235076 
0.0035077604819 0.0035668026354 0.0036270722192 0.0036887063818 0.0037521429842 0.0038173645025 0.0038845434996 0.0039538994625 0.0040256274137 
0.0041000129126 0.0041771808564 0.0042573805284 0.004340838539 0.0044275386922 0.0045176333246 0.0046111265842 0.0047079742217 0.0048080720804 
0.0030135323238 0.0030645956412 0.0031162616248 0.0031685476987 0.0032215059448 0.0032752464202 0.0033298871653 0.0033855509341 0.0034423561597 
0.003500407893 0.0035597767817 0.0036204574616 0.0036825483847 0.003746445518 0.0038120807453 0.0038796015133 0.0039492064844 0.004021060013 
0.0040954184614 0.0041723790882 0.0042521587639 0.0043348946429 0.0044207688544 0.0045096909338 0.0046017199814 0.0046967928389 0.0029645414223 
0.0030135721982 0.0030636588078 0.0031144803405 0.0031660901921 0.0032185991451 0.0032721230559 0.0033267694369 0.0033826312353 0.0034397731804 
0.0034982611517 0.0035581148046 0.0036192852569 0.0036820400548 0.0037461546242 0.0038121134011 0.0038798565096 0.0039495254176 0.0040213400961 
0.0040953721506 0.004171854435 0.0042509257627 0.0043327049425 0.0044173926279 0.0045047909303 0.0045950265725 0.0029204715012 0.0029683409904 
0.0030169421581 0.0030659707538 0.0031163138677 0.0031676706664 0.0032201516781 0.0032738556169 0.0033288432515 0.0033851559549 0.0034428266489 
0.0035018392201 0.0035622127935 0.0036238480017 0.0036869929109 0.0037514063091 0.0038175361061 0.0038853164757 0.0039549034236 0.004026360441 
0.0040998879601 0.0041756295549 0.0042537304141 0.0043342773748 0.0044173805866 0.0045031316252 0.002881912065 0.0029282935147 0.0029754848213 
0.0030236070506 0.003072373851 0.0031226484684 0.0031741550694 0.0032269648298 0.0032811277363 0.0033366569395 0.0033935459953 0.0034517840532 
0.0035113240395 0.0035721521556 0.0036341571139 0.0036975636519 0.0037621149213 0.0038282396437 0.0038958556155 0.0039651078065 0.0040360370444 
0.0041088257248 0.0041836195487 0.0042605207066 0.0043396344368 0.0044210345935 0.0028484913067 0.0028938464185 0.0029397435614 0.002986661973 
0.0030347014105 0.0030839733685 0.0031341853252 0.0031861513782 0.0032395244816 0.0032942957163 0.0033504375402 0.0034079160263 0.0034666596001 
0.003526628854 0.0035877859595 0.0036500047291 0.0037135027236 0.003778190691 0.0038439482142 0.0039112600996 0.0039799348246 0.0040501408194 
0.0041220103506 0.0041956559551 0.0042711861191 0.0043486986016 0.0028208537975 0.0028645725167 0.0029092757589 0.0029554348221 0.0030024521105 
0.0030507818514 0.0031005092754 0.0031512957682 0.0032039063087 0.0032579293168 0.0033133243918 0.0033700330232 0.0034279993332 0.0034871304688 
0.003547381012 0.0036087061642 0.0036709683468 0.0037343816841 0.0037988479823 0.0038644589006 0.0039310297672 0.0039990061562 0.0040683372586 
0.0041391336779 0.0042115114867 0.0042855717517 0.0027983375822 0.0028409015461 0.002884540169 0.0029293129441 0.0029757635705 0.0030232237062 
0.0030721352143 0.003122511753 0.0031743543192 0.0032272646096 0.0032819072063 0.0033378381475 0.0033949852126 0.0034532798609 0.0035126280067 
0.0035729812718 0.0036341867747 0.0036964264157 0.0037595799239 0.003823661696 0.0038887648393 0.0039546621671 0.0040218243311 0.0040901764776 
0.004159828564 0.0042308846533 0.0027804020192 0.0028219989751 0.0028646981144 0.0029085934223 0.0029538331422 0.0030004916357 0.0030489630455 
0.0030985863713 0.003149668818 0.0032021651573 0.0032560085266 0.0033107743501 0.0033670792552 0.0034244887266 0.003482908666 0.0035422825425 
0.0036025567522 0.0036636774791 0.0037255141986 0.003788263085 0.0038518769246 0.0039163018484 0.0039816138661 0.0040477343958 0.0041150748543 
0.0041835794369 0.0027663198491 0.0028070933939 0.0028489961777 0.0028921469655 0.0029366157359 0.0029825486109 0.003029958523 0.0030788302614 