# vtk DataFile Version 5.1
vtk output
ASCII
DATASET STRUCTURED_POINTS
DIMENSIONS 26 26 26
SPACING 0.08 0.08 0.08
ORIGIN -1 -1 0.5
POINT_DATA 17576
FIELD FieldData 1
potential 1 17576 double
0.0025496811862 0.0025100063251 0.0024719642149 0.0024356811567 0.0024012298343 0.0023686507262 0.002337844153 0.0023087697607 0.0022812037776 
0.0022549022295 0.002229584402 0.0022049286939 0.0021807237678 0.002156465597 0.0021324348753 0.0021083004487 0.0020837601892 0.0020587733886 
0.0020333377498 0.0020074576682 0.0019811703723 0.0019545386051 0.0019276457652 0.0019006269263 0.0018735077453 0.0018464393251 0.0025632632191 
0.0025234235864 0.002484765615 0.002447957228 0.0024130808186 0.0023801808663 0.0023491711986 0.0023199025491 0.0022922180647 0.0022658015763 
0.0022403408889 0.0022155238413 0.0021910318196 0.0021666878229 0.002142013901 0.0021173576173 0.0020923457388 0.0020670053834 0.0020411222933 
0.0020148363488 0.0019881212256 0.0019610741337 0.0019337785842 0.0019063291385 0.0018788708424 0.0018514356863 0.0025678252303 0.0025268452794 
0.0024876600022 0.0024509161674 0.0024156902088 0.0023825322145 0.0023513503348 0.0023220111462 0.0022942288478 0.0022677605515 0.00224223179 
0.0022173120911 0.0021927141724 0.0021681406667 0.0021434228426 0.0021182883913 0.0020929843062 0.0020672472274 0.0020411470672 0.00201451829 
0.0019874962992 0.0019601799081 0.0019325857385 0.0019048423205 0.0018770556598 0.0018493764125 0.0025661407084 0.0025246102492 0.0024849355167 
0.0024472726136 0.0024117180649 0.0023787936924 0.0023474315926 0.002317941586 0.002290067635 0.0022634498375 0.0022378057164 0.0022127621636 
0.0021880264033 0.0021633507935 0.0021385293424 0.002113124961 0.0020876453864 0.0020617262573 0.0020353514745 0.0020086226756 0.0019814086501 
0.0019538663334 0.0019260776707 0.001898138746 0.0018701894962 0.0018422766171 0.0025620127162 0.0025199780749 0.0024798372467 0.0024417574969 
0.0024058380316 0.0023720891116 0.0023409255455 0.0023111356463 0.0022829603254 0.0022560728674 0.0022301346598 0.0022047890293 0.0021798145262 
0.002154934949 0.0021299538757 0.0021046557023 0.0020788109245 0.0020527928308 0.0020263285692 0.0019994292649 0.0019721348721 0.0019445840971 
0.0019167016855 0.0018886629419 0.0018605751639 0.0018325530925 0.0025597985 0.0025165422693 0.0024759425875 0.0024374138639 0.0024010528027 
0.0023668541942 0.0023347218178 0.0023044192462 0.0022761662593 0.0022486933578 0.0022221808863 0.0021963453989 0.0021708865827 0.0021456441822 
0.0021203964631 0.0020949097443 0.0020691840078 0.0020428544238 0.0020163555508 0.0019894431858 0.0019621472625 0.0019345211446 0.0019067129929 
0.0018786660845 0.0018505614192 0.0018225141406 0.0025609331295 0.0025179971652 0.0024769020072 0.0024378655861 0.0024002440653 0.0023654385983 
0.0023326030984 0.0023015327598 0.0022719380329 0.0022435606841 0.0022166104341 0.0021899232269 0.0021637545187 0.0021378663415 0.0021121470282 
0.0020863936609 0.0020604096641 0.0020340020243 0.0020074430214 0.001980552689 0.0019533106709 0.0019257552008 0.0018979503968 0.0018700478306 
0.0018420075727 0.0018140137906 0.0025684078288 0.0025249234374 0.0024833125703 0.0024437028515 0.0024061945694 0.002370606896 0.0023361587305 
0.0023040392279 0.0022732841573 0.0022436698907 0.0022150059072 0.0021871311788 0.0021603325671 0.0021335549404 0.0021070629635 0.0020807639294 
0.0020544132367 0.0020279979729 0.0020011735368 0.0019742623778 0.0019470914643 0.0019196475493 0.0018919752949 0.0018641437276 0.0018363061391 
0.001808437774 0.0025835027254 0.0025395309853 0.0024973581871 0.0024570911329 0.0024187445024 0.0023822204233 0.0023473542462 0.0023139963181 
0.0022811148525 0.0022499695105 0.0022197437182 0.0021903430982 0.0021616784519 0.0021340940064 0.002106581836 0.0020794157018 0.0020525232144 
0.002025665528 0.0019988279496 0.0019716753594 0.0019445198496 0.0019171906908 0.001889679386 0.0018620319559 0.0018343213099 0.0018067029536 
0.0026069769991 0.0025625015629 0.0025197219784 0.0024787197885 0.0024394437123 0.0024018276046 0.002365668246 0.0023307425922 0.0022968970266 
0.002264029548 0.0022313059592 0.0022001029103 0.0021697192304 0.0021401221562 0.0021112460485 0.0020834079617 0.0020555962739 0.0020281053487 
0.0020008656232 0.0019734833159 0.0019463275307 0.0019190459537 0.0018916856386 0.0018642387432 0.0018367539329 0.0018093074935 0.0026390014978 
0.0025941037787 0.0025506620742 0.0025088351688 0.0024685719265 0.0024297288893 0.0023921049443 0.0023554866954 0.0023198026496 0.0022849270345 
0.0022508653004 0.0022176850075 0.0021846780088 0.0021532408865 0.0021226974208 0.002092992145 0.0020644450358 0.0020360075534 0.0020081176719 
0.0019805466887 0.0019529500538 0.0019256864968 0.001898400941 0.001871133223 0.0018438785623 0.0018166853058 0.0026798407792 0.0026342799247 
0.0025902298815 0.0025474933076 0.0025061011498 0.0024658938178 0.0024266801727 0.00238828971 0.0023506363801 0.0023136796323 0.0022774344863 
0.0022420426438 0.0022075655269 0.0021734261482 0.002141023586 0.0021096033717 0.002079161664 0.0020495995659 0.0020211058135 0.0019928743831 
0.0019648677037 0.001937418526 0.0019101351886 0.0018829763005 0.001855901039 0.0018289527997 0.0027292770851 0.0026831083512 0.0026381642153 
0.0025945347883 0.0025519038019 0.0025102121646 0.0024692851075 0.002428984684 0.0023892728052 0.0023501446546 0.0023117038978 0.0022740680155 
0.0022373610821 0.0022016604176 0.0021671365092 0.0021331528962 0.0021010258314 0.0020699772634 0.00203990076 0.0020111009231 0.0019826520153 
0.0019545465533 0.001927106683 0.0018999343245 0.0018729861627 0.0018462205063 0.0027870930487 0.0027402483708 0.0026944279762 0.0026495895315 
0.002605714442 0.0025624269725 0.0025196852977 0.0024773967161 0.0024355410662 0.0023942144714 0.0023535021633 0.0023135764244 0.0022746001117 
0.0022367072532 0.0022000235752 0.0021646254547 0.0021305058337 0.0020971236373 0.0020656001887 0.0020352372395 0.0020058277042 0.0019776543397 
0.0019495538614 0.0019222188145 0.0018952448984 0.0018685907298 0.0028530056226 0.0028053852124 0.0027585762404 0.002712513633 0.0026670617062 
0.0026221793539 0.0025775332457 0.0025331860267 0.0024891650977 0.0024456064263 0.0024026328566 0.00236042546 0.0023191835786 0.0022790550553 
0.0022401886572 0.0022026847213 0.0021666111911 0.0021319939964 0.0020988047951 0.00206628581 0.002035737099 0.0020062186717 0.0019778137175 
0.00195001417 0.0019228550107 0.0018961415683 0.0029266815082 0.00287814372 0.0028302057778 0.0027827619172 0.0027357068097 0.0026889035414 
0.0026423797283 0.0025959229942 0.0025497249508 0.0025039375122 0.0024587287152 0.0024142913377 0.0023708325292 0.0023285267553 0.0022875162625 
0.002247921236 0.0022098294283 0.0021732914173 0.0021383108227 0.0021048079793 0.0020722070833 0.0020414465565 0.0020119650579 0.0019832620272 
0.0019559904783 0.0019290081808 0.0030076721593 0.0029580239002 0.0029087708676 0.0028597889691 0.0028109830381 0.002762230443 0.0027135370874 
0.0026650400923 0.0026166563394 0.0025686828118 0.0025212930205 0.0024747115047 0.0024291290252 0.0023847328515 0.0023416790685 0.0023000718858 
0.0022600149744 0.0022215677061 0.0021847595791 0.0021495362778 0.0021159490169 0.0020838582321 0.0020525363259 0.0020228587873 0.0019944260766 
0.0019672967029 0.0030953858713 0.0030443623281 0.0029935560762 0.0029428394694 0.002892110748 0.0028413129073 0.0027904768743 0.002739684828 
0.0026892196135 0.0026391064328 0.0025896225136 0.0025410053812 0.0024934422119 0.00244709822 0.0024021398005 0.0023586612874 0.0023167559894 
0.0022764883983 0.0022378965673 0.002200942723 0.0021656977173 0.0021320667321 0.0020999556766 0.00206864922 0.0020390203433 0.0020107010543 
0.003189002385 0.0031362636908 0.0030835992394 0.0030308866232 0.0029780375578 0.002925044594 0.0028719817925 0.0028190062883 0.0027664162228 
0.0027142260072 0.002662759916 0.0026122418126 0.0025628457941 0.0025147443578 0.0024680692498 0.0024229100644 0.0023793358072 0.0023374022754 
0.0022971440415 0.0022585734552 0.0022216439502 0.0021864174631 0.0021527837099 0.0021206681503 0.0020897206803 0.0020597398794 0.0032872278708 
0.0032323545166 0.0031774840545 0.0031224939875 0.0030673107008 0.0030119879563 0.0029566269225 0.002901437619 0.0028466401685 0.002792576718 
0.0027392834374 0.0026870441503 0.0026360307227 0.0025864077036 0.0025382521085 0.0024916515815 0.0024466294252 0.0024032467367 0.0023615071264 
0.0023214206897 0.0022829409344 0.0022461409486 0.0022109514466 0.0021773105042 0.0021451488343 0.0021141265734 0.0033882468501 0.0033307588916 
0.0032732694014 0.0032156557341 0.0031578932635 0.0031000631879 0.003042334155 0.0029849319556 0.0029281059216 0.0028720910716 0.0028172322558 
0.0027634981061 0.00271112573 0.0026602372424 0.002610888546 0.0025631308577 0.0025169828535 0.002472423943 0.0024294498475 0.0023880558413 
0.0023481780971 0.0023099153932 0.0022732028455 0.0022380034538 0.0022042821795 0.0021717659188 0.0034891724933 0.0034285473319 0.0033681636893 
0.0033076056579 0.0032470386129 0.0031865782088 0.0031264261958 0.0030668277421 0.003008046792 0.002950324681 0.0028938846144 0.0028389728163 
0.0027855160479 0.0027336913707 0.0026835128633 0.0026349557529 0.0025880071016 0.0025425984901 0.0024986934263 0.0024562593631 0.0024152308202 
0.0023756772146 0.0023375492108 0.002300833717 0.0022655255874 0.0022315809584 0.0035866642577 0.0035224293901 0.0034584600324 0.0033948153625 
0.003331239921 0.0032680354318 0.0032054371309 0.0031436894301 0.0030830686275 0.0030238094489 0.0029661252403 0.0029101399395 0.0028560203731 
0.0028036140322 0.002752981102 0.0027040289242 0.0026566602722 0.0026107897478 0.0025662918869 0.0025231336936 0.0024812667179 0.0024406137894 
0.0024012481147 0.0023631490721 0.0023263084695 0.0022907206006 0.0036762722219 0.0036081021884 0.003540318642 0.003473063585 0.0034063443795 
0.0033404773862 0.0032754276815 0.0032116068312 0.0031492822816 0.0030886874269 0.0030300188861 0.0029733692872 0.0029188639506 0.0028662906574 
0.0028156333056 0.0027667322556 0.0027194133069 0.0026734917554 0.002628832635 0.0025852903241 0.002542834904 0.0025013789974 0.0024609952968 
0.0024216683876 0.0023834235631 0.0023462617508 0.0037534465785 0.003681048568 0.0036094601502 0.0035385478764 0.0034686119217 0.0033997923471 
0.0033323504155 0.0032666958861 0.0032028357038 0.0031411307709 0.0030817528052 0.0030247922968 0.0029702202458 0.0029180143869 0.0028678143882 
0.0028194551908 0.0027726583742 0.0027271531415 0.0026827381276 0.002639232766 0.002596540108 0.0025545657011 0.0025134159586 0.0024730618858 
0.0024335601648 0.0023949364477 0.0038144335171 0.0037378168938 0.0036622371786 0.0035878352577 0.0035146986715 0.0034430488449 0.0033732988268 
0.0033056778904 0.0032405917527 0.0031780091963 0.0031182275308 0.0030613022467 0.0030071596699 0.0029556297778 0.0029064695825 0.0028591723541 
0.0028134124075 0.0027688161276 0.0027250718074 0.0026819859799 0.0026394059865 0.0025972539687 0.0025556025911 0.0025144422235 0.0024738805307 
0.0024339616436 0.0028202198277 0.0027774222513 0.0027361312784 0.0026964421658 0.0026584020285 0.0026220359789 0.0025872455265 0.002554011296 
0.002522151593 0.0024914802022 0.0024617808571 0.0024327931538 0.0024043634128 0.0023760304409 0.0023481062354 0.0023202855615 0.0022922845054 
0.0022640632509 0.0022356155135 0.0022069333642 0.0021780367606 0.0021489684052 0.002119790535 0.0020906169618 0.0020614527045 0.0020324288113 
0.0028448230524 0.0028016758303 0.0027595676335 0.0027191286312 0.002680410677 0.0026434401742 0.0026081336223 0.0025743700351 0.0025420472895 
0.0025109237889 0.0024807669052 0.0024513383676 0.0024223794159 0.0023937568559 0.0023650250203 0.0023365433199 0.0023079482123 0.002279264484 
0.0022502690095 0.002221086465 0.0021916719858 0.0021621021449 0.0021324389424 0.0021027557773 0.0020731763849 0.0020437124737 0.0028631418687 
0.0028186489114 0.0027757886373 0.0027351644909 0.0026958188301 0.0026582804141 0.0026224622559 0.0025882660366 0.0025554728197 0.0025239275884 
0.0024933490846 0.0024634904274 0.0024341298176 0.0024050156374 0.0023760075983 0.0023468468909 0.0023177796779 0.0022885379144 0.0022591781815 
0.0022295178625 0.0021996716623 0.0021697164464 0.0021396460372 0.0021095678201 0.0020795646721 0.0020497661725 0.0028768901598 0.0028316210107 
0.002788029302 0.0027462227039 0.0027062590924 0.0026686388635 0.0026323035575 0.0025976053876 0.002564363782 0.0025323151638 0.0025012754349 
0.0024709604701 0.0024411448735 0.0024116342649 0.0023822477231 0.0023525665423 0.0023230934378 0.0022934593686 0.002263633259 0.0022336970927 
0.0022034999471 0.0021731693398 0.002142769029 0.0021123694533 0.0020820872042 0.002051946078 0.0028886916045 0.0028426766449 0.0027983639918 
0.0027558699931 0.0027152546596 0.0026765110209 0.0026400675448 0.0026047652498 0.0025709246111 0.0025383147101 0.0025066586808 0.0024757848194 
0.0024454384323 0.0024154281302 0.0023855920622 0.002355733591 0.0023256310732 0.0022956474954 0.0022654993341 0.002235178505 0.0022047023708 
0.0021741848883 0.0021435260038 0.0021128754421 0.0020823154295 0.0020519359687 0.0029018780969 0.0028543868171 0.002809352291 0.0027661390706 
0.0027248080848 0.002685344573 0.0026476768808 0.0026116276539 0.0025774971829 0.0025441053022 0.0025117125907 0.0024801054538 0.0024490429985 
0.0024184165282 0.0023880379957 0.0023577074215 0.0023274445628 0.0022968657929 0.0022664175888 0.0022358346027 0.0022051259059 0.0021743206934 
0.0021435409779 0.0021127038632 0.0020819631908 0.0020514077888 0.0029171913836 0.0028697491006 0.0028239499089 0.0027799564199 0.0027371166588 
0.0026968119492 0.0026582411715 0.0026212657123 0.0025856752599 0.0025512853442 0.0025183641543 0.0024857977918 0.0024538835363 0.0024224253502 
0.0023913520349 0.0023604963841 0.0023296887115 0.0022987519146 0.0022679574143 0.0022371198225 0.0022062035037 0.0021752250959 0.0021442238526 
0.0021133241284 0.0020824584137 0.0020517820166 0.0029372723726 0.0028889981824 0.0028424081926 0.0027975864017 0.0027546147428 0.002713328776 
0.002672999034 0.0026348842546 0.0025980953328 0.0025624656227 0.0025278400664 0.002494080624 0.0024614940098 0.0024290535573 0.0023970580496 
0.0023654536064 0.0023340329477 0.0023028108836 0.0022714627496 0.0022403122101 0.0022091817982 0.0021780433728 0.0021469205459 0.0021158567022 
0.0020849767433 0.0020542265023 0.0029633175843 0.0029142571845 0.0028668233578 0.0028210867672 0.0027770564269 0.0027346655299 0.0026938714074 
0.0026544231084 0.0026155306756 0.0025784347765 0.0025423313987 0.0025071262131 0.0024727250329 0.0024394792199 0.002406404177 0.0023738075995 
0.0023416051878 0.0023097561635 0.0022781204987 0.0022464386749 0.0022150263541 0.0021837111711 0.002152469281 0.0021213268769 0.0020903300304 
0.0020596039898 0.0029961589708 0.0029462786795 0.002897947975 0.0028512204485 0.0028060536472 0.0027624265841 0.0027202081179 0.0026792509181 
0.0026394566595 0.0026007463925 0.0025622808534 0.0025254110571 0.0024894130831 0.0024542407505 0.0024198323625 0.0023865265798 0.0023533497516 
0.0023206408616 0.0022883732268 0.0022561921704 0.0022244870177 0.0021929181002 0.0021615300996 0.0021303021961 0.0020992609107 0.0020684559062 
0.0030361027095 0.0029854644365 0.0029361753315 0.0028883679748 0.0028420172705 0.0027970376097 0.0027533055208 0.00271067919 0.0026691302087 
0.0026285410982 0.0025888939857 0.0025495530633 0.0025117650163 0.0024748988508 0.0024389291667 0.0024038059929 0.0023698732435 0.0023361240822 
0.002303042535 0.0022704478701 0.0022380377101 0.0022061943592 0.0021745777579 0.0021432268664 0.0021121246789 0.0020812966618 0.0030835762721 
0.0030319189352 0.0029817046459 0.0029327310825 0.0028850625222 0.0028386062362 0.0027932503494 0.0027488842078 0.0027054605277 0.0026629234231 
0.0026212555285 0.0025805486283 0.0025408119595 0.0025014679128 0.0024637545622 0.0024270347414 0.0023912699537 0.0023563884302 0.0023226178813 
0.0022892116506 0.0022561756758 0.0022238845793 0.0021919784794 0.0021604161077 0.002129204617 0.0020983260222 0.0031384763421 0.003085833871 
0.0030344025163 0.002984277291 0.0029351871783 0.0028871445876 0.0028400493946 0.0027938150566 0.0027484190587 0.0027038367801 0.0026601268655 
0.0026173495208 0.0025755697616 0.0025348120139 0.0024952043217 0.0024560857817 0.002418760614 0.0023824634369 0.002347116833 0.0023130671915 
0.0022794424692 0.0022462887147 0.0022139696346 0.002182120979 0.002150702614 0.0021197144037 0.0032006808088 0.0031469644202 0.0030943239528 
0.0030427309901 0.002992219279 0.0029424859213 0.0028935543185 0.0028453687829 0.0027979093574 0.0027512402084 0.0027053944355 0.0026604823729 
0.0026166042323 0.0025738369366 0.0025322574316 0.0024919047062 0.0024527518766 0.0024142515787 0.0023775354046 0.0023419355483 0.0023072891045 
0.0022739306756 0.0022407535663 0.0022084920284 0.0021767773816 0.0021455854457 0.0032699533296 0.0032150468644 0.0031610774993 0.0031080033599 
0.0030557448242 0.0030043270535 0.0029534704994 0.002903257235 0.0028536996237 0.0028048910538 0.0027568963806 0.0027098322174 0.002663834371 
0.0026189926938 0.0025754026957 0.0025331245118 0.0024921941052 0.002452618999 0.0024137091993 0.0023766962627 0.002340896277 0.002306178239 
0.0022725731523 0.0022396952478 0.0022075175255 0.0021759915237 0.0033459602467 0.0032897140656 0.0032342610377 0.0031795688414 0.0031255450805 
0.0030721241216 0.003019368335 0.0029670679489 0.0029153850873 0.002864418677 0.0028142745958 0.0027650800871 0.0027169794295 0.0026700903116 
0.0026245011116 0.0025802907296 0.0025375100145 0.0024961828761 0.0024562974707 0.0024177723872 0.0023800448042 0.0023440794622 0.002309358003 
0.0022754324557 0.0022430033168 0.0022109777397 0.0034282128742 0.0033704375885 0.003313353256 0.0032568710942 0.0032009472786 0.0031455014808 
0.0030905551453 0.0030362275763 0.0029823934604 0.0029292885303 0.0028770206746 0.0028257488764 0.0027756028598 0.0027267158898 0.0026791915027 
0.0026330945413 0.0025884904537 0.0025454082781 0.002503854391 0.0024637612243 0.0024251778182 0.0023879728627 0.0023514558501 0.0023165316637 
0.0022828489301 0.0022505183159 0.0035160473399 0.0034565031334 0.0033975600525 0.0033391300163 0.0032811531965 0.0032235969965 0.0031664856156 
0.0031099727489 0.0030539697386 0.0029987481745 0.0029444130562 0.002891137254 0.0028390496692 0.0027882653935 0.0027389011417 0.0026910158779 
0.0026446664692 0.002599886243 0.0025566875347 0.002515012827 0.0024749196003 0.0024363103686 0.0023991009301 0.0023626003387 0.0023277171378 
0.0022941688453 0.0036085730949 0.0035469732357 0.003485913174 0.0034253111467 0.0033651124917 0.0033053092556 0.0032459548723 0.0031871490167 
0.003129120689 0.0030718062946 0.0030154990936 0.0029603156566 0.0029063917661 0.0028538540712 0.00280278854 0.0027532555576 0.0027052911628 
0.0026589230751 0.0026141602829 0.0025709923517 0.0025293543569 0.0024892944486 0.0024506985768 0.0024134990668 0.0023773676126 0.0023421319131 
0.0037044871366 0.0036405002395 0.0035770476948 0.0035140494896 0.0034514511395 0.0033892896269 0.003327620719 0.0032665876785 0.0032063349254 
0.0031471286725 0.0030889373734 0.0030319845396 0.0029763916577 0.0029222817692 0.0028696979544 0.0028186991765 0.0027692837065 0.0027214893068 
0.0026752976233 0.002630696392 0.002587618641 0.0025461177663 0.0025061108474 0.0024675293222 0.0024303075988 0.0023941240042 0.0038021262265 
0.0037353908296 0.0036692365853 0.0036035685911 0.0035383729502 0.003473698807 0.0034096527729 0.0033463896663 0.003284060966 0.0032228417341 
0.003163003169 0.003104459413 0.0030474019755 0.0029919182487 0.0029380375215 0.0028857914077 0.0028351807095 0.0027861686808 0.0027387341952 
0.0026928537293 0.0026484438822 0.0026055809041 0.0025641805156 0.0025241909106 0.0024855635229 0.0024480326298 0.0038990511928 0.0038292035956 
0.0037601766846 0.0036916021584 0.0036236363613 0.0035563518069 0.0034898771903 0.003424379866 0.0033600351644 0.0032970103929 0.0032354641213 
0.0031755907441 0.0031172800933 0.0030606819733 0.0030057938514 0.0029525807966 0.0029010229439 0.0028510448194 0.0028026020244 0.0027556443551 
0.0027100926347 0.0026659927895 0.0026232778518 0.0025818975409 0.0025418431822 0.002503054846 0.003992772866 0.0039194831275 0.003847016562 
0.0037754705457 0.0037045798325 0.0036346002519 0.0035656709876 0.0034979720012 0.0034316906749 0.0033669879623 0.0033040164755 0.0032428541272 
0.0031836364898 0.0031261995614 0.0030705875201 0.0030167200061 0.0029645057438 0.0029138631352 0.0028646666364 0.0028168760353 0.0027704284535 
0.0027252266209 0.0026813181731 0.0026386566945 0.0025972090841 0.0025569507551 0.0040801121691 0.0040031684431 0.0039271210255 0.0038521417659 
0.0037782215048 0.0037056227486 0.0036342360386 0.0035643871088 0.0034962707556 0.0034300415879 0.0033658412758 0.0033037219845 0.0032437858079 
0.0031858175238 0.0031298117321 0.0030756300853 0.0030231229052 0.0029721263272 0.002922516967 0.0028741494798 0.0028269829338 0.0027809104635 
0.0027359796124 0.0026921398117 0.0026493921584 0.0026077109908 0.0041579935788 0.004077158587 0.0039975800952 0.0039191458722 0.0038421323198 
0.0037666258777 0.0036929489291 0.0036210278677 0.0035511950798 0.0034836071397 0.0034183866752 0.0033555689889 0.0032951301421 0.0032370498932 
0.0031810043763 0.0031268699822 0.0030744184917 0.0030234199573 0.0029736996994 0.0029250852639 0.0028774715359 0.0028307433879 0.0027849772907 
0.0027401092188 0.0026961646178 0.0026531360196 0.0042240314829 0.0041393001788 0.0040559956883 0.0039742595453 0.0038941496735 0.0038158332651 
0.0037396488746 0.0036657494861 0.0035944613811 0.0035256832777 0.0034596559513 0.003396400335 0.0033358371615 0.0032778232321 0.0032221728685 
0.003168458532 0.0031164356765 0.0030657991872 0.003016281467 0.0029677053877 0.0029199111709 0.0028727965006 0.0028263980311 0.00278066668 
0.002735669645 0.0026914144474 0.0030978723633 0.0030517561178 0.0030070473926 0.0029638180233 0.0029220978296 0.0028819032841 0.0028431399102 
0.0028058056502 0.0027697500856 0.0027348287476 0.002700872598 0.0026676688411 0.0026351077283 0.0026027676582 0.0025709862318 0.00253948349 
0.0025079896167 0.0024764737112 0.0024449251662 0.0024133294147 0.0023816941381 0.0023500466857 0.0023184321804 0.002286946472 0.0022555765647 
0.0022244365163 0.0031318794032 0.0030852347149 0.0030395202917 0.0029953388608 0.0029527233859 0.002911689177 0.0028721606342 0.0028340381789 
0.0027972586467 0.0027616308308 0.0027269775474 0.0026931141126 0.0026598288992 0.0026270258627 0.002594290397 0.0025619951567 0.0025297898445 
0.0024977015152 0.0024655035963 0.002433311072 0.0024010658583 0.0023688286398 0.0023366438932 0.002304567262 0.0022727036716 0.0022410467007 
0.0031615907107 0.0031134019128 0.0030667286422 0.0030221390846 0.0029786574222 0.0029368019593 0.0028964938503 0.0028576617396 0.0028201320261 
0.0027838073811 0.0027484686666 0.0027139275638 0.0026800119396 0.0026465088641 0.0026131016125 0.0025801615004 0.0025473266583 0.0025145343839 
0.0024818358382 0.0024490383544 0.0024162417887 0.0023835063754 0.0023508079937 0.0023182352638 0.002285852166 0.0022537690653 0.0031880423181 
0.0031388638748 0.0030912334277 0.003045227763 0.0030013831178 0.0029586833394 0.0029175899918 0.0028779827917 0.0028397320558 0.0028026359798 
0.002766575453 0.0027313271072 0.0026967143655 0.0026625887629 0.0026287002517 0.0025949238697 0.0025614914823 0.0025281279933 0.002494795579 
0.0024615644978 0.0024282696264 0.0023950206917 0.0023618632039 0.0023288475008 0.0022960711127 0.0022635373421 0.0032130925246 0.0031629384517 
0.0031143525275 0.0030674176571 0.0030221713509 0.0029786003695 0.0029371465681 0.0028966885599 0.0028575979065 0.0028197071669 0.0027828015956 
0.0027467676226 0.0027114003578 0.0026765476303 0.0026420766195 0.0026078103173 0.002573539981 0.0025396199335 0.0025057700138 0.002471969297 
0.0024383008412 0.0024046219578 0.0023710531437 0.0023376443835 0.002304456265 0.0022715585722 0.0032393692675 0.0031874978155 0.0031379472663 
0.0030900506563 0.0030438487696 0.0029993249425 0.0029564265576 0.0029150156609 0.0028754440786 0.0028365915541 0.0027987739403 0.0027618281561 
0.0027255571332 0.0026898889158 0.0026546647175 0.0026197087858 0.0025850523503 0.0025503207128 0.0025159545535 0.0024816838338 0.0024475049435 
0.0024134311576 0.0023795656503 0.0023458057806 0.0023122837811 0.0022790661997 0.0032670834197 0.0032150043885 0.0031644406365 0.0031148101869 
0.0030675830484 0.0030220120213 0.0029780249444 0.0029355290633 0.0028943647123 0.002854397449 0.0028159403032 0.0027779190209 0.0027406640905 
0.0027040123739 0.0026679149248 0.0026322349726 0.002596820501 0.0025615080781 0.0025265695376 0.0024918199847 0.0024572157447 0.002422760356 
0.0023884762916 0.0023544677504 0.0023206469435 0.0022871455987 0.0032985413902 0.0032453646415 0.0031937566357 0.0031437740154 0.0030954882678 
0.0030480439188 0.0030028520308 0.0029591037819 0.0029166612287 0.0028753981861 0.0028351911848 0.0027963799777 0.0027579292871 0.002720197441 
0.0026830518232 0.0026464628694 0.0026102469513 0.0025744365184 0.002538722822 0.0025034298084 0.0024683810115 0.0024335403328 0.0023989180794 
0.0023645402241 0.0023305109297 0.0022967537608 0.0033347846049 0.0032805430957 0.0032278323852 0.0031767003844 0.0031271532565 0.0030791428968 
0.003032662554 0.0029868155698 0.0029429274802 0.0029001908331 0.0028585144468 0.002817811469 0.0027779938907 0.0027394213375 0.0027011259871 
0.002663435468 0.0026262898191 0.0025896708871 0.002553459544 0.0025174129072 0.0024818490391 0.0024465956726 0.0024116230977 0.0023769435773 
0.0023425852853 0.0023086511988 0.0033766139584 0.0033212618256 0.0032673888299 0.0032150036581 0.0031641556123 0.0031147636445 0.0030667637202 
0.0030200654389 0.0029745665494 0.0029295686206 0.0028862573944 0.0028439435414 0.002802573314 0.0027620967917 0.0027224564402 0.0026840032646 
0.0026457862032 0.0026081690908 0.002571149669 0.0025343984556 0.0024983160944 0.0024625735364 0.0024272157279 0.002392214774 0.0023575835679 
0.002323352878 0.0034244846804 0.0033679622197 0.0033128569346 0.0032591905888 0.003206944309 0.0031560654989 0.0031064741134 0.0030580674689 
0.0030108444381 0.002964696829 0.0029195989305 0.0028748984382 0.0028318190317 0.0027897147134 0.0027485525873 0.0027082859012 0.0026692715918 
0.002630527168 0.0025925622113 0.00255522356 0.0025182613571 0.0024819937613 0.0024461700335 0.0024108044241 0.0023758730003 0.002341387076 
0.0034785775017 0.0034208211318 0.0033645119229 0.0033094440535 0.0032556993617 0.0032032207295 0.0031519382981 0.0031017766698 0.0030527075264 
0.003004673045 0.0029576389338 0.0029116694288 0.0028667431909 0.002822257814 0.0027794299752 0.0027376165501 0.0026967834384 0.0026568302471 
0.0026181404382 0.0025798643603 0.0025420838078 0.0025051940639 0.0024688570968 0.0024330425527 0.0023977589895 0.0023629813046 0.0035391793911 
0.0034801034591 0.0034222901919 0.0033658354587 0.003310492431 0.0032563103761 0.0032032283719 0.0031511881929 0.0031001766709 0.0030501591064 
0.0030011679392 0.0029532282979 0.002906367594 0.0028605764409 0.0028159553415 0.002771827968 0.002729489581 0.0026881830719 0.0026478483952 
0.0026088548878 0.002570362995 0.0025324509295 0.0024955046696 0.0024591827379 0.0024234561525 0.0023883266374 0.0036061225443 0.0035456266823 
0.0034863109742 0.0034281542894 0.0033712156538 0.003315230284 0.0032602547322 0.0032062530318 0.0031532161071 0.0031011556112 0.0030501051161 
0.0030001231432 0.0029512675947 0.0029035759289 0.0028570919095 0.0028118297781 0.0027677481466 0.0027242975829 0.0026826151574 0.0026420171949 
0.0026024709261 0.002564236957 0.0025262789578 0.0024893522541 0.0024531135133 0.0024175354934 0.0036792087967 0.0036171699845 0.0035562303028 
0.0034963587689 0.0034375048056 0.0033797255298 0.0033227689131 0.0032667259171 0.0032115988086 0.0031574535036 0.0031043163696 0.0030522593534 
0.0030013730348 0.0029517047005 0.0029033136418 0.0028562295114 0.0028104671825 0.0027660224653 0.0027221587459 0.0026802540675 0.002639503562 
0.0025998498697 0.0025613564703 0.0025236649569 0.0024867783599 0.0024506687222 0.0037581195872 0.0036943886094 0.0036316732054 0.0035699570333 
0.0035091748469 0.0034492882162 0.0033903756486 0.0033322267093 0.0032749828657 0.0032187082248 0.0031634653917 0.0031093343412 0.003056412761 
0.0030047750587 0.0029544708111 0.0029055471699 0.0028580289659 0.0028119224146 0.0027672064745 0.0027238003029 0.0026811508394 0.0026402392382 
0.0026005739334 0.0025617397256 0.0025244621595 0.002487679546 0.0038423649071 0.0037767639453 0.0037121377783 0.0036484169355 0.0035855819708 
0.0035235718763 0.0034625187432 0.0034022110451 0.0033428121553 0.0032844099357 0.0032270652668 0.0031708883322 0.0031159621579 0.0030623770794 
0.0030101986242 0.0029594586478 0.0029101956703 0.0028624170634 0.0028161148016 0.0027712141912 0.0027277638479 0.0026856428671 0.0026441795077 
0.0026043027995 0.0025656868602 0.0025284730773 0.0039312773642 0.0038635940151 0.0037968540107 0.0037309912509 0.0036659660092 0.003601755253 
0.0035383760746 0.0034759568352 0.0034143716684 0.0033538441878 0.0032944296545 0.0032362516081 0.0031793932411 0.003123928376 0.0030699377656 
0.003017448751 0.0029664914466 0.0029170768909 0.0028691998356 0.0028227909959 0.0027779004523 0.0027344320883 0.0026923101517 0.0026508611762 
0.0026110181019 0.0025725292799 0.0040239904907 0.0039539845398 0.0038849115754 0.0038167141173 0.0037493515673 0.0036828156543 0.0036171404438 
0.003552390168 0.0034887461642 0.0034261021751 0.0033646795432 0.0033045646506 0.0032458434214 0.0031886042736 0.0031329001626 0.0030787631401 
0.0030262048681 0.0029752319066 0.0029258356419 0.0028779905222 0.0028316213565 0.0027867691462 0.0027433203434 0.0027012141476 0.0026601411179 
0.0026199370246 0.004119298932 0.0040467062963 0.0039750923727 0.0039043713389 0.0038345167127 0.0037655600447 0.0036975207693 0.0036304976381 