# vtk DataFile Version 5.1
vtk output
ASCII
DATASET STRUCTURED_POINTS
DIMENSIONS 26 26 26
SPACING 0.08 0.08 0.08
ORIGIN -1 -1 0.5
POINT_DATA 17576
FIELD FieldData 1
potential 1 17576 double
0.00068472167375 0.00067780433114 0.00067119474326 0.00066487406184 0.00065884403694 0.00065299769072 0.0006475403204 0.00064235425232 0.00063739620801 
0.00063262584487 0.00062793926258 0.0006234391142 0.00061896645253 0.00061451460099 0.00061004416984 0.00060552994348 0.00060094397191 0.00059627021895 
0.0005915003165 0.00058663177221 0.00058166840385 0.00057661918502 0.0005714985211 0.00056632972794 0.00056111824886 0.00055589182639 0.00068310622559 
0.0006762465875 0.00066963481597 0.00066336560486 0.00065740268881 0.00065174999767 0.00064627657109 0.0006411715534 0.00063630134651 0.00063160618147 
0.00062703507952 0.00062248115887 0.00061804529515 0.00061357912294 0.00060907503737 0.00060451000576 0.00059986470957 0.00059512960445 0.0005902952975 
0.00058536434226 0.00058034133872 0.00057523738706 0.0005700671324 0.00056484713718 0.00055960373043 0.00055434410744 0.00067870061244 0.00067184339392 
0.00066528945349 0.00065908580566 0.00065321452956 0.00064766156078 0.00064229564905 0.00063731125372 0.00063253570067 0.00062793466739 0.00062344014266 
0.00061894294701 0.00061454357587 0.00061009121683 0.00060558275675 0.0006010030624 0.00059633164085 0.00059156301909 0.00058669607246 0.00058172985785 
0.00057667358818 0.00057153953899 0.00056634188147 0.00056109825737 0.000555828368 0.00055055989348 0.00067221408708 0.00066542033374 0.00065897750585 
0.00065282711811 0.0006470511589 0.00064160508808 0.00063635524685 0.00063148340225 0.00062682291449 0.00062230461705 0.0006178888471 0.00061345386797 
0.00060907310067 0.00060468207157 0.00060019446847 0.00059562035601 0.00059095063983 0.00058617805646 0.00058130223171 0.00057632974513 0.00057126487146 
0.0005661232704 0.00056092014696 0.0005556734831 0.00055040358428 0.00054513113291 0.00066462035446 0.00065794553185 0.00065154801195 0.00064549017986 
0.00063981690091 0.00063447802404 0.00062933297995 0.00062455844517 0.00061998472423 0.00061554946664 0.0006111934243 0.00060685486182 0.00060245453056 
0.00059807277536 0.00059364070248 0.00058908962985 0.00058443978816 0.00057968479128 0.00057482505333 0.0005698656945 0.00056481647415 0.0005596915728 
0.00055450401434 0.00054927369057 0.00054402147228 0.00053876900801 0.00065681050844 0.00065022775999 0.00064396513227 0.00063796421675 0.00063238672006 
0.00062714152602 0.00062208553898 0.00061738029219 0.00061285572752 0.00060845792013 0.00060412741968 0.00059981953479 0.0005954265001 0.00059105821923 
0.00058665454793 0.00058212888412 0.00057750756861 0.00057278355184 0.00056795609567 0.00056302979095 0.00055801465288 0.00055292269779 0.0005477716401 
0.00054257673404 0.00053736027057 0.00053214454148 0.00064931069075 0.00064304928087 0.00063688153864 0.00063105451834 0.00062549217793 0.00062031888082 
0.00061542477579 0.00061064875095 0.00060614011156 0.00060173558548 0.00059738404168 0.00059305460105 0.00058871055701 0.00058426807974 0.00057983984584 
0.00057535760607 0.00057075984659 0.00056607096218 0.00056128314801 0.00055640248968 0.00055143595765 0.00054639447492 0.00054129331395 0.00053615172349 
0.00053098708521 0.0005258229491 0.0006431327794 0.00063697027835 0.00063089615672 0.00062515514451 0.00061966141528 0.00061453974744 0.00060967602308 
0.00060489246107 0.00060035858891 0.00059590363524 0.00059149204723 0.00058709752813 0.00058268966633 0.00057821242172 0.00057374573641 0.00056925495098 
0.000564667442 0.00056000360916 0.00055525838139 0.00055042691571 0.00054551747235 0.00054053785582 0.00053550115375 0.00053042390711 0.00052532667614 
0.00052022829893 0.00063841624085 0.00063212048957 0.00062636925484 0.0006207040481 0.00061534409745 0.00061017515785 0.000605298643 0.00060047736408 
0.0005958796566 0.00059133214508 0.0005868155843 0.00058231245384 0.00057780641639 0.00057329186458 0.000568717597 0.00056414871555 0.00055957438916 
0.00055491801734 0.00055020037752 0.0005454176825 0.00054056588882 0.00053565352302 0.00053068976355 0.00052568843606 0.00052066673134 0.0005156479288 
0.00063541730003 0.00062918679178 0.00062352158847 0.00061792170061 0.00061259913576 0.00060743429547 0.00060252790198 0.000597631065 0.00059292317408 
0.00058825494501 0.00058360358419 0.00057895506646 0.00057430914662 0.00056967218165 0.00056499403797 0.00056035395268 0.00055572077394 0.00055104574991 
0.00054633690766 0.00054158710709 0.00053678776604 0.00053194024174 0.0005270521337 0.00052213267808 0.00051719645218 0.00051226290416 0.00063419874665 
0.00062806236745 0.00062224376717 0.00061692708124 0.00061162434024 0.00060651803612 0.00060147528275 0.00059648543804 0.00059164442871 0.00058681862257 
0.00058200003062 0.00057717879775 0.00057236708106 0.00056757086966 0.00056275262987 0.0005580010885 0.00055326316685 0.00054855190823 0.0005438232057 
0.00053908178763 0.00053432003663 0.00052952934201 0.00052471215928 0.000519874462 0.00051502734959 0.00051018538851 0.00063485058261 0.0006288044002 
0.00062305303645 0.00061777619398 0.00061247359146 0.00060732689007 0.00060224256611 0.00059720288216 0.00059210334516 0.00058710557619 0.00058210042401 
0.00057708238657 0.00057207752692 0.00056710136981 0.00056216425057 0.00055721454525 0.00055235989722 0.00054754560594 0.00054277408366 0.00053801225519 
0.00053326179526 0.00052850920835 0.00052375226613 0.00051898997803 0.0005142285455 0.00050947924199 0.00063739283213 0.00063142891491 0.00062573374901 
0.00062047974553 0.00061515905415 0.00060995152974 0.00060476576003 0.00059958890292 0.00059432854285 0.00058914114968 0.00058393327894 0.00057871618659 
0.00057350604605 0.00056832372513 0.00056319645318 0.00055807850114 0.00055307365876 0.00054813732076 0.00054328992519 0.00053846018345 0.00053368800733 
0.00052894931177 0.00052423041786 0.00051952956864 0.00051484510644 0.00051018296088 0.00064182062629 0.00063596209093 0.00063027386864 0.0006247945291 
0.0006196671235 0.00061437922384 0.00060910989267 0.00060378482605 0.00059830820255 0.00059293360751 0.00058751715647 0.00058208468709 0.00057666917372 
0.00057127927456 0.000565950681 0.00056068658661 0.00055546078209 0.00055037949751 0.00054538585987 0.00054050547276 0.0005356677551 0.00053090381716 
0.00052619764552 0.00052153413411 0.00051690915141 0.00051232328089 0.00064811130311 0.00064230845869 0.00063664189893 0.00063114698369 0.00062596276347 
0.00062057557468 0.00061517172461 0.00060968317484 0.00060402361998 0.00059845233793 0.00059283563897 0.00058718942356 0.00058156380415 0.00057596511365 
0.00057043251938 0.00056497187381 0.00055956212445 0.00055430865124 0.00054916962164 0.00054417142421 0.00053925543671 0.00053442721223 0.00052969577273 
0.00052504037663 0.00052044926063 0.00051591733296 0.00065622392403 0.00065045478638 0.00064478872516 0.00063925406191 0.00063399078577 0.00062848604831 
0.00062293282787 0.00061730630912 0.00061146342884 0.00060565787607 0.000599839781 0.00059398989056 0.00058815467566 0.00058235986609 0.00057662770829 
0.00057097192824 0.00056537499983 0.00055994408105 0.00055464230384 0.00054947395149 0.00054446778701 0.000539549049 0.00053475966533 0.00053007795573 
0.00052548495544 0.00052097936879 0.00066609423948 0.00066033199366 0.00065467356575 0.00064903570816 0.0006434395334 0.00063802813915 0.00063231257586 
0.00062650670134 0.00062047550712 0.00061451342628 0.00060846435362 0.0006024256716 0.00059639327682 0.00059040196136 0.00058448817187 0.00057864608049 
0.00057291231103 0.00056726011493 0.00056179010829 0.00055646532931 0.00055131529216 0.00054629047725 0.00054140184615 0.00053665532266 0.00053202825004 
0.00052750978939 0.00067762012373 0.00067182666144 0.00066610625585 0.00066037114938 0.00065464627814 0.00064907923954 0.00064318965357 0.00063719946075 
0.00063097964716 0.00062483059499 0.00061859356102 0.00061237923272 0.00060617593572 0.00060000619642 0.00059392167802 0.00058791038603 0.00058200776269 
0.00057618893053 0.00057055465506 0.00056507031965 0.00055974550597 0.00055460521352 0.00054960291635 0.0005447492685 0.00054005088848 0.00053548678544 
0.00069063676338 0.00068476727316 0.00067894277638 0.0006730758706 0.00066719302042 0.00066122439416 0.00065537537079 0.00064919856183 0.00064293332693 
0.00063646836222 0.00063009763326 0.00062368554636 0.00061732539547 0.00061100440116 0.00060476551145 0.00059861265206 0.00059256212619 0.0005865938439 
0.00058080704151 0.00057517008922 0.00056969232588 0.00056440523744 0.00055926344384 0.00055429078441 0.0005494737594 0.00054482492021 0.00070487871714 
0.00069888015549 0.00069290431847 0.00068690322201 0.00068079774109 0.00067463611139 0.00066859315927 0.000662227525 0.00065578401528 0.00064915280279 
0.00064262962688 0.00063607653879 0.00062958577812 0.00062314659344 0.00061678112014 0.00061050953046 0.00060433614574 0.0005982836417 0.00059232348166 
0.00058654932374 0.00058092771637 0.00057547050795 0.00057020487555 0.00056508862796 0.00056014519671 0.00055536010831 0.00071994687578 0.00071375871159 
0.00070758094568 0.00070136704651 0.00069504515592 0.00068866909023 0.00068242510957 0.00067587267742 0.00066926073905 0.00066248068698 0.00065582649787 
0.0006491934067 0.00064256653818 0.00063603441758 0.00062958759058 0.00062321728574 0.00061696274523 0.00061081501642 0.00060475099447 0.00059886124465 
0.00059311290837 0.00058751883812 0.00058210734784 0.00057684010667 0.00057174417867 0.00056681906528 0.0007352469066 0.00072880602449 0.00072237760517 
0.00071591280422 0.00070934885071 0.00070274666076 0.00069607323654 0.00068956294003 0.0006827949605 0.00067591766699 0.00066912406672 0.00066240497955 
0.00065570983697 0.00064912172796 0.00064262714545 0.00063621007644 0.00062990018786 0.00062369936472 0.00061756549438 0.00061159002968 0.00060574014597 
0.00060002722991 0.0005944588516 0.00058906460397 0.00058380866011 0.00057871640403 0.00074999377573 0.00074324559509 0.00073651737404 0.0007297737425 
0.00072294771995 0.00071611038886 0.00070923333687 0.00070255148005 0.00069564467551 0.00068865688133 0.00068179051379 0.00067501968781 0.00066832768147 
0.00066169271583 0.00065519376764 0.00064878001547 0.0006424558326 0.00063623878631 0.00063011178059 0.00062404804691 0.00061812811055 0.00061231987762 
0.0006066346995 0.0006011037884 0.00059569232635 0.00059042174543 0.00076323896854 0.00075615242557 0.00074909418079 0.000742045011 0.00073498470046 
0.00072787789399 0.00072080345013 0.00071396534595 0.00070694079616 0.00069987322041 0.00069296297528 0.00068617928781 0.00067950064456 0.00067289870151 
0.00066644372409 0.0006600779471 0.00065380217854 0.00064760313157 0.00064149503584 0.00063542021454 0.00062946189925 0.00062358787247 0.00061781046138 
0.00061216005837 0.00060660598037 0.00060117003903 0.00077401417819 0.00076655857667 0.00075917190852 0.00075181282436 0.00074448307664 0.00073714644465 
0.00072988970904 0.00072291705579 0.00071580005664 0.00070868465111 0.00070179623613 0.00069501213383 0.00068839311249 0.00068190686651 0.00067551849808 
0.00066925382812 0.00066307378319 0.00065695550328 0.00065090602152 0.00064486320632 0.00063890509262 0.00063299942432 0.00062715833858 0.0006213912266 
0.00061573183706 0.00061014750128 0.00078148012614 0.00077366988515 0.00076594512938 0.00075829974293 0.00075071496674 0.00074316532343 0.00073574681026 
0.00072843859218 0.00072148119978 0.00071435059161 0.00070749260401 0.0007007806664 0.00069427048013 0.0006879212465 0.00068168663746 0.00067558068945 
0.00066955265721 0.000663573953 0.00065761722434 0.00065169160961 0.00064573892077 0.00063983646669 0.00063396227067 0.0006281264407 0.0006223647998 
0.00061664798322 0.00075675046014 0.00074927068581 0.00074207571917 0.00073514179962 0.00072846682879 0.00072194198374 0.00071577322124 0.000709847109 
0.00070412766951 0.00069858388619 0.00069312171929 0.00068785226175 0.00068262556726 0.0006774400537 0.00067226215805 0.00066707095367 0.00066184237555 
0.00065656175652 0.00065122125108 0.00064581727196 0.00064035140604 0.00063482962253 0.0006292628744 0.00062367081285 0.000618055182 0.00061244002823 
0.00075687684472 0.00074943220312 0.0007422085294 0.00073529473053 0.00072865021196 0.00072227694102 0.00071604580321 0.00071015176991 0.00070447133892 
0.00069895759424 0.000693571817 0.00068821810982 0.00068300545421 0.000677791319 0.00067257252035 0.00066732824508 0.00066204074221 0.00065670073796 
0.00065129801572 0.00064583330559 0.00064030861726 0.00063473192961 0.00062911440873 0.0006234691528 0.00061781871936 0.00061216671839 0.00075493027193 
0.00074746193755 0.00074026546877 0.0007333815771 0.00072678725776 0.00072046658286 0.00071429131571 0.00070846355063 0.00070282366442 0.00069735270533 
0.00069199763704 0.00068666162204 0.0006814537854 0.00067622900467 0.00067098727508 0.00066571477971 0.00066039113432 0.00065500988338 0.00064956808779 
0.00064406231481 0.00063849875843 0.00063288633453 0.00062723554188 0.00062156069689 0.00061587747256 0.00061020994671 0.00075135831312 0.00074392422441 
0.00073680545639 0.00072993623751 0.00072339341033 0.00071713104986 0.0007110195748 0.0007052507355 0.00069967321001 0.00069423539549 0.00068891336952 
0.00068359885942 0.00067837074542 0.0006731796497 0.00066793248918 0.00066264337326 0.00065730235917 0.00065190074204 0.0006464356507 0.00064091064105 
0.00063532700322 0.00062969551329 0.00062402884559 0.00061834073728 0.00061264765258 0.00060696638492 0.00074684287992 0.00073949622278 0.00073238728815 
0.00072557089889 0.00071908700209 0.00071288510187 0.00070683055598 0.00070111215443 0.00069557721662 0.00069018140083 0.00068487141305 0.00067962813187 
0.00067435027474 0.00066913357053 0.00066391211573 0.0006586180734 0.00065327149126 0.00064786402851 0.00064239364799 0.00063686223967 0.00063127596181 
0.00062564512765 0.00061997877676 0.00061429274597 0.00060860382725 0.0006029295628 0.00074202007487 0.0007347321332 0.0007277215443 0.00072092259765 
0.00071449282702 0.00070834260216 0.00070233708295 0.00069665204189 0.00069113533113 0.00068575034781 0.00068045171749 0.00067520485256 0.00066990900992 
0.00066468464908 0.00065945704348 0.00065415922107 0.00064881181772 0.00064340708731 0.00063794206853 0.00063241851912 0.00062684295063 0.00062122348397 
0.00061557370379 0.00060990462699 0.00060423415247 0.00059858039077 0.00073723953896 0.00073023796516 0.0007232853555 0.00071657987797 0.00071016903965 
0.00070405497115 0.00069818072489 0.00069240156843 0.00068688454575 0.00068148211162 0.00067615369084 0.00067087570449 0.00066561576932 0.00066029357628 
0.00065502473667 0.00064974372619 0.00064439074953 0.00063899052968 0.00063353463713 0.00062802706069 0.00062247203029 0.00061687670355 0.00061125236486 
0.00060561392951 0.00059997427946 0.00059435228384 0.00073341949882 0.00072648078212 0.00071958484413 0.00071297064132 0.00070655213994 0.00070046065413 
0.00069459573921 0.0006887974507 0.00068325241451 0.00067780297507 0.00067242076604 0.00066708277057 0.00066175985012 0.00065639730914 0.00065107722168 
0.00064576787093 0.00064039963995 0.00063499508522 0.00062954980829 0.00062405950842 0.00061852981085 0.00061296587002 0.00060737730861 0.00060177644045 
0.00059617925719 0.00059059970397 0.00073066991551 0.00072356102619 0.00071695096269 0.00071037771788 0.00070406262836 0.00069790128003 0.00069201118338 
0.00068617351383 0.00068057239647 0.00067504507004 0.00066957567381 0.0006641467516 0.0006587393525 0.00065334671934 0.00064791815602 0.00064252120468 
0.00063714647701 0.00063172605442 0.0006262790172 0.00062080456175 0.00061529877442 0.00060976875632 0.00060422076945 0.00059866520691 0.00059311482035 
0.0005875878475 0.00072925536399 0.00072217342528 0.00071561297105 0.00070907185668 0.00070276771837 0.00069659352677 0.00069066786319 0.00068476061627 
0.00067906515095 0.00067343951687 0.00066786144262 0.00066231329538 0.00065678984464 0.00065129337161 0.00064577196152 0.00064030561467 0.00063486590742 
0.00062940859687 0.00062394599787 0.00061847457395 0.00061298793624 0.00060748788142 0.00060198079041 0.00059647331486 0.00059097603991 0.00058550410347 
0.00072926286484 0.0007222355977 0.0007154858222 0.0007091968618 0.00070288974448 0.0006967620983 0.0006907003348 0.00068471161924 0.00067890355243 
0.00067314737156 0.00066743253497 0.00066174791187 0.000656084385 0.00065045572253 0.00064481538479 0.00063925073301 0.00063371015499 0.00062821027733 
0.00062271205604 0.00061722513414 0.00061174612302 0.00060626910932 0.00060079726062 0.000595335484 0.00058989238322 0.00058447830701 0.00073081166951 
0.00072383401621 0.00071711480131 0.0007108366194 0.00070451030212 0.00069833441511 0.00069223606888 0.00068610443349 0.00068016996218 0.0006742706496 
0.00066840145747 0.00066254912021 0.00065673081448 0.00065095445509 0.00064522318842 0.00063948289622 0.00063384015486 0.00062824238073 0.0006226958606 
0.00061717397614 0.00061168286459 0.00060621416538 0.00060076835376 0.00059534526892 0.00058995154865 0.00058459395106 0.00073394307176 0.00072700632057 
0.00072030773724 0.00071402536155 0.0007076650154 0.00070142507135 0.00069523322247 0.00068909065504 0.00068291177611 0.0006768520898 0.00067081216181 
0.00066479430958 0.00065880497075 0.00065285607399 0.00064696693793 0.00064108711353 0.00063531716721 0.00062961279169 0.00062399686282 0.00061840271188 
0.0006128759538 0.00060739829313 0.00060196121886 0.00059656596194 0.00059121152216 0.00058590415808 0.00073866713993 0.000731793698 0.00072506783224 
0.00071853569583 0.00071235596528 0.00070603561139 0.00069977116479 0.00069349987646 0.00068712981839 0.00068091132481 0.00067469327446 0.00066849184799 
0.00066232980952 0.00065620646586 0.00065014911433 0.00064410721197 0.00063819184535 0.00063236618711 0.00062662010805 0.00062098238178 0.00061538716251 
0.00060987149233 0.00060442524248 0.00059903840493 0.00059371008805 0.0005884418589 0.00074496572399 0.00073810620564 0.00073136914158 0.00072480007079 
0.00071855469522 0.00071213833148 0.00070575268108 0.00069933821275 0.00069280975302 0.00068642141629 0.00068003126498 0.00067364518051 0.00066730307377 
0.00066100188635 0.00065477190111 0.00064861235556 0.0006424966161 0.00063652635257 0.00063066128132 0.00062491932382 0.00061924338218 0.00061367225792 
0.00060818914954 0.00060278946097 0.00059746738293 0.00059222053505 0.00075279150212 0.00074592593708 0.0007391601646 0.00073253290285 0.00072620349244 
0.00071967619059 0.00071315638942 0.00070659003977 0.00069993640356 0.00069333867651 0.00068677250382 0.00068020854937 0.00067368329586 0.00066721339523 
0.00066081224823 0.00065448698851 0.0006482139549 0.00064209559698 0.00063609204356 0.00063020633801 0.0006244679347 0.00061880485069 0.00061326365227 
0.00060782799109 0.00060248467048 0.00059723699684 0.00076206646615 0.00075517087518 0.00074838652929 0.00074164374533 0.00073498116704 0.00072855685048 
0.00072189162338 0.00071520122938 0.00070834712667 0.00070161539994 0.000694840615 0.00068811004511 0.00068141003409 0.00067476684228 0.00066820831083 
0.00066172246494 0.00065533961853 0.00064902811927 0.00064288441537 0.00063686879447 0.00063101005264 0.00062525827151 0.00061962886246 0.00061412996214 
0.00060874467908 0.00060346739039 0.00077266717025 0.00076570975524 0.00075884404818 0.00075199738783 0.00074521078481 0.00073864416053 0.00073182322628 
0.00072496913291 0.00071794773074 0.00071104914721 0.00070410547391 0.00069721754223 0.0006903646762 0.0006835615608 0.00067685169326 0.00067021762483 
0.00066368883069 0.00065723528679 0.00065095343434 0.00064480523274 0.00063879782731 0.00063295476518 0.00062723001298 0.00062163622358 0.00061618353062 
0.00061085512143 0.00078441003194 0.0007773555637 0.00077037550449 0.00076339786595 0.00075646420853 0.00074974010795 0.00074275324426 0.00073573335644 
0.00072858146608 0.00072148813623 0.00071442659518 0.00070735496142 0.00070035869392 0.00069341770415 0.00068656738012 0.00067980717268 0.00067314786059 
0.00066656474025 0.00066015271022 0.00065387634743 0.00064774171467 0.00064177774528 0.00063593769007 0.00063024529443 0.00062468850919 0.00061928282315 
0.0007970257182 0.0007898348343 0.00078270510887 0.00077556793927 0.00076846531564 0.00076134274205 0.00075441060553 0.00074722222018 0.00074001349546 
0.00073266495797 0.00072546246896 0.00071825954776 0.00071114072449 0.00070408875558 0.00069712021843 0.00069025045931 0.00068347947772 0.00067682582788 
0.00067025747169 0.00066386396726 0.00065760845779 0.00065149953047 0.00064556168964 0.00063975102696 0.00063409039342 0.00062856614708 0.00081014794033 
0.00080277699228 0.00079546240371 0.00078817063625 0.00078084054651 0.00077352923714 0.00076641938206 0.00075906444958 0.00075170234778 0.00074421625443 
0.00073689028728 0.0007296118394 0.00072235933882 0.00071521569518 0.00070816676486 0.00070120054627 0.0006943525839 0.00068761070255 0.00068094874877 
0.00067445385449 0.00066808992565 0.00066186611551 0.00065580742942 0.00064987294527 0.00064408672373 0.00063844815495 0.00082327939071 0.00081568664553 
0.0008081530565 0.00080064418156 0.00079310477106 0.0007855966752 0.00077830598984 0.00077078754225 0.00076328276144 0.00075570684278 0.00074824412 
0.00074087835573 0.00073355333388 0.00072634766049 0.00071924458042 0.00071222557767 0.00070531816907 0.00069852214889 0.00069179347368 0.00068522003056 
0.00067876668886 0.00067244110265 0.00066626903374 0.00066021098545 0.00065429350984 0.00064851777323 0.00083581773525 0.00082796695062 0.00082018121022 
0.00081243766086 0.00080467492575 0.00079696517887 0.00078927110871 0.00078182181549 0.00077418780305 0.0007665041586 0.00075896558614 0.00075153996268 
0.00074420609206 0.00073693929582 0.00072981603709 0.00072278485296 0.00071584986074 0.00070902764606 0.00070229990877 0.00069563800053 0.00068911973482 
0.00068270979563 0.00067641579286 0.0006702650152 0.00066421876446 0.00065829572754 0.00084708162017 0.00083895582127 0.00083089847613 0.00082290075042 
0.00081494666687 0.00080699933886 0.00079913196259 0.00079154042134 0.00078379407731 0.00077602803973 0.00076843569366 0.00076098112133 0.00075363941275 
0.00074638065976 0.00073927504968 0.0007322658611 0.0007253552042 0.00071853075983 0.00071180681449 0.00070512469615 0.0006985653816 0.00069209369625 
0.00068571879313 0.00067946517261 0.00067329955482 0.00066723985772 0.0008564095096 0.00084798447573 0.00083966128071 0.00083140715016 0.00082322637826 
0.00081508077665 0.00080705422523 0.00079933551238 0.0007914968177 0.00078367390434 0.00077608656575 0.00076860555608 0.00076129172247 0.00075411199826 
0.00074703410244 0.0007400869827 0.00073323564623 0.00072646002896 0.00071976906605 0.00071310044311 0.00070653037346 0.00070002362312 0.00069358859325 
0.00068722980053 0.00068097731125 0.00067479402185 0.00086324202676 0.00085452960917 0.00084592880272 0.00083743878265 0.00082904211783 0.00082071106532 
0.00081253583333 0.00080448925982 0.00079680411176 0.00078894984936 0.00078136608271 0.00077392257975 0.00076667394425 0.00075958143365 0.00075260373849 
0.00074576169928 0.00073901174283 0.00073233111059 0.00072569596213 0.00071911601195 0.000712531781 0.00070601722388 0.00069954611132 0.00069312384173 
0.00068678133865 0.00068048506406 0.00083105239113 0.00082297203689 0.00081515824945 0.00080758357066 0.0008002433637 0.00079302793765 0.00078614410938 
0.00077948184587 0.00077301052209 0.00076670584539 0.00076048109399 0.00075445424327 0.0007484818394 0.0007425678779 0.00073668361879 0.00073081210025 
0.00072493208399 0.00071903124455 0.00071310185229 0.00070713995742 0.00070114564789 0.00069512266017 0.00068907921513 0.00068303192094 0.00067697933814 
0.00067094249383 0.00083255736176 0.00082449171747 0.00081662603271 0.00080904514643 0.00080170610571 0.00079460951272 0.00078762891547 0.00078096326906 
0.00077449637714 0.00076818979851 0.00076201361415 0.00075588004492 0.00074990477453 0.00074395026432 0.00073801793678 0.00073208953824 0.00072614921108 
0.00072018846793 0.00071419691009 0.00070817417432 0.00070212044122 0.00069604129752 0.00068994506109 0.0006838419886 0.00067775126046 0.00067167330683 
0.00083250958365 0.00082439650512 0.00081653184825 0.00080895120361 0.00080162913284 0.00079454933674 0.00078758643755 0.00078094816676 0.00077448368512 
0.00076818412998 0.0007620065659 0.00075586307383 0.00074986962679 0.00074388636499 0.00073791833276 0.00073194902215 0.0007259641969 0.00071995484439 
0.00071391785015 0.00070784828468 0.00070175004939 0.00069562947546 0.00068949416829 0.00068335533696 0.00067722544974 0.00067112523463 0.00083119002091 
0.00082308540623 0.00081523053614 0.00080767144558 0.00080036193347 0.00079330738419 0.0007863698806 0.00077975142675 0.00077331167987 0.00076701001706 
0.00076083324526 0.00075468243381 0.00074864289886 0.00074267155874 0.00073667451627 0.00073067618826 0.00072465884384 0.00071861617491 0.0007125440287 
0.00070644406628 0.00070031528223 0.00069416548878 0.00068800463499 0.00068184278981 0.00067569360139 0.00066957014455 0.00082909097798 0.0008210456906 
0.00081320901402 0.00080563117895 0.00079834985328 0.00079131549324 0.00078439846084 0.00077779564931 0.00077136526244 0.0007650753082 0.00075888269825 
0.00075277716671 0.00074666432398 0.00074064434085 0.00073465435746 0.00072862823101 0.00072258671347 0.00071651987158 0.00071042565942 0.00070430323588 
0.00069815829627 0.00069199326705 0.00068581898781 0.00067964654554 0.00067348864108 0.00066735986824 0.00082667299886 0.00081865687131 0.00081088722994 
0.00080329419182 0.00079603354213 0.00078901781569 0.0007821183527 0.0007755202608 0.00076908295404 0.00076278124964 0.00075657969315 0.00075045142536 
0.0007443014897 0.00073825423429 0.00073223764597 0.00072618705035 0.00072012326861 0.00071403857957 0.00070792899684 0.00070179471786 0.00069563977401 
0.00068946956996 0.00068329456488 0.00067712241246 0.00067096746329 0.00066484401778 0.0008241500499 0.00081638935173 0.00080864596837 0.00080111988936 
0.00079383955929 0.00078683389583 0.00078004015476 0.00077332722704 0.00076687329312 0.00076054136507 0.00075429947212 0.00074812975644 0.00074200413379 
0.00073585157467 0.00072977152202 0.00072371880175 0.00071762877955 0.00071152659339 0.0007054035568 0.00069926250602 0.00069310582313 0.00068693820674 
0.00068076803451 0.00067460674463 0.00066846386468 0.00066235424824 0.00082235221081 0.00081462294917 0.00080690507085 0.00079943467597 0.00079212627839 
0.00078512110715 0.00077831302976 0.00077156804536 0.00076507876058 0.00075869674362 0.00075240006342 0.00074616578199 0.00073997823865 0.00073377325782 
0.0007276381808 0.00072154304707 0.00071541996069 0.0007092926673 0.0007031573922 0.00069700955986 0.00069085379787 0.00068469338267 0.00067853541019 
0.00067238911974 0.00066626698313 0.00066017908346 0.00082134440194 0.00081341300845 0.0008059497432 0.00079849137893 0.0007912613858 0.00078416210708 
0.00077732090072 0.00077053559645 0.00076398591117 0.00075753097618 0.00075115470421 0.00074484107066 0.00073857132667 0.00073233866699 0.00072609288756 
0.00071990269258 0.0007137603599 0.00070759986786 0.00070144180809 0.00069528621618 0.00068912928957 0.00068297691635 0.00067683379322 0.00067070764612 
0.00066460804782 0.00065854932514 0.00082134310963 0.00081343910634 0.00080599464426 0.00079854073569 0.00079130012665 0.00078417296344 0.00077728862991 
0.0007704307015 0.00076379611179 0.00075725918396 0.00075078348657 0.00074436554378 0.0007379931569 0.00073166688531 0.00072533388577 0.00071907427288 
0.00071286092978 0.00070665168144 0.00070046099421 0.00069428720466 0.00068812512094 0.00068197673621 0.00067584760283 0.00066974257152 0.00066366954109 
0.00065764021012 0.00082253621617 0.00081462089573 0.00080718859245 0.00079973070514 0.00079246763831 0.00078533869754 0.00077835165036 0.00077141494115 
0.00076468062109 0.00075802415668 0.00075143521338 0.00074490028568 0.00073840671968 0.00073196476678 0.00072552544802 0.00071917495422 0.00071286212985 
0.00070660488251 0.00070036758399 0.00069416143686 0.00068798534959 0.00068183557406 0.00067571494673 0.00066962785093 0.00066358103631 0.00065758199749 
0.00082495528085 0.0008170555706 0.00080939333861 0.00080215366413 0.00079485497783 0.00078770620619 0.00078064623739 0.00077357453311 0.00076672835522 
0.00075994672537 0.00075322448534 0.00074654428396 0.00073991816984 0.00073334941739 0.00072683710967 0.0007203248419 0.00071391828341 0.00070759006042 
0.00070127534167 0.00069502334105 0.00068881876781 0.00068265565698 0.00067653615324 0.00067046056564 0.00066443476316 0.0006584635247 0.0008286842874 
0.00082079172944 0.00081312163547 0.00080585595477 0.00079850941475 0.00079129138342 0.00078414101821 0.00077706850801 0.00076999329475 0.00076307139295 
0.00075620067244 0.00074937843554 0.00074260511109 0.00073588699009 0.00072923823961 0.00072260497539 0.00071608546586 0.00070963524451 0.00070327833795 
0.00069695016789 0.00069069951383 0.00068451111368 0.00067837910872 0.00067230648214 0.00066629253461 0.00066034285142 0.00083374155329 0.00082587896356 
0.00081815431682 0.00081061953234 0.000803442171 0.00079614123411 0.00078892363727 0.00078173427976 0.00077448597684 0.00076742377633 0.00076039689974 
0.0007534142854 0.00074649208532 0.00073962316227 0.00073282911229 0.00072605493163 0.00071940846647 0.00071285136515 0.00070637352907 0.00069999462908 
0.00069368273358 0.00068744641904 0.00068128951437 0.00067520392287 0.00066919231051 0.00066325365175 0.00084011236256 0.00083223165432 0.00082447078458 
0.00081688144857 0.00080963006337 0.00080223314706 0.00079490172074 0.00078758215875 0.00078019096535 0.00077297967489 0.00076580163855 0.00075865627929 
0.00075157652777 0.00074455244833 0.000737608587 0.00073073872582 0.00072391245673 0.00071722875942 0.00071064518879 0.00070418299156 0.0006977835702 
0.00069148924348 0.00068528645195 0.00067917334742 0.00067314710516 0.00066720677864 0.00084774780419 0.00083983135695 0.00083201905333 0.00082435769283 