# vtk DataFile Version 5.1
vtk output
ASCII
DATASET STRUCTURED_POINTS
DIMENSIONS 26 26 26
SPACING 0.08 0.08 0.08
ORIGIN -1 -1 0.5
POINT_DATA 17576
FIELD FieldData 1
potential 1 17576 double
0.43948442424 0.43967529301 0.43992653944 0.44023156963 0.44058216569 0.44096835536 0.4413782047 0.44179767247 0.44221054929 
0.44259801125 0.44294147434 0.4432203735 0.44341632736 0.44351427086 0.4435063833 0.44339224724 0.44317916636 0.44288158275 
0.44251854156 0.44211116126 0.44168072781 0.44124758366 0.44082818555 0.44043814588 0.44008991398 0.43979366303 0.4730309354 
0.47318419765 0.47338673067 0.47363281397 0.47391555538 0.47422671631 0.47455618877 0.47489294209 0.47522393596 0.47553412917 
0.47580916654 0.47603289782 0.47619130519 0.47627249335 0.47627110632 0.47618605413 0.47602251507 0.47579095222 0.47550545388 
0.47518220454 0.47483773592 0.47448850777 0.47414785864 0.47382897059 0.47354253245 0.47329740629 0.50586968925 0.50599030543 
0.50615057537 0.5063456414 0.50656983246 0.50681645996 0.50707743528 0.50734420214 0.50760657143 0.50785283932 0.50807201617 
0.5082514423 0.50838024965 0.50844895956 0.50845359569 0.50839276282 0.50826988931 0.50809246728 0.50787084028 0.50761725653 
0.50734452261 0.50706582886 0.50679181953 0.50653353978 0.50630001354 0.50609887896 0.53740817907 0.53750062328 0.53762441155 
0.5377755597 0.5379494833 0.53814090048 0.53834385892 0.53855171531 0.53875692949 0.53895052278 0.53912432248 0.53926831429 
0.53937386771 0.53943350952 0.53944382851 0.53940313421 0.5393136494 0.53918054033 0.53901130823 0.53881518038 0.53860197772 
0.53838221186 0.53816424697 0.53795724274 0.53776873115 0.53760519079 0.56704999792 0.56711831421 0.5672107695 0.5673243144 
0.56745535662 0.56759997919 0.56775387498 0.56791237922 0.56806960837 0.56822042669 0.5683573149 0.56847288885 0.56856014663 
0.56861307795 0.56862855279 0.5686046569 0.56854257729 0.56844569248 0.56831947335 0.56817064556 0.56800673236 0.56783603935 
0.56766501825 0.56750120357 0.56735081924 0.56721927091 0.59426099159 0.59430873109 0.59437456719 0.59445615165 0.59455087777 
0.59465602802 0.59476881706 0.5948862 0.5950041709 0.59511938565 0.59522610431 0.59531868579 0.59539133217 0.59543929636 
0.59545888598 0.59544880145 0.59540916097 0.59534194017 0.59525094486 0.59514102687 0.59501786286 0.5948879591 0.5947561862 
0.59462867974 0.59451050306 0.59440611615 0.61861761933 0.61864800438 0.6186914055 0.61874611616 0.6188103896 0.61888260195 
0.61896124805 0.61904468231 0.61913034773 0.61921632885 0.61929830729 0.61937193088 0.61943250816 0.61947596222 0.61949893438 
0.61949996534 0.6194784036 0.61943527911 0.61937304541 0.61929508582 0.61920556222 0.61910952015 0.61901050969 0.6189134838 
0.61882248776 0.61874115112 0.63982043514 0.63983648728 0.6398612734 0.63989369277 0.63993279464 0.63997790638 0.64002859713 
0.64008433854 0.64014367697 0.64020576892 0.64026737478 0.64032518004 0.64037535664 0.64041452304 0.64043956672 0.64044898468 
0.64044160077 0.6404177598 0.64037878041 0.64032688657 0.64026500109 0.6401969785 0.64012526406 0.6400537917 0.6399857406 
0.63992398238 0.65767940953 0.65768384223 0.65769352372 0.6577078476 0.65772658684 0.65774986502 0.6577781175 0.65781169218 
0.65784989322 0.65789264111 0.65793750764 0.65798196064 0.65802292865 0.65805760825 0.65808322245 0.65809836629 0.65810158127 
0.65809256434 0.65807191694 0.65804093809 0.65800150788 0.65795648733 0.65790739025 0.65785727982 0.65780856853 0.65776348759 
0.67208582652 0.67208133124 0.67207919953 0.67207933069 0.67208211321 0.67208835712 0.67209915873 0.6721153613 0.67213707281 
0.67216439754 0.6721956687 0.67222883187 0.67226146399 0.67229129747 0.67231594375 0.67233418363 0.67234443752 0.67234617394 
0.67233934644 0.67232458061 0.6723029605 0.67227647842 0.67224589308 0.67221349711 0.67218104045 0.67215015234 0.68298495668 
0.68297406777 0.68296325754 0.68295285857 0.6829437849 0.68293741308 0.682935275 0.68293860257 0.6829477779 0.68296320135 
0.68298355539 0.68300722907 0.68303216221 0.68305688579 0.68307901383 0.68309792004 0.68311191372 0.68312043707 0.68312313227 
0.68312014021 0.68311196918 0.68309991885 0.68308409438 0.68306612914 0.68304718466 0.68302833951 0.69035375302 0.69033888381 
0.69032241539 0.69030500269 0.69028795664 0.69027307347 0.69026216505 0.69025669102 0.69025686674 0.69026350716 0.69027539005 
0.69029110072 0.69030925054 0.69032844262 0.69034679498 0.69036396883 0.69037864789 0.69039023595 0.69039828446 0.69040277592 
0.6904038224 0.69040223248 0.69039757709 0.69039094724 0.69038296826 0.69037422315 0.69418533022 0.69416906579 0.694149942 
0.69412892866 0.69410765707 0.69408814643 0.69407234248 0.69406165056 0.69405620943 0.69405691933 0.69406255396 0.69407189665 
0.69408385354 0.69409730091 0.69411074709 0.694124217 0.6941366832 0.69414776476 0.69415725214 0.6941650195 0.69417108008 
0.69417599332 0.694178925 0.69418056297 0.69418105741 0.69418054788 0.69448025133 0.69446522431 0.69444639467 0.69442519581 
0.69440335377 0.69438298295 0.69436594802 0.69435348257 0.6943454618 0.69434290358 0.69434432966 0.69434869793 0.69435511858 
0.69436269561 0.69437027336 0.6943782406 0.69438590971 0.6943932671 0.69440037677 0.69440734382 0.69441424841 0.69442161402 
0.69442848824 0.69443520666 0.69444161233 0.69444744003 0.69124190247 0.69123069319 0.69121533538 0.6911974015 0.6911786562 
0.69116111799 0.69114642014 0.69113547794 0.69112788948 0.69112444471 0.69112357682 0.6911242826 0.69112578477 0.69112738737 
0.69112822735 0.6911290672 0.69112957696 0.69113017317 0.69113136854 0.69113354821 0.69113718918 0.69114293609 0.69114993898 
0.6911584175 0.69116800095 0.69117811165 0.68447672456 0.6844719881 0.68446336624 0.68445225932 0.6844403422 0.68442934329 
0.68442052387 0.68441431749 0.68441006291 0.68440811046 0.68440679257 0.68440505441 0.68440219992 0.68439769095 0.68439088547 
0.68438305939 0.68437416364 0.68436512671 0.68435692539 0.68435056747 0.68434689159 0.68434694887 0.68435016256 0.68435690829 
0.68436672036 0.68437897783 0.67419795668 0.67420284602 0.67420448474 0.67420385577 0.67420261967 0.67420198427 0.67420265292 
0.67420451652 0.67420642709 0.67420835302 0.67420838218 0.6742053566 0.67419863209 0.67418777426 0.67417240677 0.67415415351 
0.67413363106 0.67411208174 0.67409116871 0.67407249823 0.67405752068 0.67404783934 0.67404333389 0.67404470063 0.67405163874 
0.6740634957 0.66043573568 0.66045344568 0.6604689516 0.66048286376 0.66049640349 0.66051012574 0.66052406499 0.66053743014 
0.66054849341 0.66055674469 0.6605598392 0.66055677511 0.66054654389 0.66052894696 0.66050385996 0.66047337998 0.66043864888 
0.6604015464 0.66036443526 0.66032965769 0.66029939503 0.66027592757 0.66025977318 0.66025208543 0.66025295748 0.66026182819 
0.64325164698 0.64328565592 0.64331898806 0.64335173232 0.64338440639 0.64341678705 0.64344800183 0.6434766106 0.64350014265 
0.64351717968 0.64352542771 0.64352332661 0.64350984997 0.64348488986 0.64344861604 0.64340366661 0.64335181638 0.64329572092 
0.64323859411 0.64318365466 0.64313397615 0.64309263856 0.64306089195 0.64304052552 0.64303220899 0.64303539065 0.62276078289 
0.622814864 0.62287031932 0.62292652787 0.62298308185 0.62303881568 0.62309180822 0.62313969863 0.62317917597 0.62320804974 
0.62322347258 0.62322348202 0.62320689819 0.62317357514 0.62312430668 0.62306210198 0.62298960117 0.62291044612 0.62282890838 
0.62274930127 0.62267571552 0.62261218447 0.62256085757 0.62252420199 0.62250347052 0.6224986895 0.59915919753 0.59923744195 
0.59931972159 0.59940452737 0.59949010806 0.599574325 0.59965414315 0.59972595466 0.5997854455 0.59982947924 0.59985443514 
0.59985780447 0.59983811533 0.59979521006 0.59973042509 0.59964739926 0.59954986996 0.59944270335 0.59933151972 0.59922197643 
0.59911940652 0.59902903985 0.59895392012 0.59889735386 0.59886122056 0.59884609067 0.57275102421 0.57285810404 0.57297217545 
0.57309106721 0.57321157313 0.57333018546 0.57344249984 0.57354356897 0.57362781775 0.57369090675 0.57372815404 0.57373627855 
0.5737133617 0.57365919774 0.57357563163 0.57346727581 0.57333911047 0.57319786661 0.57305066124 0.5729049224 0.57276752738 
0.57264503869 0.57254159947 0.57246150071 0.57240695866 0.57237936133 0.54396280249 0.54410357589 0.54425532635 0.54441452948 
0.54457657738 0.54473616689 0.54488758928 0.54502417158 0.54513880661 0.54522546323 0.54527843704 0.54529296126 0.54526652445 
0.54519888864 0.5450923811 0.54495288234 0.54478717597 0.54460411255 0.5444130683 0.54422359718 0.54404451064 0.54388381487 
0.54374709735 0.54363943799 0.54356375845 0.54352240429 0.5133292396 0.51350941666 0.5137052404 0.51391174961 0.51412265616 
0.51433102047 0.5145292163 0.51470870787 0.5148604324 0.51497636369 0.51504895245 0.51507185833 0.5150415262 0.51495747496 
0.51482267773 0.51464466595 0.51443259549 0.51419816868 0.51395368355 0.51371141542 0.51348249447 0.51327674774 0.5131011575 
0.51296176086 0.51286211801 0.51280498158 0.48144428966 0.48167038428 0.48191760193 0.48217936016 0.48244764776 0.4827135944 
0.48296749693 0.4831985726 0.48339534479 0.48354726801 0.48364427254 0.4836779855 0.48364318322 0.4835389552 0.48336905815 
0.48314319067 0.48287371667 0.48257615822 0.48226659999 0.48196075585 0.48167254738 0.48141391286 0.48119338992 0.48101773682 
0.48089133128 0.48081741166 0.44889437317 0.44917388452 0.44948079038 0.44980683862 0.45014223066 0.45047597054 0.45079579116 
0.45108851771 0.45133965835 0.45153546373 0.45166264928 0.45170986841 0.45166973727 0.45154051256 0.45132691844 0.45104154625 
0.45070109445 0.45032611839 0.44993766889 0.4495557145 0.44919746926 0.44887721847 0.44860504947 0.44838860687 0.4482327116 
0.44814075624 0.42704232226 0.42721398024 0.42743920191 0.42771164292 0.42802343071 0.42836509231 0.42872544646 0.42909158915 
0.42944900708 0.42978128529 0.43007301142 0.43030738066 0.43047008254 0.43054945435 0.43053991753 0.43044138337 0.43025951334 
0.43000554379 0.42969453917 0.42934360965 0.42897052283 0.42859282337 0.42822490882 0.42788096518 0.42757251292 0.42730915524 
0.45702393856 0.4571630052 0.4573462041 0.4575680678 0.457822024 0.45810024266 0.45839317833 0.45869061253 0.45898071155 
0.45925018431 0.45948696834 0.4596776504 0.45981103735 0.4598778604 0.45987376161 0.45979851279 0.45965611688 0.45945499142 
0.45920658059 0.45892429629 0.45862212507 0.45831439836 0.45801279738 0.45772929887 0.45747373138 0.45725439529 0.48628129161 
0.48639196356 0.48653854793 0.48671643509 0.48692021838 0.48714349649 0.48737852718 0.48761722273 0.48785014379 0.4880667548 
0.48825770317 0.48841232426 0.48852182259 0.4885785171 0.48857959981 0.48852401209 0.48841463924 0.48825769885 0.48806180098 
0.48783729461 0.48759516346 0.48734699993 0.48710214399 0.48687063233 0.48666074233 0.48647958687 0.51433837699 0.51442448032 
0.51453939254 0.51467930788 0.51483985487 0.51501590125 0.51520159986 0.51539044703 0.51557522539 0.51574764497 0.51590065427 
0.51602572947 0.51611574632 0.51616491694 0.51617054198 0.51613141568 0.51604953165 0.51592930545 0.51577712242 0.51560092149 
0.5154092306 0.51521136845 0.51501469213 0.51482753788 0.51465680554 0.51450850651 0.54072447413 0.54078955728 0.54087720715 
0.54098456191 0.54110814752 0.54124404734 0.54138782671 0.54153464787 0.5416785816 0.54181478237 0.54193646982 0.5420373875 
0.54211181243 0.54215494331 0.54216454527 0.54213914534 0.54208004024 0.54199012766 0.54187422332 0.54173819638 0.54158866134 
0.54143305028 0.54127703811 0.54112750285 0.54099014425 0.54086996783 0.56501043884 0.56505759813 0.56512211781 0.56520179394 
0.56529404694 0.56539600564 0.56550453734 0.56561615392 0.56572650755 0.56583224328 0.56592806666 0.5660091827 0.56607086084 
0.56610911165 0.56612202821 0.5661079494 0.56606750802 0.56600256571 0.56591655484 0.56581378821 0.56569932153 0.56557902943 
0.56545719535 0.56533943865 0.56523039203 0.56513419723 0.58683727614 0.58686935587 0.5869144185 0.58697084242 0.58703682125 
0.58711040726 0.58718955613 0.58727196022 0.58735451167 0.58743507591 0.58750956324 0.58757425764 0.58762534846 0.58765970323 
0.587674797 0.58766980123 0.58764442829 0.58759980496 0.58753826117 0.58746288545 0.58737744677 0.58728655019 0.58719331475 
0.58710229636 0.58701720259 0.58694139174 0.60592819894 0.60594788607 0.60597686204 0.6060140482 0.60605830658 0.60610850255 
0.60616349158 0.60622192836 0.60628168015 0.60634156425 0.60639843002 0.60644943254 0.60649145794 0.60652193963 0.60653854202 
0.60654042153 0.60652687727 0.60649852306 0.60645674856 0.60640370006 0.60634208682 0.60627549031 0.60620606087 0.60613743959 
0.60607254735 0.60601404388 0.62208533411 0.6220950415 0.62211103526 0.62213265199 0.62215935552 0.62219066096 0.62222616312 
0.6222652705 0.62230658032 0.62234962228 0.62239198089 0.62243147401 0.62246559272 0.62249221106 0.62250923515 0.62251589746 
0.62251120019 0.62249542301 0.62246921059 0.62243401196 0.62239167598 0.62234494068 0.62229514639 0.62224516527 0.62219722706 
0.62215340726 0.63517611783 0.63517824943 0.63518417632 0.63519364101 0.63520659979 0.63522311759 0.63524334034 0.63526716177 
0.63529396373 0.63532348116 0.63535403387 0.63538383531 0.63541090729 0.63543352246 0.63544985644 0.63545925361 0.6354606488 
0.63545395699 0.63543947554 0.63541806171 0.63539091977 0.63536006444 0.63532620816 0.63529155399 0.63525774509 0.63522632325 
0.64511756039 0.64511437146 0.64511300068 0.64511352048 0.64511627792 0.64512178896 0.64513057366 0.64514292461 0.64515854558 
0.64517754051 0.64519856579 0.64522024314 0.64524096742 0.64525937352 0.64527383931 0.64528408685 0.64528887804 0.6452880861 
0.645281746 0.6452703246 0.64525457621 0.64523595869 0.64521465782 0.64519232644 0.64517011508 0.6451490749 0.65186128282 
0.6518549037 0.65184889248 0.65184353712 0.6518394465 0.65183746189 0.65183837108 0.65184263926 0.65185019045 0.65186130552 
0.65187488533 0.65188971874 0.65190470991 0.65191878716 0.65193040224 0.65193955971 0.65194529616 0.65194738083 0.65194573736 
0.65194070966 0.6519327321 0.65192288509 0.65191093491 0.65189811825 0.65188514462 0.65187265567 0.65538190119 0.65537469265 
0.65536660682 0.65535833668 0.65535062973 0.65534448673 0.65534083723 0.65534027814 0.65534247454 0.65534816359 0.65535618886 
0.65536553371 0.65537535775 0.65538479632 0.65539259665 0.65539903331 0.65540331581 0.65540533729 0.6554051852 0.6554030627 
0.65539932576 0.65539486456 0.65538914863 0.65538311143 0.65537710307 0.65537142218 0.65567012448 0.65566425113 0.65565679612 
0.65564856741 0.65564038957 0.65563332486 0.65562827346 0.65562577167 0.65562533327 0.65562789807 0.65563210584 0.65563712023 
0.65564227777 0.65564690313 0.65565001008 0.65565214498 0.65565277025 0.6556520394 0.65565020214 0.65564761993 0.65564466583 
0.65564220115 0.65563962309 0.65563760378 0.6556362919 0.65563568954 0.65272891604 0.65272653586 0.65272238975 0.65271717623 
0.65271169089 0.65270687444 0.65270351225 0.65270193475 0.65270149613 0.65270299226 0.65270501913 0.65270679115 0.65270774814 
0.65270734517 0.65270493366 0.65270128428 0.65269616025 0.65269004099 0.65268350199 0.6526771423 0.65267156414 0.65266773383 
0.6526651236 0.65266433349 0.65266538299 0.652668161 0.64657297722 0.64657663957 0.64657861943 0.646579458 0.6465798458 
0.64658049766 0.64658190254 0.64658405269 0.64658615978 0.64658865806 0.64659008665 0.64658962353 0.64658678421 0.64658114773 
0.64657228831 0.6465614002 0.64654847249 0.64653440991 0.64652017388 0.64650679519 0.64649520316 0.64648662498 0.64648075955 
0.64647833549 0.64647930532 0.64648349326 0.63723321363 0.63724548866 0.63725658961 0.63726660537 0.63727617899 0.63728559318 
0.63729490879 0.63730371084 0.63731084058 0.63731642131 0.63731879268 0.63731704859 0.637310757 0.63729957379 0.63728334686 
0.63726353636 0.63724074734 0.63721612425 0.63719121507 0.63716753392 0.637146514 0.63712979604 0.63711743669 0.63711040661 
0.6371087979 0.63711243048 0.62476352805 0.624787132 0.62481041317 0.62483307002 0.62485534036 0.62487696742 0.62489748718 
0.62491594349 0.62493070486 0.62494149135 0.624946258 0.62494428046 0.62493477057 0.62491759836 0.62489287442 0.62486244955 
0.6248274065 0.624789441 0.6247507114 0.62471333229 0.62467942903 0.62465110928 0.62462896468 0.62461432006 0.62460758227 
0.62460863211 0.60925214113 0.60929003363 0.60932885373 0.60936780178 0.60940650227 0.60944406544 0.60947925501 0.60951062766 
0.60953581393 0.60955399273 0.60956294597 0.60956152133 0.60954893876 0.60952513649 0.60949053028 0.60944742395 0.60939746973 
0.60934304958 0.60928706516 0.60923242264 0.60918192136 0.60913844246 0.60910314885 0.60907787886 0.60906350838 0.60905986061 
0.5908361613 0.59089156714 0.59094957782 0.59100884428 0.59106796085 0.59112549072 0.59117925856 0.59122702026 0.59126578449 
0.59129377789 0.59130858465 0.59130862243 0.59129298695 0.5912616706 0.59121544717 0.59115715815 0.59108914439 0.59101465126 
0.59093750628 0.59086157124 0.59079053038 0.59072809075 0.590676192 0.59063723213 0.59061255882 0.59060252777 0.56971747863 
0.56979391756 0.56987513923 0.56995896231 0.57004305285 0.57012495201 0.57020161575 0.57026971792 0.57032539149 0.57036604972 
0.57038861712 0.57039106352 0.57037226042 0.57033221161 0.57027218962 0.57019560404 0.57010572463 0.57000685819 0.56990399438 
0.56980216094 0.56970613515 0.56962067059 0.56954848661 0.56949271595 0.56945522451 0.5694367727 0.54617551448 0.54627706791 
0.54638574606 0.54649889805 0.54661294169 0.54672425112 0.54682860178 0.54692150866 0.54699800421 0.54705447686 0.54708696092 
0.54709281411 0.54707057958 0.54702026424 0.546943622 0.54684487809 0.54672836709 0.54659999894 0.54646600097 0.54633292402 
0.54620688295 0.54609381299 0.54599741291 0.54592168955 0.54586879237 0.54584020581 0.52057031543 0.52070120464 0.52084245357 
0.52099027626 0.52113988135 0.52128618035 0.52142373336 0.52154656015 0.52164839995 0.52172418388 0.52176919421 0.52177955105 
0.52175339999 0.52169083353 0.52159402965 0.52146829806 0.52131947322 0.52115520523 0.52098359428 0.52081298665 0.5206511574 
0.52050529978 0.52038042659 0.52028126971 0.52021061295 0.52017087188 0.49332989643 0.49349510426 0.49367444232 0.49386291002 
0.4940543051 0.4942420132 0.49441901952 0.49457768708 0.49471009048 0.49480951823 0.49486979586 0.49488586856 0.49485517179 
0.49477771965 0.49465631533 0.49449764035 0.49430942527 0.49410160511 0.49388464056 0.49366912648 0.49346480608 0.49328048015 
0.493122535 0.49299627455 0.49290543685 0.49285271461 0.46492115927 0.46512632103 0.46535001921 0.46558584074 0.46582607633 
0.46606240611 0.4662859835 0.46648722575 0.46665618217 0.46678410482 0.46686291921 0.46688601406 0.46684981823 0.46675418473 
0.46660267196 0.46640371139 0.46616752192 0.46590699215 0.46563555665 0.46536659505 0.46511220297 0.46488303157 0.46468681314 
0.46452988297 0.46441649713 0.464349977 0.43581313339 0.43606463409 0.43633968525 0.43663036377 0.43692736404 0.43722045757 
0.43749850313 0.4377498873 0.43796214213 0.43812398236 0.43822490012 0.43825634791 0.4382132949 0.43809532097 0.43790693322 
0.43765882863 0.437364452 0.43704044063 0.43670401707 0.43637193695 0.43605905186 0.43577809962 0.43553829416 0.43534690666 
0.43520872011 0.4351273125 0.41480826637 0.41496088744 0.4151604649 0.4154010072 0.4156751322 0.41597404214 0.41628750067 
0.4166039082 0.41691051955 0.41719321541 0.41743937686 0.41763532458 0.41776985438 0.41783390977 0.41782350167 0.41773874337 
0.41758406268 0.4173682896 0.41710338228 0.41680318054 0.41648241123 0.41615604201 0.41583643802 0.41553626636 0.41526597007 
0.41503421094 0.4416883662 0.44181310445 0.44197688197 0.44217455051 0.44239995959 0.44264580688 0.44290328479 0.4431631436 
0.44341486859 0.44364686964 0.4438491506 0.44401059679 0.44412228192 0.44417678717 0.4441710439 0.44410491974 0.44398167507 
0.44380810882 0.44359351858 0.4433489795 0.44308623469 0.44281764336 0.44255326609 0.44230383491 0.4420782311 0.44188409446 
0.46785458834 0.46795492523 0.46808736104 0.46824755274 0.46843042528 0.46862997488 0.46883896584 0.46904997765 0.46925448112 
0.46944315059 0.46960813369 0.469740457 0.46983300241 0.46987950677 0.46987807335 0.46982785939 0.46973133246 0.46959364323 
0.46942192975 0.46922491779 0.46901194694 0.46879311909 0.46857650757 0.46837112337 0.46818445415 0.46802302665 0.4929151767 
0.49299434308 0.49309956593 0.49322726602 0.49337330246 0.4935328061 0.49370021046 0.49386939449 0.49403370155 0.49418564675 
0.49431923813 0.49442720469 0.49450379131 0.49454403618 0.49454623948 0.49450949047 0.49443547238 0.4943279895 0.49419245958 
0.49403568136 0.4938650066 0.49368863901 0.49351295915 0.49334547334 0.49319244407 0.49305936579 0.51648633012 0.51654736264 
0.51662910529 0.51672886268 0.51684330386 0.51696861761 0.51710046345 0.51723412594 0.517364454 0.51748551866 0.51759282893 
0.51768053135 0.51774390655 0.5177790637 0.51778443205 0.51775888382 0.51770369068 0.51762139492 0.51751620653 0.51739322134 
0.51725822519 0.51711782711 0.51697695917 0.51684185309 0.51671767035 0.51660900514 0.53821399831 0.53825955858 0.53832136995 
0.53839733592 0.5384849246 0.53858123401 0.53868303646 0.53878675442 0.5388880528 0.53898379499 0.5390691605 0.53914004182 
0.53919250774 0.53922334596 0.53923126471 0.53921500206 0.5391753079 0.53911391166 0.53903389814 0.53893909114 0.53883397372 
0.53872383274 0.53861239472 0.53850477862 0.53840519574 0.53831744669 0.55779181388 0.55782436646 0.55786941634 0.55792539113 
0.55799042736 0.55806241574 0.55813906437 0.55821779806 0.55829533665 0.55836957182 0.55843670054 0.55849350967 0.55853683428 
0.55856389481 0.55857370192 0.55856490381 0.55853776449 0.55849344334 0.55843412603 0.55836262296 0.55828233892 0.55819747444 
0.55811074753 0.55802633549 0.55794762613 0.55787770592 0.57497049624 0.57499239619 0.57502361077 0.57506304284 0.57510941194 
0.57516130257 0.57521718134 0.57527530695 0.57533324388 0.57538970619 0.57544169314 0.57548672463 0.57552221352 0.57554616045 
0.57555676895 0.57555364337 0.57553639258 0.57550578722 0.57546323028 0.5754107581 0.5753508842 0.57528693744 0.57522079796 
0.5751558397 0.57509474427 0.57503997077 0.58955880144 0.58957215459 0.58959223797 0.58961830069 0.58964957255 0.58968518302 
0.58972423584 0.58976564875 0.58980762577 0.58984953418 0.58988901095 0.58992414206 0.58995283079 0.58997343586 0.58998434068 
0.58998521532 0.58997540999 0.58995544473 0.58992609596 0.58988883913 0.58984546542 0.58979858963 0.5897493996 0.58970059745 
0.58965425415 0.58961230473 0.60141729564 0.6014242239 0.60143571965 0.60145137472 0.60147082161 0.60149364972 0.6015194342 
0.60154760925 0.60157687388 0.60160702338 0.60163628438 0.60166308649 0.60168576617 0.6017029969 0.60171336211 0.6017166039 
0.60171200784 0.60169977286 0.60168040529 0.60165489161 0.60162449181 0.60159121317 0.60155571906 0.60152013503 0.60148602126 
0.60145484419 0.61044986221 0.61045233409 0.61045765677 0.61046569072 0.61047635973 0.61048963157 0.61050541147 0.61052341974 
0.61054294368 0.61056387756 0.61058486722 0.61060468747 0.61062199298 0.61063573993 0.61064463992 0.61064875463 0.61064716611 
0.61064003061 0.61062763991 0.61061064567 0.6105899465 0.6105670922 0.61054231171 0.61051726966 0.61049311042 0.61047087423 
0.61659413683 0.61659409436 0.616595568 0.61659862862 0.61660340414 0.6166101259 0.61661893948 0.61662975046 0.61664209593 
0.61665605978 0.61667054156 0.61668446038 0.61669702793 0.61670713764 0.61671379679 0.61671718533 0.6167166057 0.61671202523 
0.61670378503 0.6166922757 0.61667818712 0.61666275725 0.61664588189 0.616628891 0.61661256533 0.6165976038 0.61981392484 
0.61981327127 0.61981311258 0.61981376319 0.61981542714 0.61981845833 0.61982314505 0.61982955794 0.61983701873 0.61984611412 
0.61985569864 0.61986487562 0.61987307244 0.61987936718 0.61988297312 0.61988428343 0.61988270609 0.61987833885 0.61987147615 
0.6198625257 0.61985205842 0.61984116352 0.61982949854 0.61981816367 0.61980764862 0.61979838677 0.62009343126 0.62009412176 
0.62009467996 0.6200954737 0.62009673 0.62009885152 0.6201021209 0.62010660174 0.62011160206 0.62011772767 0.62012388803 
0.62012929135 0.6201334358 0.62013581078 0.62013558554 0.62013344949 0.6201289997 0.62012252468 0.62011442051 0.62010520959 
0.62009546768 0.62008623986 0.62007715433 0.62006908576 0.6200624126 0.62005731387 0.61743515753 0.61743903772 0.61744262124 
0.61744610666 0.61744967765 0.61745361262 0.61745812802 0.61746314934 0.61746781889 0.61747288217 0.61747700852 0.61747954272 
0.61748007578 0.61747819655 0.61747338288 0.61746648236 0.61745733353 0.61744648028 0.61743453707 0.617422305 0.6174104156 
0.61740004097 0.61739086494 0.61738372084 0.61737888505 0.61737650237 0.61185892586 0.61186820396 0.61187722961 0.61188601653 
0.61189462448 0.61190314258 0.61191156133 0.61191954259 0.61192616319 0.61193186809 0.61193530593 0.61193580064 0.61193301564 
0.61192665029 0.61191635091 0.61190336839 0.61188769124 0.61187022134 0.61185191566 0.61183382206 0.6118169271 0.61180256646 
0.6117906084 0.61178200366 0.61177697395 0.61177564063 0.60340553395 0.60342240817 0.60343944417 0.60345619172 0.60347267644 
0.60348861428 0.60350364068 0.60351711805 0.60352782365 0.60353595799 0.6035400121 0.60353924737 0.60353338273 0.60352218018 
0.603505537 0.60348490735 0.60346085974 0.60343444941 0.60340714167 0.60338037979 0.60335555868 0.60333435036 0.6033169092 
0.60330438135 0.60329711968 0.60329522422 0.59214149239 0.59216828323 0.59219592861 0.59222360155 0.59225096806 0.59227728404 
0.59230176275 0.59232331781 0.5923403519 0.59235272905 0.59235860513 0.59235745241 0.59234864461 0.5923321488 0.59230809858 
0.59227829454 0.59224370892 0.59220588141 0.59216679415 0.59212839367 0.59209267139 0.59206166387 0.59203597393 0.59201703013 
0.59200554656 0.59200138115 0.57816676984 0.57820600959 0.5782471241 0.57828883798 0.57833026788 0.57837015213 0.57840704406 
0.57843948051 0.5784652254 0.57848374669 0.57849290244 0.57849196244 0.57848026731 0.57845785177 0.57842512223 0.5783842816 
0.57833679594 0.57828479498 0.57823091121 0.57817776151 0.57812790512 0.5780840436 0.57804725157 0.5780193835 0.57800144774 
0.57799369014 0.56162385154 0.56167830682 0.56173600768 0.56179519007 0.56185407352 0.56191096109 0.56196360244 0.56200986219 
0.56204699037 0.56207354756 0.56208744699 0.56208742159 0.56207277759 0.56204360681 0.56200064754 0.56194656318 0.56188342258 
0.56181410051 0.56174201032 0.56167061043 0.56160321211 0.56154321799 0.56149237391 0.56145300283 0.5614265002 0.56141341039 
0.54270645365 0.54277915044 0.54285686029 0.5429371154 0.54301733429 0.54309494622 0.54316698316 0.54323037211 0.54328163064 
0.54331862342 0.54333873071 0.54334031417 0.54332253368 0.54328551484 0.5432303754 0.54316036682 0.54307831165 0.54298798844 
0.5428938035 0.54280020414 0.54271144131 0.54263183347 0.5425637907 0.54251037948 0.54247310792 0.54245318509 0.52166498197 
0.52175945993 0.52186078414 0.52196615956 0.52207191896 0.52217449504 0.5222699111 0.52235410483 0.52242266523 0.52247260162 
0.52250056646 0.52250444578 0.52248316211 0.52243686575 0.52236719741 0.52227800881 0.52217303657 0.52205743322 0.52193661186 
0.52181632031 0.52170195054 0.52159883355 0.52151025383 0.52143993413 0.52138992345 0.52136225287 0.4988054902 0.49892535836 
0.49905468283 0.49918969598 0.49932570174 0.49945786146 0.49958117868 0.49969030031 0.49977974035 0.49984528192 0.49988305589 
0.49988992205 0.49986455884 0.49980726859 0.49972006241 0.49960771153 0.49947518974 0.49932907456 0.49917631671 0.49902415447 
0.4988793925 0.49874844267 0.49863574839 0.49854567979 0.49848086005 0.4984437073 0.47447979337 0.47462931616 0.47479131318 
0.47496097188 0.47513237679 0.47529937209 0.47545560585 0.4755943204 0.47570864691 0.47579304085 0.47584250551 0.47585304259 
0.47582284574 0.47575226384 0.47564387384 0.4755035794 0.47533786142 0.47515515186 0.47496426904 0.47477430319 0.47459370803 
0.47443027881 0.47428968822 0.47417680362 0.47409515578 0.47404770646 0.44906714964 0.44925109278 0.44945102245 0.4496608408 
0.44987343017 0.45008112287 0.45027577338 0.45044923556 0.45059289635 0.45069959463 0.45076290463 0.45077772153 0.45074160299 
0.45065491407 0.45052091615 0.45034692761 0.45014137396 0.44991495423 0.44967884506 0.44944436477 0.44922191998 0.44902090045 
0.44884817563 0.44870958798 0.44860916476 0.44855022801 0.42295214995 0.42317584698 0.42341948091 0.42367563147 0.42393567287 
0.42419028408 0.42442953574 0.42464335964 0.42482117495 0.42495385571 0.42503321883 0.42505275271 0.42500921008 0.42490292424 
0.42473801686 0.42452358552 0.42427048637 0.42399223599 0.42370291346 0.42341650367 0.42314568011 0.42290162501 0.42269256034 
0.42252523323 0.42240423156 0.42233317916 0.40285222637 0.40298656108 0.40316163876 0.40337189985 0.40361057367 0.40386963462 
0.40413989358 0.4044111123 0.40467225372 0.40491128716 0.40511798285 0.40528118989 0.4053921168 0.4054436496 0.40543294577 
0.40536023441 0.4052290108 0.40504627426 0.40482157835 0.40456612064 0.4042920627 0.40401209313 0.40373666444 0.40347693681 
0.40324221214 0.40304032857 0.4270216903 0.42713242795 0.42727731901 0.42745162555 0.4276496482 0.42786472742 0.42808887315 
0.42831387392 0.42853052755 0.42872882856 0.42890057512 0.4290365693 0.42912967938 0.42917391941 0.4291671862 0.42910939484 
0.42900321924 0.42885417782 0.42866987794 0.42845933402 0.42823248205 0.42799987315 0.4277700488 0.42755250644 0.42735516367 
0.42718475223 0.45049952049 0.45058951036 0.4507078528 0.45085052474 0.45101281857 0.45118921789 0.45137308878 0.45155777154 
0.45173569189 0.45189869072 0.45204025526 0.45215283807 0.45223059183 0.45226879595 0.45226547659 0.4522205475 0.45213594244 
0.45201593357 0.45186645069 0.45169481615 0.45150893522 0.45131755802 0.45112756833 0.4509469771 0.45078247207 0.4506399369 
0.47295785179 0.47302977692 0.47312496704 0.47324008317 0.47337126523 0.47351398165 0.47366306425 0.47381290807 0.47395751089 
0.47409021137 0.47420599328 0.47429865013 0.47436346071 0.47439633686 0.47439614963 0.47436219358 0.47429595661 0.47420068569 