# vtk DataFile Version 5.1
vtk output
ASCII
DATASET STRUCTURED_POINTS
DIMENSIONS 26 26 26
SPACING 0.08 0.08 0.08
ORIGIN -1 -1 0.5
POINT_DATA 17576
FIELD FieldData 3
potential 1 17576 double
0.43279799005 0.43279677322 0.43279251937 0.43278533025 0.43277515755 0.43276242813 0.43274683238 0.43272908346 0.4327098612 
0.4326902856 0.43267088194 0.43265307782 0.43263800225 0.43262714134 0.43262004631 0.43261711737 0.43261840237 0.43262305553 
0.43263024803 0.43263907921 0.43264846545 0.43265728142 0.43266578549 0.43267313022 0.43267901304 0.43268321936 0.40128949604 
0.40128940346 0.40128685434 0.40128215007 0.40127508991 0.40126556928 0.40125455766 0.40124121223 0.40122651324 0.40121129189 
0.40119583597 0.40118140191 0.40116855406 0.40115881478 0.40115184617 0.40114774781 0.4011468581 0.40114857772 0.40115245925 
0.4011576335 0.40116349757 0.40116907363 0.4011747369 0.40117966047 0.4011836704 0.40118651838 0.37086585953 0.3708669091 
0.37086609695 0.37086369509 0.37085952947 0.3708533367 0.37084600818 0.37083655479 0.37082555493 0.37081413428 0.37080189687 
0.37079005689 0.37077899227 0.37077026563 0.3707629103 0.37075781892 0.37075503282 0.37075424772 0.37075522616 0.37075732455 
0.37076014763 0.37076288529 0.37076598784 0.3707687737 0.37077104387 0.37077262097 0.34201251509 0.34201465699 0.34201557275 
0.34201536211 0.34201379819 0.34201084056 0.34200663686 0.34200058615 0.34199293072 0.34198455001 0.34197497533 0.34196518644 
0.34195553752 0.34194733596 0.34193959184 0.3419336832 0.34192923191 0.34192631083 0.34192478257 0.34192425298 0.34192444081 
0.34192469779 0.34192555472 0.3419264129 0.34192711275 0.34192749672 0.31518681551 0.31518997853 0.3151925876 0.3151943952 
0.31519523599 0.31519503793 0.31519374904 0.31519067124 0.31518627495 0.31518013272 0.31517272983 0.31516461862 0.31515638263 
0.31514821512 0.31514018197 0.31513329485 0.31512748772 0.31512279635 0.31511905862 0.31511624435 0.3151141788 0.31511228619 
0.31511114358 0.31511025171 0.3151095469 0.3151088448 0.29078167769 0.29078593398 0.29079006736 0.29079368463 0.29079671789 
0.29079891912 0.29080025092 0.29079962863 0.29079781438 0.29079389215 0.29078849762 0.29078165594 0.29077426427 0.29076618284 
0.29075809772 0.29075055718 0.2907432911 0.29073709129 0.29073153463 0.29072672319 0.29072267187 0.29071887145 0.29071597759 
0.29071354425 0.2907115473 0.29070985024 0.26909895715 0.26910422955 0.26910970567 0.26911501861 0.26911999352 0.26912432274 
0.26912754712 0.26912947167 0.26912976576 0.26912773477 0.2691239352 0.26911828815 0.26911172067 0.26910387801 0.26909559083 
0.26908726494 0.2690790996 0.26907153905 0.26906439378 0.26905787814 0.26905208482 0.26904660031 0.26904213286 0.2690383112 
0.26903511257 0.26903249821 0.25034500122 0.25035116343 0.25035783898 0.25036461511 0.25037131639 0.25037742707 0.25038251838 
0.25038630406 0.25038837774 0.25038796124 0.25038554018 0.25038099186 0.25037512149 0.25036765273 0.25035926331 0.25035046001 
0.25034154747 0.2503326809 0.25032428662 0.2503163177 0.25030898812 0.25030200157 0.25029612778 0.25029103154 0.25028675233 
0.25028324229 0.23464479528 0.23465184331 0.23465951448 0.2346675214 0.23467567554 0.23468328186 0.23468979677 0.23469521096 
0.23469873059 0.23469964026 0.23469841203 0.2346948297 0.23468970357 0.23468264731 0.23467441821 0.23466524373 0.23465559181 
0.23464600577 0.2346364105 0.23462730807 0.23461865941 0.23461035834 0.23460321746 0.23459696621 0.23459165742 0.2345873497 
0.22206464969 0.22207229259 0.22208079991 0.2220898325 0.22209913046 0.22210793614 0.22211565742 0.22212240178 0.22212689172 
0.22212905658 0.22212867759 0.2221259735 0.22212156617 0.22211500279 0.2221070249 0.22209780243 0.22208794408 0.22207761779 
0.22206718709 0.22205709564 0.22204737476 0.22203790892 0.22202965064 0.22202234221 0.22201610625 0.22201101756 0.21263308101 
0.21264114825 0.2126503244 0.21266016222 0.21267025583 0.21267997063 0.21268854655 0.21269616644 0.21270149272 0.21270449122 
0.21270492551 0.21270299742 0.21269936679 0.21269329102 0.21268592876 0.21267665279 0.21266670639 0.21265607608 0.21264511266 
0.21263421684 0.21262371749 0.2126133202 0.21260409392 0.21259584599 0.21258876287 0.21258293572 0.20635777687 0.20636629287 
0.2063758714 0.2063863016 0.20639688606 0.20640717443 0.20641634187 0.2064240263 0.206430372 0.20643398191 0.20643505382 
0.20643422165 0.20643080938 0.20642534109 0.2064185022 0.20640963193 0.20639980591 0.20638898589 0.20637795886 0.20636663494 
0.20635555409 0.20634446583 0.2063344425 0.20632540031 0.20631755427 0.20631105026 0.20323773489 0.20324634354 0.20325613054 
0.20326681055 0.20327766724 0.20328812471 0.20329765014 0.20330560646 0.20331242222 0.20331622033 0.20331776384 0.20331745952 
0.20331464948 0.20330977907 0.20330353482 0.20329517877 0.20328575325 0.2032753275 0.20326424707 0.20325278995 0.20324132327 
0.20322991179 0.2032193058 0.20320965103 0.20320115688 0.2031940538 0.20326923255 0.20327759844 0.20328748149 0.20329820258 
0.20330899377 0.20331942089 0.20332891589 0.20333686761 0.20334387476 0.20334770164 0.20334952401 0.20334962042 0.20334731276 
0.20334303502 0.20333742887 0.20332968553 0.20332081717 0.20331089645 0.20330017089 0.20328893477 0.20327747152 0.20326582462 
0.20325504298 0.20324493957 0.20323596204 0.20322837706 0.20644967737 0.20645771159 0.20646729527 0.20647773934 0.20648823665 
0.20649832277 0.2065075115 0.2065151983 0.20652203046 0.20652582657 0.20652774624 0.20652813574 0.20652621652 0.20652261115 
0.20651754112 0.20651048721 0.20650229928 0.20649304574 0.20648279696 0.20647218523 0.20646108407 0.20644958652 0.20643881575 
0.20642856206 0.20641929784 0.20641134303 0.21277712969 0.21278488393 0.21279394794 0.21280382496 0.21281379798 0.21282321729 
0.2128318158 0.21283917358 0.21284545606 0.2128490187 0.21285089344 0.21285142728 0.21284981027 0.21284668286 0.21284234136 
0.21283592334 0.21282853325 0.21282010294 0.21281077623 0.21280075363 0.21279028078 0.21277926515 0.21276869468 0.2127586797 
0.21274933997 0.2127410178 0.2222482412 0.22225528122 0.22226349011 0.22227258259 0.22228162708 0.22229021532 0.22229798278 
0.22230460487 0.22231029454 0.2223134735 0.22231513421 0.22231566664 0.22231428246 0.22231157926 0.22230783998 0.22230244014 
0.22229563675 0.22228811806 0.22227975592 0.22227066056 0.22226103857 0.22225079555 0.22224081044 0.22223120039 0.22222208958 
0.22221380207 0.23484977074 0.23485583322 0.23486303092 0.2348709937 0.23487892157 0.23488635501 0.23489305016 0.23489872153 
0.23490360451 0.23490621795 0.23490800593 0.23490797512 0.23490670269 0.23490437715 0.23490120808 0.23489654126 0.23489063732 
0.23488413965 0.23487684882 0.23486885114 0.23486028527 0.23485102588 0.23484190462 0.23483287749 0.23482437703 0.23481637002 
0.25054810964 0.25055301429 0.25055892808 0.25056555125 0.25057206962 0.25057814969 0.25058365876 0.25058801239 0.25059148365 
0.25059392495 0.25059511924 0.25059486196 0.25059361587 0.25059159228 0.25058897022 0.25058506097 0.25058007944 0.25057467484 
0.25056855982 0.25056179327 0.25055444354 0.25054639773 0.25053834281 0.25053024897 0.25052227297 0.25051503695 0.26927249871 
0.26927615919 0.26928048444 0.26928553461 0.26929039341 0.26929496403 0.2692988633 0.26930183956 0.26930418299 0.26930569303 
0.26930627849 0.26930567595 0.26930438531 0.26930267438 0.26930052324 0.26929742274 0.26929341168 0.26928915054 0.26928430812 
0.26927891088 0.26927292675 0.26926620019 0.26925943541 0.26925246892 0.26924536125 0.26923884299 0.29089397044 0.29089614266 
0.29089877465 0.29090184362 0.2909050029 0.29090787946 0.2909098765 0.2909113067 0.29091231953 0.29091277773 0.29091260029 
0.29091156994 0.29091014789 0.29090873448 0.2909070601 0.29090474685 0.29090179899 0.29089878686 0.29089531944 0.29089138925 
0.29088706435 0.29088168831 0.29087631071 0.2908706301 0.29086464154 0.29085898098 0.31520359592 0.3152037161 0.31520481208 
0.31520581763 0.31520697225 0.31520782682 0.31520791495 0.31520755374 0.31520703059 0.31520628297 0.31520520399 0.3152036111 
0.31520200281 0.31520078098 0.31519967542 0.31519827845 0.31519682781 0.31519484681 0.31519290301 0.31519057181 0.3151878695 
0.31518413282 0.31518025869 0.31517575919 0.31517120177 0.31516648757 0.34189878575 0.34189714665 0.34189626257 0.34189512013 
0.34189386573 0.34189264872 0.341890718 0.34188828618 0.34188603259 0.34188436488 0.34188173114 0.34187947382 0.34187781468 
0.3418766097 0.3418761377 0.34187572097 0.34187560217 0.34187516881 0.34187496066 0.34187440714 0.34187338208 0.34187159291 
0.34186921892 0.34186619454 0.34186293102 0.34185893703 0.37058955099 0.37058610506 0.37058303255 0.3705795994 0.37057613412 
0.37057233052 0.37056806785 0.37056345201 0.37055923743 0.3705559172 0.37055204529 0.37054899628 0.37054706559 0.37054609138 
0.37054635418 0.37054712305 0.37054854187 0.3705499061 0.37055164925 0.37055308954 0.3705540262 0.37055409083 0.37055341664 
0.3705519217 0.37054998126 0.37054707718 0.4008264221 0.40082111522 0.40081598814 0.40081006421 0.40080404608 0.40079763905 
0.40079081692 0.40078376997 0.40077731835 0.40077211572 0.40076688678 0.40076283965 0.40076057273 0.40075991304 0.40076107735 
0.40076326087 0.40076649923 0.40077000785 0.40077400367 0.40077770399 0.4007807946 0.40078289258 0.40078392218 0.40078407283 
0.40078346502 0.40078105526 0.43214002202 0.43213282581 0.43212543936 0.43211720319 0.43210832374 0.43209892895 0.43208945706 
0.43207971348 0.43207074623 0.43206337739 0.43205647411 0.43205134851 0.43204873469 0.43204848193 0.43205076529 0.43205470897 
0.43206019684 0.43206620356 0.43207283078 0.43207912778 0.43208462637 0.43208889873 0.43209182448 0.43209355941 0.43209421038 
0.43209277811 0.43142762336 0.43142815217 0.43142578696 0.43142064418 0.43141268503 0.43140234192 0.43138929238 0.43137421803 
0.43135772587 0.43134080798 0.43132380273 0.43130802682 0.43129397792 0.4312833028 0.43127529999 0.43127036274 0.43126867614 
0.43126959741 0.43127256335 0.43127692432 0.4312818085 0.43128624773 0.43129060351 0.43129409001 0.43129643181 0.43129742017 
0.40360919232 0.4036103668 0.40360915913 0.40360585732 0.40360027853 0.40359233185 0.40358299167 0.40357141645 0.40355854778 
0.40354516559 0.40353140391 0.40351835239 0.40350639124 0.40349674103 0.40348936443 0.40348394694 0.40348102392 0.40348013232 
0.40348099309 0.40348290954 0.40348542913 0.40348769374 0.40349014451 0.40349206202 0.40349324906 0.40349348738 0.37672266939 
0.37672456556 0.37672458399 0.37672300634 0.37671966582 0.37671432308 0.37670790686 0.37669945498 0.37668956259 0.37667932567 
0.37666826552 0.37665746316 0.37664714952 0.37663874572 0.37663119567 0.37662535908 0.37662130271 0.37661879955 0.37661771741 
0.37661752791 0.3766179414 0.37661823706 0.3766189292 0.37661938907 0.37661944023 0.37661892275 0.35118401603 0.35118668566 
0.35118790575 0.35118798923 0.35118665631 0.3511839031 0.3511799373 0.35117422442 0.35116706525 0.35115935758 0.35115056866 
0.35114159038 0.35113299904 0.35112490385 0.35111729128 0.35111113182 0.35110603655 0.35110212174 0.35109930853 0.35109727664 
0.3510958215 0.35109434685 0.35109344796 0.35109256062 0.35109155128 0.35109027783 0.32737775927 0.32738102444 0.32738358828 
0.3273852072 0.32738573891 0.32738516362 0.3273835159 0.32738019905 0.32737578002 0.32736988004 0.32736296061 0.32735551108 
0.32734797318 0.32734041997 0.32733282387 0.32732622827 0.32732018857 0.32731510538 0.32731072493 0.3273070576 0.32730397725 
0.32730095472 0.32729860528 0.32729646132 0.32729448082 0.32729249492 0.3056387677 0.30564280089 0.30564650536 0.30564949365 
0.30565172948 0.30565303462 0.30565348357 0.30565212451 0.30564984656 0.30564581133 0.30564065532 0.30563434162 0.30562765388 
0.30562055006 0.30561293478 0.3056059387 0.30559901776 0.30559293952 0.30558728314 0.30558216968 0.3055776419 0.30557322184 
0.30556959252 0.30556633262 0.30556341527 0.30556077902 0.28623826511 0.28624301816 0.2862477164 0.28625198692 0.28625574389 
0.28625872232 0.28626061274 0.28626138172 0.2862608419 0.28625839756 0.2862546141 0.28624937318 0.28624349734 0.28623651063 
0.28622912813 0.28622165797 0.2862142256 0.28620722145 0.28620044565 0.28619410473 0.28618830609 0.28618264917 0.28617786118 
0.28617358877 0.28616982305 0.2861665311 0.26937981383 0.26938518775 0.26939077099 0.26939616539 0.2694012525 0.26940562463 
0.26940900851 0.26941129612 0.26941223411 0.26941115046 0.26940854802 0.2694042766 0.26939905271 0.26939248854 0.26938515095 
0.26937743906 0.26936956943 0.26936163302 0.26935399651 0.26934663923 0.26933972254 0.26933296203 0.26932714205 0.26932193576 
0.26931739164 0.26931346834 0.25520516148 0.25521118543 0.25521748613 0.25522380184 0.25523001745 0.2552355663 0.25524018139 
0.25524373208 0.25524587712 0.25524591079 0.25524432456 0.25524088782 0.25523632761 0.25523016579 0.25522305933 0.25521513443 
0.2552070374 0.25519839334 0.255189914 0.2551817699 0.25517390379 0.2551661968 0.25515945218 0.25515340665 0.25514811459 
0.25514363362 0.24380665406 0.24381306736 0.24381996734 0.24382704212 0.24383413592 0.24384063463 0.24384613097 0.24385091793 
0.24385386954 0.24385499819 0.24385411736 0.24385142023 0.24384747113 0.24384173889 0.24383488078 0.24382697671 0.24381853195 
0.24380964183 0.24380059184 0.24379176536 0.24378315209 0.24377460733 0.24376706499 0.24376026173 0.2437543047 0.24374928295 
0.23523995677 0.23524662186 0.23525398776 0.23526165822 0.23526934203 0.2352765691 0.23528277142 0.23528831169 0.23529197045 
0.235293841 0.23529365384 0.23529161313 0.23528823339 0.23528296521 0.23527665695 0.23526868327 0.23526020555 0.23525112925 
0.23524172919 0.23523233251 0.23522320878 0.2352140206 0.23520579903 0.23519832903 0.23519178915 0.23518625247 0.22953598251 
0.22954295878 0.22955055909 0.2295586664 0.22956669622 0.22957437607 0.22958109681 0.22958711382 0.22959128574 0.22959368152 
0.22959404429 0.22959298362 0.22958978264 0.229584921 0.22957902474 0.22957137719 0.2295629879 0.22955375048 0.22954437204 
0.22953469861 0.22952519127 0.22951555087 0.22950677628 0.22949877048 0.22949170877 0.22948571526 0.22671036937 0.22671720355 
0.22672504112 0.22673328361 0.2267415024 0.22674931052 0.22675636907 0.22676218165 0.22676728631 0.22676984658 0.22677062548 
0.22677000582 0.22676729404 0.22676290282 0.22675745874 0.22675020434 0.2267421102 0.22673320796 0.22672377619 0.22671402414 
0.22670424772 0.22669443869 0.2266852925 0.22667689105 0.22666940032 0.22666301844 0.22676831005 0.22677498274 0.22678272028 
0.22679094627 0.22679907938 0.22680687104 0.22681393622 0.22681979833 0.22682513045 0.22682773219 0.2268287651 0.22682848342 
0.22682615877 0.22682224411 0.22681729753 0.22681048981 0.22680279915 0.22679429638 0.22678512635 0.22677556833 0.22676581777 
0.22675585882 0.22674666366 0.22673798015 0.22673019363 0.2267235186 0.22970772984 0.22971432622 0.22972174749 0.22972971132 
0.22973767129 0.22974511797 0.22975197208 0.22975766455 0.22976289803 0.22976551261 0.22976664652 0.22976661948 0.22976462183 
0.22976126791 0.22975669194 0.22975041451 0.22974324175 0.22973521736 0.22972652753 0.22971732487 0.22970785328 0.22969804961 
0.22968891189 0.22968016875 0.22967223634 0.22966516139 0.23552017147 0.23552626704 0.23553330317 0.23554068438 0.23554814492 
0.23555513741 0.23556154612 0.23556703719 0.23557184007 0.23557429415 0.23557541283 0.23557551503 0.23557376093 0.23557079394 
0.23556680221 0.23556099559 0.23555443367 0.23554703443 0.2355389243 0.23553027909 0.23552130786 0.2355118682 0.23550288983 
0.2354944042 0.23548645445 0.23547930318 0.24418656462 0.2441920387 0.24419825032 0.24420506266 0.24421176218 0.24421811193 
0.24422388018 0.24422880899 0.24423316047 0.2442353304 0.2442362887 0.24423639617 0.24423483567 0.24423221901 0.24422869704 
0.24422374886 0.2442175815 0.24421088576 0.2442035168 0.24419556458 0.24418724919 0.2441784032 0.24416988339 0.24416172696 
0.24415398745 0.2441469046 0.25567260159 0.25567725249 0.2556826213 0.25568851342 0.25569432546 0.25569976155 0.25570468882 
0.25570886653 0.25571259221 0.2557143211 0.25571548189 0.25571505356 0.25571358371 0.25571128638 0.2557082145 0.25570384829 
0.25569839937 0.25569250162 0.25568596114 0.25567900788 0.25567135098 0.25566325904 0.25565539349 0.25564766083 0.25564042481 
0.25563356632 0.2699196837 0.26992338941 0.26992771474 0.26993253418 0.2699372279 0.26994166561 0.26994561719 0.26994873577 
0.26995168112 0.269952933 0.2699536005 0.26995298481 0.26995154388 0.26994950525 0.26994686867 0.26994311512 0.2699384009 
0.26993337951 0.26992777101 0.26992164012 0.26991505714 0.26990790195 0.26990084163 0.26989381161 0.26988691683 0.2698807011 
0.28683351689 0.2868362464 0.28683928692 0.28684269133 0.28684624462 0.2868494473 0.28685216586 0.28685418092 0.28685577409 
0.28685672071 0.28685689857 0.28685601007 0.28685452812 0.28685270034 0.28685049873 0.28684741089 0.28684348046 0.28683937564 
0.28683478444 0.28682974086 0.28682422484 0.28681808334 0.28681201195 0.28680582559 0.2867995478 0.28679379296 0.30627126007 
0.30627281505 0.3062745257 0.30627651643 0.30627858776 0.30628048289 0.30628164619 0.30628243026 0.30628294293 0.30628304043 
0.30628260072 0.30628137015 0.30627978209 0.30627821639 0.30627637172 0.30627394807 0.30627088472 0.30626779453 0.30626430444 
0.30626041236 0.30625625419 0.30625113766 0.3062461245 0.30624091203 0.30623544518 0.30623033151 0.32803009507 0.32802995754 
0.32803053503 0.3280309002 0.3280314079 0.32803169798 0.32803131692 0.32803067939 0.32802994812 0.32802908628 0.32802792049 
0.3280262369 0.32802450284 0.32802309831 0.32802174998 0.32802005559 0.3280182712 0.32801594737 0.3280136912 0.32801108515 
0.32800819284 0.32800436683 0.32800051911 0.32799612451 0.32799176242 0.32798729015 0.35184177831 0.35184026509 0.35183930686 
0.35183799787 0.35183674371 0.35183526867 0.35183332978 0.35183097993 0.35182886706 0.35182735387 0.35182485095 0.35182264221 
0.35182092208 0.35181950335 0.35181867696 0.35181776541 0.35181705766 0.35181597678 0.35181510811 0.35181392547 0.35181233924 
0.35181008227 0.35180735113 0.35180407967 0.35180064745 0.35179657842 0.37737835424 0.37737543804 0.37737276066 0.37736966603 
0.37736655 0.37736315174 0.37735936495 0.37735527994 0.37735160152 0.37734877808 0.37734530105 0.37734247925 0.37734055759 
0.37733934022 0.37733910809 0.37733915299 0.37733966767 0.37734001322 0.37734069104 0.37734108261 0.37734102475 0.37734022156 
0.37733858272 0.37733666851 0.37733420196 0.37733086684 0.40426697115 0.404262624 0.40425837796 0.40425332857 0.40424821525 
0.4042427727 0.40423696841 0.40423096608 0.40422553296 0.40422124541 0.40421666874 0.40421315932 0.40421100458 0.40421006122 
0.40421055182 0.40421170432 0.40421363801 0.40421565554 0.40421808783 0.40422023755 0.40422185854 0.40422261183 0.40422245382 
0.40422155805 0.40422004993 0.40421685838 0.43211061897 0.43210482706 0.43209884677 0.43209205392 0.43208468841 0.43207688673 
0.43206905344 0.43206096876 0.43205359934 0.43204766782 0.43204192514 0.4320375596 0.43203519311 0.43203460501 0.43203596863 
0.43203847035 0.43204211568 0.43204603172 0.43205047235 0.4320546034 0.43205805563 0.43206045209 0.43206170203 0.43206195758 
0.43206130651 0.43205872297 0.42956002298 0.42956230696 0.4295618614 0.4295587732 0.42955301805 0.42954502266 0.42953443663 
0.42952189555 0.42950792512 0.42949339549 0.42947848491 0.42946431897 0.42945120842 0.42944063544 0.42943181104 0.42942512898 
0.42942085322 0.42941851965 0.42941774723 0.4294180932 0.42941886708 0.42941924503 0.42941969158 0.4294194905 0.42941840484 
0.42941639566 0.40499633653 0.40499884067 0.40499903098 0.40499719317 0.40499318228 0.40498686459 0.40497923758 0.40496941993 
0.40495832089 0.40494663581 0.40493438613 0.4049225204 0.40491128392 0.40490190968 0.40489384102 0.40488721049 0.40488244553 
0.40487918767 0.40487729063 0.40487620014 0.40487559364 0.40487472267 0.40487409041 0.4048730935 0.40487151251 0.40486916855 
0.38122807116 0.38123089135 0.38123185731 0.38123123015 0.38122886208 0.38122452919 0.38121916713 0.38121182281 0.38120307788 
0.38119398482 0.38118399042 0.38117407027 0.38116434697 0.38115613547 0.3811484054 0.38114172218 0.38113645195 0.38113233143 
0.38112927181 0.38112690379 0.38112500528 0.38112293677 0.38112127527 0.3811194396 0.38111728497 0.38111467094 0.35861584109 
0.35861908409 0.35862082084 0.35862139202 0.35862050483 0.35861821262 0.35861473705 0.35860956674 0.35860303578 0.35859602573 
0.35858795685 0.35857964446 0.35857150511 0.35856376138 0.35855627857 0.35854961214 0.35854380406 0.35853886624 0.35853476299 
0.35853123626 0.35852814602 0.35852495004 0.35852229686 0.35851963315 0.35851691669 0.35851396276 0.33749119955 0.33749471348 
0.33749742461 0.33749910052 0.33749962203 0.33749899674 0.33749734674 0.33749409473 0.33748948698 0.33748429522 0.33747782991 
0.33747088122 0.33746383074 0.33745665741 0.33744926694 0.33744265071 0.33743634457 0.33743074202 0.33742562693 0.33742103343 
0.33741688486 0.33741268208 0.33740908251 0.33740565024 0.33740234834 0.33739903975 0.31814615288 0.31815014117 0.31815365399 
0.31815631877 0.3181581306 0.31815896364 0.31815896481 0.31815725716 0.31815479776 0.31815078643 0.31814585265 0.31813992045 
0.31813369978 0.31812706529 0.31811984844 0.3181131238 0.3181063056 0.3181001407 0.31809421151 0.31808865908 0.31808354068 
0.31807840625 0.31807396111 0.3180698052 0.31806592866 0.31806227866 0.30082517484 0.30082961359 0.30083381817 0.30083744074 
0.30084044543 0.30084253547 0.30084359744 0.30084366926 0.30084263627 0.30083995503 0.30083620547 0.30083123407 0.30082580101 
0.30081958418 0.30081252868 0.30080556909 0.30079854727 0.30079181827 0.30078516831 0.30077879882 0.30077282313 0.30076685295 
0.30076162931 0.30075680316 0.30075239296 0.30074836164 0.28572220128 0.28572703431 0.28573185427 0.28573629207 0.28574028003 
0.28574348415 0.28574572505 0.28574702574 0.28574721377 0.28574567843 0.28574294087 0.28573882463 0.28573401298 0.28572802314 
0.28572135782 0.28571434239 0.28570713198 0.28569977178 0.28569259637 0.28568556248 0.28567882766 0.28567210554 0.2856661824 
0.28566073737 0.28565582376 0.28565140541 0.27298300734 0.27298828661 0.27299359176 0.27299869326 0.27300353832 0.27300765263 
0.27301088007 0.27301322391 0.27301439211 0.27301380768 0.27301194152 0.27300856292 0.27300435152 0.27299876541 0.27299239419 
0.27298529434 0.27297804143 0.27297021209 0.27296246775 0.2729549472 0.27294757529 0.27294021421 0.27293366449 0.27292765873 
0.27292225264 0.27291749615 0.26271214049 0.26271766065 0.26272336615 0.26272901353 0.26273451879 0.26273937647 0.26274329347 
0.26274653259 0.2627485241 0.26274889048 0.26274759202 0.26274485983 0.2627411884 0.26273599988 0.26272989345 0.26272288176 
0.26271540473 0.26270749903 0.26269939725 0.26269143816 0.26268357969 0.26267565192 0.2626685696 0.26266205811 0.26265621584 
0.2626511264 0.25498052514 0.25498615521 0.25499213889 0.2549982477 0.25500417847 0.25500960055 0.2550140925 0.25501811495 
0.25502055128 0.2550215462 0.25502085835 0.25501868109 0.25501549842 0.25501071492 0.25500513071 0.25499806229 0.25499061012 
0.2549826055 0.25497431841 0.2549659743 0.25495781081 0.25494947053 0.25494194025 0.25493498785 0.25492877455 0.25492336088 
0.2498335412 0.24983919932 0.24984533125 0.24985172115 0.24985788214 0.24986366292 0.24986858248 0.24987301018 0.24987590279 
0.24987734887 0.24987713023 0.24987585039 0.24987269259 0.24986830979 0.24986307644 0.24985629848 0.24984893388 0.24984111865 
0.24983262144 0.24982411565 0.2498157315 0.24980711193 0.24979922112 0.2497919293 0.24978538469 0.24977969021 0.24729720758 
0.24730282028 0.24730910926 0.24731555765 0.24732184215 0.2473277026 0.24733292666 0.24733712574 0.24734091227 0.24734249436 
0.24734264597 0.24734174052 0.24733899886 0.24733499373 0.2473301284 0.24732367412 0.24731655007 0.24730875331 0.24730051496 
0.24729198582 0.24728341786 0.24727475128 0.24726663492 0.24725911342 0.24725229829 0.24724637355 0.24738333509 0.24738875244 
0.24739490544 0.2474013135 0.24740749742 0.24741334407 0.24741858912 0.24742285633 0.24742674085 0.24742850064 0.24742888002 
0.24742826312 0.24742590105 0.24742222197 0.24741775703 0.24741164784 0.24740484033 0.24739737065 0.24738934567 0.24738098821 
0.24737248831 0.24736372652 0.24735565825 0.24734794966 0.2473409894 0.24733489603 0.2500904342 0.25009579057 0.25010164185 
0.25010779321 0.25011384451 0.25011939682 0.25012449165 0.25012864772 0.25013261826 0.25013427648 0.25013475443 0.25013436104 
0.25013226735 0.2501290466 0.25012486987 0.25011917726 0.25011277034 0.25010566761 0.25009816084 0.25008996365 0.250081684 
0.25007307789 0.25006509233 0.25005739813 0.25005036295 0.25004398367 0.25540544334 0.25541036082 0.25541588108 0.25542152812 
0.25542716039 0.25543235114 0.25543710941 0.25544115716 0.25544477731 0.25544632634 0.25544680926 0.25544653237 0.25544463726 
0.25544175166 0.25543801697 0.25543269228 0.25542676166 0.25542014396 0.25541294598 0.25540531908 0.25539744019 0.25538912888 
0.25538126683 0.25537383218 0.25536681278 0.25536041547 0.26330001523 0.26330439985 0.26330920415 0.26331440042 0.26331940725 
0.26332410584 0.26332834334 0.26333197717 0.26333525299 0.26333659439 0.26333695865 0.26333669223 0.26333495979 0.26333235498 
0.26332901545 0.26332438961 0.26331872728 0.26331265424 0.26330603357 0.26329894188 0.26329156405 0.26328371934 0.26327621874 
0.26326905099 0.26326224234 0.26325589308 0.27372723456 0.27373093729 0.27373505414 0.27373950175 0.27374380557 0.27374777959 
0.27375137594 0.2737544044 0.27375718985 0.27375819083 0.27375881907 0.27375803989 0.2737563809 0.27375403624 0.27375105919 
0.27374691005 0.27374179733 0.27373635011 0.27373037029 0.27372407884 0.2737171781 0.27370991152 0.2737029117 0.27369604554 
0.27368943008 0.27368347586 0.28661519156 0.28661813345 0.28662141091 0.28662501738 0.28662842486 0.28663163224 0.28663446965 
0.28663663689 0.28663880065 0.28663933388 0.2866396708 0.28663874367 0.28663710612 0.28663498006 0.28663234798 0.28662868778 
0.28662415374 0.28661938187 0.28661414841 0.28660846476 0.28660241583 0.28659587042 0.28658947486 0.28658313401 0.28657691495 
0.28657116647 0.30185947464 0.30186166505 0.30186392183 0.30186636922 0.30186891299 0.30187115814 0.30187301796 0.30187431439 
0.30187531593 0.30187581194 0.30187563447 0.30187449372 0.30187282738 0.30187086934 0.30186859562 0.30186546604 0.3018615519 
0.3018575193 0.30185304766 0.30184822328 0.30184300292 0.30183722361 0.30183157464 0.30182585761 0.30182005704 0.30181473553 
0.31931553844 0.31931681532 0.31931802115 0.31931937377 0.31932076363 0.31932201085 0.31932260974 0.31932292956 0.31932307686 
0.31932289277 0.31932223699 0.31932082164 0.31931905676 0.31931727117 0.31931532734 0.31931273353 0.31930950937 0.31930627893 
0.31930268582 0.31929874383 0.31929459921 0.31928957142 0.31928471211 0.31927950775 0.3192744798 0.31926959055 0.33879269622 
0.3387925746 0.33879297641 0.33879305626 0.33879324203 0.33879323493 0.3387926189 0.33879181201 0.33879096983 0.33879003249 
0.33878880619 0.33878702693 0.33878515653 0.33878355523 0.33878194626 0.33877993632 0.33877779816 0.33877508711 0.33877245604 
0.33876951555 0.33876634391 0.33876228843 0.33875830408 0.33875383786 0.33874943549 0.33874459142 0.36005204502 0.36005086714 
0.36005009537 0.36004888923 0.36004771018 0.36004632579 0.3600445212 0.36004233959 0.36004041025 0.3600390633 0.3600366785 
0.36003448173 0.36003268334 0.36003103231 0.3600298372 0.36002843196 0.36002713137 0.36002539434 0.36002384782 0.36002200077 
0.36001979581 0.36001698694 0.3600137855 0.3600101229 0.36000635939 0.36000198775 0.38281094312 0.38280870578 0.3828066072 
0.38280403702 0.38280142987 0.38279855643 0.38279531681 0.38279178506 0.38278863412 0.3827862676 0.38278313062 0.38278048529 
0.38277851898 0.38277702658 0.38277629752 0.38277563381 0.38277524737 0.38277463062 0.38277426603 0.38277361504 0.38277255867 
0.38277083152 0.38276836812 0.38276571887 0.38276260794 0.38275815227 0.40675144575 0.40674813881 0.40674489161 0.40674097418 
0.40673669682 0.40673210027 0.40672747092 0.40672246729 0.40671797279 0.4067144848 0.40671052056 0.40670735883 0.40670523346 
0.40670396765 0.40670379025 0.40670396263 0.40670466702 0.40670528743 0.40670624196 0.40670689843 0.4067070789 0.4067064922 
0.40670510882 0.40670311913 0.40670062104 0.40669654043 0.43153261759 0.43152827757 0.43152379025 0.43151843657 0.43151258494 
0.4315063289 0.43150004711 0.43149348044 0.43148752568 0.43148282042 0.4314779512 0.43147422471 0.43147196838 0.43147098736 
0.4314714634 0.43147263442 0.43147460058 0.43147660742 0.43147902955 0.43148113223 0.43148264032 0.4314832198 0.43148280472 
0.43148156103 0.4314795624 0.43147576673 0.4272779484 0.42728196173 0.4272833788 0.4272822639 0.42727863828 0.42727287311 
0.42726458747 0.42725438255 0.42724268599 0.42723026513 0.42721716714 0.42720435331 0.42719201006 0.4271814914 0.42717194749 
0.42716377373 0.42715729295 0.42715215577 0.42714814645 0.42714496569 0.42714206637 0.42713878749 0.42713565329 0.42713203171 
0.4271277273 0.42712272826 0.40558684709 0.40559067989 0.40559234385 0.40559192137 0.40558946072 0.40558476249 0.40557880092 
0.40557065952 0.40556121046 0.40555107163 0.40554014741 0.40552930323 0.40551865576 0.40550950793 0.40550077414 0.40549305666 
0.40548666345 0.40548131301 0.40547687699 0.40547315428 0.40546969848 0.40546594371 0.40546245646 0.40545869792 0.40545448423 
0.40544979761 0.38457418177 0.38457797851 0.38457993102 0.38458033661 0.38457900835 0.38457575695 0.38457150301 0.38456529118 
0.38455767285 0.38454965438 0.38454061722 0.38453145191 0.38452254699 0.38451397224 0.38450607274 0.38449864866 0.38449224925 
0.38448661819 0.38448175777 0.3844773722 0.38447331728 0.38446902544 0.38446513107 0.38446109924 0.3844568176 0.38445219285 
0.36455460102 0.36455849701 0.3645608601 0.36456203722 0.36456174079 0.36456006055 0.36455721206 0.36455270174 0.36454685754 
0.36454054126 0.36453313139 0.36452537964 0.36451763762 0.36451005911 0.36450246343 0.36449538087 0.36448885067 0.36448290802 