# vtk DataFile Version 4.0
vtk output
ASCII
DATASET POLYDATA
POINTS 24 double
0.00015106 -0.0001324 0 0.00015106 0.000119071 0 0.00015106 -0.0001324 0.00025 
0.00015106 -0.0001324 0.00025 0.00015106 0.000119071 0 0.00015106 0.000119071 0.00025 
0.00015106 0.000119071 0 -0.000120848 0.000119071 0 0.00015106 0.000119071 0.00025 
0.00015106 0.000119071 0.00025 -0.000120848 0.000119071 0 -0.000120848 0.000119071 0.00025 
-0.000120848 0.000119071 0 0.00015106 0.000119071 0 -0.000120848 -0.0001324 0 
-0.000120848 -0.0001324 0 0.00015106 0.000119071 0 0.00015106 -0.0001324 0 
0.00015106 0.000119071 0.00025 -0.000120848 0.000119071 0.00025 0.00015106 -0.0001324 0.00025 
0.00015106 -0.0001324 0.00025 -0.000120848 0.000119071 0.00025 -0.000120848 -0.0001324 0.00025 

POLYGONS 8 32
3 0 1 2 
3 3 4 5 
3 6 7 8 
3 9 10 11 
3 12 13 14 
3 15 16 17 
3 18 19 20 
3 21 22 23 

CELL_DATA 8
FIELD FieldData 1
electrode_index 1 8 int
0 0 1 1 2 2 3 3 
