# vtk DataFile Version 5.1
vtk output
ASCII
DATASET STRUCTURED_POINTS
DIMENSIONS 20 20 40
SPACING 0.05 0.05 0.05
ORIGIN 3.225 -0.475 0.525
POINT_DATA 16000
FIELD FieldData 1
potential 1 16000 double
0.0034595432354 0.0033995406627 0.003340894426 0.003283599563 0.0031271096598 0.0030778590962 0.0030296164096 0.0029823319122 0.0029359650982 
0.0028904839028 0.002845860643 0.0028020690737 0.0027590902777 0.0027169075017 0.0026755132037 0.002634870025 0.0025949746598 0.0025558162114 
0.0025173784893 0.0024796496536 0.0035043373262 0.0034429852814 0.0033830543051 0.0033245316275 0.0031671276688 0.0031168321733 0.0030675598899 
0.003019260459 0.0029718941649 0.0029254269208 0.0028798320617 0.0028350847297 0.0027911655196 0.0027480562729 0.0027057444525 0.0026642175323 
0.0026234473089 0.0025834326506 0.0025441595519 0.0025056155511 0.0035489100093 0.0034861950612 0.0034249629269 0.003365202114 0.0032068873895 
0.0031555568816 0.0031052577292 0.0030559453208 0.0030075781979 0.0029601214002 0.002913549683 0.0028678405528 0.0028229746245 0.0027789318721 
0.0027357003775 0.0026932741903 0.0026516204223 0.002610738205 0.0025706199124 0.0025312547273 0.0035937347315 0.003529648204 0.0034670882414 
0.003406028808 0.003246876154 0.0031945081084 0.0031431820222 0.0030928503297 0.0030434726196 0.0029950176984 0.0029474565676 0.0029007726803 
0.0028549412769 0.002809950887 0.0027657862086 0.0027224417076 0.0026798871288 0.0026381225476 0.0025971425667 0.002556937743 0.0036393055191 
0.0035737956489 0.0035098811408 0.0034475315711 0.0032875691611 0.0032341576051 0.0031817904738 0.0031304222681 0.0030800191795 0.0030305473089 
0.0029819798783 0.0029342961631 0.0028874806868 0.002841519004 0.002796396683 0.0027521120674 0.002708632268 0.0026659636322 0.0026240988017 
0.0025830319011 0.0036860726271 0.0036190154259 0.0035537232838 0.0034900453762 0.0033293864812 0.0032749156438 0.0032214889826 0.0031690640814 
0.0031176099286 0.0030670941966 0.0030174926589 0.0029687841997 0.0029209547347 0.002873991211 0.0028278828065 0.0027826267305 0.0027381942668 
0.0026945908823 0.0026518129787 0.002609851649 0.0037342427003 0.0036656569082 0.0035988919601 0.0035338697581 0.003372676185 0.003317125103 
0.0032626124966 0.0032091058039 0.0031565710591 0.0031049788681 0.0030543119003 0.0030045447608 0.0029556667358 0.0029076645153 0.0028605322729 
0.0028142685272 0.0027688455427 0.0027242715113 0.0026805433936 0.0026376532487 0.0037841045518 0.0037139278677 0.0036456553883 0.003579179601 
0.0034177072721 0.0033610475658 0.0033054256168 0.0032508034221 0.0031971534966 0.0031444518263 0.0030926767432 0.0030418101614 0.0029918438532 
0.0029427639337 0.0028945651613 0.0028472512938 0.0028007982037 0.0027552114725 0.0027104883239 0.0026666300393 0.0038358088261 0.0037640282158 
0.0036941356371 0.0036261782982 0.0034646960189 0.0034068938942 0.0033501224656 0.0032943490057 0.003239545636 0.0031856896341 0.0031327647155 
0.0030807558572 0.0030296542624 0.0029794496556 0.002930140049 0.002881730991 0.0028341994922 0.0027875523881 0.0027417924458 0.0026969183934 
0.0038894473073 0.0038159365379 0.0037444089592 0.0036749134109 0.0035137826889 0.0034548053538 0.0033968483379 0.0033398794057 0.00328387802 
0.0032288233556 0.0031747011309 0.0031214996811 0.0030692136923 0.0030178368553 0.0029673659257 0.002917808457 0.0028691478007 0.0028213900323 
0.0027745430881 0.0027286005682 0.0039450462434 0.0038697353009 0.0037965010208 0.0037254045094 0.0035650735453 0.003504882193 0.0034456936987 
0.0033874870897 0.0033302380464 0.0032739344578 0.0032185629865 0.0031641205026 0.0031105944135 0.0030579893721 0.0030063022951 0.0029555430335 
0.002905699732 0.0028567783159 0.0028087881662 0.0027617277281 0.0040023594381 0.0039253923594 0.0038504395108 0.0037776207933 0.0036186307197 
0.00355717979 0.0034967151887 0.0034372190265 0.0033786748896 0.0033210698994 0.0032643967694 0.0032086500311 0.0031538299912 0.003099938821 
0.0030469771069 0.0029949604178 0.0029438758178 0.0028937337212 0.0028445431663 0.0027963080917 0.0040617421096 0.0039828246007 0.0039060263969 
0.0038314692841 0.0036744659163 0.0036117080268 0.0035499208075 0.0034890837607 0.0034291882474 0.0033702252974 0.0033121918431 0.0032550839204 
0.0031989123637 0.0031436751138 0.0030893804718 0.003036042383 0.002983656401 0.0029322334676 0.0028817830226 0.0028323153682 0.0041107904825 
0.0040277125179 0.0039473548088 0.0038691941595 0.0037279965111 0.0036601746823 0.0035943847168 0.0035304817286 0.0034683220208 0.003407778663 
0.0033487370794 0.003291090991 0.0032347442104 0.0031796065322 0.0031256021956 0.0030726654253 0.0030207288793 0.0029697185738 0.0029195949413 
0.0028703172881 0.0041766064156 0.0040914306644 0.0040090535681 0.0039289272336 0.0037933256147 0.0037224674707 0.0036538027383 0.0035871739958 
0.0035224375032 0.0034594616117 0.0033981276211 0.0033383260845 0.0032799595685 0.0032229305812 0.0031671637674 0.0031125862772 0.0030591176482 
0.0030067061393 0.0029552810614 0.0029048028984 0.0042435910325 0.0041562411233 0.0040715437922 0.0039896094225 0.0038598257317 0.0037859738758 
0.0037144623863 0.0036451329169 0.0035778373792 0.003512437931 0.0034488138973 0.0033868543566 0.0033264592458 0.003267528666 0.003209981074 
0.0031537432821 0.0030987253941 0.0030448659416 0.0029921055836 0.002940396885 0.0043112982541 0.0042217157541 0.0041348581358 0.0040508942092 
0.0039270062982 0.003850210758 0.003775896677 0.00370390021 0.0036340706885 0.0035662701666 0.0035003703661 0.0034362631243 0.0033738421784 
0.0033130072228 0.003253670327 0.0031957567173 0.0031391714389 0.00308384924 0.0030297256975 0.0029767427727 0.0043791562098 0.0042872954502 
0.0041982360356 0.0041119293721 0.0039942709223 0.003914594379 0.0038375314339 0.0037629183818 0.0036905963622 0.0036204280004 0.0035522792564 
0.0034860429497 0.0034216096303 0.0033588782071 0.003297758211 0.003238163188 0.0031800003115 0.003123200648 0.0030676988174 0.0030134287499 
0.0044464968168 0.0043523299834 0.0042610551482 0.0041726039164 0.0040609379118 0.00397846294 0.003898726293 0.0038215567543 0.0037467978554 
0.0036743068079 0.0036039536547 0.0035356221164 0.0034692017808 0.0034045907736 0.0033416941085 0.0032804293617 0.0032206922446 0.0031624154782 
0.0031055275442 0.0030499608019 0.0045126886499 0.004416159728 0.0043226594822 0.004232061625 0.0041263227062 0.0040411403198 0.0039588121071 
0.0038791662102 0.0038020396548 0.0037272881909 0.0036547829173 0.0035844001662 0.003516033053 0.0034495739392 0.0033849290697 0.0033220072894 
0.0032607116719 0.0032009648303 0.0031426963662 0.0030858331823 0.0037556229475 0.0036905777685 0.0036269780816 0.0035648149092 0.0034010051789 
0.0033472372383 0.0032945678216 0.0032429511079 0.0031923453985 0.003142718364 0.0030940362163 0.003046272009 0.0029994074351 0.0029534180358 
0.0029082959119 0.0028640024387 0.0028205318789 0.0027778723094 0.0027360057753 0.0026949206582 0.0038059754365 0.0037394227426 0.0036743827505 
0.0036108445419 0.0034457944088 0.0033908544951 0.0033370333967 0.0032842845536 0.0032325647223 0.0031818404969 0.0031320828919 0.0030832626416 
0.0030353580828 0.0029883502457 0.0029422308211 0.0028969570618 0.0028525311196 0.0028089360245 0.002766158352 0.0027241832051 0.0038563577468 
0.0037882795338 0.0037217789943 0.0036568504732 0.0034905544378 0.0034344469399 0.0033794746186 0.0033255910732 0.0032727520581 0.003220925917 
0.0031700828911 0.0031201968521 0.0030712432839 0.003023205386 0.0029760641076 0.0029298100189 0.0028844130881 0.002839868569 0.0027961653193 
0.0027532903243 0.0039071054206 0.0038374844179 0.0037694992052 0.0037031581795 0.0035356396685 0.0034783628057 0.0034222344833 0.0033672053979 
0.0033132399845 0.0032602986252 0.0032083547974 0.003157385261 0.0031073684638 0.0030582820145 0.003010111063 0.0029628480885 0.0029164616145 
0.002870950713 0.0028263032796 0.002782509896 0.0039585885304 0.0038873769843 0.0038178723124 0.0037500492887 0.0035814096833 0.0035229556488 
0.0034656569392 0.0034094712502 0.0033543593845 0.0033002862233 0.0032472230893 0.0031951494351 0.0031440428093 0.0030938860565 0.0030446626471 
0.0029963663152 0.0029489666288 0.0029024649053 0.0028568487951 0.0028121106774 0.0040111627397 0.0039382369945 0.0038671969236 0.0037978908772 
0.0036281954568 0.0035685494133 0.0035100633583 0.0034526989683 0.0033964174816 0.0033411880096 0.003286981666 0.0032337751 0.0031815503061 
0.0031302948369 0.0030799886235 0.0030306293369 0.0029821877371 0.0029346642726 0.0028880508113 0.0028423395621 0.0040649697996 0.0039903524851 
0.0039176816713 0.0038468781828 0.00367628475 0.0036154257295 0.0035557310881 0.0034971623588 0.0034396832101 0.0033832648413 0.0033278838918 
0.0032735138854 0.0032201384128 0.0031677480693 0.0031163248681 0.0030658691982 0.003016349621 0.002967770201 0.0029201248859 0.0028734043952 
0.0041202624816 0.0040438926112 0.0039695608484 0.0038971868646 0.0037259152426 0.0036638183669 0.0036028862697 0.0035430817188 0.0034843735428 
0.003426733642 0.0033701375449 0.0033145667026 0.003260004771 0.003206438636 0.0031538600788 0.0031022659419 0.0030516295652 0.0030019528634 
0.0029532360786 0.0029054689774 0.0041771691236 0.0040990370928 0.0040229343516 0.0039489064184 0.0037772716603 0.0037139068348 0.003651703904 
0.0035906316944 0.0035306553219 0.0034717547732 0.003413906114 0.0033570925359 0.0033012988285 0.0032465146305 0.0031927344128 0.0031399583126 
0.0030881605486 0.0030373452731 0.0029875111426 0.0029386558817 0.00423576622 0.0041557525398 0.0040778687993 0.0040021601291 0.0038304946312 
0.0037658269123 0.0037023187767 0.0036399359387 0.0035786524555 0.0035184459962 0.0034592991172 0.0034011972665 0.0033441257485 0.0032880763797 
0.0032330492226 0.0031790412072 0.0031260330994 0.0030740325476 0.0030230347402 0.0029730408764 0.0042960724063 0.0042141069666 0.0041343762792 
0.0040569288693 0.0038856728124 0.0038196652354 0.0037548111258 0.00369107676 0.0036284410301 0.0035668836057 0.0035063901577 0.0034469482265 
0.0033885478458 0.0033311863234 0.0032748591296 0.0032195680495 0.0031652994037 0.0031120586861 0.0030598483018 0.0030086658176 0.0043580502364 
0.0042740620211 0.0041924204162 0.0041131734887 0.0039428600628 0.0038754736042 0.0038092269778 0.0037440961482 0.0036800609334 0.003617102381 
0.0035552105935 0.003494378269 0.0034345967116 0.003375866356 0.0033181825322 0.0032615573279 0.0032059714189 0.0031514379644 0.003097958109 
0.003045535285 0.0044213768543 0.0043355192563 0.0042519536476 0.004170790086 0.0040020573663 0.0039332497483 0.0038655677327 0.003798991791 
0.0037335047562 0.0036690949521 0.003605752417 0.0035434722215 0.0034822549458 0.0034220981702 0.0033630022982 0.0033049807951 0.0032480246094 
0.0031921410567 0.0031373369599 0.0030836182326 0.0044742613595 0.0043846192835 0.0042974557968 0.0042129137282 0.0040582727003 0.0039844291291 
0.0039127403168 0.0038430520426 0.0037752283473 0.0037091344121 0.0036446548777 0.0035816812872 0.0035201180359 0.0034598745703 0.0034008699294 
0.0033430429658 0.0032863227554 0.0032306400821 0.0031759517921 0.0031222202772 0.0045435885932 0.004451487078 0.004362388584 0.0042757488141 
0.0041262654764 0.0040493091686 0.0039746658558 0.0039021808896 0.003831706784 0.0037631132992 0.0036962764002 0.0036310883421 0.0035674459038 
0.0035052543472 0.0034444306395 0.0033849093065 0.0033266034049 0.0032694652358 0.0032134238649 0.0031584415721 0.0046138355825 0.0045194228126 
0.0044280954576 0.0043392926779 0.0041952249641 0.0041151946103 0.0040376293544 0.0039623680824 0.0038892659407 0.0038181827753 0.0037489932947 
0.0036815892384 0.0036158614271 0.0035517107515 0.0034890538644 0.0034278172022 0.0033679090249 0.0033092713335 0.0032518546058 0.0031955858374 
0.0046846327192 0.0045878520427 0.0044940158317 0.0044032233554 0.0042647278237 0.0041816697441 0.0041012210519 0.0040232225414 0.0039475167419 
0.0038739661508 0.0038024425465 0.0037328293749 0.0036650154795 0.0035989057999 0.0035344088808 0.0034714426627 0.0034099170011 0.0033497671991 
0.0032909302233 0.0032333466494 0.0047555461809 0.0046563496324 0.0045601754039 0.0044671885657 0.004334287793 0.0042482629722 0.0041649895938 
0.0040842937171 0.0040060243478 0.0039300349585 0.0038561989033 0.003784395739 0.0037145132586 0.0036464487823 0.0035801101767 0.003515412213 
0.0034522578473 0.003390582543 0.0033303185054 0.0032714024542 0.00482607776 0.0047244316564 0.0046258989463 0.0045304059923 0.0044033864736 
0.0043144680248 0.0042284292536 0.0041450938247 0.0040643086649 0.0039859235747 0.0039098101783 0.0038358455357 0.0037639134286 0.0036939120157 
0.0036257416485 0.0035593143482 0.0034945322028 0.0034313283243 0.0033696293959 0.003309368383 0.0048957810794 0.0047916184963 0.004690711335 
0.0045929258265 0.0044715027801 0.0043797746559 0.0042910444373 0.0042051380199 0.0041218940741 0.0040411670822 0.0039628205287 0.0038867313876 
0.0038127812958 0.0037408656324 0.0036708808976 0.0036027404499 0.0035363424985 0.0034716147997 0.0034084813185 0.0033468726857 0.0040505133074 
0.0039804768325 0.0039119787978 0.0038450007586 0.0036741055608 0.0036158607969 0.0035588051499 0.0035028941032 0.0034480836339 0.003394340777 
0.0033416280821 0.0032899217687 0.0032391945316 0.0031894245159 0.0031405995754 0.0030926793433 0.0030456589832 0.0029995199483 0.0029542466246 
0.0029098261913 0.0041060357813 0.0040343435223 0.0039642599846 0.0038957707818 0.003723327317 0.0036637910685 0.0036054678717 0.0035483105879 
0.0034922784293 0.0034373349065 0.0033834470153 0.0033305874786 0.0032787297706 0.0032278517909 0.0031779426832 0.0031289632155 0.0030809071172 
0.0030337574193 0.0029874981554 0.002942119548 0.0041618011782 0.0040884304804 0.004016737718 0.003946715846 0.0037727105033 0.0037118818647 
0.0036522879984 0.0035938807935 0.0035366167093 0.0034804639757 0.0034253899101 0.0033713625691 0.0033183605971 0.0032663607154 0.0032153519929 
0.0031652949974 0.0031161865127 0.0030680109525 0.0030207517024 0.0029743957131 0.004218060817 0.004142975554 0.0040696483298 0.0039980686754 
0.0038225180946 0.0037603923454 0.003699517646 0.0036398487268 0.0035813441328 0.0035239671248 0.0034676864125 0.0034124763055 0.0033583105657 
0.0033051690498 0.0032530315644 0.0032018871637 0.0031517071522 0.0031024833165 0.0030542018896 0.0030068515575 0.0042750506688 0.0041982293163 
0.004123232211 0.004050023854 0.0038730220537 0.0038095892228 0.0037474214704 0.0036864768148 0.0036267114837 0.0035680887355 0.003510583331 
0.0034541663313 0.0033988161004 0.0033445087352 0.0032912262521 0.0032389604211 0.0031876833362 0.0031373849612 0.0030880558734 0.0030396852388 
0.0043330915312 0.0042543999625 0.0041777122063 0.0041028780563 0.0039244830111 0.0038597282413 0.0037962501901 0.0037340076171 0.0036729580086 
0.0036130711889 0.0035543126272 0.0034966621626 0.0034400951612 0.0033845943179 0.0033301380755 0.0032767229291 0.003224315238 0.0031729152765 
0.0031225083934 0.0030730884366 0.0043922566622 0.0043117164223 0.0042332485419 0.0041567679678 0.003977136001 0.0039110380593 0.0038462273396 
0.0037826611066 0.003720301767 0.0036591181698 0.0035990807766 0.0035401617401 0.0034823471961 0.0034256175941 0.0033699541052 0.0033153537933 
0.0032617869258 0.0032092484233 0.003157730805 0.0031072268428 0.0044527550151 0.0043703075262 0.0042900324497 0.0042118411281 0.0040311792512 
0.0039637177367 0.0038975458918 0.0038326266354 0.0037689258215 0.0037064117946 0.0036450553522 0.003584836817 0.0035257366676 0.0034677403329 
0.0034108330334 0.0033550086943 0.0033002393085 0.003246525209 0.0031938596136 0.0031422330337 0.0045146945261 0.0044302816847 0.0043481411196 
0.004268156859 0.0040867756627 0.0040179196279 0.0039503568141 0.0038840531334 0.003818973498 0.0037550898788 0.0036923787582 0.0036308192357 
0.003570392766 0.0035110873414 0.0034528913332 0.0033958004444 0.0033397884593 0.0032848572767 0.0032309999422 0.0031782129476 0.0045781295702 
0.0044917396939 0.0044076245151 0.0043258216982 0.0041440457463 0.0040737620419 0.0040047752731 0.0039370480892 0.0038705500158 0.0038052567639 
0.003741149044 0.0036782038108 0.0036164068529 0.0035557473776 0.0034962173368 0.0034378139533 0.003380513223 0.0033243208201 0.0032692260577 
0.0032152300926 0.004643068894 0.004554583594 0.0044684814155 0.0043848064776 0.0042030725764 0.0041313274279 0.004060874548 0.0039916833921 
0.0039237258756 0.0038569803825 0.0037914285386 0.0037270501806 0.0036638355924 0.0036017753629 0.003540861351 0.0034810954974 0.0034224580361 
0.00336495151 0.0033085724911 0.0032533194564 0.0047094693577 0.0046188180797 0.0045306698443 0.0044450658103 0.004263899406 0.0041906505875 
0.0041186923787 0.0040479964813 0.0039785354694 0.0039102884921 0.0038432420208 0.0037773820957 0.0037126999055 0.0036491849245 0.0035868381042 
0.0035256585516 0.0034656266828 0.0034067563 0.0033490421492 0.0032924826954 0.0047770031038 0.004684345901 0.0045941409262 0.0045064947957 
0.0043265246947 0.004251736316 0.004178230732 0.0041059808669 0.004034968623 0.0039651720699 0.0038965804686 0.0038291867984 0.0037629806228 
0.0036979598013 0.0036341214195 0.0035714736134 0.003509998281 0.0034497091762 0.0033906033725 0.0033326851868 0.0048337745396 0.0047374613206 
0.0046438317842 0.004553020685 0.004384896095 0.0043051698781 0.0042277104924 0.0041523670174 0.0040789943133 0.0040074649761 0.0039376586905 
0.0038694640749 0.0038027867244 0.0037375345233 0.0036736263547 0.0036110012282 0.0035495873046 0.0034893141897 0.0034301434713 0.0033720347106 
0.0049068074587 0.0048078959486 0.0047121897656 0.0046191414161 0.0044557469377 0.0043728218963 0.0042923270477 0.0042141030371 0.0041380079219 
0.0040639073015 0.0039916745767 0.0039212010151 0.003852380688 0.003785121637 0.0037193361667 0.0036549586381 0.0035919036103 0.003530121211 
0.0034695444426 0.0034101330271 0.0049805982339 0.0048792376974 0.0047811626353 0.0046858189642 0.0045274335143 0.0044413457078 0.0043578441476 
0.0042767691027 0.0041979679004 0.004121306753 0.0040466545955 0.0039739009558 0.0039029326409 0.0038336531213 0.0037659771292 0.003699827142 
0.003635113669 0.0035717800352 0.0035097738177 0.0034490262537 0.0050548517916 0.0049509773747 0.0048502543939 0.0047527885647 0.0045995976324 
0.0045103920374 0.0044239236361 0.0043400270825 0.0042585493559 0.0041793462203 0.0041022888322 0.0040272603275 0.0039541451448 0.003882843562 
0.0038132671531 0.0037453318715 0.0036789472322 0.0036140469169 0.0035505705143 0.0034884677089 0.0051292298545 0.0050227934375 0.0049195970165 
0.0048197923852 0.0046718441316 0.0045795772033 0.0044901907278 0.0044035145778 0.0043193909769 0.0042376731898 0.0041582329095 0.0040809458014 
0.0040056930076 0.0039323767351 0.003860898164 0.003791172016 0.0037231027017 0.0036566242442 0.0035916685346 0.0035281715145 0.0052033592644 
0.005094322858 0.0049886187904 0.0048861695541 0.0047437637857 0.0046485016177 0.0045562548982 0.0044668465416 0.0043801202891 0.0042959261994 
0.0042141296999 0.0041346057776 0.0040572359211 0.003981916087 0.0039085424378 0.0038370244944 0.0037672705716 0.0036992063776 0.0036327606122 
0.0035678665429 0.0052768788501 0.0051652177425 0.0050569830225 0.0049520884447 0.0048149605583 0.0047167778651 0.0046217342077 0.0045296517746 
0.0044403719463 0.0043537456129 0.0042696305609 0.0041879038232 0.0041084401052 0.0040311317594 0.0039558754227 0.0038825792334 0.0038111453991 
0.0037414972707 0.0036735590277 0.0036072612206 0.004343810002 0.0042688459926 0.0041955492534 0.004124077749 0.0039460413183 0.0038833669141 
0.0038219708255 0.0037618059942 0.0037028327917 0.0036450092127 0.0035883041792 0.0035326871332 0.0034781330817 0.0034246118214 0.0033721153567 
0.0033205999842 0.00327005781 0.003220469269 0.0031718178068 0.0031240884658 0.0044042070059 0.0043274448756 0.0042523886707 0.0041790177185 
0.0039994422008 0.0039353599712 0.003872584041 0.0038110657416 0.0037507652855 0.003691645247 0.0036336675288 0.0035768065636 0.0035210312466 
0.0034663185991 0.0034126559611 0.003360001233 0.0033083468924 0.0032576758319 0.0032079680678 0.0031592125493 0.0044650249938 0.0043864401493 
0.0043096340067 0.0042345957144 0.0040531621649 0.0039876674843 0.0039235050997 0.0038606245524 0.0037989878746 0.0037385540089 0.0036792917052 
0.0036211669919 0.0035641572593 0.003508233791 0.0034533864756 0.0033995751221 0.003346789963 0.0032950161454 0.003244233973 0.0031944331638 
0.0045264431079 0.0044459964427 0.0043674132487 0.0042906802083 0.0041073969288 0.0040404837544 0.0039749214789 0.0039106693411 0.0038476783705 
0.0037859150781 0.0037253464049 0.0036659424114 0.0036076758477 0.0035505228327 0.0034944686268 0.0034394755255 0.0033855394434 0.0033326400482 
0.0032807622278 0.003229892493 0.0045886340771 0.0045062999365 0.0044259023281 0.004347441805 0.0041623574924 0.0040940104207 0.0040270375593 
0.0039613912791 0.0038970307655 0.0038339174666 0.0037720217608 0.0037113125803 0.0036517658147 0.0035933548769 0.0035360590291 0.0034798697654 
0.0034247540228 0.0033707037703 0.0033177033017 0.0032657399974 0.0046517970932 0.0045674958661 0.0044852644878 0.0044049994192 0.0042182465549 
0.0041484515147 0.0040800476078 0.0040129892925 0.0039472360981 0.0038827479465 0.0038194959263 0.0037574563099 0.0036965978644 0.0036369018194 
0.0035783448432 0.0035209205969 0.0034645961874 0.0034093628804 0.0033552081852 0.0033021215342 0.004716123127 0.0046297718097 0.0045456410723 
0.0044635684047 0.0042752552659 0.0042039922382 0.0041341348941 0.0040656377307 0.0039984610677 0.0039325736227 0.003867937743 0.0038045296445 
0.0037423294421 0.0036813136214 0.0036214632284 0.0035627693272 0.003505201521 0.0034487526379 0.0033934104032 0.0033391677275 0.0047816260566 
0.0046932205051 0.0046071148317 0.0045232178418 0.0043335480356 0.0042607937872 0.0041894558044 0.0041194900134 0.004050861778 0.003983536115 
0.003917482542 0.0038526765587 0.0037890957023 0.0037267238505 0.0036655409005 0.0036055401685 0.0035466905718 0.003488989482 0.0034324230558 
0.0033769869407 0.004848437032 0.0047579194771 0.0046698093353 0.0045839830497 0.0043932617562 0.0043189867685 0.0042461373321 0.0041746735023 
0.0041045566081 0.0040357571546 0.0039682468249 0.0039020034892 0.0038370045712 0.0037732337149 0.0037106789964 0.00364932803 0.0035891559612 
0.0035301600811 0.0034723325175 0.0034156623894 0.0049165949881 0.0048239575171 0.0047337328457 0.0046459583956 0.0044544992167 0.004378673715 
0.0043042805243 0.0042312787617 0.0041596369294 0.0040893243006 0.0040203179558 0.0039525931421 0.0038861315969 0.0038209222517 0.0037569460883 
0.0036942014946 0.0036326636072 0.0035723310354 0.0035131929834 0.0034552478758 0.0049860972136 0.0048912231893 0.0047988773056 0.004709099665 
0.0045173354654 0.0044399243774 0.0043639487404 0.0042893722722 0.00421616359 0.0041442957964 0.0040737466484 0.0040044966882 0.003936527609 
0.0038698290382 0.0038043878634 0.0037402021663 0.00367725039 0.0036155304856 0.0035550394539 0.0034957696101 0.0050568946175 0.0049597168242 
0.0048651916661 0.004773357556 0.0045818058783 0.0045027715089 0.0044251750926 0.0043489831139 0.0042741632781 0.0042006948604 0.004128556451 
0.0040577318131 0.0039882053816 0.0039199695619 0.0038530152561 0.0037873376274 0.0037229199329 0.0036597666747 0.0035978690466 0.0035372269116 
0.0051286641697 0.005029343554 0.004932581902 0.004838631794 0.004647915498 0.0045672196237 0.0044879600197 0.0044101073951 0.0043336308622 
0.0042585133954 0.0041847374807 0.0041122866732 0.0040411527848 0.0039713274418 0.0039028028957 0.0038355829453 0.003769648519 0.003705005396 
0.0036416527365 0.0035795869698 0.005189329642 0.0050864738461 0.0049864960908 0.0048895236906 0.0047079321531 0.0046224593719 0.004539360448 
0.0044584837061 0.0043796851863 0.0043028339462 0.0042278092966 0.0041545015154 0.0040828117032 0.0040126485813 0.0039439330498 0.0038765989464 
0.0038105759768 0.0037457982074 0.0036822247859 0.0036198128964 0.0052662219542 0.0051606207332 0.0050584229388 0.0049590761906 0.004781785246 
0.0046930211958 0.0046068018894 0.0045229641166 0.0044413649451 0.004361867194 0.0042843467225 0.0042086910523 0.0041347938287 0.0040625602382 
0.0039919067646 0.0039227609056 0.0038550424647 0.0037887000088 0.0037236648144 0.0036598999203 0.0053437635551 0.0052355720614 0.0051308637767 
0.0050290857895 0.0048563986799 0.0047643803578 0.0046750658144 0.0045882918698 0.0045039079025 0.004421773678 0.004341763757 0.0042637572936 
0.0041876468103 0.0041133319636 0.0040407250742 0.0039697498871 0.0039003151214 0.0038323645797 0.003765847374 0.0037006941946 0.0054217291313 
0.0053108761556 0.0052033783867 0.0050993374858 0.0049314692862 0.0048362385733 0.0047438663261 0.0046541846929 0.0045670396857 0.0044822858971 
0.00439979606 0.0043194461315 0.0042411205267 0.004164719916 0.004090149826 0.0040173290238 0.0039461650396 0.0038765936388 0.0038085505284 
0.0037419899975 0.0054998473159 0.0053862845248 0.0052761679756 0.0051695958078 0.0050066709669 0.0049082782842 0.0048128909478 0.0047203393228 
0.004630463464 0.0045431159581 0.004458164533 0.0043754812943 0.0042949479819 0.0042164643254 0.00413992751 0.0040652540881 0.0039923477233 
0.0039211395973 0.0038515625889 0.0037835552624 0.0055778440329 0.005461524106 0.0053487524051 0.0052394429853 0.0050816760441 0.0049801817088 
0.0048818303757 0.0047864508981 0.0046938819205 0.0046039681323 0.004516580234 0.0044315837591 0.0043488598968 0.0042682986316 0.0041897995717 
0.0041132700524 0.0040386167375 0.0039657643612 0.0038946392758 0.0038251775138 0.0056554502867 0.0055363437707 0.0054208837232 0.0053089737402 
0.0051561765182 0.0050516439507 0.0049503874374 0.0048522299957 0.0047570071518 0.004664568699 0.0045747720879 0.0044874860593 0.0044025908425 
0.0043199680702 0.0042395142113 0.0041611350043 0.0040847355321 0.0040102347173 0.0039375570196 0.0038666316969 0.0046351764724 0.0045553540635 
0.0044772899117 0.0044011361978 0.0042165043758 0.0041494521086 0.0040837657546 0.0040193964093 0.0039563027399 0.0038944451185 0.0038337881565 
0.003774302282 0.0037159569851 0.0036587236124 0.003602591573 0.0035475154918 0.0034934845284 0.0034404800567 0.0033884833407 0.0033373811354 
0.0047002118754 0.0046184619851 0.0045385045136 0.004460329792 0.0042738856028 0.0042053127659 0.0041381364659 0.0040723109918 0.0040077921961 
0.0039445395145 0.0038825185176 0.0038216986043 0.0037620474559 0.0037035402712 0.0036461637941 0.0035898724854 0.0035346570606 0.0034804986458 
0.0034273777126 0.0033752789582 0.0047658175604 0.0046821036709 0.0046002679501 0.0045202958752 0.0043317167658 0.0042616165195 0.0041929410642 
0.004125646195 0.0040596870028 0.0039950242711 0.0039316217049 0.0038694474678 0.0038084724848 0.0037486715576 0.0036900281811 0.0036325000678 
0.0035760801427 0.0035207458696 0.0034664800891 0.0034132676624 0.0048321197051 0.004746404761 0.0046626568342 0.0045808589994 0.0043901469534 
0.0043185068129 0.0042483208194 0.0041795402667 0.0041121232985 0.0040460305391 0.0039812250917 0.0039176770393 0.0038553565534 0.0037942385127 
0.003734303167 0.0036755158919 0.0036178662088 0.0035613323393 0.0035058979847 0.0034515482529 0.0048992414391 0.0048114965465 0.0047257980396 
0.0046421405022 0.0044493364842 0.0043761427513 0.0043044283439 0.0042341465357 0.0041652495881 0.0040977037947 0.0040314726221 0.0039665252701 
0.0039028338899 0.0038403682861 0.0037791178997 0.0037190440474 0.0036601375047 0.0036023761531 0.0035457466457 0.0034902321344 0.0049673334292 
0.0048774798844 0.0047898105871 0.004704215212 0.0045094461536 0.0044346826449 0.0043614206237 0.004289613205 0.0042192153366 0.0041501891205 
0.004082506594 0.0040161304213 0.0039510348861 0.0038871972248 0.0038246001007 0.0037632087952 0.0037030133808 0.0036439947783 0.0035861388866 
0.0035294317021 0.005036549193 0.0049445030062 0.0048547968606 0.0047672647609 0.0045706320935 0.0044942762254 0.0044194431597 0.0043460834263 
0.0042741578114 0.0042036253946 0.0041344562139 0.0040666192527 0.004000090309 0.0039348443321 0.0038708594522 0.0038081251877 0.0037466072307 
0.0036862971937 0.0036271811944 0.0035692464494 0.0051068710781 0.005012629606 0.0049208106477 0.004831322468 0.004633026107 0.0045550556712 
0.0044786231769 0.0044036827585 0.0043301963292 0.0042581242746 0.0041874358453 0.0041181035013 0.0040501041634 0.0039834130128 0.0039180110996 
0.0038538880397 0.0037910113859 0.0037293727611 0.0036689604481 0.003609763066 0.0051784071006 0.0050819123133 0.0049879532212 0.0048964068043 
0.0046967438126 0.0046171293431 0.0045390668962 0.0044625154236 0.0043874315259 0.004313782814 0.0042415397076 0.0041706743141 0.0041011637154 
0.0040329905767 0.0039661297728 0.0039005772768 0.0038363006231 0.0037732934944 0.0037115458475 0.0036510462369 0.0052511784538 0.0051523718822 
0.0050562166418 0.0049625914763 0.0047618742006 0.0046805855715 0.0046008610935 0.0045226583352 0.0044459430004 0.0043706788687 0.0042968394695 
0.0042243983515 0.0041533379069 0.0040836340263 0.0040152729395 0.0039482471394 0.0038825268227 0.0038181094274 0.0037549829117 0.003693138323 
0.0053251722726 0.0052240427763 0.00512558472 0.0050298286021 0.0048284790749 0.0047454814779 0.0046640584675 0.004584169172 0.0045057788396 
0.0044288589869 0.0043533806243 0.0042793207467 0.0042066614541 0.0041353852397 0.0040654746252 0.00399693136 0.0039297227292 0.0038638459177 
0.0037992951898 0.0037360604087 0.005400336218 0.0052967698351 0.0051960028175 0.0050980640349 0.004896594048 0.0048118522231 0.0047286917113 
0.0046470744584 0.0045669679526 0.0044883451289 0.004411182534 0.0043354557744 0.0042611505863 0.0041882528441 0.0041167474799 0.0040466340309 
0.0039778868937 0.0039105048288 0.0038444810424 0.003779809745 0.0054763561889 0.0053705107708 0.0052673771801 0.0051672012578 0.0049662241695 
0.0048796991271 0.0047947616132 0.0047113722549 0.004629504381 0.0045491336959 0.0044702361082 0.0043927928118 0.0043167927764 0.0042422229429 
0.004169071441 0.0040973367044 0.0040269990094 0.0039580606889 0.0038905147931 0.0038243560264 0.0055408840798 0.0054316102258 0.0053253505889 