# vtk DataFile Version 5.1
vtk output
ASCII
DATASET STRUCTURED_POINTS
DIMENSIONS 26 14 26
SPACING 0.08 0.08 0.08
ORIGIN 2.7 -0.52 0
POINT_DATA 9464
FIELD FieldData 1
potential 1 9464 double
-0.064137628062 -0.063864583799 -0.063665914357 -0.063552752532 -0.063518184473 -0.063547776719 -0.063628266082 -0.063742083556 -0.063848670643 
-0.063882682216 -0.063792823521 -0.06358731561 -0.063321308253 -0.063054804966 -0.062829919413 -0.06266758606 -0.062571612964 -0.062533871795 
-0.062537169185 -0.062553190975 -0.062539381939 -0.062443103219 -0.062227086116 -0.061905593542 -0.061539246312 -0.061191973859 -0.1028686183 
-0.10266847641 -0.10250518578 -0.10238818149 -0.10231664864 -0.10228370367 -0.10227863109 -0.10228572345 -0.10228116475 -0.10223678165 
-0.10213313265 -0.10197234912 -0.10177582234 -0.10157159534 -0.10138291621 -0.10122387008 -0.10109844964 -0.10100267108 -0.10092517443 
-0.10084808467 -0.10074826707 -0.10060242977 -0.10039779823 -0.10014194898 -0.099860100383 -0.099582668897 -0.13169720326 -0.13153293547 
-0.13138756094 -0.13126752399 -0.1311735972 -0.13110186752 -0.13104501164 -0.13099232084 -0.13093025801 -0.1308451028 -0.13072831833 
-0.13058043264 -0.13041077944 -0.13023287561 -0.13005930547 -0.12989830131 -0.12975301756 -0.129621184 -0.12949613587 -0.1293671227 
-0.12922189466 -0.12904989622 -0.12884595294 -0.12861427667 -0.12836721761 -0.1281200642 -0.14835383641 -0.14820669606 -0.14806939187 
-0.1479457932 -0.14783678798 -0.14774004431 -0.14765071598 -0.14756218364 -0.14746652187 -0.1473566635 -0.14722821718 -0.14708121762 
-0.14691992761 -0.14675102318 -0.1465812539 -0.14641532396 -0.14625513217 -0.14609942201 -0.14594426171 -0.1457837094 -0.14561135836 
-0.14542182907 -0.14521333874 -0.14498844079 -0.144753632 -0.14451704313 -0.1585646358 -0.15842445229 -0.15828908134 -0.15816094021 
-0.15804045779 -0.1579262071 -0.15781511055 -0.15770301273 -0.15758537108 -0.15745813141 -0.1573187729 -0.15716719016 -0.15700532803 
-0.1568365523 -0.15666431742 -0.15649120279 -0.15631826076 -0.15614479852 -0.15596855565 -0.15578621162 -0.1555944293 -0.15539068162 
-0.1551743858 -0.15494721389 -0.15471287524 -0.15447629042 -0.16363092354 -0.16348994952 -0.16335105607 -0.16321552632 -0.16308343623 
-0.16295387923 -0.16282498543 -0.16269400086 -0.16255808948 -0.16241488847 -0.1622630078 -0.16210207236 -0.16193298656 -0.16175727384 
-0.1615767798 -0.16139270793 -0.16120557707 -0.16101508453 -0.16081979036 -0.16061793534 -0.16040778166 -0.16018818353 -0.15995900455 
-0.15972178885 -0.15947885264 -0.15923338342 -0.16277601205 -0.16259685261 -0.16242160961 -0.16225018726 -0.16208199488 -0.16191600942 
-0.16175059265 -0.16158394662 -0.16141409421 -0.1612394238 -0.16105888307 -0.16087199287 -0.16067913055 -0.16048082398 -0.16027784608 
-0.16007064658 -0.15985920732 -0.15964330636 -0.15942221689 -0.15919479209 -0.15896014572 -0.15871774746 -0.15846788143 -0.15821180433 
-0.15795135852 -0.15768895113 -0.1589214841 -0.15879346504 -0.15866548746 -0.15853755812 -0.15840936194 -0.15828006004 -0.15814883903 
-0.15801433687 -0.15787551126 -0.15773133007 -0.15758125728 -0.15742493628 -0.15726233082 -0.15709371018 -0.15691908234 -0.15673858027 
-0.15655216937 -0.15635932293 -0.15615970199 -0.1559527855 -0.15573797081 -0.15551515178 -0.15528476039 -0.1550479734 -0.15480674803 
-0.1545633861 -0.15381634974 -0.15370355553 -0.15359064333 -0.15347718593 -0.15336237285 -0.15324536812 -0.15312536659 -0.1530014598 
-0.15287287474 -0.15273917631 -0.15259988113 -0.15245478886 -0.15230381437 -0.15214676745 -0.15198345765 -0.15181335953 -0.15163613525 
-0.15145134614 -0.15125888654 -0.15105831798 -0.15084932088 -0.1506316667 -0.15040580724 -0.15017288258 -0.14993543081 -0.149696175 
-0.14605862056 -0.1459592586 -0.14586053059 -0.14576117553 -0.14565952604 -0.14555453211 -0.14544536891 -0.14533166019 -0.14521293796 
-0.14508888068 -0.14495930679 -0.1448243009 -0.14468384173 -0.14453761112 -0.14438477592 -0.14422432539 -0.1440553416 -0.14387762435 
-0.14369124694 -0.14349616562 -0.14329170096 -0.14307722932 -0.14285268552 -0.14261956817 -0.14238084423 -0.1421408527 -0.13483104592 
-0.13474654944 -0.13466490861 -0.13458270057 -0.13449681827 -0.13440562742 -0.13430884039 -0.13420683901 -0.13409933453 -0.13398594413 
-0.13386677882 -0.13374252126 -0.13361382709 -0.13348021855 -0.13333989371 -0.13319056279 -0.13303070525 -0.13286041724 -0.1326804626 
-0.13249168949 -0.13229279478 -0.13208156148 -0.13185642646 -0.1316188351 -0.13137346009 -0.13112736516 -0.11881992904 -0.11875275942 
-0.1186936323 -0.11863344855 -0.11856565928 -0.11848868341 -0.1184043491 -0.11831419325 -0.11821798115 -0.11811464913 -0.1180042567 
-0.11788913569 -0.11777182181 -0.11765222414 -0.1175266077 -0.11738926151 -0.11723690654 -0.11707072536 -0.11689466764 -0.11671158536 
-0.116518977 -0.11631028587 -0.11607991982 -0.11582833345 -0.11556373069 -0.11529905045 -0.092719967399 -0.092683367647 -0.092665911939 
-0.092644046728 -0.092603047809 -0.092544115987 -0.092475880917 -0.092403875712 -0.092326346022 -0.092238298563 -0.092138666518 -0.092034177861 
-0.091933537708 -0.091838661433 -0.091740842812 -0.091625572783 -0.091483711821 -0.091320186493 -0.091148864605 -0.09097859114 -0.090804679101 
-0.090609588264 -0.090375670468 -0.090100401646 -0.089800379877 -0.089501932718 -0.058496223509 -0.058521271415 -0.058591129275 -0.05863823415 
-0.058630378263 -0.058584069385 -0.05853022627 -0.05848414798 -0.058438025249 -0.058371278542 -0.058276276948 -0.058173184578 -0.058090043767 
-0.058036278076 -0.057991849483 -0.057915925791 -0.057780074002 -0.05760102251 -0.057422791895 -0.057273560199 -0.057143912356 -0.056987597019 
-0.056751026779 -0.056422559614 -0.056043847174 -0.055673361755 -0.059531459712 -0.059276105333 -0.059087022707 -0.058974879131 -0.058933754649 
-0.058950539328 -0.059012305197 -0.059101951741 -0.059183047843 -0.059199496844 -0.059107833458 -0.058913930646 -0.058664394879 -0.058412251712 
-0.058196065265 -0.058035732299 -0.057935392586 -0.057887604672 -0.057875952897 -0.057873771359 -0.057842348709 -0.057736059513 -0.057524391204 
-0.057220230335 -0.056875523141 -0.056546578587 -0.08255424483 -0.082360938368 -0.082201494713 -0.082084876506 -0.082010430173 -0.081971745151 
-0.081958582911 -0.081956061188 -0.081942176945 -0.08189144237 -0.081786343484 -0.081628633114 -0.081437442683 -0.081238390919 -0.081053020295 
-0.080894645907 -0.080767135667 -0.080666772199 -0.080582792102 -0.080498380372 -0.080392134166 -0.080242978849 -0.08003968502 -0.079789354164 
-0.079514851963 -0.079243988223 -0.10350684135 -0.10334553867 -0.10320190843 -0.10308207791 -0.10298681411 -0.102912395 -0.10285182305 
-0.10279491269 -0.10272892674 -0.10264107268 -0.10252342199 -0.10237640725 -0.10220864132 -0.10203273074 -0.10186046344 -0.10169967003 
-0.10155335926 -0.10141938528 -0.10129140089 -0.10115923447 -0.10101138855 -0.10083809153 -0.10063461955 -0.10040498354 -0.10016071278 
-0.099916133801 -0.11849188723 -0.11834636816 -0.11821013747 -0.11808688482 -0.11797746578 -0.1178796134 -0.11778874924 -0.11769845879 
-0.11760121061 -0.11749030527 -0.11736157644 -0.11721502842 -0.11705465771 -0.11688676455 -0.1167177538 -0.11655210469 -0.1163916261 
-0.11623512127 -0.11607883222 -0.11591709615 -0.11574384327 -0.11555400885 -0.11534594016 -0.11512210986 -0.11488868906 -0.11465339467 
-0.12815176087 -0.12801321469 -0.12787922657 -0.12775210903 -0.1276322693 -0.12751832562 -0.12740730381 -0.1272951987 -0.12717764345 
-0.12705074524 -0.12691207671 -0.12676152418 -0.12660089622 -0.12643347339 -0.12626247382 -0.12609039147 -0.12591821442 -0.12574532658 
-0.12556950426 -0.12538757942 -0.1251963742 -0.12499348684 -0.12477838834 -0.12455269599 -0.12431997693 -0.1240849579 -0.13321876448 
-0.13308207643 -0.13294736709 -0.13281587579 -0.13268766503 -0.13256185671 -0.13243663749 -0.13230933401 -0.13217719832 -0.13203794423 
-0.13189022549 -0.13173367653 -0.13156911902 -0.13139804094 -0.13122220232 -0.13104275276 -0.13086018929 -0.13067422272 -0.13048345951 
-0.1302862084 -0.13008080459 -0.12986615893 -0.12964215334 -0.12941030097 -0.1291728439 -0.12893286822 -0.13413304528 -0.13399836634 
-0.1338642173 -0.13373119735 -0.13359914916 -0.13346740918 -0.13333460182 -0.13319915034 -0.13305926827 -0.13291349945 -0.13276090852 
-0.1326010973 -0.13243449096 -0.13226164628 -0.13208335557 -0.13190009097 -0.13171189155 -0.13151850685 -0.13131933955 -0.13111328171 
-0.13089951036 -0.13067754346 -0.13044769857 -0.13021122235 -0.12996993046 -0.12972618183 -0.13186511377 -0.13174070653 -0.13161622484 
-0.13149166791 -0.13136673397 -0.13124061301 -0.13111246959 -0.13098102924 -0.1308452271 -0.13070406798 -0.13055701513 -0.13040371273 
-0.1302441139 -0.13007847411 -0.12990678017 -0.12972919192 -0.12954564194 -0.12935562058 -0.12915880033 -0.12895467757 -0.12874267056 
-0.12852269198 -0.12829516734 -0.12806125871 -0.12782287593 -0.12758226195 -0.12714744458 -0.12703535851 -0.12692303887 -0.12681011201 
-0.12669578806 -0.12657925568 -0.12645972332 -0.12633627128 -0.12620819667 -0.12607500816 -0.12593624149 -0.12579168789 -0.12564125152 
-0.1254847377 -0.12532195946 -0.12515240924 -0.12497573978 -0.1247915404 -0.12459971164 -0.12439979151 -0.12419149422 -0.12397461472 
-0.12374961382 -0.12351760893 -0.12328107978 -0.12304266567 -0.11974932558 -0.11964971662 -0.11955057962 -0.11945075432 -0.11934864843 
-0.11924324214 -0.11913371221 -0.11901969122 -0.11890066782 -0.11877638814 -0.1186465999 -0.11851138242 -0.11837069011 -0.11822420346 
-0.11807111956 -0.11791047179 -0.11774137021 -0.11756360799 -0.11737723205 -0.117182182 -0.11697784277 -0.11676361677 -0.11653949781 
-0.11630696528 -0.11606888834 -0.11582945453 -0.10913354684 -0.10904805776 -0.10896511033 -0.10888154143 -0.10879443946 -0.10870221699 
-0.10860453215 -0.10850170874 -0.10839344746 -0.10827938736 -0.10815960472 -0.10803475043 -0.10790536326 -0.10777096024 -0.10762983419 
-0.10747982846 -0.10731949889 -0.10714890506 -0.10696870351 -0.10677965689 -0.10658055656 -0.1063693543 -0.10614466778 -0.10590791003 
-0.10566362954 -0.10541849792 -0.094615350938 -0.09454607922 -0.094484103175 -0.094421131034 -0.094351127777 -0.094272498804 -0.094186785115 
-0.09409531443 -0.093997873031 -0.093893519057 -0.09378233169 -0.093666397781 -0.093548011033 -0.093427006668 -0.093299850622 -0.093161284413 
-0.093008317824 -0.092841876409 -0.092665584205 -0.092481984962 -0.092288744084 -0.092079858273 -0.091850305242 -0.091600638761 -0.091338574784 
-0.091076268304 -0.075259705915 -0.075218085015 -0.075193564818 -0.075165414577 -0.075120333042 -0.075059014931 -0.074988800949 -0.074914548294 
-0.074834724011 -0.074745036067 -0.074644646095 -0.074539541032 -0.074437370127 -0.074339666315 -0.074238445057 -0.074120652719 -0.073978178893 
-0.073815285327 -0.073644262457 -0.073472893223 -0.073296898483 -0.073100507302 -0.072868064211 -0.072597482773 -0.072303850337 -0.07201133355 
-0.054431249285 -0.054441193513 -0.054489787856 -0.054520435828 -0.054505253388 -0.054456786919 -0.054400671487 -0.054350121767 -0.054298462756 
-0.054228483428 -0.054134194573 -0.054032728318 -0.053947987345 -0.053887812104 -0.053834186281 -0.053751717483 -0.053616472253 -0.053442562769 
-0.05326752012 -0.053115753899 -0.052978757463 -0.052816114652 -0.052582209249 -0.052267087394 -0.051906232352 -0.051551371482 -0.050236707229 
-0.050019102427 -0.049849891864 -0.049738413008 -0.049681123041 -0.049668050942 -0.04968767608 -0.049724581385 -0.049751308485 -0.049730173289 
-0.0496327355 -0.049461440057 -0.049246395061 -0.049025379628 -0.04882818337 -0.048671648437 -0.048560164812 -0.048487836217 -0.048440785072 
-0.04839687119 -0.048326618659 -0.048198848473 -0.047995424807 -0.047726215628 -0.04742622942 -0.04713548193 -0.066626744132 -0.066449220547 
-0.066298344511 -0.066181854335 -0.066099454076 -0.066045910026 -0.066012326113 -0.065985968759 -0.065949193442 -0.065882586519 -0.065773083475 
-0.065621633989 -0.065442312468 -0.065254967661 -0.065076931599 -0.064919433295 -0.064785933968 -0.06467337309 -0.064572596098 -0.064469575317 
-0.064347179012 -0.064189454054 -0.063988552692 -0.063750370724 -0.063492451427 -0.063236347522 -0.081803410235 -0.081649062947 -0.081509212062 
-0.081389256177 -0.081289837135 -0.081207820188 -0.081137034488 -0.081068680612 -0.080992041422 -0.08089665728 -0.080776049448 -0.080630456191 
-0.080466710541 -0.080295119462 -0.080125522246 -0.079964553619 -0.079814874891 -0.079674655503 -0.079538401687 -0.079397477425 -0.079242297642 
-0.079064941845 -0.078862048733 -0.078636818859 -0.078398824125 -0.078160008405 -0.093870668016 -0.093728678278 -0.093594586454 -0.093471450574 
-0.093360168012 -0.093258670046 -0.093162887685 -0.093067165198 -0.092964959289 -0.092850500757 -0.092720220575 -0.092574010115 -0.092415267938 
-0.092249231255 -0.09208142563 -0.091915703133 -0.091753660612 -0.091594236918 -0.091434155366 -0.091268500759 -0.09109208096 -0.090900631051 
-0.090692894141 -0.090471038647 -0.090240426318 -0.090007661093 -0.10225848432 -0.10212293934 -0.10199122359 -0.10186540979 -0.10174578292 
-0.10163116913 -0.10151879188 -0.10140509197 -0.10128623877 -0.10115869567 -0.10102028791 -0.10087090421 -0.10071205239 -0.10054658442 
-0.10037727004 -0.10020633189 -0.10003461164 -0.099861515602 -0.099685140841 -0.099502669834 -0.099311306882 -0.099109015051 -0.09889541098 
-0.098671934886 -0.098441797904 -0.098209182046 -0.107048295 -0.10691644239 -0.10678618765 -0.1066586213 -0.10653379019 -0.10641089277 
-0.10628824927 -0.10616341482 -0.10603393142 -0.10589759813 -0.10575329841 -0.1056006183 -0.10544027742 -0.10527350153 -0.10510190849 
-0.10492649073 -0.10474763588 -0.1045651351 -0.10437770966 -0.10418384569 -0.10398206713 -0.10377146316 -0.10355193103 -0.1033249059 
-0.103092415 -0.10285726845 -0.10852608411 -0.10839845294 -0.10827108489 -0.10814450927 -0.10801857626 -0.10789267672 -0.10776551722 
-0.10763567529 -0.10750135737 -0.10736138684 -0.10721479741 -0.10706115793 -0.10690087958 -0.1067344194 -0.10656246768 -0.10638543823 
-0.10620333584 -0.1060159328 -0.10582269349 -0.10562260392 -0.1054149344 -0.10519927415 -0.10497593969 -0.10474613511 -0.10451150288 
-0.10427422415 -0.10711249884 -0.10699175493 -0.10687067856 -0.10674928019 -0.10662729037 -0.10650395504 -0.10637848157 -0.10624967561 
-0.10611650889 -0.10597805837 -0.10583378696 -0.10568335063 -0.10552670493 -0.1053639933 -0.1051952274 -0.10502053401 -0.10483980767 
-0.10465260485 -0.10445860965 -0.10425736416 -0.10404833999 -0.10383152199 -0.10360730494 -0.10337677922 -0.10314174902 -0.10290427533 
-0.10312961286 -0.10301797285 -0.10290589572 -0.10279302512 -0.10267863469 -0.10256198611 -0.10244234669 -0.1023188135 -0.10219070742 
-0.10205755166 -0.10191888859 -0.10177447647 -0.10162420909 -0.10146783531 -0.10130522617 -0.10113589412 -0.100959478 -0.10077568617 
-0.10058430043 -0.10038493399 -0.10017732371 -0.09996139996 -0.099737561077 -0.099506909681 -0.099271734385 -0.099034463008 -0.096609247324 
-0.09650816182 -0.096407192921 -0.09630532376 -0.09620120772 -0.096093910069 -0.095982620481 -0.095866951713 -0.095746386426 -0.095620671246 
-0.095489526507 -0.095352963587 -0.095210876453 -0.095062929534 -0.094908451963 -0.09474651937 -0.0945763638 -0.094397749432 -0.09421066319 
-0.094015034563 -0.09381031594 -0.093596076907 -0.09337244306 -0.093140816584 -0.092903805188 -0.09266518457 -0.087408205128 -0.08731945477 
-0.087232421756 -0.087144587749 -0.087053564559 -0.086957889817 -0.086857115317 -0.08675137908 -0.086640400208 -0.086523841844 -0.086401730217 
-0.086274532796 -0.086142581269 -0.086005366945 -0.085861462338 -0.085708989017 -0.085546722183 -0.085374633739 -0.085193115579 -0.085002744237 
-0.08480252043 -0.084590854027 -0.084366770777 -0.084131699316 -0.08388966326 -0.083646456251 -0.075557410217 -0.075482085843 -0.075412188247 
-0.07534132871 -0.075264790503 -0.075180976408 -0.075090772327 -0.074995019856 -0.074893516881 -0.074785638853 -0.07467145651 -0.074552509578 
-0.074430443864 -0.074304891916 -0.074172938777 -0.074030417012 -0.073874906421 -0.073706979873 -0.073529255338 -0.07334361119 -0.073148071671 
-0.072938102746 -0.072709998265 -0.072464562962 -0.072208294438 -0.071951351125 -0.061227821046 -0.061173667813 -0.06113189588 -0.061088003886 
-0.06103196916 -0.060963473031 -0.060887164032 -0.060806315075 -0.060719887743 -0.060625094097 -0.060521564212 -0.06041357786 -0.060306368754 
-0.060200664148 -0.060090213952 -0.059965344146 -0.059820145528 -0.059657499863 -0.059486055331 -0.05931118776 -0.059129504872 -0.058929526013 
-0.058700108641 -0.058440081614 -0.058161180976 -0.057882403255 -0.046112210599 -0.046090951229 -0.046095680148 -0.046091046761 -0.046058091929 
-0.0460021886 -0.045938986621 -0.045876961097 -0.045811934018 -0.045733441038 -0.0456384129 -0.045537970024 -0.04544737632 -0.04537113447 
-0.045295983896 -0.045198035439 -0.045062055773 -0.044896994356 -0.044727101841 -0.044568514427 -0.044414878114 -0.04423849524 -0.044009771187 
-0.043722366571 -0.04339994357 -0.043079693394 -0.03962202891 -0.039440034898 -0.039288910284 -0.039176167942 -0.039100432193 -0.039055063168 
-0.039030875655 -0.039015401035 -0.038990034274 -0.038932471254 -0.038826526227 -0.038672950852 -0.038488600884 -0.038296762856 -0.038117497473 
-0.037963315213 -0.03783810069 -0.037737742948 -0.037651770454 -0.037564103971 -0.037455117875 -0.03730636851 -0.037108801434 -0.036869362322 
-0.036608826172 -0.036352183905 -0.051997746342 -0.051837066533 -0.051694961613 -0.051577487109 -0.05148472478 -0.051412829807 -0.051354729053 
-0.051300474753 -0.051237285527 -0.051151992987 -0.051035951761 -0.050889558889 -0.050721850266 -0.050546329743 -0.050375508784 -0.0502177636 
-0.050075901085 -0.049947661717 -0.049826025043 -0.049700499987 -0.049558887934 -0.049390610544 -0.04919097008 -0.04896446676 -0.048723021961 
-0.048481690236 -0.063485890908 -0.063339286058 -0.063203412979 -0.063082454378 -0.062976975518 -0.062884585561 -0.062800184471 -0.06271680854 
-0.062626229679 -0.062520650041 -0.062395313882 -0.062250247188 -0.062090303856 -0.061922928677 -0.061755589247 -0.061593367466 -0.06143843454 
-0.061289339667 -0.061141735741 -0.060988958805 -0.060823818228 -0.060640612554 -0.060437263392 -0.060216184619 -0.05998463813 -0.059751522083 
-0.07301276547 -0.072874620235 -0.072742402449 -0.072618608006 -0.072503912839 -0.072396696556 -0.072293508596 -0.072189659761 -0.072080022642 
-0.07195991492 -0.071826507851 -0.071679681661 -0.071521918755 -0.07135721976 -0.071189898312 -0.071023015554 -0.070857832945 -0.070693516511 
-0.070527368422 -0.070355511604 -0.070173909796 -0.069979312501 -0.069770866308 -0.069550424154 -0.069322196835 -0.069091492768 -0.079983834646 
-0.079850802809 -0.079720591206 -0.079594846374 -0.079473903771 -0.079356635059 -0.079240710426 -0.079123126409 -0.079000690377 -0.078870463185 
-0.07873059865 -0.078580954054 -0.078422656 -0.078257948018 -0.07808909038 -0.077917816959 -0.077744787663 -0.077569547058 -0.07739047844 
-0.077205359367 -0.077011867141 -0.07680843069 -0.076594832041 -0.076372393186 -0.076143689464 -0.075912235823 -0.084222977896 -0.084093700365 
-0.083965413277 -0.083839034525 -0.083714581578 -0.083591318856 -0.083467831997 -0.083341967493 -0.083211596168 -0.083074824203 -0.082930693806 
-0.082778754336 -0.082619623301 -0.082454235469 -0.082283806912 -0.082109245238 -0.081930761495 -0.081748291233 -0.081560635115 -0.081366636838 
-0.08116501174 -0.080955096702 -0.080736838839 -0.080511477439 -0.080280816493 -0.080047245462 -0.085793316668 -0.085668148742 -0.085542841953 
-0.085417846573 -0.085293034801 -0.085167831702 -0.085041090129 -0.08491156854 -0.084777634157 -0.084638264421 -0.0844925663 -0.08434016574 
-0.084181288698 -0.084016348264 -0.083845846158 -0.083670136849 -0.0834891596 -0.083302740391 -0.083110429292 -0.082911339105 -0.082704879368 
-0.082490730512 -0.082269229762 -0.082041439754 -0.081808840495 -0.081573301028 -0.084869293592 -0.084749651191 -0.084629318773 -0.084508376605 
-0.084386465677 -0.084263024137 -0.084137292949 -0.084008194586 -0.083874758282 -0.083736206843 -0.083591940139 -0.083441678628 -0.083285326078 
-0.083122945393 -0.082954543063 -0.082780103489 -0.08259965184 -0.08241272035 -0.082219038583 -0.082018223783 -0.081809830985 -0.081593869028 
-0.081370761621 -0.081141487138 -0.080907647962 -0.080671090742 -0.08162148753 -0.081508934016 -0.081395635326 -0.081281202704 -0.081165141321 
-0.08104669403 -0.080925254049 -0.080799997897 -0.080670261837 -0.080535532868 -0.080395373302 -0.080249572647 -0.08009793328 -0.079940213847 
-0.079776288892 -0.079605699087 -0.079428183078 -0.07924339512 -0.079051201577 -0.078851090401 -0.078643034018 -0.078426982696 -0.078203355584 
-0.077973154264 -0.077738424298 -0.077501232815 -0.076150136727 -0.076046201699 -0.075941844426 -0.075836313168 -0.075728529802 -0.07561769748 
-0.075503035874 -0.075384137611 -0.075260487875 -0.075131837857 -0.074997857738 -0.07485848685 -0.074713522731 -0.074562669721 -0.074405344197 
-0.074240708958 -0.074068185445 -0.073887499074 -0.073698558214 -0.073501284337 -0.073295261196 -0.073080204476 -0.072856458972 -0.072625200114 
-0.072388806948 -0.072150390411 -0.068530343708 -0.068436572037 -0.068343463389 -0.068249282106 -0.06815223811 -0.068051102974 -0.067945332195 
-0.067834793809 -0.067719293592 -0.06759848717 -0.067472328426 -0.067341052893 -0.067204775675 -0.06706295714 -0.06691451941 -0.066757870904 
-0.066592142611 -0.066417182847 -0.066233067176 -0.06604021063 -0.065837849419 -0.065624937283 -0.065401010887 -0.06516742941 -0.06492755527 
-0.064686024103 -0.059079047708 -0.058995491794 -0.058915155924 -0.058833722435 -0.058747971565 -0.058656428362 -0.058559310772 -0.058457007938 
-0.058349261125 -0.058235742847 -0.058116471202 -0.057992396603 -0.057864396303 -0.057731978404 -0.057592966917 -0.057444391261 -0.057284483392 
-0.057113441679 -0.056932776167 -0.056743665733 -0.056544645939 -0.05633277862 -0.056105833902 -0.05586479762 -0.055614850143 -0.055363629519 
-0.048042309131 -0.047973626153 -0.047912343414 -0.047849922309 -0.04777979154 -0.047700948709 -0.04761560593 -0.047525448926 -0.047429884528 
-0.047327489575 -0.047218188937 -0.047104545308 -0.046989416409 -0.04687276011 -0.046750322947 -0.046615852629 -0.046465579534 -0.046301028246 
-0.046127250596 -0.045947147274 -0.045758445084 -0.045554067117 -0.045327412082 -0.045078286819 -0.044814990591 -0.044550918999 -0.036442517139 
-0.036392714337 -0.036357605453 -0.036318769919 -0.036265103274 -0.036197625518 -0.036123644735 -0.036047525753 -0.035967227554 -0.035877709318 
-0.035777937719 -0.035673895262 -0.03557336883 -0.035477996379 -0.03537946152 -0.035264166117 -0.035123853321 -0.03496312977 -0.034794863214 
-0.034627550589 -0.034457116281 -0.034267689055 -0.03404339348 -0.033781170626 -0.033495162331 -0.033208932133 -0.028614190723 -0.028456508761 
-0.028317118186 -0.028201380939 -0.028109153878 -0.028036339559 -0.027976219897 -0.027919723806 -0.027854862923 -0.027768988988 -0.027653381389 
-0.027508149133 -0.0273422908 -0.02716907925 -0.0270007419 -0.02684567833 -0.026706746143 -0.026581276154 -0.026462210774 -0.026338948492 
-0.026199509131 -0.026033728067 -0.025837427535 -0.025615212604 -0.025378967341 -0.025143234351 -0.038274153666 -0.038126268132 -0.037990189683 
-0.037870282387 -0.037766879102 -0.037677241715 -0.037596200905 -0.037516541312 -0.037429539973 -0.037326798618 -0.037202948611 -0.037058114128 
-0.03689756611 -0.036729811175 -0.036563009575 -0.036402986338 -0.03625168799 -0.036107573609 -0.035965739067 -0.035819058649 -0.035659371839 
-0.035480407885 -0.035279581171 -0.035060094709 -0.034829626165 -0.034597819635 -0.04722278538 -0.047082300669 -0.046948952238 -0.046825793238 
-0.046713298709 -0.046609645659 -0.046511023315 -0.046412189337 -0.046307188474 -0.046190627106 -0.046059175191 -0.045912767987 -0.045754482391 
-0.045589297225 -0.045422405902 -0.045257375465 -0.045095766973 -0.04493661246 -0.044776688644 -0.044611226314 -0.044435275238 -0.044245049429 
-0.044039514935 -0.043820328784 -0.04359264297 -0.043362715747 -0.054779941641 -0.054644541424 -0.054513047797 -0.054387428634 -0.054268087025 
-0.054153805018 -0.054041786915 -0.053928464698 -0.05381000629 -0.053682817383 -0.053544811793 -0.053395792607 -0.053237425476 -0.053072544021 
-0.052904150185 -0.052734576689 -0.052564755592 -0.05239396328 -0.052220222989 -0.052040700089 -0.051852447402 -0.05165316465 -0.051442436118 
-0.051221683307 -0.050994138007 -0.050763623546 -0.060477954606 -0.060346137753 -0.06021601701 -0.060088873246 -0.059964912846 -0.059843238198 
-0.059721974296 -0.059598568634 -0.059470689048 -0.059335833105 -0.059192724334 -0.05904100378 -0.058881489777 -0.058715789157 -0.0585455936 
-0.05837211436 -0.058195935862 -0.058016608271 -0.057832944847 -0.057643213646 -0.057445692159 -0.057239218446 -0.057023761185 -0.056800449807 
-0.056571246157 -0.056338904046 -0.0640862947 -0.063957573805 -0.063829179998 -0.06370181626 -0.063575428864 -0.063449408114 -0.063322547043 
-0.063193145035 -0.063059346707 -0.06291966354 -0.062773195011 -0.062619580459 -0.062459209516 -0.062292735553 -0.062121111238 -0.061944907191 
-0.061764336844 -0.061579330108 -0.061388918106 -0.061192189894 -0.060988207038 -0.060776471678 -0.060556940686 -0.060330779921 -0.060099432595 
-0.059864824887 -0.06555386191 -0.065428664345 -0.065302870853 -0.065176839013 -0.065050416009 -0.06492310058 -0.064793926627 -0.064661816184 
-0.064525418393 -0.064383792002 -0.064236118684 -0.064082152093 -0.063921845628 -0.063755640272 -0.063583812712 -0.063406629354 -0.06322397475 
-0.063035726264 -0.062841513242 -0.062640606277 -0.062432566307 -0.062217169643 -0.061994754912 -0.061766247926 -0.061532911024 -0.061296260304 
-0.064935618073 -0.064814931495 -0.064693160831 -0.064570396518 -0.064446309235 -0.064320409331 -0.064192036726 -0.064060281372 -0.063924180335 
-0.063783122642 -0.063636523581 -0.063484100348 -0.063325712208 -0.063161358824 -0.062991002999 -0.062814577692 -0.062632101968 -0.062443172354 
-0.062247555795 -0.062044916323 -0.061834979209 -0.061617732661 -0.061393586217 -0.061163413366 -0.06092861457 -0.060690723532 -0.062331342923 
-0.062216323864 -0.062100152998 -0.061982499001 -0.061863020865 -0.061741052731 -0.061616027751 -0.061487247644 -0.061354024667 -0.061215922299 
-0.061072529606 -0.060923563091 -0.060768777731 -0.06060799617 -0.060441027706 -0.060267510351 -0.060087186812 -0.059899683458 -0.059705011821 
-0.059502636357 -0.059292555083 -0.059074881682 -0.058849948342 -0.058618727391 -0.058382866753 -0.058144213507 -0.057856455207 -0.057748359461 
-0.057639281387 -0.057528680716 -0.057415766144 -0.057299871925 -0.057180312971 -0.057056629592 -0.05692837694 -0.056795214359 -0.056656856415 
-0.056513110893 -0.056363742027 -0.056208455976 -0.056046764605 -0.05587796744 -0.055701617413 -0.055517453654 -0.055325286933 -0.055125015071 
-0.054916439117 -0.054699420214 -0.054474377484 -0.054242318849 -0.0540052764 -0.053765727609 -0.051663650462 -0.051563679043 -0.051463328869 
-0.051361573141 -0.051257144201 -0.051149076627 -0.051036779549 -0.050919952649 -0.050798373522 -0.050671784435 -0.050539981616 -0.050403045239 
-0.050260872812 -0.050112992869 -0.049958471443 -0.049796247871 -0.049625609221 -0.04944630171 -0.049258237255 -0.049061664262 -0.048856036421 
-0.048640817715 -0.048415933482 -0.048182676069 -0.047943666675 -0.047702485997 -0.044131599413 -0.044039027469 -0.043947732393 -0.043855036895 
-0.04375891036 -0.043658175157 -0.043552602168 -0.043442180117 -0.043326669613 -0.043205882521 -0.043079745472 -0.042948706637 -0.042813085841 
-0.04267231589 -0.04252486426 -0.042368817886 -0.042202824221 -0.042026927021 -0.041841709261 -0.041647922331 -0.041444458444 -0.041229762808 
-0.041002727767 -0.040764502436 -0.040519012452 -0.04027160816 -0.035427156196 -0.035344881975 -0.035266155351 -0.035186477352 -0.03510185594 
-0.035011206625 -0.034915163163 -0.034814390268 -0.034708499661 -0.034596888805 -0.03447955731 -0.034357775064 -0.034232756798 -0.034104109437 
-0.033969044556 -0.033823916746 -0.033666495468 -0.033497290302 -0.033318803862 -0.033132367288 -0.03293649982 -0.032727455649 -0.032501937205 
-0.032260428554 -0.032008583389 -0.03175524435 -0.02625734216 -0.026186242515 -0.02612224619 -0.026056734012 -0.025983723753 -0.025902501487 
-0.025815833029 -0.025725447885 -0.025630549462 -0.025529046943 -0.025420742684 -0.025308437396 -0.025195374876 -0.025081730081 -0.024962698799 
-0.024831229647 -0.024683127977 -0.024520311522 -0.024348761009 -0.024172197254 -0.023988246375 -0.023788868388 -0.023566616458 -0.023320622657 
-0.023059240543 -0.022796454766 -0.017546384245 -0.017402223634 -0.017268296978 -0.017148247587 -0.017042294564 -0.016947925732 -0.016860588429 
-0.016774064002 -0.0166808601 -0.01657380738 -0.016448155777 -0.016303792771 -0.016145451983 -0.015980394142 -0.015815651606 -0.015656435949 
-0.015504613451 -0.01535851752 -0.015213699861 -0.015063663367 -0.014901451891 -0.014721660341 -0.014522443909 -0.014306661701 -0.014081197437 
-0.013854340305 -0.025268886808 -0.025128457175 -0.024994939387 -0.024871280151 -0.024757791867 -0.024652637873 -0.024552227 -0.024451566986 
-0.02434490237 -0.024227054304 -0.024094671982 -0.023947746918 -0.02378921028 -0.023624086078 -0.023457362459 -0.023292826379 -0.023131709109 
-0.022972978306 -0.022813459636 -0.022648569045 -0.02247317568 -0.022283874392 -0.02207922677 -0.021861442414 -0.021635274134 -0.02140674951 
-0.032389207417 -0.032252150517 -0.032119184309 -0.031992626428 -0.031872671828 -0.031758117742 -0.031646098485 -0.031532932392 -0.031414460761 
-0.031287080806 -0.031148554783 -0.030998645163 -0.030839246828 -0.030673462832 -0.030504578424 -0.030335057632 -0.030165843151 -0.029996319905 
-0.029824227308 -0.029646484542 -0.029459742329 -0.029261750148 -0.029052053651 -0.028831799918 -0.028604386906 -0.028374130252 -0.038447364414 