# vtk DataFile Version 5.1
vtk output
ASCII
DATASET POLYDATA
POINTS 1874 double
6.4583334923 6.767551899 9.6373534678e-16 5.7638888359 6.767551899 8.432684152e-16 6.4583334923 5.6806826591 9.6373534678e-16 
6.4583334923 5.6806826591 9.6373534678e-16 5.7638888359 6.767551899 8.432684152e-16 6.1111111641 5.6051774025 9.0350188099e-16 
6.4583334923 5.6806826591 9.6373534678e-16 6.1111111641 5.6051774025 9.0350188099e-16 6.4583334923 4.5938138962 9.6373534678e-16 
6.4583334923 4.5938138962 9.6373534678e-16 6.1111111641 5.6051774025 9.0350188099e-16 5.7638888359 4.5938138962 8.432684152e-16 
6.4583334923 4.5938138962 9.6373534678e-16 5.7638888359 4.5938138962 8.432684152e-16 6.1111111641 4.4428038597 9.0350188099e-16 
6.1111111641 4.4428038597 9.0350188099e-16 5.7638888359 4.5938138962 8.432684152e-16 5.7638888359 3.5069446564 8.432684152e-16 
6.1111111641 4.4428038597 9.0350188099e-16 5.7638888359 3.5069446564 8.432684152e-16 6.4583334923 3.5069446564 9.6373534678e-16 
6.4583334923 3.5069446564 9.6373534678e-16 5.7638888359 3.5069446564 8.432684152e-16 6.1111111641 3.2804298401 9.0350188099e-16 
6.4583334923 3.5069446564 9.6373534678e-16 6.1111111641 3.2804298401 9.0350188099e-16 7.5000004768 2.118055582 1.1444357442e-15 
7.5000004768 2.118055582 1.1444357442e-15 6.1111111641 3.2804298401 9.0350188099e-16 6.1111111641 2.118055582 9.0350188099e-16 
6.1111111641 2.118055582 9.0350188099e-16 6.1111111641 3.2804298401 9.0350188099e-16 4.7222223282 2.118055582 6.6256810054e-16 
4.7222223282 2.118055582 6.6256810054e-16 6.1111111641 3.2804298401 9.0350188099e-16 5.7638888359 3.5069446564 8.432684152e-16 
4.7222223282 2.118055582 6.6256810054e-16 5.7638888359 3.5069446564 8.432684152e-16 4.7222223282 3.5069446564 6.6256810054e-16 
5.7638888359 6.767551899 8.432684152e-16 5.7638888359 5.6806826591 8.432684152e-16 6.1111111641 5.6051774025 9.0350188099e-16 
6.1111111641 5.6051774025 9.0350188099e-16 5.7638888359 5.6806826591 8.432684152e-16 5.7638888359 4.5938138962 8.432684152e-16 
7.5000004768 2.118055582 1.1444357442e-15 7.5000004768 3.5069446564 1.1444357442e-15 6.4583334923 3.5069446564 9.6373534678e-16 
6.4583334923 3.5069446564 9.6373534678e-16 6.4583334923 4.5938138962 9.6373534678e-16 6.1111111641 4.4428038597 9.0350188099e-16 
-11.319444656 6.767551899 -2.1202172249e-15 -12.498671532 6.767551899 -2.3247804569e-15 -11.319444656 5.7732748985 -2.1202172249e-15 
-11.319444656 5.7732748985 -2.1202172249e-15 -12.498671532 6.767551899 -2.3247804569e-15 -12.498671532 5.6051774025 -2.3247804569e-15 
-11.319444656 5.7732748985 -2.1202172249e-15 -12.498671532 5.6051774025 -2.3247804569e-15 -11.319444656 4.7789988518 -2.1202172249e-15 
-11.319444656 4.7789988518 -2.1202172249e-15 -12.498671532 5.6051774025 -2.3247804569e-15 -12.498671532 4.4428038597 -2.3247804569e-15 
-11.319444656 4.7789988518 -2.1202172249e-15 -12.498671532 4.4428038597 -2.3247804569e-15 -11.666666985 3.7847225666 -2.1804506907e-15 
-11.666666985 3.7847225666 -2.1804506907e-15 -12.498671532 4.4428038597 -2.3247804569e-15 -12.498671532 3.2804298401 -2.3247804569e-15 
-11.666666985 3.7847225666 -2.1804506907e-15 -12.498671532 3.2804298401 -2.3247804569e-15 -11.666666985 2.9513890743 -2.1804506907e-15 
-11.666666985 2.9513890743 -2.1804506907e-15 -12.498671532 3.2804298401 -2.3247804569e-15 -12.498671532 2.118055582 -2.3247804569e-15 
-11.666666985 2.9513890743 -2.1804506907e-15 -12.498671532 2.118055582 -2.3247804569e-15 -11.666666985 2.118055582 -2.1804506907e-15 
-11.666666985 3.7847225666 -2.1804506907e-15 -11.319444656 3.7847225666 -2.1202172249e-15 -11.319444656 4.7789988518 -2.1202172249e-15 
9.5138893127 6.767551899 1.4937897299e-15 8.8194446564 6.767551899 1.3733227984e-15 9.5138893127 5.6806826591 1.4937897299e-15 
9.5138893127 5.6806826591 1.4937897299e-15 8.8194446564 6.767551899 1.3733227984e-15 9.1666669846 5.6051774025 1.4335562641e-15 
9.5138893127 5.6806826591 1.4937897299e-15 9.1666669846 5.6051774025 1.4335562641e-15 9.5138893127 4.5938138962 1.4937897299e-15 
9.5138893127 4.5938138962 1.4937897299e-15 9.1666669846 5.6051774025 1.4335562641e-15 8.8194446564 4.5938138962 1.3733227984e-15 
9.5138893127 4.5938138962 1.4937897299e-15 8.8194446564 4.5938138962 1.3733227984e-15 9.1666669846 4.4428038597 1.4335562641e-15 
9.1666669846 4.4428038597 1.4335562641e-15 8.8194446564 4.5938138962 1.3733227984e-15 8.8194446564 3.5069446564 1.3733227984e-15 
9.1666669846 4.4428038597 1.4335562641e-15 8.8194446564 3.5069446564 1.3733227984e-15 9.5138893127 3.5069446564 1.4937897299e-15 
9.5138893127 3.5069446564 1.4937897299e-15 8.8194446564 3.5069446564 1.3733227984e-15 9.1666669846 3.2804298401 1.4335562641e-15 
9.5138893127 3.5069446564 1.4937897299e-15 9.1666669846 3.2804298401 1.4335562641e-15 10.555556297 2.118055582 1.6744901273e-15 
10.555556297 2.118055582 1.6744901273e-15 9.1666669846 3.2804298401 1.4335562641e-15 9.1666669846 2.118055582 1.4335562641e-15 
9.1666669846 2.118055582 1.4335562641e-15 9.1666669846 3.2804298401 1.4335562641e-15 7.7777781487 2.118055582 1.1926224837e-15 
7.7777781487 2.118055582 1.1926224837e-15 9.1666669846 3.2804298401 1.4335562641e-15 8.8194446564 3.5069446564 1.3733227984e-15 
7.7777781487 2.118055582 1.1926224837e-15 8.8194446564 3.5069446564 1.3733227984e-15 7.7777781487 3.5069446564 1.1926224837e-15 
8.8194446564 6.767551899 1.3733227984e-15 8.8194446564 5.6806826591 1.3733227984e-15 9.1666669846 5.6051774025 1.4335562641e-15 
9.1666669846 5.6051774025 1.4335562641e-15 8.8194446564 5.6806826591 1.3733227984e-15 8.8194446564 4.5938138962 1.3733227984e-15 
10.555556297 2.118055582 1.6744901273e-15 10.555556297 3.5069446564 1.6744901273e-15 9.5138893127 3.5069446564 1.4937897299e-15 
9.5138893127 3.5069446564 1.4937897299e-15 9.5138893127 4.5938138962 1.4937897299e-15 9.1666669846 4.4428038597 1.4335562641e-15 
-9.6527776718 6.767551899 -1.8310966222e-15 -10.06944561 6.767551899 -1.9033769797e-15 -9.6527776718 5.7732748985 -1.8310966222e-15 
-9.6527776718 5.7732748985 -1.8310966222e-15 -10.06944561 6.767551899 -1.9033769797e-15 -10.06944561 5.7732748985 -1.9033769797e-15 
-9.6527776718 5.7732748985 -1.8310966222e-15 -10.06944561 5.7732748985 -1.9033769797e-15 -9.6527776718 4.7789988518 -1.8310966222e-15 
-9.6527776718 4.7789988518 -1.8310966222e-15 -10.06944561 5.7732748985 -1.9033769797e-15 -10.06944561 4.7789988518 -1.9033769797e-15 
-9.6527776718 4.7789988518 -1.8310966222e-15 -10.06944561 4.7789988518 -1.9033769797e-15 -9.6527776718 3.7847225666 -1.8310966222e-15 
-9.6527776718 3.7847225666 -1.8310966222e-15 -10.06944561 4.7789988518 -1.9033769797e-15 -10.06944561 3.7847225666 -1.9033769797e-15 
-7.9861111641 6.767551899 -1.5419761022e-15 -8.4027786255 6.767551899 -1.614256377e-15 -7.9861111641 5.7732748985 -1.5419761022e-15 
-7.9861111641 5.7732748985 -1.5419761022e-15 -8.4027786255 6.767551899 -1.614256377e-15 -8.4027786255 5.7732748985 -1.614256377e-15 
-7.9861111641 5.7732748985 -1.5419761022e-15 -8.4027786255 5.7732748985 -1.614256377e-15 -7.9861111641 4.7789988518 -1.5419761022e-15 
-7.9861111641 4.7789988518 -1.5419761022e-15 -8.4027786255 5.7732748985 -1.614256377e-15 -8.4027786255 4.7789988518 -1.614256377e-15 
-7.9861111641 4.7789988518 -1.5419761022e-15 -8.4027786255 4.7789988518 -1.614256377e-15 -7.9861111641 3.7847225666 -1.5419761022e-15 
-7.9861111641 3.7847225666 -1.5419761022e-15 -8.4027786255 4.7789988518 -1.614256377e-15 -8.4027786255 3.7847225666 -1.614256377e-15 
-11.666666985 -1.9097223282 -2.1804506907e-15 -12.498671532 -1.9097223282 -2.3247804569e-15 -11.666666985 -2.7430558205 -2.1804506907e-15 
-11.666666985 -2.7430558205 -2.1804506907e-15 -12.498671532 -1.9097223282 -2.3247804569e-15 -12.498671532 -3.081250906 -2.3247804569e-15 
-11.666666985 -2.7430558205 -2.1804506907e-15 -12.498671532 -3.081250906 -2.3247804569e-15 -11.666666985 -3.5763888359 -2.1804506907e-15 
-11.666666985 -3.5763888359 -2.1804506907e-15 -12.498671532 -3.081250906 -2.3247804569e-15 -12.498671532 -4.2527794838 -2.3247804569e-15 
-11.666666985 -3.5763888359 -2.1804506907e-15 -12.498671532 -4.2527794838 -2.3247804569e-15 -11.319444656 -4.5828714371 -2.1202172249e-15 
-11.319444656 -4.5828714371 -2.1202172249e-15 -12.498671532 -4.2527794838 -2.3247804569e-15 -12.498671532 -5.4243083 -2.3247804569e-15 
-11.319444656 -4.5828714371 -2.1202172249e-15 -12.498671532 -5.4243083 -2.3247804569e-15 -11.319444656 -5.5893540382 -2.1202172249e-15 
-11.319444656 -5.5893540382 -2.1202172249e-15 -12.498671532 -5.4243083 -2.3247804569e-15 -12.498671532 -6.5958366394 -2.3247804569e-15 
-11.319444656 -5.5893540382 -2.1202172249e-15 -12.498671532 -6.5958366394 -2.3247804569e-15 -11.319444656 -6.5958366394 -2.1202172249e-15 
-11.319444656 -4.5828714371 -2.1202172249e-15 -11.319444656 -3.5763888359 -2.1202172249e-15 -11.666666985 -3.5763888359 -2.1804506907e-15 
-6.3194451332 6.767551899 -1.2528556649e-15 -6.7361116409 6.767551899 -1.3251357743e-15 -6.3194451332 5.7732748985 -1.2528556649e-15 
-6.3194451332 5.7732748985 -1.2528556649e-15 -6.7361116409 6.767551899 -1.3251357743e-15 -6.7361116409 5.7732748985 -1.3251357743e-15 
-6.3194451332 5.7732748985 -1.2528556649e-15 -6.7361116409 5.7732748985 -1.3251357743e-15 -6.3194451332 4.7789988518 -1.2528556649e-15 
-6.3194451332 4.7789988518 -1.2528556649e-15 -6.7361116409 5.7732748985 -1.3251357743e-15 -6.7361116409 4.7789988518 -1.3251357743e-15 
-6.3194451332 4.7789988518 -1.2528556649e-15 -6.7361116409 4.7789988518 -1.3251357743e-15 -6.3194451332 3.7847225666 -1.2528556649e-15 
-6.3194451332 3.7847225666 -1.2528556649e-15 -6.7361116409 4.7789988518 -1.3251357743e-15 -6.7361116409 3.7847225666 -1.3251357743e-15 
-10.06944561 -6.5958366394 -1.9033769797e-15 -9.6527776718 -6.5958366394 -1.8310966222e-15 -10.06944561 -5.5893540382 -1.9033769797e-15 
-10.06944561 -5.5893540382 -1.9033769797e-15 -9.6527776718 -6.5958366394 -1.8310966222e-15 -9.6527776718 -5.5893540382 -1.8310966222e-15 
[...]
CELL_DATA 889
FIELD FieldData 4
electrode_index 1 889 int
0 0 0 0 0 0 0 0 0 
0 0 0 0 0 0 0 0 0 
0 0 0 0 0 0 0 0 0 
0 0 0 0 0 0 0 0 0 
0 0 0 0 0 0 0 0 0 
0 0 0 0 0 0 0 0 0 
0 0 0 0 0 0 0 0 0 
0 0 0 0 0 0 0 0 0 
0 0 0 0 0 0 0 0 0 
0 0 0 0 0 0 0 0 0 
0 0 0 0 0 0 0 0 0 
0 0 0 0 0 0 0 0 0 
0 0 0 0 0 0 0 0 0 
0 0 0 0 0 0 0 0 0 
0 0 0 0 0 0 0 0 0 
0 0 0 0 0 0 0 0 0 
0 0 0 0 0 0 0 0 0 
0 0 0 0 0 0 0 0 0 
0 0 0 0 0 0 0 0 0 
0 0 0 0 0 0 0 0 0 
0 0 0 0 0 0 0 0 0 
0 0 0 0 0 0 0 0 0 
0 0 0 0 0 0 0 0 0 
0 0 0 0 0 0 0 0 0 
0 0 0 0 0 0 0 0 0 
0 0 0 0 0 0 0 0 0 
0 0 0 0 0 0 0 0 0 
0 0 0 0 0 0 0 0 0 
0 0 1 1 1 1 1 1 1 
1 1 1 1 1 1 1 1 1 
1 1 1 1 1 1 1 1 1 
1 1 1 1 1 1 1 1 1 
1 1 1 1 1 1 1 1 1 
1 1 1 1 1 1 1 1 1 
1 1 1 1 1 1 1 1 1 
1 1 1 1 1 1 2 2 2 
2 2 2 2 2 2 2 2 2 
2 2 2 2 2 3 3 3 3 
3 3 3 3 3 3 4 4 4 
4 4 4 4 4 4 4 5 5 
5 5 5 5 5 5 5 5 6 
6 6 6 6 6 6 6 6 6 
7 7 7 7 7 7 7 7 7 
7 8 8 8 8 8 8 8 8 
8 8 8 8 8 8 8 8 8 
8 8 8 8 8 8 8 8 8 
8 8 8 8 8 8 8 8 8 
8 8 8 8 8 8 8 8 8 
8 8 8 8 8 8 8 8 8 
8 8 8 8 8 8 8 8 8 
8 8 8 8 8 8 8 8 8 
8 8 8 8 8 8 8 8 8 
8 8 8 8 8 8 8 8 8 
8 8 8 8 8 8 8 8 8 
8 8 8 8 8 8 8 8 8 
8 8 8 8 8 8 8 8 8 
8 8 8 8 8 8 8 8 8 
8 8 8 8 8 8 8 8 8 
8 8 8 8 8 8 8 8 8 
8 8 8 8 8 8 8 8 8 
8 8 8 8 8 8 8 8 8 
8 8 8 8 8 8 8 8 8 
8 8 8 8 8 8 8 8 8 
8 8 8 8 8 8 8 8 8 
8 8 8 8 8 8 8 8 8 
8 8 8 8 8 8 8 8 8 
8 8 8 8 8 8 8 8 8 
8 9 9 9 9 9 9 9 9 
9 9 9 9 9 9 9 9 9 
9 9 9 9 9 9 9 9 9 
9 9 9 9 9 9 9 9 9 
9 9 9 9 9 9 9 9 9 
9 9 9 9 9 9 9 9 9 
9 9 9 9 9 9 9 9 9 
9 9 9 9 9 9 9 9 9 
9 9 9 9 9 9 9 9 9 
9 9 9 9 9 9 9 9 9 
9 9 9 9 9 9 9 9 9 
9 9 9 9 9 9 9 9 9 
9 10 10 10 10 10 10 10 10 
10 10 10 10 10 10 10 10 10 
11 11 11 11 11 11 11 11 11 
11 11 11 11 11 11 11 11 11 
11 11 11 11 11 11 11 11 11 
11 11 11 11 11 11 11 11 11 
12 12 12 12 12 12 12 12 12 
12 12 12 12 12 12 12 12 12 
12 12 12 12 12 12 12 12 12 
12 12 12 12 13 13 13 13 13 
13 13 13 13 13 13 13 13 13 
13 13 13 13 13 13 13 13 13 
13 13 13 13 13 13 13 13 13 
13 13 13 13 14 14 14 14 14 
14 14 14 14 14 14 14 14 14 
14 14 14 15 15 15 15 15 15 
15 15 15 15 16 16 16 16 16 
16 16 16 16 16 17 17 17 17 
17 17 17 17 17 17 18 18 18 
18 18 18 18 18 18 18 
area 1 889 double
0.37738526788 0.21490974495 0.18869255116 0.35116799131 0.052434056442 0.18869263394 0.32495121144 0.078651001879 0.35910315181 
0.16970681989 0.075738777502 0.16082539406 0.13802080378 0.18869263394 0.18869255116 0.72337994697 0.18869263394 0.5862390802 
0.6853516227 0.5862385179 0.6853510604 0.52787145454 0.48355023489 0.34666862742 0.48355033407 0.34666862742 0.1726174633 
0.37738526788 0.21490974495 0.18869255116 0.35116799131 0.052434056442 0.18869263394 0.32495121144 0.078651001879 0.35910315181 
0.8072045922 0.80720431507 0.3591030978 0.72337961583 0.18869263394 0.18869255116 0.72337994697 0.18869263394 0.2071416739 
0.2071416739 0.20714147522 0.20714147522 0.20714152489 0.20714152489 0.20714143685 0.20714143685 0.20714123816 0.20714123816 
0.20714128783 0.20714128783 0.34666862742 0.48735855191 0.34666842906 0.48735855191 0.53612801814 0.69074913264 0.59343566641 
0.69074885149 0.59343566641 0.17473661603 0.20714096274 0.20714096274 0.20714076406 0.20714076406 0.20714081373 0.20714081373 
0.20968451515 0.20968451515 0.20968451515 0.20968451515 0.20968451515 0.20968451515 0.20714096274 0.20714096274 0.20714076406 
0.20714076406 0.20714081373 0.20714081373 0.20968427518 0.20968427518 0.20968427518 0.20968427518 0.20968427518 0.20968427518 
0.55237613769 0.55237613769 0.55237560787 0.55237560787 0.55237574032 0.55237574032 0.20968379525 0.20968379525 0.20968379525 
0.20968379525 0.20968379525 0.20968379525 0.44880559706 0.44880559706 0.44880516658 0.44880516658 0.4488052742 0.4488052742 
0.44880530383 0.44880530383 0.44880562669 0.44880562669 0.44880519621 0.44880519621 0.20968379525 0.20968379525 0.20968379525 
0.20968379525 0.20968379525 0.20968379525 0.55237613769 0.55237613769 0.55237560787 0.55237560787 0.55237574032 0.55237574032 
0.55915702731 0.55915702731 0.55915702731 0.55915702731 0.55915702731 0.55915702731 0.55237637474 0.55237637474 0.55237584492 
0.55237584492 0.55237597738 0.55237597738 0.45431509969 0.45431509969 0.45431509969 0.45431509969 0.45431509969 0.45431509969 
0.45431506969 0.45431506969 0.45431506969 0.45431506969 0.45431506969 0.45431506969 0.44880553779 0.44880553779 0.44880510731 
0.44880510731 0.44880521493 0.44880521493 0.44880521493 0.44880521493 0.44880553779 0.44880553779 0.44880510731 0.44880510731 
0.55915702731 0.55915702731 0.55915702731 0.55915702731 0.55915702731 0.11313774482 0.54293642581 0.54293642581 0.54293598035 
0.54293598035 0.30738484564 0.34275046429 0.46441853558 0.54293542609 0.46441842422 0.54293587154 0.46441886967 0.48046908618 
0.34445967886 0.48046918473 0.34445967886 0.55915726727 0.55915726727 0.55915726727 0.55915726727 0.11313773628 0.11313773628 
0.4543150097 0.4543150097 0.4543150097 0.4543150097 0.4543150097 0.4543150097 0.4543150097 0.4543150097 0.4543150097 
0.4543150097 0.4543150097 0.4543150097 0.47012000859 0.54721155868 0.47012000859 0.54721178141 0.47012000859 0.35228658076 
0.31593700819 0.48425313687 0.54721211731 0.54721211731 0.54721234004 0.54721234004 0.34445948176 0.48425313687 0.34445967886 
0.38162335953 0.38162335953 0.38162319397 0.38162319397 0.38162335953 0.38162335953 0.48225304963 0.2411266076 0.24112644203 
0.96450609925 0.19827770374 0.160450337 0.024668173611 0.1250870395 0.11705925793 0.1250870395 0.085145924757 0.14719427079 
0.13014319511 0.095858853218 0.1052861508 0.13411765946 0.11886540819 0.14999997253 0.036169057781 0.11043595642 0.11041668599 
0.11043595642 0.067901182918 0.18648618802 0.10982612522 0.14970696925 0.18648622409 0.10982627804 0.14970702886 0.18648622409 
0.10982627804 0.14970702886 0.37738513831 0.37738513831 0.37738497275 0.37738497275 0.085680871925 0.085680871925 0.13306208463 
0.15691286545 0.15691286545 0.09795768175 0.37738513831 0.21490967116 0.18869248637 0.35116787074 0.05243403844 0.18869256916 
0.32495109987 0.078650974876 0.16082537909 0.16970680621 0.075738765783 0.35910304202 0.7233797814 0.18869256916 0.18869248637 
0.1069824207 0.18869256916 0.084213783543 0.084213783543 0.19827766294 0.14629802446 0.14629802446 0.12659143451 0.082328305391 
0.063077936544 0.082328305391 0.063077936544 0.029513886869 0.12167245153 0.071413274881 0.1604503613 0.024668029495 0.12508700779 
0.11705920792 0.12508700779 0.085145963849 0.14719429053 0.13014320321 0.095858856607 0.10528616867 0.13411768117 0.11886541838 
0.093119246531 0.11041669203 0.12207031123 0.13802086219 0.050289361267 0.10248088745 0.14316892585 0.047095046691 0.096073879158 
0.09795768175 0.09795768175 0.047095046691 0.096073879158 0.14505272844 0.096073879158 0.37738507353 0.21490966666 0.18869248637 
0.35116781046 0.052434029439 0.18869250437 0.32495104409 0.078650961375 0.35910304202 0.80720438435 0.80720431507 0.35910295924 
0.7233797814 0.18869250437 0.18869242159 0.7233797814 0.18869256916 0.37738513831 0.37738513831 0.37738497275 0.37738497275 
0.37738513831 0.37738513831 0.48225313241 0.24112648342 0.24112664899 0.96450626482 0.37738526788 0.37738526788 0.37738510231 
0.37738510231 0.37738526788 0.37738526788 0.48225329798 0.24112631785 0.24112664899 0.96450626482 0.37738526788 0.37738526788 
0.37738510231 0.37738510231 0.37738526788 0.37738526788 0.48225329798 0.24112664899 0.24112598672 0.96450593369 0.37738526788 
0.37738526788 0.37738510231 0.37738510231 0.37738526788 0.37738526788 0.48225329798 0.24112664899 0.24112598672 0.96450593369 
0.37738526788 0.37738526788 0.37738510231 0.37738510231 0.37738526788 0.37738526788 0.48225329798 0.24112598672 0.24112664899 
0.96450593369 0.74563926676 0.74563926676 0.74563926676 0.74563926676 0.74563873694 0.74563873694 0.74563900185 0.74563900185 
0.74563926676 0.74563926676 0.74563900185 0.74563900185 0.74563913431 0.74563913431 0.74563926676 0.74563926676 0.74563901841 
0.74563901841 0.15364928879 0.15364928879 0.15364927942 0.15364927942 0.15364930085 0.15364930085 0.15364927942 0.15364927942 
0.15364927942 0.15364927942 0.15364930085 0.15364930085 0.74563900185 0.74563900185 0.74563873694 0.74563873694 0.74563979658 
0.74563979658 0.60583195674 0.60583195674 0.60583195674 0.60583195674 0.60583152627 0.60583152627 0.6058317415 0.6058317415 
0.60583195674 0.60583195674 0.6058317415 0.6058317415 0.60583184912 0.60583184912 0.60583195674 0.60583195674 0.60583175496 
0.60583175496 0.1038416907 0.1038416907 0.10384167773 0.10384167773 0.10384170737 0.10384170737 0.10384167773 0.10384167773 
0.10384167773 0.10384167773 0.10384170737 0.10384170737 0.6058317415 0.6058317415 0.60583152627 0.60583152627 0.60583238722 
0.60583238722 0.13953104891 0.030915383463 0.090661527379 0.096452256716 0.090661527379 0.053768401129 0.030915383463 0.13953104891 
0.090661527379 0.096452256716 0.090661527379 0.053768401129 0.13953106384 0.03091532321 0.090661508447 0.096452223907 0.090661508447 
0.053768435924 0.13953106384 0.03091532321 0.090661508447 0.096452223907 0.090661508447 0.053768435924 0.13953102971 0.030915460932 
0.090661551721 0.096452298898 0.090661551721 0.053768356393 0.13953102971 0.030915460932 0.090661551721 0.096452298898 0.090661551721 
0.053768356393 0.13953106384 0.03091532321 0.090661508447 0.096452223907 0.090661508447 0.053768435924 0.13953106384 0.03091532321 
0.090661508447 0.096452223907 0.090661508447 0.053768435924 0.13953106384 0.03091532321 0.090661508447 0.096452223907 0.090661508447 
0.053768435924 0.13953106384 0.03091532321 0.090661508447 0.096452223907 0.090661508447 0.053768435924 0.13953102971 0.030915460932 
0.090661551721 0.096452298898 0.090661551721 0.053768356393 0.13953102971 0.030915460932 0.090661551721 0.096452298898 0.090661551721 
0.053768356393 0.15942308783 0.012205557338 0.11479412186 0.10754635281 0.11479412186 0.083226587247 0.012205557338 0.15942308783 
0.11479412186 0.10754635281 0.11479412186 0.083226587247 0.15942310254 0.012205476595 0.11479410619 0.10754632373 0.11479410619 
0.083226607183 0.012205476595 0.15942310254 0.11479410619 0.10754632373 0.11479410619 0.083226607183 0.15942306893 0.01220566115 
0.11479414201 0.1075463902 0.11479414201 0.083226561615 0.01220566115 0.15942306893 0.11479414201 0.1075463902 0.11479414201 
0.083226561615 0.15942310254 0.012205476595 0.11479410619 0.10754632373 0.11479410619 0.083226607183 0.012205476595 0.15942310254 
0.11479410619 0.10754632373 0.11479410619 0.083226607183 0.15942310254 0.012205476595 0.11479410619 0.10754632373 0.11479410619 
0.083226607183 0.012205476595 0.15942310254 0.11479410619 0.10754632373 0.11479410619 0.083226607183 0.15942306893 0.01220566115 
0.11479414201 0.1075463902 0.11479414201 0.083226561615 0.01220566115 0.15942306893 0.11479414201 0.1075463902 0.11479414201 
0.083226561615 0.60583191674 0.60583191674 0.60583191674 0.60583191674 0.60583148627 0.60583148627 0.6058317015 0.6058317015 
0.60583191674 0.60583191674 0.6058317015 0.6058317015 0.60583180912 0.60583180912 0.60583191674 0.60583191674 0.60583171496 
0.60583171496 0.10384167825 0.10384167825 0.10384166528 0.10384166528 0.10384169492 0.10384169492 0.10384166528 0.10384166528 
0.10384166528 0.10384166528 0.10384169492 0.10384169492 0.6058317015 0.6058317015 0.60583148627 0.60583148627 0.60583234722 
0.60583234722 0.030915387016 0.13953104256 0.090661521079 0.096452253971 0.090661521079 0.053768391715 0.030915387016 0.13953104256 
0.090661521079 0.096452253971 0.090661521079 0.053768391715 0.030915326763 0.1395310575 0.090661502147 0.096452221163 0.090661502147 
0.05376842651 0.1395310575 0.030915326763 0.090661502147 0.096452221163 0.090661502147 0.05376842651 0.13953102337 0.030915464485 
0.090661545421 0.096452296153 0.090661545421 0.053768346979 0.13953102337 0.030915464485 0.090661545421 0.096452296153 0.090661545421 
0.053768346979 0.030915326763 0.1395310575 0.090661502147 0.096452221163 0.090661502147 0.05376842651 0.1395310575 0.030915326763 
0.090661502147 0.096452221163 0.090661502147 0.05376842651 0.030915326763 0.1395310575 0.090661502147 0.096452221163 0.090661502147 
0.05376842651 0.1395310575 0.030915326763 0.090661502147 0.096452221163 0.090661502147 0.05376842651 0.13953102337 0.030915464485 
0.090661545421 0.096452296153 0.090661545421 0.053768346979 0.13953102337 0.030915464485 0.090661545421 0.096452296153 0.090661545421 
0.053768346979 0.38162349055 0.21596905226 0.19081166249 0.356466018 0.050314945105 0.19081174528 0.33130854545 0.075472334873 
0.35433505809 0.81356148133 0.81356176064 0.35433510991 0.72337982279 0.19081174528 0.19081166249 0.72337949166 0.19081174528 
0.38162349055 0.21596905226 0.19081166249 0.356466018 0.050314945105 0.19081174528 0.33130854545 0.075472334873 0.15932409005 
0.17228513891 0.076912007454 0.35433510991 0.72337982279 0.19081174528 0.19081166249 0.10698239111 0.19081174528 0.19501096803 
0.16118989416 0.02362044971 0.12625153366 0.11758954885 0.12625153366 0.086373382382 0.149228644 0.13169228263 0.095548192612 
0.10628705333 0.13472827605 0.11916530457 0.093119190063 0.11041663792 0.12207033479 0.13802079171 0.050289312422 0.10248083365 
0.38162335953 0.38162335953 0.38162319397 0.38162319397 0.088130318697 0.088130318697 0.13306203039 0.15691282491 0.15691282491 
0.097957657173 0.084213782692 0.084213782692 0.14676867977 0.14676867977 0.1265914324 0.083533265531 0.063191095538 0.083533265531 
0.063191095538 0.029513868093 0.12167245525 0.071413263501 0.14316890903 0.047095044427 0.096073864606 0.097957657173 0.097957657173 
0.047095044427 0.096073864606 0.1450527016 0.096073864606 0.38162335953 0.21596897811 0.19081159698 0.35646589562 0.050314927831 
0.19081167977 0.3313084317 0.075472308962 0.35433500121 0.17228514333 0.076912040795 0.15932407426 0.13802085012 0.19081167977 
0.19081159698 0.72337965722 0.19081167977 0.19501092695 0.16118988607 0.023620498296 0.12625154416 0.11758956545 0.12625154416 
0.086373369679 0.14922858396 0.13169225838 0.095548182385 0.10628699954 0.13472821155 0.11916527455 0.15000001099 0.036168957033 
0.11043596084 0.11041666291 0.11043596084 0.067901254492 0.38162329402 0.21596890829 0.19081153147 0.35646583443 0.050314919194 
0.19081167977 0.33130837483 0.075472296006 0.35433491843 0.81356148133 0.81356155116 0.35433500121 0.72337965722 0.19081167977 
0.19081159698 0.72337965722 0.19081161426 0.38162349055 0.38162349055 0.38162332498 0.38162332498 0.38162349055 0.38162349055 
0.4822532152 0.2411266076 0.24112627646 0.96450609925 0.38162349055 0.38162349055 0.38162332498 0.38162332498 0.38162349055 
0.38162349055 0.4822532152 0.24112594532 0.2411266076 0.96450576812 0.38162349055 0.38162349055 0.38162332498 0.38162332498 
0.38162349055 0.38162349055 0.4822532152 0.24112594532 0.2411266076 0.96450576812 0.38162349055 0.38162349055 0.38162332498 
0.38162332498 0.38162349055 0.38162349055 0.4822532152 0.2411266076 0.24112594532 0.96450576812 
potential 1 889 double
0 0 0 0 0 0 0 0 0 
0 0 0 0 0 0 0 0 0 
0 0 0 0 0 0 0 0 0 
0 0 0 0 0 0 0 0 0 
0 0 0 0 0 0 0 0 0 
0 0 0 0 0 0 0 0 0 
0 0 0 0 0 0 0 0 0 
0 0 0 0 0 0 0 0 0 
0 0 0 0 0 0 0 0 0 
0 0 0 0 0 0 0 0 0 
0 0 0 0 0 0 0 0 0 
0 0 0 0 0 0 0 0 0 
0 0 0 0 0 0 0 0 0 
0 0 0 0 0 0 0 0 0 
0 0 0 0 0 0 0 0 0 
0 0 0 0 0 0 0 0 0 
0 0 0 0 0 0 0 0 0 
0 0 0 0 0 0 0 0 0 
0 0 0 0 0 0 0 0 0 
0 0 0 0 0 0 0 0 0 
0 0 0 0 0 0 0 0 0 
0 0 0 0 0 0 0 0 0 
0 0 0 0 0 0 0 0 0 
0 0 0 0 0 0 0 0 0 
0 0 0 0 0 0 0 0 0 
0 0 0 0 0 0 0 0 0 
0 0 0 0 0 0 0 0 0 
0 0 0 0 0 0 0 0 0 
0 0 0 0 0 0 0 0 0 
0 0 0 0 0 0 0 0 0 
0 0 0 0 0 0 0 0 0 
0 0 0 0 0 0 0 0 0 
0 0 0 0 0 0 0 0 0 
0 0 0 0 0 0 0 0 0 
0 0 0 0 0 0 0 0 0 
0 0 0 0 0 0 0 0 0 
0 0 0 0 0 0 0 0 0 
0 0 0 0 0 0 0 0 0 
0 0 0 0 0 0 0 0 0 
0 0 0 0 0 0 0 0 0 
0 0 0 0 0 0 0 0 0 
0 0 0 0 0 0 0 0 0 
0 0 0 0 0 0 0 0 0 
0 1 1 1 1 1 1 1 1 
1 1 1 1 1 1 1 1 1 
1 1 1 1 1 1 1 1 1 
1 1 1 1 1 1 1 1 1 
1 1 1 1 1 1 1 1 1 
1 1 1 1 1 1 1 1 1 
1 1 1 1 1 1 1 1 1 
1 1 1 1 1 1 1 1 1 
1 1 1 1 1 1 1 1 1 
1 1 1 1 1 1 1 1 1 
1 1 1 1 1 1 1 1 1 
1 1 1 1 1 1 1 1 1 
1 1 1 1 1 1 1 1 1 
1 1 1 1 1 1 1 1 1 
1 1 1 1 1 1 1 1 1 
1 1 1 1 1 1 1 1 1 
1 1 1 1 1 1 1 1 1 
1 1 1 1 1 1 1 1 1 
1 1 1 1 1 1 1 1 1 
1 1 1 1 1 1 1 1 1 
1 1 1 1 1 1 1 1 1 
1 1 1 1 1 1 1 1 1 
1 1 1 1 1 1 1 1 1 
1 1 1 1 1 1 1 1 1 
1 0 0 0 0 0 0 0 0 
0 0 0 0 0 0 0 0 0 
0 0 0 0 0 0 0 0 0 
0 0 0 0 0 0 0 0 0 
0 0 0 0 0 0 0 0 0 
0 0 0 0 0 0 0 0 0 
0 0 0 0 0 0 0 0 0 
0 0 0 0 0 0 0 0 0 
0 0 0 0 0 0 0 0 0 
0 0 0 0 0 0 0 0 0 
0 0 0 0 0 0 0 0 0 
0 0 0 0 0 0 0 0 0 
0 0 0 0 0 0 0 0 0 
0 0 0 0 0 0 0 0 0 
0 0 0 0 0 0 0 0 0 
0 0 0 0 0 0 0 0 0 
0 0 0 0 0 0 0 0 0 
0 0 0 0 0 0 0 0 0 
0 0 0 0 0 0 0 0 0 
0 0 0 0 0 0 0 0 0 
0 0 0 0 0 0 0 0 0 
0 0 0 0 0 0 0 0 0 
0 0 0 0 0 0 0 0 0 
0 0 0 0 0 0 0 0 0 
0 0 0 0 0 0 0 0 0 
0 0 0 0 0 0 0 0 0 
0 0 0 0 0 0 0 0 0 
0 0 0 0 0 0 0 0 0 
0 0 0 0 0 0 0 0 0 
0 0 0 0 0 0 0 0 0 
0 0 0 0 0 0 0 0 0 
0 0 0 0 0 0 0 
charge 1 889 double
-0.012569338112 -0.007381555987 -0.010738796292 -0.010428643431 -0.010181918484 -0.018299831913 -0.018355802704 -0.02071859851 -0.030898856828 
-0.036457244068 -0.42060808408 -0.027022816399 -0.027182290774 -0.010871925686 -0.010931759465 -0.045240074593 -0.017293264613 -0.013060364251 
-0.013139794784 -0.0091540143163 -0.014831077344 -0.013207810309 -0.026279955225 -0.026397431207 -0.059566980572 -0.14804573082 -0.019393037769 
-0.012244887328 -0.007120289408 -0.010500818577 -0.0099981524297 -0.0098693440662 -0.016815743777 -0.015426462875 0.00057921485432 -0.013919483587 
-0.10656268639 -0.10915519901 -0.014552607883 -0.049196511894 -0.01055571716 -0.010451797665 -0.043351608213 -0.016479175084 -0.015680679039 
-0.01066316516 -0.010893809543 -0.012193401303 -0.015420686012 -0.020952361926 -0.015673290436 -0.010722636187 -0.011076893321 -0.012461502594 
-0.015874031039 -0.021695742156 -0.15461403563 -0.059689775446 -0.026536300024 -0.025894962632 -0.012997284367 -0.014531315231 -0.0088939424299 
-0.012843975748 -0.012642190199 -0.019140966655 -0.015845312815 -0.010879246695 -0.011264084246 -0.012694481755 -0.016156332913 -0.02208454705 
-0.015295880935 -0.010349902824 -0.010589424879 -0.011883002912 -0.014969100251 -0.020533545537 -0.015981293352 -0.010990090297 -0.01137412276 
-0.012828576256 -0.016309318759 -0.02229395605 -0.015226444673 -0.010409042723 -0.010717782178 -0.012120353061 -0.015369614093 -0.021135892133 
-0.011772457095 -0.0086803093017 -0.0084848372833 -0.009328832145 -0.012726389274 -0.017414800514 -0.015371021104 -0.010545357114 -0.010892121299 
-0.012324308819 -0.015644857239 -0.021473027328 -0.011938824652 -0.0071610028173 -0.0086008342564 -0.0081833165115 -0.012944249462 -0.016989387377 
-0.011056396534 -0.017103376579 -0.010988277918 -0.0087130514134 -0.0072761080831 -0.0094480162463 -0.015492098306 -0.010630266343 -0.010997222916 
-0.012434526218 -0.015790594077 -0.021645741722 -0.011708701234 -0.008604726363 -0.0085136789625 -0.0091899351046 -0.01301470771 -0.017391530161 
-0.011455041641 -0.0083855348649 -0.0083316938493 -0.0089619271052 -0.012709161578 -0.016206457317 -0.011485332908 -0.0084942135239 -0.0082779586994 
-0.0091091582066 -0.012661129999 -0.017444276919 -0.011579397886 -0.0069228101212 -0.008315806945 -0.0079277776719 -0.012384375475 -0.016250835428 
-0.010730753206 -0.016976299155 -0.010626715304 -0.0083944630388 -0.0070301818284 -0.0091290223301 -0.011422906743 -0.0068194185639 -0.008117057429 
-0.0077676985783 -0.012094150862 -0.01603159403 -0.010688228058 -0.017014400954 -0.010553455796 -0.0083713761544 -0.0069588929565 -0.0091024785756 
-0.011289585869 -0.008273319723 -0.0081072406381 -0.0089163337553 -0.012200152034 -0.010963581444 -0.016226000643 -0.0087713962862 -0.015031460201 
-0.01113648101 -0.014012452387 -0.016608686776 -0.012706558283 -0.0084067125041 -0.0082118155758 -0.0074532872017 -0.011777203883 -0.026375671829 
-0.027676724375 -0.061163294778 -0.155602677 -0.011188797413 -0.0081442730573 -0.0080845804802 -0.0088903148649 -0.013151735828 -0.011283911489 
-0.011138208958 -0.0066168670686 -0.0079715272334 -0.0075556690027 -0.012049829468 -0.015825473717 -0.010126474742 -0.015636165962 -0.010193596447 