# vtk DataFile Version 5.1
vtk output
ASCII
DATASET STRUCTURED_POINTS
DIMENSIONS 50 50 50
SPACING 0.002 0.002 0.002
ORIGIN 0.0482 -0.052672 0.02732
POINT_DATA 125000
FIELD FieldData 1
potential 1 125000 double
0.29736770876 0.2973376613 0.2973137662 0.29729741342 0.29728758855 0.29728251632 0.29727958639 0.29727627555 0.29726989364 
0.29725707378 0.29723591375 0.29720479611 0.29716271555 0.29711000271 0.29704732055 0.29697615112 0.29689823155 0.29681652501 
0.29673393312 0.29665377074 0.29657942642 0.29651406166 0.29646012145 0.29642095336 0.29639754083 0.29639235128 0.29640654848 
0.29644113352 0.29649727738 0.29657594495 0.29667731794 0.29680261623 0.29695043908 0.29711899114 0.29730672598 0.29750920651 
0.29772242585 0.29794040418 0.29815698052 0.29836622547 0.29856237256 0.2987402308 0.29889579919 0.29902623519 0.29912944404 
0.29920496434 0.29925334238 0.29927646681 0.29927550408 0.29925317258 0.31513907415 0.31510429038 0.31507542137 0.31505356918 
0.31503804713 0.31502755985 0.31501983855 0.31501237024 0.3150029709 0.31498790037 0.31496551856 0.31493409019 0.31489209338 
0.31484012529 0.31477834093 0.31470765687 0.31463001833 0.3145481439 0.31446481714 0.31438318434 0.31430686652 0.31423893762 
0.3141821245 0.31413982564 0.31411342875 0.31410522345 0.31411684873 0.31414894539 0.31420295233 0.3142796865 0.31437938047 
0.31450275349 0.31464831004 0.31481461937 0.31499942181 0.31519924273 0.31540998366 0.31562594267 0.31584138722 0.31605057965 
0.31624777064 0.31642861972 0.31658823576 0.31672365056 0.31683226458 0.31691388259 0.31696830226 0.31699607928 0.31699909544 
0.3169792597 0.33344786151 0.33340842411 0.33337368082 0.33334545039 0.33332343857 0.33330664422 0.33329330551 0.33328136786 
0.33326816292 0.33325121841 0.33322827533 0.33319745164 0.33315698794 0.33310724287 0.33304776375 0.33297943594 0.33290382274 
0.33282332484 0.33274058261 0.33265892377 0.33258145852 0.33251167494 0.33245241981 0.33240700918 0.33237788179 0.33236656074 
0.33237505843 0.33240464512 0.33245566002 0.33252942938 0.33262586314 0.332745147 0.33288582787 0.33304648711 0.33322531024 
0.33341841517 0.33362247685 0.33383228986 0.33404220254 0.33424757975 0.33444249201 0.3346229694 0.33478438483 0.33492284182 
0.33503604451 0.3351231516 0.33518306726 0.33521646646 0.33522401576 0.33520821786 0.35217369905 0.3521288008 0.35208765472 
0.35205245734 0.3520233796 0.35199994238 0.3519804503 0.35196369673 0.35194699358 0.35192843543 0.351905263 0.351876006 
0.35183821089 0.35179202971 0.35173650786 0.35167216144 0.35160017457 0.35152232086 0.35144149555 0.35136051479 0.35128275735 
0.3512116924 0.35115046366 0.35110244488 0.3510702946 0.35105599935 0.35106131147 0.3510875612 0.35113529282 0.35120511233 
0.3512972538 0.35141059601 0.35154405428 0.35169639941 0.35186606099 0.35204898262 0.3522427892 0.35244219931 0.35264326502 
0.35284119383 0.3530308041 0.35320823022 0.35336888733 0.3535088689 0.35362567219 0.35371754451 0.35378281626 0.35382147513 
0.35383494375 0.35382372602 0.37118185728 0.37113134336 0.37108349569 0.37104097743 0.37100459919 0.3709739483 0.37094852354 
0.37092681409 0.37090703315 0.37088692283 0.37086465935 0.37083742899 0.37080382307 0.370762094 0.37071173479 0.37065269515 
0.37058555766 0.37051150749 0.37043369812 0.37035421367 0.37027678746 0.37020493385 0.37014202099 0.37009152122 0.37005671216 
0.3700398128 0.37004177166 0.37006452964 0.37010855205 0.37017376669 0.37025995493 0.37036593128 0.37049094663 0.37063301068 
0.37079062126 0.37096052978 0.37114081423 0.37132698737 0.37151583238 0.37170333997 0.37188471246 0.37205676586 0.372214917 
0.37235523312 0.372474342 0.37256989563 0.37264051478 0.37268499016 0.37270399536 0.37269752125 0.39032738207 0.39027160201 
0.39021699697 0.3901673923 0.39012357533 0.39008600518 0.39005448725 0.39002843782 0.39000579513 0.38998506128 0.38996391779 
0.38993973126 0.38991067553 0.38987469982 0.38983065779 0.38977779169 0.38971631902 0.38964693853 0.38957273365 0.38949544295 
0.38941887134 0.38934639459 0.38928223611 0.38923013104 0.38919281214 0.3891730834 0.38917193072 0.3891912721 0.3892309884 
0.38929132032 0.3893707892 0.38946882918 0.38958379848 0.38971365972 0.38985744989 0.39001246999 0.39017662759 0.39034727147 
0.39052141609 0.39069591333 0.39086741813 0.39103197215 0.39118584551 0.39132482332 0.39144538644 0.39154420175 0.39161932226 
0.39166949064 0.39169382816 0.39169260001 0.40945890588 0.4093974816 0.40933685826 0.40928038322 0.40922986013 0.40918588562 
0.40914878196 0.40911856665 0.4090938445 0.40907288015 0.40905332039 0.40903309007 0.40900924835 0.40897950557 0.40894242608 
0.408896305 0.40884113288 0.40877710765 0.40870668657 0.40863211838 0.40855656934 0.40848449206 0.40841945023 0.40836550429 
0.40832617155 0.40830383862 0.40830025818 0.40831632044 0.40835193246 0.40840655665 0.40847969041 0.40856874029 0.40867271853 
0.40878938956 0.40891800087 0.4090564905 0.40920334518 0.40935675825 0.40951478778 0.40967503226 0.40983435974 0.40999003527 
0.4101383851 0.41027471069 0.41039541431 0.41049663533 0.41057606835 0.41063123468 0.41066072158 0.4106646458 0.42842011129 
0.42835373059 0.4282879396 0.42822537259 0.4281688496 0.42811925303 0.42807750246 0.42804407957 0.428017723 0.4279969805 
0.42797983142 0.42796360878 0.42794534103 0.42792212153 0.42789214716 0.4278530661 0.42780442327 0.42774606545 0.42767986301 
0.42760786264 0.42753418616 0.42746273099 0.4273970833 0.42734203132 0.4273011633 0.42727678866 0.42727118759 0.42728399767 
0.42731545973 0.42736524424 0.42743130815 0.42751161654 0.42760435949 0.42770730907 0.4278201369 0.4279411925 0.42806996857 
0.42820526278 0.42834606586 0.42849066059 0.42863745063 0.42878274307 0.42892433661 0.42905715543 0.42917687451 0.42927978676 
0.42936240116 0.42942189073 0.42945625669 0.42946482301 0.44705479885 0.44698453317 0.44691407463 0.44684726763 0.44678569131 
0.44673167523 0.44668685695 0.44665067568 0.44662348793 0.44660343962 0.44658879631 0.44657684559 0.44656406606 0.44654735365 
0.44652406645 0.44649209111 0.44644984059 0.44639687457 0.44633483403 0.4462663971 0.44619478254 0.44612424135 0.44605873576 
0.44600331259 0.44596151025 0.44593554066 0.44592785181 0.44593859192 0.44596644268 0.4460114153 0.44607064798 0.44614227123 
0.44622366827 0.44631307328 0.44641007287 0.44651413202 0.44662440205 0.44674133321 0.44686462124 0.44699339848 0.44712649969 
0.44726114801 0.44739514298 0.44752314829 0.44764064246 0.44774438089 0.44782928026 0.44789212794 0.4479306201 0.44794351081 
0.46521022468 0.46513742418 0.46506407729 0.46499368003 0.46492893677 0.46487214631 0.46482504519 0.46478749481 0.46476000312 
0.46474164919 0.46472947439 0.46472128768 0.46471374682 0.46470306993 0.46468607362 0.46466022601 0.46462416504 0.46457635578 
0.46451910747 0.46445400179 0.46438496388 0.46431586549 0.46425115258 0.46419600476 0.46415393862 0.46412760421 0.46411868724 
0.46412716098 0.46415237009 0.46419271146 0.46424560816 0.46430874921 0.46437939546 0.46445554079 0.46453754112 0.46462470675 
0.46471721631 0.46481645925 0.46492257626 0.46503549825 0.46515499757 0.46527866631 0.46540391786 0.46552651594 0.46564108357 
0.46574380303 0.4658298356 0.46589490258 0.46593651413 0.46595320792 0.48274148977 0.48266762427 0.48259293987 0.48252092108 
0.48245482773 0.48239674362 0.48234884427 0.48231119979 0.48228430118 0.48226738433 0.48225791177 0.48225316413 0.48224996587 
0.48224416957 0.48223277947 0.48221239852 0.48218116792 0.48213898194 0.4820860194 0.48202491899 0.48195881539 0.48189207274 
0.48182942852 0.48177516162 0.48173360829 0.48170733114 0.48169780092 0.48170511645 0.48172805003 0.48176409561 0.48181117183 
0.48186632712 0.48192694385 0.48199079806 0.48205873011 0.48213028074 0.48220633815 0.48228866263 0.48237849175 0.48247622973 
0.48258216607 0.48269438982 0.48281069883 0.48292627153 0.48303675166 0.48313749186 0.48322285302 0.4832892085 0.48333287351 
0.48335258128 0.49951571898 0.49944253742 0.49936844998 0.49929692456 0.49923112421 0.49917334438 0.49912612876 0.49908952316 
0.49906396715 0.49904877424 0.4990415217 0.49903962386 0.49903966764 0.49903778078 0.49903046128 0.4990149024 0.49898825649 
0.49895068151 0.49890202667 0.49884516221 0.49878271403 0.49871921233 0.49865914693 0.4986071243 0.49856716381 0.49854144822 
0.49853192701 0.4985382793 0.49855937045 0.49859172047 0.49863344461 0.49868125817 0.4987328919 0.49878586021 0.49884097996 
0.49889872595 0.49895979485 0.49902692515 0.49910165085 0.49918534672 0.499278023 0.49937880956 0.49948566626 0.49959364743 
0.49969839856 0.49979526754 0.49987891346 0.49994471212 0.49998938885 0.50001122302 0.51541623671 0.51534553632 0.51527427047 
0.515204841 0.51514108886 0.51508558281 0.51504034842 0.51500599846 0.51498206897 0.51496860511 0.51496319909 0.51496323075 
0.51496536022 0.51496646049 0.51496200498 0.51494943919 0.51492699893 0.51489343143 0.51484944192 0.51479684756 0.51473880477 
0.51467914919 0.51462281572 0.51457394222 0.51453638973 0.51451219101 0.51450315422 0.51450895148 0.51452809755 0.51455719991 
0.51459409251 0.51463553138 0.51467893321 0.51472248438 0.51476672157 0.51481238351 0.51486070393 0.51491447019 0.51497583925 
0.51504634059 0.51512670943 0.51521628713 0.51531296578 0.51541269788 0.51551064374 0.51560210641 0.51568211921 0.5157458992 
0.51579049574 0.51581307746 0.53034566884 0.53027928925 0.5302121775 0.53014692159 0.53008723924 0.53003543542 0.52999350848 
0.52996173691 0.52993997038 0.52992817615 0.52992410099 0.52992530527 0.52992875861 0.52993112031 0.52992822864 0.5299182828 
0.52989873265 0.52986909057 0.52982929582 0.52978144534 0.52972804953 0.52967327849 0.52962145602 0.52957650661 0.52954188538 
0.52951988 0.52951183305 0.52951726085 0.5295346724 0.52956097921 0.52959315291 0.52962877546 0.52966520489 0.52970100754 
0.52973624235 0.52977181932 0.52980969963 0.52985224432 0.52990186834 0.52996098085 0.5300299851 0.53010866741 0.53019495887 
0.53028507714 0.53037498198 0.53045962657 0.53053450503 0.53059472536 0.53063775944 0.53066060427 0.54422792521 0.54416728497 
0.54410599786 0.54404650544 0.5439921519 0.54394526803 0.54390747567 0.54387903784 0.54385953026 0.5438493785 0.54384614162 
0.54384780603 0.54385151137 0.54385386117 0.54385199634 0.54384371841 0.54382644629 0.54379993924 0.5437644497 0.54372112997 
0.54367324293 0.54362373535 0.54357703895 0.54353641258 0.54350550993 0.54348597727 0.54347909545 0.54348432038 0.54349994532 
0.543523624 0.54355206471 0.54358239389 0.54361285525 0.54364227428 0.54367017572 0.54369804861 0.54372748528 0.54376105513 
0.54380120954 0.54385029427 0.54390897598 0.54397721962 0.54405291039 0.54413284723 0.54421356423 0.54428993692 0.54435817017 
0.54441370384 0.54445370237 0.54447573355 0.55700881859 0.55695511474 0.55690055332 0.55684791547 0.55679999646 0.55675873648 
0.55672572062 0.55670098156 0.55668418096 0.55667505454 0.5566724357 0.55667389774 0.5566769976 0.55667870142 0.5566772988 
0.55666965956 0.55665431795 0.55663059204 0.55659875074 0.55656041583 0.55651816617 0.55647441342 0.55643308752 0.55639726653 
0.55637026892 0.55635340691 0.55634759579 0.55635267897 0.55636673895 0.55638776384 0.55641249343 0.55643843872 0.55646418646 
0.55648824301 0.55651057805 0.55653276502 0.55655579726 0.55658252243 0.55661492396 0.55665553432 0.55670489273 0.55676315944 
0.55682848202 0.55689783517 0.55696836534 0.55703555685 0.55709595769 0.5571454677 0.55718141279 0.55720189356 0.56865431078 
0.56860819416 0.56856102999 0.56851604218 0.56847519939 0.56843994821 0.56841191731 0.56839096319 0.56837662391 0.56836885174 
0.56836633827 0.56836726225 0.56836898557 0.56837033013 0.56836845584 0.5683610821 0.56834713319 0.56832583025 0.56829798104 
0.5682644771 0.56822762234 0.56818956509 0.56815363952 0.56812297468 0.56809957211 0.56808523523 0.568080789 0.5680855055 
0.56809809194 0.56811650122 0.56813811821 0.56816028369 0.56818187157 0.5682022383 0.56822023081 0.56823801367 0.56825649163 
0.56827819274 0.5683044971 0.56833781586 0.56837888705 0.56842785883 0.56848296083 0.56854167595 0.56860165415 0.56865904754 
0.56871072534 0.56875329195 0.56878449079 0.56880255989 0.57914941759 0.57911084662 0.57907163463 0.57903422273 0.57900021989 
0.57897127156 0.57894805829 0.57893090815 0.57891899101 0.57891263346 0.57890989932 0.57891006864 0.57891082672 0.57891091959 
0.57890839294 0.57890124848 0.57888836269 0.57886978428 0.57884528505 0.57881641072 0.57878437227 0.57875226262 0.57872166871 
0.57869593252 0.57867603621 0.57866406494 0.57866055132 0.57866482835 0.5786758387 0.57869163619 0.57871024698 0.57872922514 
0.57874771035 0.57876486498 0.57878004348 0.57879496233 0.57881009101 0.57882756979 0.57884938303 0.57887657664 0.57891032284 
0.57895060742 0.57899580785 0.57904412186 0.57909350853 0.57914078038 0.5791832094 0.57921842861 0.57924431558 0.57925908937 
0.58849320411 0.58846231898 0.58843083639 0.58840072035 0.58837357895 0.58835027447 0.58833186044 0.58831807049 0.5883084909 
0.58830322072 0.58830059849 0.58829962869 0.58829959034 0.58829889333 0.58829555539 0.58828839928 0.58827695266 0.58826063585 
0.5882396513 0.58821484232 0.58818770386 0.58816092035 0.58813538161 0.58811368809 0.58809719267 0.58808720001 0.58808457271 
0.58808838427 0.58809781016 0.58811129756 0.58812684187 0.58814313868 0.58815915388 0.58817359922 0.5881865172 0.58819950834 
0.58821225274 0.58822671217 0.58824444045 0.58826657431 0.58829366684 0.58832573779 0.58836163918 0.58840008705 0.58843915798 
0.58847643584 0.58850975398 0.58853749798 0.58855752192 0.58856894921 0.59669702421 0.59667335045 0.59664893754 0.59662574877 
0.59660468867 0.59658685936 0.59657268145 0.59656209755 0.59655443887 0.59655013769 0.59654801717 0.59654630774 0.5965454759 
0.59654381724 0.59654023887 0.59653330861 0.59652305625 0.59650881591 0.59649106051 0.59647031068 0.59644781411 0.59642490215 
0.59640433344 0.59638641857 0.59637304312 0.59636493229 0.59636247161 0.59636568542 0.59637346996 0.59638484479 0.59639793896 
0.59641199237 0.59642554924 0.59643787907 0.59644904587 0.59646042996 0.596471204 0.59648322952 0.59649746939 0.59651458441 
0.59653571801 0.59656052162 0.59658776502 0.5966167275 0.59664598718 0.59667359749 0.59669830912 0.5967183014 0.59673250555 
0.59674021358 0.60377968101 0.60376236153 0.60374442291 0.60372735474 0.60371172108 0.60369861326 0.6036881845 0.60368046053 
0.60367457902 0.60367131253 0.6036689336 0.603667444 0.60366614076 0.60366413327 0.60366034901 0.60365405796 0.60364502235 
0.60363278977 0.60361796727 0.6036009297 0.60358229852 0.60356359054 0.60354676607 0.60353222646 0.60352131905 0.60351462495 
0.60351258956 0.6035151513 0.60352149024 0.60353073772 0.60354167462 0.60355332293 0.60356480287 0.60357522202 0.60358484914 
0.6035945984 0.60360373698 0.60361339033 0.60362404853 0.60363709481 0.60365233255 0.60366998205 0.60368944926 0.60370953447 
0.6037296425 0.60374843189 0.60376442854 0.60377722702 0.60378575338 0.60378943966 0.60976409167 0.60975272962 0.60974029825 
0.60972837165 0.60971758845 0.60970846545 0.60970139554 0.60969596352 0.60969177145 0.60968946422 0.60968725986 0.6096861674 
0.6096843733 0.60968212271 0.6096787059 0.60967329003 0.6096654543 0.60965534556 0.60964324952 0.60962959743 0.60961455881 
0.60959961163 0.60958546182 0.60957405701 0.60956546644 0.60955985706 0.60955796258 0.60955991577 0.60956484351 0.6095722173 
0.60958088033 0.60959054894 0.60959992062 0.60960867009 0.60961644477 0.60962444238 0.60963178284 0.60963869271 0.60964637087 
0.60965498145 0.60966489263 0.60967568418 0.60968736493 0.60969926023 0.60971071924 0.60972115003 0.60972919212 0.60973524003 
0.60973809595 0.60973779871 0.61467420142 0.61466851802 0.61466085664 0.61465347855 0.61464671063 0.61464099312 0.61463663196 
0.61463319785 0.61463062342 0.61462851892 0.61462722737 0.61462625365 0.61462461369 0.61462273895 0.61461956066 0.61461504824 
0.61460891289 0.61460084738 0.61459144747 0.61458057323 0.61456886797 0.61455728954 0.61454587126 0.61453683145 0.6145299456 
0.6145253845 0.61452355895 0.61452486065 0.61452861583 0.61453409273 0.61454080412 0.61454828378 0.61455565415 0.61456257075 
0.61456849975 0.61457423628 0.61457925279 0.61458363759 0.61458758851 0.61459169664 0.61459616629 0.61460048702 0.61460480135 
0.61460876274 0.61461212907 0.61461453666 0.61461554095 0.61461508353 0.61461249561 0.61460856858 0.61853471635 0.61853327047 
0.61852973638 0.61852614035 0.6185227163 0.61851983936 0.61851775105 0.6185160402 0.61851467906 0.61851315343 0.6185125515 
0.6185117121 0.61851082129 0.61850896146 0.61850656529 0.61850314072 0.61849858027 0.61849282812 0.61848561994 0.61847763551 
0.61846901846 0.61846022292 0.61845186106 0.61844458123 0.61843913936 0.61843541698 0.61843366421 0.61843428811 0.61843673481 
0.61844068531 0.61844544383 0.61845072397 0.61845607856 0.61846079645 0.61846455796 0.61846764593 0.61847016566 0.61847130667 
0.61847124855 0.61847049088 0.61846923323 0.61846703841 0.61846405745 0.61846044044 0.61845605801 0.61845106531 0.6184449479 
0.61843843575 0.61843073104 0.61842287579 0.6213654817 0.6213674105 0.62136768827 0.62136730713 0.6213668194 0.62136604112 
0.62136569496 0.6213652736 0.62136459486 0.62136410073 0.62136396366 0.62136347071 0.62136318855 0.6213622311 0.62136043939 
0.62135817429 0.62135544499 0.62135176731 0.62134699737 0.62134177558 0.62133581099 0.62132968075 0.6213238823 0.62131871852 
0.62131445329 0.62131135122 0.62130968154 0.62130985697 0.62131098759 0.6213130379 0.62131608162 0.62131921304 0.6213222079 
0.62132451353 0.62132599063 0.62132592102 0.62132512006 0.62132232278 0.6213177954 0.62131171343 0.62130442241 0.62129529104 
0.62128519129 0.6212739217 0.62126193187 0.62124942179 0.62123664646 0.6212242596 0.62121174378 0.62120033497 0.6231827458 
0.62318778857 0.62319107503 0.62319339936 0.62319501331 0.62319615842 0.62319696997 0.62319784443 0.62319790158 0.623197936 
0.62319804199 0.62319820193 0.62319844802 0.62319821259 0.62319741428 0.62319655267 0.62319572253 0.6231939451 0.62319188496 
0.62318924298 0.62318609451 0.62318255682 0.62317917196 0.62317602973 0.6231727933 0.6231707115 0.62316914812 0.62316825646 
0.62316831214 0.62316868183 0.62316968325 0.62317060311 0.62317112778 0.62317027634 0.62316903116 0.62316554946 0.62316071961 
0.62315348923 0.62314393194 0.62313189471 0.62311765964 0.6231014294 0.62308369457 0.62306456596 0.62304487848 0.62302486438 
0.62300546989 0.62298728739 0.6229704574 0.62295531668 0.62399728464 0.62400496731 0.62401137131 0.62401551737 0.62401889848 
0.62402137399 0.62402338211 0.624025036 0.62402562137 0.62402603243 0.62402631862 0.6240273058 0.62402787723 0.62402824506 
0.62402901841 0.62402945925 0.62403049811 0.62403108574 0.6240316709 0.62403181539 0.62403132359 0.62403049552 0.62402930359 
0.62402817606 0.62402654577 0.62402498595 0.62402328735 0.62402184204 0.62402056958 0.62401934985 0.62401809849 0.62401626794 
0.62401412001 0.62401007834 0.62400504605 0.62399755631 0.62398791278 0.6239755005 0.62396011924 0.62394134728 0.62391992661 
0.62389555127 0.62386947769 0.62384236207 0.62381443568 0.62378696888 0.62376093099 0.62373685083 0.62371559571 0.62369695635 
0.62381398296 0.62382406142 0.62383244062 0.62383882468 0.62384360241 0.62384733995 0.62384986467 0.62385175501 0.62385301832 
0.62385362687 0.62385417015 0.62385548245 0.62385664324 0.62385794411 0.62386002979 0.62386242452 0.62386526415 0.62386836588 
0.62387163631 0.62387491353 0.62387742881 0.6238793976 0.62388063175 0.62388129279 0.62388105885 0.62388018042 0.62387857958 
0.62387621678 0.6238737982 0.62387058317 0.62386697521 0.62386233366 0.62385644722 0.62384909118 0.62383964668 0.62382711102 
0.6238120615 0.62379355895 0.6237711469 0.62374493444 0.62371509869 0.62368196096 0.62364693499 0.62361065399 0.62357425946 
0.62353886361 0.62350591666 0.6234759311 0.62345000508 0.62342860548 0.62263177763 0.6226440641 0.62265437339 0.62266229555 
0.62266831828 0.62267273473 0.62267578991 0.62267778116 0.62267911717 0.62267978503 0.62268053546 0.6226820549 0.62268371921 
0.62268608541 0.62268954681 0.62269396623 0.62269934906 0.62270535986 0.62271155187 0.62271811302 0.62272393449 0.62272890053 
0.62273280165 0.62273553876 0.6227365769 0.62273674763 0.62273493636 0.62273155214 0.62272750163 0.62272234366 0.62271582607 
0.62270758085 0.6226980398 0.62268608178 0.62267157074 0.62265327717 0.62263157533 0.62260576635 0.62257541413 0.62254030664 
0.6225009787 0.62245794483 0.62241312159 0.62236702961 0.62232137049 0.6222776067 0.62223745356 0.62220161323 0.62217124299 
0.62214704142 0.62044290668 0.62045736037 0.62046952265 0.6204787545 0.62048572681 0.62049063947 0.62049378109 0.62049564636 
0.62049655136 0.62049753251 0.62049841587 0.62049979608 0.62050201526 0.62050572096 0.62051079045 0.62051748782 0.62052582573 
0.62053500478 0.62054465599 0.62055476837 0.62056434332 0.62057263633 0.62057943653 0.62058439425 0.6205871331 0.62058771544 
0.62058583395 0.62058172684 0.62057553708 0.62056778411 0.62055769805 0.62054567017 0.62053140299 0.62051411907 0.62049342848 
0.62046836877 0.62043866866 0.62040422041 0.62036441548 0.62031900936 0.62026890326 0.62021514238 0.62015917904 0.62010243576 
0.62004676772 0.61999406714 0.61994622705 0.61990463262 0.61987001943 0.6198435315 0.61723434799 0.61725110595 0.61726492326 
0.6172754811 0.61728285036 0.61728771383 0.61729086636 0.61729212 0.61729293652 0.61729351996 0.61729422769 0.6172958871 
0.61729881636 0.61730391329 0.6173110088 0.61732048353 0.61733186495 0.61734488139 0.61735849461 0.61737265749 0.61738635855 
0.61739848585 0.61740871555 0.61741582626 0.61742025512 0.61742142963 0.61741939633 0.6174138309 0.61740548449 0.617394654 
0.61738057698 0.61736381901 0.61734383236 0.61732031376 0.61729196805 0.6172588297 0.61721957182 0.61717499055 0.61712401332 
0.61706688411 0.61700467672 0.61693838578 0.6168703338 0.61680182329 0.6167356141 0.61667347638 0.61661787696 0.61657029153 
0.61653190273 0.61650319496 0.61298819463 0.61300708998 0.61302253535 0.61303405779 0.61304175373 0.61304650847 0.61304875174 
0.61304947791 0.61304964503 0.61304971514 0.61305045709 0.61305213713 0.61305626306 0.61306293394 0.61307241625 0.61308506223 
0.61309999372 0.61311723202 0.61313586607 0.61315462488 0.61317277801 0.61318920447 0.6132029129 0.61321276157 0.61321869851 
0.61322047139 0.61321818145 0.61321144111 0.61320022588 0.61318530795 0.61316669739 0.61314418463 0.61311741006 0.61308598514 
0.61304874995 0.61300560011 0.61295510572 0.61289875069 0.61283491881 0.61276456276 0.61268839863 0.61260850372 0.61252701365 
0.61244579466 0.61236823581 0.61229646202 0.61223295386 0.6121801506 0.61213773423 0.61210755264 0.60768199263 0.60770351913 
0.60772050187 0.60773273157 0.60774058642 0.60774473374 0.60774620307 0.60774572643 0.60774506823 0.60774479956 0.60774481452 
0.60774700678 0.60775216283 0.60776105566 0.60777344895 0.60778953194 0.60780890316 0.60783113188 0.60785501707 0.60787930059 
0.60790248062 0.60792358285 0.60794114088 0.60795377057 0.60796171044 0.60796398826 0.60796105183 0.60795245358 0.6079382307 
0.60791878053 0.60789458295 0.60786514269 0.60783017537 0.60778940272 0.60774171075 0.60768669246 0.60762319087 0.60755274549 
0.60747442666 0.6073890557 0.60729748949 0.6072025316 0.60710631027 0.60701194538 0.60692250488 0.60684071815 0.6067695946 
0.60671132281 0.60666591623 0.60663481686 0.60129207001 0.60131601339 0.60133450986 0.60134730875 0.60135512466 0.6013583115 
0.60135830274 0.60135664284 0.60135473035 0.60135356139 0.60135382436 0.60135651498 0.60136309194 0.60137454263 0.60139020462 
0.60141055304 0.60143510884 0.60146284662 0.60149268591 0.6015227976 0.60155184686 0.60157767317 0.60159945558 0.60161512461 
0.60162511234 0.60162782678 0.60162397751 0.60161318008 0.60159530046 0.60157083614 0.60153990493 0.6015024662 0.60145806823 
0.60140628115 0.60134600313 0.60127725254 0.60119876716 0.6011124393 0.6010178781 0.60091581584 0.60080751933 0.6006962866 
0.60058473505 0.60047645323 0.60037484018 0.60028326242 0.6002045992 0.60014145379 0.60009349788 0.60006221044 0.59379376367 
0.59382017535 0.59384005601 0.5938534456 0.59386080029 0.59386274966 0.59386126071 0.59385798444 0.59385480276 0.59385279525 
0.59385294553 0.59385680933 0.59386523485 0.59387928111 0.59389907433 0.59392439355 0.59395470244 0.59398862373 0.59402480405 
0.5940614498 0.59409651383 0.59412784612 0.5941536698 0.59417265646 0.59418429598 0.59418738925 0.59418244976 0.59416893452 
0.59414709297 0.59411665017 0.59407824177 0.59403155341 0.59397637458 0.59391193901 0.59383742598 0.59375288171 0.59365779639 
0.59355382062 0.59344144244 0.59332114127 0.59319503616 0.59306678572 0.59293935551 0.59281705659 0.59270327935 0.59260214154 
0.59251652484 0.59244864025 0.59239920909 0.59236828629 0.58516472948 0.585193857 0.58521539819 0.58522925422 0.58523590567 
0.58523652356 0.58523325472 0.58522832692 0.58522380617 0.58522105156 0.5852215142 0.58522664799 0.58523721857 0.58525477622 
0.58527914869 0.58530997084 0.585346447 0.5853871273 0.58543021232 0.58547353574 0.58551465387 0.58555111511 0.58558147714 
0.58560377741 0.58561680679 0.58562010751 0.58561371699 0.58559695529 0.58557063118 0.58553407666 0.58548726187 0.58543027667 
0.58536307308 0.58528443631 0.58519406083 0.58509253959 0.58497942966 0.58485605842 0.58472452204 0.58458504539 0.58444060552 
0.58429496145 0.5841517803 0.58401553961 0.58389029673 0.58377997914 0.58368795981 0.58361641431 0.58356585358 0.58353597605 
0.57538883955 0.57542110638 0.57544428915 0.57545865087 0.57546492915 0.57546407323 0.57545888842 0.57545277651 0.57544655881 
0.57544324944 0.5754443429 0.57545117155 0.5754645423 0.57548579552 0.57551508818 0.57555178407 0.57559476531 0.57564240016 
0.57569245679 0.5757423381 0.57578943728 0.57583123724 0.57586569024 0.57589079092 0.57590515785 0.57590826127 0.57590019026 
0.57587997154 0.57584849009 0.57580515611 0.57574948488 0.57568144462 0.57560116471 0.57550720139 0.57540037703 0.5752805381 
0.5751482793 0.57500512893 0.57485362449 0.57469470246 0.5745317952 0.5743690133 0.57421063838 0.57406102291 0.57392522996 
0.57380660939 0.57370916949 0.57363484776 0.57358377133 0.57355529602 0.56445905544 0.56449457226 0.56451956745 0.56453487512 
0.56454071928 0.56453876522 0.56453220855 0.56452474012 0.56451744702 0.56451381694 0.56451576167 0.56452452199 0.56454107846 
0.5645665839 0.56460107357 0.56464375003 0.56469324065 0.56474753406 0.56480424615 0.56486027587 0.56491294097 0.56495961525 
0.56499761077 0.56502497009 0.56504021961 0.56504286035 0.56503241733 0.56500868845 0.56497181361 0.56492108367 0.56485646455 
0.5647767894 0.56468285604 0.56457380646 0.5644496649 0.56431134978 0.56415956779 0.5639965919 0.56382532439 0.56364744762 
0.56346677791 0.56328788368 0.56311530241 0.56295377665 0.56280842671 0.56268295816 0.56258098534 0.5625046562 0.56245361468 
0.5624269567 0.55238108533 0.55242029159 0.55244784646 0.55246412412 0.55247000385 0.55246757624 0.55246083334 0.55245187467 
0.55244418915 0.5524406878 0.5524437388 0.55245478004 0.55247452728 0.55250450426 0.55254394229 0.5525923757 0.55264783093 
0.55270823726 0.55277070486 0.55283211026 0.55288953273 0.55294008724 0.55298090896 0.55300974169 0.55302540365 0.55302713832 
0.553014138 0.55298660582 0.55294401871 0.55288588724 0.55281201963 0.55272077478 0.55261374397 0.55248945597 0.55234866217 
0.5521922308 0.55202161389 0.55183969826 0.55164986582 0.55145442829 0.55125753527 0.55106429164 0.55087933477 0.55070756949 
0.55055427136 0.5504232792 0.55031788603 0.55024030217 0.55018994249 0.55016540738 0.53917777114 0.53922063968 0.53925114361 
0.53926922112 0.53927594707 0.53927472117 0.53926737944 0.53925822413 0.5392507052 0.53924800617 0.53925251912 0.53926587786 
0.53928914254 0.53932271707 0.53936667737 0.53941993154 0.53948059322 0.53954579304 0.53961306398 0.53967880422 0.53973977091 
0.53979278049 0.53983535727 0.53986486617 0.53988040894 0.53988023737 0.53986487651 0.53983304732 0.53978502393 0.5397195527 
0.53963637139 0.53953466917 0.53941483326 0.53927629632 0.53912003424 0.53894706875 0.53875952483 0.53856057653 0.53835421531 
0.5381435908 0.53793306728 0.53772773645 0.53753253793 0.53735289263 0.53719367554 0.53705867866 0.53695120551 0.53687319581 
0.53682396233 0.53680164572 0.52489085965 0.5249379361 0.52497182009 0.52499272281 0.52500142953 0.52500167463 0.52499546445 
0.52498730091 0.52498065699 0.5249791641 0.52498515548 0.52500081908 0.52502693562 0.52506377709 0.52511140587 0.5251682048 
0.52523249997 0.52530127466 0.52537151942 0.52543987508 0.5255027822 0.52555712103 0.52560020469 0.52562961586 0.52564392241 
0.52564165713 0.52562319093 0.52558716591 0.52553315653 0.52546099914 0.52536947141 0.52525823913 0.52512692738 0.52497585491 
0.52480618301 0.52461922535 0.5244174904 0.52420476498 0.52398470202 0.52376207131 0.52354071245 0.52332639507 0.52312401252 
0.52293899466 0.52277610915 0.52263898265 0.52253100985 0.52245318423 0.52240516836 0.5223853239 0.50958366601 0.50963542006 
0.50967342268 0.50969787566 0.50971028193 0.50971285863 0.50970888638 0.50970274835 0.50969807742 0.50969832938 0.50970605077 
0.50972361607 0.50975186123 0.50979105801 0.50984067732 0.50989929433 0.50996544073 0.51003568067 0.51010709602 0.51017636646 
0.51023943576 0.51029346725 0.51033591291 0.51036408246 0.51037640446 0.51037164329 0.51034971375 0.51030927451 0.51025017319 
0.51017156995 0.51007259463 0.50995296234 0.5098122202 0.50965076454 0.50947035202 0.50927279685 0.50906025255 0.50883739108 
0.50860808704 0.50837678113 0.50814866525 0.50792888327 0.50772261235 0.50753495719 0.50737071494 0.50723339082 0.50712591207 
0.50704926981 0.5070030742 0.50698545129 0.49334118813 0.49339790187 0.49344116081 0.49347041274 0.49348672353 0.4934933047 
0.49349329931 0.493490067 0.49348806644 0.49349049857 0.49349990442 0.49351869697 0.4935481634 0.49358804054 0.49363799972 
0.493696935 0.49376258781 0.49383226484 0.49390286767 0.4939707097 0.49403232442 0.49408450556 0.4941250854 0.49415092197 