# vtk DataFile Version 5.1
vtk output
ASCII
DATASET STRUCTURED_POINTS
DIMENSIONS 30 30 30
SPACING 0.01 0.01 0.01
ORIGIN 3.555 -0.145 0.855
POINT_DATA 27000
FIELD FieldData 1
potential 1 27000 double
0.0292479464 0.029269352288 0.029289686149 0.029308946282 0.029327134085 0.029344241962 0.029360267922 0.02937520443 0.029389055149 
0.029401817667 0.029413485467 0.029424057948 0.029433533684 0.029441909945 0.029449190423 0.029455361173 0.02946043179 0.029464398782 
0.029467260498 0.029469017156 0.029469667958 0.029469215562 0.029467655156 0.029464989615 0.029461218944 0.029456344124 0.029450366598 
0.029443286371 0.029435146751 0.029425922141 0.028950167991 0.02897120517 0.028991188156 0.029010117791 0.029027993131 0.02904480651 
0.029060552458 0.029075236005 0.029088847816 0.0291013887 0.02911285665 0.029123246601 0.029132559111 0.029140790533 0.029147940972 
0.029154007605 0.029158991033 0.029162893393 0.029165705875 0.029167432045 0.02916807378 0.029167626717 0.029166093108 0.029163473186 
0.029159762375 0.029154977535 0.029149156 0.029142196614 0.029134155727 0.029125031377 0.028656431779 0.028677105258 0.028696748419 
0.028715353202 0.028732919622 0.028749444812 0.028764922295 0.02877935175 0.028792730657 0.028805055821 0.028816325038 0.028826537523 
0.028835689063 0.028843779433 0.028850805598 0.028856768808 0.028861665805 0.028865496481 0.028868260216 0.028869956515 0.028870591212 
0.028870157102 0.028868649718 0.028866130708 0.028862487629 0.028857778052 0.028852003459 0.028845163759 0.028837261203 0.028828295587 
0.02836668227 0.028386983793 0.028406305934 0.028424595041 0.028441860905 0.028458100406 0.028473314757 0.028487496878 0.028500646398 
0.028512760154 0.028523835881 0.028533873175 0.028542867171 0.028550818582 0.028557724423 0.028563584988 0.028568397664 0.028572167279 
0.028574883391 0.028576612386 0.028577228912 0.028576795477 0.028575310999 0.028572783012 0.02856920247 0.028564573461 0.028558897264 
0.028552175521 0.028544408627 0.028535597905 0.028080852932 0.028100830271 0.028119806347 0.028137783252 0.028154730957 0.028170692899 
0.028185661852 0.028199601508 0.028212526157 0.028224432568 0.028235322736 0.028245186766 0.028254028382 0.028261843296 0.028268631677 
0.028274391542 0.028279184782 0.028282883535 0.028285553973 0.028287190659 0.028287795795 0.028287369913 0.028285912105 0.028283423141 
0.028279903506 0.028275353532 0.028269774359 0.02826317146 0.028255537456 0.028246877285 0.027798884864 0.027818520841 0.027837176167 
0.02785484618 0.027871529319 0.027887220214 0.027901919356 0.027915621523 0.02792830225 0.027940019976 0.027950720106 0.027960415934 
0.027969171474 0.027976853666 0.027983524328 0.027989183967 0.027993832362 0.027997467783 0.028000092051 0.028001700443 0.028002294877 
0.028001875449 0.028000442697 0.027997995771 0.027994535706 0.027990063288 0.027984579323 0.027978085042 0.027970580826 0.027962068438 
0.027520713103 0.027540017446 0.027558355235 0.027575727296 0.027592127005 0.027607552963 0.027622000025 0.027635540505 0.027648027349 
0.027659530206 0.027670047423 0.027679553529 0.027688093046 0.027695656196 0.027702214828 0.027707777691 0.027712346563 0.027715921847 
0.027718498903 0.027720079195 0.027720663233 0.027720250485 0.027718841166 0.027716436193 0.027713034643 0.027708637987 0.027703246353 
0.027696861679 0.027689485992 0.027681119686 0.027246286543 0.027265262237 0.027283366403 0.027300443314 0.027316564185 0.027331727673 
0.027345930316 0.027359168738 0.027371443276 0.027382750737 0.027393089161 0.027402456395 0.027410851393 0.027418271587 0.027424716767 
0.027430186588 0.027434654157 0.027438181445 0.027440714218 0.027442267325 0.027442841163 0.02744243477 0.027441048868 0.027438683596 
0.027435339747 0.027431016846 0.027425716726 0.027419440049 0.027412190743 0.027403964663 0.026975618495 0.02699427522 0.027011998186 
0.027028787769 0.027044636367 0.027059543173 0.027073505308 0.027086519393 0.027098586503 0.027109702347 0.027119865032 0.027129073836 
0.027137325774 0.027144619805 0.027150955331 0.02715633049 0.027160748388 0.027164200212 0.027166689825 0.02716821619 0.027168779536 
0.027168369227 0.027167005997 0.027164680134 0.027161391476 0.027157142078 0.027151932812 0.027145761854 0.027138635103 0.027130547868 
0.026708504666 0.026726847393 0.026744271992 0.026760778645 0.026776360019 0.026791015195 0.026804741567 0.026817537601 0.026829399134 
0.026840326877 0.026850317938 0.026859370803 0.026867482576 0.026874652744 0.026880880171 0.026886166949 0.026890505474 0.026893900267 
0.026896346972 0.026897846822 0.026898399929 0.026898006095 0.026896664715 0.026894377527 0.026891144243 0.026887024861 0.026881912766 
0.026875825091 0.026868814735 0.026860864763 0.026444964161 0.026462998731 0.026480131555 0.026496359673 0.026511679149 0.026526086067 
0.026539582996 0.026552163387 0.026563826134 0.026574568238 0.026584391358 0.026593290475 0.026601265238 0.026608314002 0.026614496175 
0.026619692292 0.026623957285 0.026627293879 0.026629698045 0.026631171625 0.026631714271 0.026631325455 0.026630006032 0.026627756098 
0.026624580421 0.026620470646 0.026615433861 0.026609467609 0.026602574569 0.02659475675 0.026185007114 0.026202739751 0.02621958521 
0.026235540016 0.026250603455 0.026264768655 0.026278038745 0.026290407066 0.026301873853 0.02631243492 0.02632208835 0.026330841532 
0.026338681266 0.026345610668 0.026351630487 0.026356735834 0.026360928703 0.026364206923 0.026366571064 0.026368018876 0.026368550917 
0.026368168054 0.026366871837 0.026364658435 0.026361532322 0.026357489694 0.02635253502 0.026346668711 0.026339891093 0.02633220339 
0.025928447781 0.025945884237 0.025962448287 0.025978136119 0.025992947708 0.026006875872 0.026019922693 0.026032084877 0.026043358915 
0.026053745093 0.026063237893 0.026071839724 0.026079547819 0.026086360007 0.026092278313 0.026097296865 0.026101418641 0.026104640373 
0.026106963044 0.026108386525 0.026108909082 0.026108533553 0.026107257558 0.026105079182 0.026102002863 0.026098028007 0.026093155319 
0.026087386331 0.026080721294 0.026073161411 0.025675303389 0.025692449435 0.025708737274 0.025724160822 0.025738722337 0.025752419939 
0.025765250028 0.025777208054 0.025788294012 0.025798505514 0.025807840931 0.025816295868 0.02582387422 0.025830573955 0.025836390189 
0.025841324228 0.025845375302 0.025848542223 0.025850825022 0.025852224764 0.025852738824 0.025852366677 0.025851109483 0.025848967679 
0.025845941527 0.025842031901 0.025837239499 0.025831565829 0.025825010563 0.025817576224 0.025425515713 0.025442377121 0.025458393843 
0.025473563658 0.025487882125 0.025501351961 0.025513968156 0.025525726778 0.025536627815 0.025546665281 0.025555844235 0.025564159955 
0.025571611618 0.02557819686 0.025583915506 0.025588765995 0.02559274767 0.025595860322 0.025598105673 0.025599478787 0.025599981661 
0.025599615667 0.025598378121 0.0255962707 0.025593293663 0.025589447957 0.025584734047 0.025579153656 0.025572706578 0.02556538908 
0.025179036428 0.025195618873 0.025211369355 0.025226286807 0.025240367921 0.025253612605 0.025266019863 0.025277583511 0.025288302066 
0.025298175325 0.025307200985 0.025315377695 0.025322704587 0.025329179422 0.025334801962 0.025339570533 0.025343485947 0.025346544253 
0.025348748658 0.025350097903 0.025350591083 0.025350228434 0.025349011479 0.025346937701 0.025344008748 0.025340225534 0.025335583581 
0.025330094546 0.025323753038 0.025316560731 0.024935814375 0.024952122975 0.024967612059 0.024982283041 0.024996131039 0.025009156016 
0.025021357073 0.025032728409 0.025043269282 0.025052977656 0.025061852825 0.025069894834 0.025077098822 0.025083463945 0.025088992235 
0.02509368197 0.025097530526 0.025100538668 0.025102705781 0.025104031568 0.025104514797 0.025104156678 0.025102957017 0.025100912487 
0.025098030726 0.025094308522 0.025089746878 0.02508434737 0.025078109327 0.025071034655 0.024695800864 0.024711839426 0.024727073968 
0.02474150056 0.024755120906 0.024767930335 0.024779928226 0.024791111925 0.024801477853 0.024811025041 0.024819752889 0.024827659096 
0.024834742819 0.024841005732 0.024846439312 0.024851049054 0.024854832461 0.024857789041 0.024859919049 0.024861220688 0.024861690229 
0.024861335984 0.02486015441 0.024858145455 0.024855309535 0.024851648423 0.024847161133 0.024841848288 0.024835713615 0.024828753664 
0.024458944553 0.024474719798 0.024489704101 0.024503892958 0.024517288652 0.024529886593 0.024541686413 0.024552683136 0.024562877186 
0.024572267933 0.024580851285 0.024588628507 0.024595593658 0.024601749033 0.024607092925 0.02461162371 0.024615338315 0.02461824444 
0.024620337286 0.024621615947 0.024622080771 0.024621730802 0.024620566465 0.024618588687 0.024615797553 0.024612193619 0.024607781471 
0.024602554307 0.024596516503 0.024589669393 0.024225202169 0.02424071737 0.02425545242 0.024269408193 0.024282583466 0.024294973897 
0.024306579508 0.024317395228 0.02432742231 0.02433665987 0.024345100161 0.024352745192 0.024359590256 0.024365642916 0.024370897285 
0.024375353225 0.024379008317 0.024381864802 0.024383921387 0.024385177453 0.024385632232 0.024385285969 0.02438413903 0.024382191319 
0.024379448607 0.02437590152 0.024371556337 0.024366413809 0.024360472865 0.024353735901 0.023994518368 0.024009780062 0.024024274277 
0.024038002469 0.024050961517 0.024063149205 0.024074563234 0.02408519862 0.024095060155 0.024104141816 0.024112441808 0.024119960929 
0.024126696703 0.024132648165 0.024137814613 0.024142195615 0.024145793993 0.024148599964 0.024150620844 0.024151853362 0.024152298425 
0.024151958375 0.024150827749 0.024148909783 0.024146204581 0.024142713082 0.024138436948 0.024133374974 0.024127533505 0.02412090484 
0.023766849108 0.023781860617 0.02379611779 0.023809627552 0.023822373983 0.023834361396 0.023845590574 0.023856054428 0.023865751727 
0.023874683108 0.023882845825 0.023890239985 0.023896863788 0.023902716783 0.023907796684 0.023912103908 0.023915637224 0.023918396452 
0.023920380819 0.023921593261 0.023922029065 0.023921689455 0.023920574862 0.023918685755 0.023916022347 0.023912585218 0.023908376581 
0.02390339778 0.023897644719 0.023891122201 0.023542161827 0.023556925668 0.023570950169 0.023584233606 0.023596775123 0.023608565624 
0.023619609835 0.023629900534 0.023639437989 0.023648221885 0.023656250942 0.023663522618 0.023670036881 0.023675791894 0.023680787153 
0.023685021439 0.023688497493 0.023691209205 0.023693158654 0.023694346016 0.023694771321 0.023694435002 0.023693336001 0.023691474838 
0.023688851946 0.023685472428 0.023681328269 0.023676424064 0.023670761924 0.023664341433 0.023320389616 0.023334914842 0.023348714859 
0.023361779917 0.023374114175 0.023385712211 0.023396575871 0.023406697603 0.023416079159 0.023424718735 0.023432614609 0.023439767197 
0.023446173227 0.023451835517 0.023456747341 0.023460910425 0.023464325124 0.023466990259 0.023468905883 0.023470071164 0.023470486826 
0.023470152929 0.023469069482 0.023467238081 0.023464655093 0.023461324461 0.023457244642 0.023452416906 0.023446842921 0.023440524388 
0.023101499915 0.023115789644 0.023129362924 0.023142216942 0.023154351036 0.023165759923 0.023176443869 0.023186401099 0.023195629294 
0.023204127164 0.023211895702 0.023218930422 0.023225230472 0.023230796031 0.02323562608 0.023239719183 0.023243075922 0.02324569518 
0.023247577022 0.02324872189 0.023249126729 0.023248797659 0.023247728714 0.023245921985 0.023243377049 0.023240097201 0.023236080223 
0.023231327015 0.0232258399 0.023219620376 0.022885440793 0.02289950172 0.022912856007 0.022925501276 0.022937439243 0.022948662468 
0.022959173026 0.022968968857 0.022978046037 0.022986404934 0.022994043349 0.02300096131 0.023007158184 0.0230126312 0.023017380647 
0.02302140509 0.023024704852 0.023027279031 0.023029127501 0.023030253426 0.023030649753 0.023030318918 0.023029263816 0.023027483149 
0.023024976133 0.023021745842 0.023017789329 0.023013109729 0.023007708293 0.023001585295 0.022672175707 0.022686009861 0.022699148492 
0.022711591434 0.022723335618 0.022734377912 0.022744717603 0.022754353035 0.022763282187 0.022771502479 0.022779015883 0.022785820075 
0.022791913744 0.022797296847 0.022801966792 0.022805924426 0.022809167574 0.022811699606 0.02281351519 0.022814617129 0.022815003757 
0.02281467591 0.022813632498 0.022811876495 0.02280940732 0.022806224771 0.022802328518 0.022797721184 0.022792402193 0.022786373845 
0.022461662836 0.022475274176 0.022488202309 0.022500443141 0.022511995067 0.022522858646 0.022533030575 0.022542509463 0.022551293219 
0.022559381134 0.022566769559 0.022573462184 0.022579455455 0.022584749294 0.022589341308 0.022593234299 0.02259642243 0.022598908066 
0.022600691175 0.022601771998 0.022602148816 0.02260182184 0.022600792489 0.022599059687 0.022596628048 0.022593491048 0.022589653551 
0.022585116286 0.02257987919 0.02257394396 0.022253853563 0.022267247979 0.022279967724 0.022292010971 0.02230337748 0.022314064446 
0.022324072177 0.022333397336 0.02234203829 0.022349994135 0.022357263692 0.022363846294 0.022369739179 0.022374946596 0.022379462829 
0.022383287779 0.022386421427 0.022388864002 0.022390614676 0.022391673963 0.022392040983 0.022391715983 0.022390699341 0.022388990689 
0.022386591623 0.022383502379 0.022379722664 0.022375253247 0.022370095738 0.022364250969 0.022048711176 0.022061890612 0.022074405565 
0.02208625585 0.022097439666 0.02210795482 0.022117800233 0.022126974412 0.022135475225 0.022143301615 0.022150452264 0.022156928885 
0.022162726213 0.022167845461 0.022172283424 0.022176044783 0.02217912479 0.022181524114 0.022183243232 0.022184282246 0.02218463918 
0.022184314805 0.02218331017 0.022181624579 0.022179260154 0.022176215654 0.022172491745 0.022168089056 0.022163009195 0.022157249624 
0.029458066596 0.029479550997 0.029499957488 0.029519289729 0.029537542091 0.029554708815 0.029570789999 0.02958578221 0.029599683369 
0.029612489036 0.029624198766 0.029634807637 0.029644315444 0.029652720206 0.0296600199 0.02966621398 0.029671300663 0.029675283002 
0.029678152772 0.029679912722 0.029680565048 0.029680104998 0.029678535509 0.029675856739 0.02967206871 0.029667167152 0.029661169393 
0.029654060264 0.029645895405 0.029636572681 0.029159234876 0.029180348222 0.029200408174 0.029219410355 0.029237345856 0.029254219054 
0.029270026082 0.029284760419 0.02929842285 0.029311008463 0.029322515589 0.02933294363 0.029342287533 0.02935054775 0.029357721761 
0.029363809083 0.029368807847 0.029372718015 0.029375537835 0.029377269212 0.029377912049 0.029377460056 0.029375922952 0.029373290169 
0.02936962203 0.029364808612 0.029358906827 0.029351918692 0.029343843681 0.029334683418 0.028864425539 0.02888519462 0.028904913027 
0.028923591692 0.028941222274 0.028957806176 0.028973342687 0.028987824687 0.029001253169 0.02901362313 0.029024932971 0.029035180756 
0.02904436604 0.029052483915 0.029059535067 0.029065517891 0.029070430731 0.029074278106 0.029077049602 0.029078751593 0.029079379176 
0.029078992758 0.029077473742 0.029074888857 0.029071228451 0.029066497491 0.029060696945 0.029053828715 0.02904589236 0.029036890103 
0.028573637311 0.028594038457 0.028613418335 0.028631753921 0.028649098553 0.02866539977 0.028680669855 0.028694905913 0.028708104831 
0.028720263366 0.02873137984 0.02874145639 0.028750484682 0.028758463769 0.028765394246 0.028771274269 0.028776103532 0.028779880107 
0.02878266672 0.028784336344 0.028784951764 0.028784513649 0.028783021914 0.028780476823 0.028776879068 0.028772228892 0.028766527456 
0.028759780069 0.028751979832 0.02874313149 0.028286743421 0.028306796214 0.02832584848 0.0283438934 0.028360930594 0.028376954571 
0.028391941605 0.028405950169 0.028418923763 0.028430875102 0.028441801952 0.028451702788 0.028460575436 0.028468419699 0.028475296224 
0.028481074924 0.028485820129 0.028489530803 0.028492208833 0.02849384907 0.02849445403 0.028494023083 0.028492556506 0.028490054562 
0.028486517925 0.028481946813 0.028476342575 0.028469706239 0.02846203898 0.028453341504 0.028003701505 0.028023416308 0.028042142283 
0.028059884465 0.028076632611 0.028092385634 0.028107139381 0.028120895602 0.028133648697 0.028145465912 0.028156182583 0.02816592769 
0.028174647992 0.028182355976 0.028189052259 0.028194732359 0.028199396598 0.028203045767 0.028205675734 0.028207287476 0.028207881565 
0.028207457965 0.028206015971 0.028203556207 0.028200079541 0.02819558595 0.028190076622 0.028183552989 0.028176016263 0.028167467613 
0.027724458542 0.027743837164 0.027762249234 0.027779691149 0.027796155788 0.027811714533 0.027826218395 0.027839738765 0.027852274373 
0.027863822068 0.027874379729 0.027883945405 0.027892517211 0.027900094508 0.027906665898 0.027912250601 0.027916834849 0.027920422329 
0.027923006975 0.027924591082 0.027925174465 0.027924757168 0.027923339608 0.027920921311 0.027917503116 0.027913085679 0.027907669495 
0.027901256249 0.027893847393 0.027885443044 0.02744902819 0.027468081229 0.027486182469 0.027503328343 0.027519513978 0.027534736471 
0.0275489969 0.027562288232 0.02757461151 0.027585963653 0.027596342357 0.027605745575 0.027614172286 0.027621621051 0.027628090122 
0.027633578545 0.027638088306 0.02764161255 0.02764415314 0.027645699749 0.02764627272 0.027645862016 0.027644467905 0.027642090361 
0.027638729527 0.027634386158 0.027629060771 0.027622757236 0.027615473971 0.027607211516 0.027177204336 0.027195937572 0.027213734174 
0.027230590189 0.027246504264 0.027261470075 0.027275490005 0.02728855883 0.027300672481 0.027311831926 0.027322035444 0.027331279905 
0.027339563955 0.027346886502 0.027353245888 0.027358643199 0.027363072782 0.027366538274 0.027369035354 0.027370565549 0.027371128379 
0.027370723896 0.027369352592 0.027367026321 0.027363721838 0.027359430296 0.027354194591 0.027347997076 0.027340833657 0.027332768142 
0.026909006692 0.026927425822 0.02694492364 0.026961496521 0.026977143132 0.026991857595 0.027005641133 0.027018490059 0.027030400772 
0.027041371204 0.027051402317 0.027060490725 0.0270686353 0.027075833531 0.027082085289 0.027087390516 0.02709174542 0.027095152184 
0.02709760652 0.027099109983 0.027099662813 0.027099322945 0.027097973491 0.027095673008 0.027092427066 0.027088229335 0.027083080661 
0.027076983824 0.027069940792 0.027061963046 0.026644444474 0.026662555625 0.026679760565 0.026696055717 0.0267114388 0.026725907306 
0.026739459473 0.026752091766 0.026763798849 0.026774586435 0.026784447044 0.026793382685 0.026801388994 0.026808469136 0.026814616402 
0.026819830282 0.026824110987 0.026827457254 0.026829871223 0.026831348208 0.026831890487 0.026831497681 0.026830169252 0.026827908721 
0.026824713679 0.026820582631 0.026815520132 0.026809525894 0.02680260039 0.026794745402 0.026383331546 0.02640114003 0.026418057896 
0.026434080951 0.026449205399 0.026463433672 0.026476758441 0.026489179483 0.026500694129 0.026511300823 0.026520995806 0.026529780813 
0.026537652853 0.02654461187 0.026550653448 0.026555779183 0.02655998677 0.026563276667 0.026565647829 0.02656710061 0.026567632818 
0.026567247158 0.026565941979 0.026563715403 0.026560571471 0.0265565097 0.026551530638 0.02654563641 0.026538826021 0.026531101729 
0.026125681852 0.026143194705 0.026159829623 0.02617558559 0.026190457958 0.026204446608 0.026217550388 0.02622976399 0.026241086099 
0.0262515152 0.026261049214 0.026269685256 0.026277424615 0.026284267096 0.026290206611 0.02629524576 0.026299382134 0.026302616183 
0.026304946831 0.026306372924 0.026306899565 0.026306516692 0.026305231071 0.026303041582 0.026299949154 0.026295954211 0.026291057938 
0.02628526063 0.026278562994 0.026270966754 0.025871445196 0.025888666355 0.025905024913 0.025920518608 0.025935143202 0.025948896416 
0.025961782574 0.025973791896 0.025984925096 0.025995180087 0.026004555282 0.026013048486 0.026020658864 0.026027384215 0.026033224198 
0.02603817821 0.026042243328 0.026045422463 0.026047712872 0.026049116091 0.02604962854 0.026049253393 0.026047988012 0.026045833884 
0.026042791725 0.026038862141 0.026034046268 0.026028343916 0.026021757181 0.026014281405 0.025620562974 0.025637498801 0.02565358603 
0.025668822237 0.025683204084 0.025696732112 0.025709404198 0.025721213749 0.02573216152 0.025742246327 0.025751464632 0.02575981771 
0.02576729683 0.025773908306 0.025779649918 0.02578452026 0.025788517316 0.025791644577 0.02579389589 0.025795273361 0.025795776087 
0.025795404581 0.025794160351 0.025792040759 0.025789047943 0.025785180247 0.025780438196 0.025774829283 0.025768350203 0.025761002553 
0.025372987339 0.025389643269 0.025405463853 0.025420446915 0.025434592295 0.025447895684 0.02546035674 0.025471971475 0.025482737481 
0.025492654113 0.025501718869 0.025509932603 0.02551729038 0.025523790039 0.025529435758 0.025534227353 0.025538157786 0.025541229393 
0.025543441834 0.02554479462 0.025545288256 0.025544921552 0.025543690689 0.025541606268 0.025538656478 0.02553485343 0.025530193388 
0.025524675976 0.025518302813 0.025511075007 0.025128668054 0.025145048666 0.025160608851 0.025175344487 0.025189256217 0.025202339664 
0.025214594379 0.025226015978 0.02523660477 0.025246356248 0.025255270713 0.025263345977 0.02527058108 0.025276978215 0.025282527916 
0.025287235479 0.025291099743 0.025294119147 0.025296293229 0.025297622447 0.025298101512 0.025297739284 0.025296531607 0.025294478759 
0.025291582347 0.025287840576 0.025283256017 0.025277828164 0.0252715584 0.025264450764 0.024887555607 0.024903666922 0.024918970552 
0.02493346417 0.024947146455 0.024960014033 0.024972065557 0.024983297415 0.024993711136 0.025003302734 0.025012069754 0.02502001087 
0.025027128008 0.025033415105 0.025038872787 0.025043500402 0.025047299811 0.025050262754 0.025052399388 0.02505370535 0.025054179288 
0.025053821288 0.025052631747 0.02505061094 0.025047759123 0.025044077188 0.025039567734 0.025034229564 0.025028061392 0.025021066783 
0.02464960286 0.024665448077 0.024680498115 0.024694755202 0.024708211878 0.024720867641 0.024732720592 0.024743769068 0.024754009942 
0.024763443994 0.024772067593 0.02477987692 0.024786873303 0.02479305056 0.024798417774 0.024802968748 0.024806702077 0.024809620273 
0.024811719627 0.02481300166 0.02481346636 0.024813112611 0.024811940687 0.02480995113 0.024807144358 0.024803522933 0.024799084243 
0.024793830771 0.024787763853 0.024780881969 0.024414757214 0.024430344428 0.0244451488 0.024459171608 0.024472408361 0.024484855773 
0.024496513897 0.024507380575 0.024517451224 0.024526728226 0.024535206674 0.024542886635 0.024549766372 0.024555845815 0.024561123387 
0.024565598002 0.024569269689 0.024572136919 0.024574200296 0.024575458954 0.024575914004 0.024575567189 0.024574414175 0.024572454883 
0.02456969174 0.024566125924 0.024561756655 0.024556585632 0.024550615442 0.024543846807 0.024182973014 0.024198302357 0.024212866834 
0.02422666013 0.024239680441 0.024251924198 0.02426339411 0.024274083046 0.024283988195 0.024293110853 0.024301450581 0.024309002765 
0.02431577332 0.024321751519 0.024326940884 0.024331340307 0.024334949873 0.024337769358 0.024339795497 0.024341031652 0.024341478169 
0.024341131834 0.024339993995 0.024338064078 0.024335343759 0.024331833866 0.024327533571 0.024322444617 0.024316571679 0.024309909027 
0.023954214595 0.023969294227 0.023983619557 0.023997187701 0.024009997854 0.024022041432 0.024033322179 0.024043834277 0.024053576652 
0.024062549154 0.024070749505 0.024078178804 0.024084832733 0.024090711443 0.02409581388 0.024100139384 0.024103687849 0.024106461479 
0.024108452138 0.024109665624 0.024110099976 0.024109756714 0.024108634795 0.024106733971 0.024104057289 0.024100602024 0.024096372466 
0.024091363991 0.024085579843 0.024079019228 0.023728418421 0.02374325504 0.023757348459 0.023770695743 0.023783294011 0.023795141275 
0.023806238164 0.023816578112 0.023826161186 0.023834985561 0.023843051555 0.023850358384 0.023856902318 0.023862683504 0.023867701228 
0.023871956677 0.023875445158 0.023878168667 0.02388012576 0.0238813158 0.02388174093 0.023881399515 0.023880293295 0.023878421257 
0.023875786401 0.023872384057 0.023868217007 0.023863286243 0.023857593902 0.0238511399 0.023505548305 0.023520146223 0.023534010907 
0.023547140342 0.023559532243 0.023571188565 0.023582102676 0.023592273821 0.023601699675 0.023610379934 0.02361831348 0.023625498758 
0.023631938429 0.023637623757 0.023642557888 0.023646739961 0.023650169052 0.023652846201 0.023654768925 0.023655938176 0.02365635224 
0.023656013949 0.023654925289 0.023653080724 0.02365048241 0.023647132796 0.023643029884 0.023638175906 0.023632572339 0.02362622001 
0.023285557328 0.02329991931 0.02331355965 0.023326477462 0.023338670164 0.023350135512 0.023360870632 0.023370875762 0.023380148238 
0.023388689076 0.023396492512 0.023403559623 0.023409889199 0.023415481711 0.023420333647 0.023424445676 0.023427816678 0.023430446909 
0.02343233676 0.023433484236 0.023433892774 0.023433555871 0.023432478422 0.023430660602 0.023428102175 0.023424802348 0.023420762366 
0.023415983723 0.023410467286 0.023404214201 0.023068402723 0.023082533131 0.023095953319 0.02310866359 0.023120658284 0.02313193746 
0.023142501861 0.02315234455 0.023161464424 0.023169863186 0.023177538853 0.023184489913 0.023190715171 0.023196214914 0.023200986287 
0.023205029332 0.023208343218 0.02321092816 0.023212787162 0.023213913237 0.023214309383 0.023213975711 0.023212911397 0.023211119339 
0.023208598871 0.023205347837 0.023201370193 0.023196665146 0.023191233147 0.02318507714 0.022854041334 0.022867944307 0.022881153031 
0.022893656318 0.022905458343 0.022916553657 0.02292694439 0.022936627112 0.022945600647 0.022953860965 0.022961411124 0.022968248155 
0.022974370912 0.022979778635 0.022984471613 0.022988446819 0.022991706835 0.022994247318 0.022996070808 0.022997175358 0.02299756176 
0.022997230015 0.022996180093 0.022994411667 0.022991928628 0.022988725984 0.022984808379 0.022980174649 0.022974827016 0.022968765642 
0.022642433234 0.022656114141 0.022669106871 0.022681408965 0.0226930202 0.022703937728 0.022714159643 0.022723685572 0.022732513349 
0.022740640652 0.022748067782 0.022754790905 0.022760812986 0.022766131262 0.022770747422 0.022774656978 0.022777859258 0.022780355589 
0.022782146483 0.022783229856 0.022783606464 0.022783276344 0.022782239424 0.022780495923 0.022778046306 0.022774893006 0.022771034142 
0.022766470872 0.022761204432 0.022755234627 0.022433530612 0.02244699308 0.022459777341 0.022471881936 0.022483306608 0.022494048047 
0.022504105017 0.022513476377 0.022522161382 0.022530156502 0.022537462392 0.022544077382 0.022550002604 0.022555231215 0.022559768089 
0.022563611087 0.022566760239 0.022569212684 0.022570971396 0.022572033729 0.022572400485 0.022572070981 0.022571046643 0.022569327651 
0.022566913715 0.022563806138 0.022560003566 0.022555508799 0.022550322189 0.022544441476 0.022227300488 0.022240547031 0.022253122862 
0.022265033523 0.022276274846 0.022286843565 0.022296739146 0.022305958611 0.022314503001 0.022322368269 0.022329556982 0.022336063616 
0.022341889604 0.022347033563 0.022351494904 0.022355271215 0.022358366775 0.022360776392 0.02236250301 0.022363543915 0.022363900753 
0.022363572931 0.02236256032 0.022360864906 0.022358484454 0.022355421327 0.022351675593 0.022347247872 0.022342136329 0.022336347227 
0.029665150847 0.029686707733 0.029707188702 0.029726589111 0.029744900813 0.029762126898 0.02977826626 0.02979331043 0.029807257756 
0.029820106887 0.029831853865 0.029842499012 0.029852037642 0.029860469047 0.029867791927 0.029874004813 0.029879101791 0.029883091042 
0.029885967433 0.029887732638 0.029888386178 0.029887921651 0.02988634909 0.02988365738 0.029879852685 0.029874935747 0.029868959386 
0.029861819524 0.029853571289 0.029844213916 0.029365313804 0.029386502911 0.029406634355 0.029425704726 0.029443705232 0.029460636376 
0.029476495957 0.029491282753 0.029504991335 0.029517620365 0.029529166467 0.029539627868 0.029549004141 0.029557290746 0.029564488159 
0.029570594109 0.029575608649 0.029579529204 0.029582361181 0.029584096481 0.029584734437 0.029584277789 0.029582725244 0.029580138833 
0.029576398073 0.029571564148 0.029565637938 0.029558620792 0.029550513712 0.029541317928 0.029069521378 0.029090349898 0.029110127387 
0.029128872734 0.029146566092 0.029163208576 0.029178798119 0.029193332669 0.029206807773 0.029219220773 0.0292305697 0.029240852567 
0.029250072526 0.029258217593 0.029265292098 0.029271293705 0.029276222255 0.029280076074 0.02928285722 0.029284619979 0.029285245689 
0.029284795213 0.029283269104 0.029280667564 0.029276990639 0.029272239215 0.029266414258 0.029259520877 0.029251552606 0.029242513753 
0.028777694218 0.028798167004 0.028817619682 0.028836043797 0.028853438018 0.028869791371 0.028885114172 0.028899401493 0.028912647447 
0.028924848994 0.028936004488 0.028946112288 0.028955169782 0.028963177161 0.028970130469 0.028976029962 0.028980936858 0.028984723877 
0.02898745596 0.028989128191 0.028989742938 0.028989300203 0.028987799898 0.028985242488 0.028981628064 0.02897695748 0.028971231692 
0.028964452 0.028956618963 0.028947735154 0.028489773385 0.028509901736 0.028529022682 0.028547136065 0.028564235449 0.028580319661 
0.028595382424 0.028609427253 0.028622448331 0.028634433735 0.028645399537 0.028655335241 0.028664305 0.028672173766 0.028679008848 
0.028684806508 0.028689566584 0.028693291479 0.028695974026 0.028697618182 0.028698222162 0.028697786657 0.028696311578 0.028693797376 
0.028690244165 0.028685652796 0.028680024144 0.028673359556 0.028665659676 0.028656926716 0.028205705689 0.02822549178 0.028244292044 
0.028262097572 0.02827890896 0.028294719673 0.028309530179 0.028323406046 0.028336205469 0.028347995381 0.028358774096 0.0283685401 
0.028377305686 0.028385017622 0.028391735108 0.02839743571 0.028402116688 0.028405775548 0.028408412826 0.028410028139 0.028410621859 
0.02841019337 0.028408742952 0.028406271042 0.028402777726 0.02839826393 0.028392730829 0.02838617879 0.028378609151 0.028370027289 