# vtk DataFile Version 5.1
vtk output
ASCII
DATASET POLYDATA
POINTS 2474 double
58.611110687 -9.4444446564 1.258879255e-14 57.569446564 -9.4444446564 1.2347858264e-14 58.611110687 -12.222222328 1.258879255e-14 
58.611110687 -12.222222328 1.258879255e-14 57.569446564 -9.4444446564 1.2347858264e-14 55.833335876 -12.222222328 1.1946300237e-14 
55.833335876 -12.222222328 1.1946300237e-14 57.569446564 -9.4444446564 1.2347858264e-14 56.597221375 -9.4444446564 1.2122985028e-14 
55.833335876 -12.222222328 1.1946300237e-14 56.597221375 -9.4444446564 1.2122985028e-14 55.833335876 -9.4444446564 1.1946300237e-14 
56.597221375 -9.4444446564 1.2122985028e-14 57.569446564 -9.4444446564 1.2347858264e-14 56.597221375 -1.6319445372 1.2122985028e-14 
56.597221375 -1.6319445372 1.2122985028e-14 57.569446564 -9.4444446564 1.2347858264e-14 57.569446564 -1.6319445372 1.2347858264e-14 
56.597221375 -1.6319445372 1.2122985028e-14 57.569446564 -1.6319445372 1.2347858264e-14 55.416667938 -0.72916668653 1.1849925993e-14 
55.416667938 -0.72916668653 1.1849925993e-14 57.569446564 -1.6319445372 1.2347858264e-14 58.611110687 -1.6319445372 1.258879255e-14 
55.416667938 -0.72916668653 1.1849925993e-14 58.611110687 -1.6319445372 1.258879255e-14 55.416667938 0.72916668653 1.1849925993e-14 
55.416667938 0.72916668653 1.1849925993e-14 58.611110687 -1.6319445372 1.258879255e-14 58.611110687 1.840277791 1.258879255e-14 
55.416667938 0.72916668653 1.1849925993e-14 58.611110687 1.840277791 1.258879255e-14 -59.444450378 1.840277791 -1.4717161213e-14 
-59.444450378 1.840277791 -1.4717161213e-14 -59.444450378 0.72916668653 -1.4717161213e-14 55.416667938 0.72916668653 1.1849925993e-14 
-59.444450378 -0.72916668653 -1.4717161213e-14 -59.444450378 -1.6319445372 -1.4717161213e-14 55.416667938 -0.72916668653 1.1849925993e-14 
55.416667938 -0.72916668653 1.1849925993e-14 -59.444450378 -1.6319445372 -1.4717161213e-14 56.597221375 -1.6319445372 1.2122985028e-14 
4.5535728997 -1.12893709 8.5420290281e-17 -27.445438739 -1.3804408136 -7.3158704613e-15 -34.01389122 -0.72916668653 -8.835136967e-15 
-8.5803378094 1.3482428786 -2.9524201581e-15 -34.012394094 1.5942603348 -8.8347906855e-15 -34.01389122 0.72916668653 -8.835136967e-15 
4.5555496216 -1.6319445372 8.5877501067e-17 24.597221375 -1.6319445372 4.7214656706e-15 40.597221375 -1.6319445372 8.4222253491e-15 
-5.3888893127 1.840277791 -2.2142461635e-15 26.611110687 1.840277791 5.1872731935e-15 42.611110687 1.840277791 8.888032872e-15 
4.5525553693 1.221201599 8.5184938051e-17 -27.445947505 1.530739695 -7.3159881374e-15 29.984611654 0.97518414276 5.9675554655e-15 
17.268583512 1.0981928709 3.0263702018e-15 42.700639796 0.85217541465 8.9087407292e-15 -8.5833320618 -0.72916668653 -2.9531127211e-15 
23.416667938 -0.72916668653 4.4484066359e-15 -46.729170799 -1.1805556118 -1.177614909e-14 -8.5833320618 0.72916668653 -2.9531127211e-15 
23.416667938 0.88393935508 4.4484066359e-15 -46.729170799 1.1837197968 -1.177614909e-14 -21.299573111 1.1397114793 -5.8943472297e-15 
4.5535728997 -1.12893709 8.5420290281e-17 -27.444450378 -1.5061907333 -7.3156418559e-15 29.985120419 -0.92905188828 5.9676731416e-15 
-11.443956183 -1.4433118893 -3.6147678712e-15 -3.4427205865 -1.4118685827 -1.7641022417e-15 0.55987506345 -1.3961391569 -8.3831195475e-16 
-27.444450378 -1.6319445372 -7.3156418559e-15 -27.445438739 -1.3804408136 -7.3158704613e-15 7.4166679382 0.72916668653 7.4764695742e-16 
23.416667938 0.72916668653 4.4484066359e-15 23.418165064 1.0387047826 4.4487529174e-15 2.5651354451 -1.3882588718 -3.7450028191e-16 
-4.5833320618 0.72916668653 -2.0279228014e-15 -7.5833320618 0.72916668653 -2.7218152412e-15 -8.0833320618 1.0362937007 -2.8374639811e-15 
-6.5833320618 0.72916668653 -2.4905177613e-15 -0.58333206177 0.72916668653 -1.1027328818e-15 7.4189136275 1.1934738306 7.4816637968e-16 
-0.58071209099 1.2708583546 -1.1021268892e-15 -4.5805249502 1.3095506166 -2.0272735236e-15 -11.44593292 -1.2546889518 -3.6152250855e-15 
-11.444450378 -1.6319445372 -3.6148821774e-15 -3.4461800101 -1.1918130209 -1.7649023976e-15 -3.4444503784 -1.6319445372 -1.7645023382e-15 
-11.446696068 1.375970647 -3.6154015997e-15 -11.44593292 -1.2546889518 -3.6152250855e-15 7.4166679382 -0.72916668653 7.4764695742e-16 
55.138893127 -0.45138889551 1.1805757178e-14 -60.416667938 0.45138889551 -1.3853694803e-14 -61.111114502 -0.45138889551 -1.4034395729e-14 
-61.111114502 -0.45138889551 -1.4034395729e-14 -60.416667938 0.45138889551 -1.3853694803e-14 -60.416667938 27.083335876 -1.3076701911e-14 
-61.111114502 -0.45138889551 -1.4034395729e-14 -60.416667938 27.083335876 -1.3076701911e-14 -61.111114502 29.861114502 -1.3150021797e-14 
-61.111114502 29.861114502 -1.3150021797e-14 -60.416667938 27.083335876 -1.3076701911e-14 -58.333332062 29.861114502 -1.2532573898e-14 
-58.333332062 29.861114502 -1.2532573898e-14 -60.416667938 27.083335876 -1.3076701911e-14 -58.333332062 27.083335876 -1.2613616198e-14 
55.138893127 -0.45138889551 1.1805757178e-14 55.138893127 0.45138889551 1.1832095917e-14 -60.416667938 0.45138889551 -1.3853694803e-14 
50.138889313 -27.083335876 1.0661321645e-14 49.097225189 -27.083335876 1.0480621565e-14 50.138889313 -29.861114502 1.0661321645e-14 
50.138889313 -29.861114502 1.0661321645e-14 49.097225189 -27.083335876 1.0480621565e-14 48.402778625 -27.083335876 1.0360154184e-14 
50.138889313 -29.861114502 1.0661321645e-14 48.402778625 -27.083335876 1.0360154184e-14 47.361114502 -29.861114502 1.0179454104e-14 
47.361114502 -29.861114502 1.0179454104e-14 48.402778625 -27.083335876 1.0360154184e-14 47.361114502 -27.083335876 1.0179454104e-14 
48.402778625 -27.083335876 1.0360154184e-14 49.097225189 -27.083335876 1.0480621565e-14 48.402778625 -10.277778625 1.0360154184e-14 
48.402778625 -10.277778625 1.0360154184e-14 49.097225189 -27.083335876 1.0480621565e-14 49.097225189 -9.5833339691 1.0480621565e-14 
48.402778625 -10.277778625 1.0360154184e-14 49.097225189 -9.5833339691 1.0480621565e-14 6.4583334923 -9.5833339691 3.0839464228e-15 
6.4583334923 -3.2986111641 3.0839464228e-15 5.7638888359 -3.2986111641 2.9634793721e-15 6.4583334923 -9.5833339691 3.0839464228e-15 
6.4583334923 -9.5833339691 3.0839464228e-15 5.7638888359 -3.2986111641 2.9634793721e-15 5.7638888359 -10.277778625 2.9634793721e-15 
6.4583334923 -9.5833339691 3.0839464228e-15 5.7638888359 -10.277778625 2.9634793721e-15 48.402778625 -10.277778625 1.0360154184e-14 
7.5000004768 -3.2986111641 3.2646469988e-15 7.5000004768 -1.9097223282 3.2646469988e-15 6.4583334923 -3.2986111641 3.0839464228e-15 
6.4583334923 -3.2986111641 3.0839464228e-15 7.5000004768 -1.9097223282 3.2646469988e-15 4.7222223282 -1.9097223282 2.7827788787e-15 
6.4583334923 -3.2986111641 3.0839464228e-15 4.7222223282 -1.9097223282 2.7827788787e-15 5.7638888359 -3.2986111641 2.9634793721e-15 
5.7638888359 -3.2986111641 2.9634793721e-15 4.7222223282 -1.9097223282 2.7827788787e-15 4.7222223282 -3.2986111641 2.7827788787e-15 
33.097225189 -9.5833339691 7.7050615644e-15 21.763888836 -10.277778625 5.7390393731e-15 23.750001907 -27.083335876 4.8186764163e-15 
23.750001907 -29.861114502 4.8186764163e-15 24.791667938 -27.083335876 5.0596102794e-15 24.791667938 -27.083335876 5.0596102794e-15 
23.750001907 -29.861114502 4.8186764163e-15 26.527778625 -29.861114502 5.4611668651e-15 24.791667938 -27.083335876 5.0596102794e-15 
26.527778625 -29.861114502 5.4611668651e-15 25.486112595 -27.083335876 5.2202330019e-15 25.486112595 -27.083335876 5.2202330019e-15 
26.527778625 -29.861114502 5.4611668651e-15 26.527778625 -27.083335876 5.4611668651e-15 24.791667938 -27.083335876 5.0596102794e-15 
25.486112595 -27.083335876 5.2202330019e-15 24.791667938 -19.305555344 5.0596102794e-15 24.791667938 -19.305555344 5.0596102794e-15 
25.486112595 -27.083335876 5.2202330019e-15 25.486112595 -18.611112595 5.2202330019e-15 24.791667938 -19.305555344 5.0596102794e-15 
25.486112595 -18.611112595 5.2202330019e-15 -5.3472223282 -18.611112595 -1.9114140682e-15 -5.3472223282 -3.2986111641 -1.9114140682e-15 
-6.0416669846 -3.2986111641 -2.0720367907e-15 -5.3472223282 -18.611112595 -1.9114140682e-15 -5.3472223282 -18.611112595 -1.9114140682e-15 
-6.0416669846 -3.2986111641 -2.0720367907e-15 -6.0416669846 -19.305555344 -2.0720367907e-15 -5.3472223282 -18.611112595 -1.9114140682e-15 
-6.0416669846 -19.305555344 -2.0720367907e-15 24.791667938 -19.305555344 5.0596102794e-15 -5.0000004768 -3.2986111641 -1.8311028172e-15 
-5.0000004768 -1.9097223282 -1.8311028172e-15 -5.3472223282 -3.2986111641 -1.9114140682e-15 -5.3472223282 -3.2986111641 -1.9114140682e-15 
-5.0000004768 -1.9097223282 -1.8311028172e-15 -6.3888893127 -1.9097223282 -2.152348152e-15 -5.3472223282 -3.2986111641 -1.9114140682e-15 
-6.3888893127 -1.9097223282 -2.152348152e-15 -6.0416669846 -3.2986111641 -2.0720367907e-15 -6.0416669846 -3.2986111641 -2.0720367907e-15 
-6.3888893127 -1.9097223282 -2.152348152e-15 -6.3888893127 -3.2986111641 -2.152348152e-15 9.4861125946 -18.611112595 1.519486605e-15 
9.9583330154 -19.305555344 1.6287096063e-15 -5.6792276497 -11.290396805 -1.9882057868e-15 7.7777781487 3.5069446564 1.2649025699e-15 
7.7777781487 2.118055582 1.2649025699e-15 8.8194446564 3.5069446564 1.505836433e-15 8.8194446564 3.5069446564 1.505836433e-15 
7.7777781487 2.118055582 1.2649025699e-15 10.555556297 2.118055582 1.9073930555e-15 8.8194446564 3.5069446564 1.505836433e-15 
10.555556297 2.118055582 1.9073930555e-15 9.5138893127 3.5069446564 1.666459082e-15 9.5138893127 3.5069446564 1.666459082e-15 
10.555556297 2.118055582 1.9073930555e-15 10.555556297 3.5069446564 1.9073930555e-15 8.8194446564 3.5069446564 1.505836433e-15 
9.5138893127 3.5069446564 1.666459082e-15 8.8194446564 24.027778625 1.505836433e-15 8.8194446564 24.027778625 1.505836433e-15 
9.5138893127 3.5069446564 1.666459082e-15 9.5138893127 24.722223282 1.666459082e-15 8.8194446564 24.027778625 1.505836433e-15 
9.5138893127 24.722223282 1.666459082e-15 -11.458333969 24.722223282 -3.1843436817e-15 -11.458333969 27.083335876 -3.1843436817e-15 
[...]
CELL_DATA 1702
FIELD FieldData 4
electrode_index 1 1702 int
0 0 0 0 0 0 0 0 0 
0 0 0 0 0 0 0 0 0 
0 0 0 0 0 0 0 0 0 
0 0 0 0 0 0 0 0 0 
0 0 0 0 0 0 0 0 0 
0 0 0 0 0 0 0 0 0 
0 0 0 0 0 0 0 0 0 
0 0 0 0 0 0 0 0 0 
0 0 0 1 1 1 1 1 1 
2 2 2 2 2 2 2 2 2 
2 2 2 2 2 2 2 3 3 
3 3 3 3 3 3 3 3 3 
3 3 3 3 3 3 4 4 4 
4 4 4 4 4 4 4 4 4 
4 4 5 5 5 5 5 5 5 
5 5 5 5 5 5 5 6 6 
6 6 6 6 6 6 6 6 6 
6 6 6 7 7 7 7 7 7 
7 7 7 7 7 7 7 7 7 
7 7 7 8 8 8 8 8 8 
8 8 8 8 8 8 8 8 8 
8 8 8 8 8 8 8 8 8 
9 9 9 9 9 9 9 9 9 
9 9 9 9 9 9 9 10 10 
10 10 10 10 10 10 10 10 10 
10 10 10 10 10 11 11 11 11 
11 11 11 11 11 11 11 11 11 
11 11 11 12 12 12 12 12 12 
12 12 12 12 12 12 12 12 12 
12 13 13 13 13 13 13 13 13 
13 13 13 13 13 13 13 13 14 
14 14 14 14 14 14 14 14 14 
14 14 14 14 14 14 14 14 14 
14 14 14 14 14 14 14 14 14 
14 14 14 14 14 14 14 14 14 
14 14 14 14 14 14 14 14 14 
14 14 14 14 14 14 14 14 14 
14 14 14 14 14 14 14 14 14 
14 14 14 14 14 14 14 14 14 
14 14 14 14 14 14 14 14 14 
14 14 14 14 14 14 14 14 14 
14 14 14 14 14 14 14 14 14 
14 14 14 14 14 14 14 14 14 
14 14 14 14 14 14 14 14 14 
14 14 14 14 14 14 14 14 14 
14 14 14 14 14 14 14 14 14 
14 14 14 14 14 14 14 14 14 
14 14 14 14 14 14 14 14 14 
14 14 14 14 14 14 14 14 14 
14 14 14 14 14 14 14 14 14 
14 14 14 14 14 14 14 14 14 
14 14 14 14 14 14 14 14 14 
14 14 14 14 14 14 14 14 14 
14 14 14 14 14 14 14 14 14 
14 14 14 14 14 14 14 14 14 
14 14 14 14 14 14 14 14 14 
14 14 14 14 14 14 14 14 14 
14 14 14 14 14 14 14 14 14 
14 14 14 14 14 14 14 14 14 
14 14 14 14 14 14 14 14 14 
14 14 14 14 14 14 14 14 14 
14 15 15 15 15 15 15 15 15 
15 15 15 15 15 15 15 15 16 
16 16 16 16 16 16 16 16 16 
16 16 16 16 16 16 17 17 17 
17 17 17 17 17 17 17 17 17 
17 17 17 17 17 17 17 17 17 
17 17 17 17 17 17 17 17 17 
17 17 17 17 17 17 17 17 17 
17 17 17 17 17 17 17 17 17 
17 17 17 17 17 17 17 17 17 
17 17 17 17 17 17 17 17 17 
17 17 17 17 17 17 17 17 17 
17 17 17 17 17 17 17 17 17 
17 17 17 17 17 17 17 17 17 
17 17 17 17 17 17 17 17 17 
17 17 17 17 17 17 17 17 17 
17 17 17 17 17 17 17 17 17 
17 17 17 17 17 17 17 17 17 
17 17 17 17 17 17 17 17 17 
17 17 17 17 17 18 18 18 18 
18 18 18 18 18 18 18 18 18 
18 18 18 18 18 18 18 18 18 
18 18 18 18 18 18 18 18 18 
18 18 18 18 18 18 18 18 18 
18 18 18 18 18 18 18 18 18 
18 18 18 18 18 18 18 18 18 
18 18 18 18 18 18 18 18 18 
18 18 18 18 18 18 18 18 18 
18 18 18 18 18 18 18 18 18 
18 18 18 18 18 18 18 18 18 
18 18 18 18 18 18 18 18 18 
18 18 18 18 18 18 18 18 18 
18 18 18 18 18 18 18 18 18 
18 18 18 18 18 18 18 18 18 
18 18 18 18 18 18 18 18 18 
18 18 18 18 18 18 18 18 18 
18 18 18 18 18 18 18 18 18 
18 18 18 18 18 18 18 18 18 
18 18 18 18 18 18 18 18 18 
18 18 18 18 18 18 18 18 18 
18 18 18 18 18 18 18 18 18 
18 18 18 18 18 18 18 18 18 
18 18 18 18 18 18 18 18 18 
18 18 18 18 18 18 18 18 18 
18 18 18 18 18 18 18 18 18 
18 18 18 18 18 18 18 18 18 
18 18 18 18 18 18 18 18 18 
18 18 18 18 18 18 18 18 18 
18 18 18 18 18 18 18 18 18 
18 18 18 18 18 18 18 18 18 
18 18 18 18 18 18 18 18 18 
18 18 18 18 18 18 18 18 18 
18 18 18 18 18 18 18 18 18 
18 18 18 18 18 18 18 18 18 
18 18 18 18 18 18 18 18 18 
18 18 18 18 18 18 18 18 18 
18 18 18 18 18 18 18 18 18 
18 18 18 18 18 18 18 18 18 
18 18 18 18 18 18 18 18 18 
18 18 18 18 18 18 18 18 18 
18 18 18 18 18 18 18 18 18 
18 18 18 18 18 18 18 18 18 
18 18 18 18 18 18 18 18 18 
18 18 18 18 18 18 18 18 18 
18 18 18 18 18 18 18 18 18 
18 18 18 18 18 18 18 18 18 
18 18 18 18 18 18 18 18 18 
18 18 18 18 18 18 18 18 18 
18 18 18 18 18 18 18 18 18 
18 18 18 18 18 18 18 18 18 
18 18 18 18 18 18 18 18 18 
18 18 18 18 18 18 18 18 18 
18 18 18 18 18 18 18 18 18 
18 18 18 18 18 18 18 18 18 
18 18 18 18 18 18 18 18 18 
18 18 18 18 18 18 18 18 18 
18 18 18 18 18 18 18 18 18 
18 18 18 18 18 18 18 18 18 
18 18 18 18 18 18 18 18 18 
18 18 18 18 18 18 18 18 18 
18 18 18 18 18 18 18 18 18 
18 18 18 18 18 18 18 18 18 
18 18 18 18 18 18 18 18 18 
18 18 18 18 18 18 18 18 18 
18 18 18 18 18 18 18 18 18 
18 18 18 18 18 18 18 18 18 
18 18 18 18 18 18 18 18 18 
18 18 18 18 18 18 18 18 18 
18 18 18 18 18 18 18 18 18 
18 18 18 18 18 18 18 18 18 
18 18 18 18 18 18 18 18 18 
18 18 18 18 18 18 18 18 18 
18 18 18 18 18 18 18 18 18 
18 18 18 18 18 18 18 18 18 
18 18 18 18 18 18 18 18 18 
18 18 18 18 18 18 18 18 18 
18 18 18 18 18 18 18 18 18 
18 18 18 18 18 18 18 18 18 
18 18 18 18 18 18 18 18 18 
18 18 18 18 18 18 18 18 18 
18 18 18 18 18 18 18 18 18 
18 18 18 18 18 18 18 18 18 
18 18 18 18 18 18 18 18 18 
18 18 18 18 18 18 18 18 18 
18 18 18 18 18 18 18 18 18 
18 18 18 18 18 18 18 18 18 
18 18 18 18 18 18 18 18 18 
18 18 18 18 18 18 18 18 18 
18 18 18 18 18 18 18 18 18 
18 18 18 18 18 18 18 18 18 
18 18 18 18 18 18 18 18 18 
18 18 18 18 18 18 18 18 18 
18 18 18 18 18 18 18 18 18 
18 18 18 18 18 18 18 18 18 
18 18 18 18 18 18 18 18 18 
18 18 18 18 18 18 18 18 18 
18 18 18 18 18 19 19 19 19 
19 19 19 19 19 19 19 19 19 
19 19 19 19 19 19 19 19 19 
19 19 19 19 19 19 19 19 19 
19 19 19 19 19 19 19 19 19 
19 19 19 19 19 19 19 19 19 
19 19 19 19 19 19 19 19 19 
19 19 19 19 20 20 20 20 20 
20 20 20 20 20 20 20 20 20 
21 21 21 21 21 21 21 21 21 
21 21 21 21 21 22 22 22 22 
22 22 22 22 22 22 22 22 22 
22 
area 1 1702 double
1.4467556719 3.8580204234 1.3503127113 1.0609520401 3.7977547033 3.7977547033 0.43885168332 0.47019564926 2.3292812346 
5.5459077196 6.2768623818 6.7847195624 5.7395363843 7.222222805 8.2811326083 4.0240595771 5.7395363843 5.6230296573 
5.6230296573 3.9367756803 0.15356350707 5.5002940616 7.0640441685 5.4992306004 0.94322152122 8.3993432567 9.9984248707 
9.9052190725 6.9207491861 8.8888888359 4.1830638629 8.3661277257 5.2927925569 5.2927925569 6.2768623818 3.1981632279 
6.3963264559 5.7797698811 1.509092256 2.4763626967 5.2201918201 4.2162680984 5.0405550724 0.50035572742 2.0120608611 
5.623141191 1.0060304305 1.0060304305 0.75453059128 0.75453059128 0.94322152122 0.44042392461 1.2381813483 0.15430924012 
2.0120608611 1.2381813484 2.4763626967 0.25216912064 0.25216912064 0.15763993777 1.1994601221 0.88041258502 1.0833833361 
2.1667666721 0.15356350707 3.7142833665 0.58038393003 1.1607678601 1.8572285761 1.5090922561 0.44042392461 0.88041258503 
4.1830638629 4.0240595771 3.1981632279 52.473962547 9.2472320331 10.525206911 3.8580323443 2.8935229337 52.16049708 
1.4467561686 0.96450941062 3.8580217479 1.4467561686 5.8352807422 6.0764080948 9.2496179953 2.1821960844 2.4233227747 
9.249617333 0.72337982279 1.9290125296 0.4822532152 0.72337949166 5.555557251 5.555557251 1.4467588177 3.858024397 
0.96450676153 1.4467588177 2.7006190647 2.9417450928 5.1504509405 2.5419159805 5.5579684252 5.1504509405 0.24112627646 
0.96450609925 0.4822532152 0.2411266076 5.5555419922 5.5555419922 2.7749264166 0.72337961583 1.9290128608 0.48225329798 
0.72337994697 7.1252917471 7.3664184375 7.2820241952 0.81983101221 1.0609577026 7.2820241952 1.4467601423 3.8580257216 
0.96450676153 1.4467588177 0.72337994697 0.48225329798 1.9290128608 0.72337961583 6.498362617 6.7394893074 7.8607276891 
1.4467641159 1.6878914686 7.8607283514 1.4467574932 3.8580230725 0.96450941062 1.4467561686 1.4467614668 3.8580270461 
0.96450676153 1.4467588177 2.0736892724 2.3148159628 8.6805586186 5.8714314711 6.1125580787 8.6805585358 0.24112664899 
0.96450643039 0.48225313241 0.24112664899 0.7233797814 0.48225313241 0.9268302285 0.7233797814 5.2445025563 5.4856285016 
9.5003632888 2.7006116473 2.9417370131 9.5003627093 1.4467614668 3.8580270461 0.96450411243 1.4467614668 0.38617930784 
0.060281791598 0.16954205943 0.38617930784 0.30671307436 0.48225304963 0.47306959113 0.7233797814 4.6175728488 4.8586987527 
4.5235232426 3.3275390554 3.5686644213 4.5235227045 1.4467614668 3.858024397 0.96450411243 1.4467588177 5.5555419922 
5.5555419922 0.25266490129 0.45917650363 0.23170753772 0.41666670704 0.13092423164 0.13092423164 0.23547515261 0.015070462775 
0.24112664899 0.96450626482 0.48225313241 0.24112648342 3.9906443954 4.2317706719 5.3433592169 3.9544664636 4.1955921606 
5.3433586374 1.4467614668 3.8580270461 0.96450411243 1.4467614668 5.5555496216 5.5555496216 1.4467614668 3.8580270461 
0.96450411243 1.4467614668 4.5813938718 4.8225198999 6.4043226845 3.3637163043 3.6048429947 6.4043233468 0.24112664899 
0.96450626482 0.48225329798 0.24112631785 5.555557251 5.555557251 1.4467561686 3.8580217479 0.96450941062 1.4467561686 
5.2083498902 5.4494772428 7.4652807183 2.7367871742 2.9779138646 7.465280056 0.24112598672 0.96450593369 0.48225329798 
0.24112664899 5.555557251 5.555557251 1.4467614668 3.8580270461 0.96450411243 1.4467614668 5.8352486881 6.0763747162 
8.5262374275 2.1098580441 2.3509847345 8.5262380897 0.24112598672 0.96450593369 0.48225329798 0.24112664899 5.555557251 
5.555557251 1.4467614668 3.8580323443 0.96450411243 1.446766765 6.4621764274 6.70330229 9.5871878848 1.4829287485 
1.7240552733 9.587188547 0.24112664899 0.96450593369 0.48225329798 0.24112598672 5.5555534363 5.5555534363 69.444420073 
197.0294163 746.95589762 514.47248557 40.046297864 99.826342 11.590947119 5.3240707406 69.444420073 196.64359671 
751.69635351 508.88792434 40.046304553 47.743084961 23.57977954 1.8518525583 7.2338048507 25.077153084 11.188267572 
4.8804017911 5.1890436634 10.532403875 7.2338048507 9.645037813 2.3148109295 2.3148109295 0.77160276013 1.8518525583 
0.7716048794 2.3148172873 2.3148172873 8.3912060437 6.2934102946 21.942509155 10.532403859 10.069441332 10.062211271 
9.560668229 6.2933872475 1.851850439 0.7716048794 1.8518514986 2.3148172873 2.3148172873 7.1373471213 5.3529956385 
18.807865227 10.069457557 9.4135927345 7.1952168929 6.8865744908 5.3530152418 2.3148172873 2.3148172873 0.7716048794 
1.851850439 0.7716048794 2.3148172873 2.3148172873 4.6296292764 3.4722187784 12.538575714 5.8834888611 4.4126206857 
15.673228252 9.413577171 8.5648117242 3.0743623966 2.9586217442 4.412612606 8.5648412616 7.7160734306 3.4505200138 
3.334778964 3.4722187784 1.851850439 0.7716048794 1.8518514986 2.3148172873 2.3148172873 3.3757710162 2.5318213083 
9.4039317855 7.7160727683 6.8673052022 3.8266859921 3.7109446774 2.5318305801 2.3148156978 2.3148156978 0.77160434958 
1.8518514986 1.8807873902 5.9799384776 2.1219112991 1.5914360241 6.8673052022 6.0185372388 4.2028488826 4.0871074354 
34.375027816 19.560183176 0.94039283417 3.7193780733 0.98379486689 26.335804379 3.4722163942 3.4722163942 1.1574041402 
1.8518546776 0.77160276013 2.3148109295 2.3148109295 12.152747446 9.1145939628 31.346442596 20.10990389 20.109940712 
60.26841904 5.4324980756 0.28934743807 129.31619334 36.053248765 81.013701632 0.64501372292 10.05502559 12.114213852 
11.265447876 1.1501772039 1.0344359555 9.1145939628 1.8518525583 0.7716048794 1.851850439 2.3148172873 2.3148172873 
10.898922564 8.1741994067 28.211797012 11.265428272 10.41666362 1.5263339684 1.410593051 8.174169472 2.3148172873 
2.3148172873 0.7716048794 1.851850439 0.7716048794 2.3148172873 2.3148172873 8.3912060437 6.2933872475 21.942509155 
9.6450643039 7.2337783597 25.077153084 10.416662428 9.5678975111 1.9024876947 1.7867470422 7.2338048507 9.5678976436 
8.7191327266 2.2786449144 2.162904262 6.2934102946 1.851850439 0.77160699868 1.851850439 2.3148236451 2.3148236451 
7.1373667246 5.3529956385 18.807865227 8.7191477602 8.0632829372 7.0794759258 6.7708335237 5.3529956385 2.3148172873 
2.3148172873 0.7716048794 1.851850439 0.7716048794 2.3148172873 2.3148172873 4.6296292764 3.4722187784 12.538575714 
5.8834888611 4.412612606 15.673219643 8.0632685658 7.6003060389 13.134163698 12.632620656 4.412612606 7.6003321159 
6.944466167 9.0856496852 8.7770067532 3.4722187784 1.8518514986 0.7716048794 1.851850439 2.3148172873 2.3148172873 
3.3757710162 2.5318305801 9.4039369512 6.944466167 6.2885998208 10.088740365 9.7800973003 2.5318259442 2.3148172873 
2.3148172873 0.7716048794 1.8518514986 1.8807856683 5.9799370206 2.1219127561 1.5914345671 6.2885998208 5.8256353567 
18.0242084 17.522663719 33.217619172 18.933254907 0.94039369512 11.049616919 6.43325297 3.7796494475 3.7796494475 
58.005356583 23.842583144 7.45081917 14.076954816 2.4305532045 0.63657118766 8.063254923 127.14000266 36.05324004 
2.0435464824 86.918901965 11.574073721 1.8518525583 0.77160276013 2.3148109295 2.3148109295 12.152747446 9.1145939628 
31.346442596 12.307115933 11.844152529 5.1721644622 4.6706206416 9.1145939628 1.8518525583 0.7716048794 1.8518525583 
2.3148172873 2.3148172873 10.898922564 8.174169472 28.211797012 11.844131137 11.188267572 4.1859591099 3.8773171052 
8.1741994067 6.4621764274 6.70330229 9.8283147407 1.4467614668 3.8580270461 0.96450411243 1.4467614668 1.5552667887 
1.7963933135 9.828315403 0.72337982279 1.9290125296 0.4822532152 0.72337949166 5.5555534363 5.5555534363 5.2083212799 
5.4494473081 8.4297864864 1.4467614668 3.8580270461 0.96450411243 1.4467614668 2.80912425 3.0502508576 8.4297870659 
0.2411266076 0.96450626482 0.48225304963 0.2411266076 5.555557251 5.555557251 4.5813938718 4.8225198999 7.609956302 
1.4467614668 3.8580270461 0.96450411243 1.4467614668 0.14840783798 3.6771797725 4.3393806063 0.30671297593 0.020854208604 
0.079245400411 0.022299610559 5.555557251 2.7777786255 0.27790068798 0.0854617461 0.026913532021 0.0063730659316 0.0020833334382 
0.016561590039 0.003683779348 0.0021825013333 0.026728343318 0.0046743045007 0.0056218813107 0.022654173664 0.01112750085 0.028337779619 
0.030209326785 0.0053930120898 0.0043969025302 0.027913214747 0.007233796417 0.022948055194 0.0097898968162 0.01054209301 0.016561590039 
0.025506219496 0.014635408176 0.026041667581 0.018546497245 0.018878738771 0.032223250548 0.10791224835 0.082229134462 0.26021608721 
0.041661472337 0.15650263756 0.085153257079 0.24017470056 0.20305263714 0.82886261427 0.003864877692 0.0049471433407 0.0019478632498 
0.0026508103815 0.0035597174505 0.0040675413083 0.0030556937791 0.0040087300962 0.0035915350802 0.0036575792863 0.0013020834525 0.0013020834525 
0.00027320800465 0.0019624054175 0.0027468019221 0.0038394037531 0.0034706033553 0.0021825013333 0.0019020371227 0.0027468019221 0.0030896824382 
0.011179287696 0.0039601265998 0.0035647167021 0.0045370102757 0.0020708985689 0.0042821073894 0.01376137426 0.0028508017561 0.0079795681942 
0.020127047065 0.0045735104753 0.0047527401812 0.017480646617 0.0098930791812 0.0099165946928 0.0056869415384 0.0039751823994 0.0046382645872 
0.0043969025302 0.0084024795468 0.0089418383523 0.013267244276 0.0070225719546 0.017231674266 0.0049543721532 0.0046382645872 0.0031654149507 
0.007271729308 0.010556594238 0.0060569856931 0.01112750085 0.0079400359763 0.019972186292 0.020989316193 0.056253153877 0.015617374892 
0.045184628519 0.039035934392 0.032868743949 0.02658263757 0.040948902358 0.028558939895 0.14095069723 0.056893400791 0.019726706398 
0.015163428806 0.0088486724146 0.013364003133 0.023176687538 0.016442861276 0.015163428806 0.019521719419 0.016442861276 0.085153257079 
0.081311109136 0.031234749783 0.033888471389 0.3806517963 0.51179108224 0.10845399263 0.61085449521 0.095603852715 0.095603852715 
0.24318847272 2.7777786255 0.41666668129 0.24318847272 3.2705762752 1.2827975294 1.4178289528 0.81772654386 1.4467561686 
3.8580217479 0.96450941062 1.4467561686 0.019950796501 0.10609582324 0.14223527067 0.0080572120045 0.0016795508356 0.018383828005 
0.017862397664 0.53122382812 0.16152674595 0.93661013274 0.020865467184 0.016079526387 0.014172698949 0.018362810225 0.0094015016556 
0.01601181834 0.01981778599 0.018456154884 0.028301303646 0.02868095474 0.027956985001 0.019758445682 0.025198883246 0.019517970974 
0.028002370211 0.015216490408 0.018358170073 0.051883124441 0.023345162757 0.030295249757 0.97380388942 0.1131400142 0.72222563861 
0.16441294827 0.12410762495 0.64669325008 0.14356527657 0.042617264331 0.17895254252 0.097222065926 0.091112814449 0.16273125306 
0.14390420921 0.18608337859 0.1131400142 0.068875636266 0.16302350837 0.19853631975 0.061281687104 0.10550223889 0.087359591702 
0.10550223889 0.15064235021 0.084287801566 0.019657025494 0.063718913766 0.025110716545 0.082475096022 0.026620848401 0.06692960918 
0.023045479694 0.10230846962 0.011555773195 0.0049513886004 0.0040080821378 0.0033368659036 0.010695146416 0.0040080821378 0.0042131002462 
0.021775283508 0.003921640499 0.0029547073991 0.0039923894252 0.0049339263174 0.0092421781684 0.0023489344808 0.0032015588757 0.0075195345982 
0.0087453472638 0.0057041256799 0.0069578862796 0.0039638466664 0.0099726906336 0.012385639101 0.0096562879912 0.0028471161933 0.0017185171194 
0.0068037626047 0.012656596242 0.013370066765 0.0074165832287 0.0020823898372 0.0051589403904 0.0055687969907 0.0078456224273 0.0033398433081 
0.014116441191 0.0062698682707 0.0035667788465 0.0024162677907 0.012046598302 0.0023489344808 0.012691291812 0.010849640487 0.0023934763499 
0.0014343869027 0.002286054438 0.0021762627919 0.0046178954346 0.0049307142979 0.015625620146 0.0084040597382 0.011632795813 0.005802111949 
0.013171322848 0.0078875869018 0.010307282141 0.0076339488053 0.010328027607 0.00076476362993 0.0084777231906 0.0055074431612 0.0039544407644 
0.020632253596 0.007233796417 0.0020833334382 0.0036107281203 0.01414088468 0.005594139224 0.0059857902999 0.0073448687297 0.012345624492 
0.0055396732479 0.0068271502219 0.010989765499 0.0083748300631 0.0087534956063 0.014126120322 0.011708869819 0.0099894609418 0.023628841172 
0.01102965515 0.0055587265533 0.0062834477176 0.012367500249 0.012785297996 0.0049819312681 0.0073628727475 0.0062227518624 0.016144402966 
0.0087534956063 0.021862995086 0.018199569352 0.014251765356 0.012367500249 0.031860509401 0.03297914441 0.061598319307 0.047000223248 
0.030075565199 0.034837126552 0.04023164233 0.070771279988 0.033692336216 0.070810961227 0.061782419496 0.018279373996 0.019950796501 
0.018698915719 0.013096326103 0.031889420999 0.025375664506 0.017362611865 0.0095804603515 0.035066920652 0.023161058108 0.017277790178 
0.029369339817 0.02445969229 0.015369813226 0.041077990618 0.022114287028 0.026797366411 0.028596845016 0.037631645274 0.088864389533 
0.029647499681 0.069945157461 0.055590259674 0.059190853349 0.059242926355 0.025254551691 0.042216358043 0.029647499681 0.051883124441 
0.031261056446 0.065169753897 0.048008463986 0.034955918733 0.061591026404 0.038700288544 0.052008212828 0.30572749602 0.22784571979 
0.28035125586 0.14984433761 0.13313307257 0.15097128686 0.22044689151 0.0039752318264 0.01067100727 0.012585458103 0.0084091834759 
0.0067201759856 0.013707868452 0.014784927207 0.030963629806 0.013707868452 0.008415682699 0.0053651587535 0.028630409632 0.013344747114 
0.013344747114 0.022470725686 0.012776670847 0.005130458857 0.013933832782 0.010173487502 0.018448692926 0.017527936614 0.011363734535 
0.0055022721687 0.0062020865995 0.0064474262787 0.012437232961 0.013285908383 0.0017947299925 0.0096685807599 0.0036857279304 0.0069997653116 
0.017310800711 0.012897351371 0.017230620618 0.0060430490377 0.011611513452 0.0058656424771 0.017270744131 0.0062732772844 0.015608445266 
0.015484958953 0.0071999596746 0.0055004954645 0.019662577824 0.018728782673 0.0058670921741 0.0020027660023 0.0051684642236 0.0035850350229 
0.0095464059927 0.013735822831 0.018443978422 0.008449787418 0.026795181776 0.0018742545425 0.0047654846614 0.018044384634 0.012519636604 
0.013072961623 0.0016531314307 0.010508185851 0.0054090805469 0.015484958953 0.011730060072 0.010116862311 0.0027725807943 0.019761925647 
0.0017856927039 0.0071529696516 0.0047267044567 0.0041678081296 0.020829401271 0.0060843251487 0.012786586343 0.021387314121 0.023505526307 
0.019050072701 0.020371837338 0.015464570597 0.0034387945577 0.00723816426 0.0051369239415 0.0015305883782 0.0012485879122 0.018275967581 
0.012437232961 0.018896591558 0.012270818672 0.018821550925 0.0044370666451 0.020294935624 0.0061433605917 0.018531281384 0.0058656424771 
0.013232522196 0.0085245049148 0.018301456597 0.12963210619 0.23978333295 0.17892756632 0.082206474134 0.20397049348 0.18038630643 
0.15097128686 0.096698175016 0.24173666071 0.30142472649 0.27577086712 0.26561188702 0.034657734164 0.075123455812 0.058878415313 