# vtk DataFile Version 5.1
vtk output
ASCII
DATASET STRUCTURED_POINTS
DIMENSIONS 20 20 20
SPACING 2e-05 2e-05 2e-05
ORIGIN 3.69981 -0.00019 0.99981
POINT_DATA 8000
FIELD FieldData 1
potential 1 8000 double
0.0011284893519 0.0011284859957 0.0011284826396 0.0011284792835 0.0011284759274 0.0011284725714 0.0011284692153 0.0011284658593 0.0011284625033 
0.0011284591473 0.0011284557914 0.0011284524354 0.0011284490795 0.0011284457236 0.0011284423677 0.0011284390118 0.001128435656 0.0011284323002 
0.0011284289444 0.0011284255886 0.0011284875275 0.0011284841714 0.0011284808152 0.0011284774592 0.0011284741031 0.001128470747 0.001128467391 
0.001128464035 0.001128460679 0.001128457323 0.0011284539671 0.0011284506111 0.0011284472552 0.0011284438993 0.0011284405435 0.0011284371876 
0.0011284338318 0.001128430476 0.0011284271202 0.0011284237644 0.0011284857031 0.001128482347 0.0011284789909 0.0011284756348 0.0011284722788 
0.0011284689227 0.0011284655667 0.0011284622107 0.0011284588547 0.0011284554988 0.0011284521428 0.0011284487869 0.001128445431 0.0011284420751 
0.0011284387192 0.0011284353634 0.0011284320076 0.0011284286518 0.001128425296 0.0011284219402 0.0011284838788 0.0011284805227 0.0011284771666 
0.0011284738105 0.0011284704544 0.0011284670984 0.0011284637424 0.0011284603864 0.0011284570304 0.0011284536745 0.0011284503186 0.0011284469626 
0.0011284436067 0.0011284402509 0.001128436895 0.0011284335392 0.0011284301834 0.0011284268276 0.0011284234718 0.001128420116 0.0011284820544 
0.0011284786983 0.0011284753422 0.0011284719862 0.0011284686301 0.0011284652741 0.0011284619181 0.0011284585621 0.0011284552062 0.0011284518502 
0.0011284484943 0.0011284451384 0.0011284417825 0.0011284384266 0.0011284350708 0.001128431715 0.0011284283592 0.0011284250034 0.0011284216476 
0.0011284182919 0.0011284802301 0.001128476874 0.0011284735179 0.0011284701619 0.0011284668058 0.0011284634498 0.0011284600938 0.0011284567379 
0.0011284533819 0.001128450026 0.0011284466701 0.0011284433142 0.0011284399583 0.0011284366024 0.0011284332466 0.0011284298908 0.001128426535 
0.0011284231792 0.0011284198234 0.0011284164677 0.0011284784057 0.0011284750497 0.0011284716936 0.0011284683376 0.0011284649815 0.0011284616255 
0.0011284582696 0.0011284549136 0.0011284515577 0.0011284482017 0.0011284448458 0.0011284414899 0.0011284381341 0.0011284347782 0.0011284314224 
0.0011284280666 0.0011284247108 0.001128421355 0.0011284179993 0.0011284146436 0.0011284765814 0.0011284732254 0.0011284698693 0.0011284665133 
0.0011284631573 0.0011284598013 0.0011284564453 0.0011284530893 0.0011284497334 0.0011284463775 0.0011284430216 0.0011284396657 0.0011284363099 
0.001128432954 0.0011284295982 0.0011284262424 0.0011284228866 0.0011284195309 0.0011284161751 0.0011284128194 0.0011284747571 0.0011284714011 
0.001128468045 0.001128464689 0.001128461333 0.001128457977 0.001128454621 0.0011284512651 0.0011284479092 0.0011284445533 0.0011284411974 
0.0011284378415 0.0011284344857 0.0011284311298 0.001128427774 0.0011284244182 0.0011284210625 0.0011284177067 0.001128414351 0.0011284109953 
0.0011284729328 0.0011284695768 0.0011284662207 0.0011284628647 0.0011284595087 0.0011284561528 0.0011284527968 0.0011284494409 0.001128446085 
0.0011284427291 0.0011284393732 0.0011284360173 0.0011284326615 0.0011284293057 0.0011284259499 0.0011284225941 0.0011284192383 0.0011284158826 
0.0011284125269 0.0011284091712 0.0011284711085 0.0011284677525 0.0011284643965 0.0011284610405 0.0011284576845 0.0011284543285 0.0011284509726 
0.0011284476166 0.0011284442607 0.0011284409048 0.001128437549 0.0011284341931 0.0011284308373 0.0011284274815 0.0011284241257 0.0011284207699 
0.0011284174142 0.0011284140585 0.0011284107027 0.0011284073471 0.0011284692842 0.0011284659282 0.0011284625722 0.0011284592162 0.0011284558602 
0.0011284525043 0.0011284491483 0.0011284457924 0.0011284424365 0.0011284390806 0.0011284357248 0.001128432369 0.0011284290131 0.0011284256573 
0.0011284223016 0.0011284189458 0.0011284155901 0.0011284122343 0.0011284088786 0.001128405523 0.00112846746 0.0011284641039 0.0011284607479 
0.001128457392 0.001128454036 0.00112845068 0.0011284473241 0.0011284439682 0.0011284406123 0.0011284372565 0.0011284339006 0.0011284305448 
0.001128427189 0.0011284238332 0.0011284204774 0.0011284171217 0.0011284137659 0.0011284104102 0.0011284070545 0.0011284036989 0.0011284656357 
0.0011284622797 0.0011284589237 0.0011284555677 0.0011284522118 0.0011284488558 0.0011284454999 0.001128442144 0.0011284387881 0.0011284354323 
0.0011284320764 0.0011284287206 0.0011284253648 0.001128422009 0.0011284186533 0.0011284152975 0.0011284119418 0.0011284085861 0.0011284052304 
0.0011284018748 0.0011284638114 0.0011284604554 0.0011284570994 0.0011284537435 0.0011284503875 0.0011284470316 0.0011284436757 0.0011284403198 
0.001128436964 0.0011284336081 0.0011284302523 0.0011284268965 0.0011284235407 0.0011284201849 0.0011284168292 0.0011284134734 0.0011284101177 
0.001128406762 0.0011284034064 0.0011284000507 0.0011284619872 0.0011284586312 0.0011284552752 0.0011284519193 0.0011284485633 0.0011284452074 
0.0011284418515 0.0011284384956 0.0011284351398 0.0011284317839 0.0011284284281 0.0011284250723 0.0011284217165 0.0011284183608 0.001128415005 
0.0011284116493 0.0011284082936 0.0011284049379 0.0011284015823 0.0011283982266 0.0011284601629 0.001128456807 0.001128453451 0.0011284500951 
0.0011284467391 0.0011284433832 0.0011284400273 0.0011284366715 0.0011284333156 0.0011284299598 0.001128426604 0.0011284232482 0.0011284198924 
0.0011284165367 0.0011284131809 0.0011284098252 0.0011284064695 0.0011284031139 0.0011283997582 0.0011283964026 0.0011284583387 0.0011284549827 
0.0011284516268 0.0011284482708 0.0011284449149 0.001128441559 0.0011284382032 0.0011284348473 0.0011284314915 0.0011284281356 0.0011284247798 
0.0011284214241 0.0011284180683 0.0011284147126 0.0011284113568 0.0011284080011 0.0011284046455 0.0011284012898 0.0011283979342 0.0011283945785 
0.0011284565145 0.0011284531585 0.0011284498026 0.0011284464467 0.0011284430907 0.0011284397349 0.001128436379 0.0011284330231 0.0011284296673 
0.0011284263115 0.0011284229557 0.0011284195999 0.0011284162442 0.0011284128885 0.0011284095328 0.0011284061771 0.0011284028214 0.0011283994657 
0.0011283961101 0.0011283927545 0.0011284546903 0.0011284513343 0.0011284479784 0.0011284446225 0.0011284412666 0.0011284379107 0.0011284345548 
0.001128431199 0.0011284278432 0.0011284244874 0.0011284211316 0.0011284177758 0.0011284144201 0.0011284110644 0.0011284077087 0.001128404353 
0.0011284009973 0.0011283976417 0.0011283942861 0.0011283909305 0.0011285110733 0.0011285077171 0.0011285043609 0.0011285010048 0.0011284976486 
0.0011284942925 0.0011284909364 0.0011284875803 0.0011284842242 0.0011284808682 0.0011284775122 0.0011284741562 0.0011284708002 0.0011284674442 
0.0011284640883 0.0011284607323 0.0011284573764 0.0011284540205 0.0011284506647 0.0011284473088 0.0011285092489 0.0011285058927 0.0011285025365 
0.0011284991804 0.0011284958242 0.0011284924681 0.001128489112 0.001128485756 0.0011284823999 0.0011284790439 0.0011284756879 0.0011284723319 
0.0011284689759 0.0011284656199 0.001128462264 0.0011284589081 0.0011284555522 0.0011284521963 0.0011284488404 0.0011284454846 0.0011285074245 
0.0011285040683 0.0011285007122 0.001128497356 0.0011284939999 0.0011284906438 0.0011284872877 0.0011284839316 0.0011284805756 0.0011284772196 
0.0011284738636 0.0011284705076 0.0011284671516 0.0011284637956 0.0011284604397 0.0011284570838 0.0011284537279 0.001128450372 0.0011284470162 
0.0011284436604 0.0011285056001 0.0011285022439 0.0011284988878 0.0011284955317 0.0011284921755 0.0011284888194 0.0011284854634 0.0011284821073 
0.0011284787513 0.0011284753953 0.0011284720393 0.0011284686833 0.0011284653273 0.0011284619714 0.0011284586155 0.0011284552596 0.0011284519037 
0.0011284485478 0.001128445192 0.0011284418362 0.0011285037757 0.0011285004196 0.0011284970634 0.0011284937073 0.0011284903512 0.0011284869951 
0.001128483639 0.001128480283 0.001128476927 0.001128473571 0.001128470215 0.001128466859 0.0011284635031 0.0011284601471 0.0011284567912 
0.0011284534353 0.0011284500795 0.0011284467236 0.0011284433678 0.001128440012 0.0011285019514 0.0011284985952 0.0011284952391 0.001128491883 
0.0011284885269 0.0011284851708 0.0011284818147 0.0011284784587 0.0011284751027 0.0011284717467 0.0011284683907 0.0011284650347 0.0011284616788 
0.0011284583229 0.001128454967 0.0011284516111 0.0011284482552 0.0011284448994 0.0011284415436 0.0011284381878 0.001128500127 0.0011284967709 
0.0011284934147 0.0011284900586 0.0011284867025 0.0011284833465 0.0011284799904 0.0011284766344 0.0011284732784 0.0011284699224 0.0011284665664 
0.0011284632105 0.0011284598546 0.0011284564986 0.0011284531428 0.0011284497869 0.001128446431 0.0011284430752 0.0011284397194 0.0011284363636 
0.0011284983026 0.0011284949465 0.0011284915904 0.0011284882343 0.0011284848782 0.0011284815222 0.0011284781661 0.0011284748101 0.0011284714541 
0.0011284680981 0.0011284647422 0.0011284613862 0.0011284580303 0.0011284546744 0.0011284513185 0.0011284479627 0.0011284446068 0.001128441251 
0.0011284378952 0.0011284345394 0.0011284964783 0.0011284931222 0.0011284897661 0.00112848641 0.0011284830539 0.0011284796979 0.0011284763418 
0.0011284729858 0.0011284696298 0.0011284662739 0.0011284629179 0.001128459562 0.0011284562061 0.0011284528502 0.0011284494943 0.0011284461385 
0.0011284427826 0.0011284394268 0.001128436071 0.0011284327153 0.001128494654 0.0011284912979 0.0011284879418 0.0011284845857 0.0011284812296 
0.0011284778736 0.0011284745176 0.0011284711616 0.0011284678056 0.0011284644496 0.0011284610937 0.0011284577378 0.0011284543819 0.001128451026 
0.0011284476701 0.0011284443143 0.0011284409585 0.0011284376027 0.0011284342469 0.0011284308911 0.0011284928296 0.0011284894735 0.0011284861174 
0.0011284827614 0.0011284794053 0.0011284760493 0.0011284726933 0.0011284693373 0.0011284659813 0.0011284626254 0.0011284592695 0.0011284559135 
0.0011284525577 0.0011284492018 0.0011284458459 0.0011284424901 0.0011284391343 0.0011284357785 0.0011284324227 0.001128429067 0.0011284910053 
0.0011284876492 0.0011284842931 0.0011284809371 0.0011284775811 0.001128474225 0.001128470869 0.0011284675131 0.0011284641571 0.0011284608012 
0.0011284574452 0.0011284540893 0.0011284507335 0.0011284473776 0.0011284440217 0.0011284406659 0.0011284373101 0.0011284339543 0.0011284305986 
0.0011284272428 0.001128489181 0.0011284858249 0.0011284824689 0.0011284791128 0.0011284757568 0.0011284724008 0.0011284690448 0.0011284656888 
0.0011284623329 0.0011284589769 0.001128455621 0.0011284522651 0.0011284489093 0.0011284455534 0.0011284421976 0.0011284388418 0.001128435486 
0.0011284321302 0.0011284287744 0.0011284254187 0.0011284873567 0.0011284840006 0.0011284806446 0.0011284772885 0.0011284739325 0.0011284705765 
0.0011284672205 0.0011284638646 0.0011284605086 0.0011284571527 0.0011284537968 0.0011284504409 0.0011284470851 0.0011284437292 0.0011284403734 
0.0011284370176 0.0011284336618 0.0011284303061 0.0011284269503 0.0011284235946 0.0011284855324 0.0011284821764 0.0011284788203 0.0011284754643 
0.0011284721083 0.0011284687523 0.0011284653963 0.0011284620404 0.0011284586844 0.0011284553285 0.0011284519726 0.0011284486168 0.0011284452609 
0.0011284419051 0.0011284385492 0.0011284351935 0.0011284318377 0.0011284284819 0.0011284251262 0.0011284217705 0.0011284837081 0.0011284803521 
0.001128476996 0.00112847364 0.001128470284 0.001128466928 0.0011284635721 0.0011284602161 0.0011284568602 0.0011284535043 0.0011284501484 
0.0011284467926 0.0011284434367 0.0011284400809 0.0011284367251 0.0011284333693 0.0011284300135 0.0011284266578 0.0011284233021 0.0011284199464 
0.0011284818839 0.0011284785278 0.0011284751718 0.0011284718158 0.0011284684598 0.0011284651038 0.0011284617479 0.0011284583919 0.001128455036 
0.0011284516801 0.0011284483243 0.0011284449684 0.0011284416126 0.0011284382568 0.001128434901 0.0011284315452 0.0011284281894 0.0011284248337 
0.001128421478 0.0011284181223 0.0011284800596 0.0011284767036 0.0011284733475 0.0011284699915 0.0011284666356 0.0011284632796 0.0011284599237 
0.0011284565677 0.0011284532118 0.001128449856 0.0011284465001 0.0011284431442 0.0011284397884 0.0011284364326 0.0011284330768 0.0011284297211 
0.0011284263653 0.0011284230096 0.0011284196539 0.0011284162982 0.0011284782353 0.0011284748793 0.0011284715233 0.0011284681673 0.0011284648113 
0.0011284614554 0.0011284580995 0.0011284547436 0.0011284513877 0.0011284480318 0.0011284446759 0.0011284413201 0.0011284379643 0.0011284346085 
0.0011284312527 0.001128427897 0.0011284245412 0.0011284211855 0.0011284178298 0.0011284144741 0.0011284764111 0.0011284730551 0.0011284696991 
0.0011284663431 0.0011284629871 0.0011284596312 0.0011284562753 0.0011284529194 0.0011284495635 0.0011284462076 0.0011284428518 0.001128439496 
0.0011284361402 0.0011284327844 0.0011284294286 0.0011284260729 0.0011284227171 0.0011284193614 0.0011284160057 0.0011284126501 0.0011285327947 
0.0011285294385 0.0011285260822 0.001128522726 0.0011285193698 0.0011285160136 0.0011285126574 0.0011285093013 0.0011285059451 0.001128502589 
0.0011284992329 0.0011284958769 0.0011284925208 0.0011284891648 0.0011284858088 0.0011284824528 0.0011284790968 0.0011284757409 0.0011284723849 
0.001128469029 0.0011285309703 0.001128527614 0.0011285242578 0.0011285209016 0.0011285175454 0.0011285141892 0.001128510833 0.0011285074769 
0.0011285041208 0.0011285007647 0.0011284974086 0.0011284940525 0.0011284906965 0.0011284873405 0.0011284839845 0.0011284806285 0.0011284772725 
0.0011284739166 0.0011284705607 0.0011284672047 0.0011285291459 0.0011285257896 0.0011285224334 0.0011285190772 0.001128515721 0.0011285123648 
0.0011285090087 0.0011285056525 0.0011285022964 0.0011284989403 0.0011284955843 0.0011284922282 0.0011284888722 0.0011284855162 0.0011284821602 
0.0011284788042 0.0011284754482 0.0011284720923 0.0011284687364 0.0011284653805 0.0011285273214 0.0011285239652 0.001128520609 0.0011285172528 
0.0011285138966 0.0011285105404 0.0011285071843 0.0011285038282 0.0011285004721 0.001128497116 0.0011284937599 0.0011284904039 0.0011284870479 
0.0011284836919 0.0011284803359 0.0011284769799 0.001128473624 0.0011284702681 0.0011284669121 0.0011284635563 0.001128525497 0.0011285221408 
0.0011285187846 0.0011285154284 0.0011285120722 0.0011285087161 0.00112850536 0.0011285020038 0.0011284986477 0.0011284952917 0.0011284919356 
0.0011284885796 0.0011284852236 0.0011284818676 0.0011284785116 0.0011284751557 0.0011284717997 0.0011284684438 0.0011284650879 0.001128461732 
0.0011285236726 0.0011285203164 0.0011285169602 0.001128513604 0.0011285102479 0.0011285068917 0.0011285035356 0.0011285001795 0.0011284968234 
0.0011284934674 0.0011284901113 0.0011284867553 0.0011284833993 0.0011284800433 0.0011284766873 0.0011284733314 0.0011284699755 0.0011284666196 
0.0011284632637 0.0011284599078 0.0011285218482 0.001128518492 0.0011285151358 0.0011285117797 0.0011285084235 0.0011285050674 0.0011285017113 
0.0011284983552 0.0011284949991 0.0011284916431 0.001128488287 0.001128484931 0.001128481575 0.001128478219 0.0011284748631 0.0011284715071 
0.0011284681512 0.0011284647953 0.0011284614394 0.0011284580836 0.0011285200238 0.0011285166676 0.0011285133115 0.0011285099553 0.0011285065992 
0.001128503243 0.0011284998869 0.0011284965309 0.0011284931748 0.0011284898188 0.0011284864627 0.0011284831067 0.0011284797507 0.0011284763948 
0.0011284730388 0.0011284696829 0.001128466327 0.0011284629711 0.0011284596152 0.0011284562594 0.0011285181995 0.0011285148433 0.0011285114871 
0.001128508131 0.0011285047748 0.0011285014187 0.0011284980626 0.0011284947065 0.0011284913505 0.0011284879945 0.0011284846384 0.0011284812825 
0.0011284779265 0.0011284745705 0.0011284712146 0.0011284678587 0.0011284645028 0.0011284611469 0.001128457791 0.0011284544352 0.0011285163751 
0.0011285130189 0.0011285096628 0.0011285063066 0.0011285029505 0.0011284995944 0.0011284962383 0.0011284928822 0.0011284895262 0.0011284861702 
0.0011284828142 0.0011284794582 0.0011284761022 0.0011284727463 0.0011284693903 0.0011284660344 0.0011284626786 0.0011284593227 0.0011284559668 
0.001128452611 0.0011285145507 0.0011285111946 0.0011285078384 0.0011285044823 0.0011285011262 0.0011284977701 0.001128494414 0.001128491058 
0.0011284877019 0.0011284843459 0.0011284809899 0.0011284776339 0.001128474278 0.001128470922 0.0011284675661 0.0011284642102 0.0011284608543 
0.0011284574985 0.0011284541426 0.0011284507868 0.0011285127264 0.0011285093702 0.0011285060141 0.001128502658 0.0011284993019 0.0011284959458 
0.0011284925897 0.0011284892337 0.0011284858776 0.0011284825216 0.0011284791657 0.0011284758097 0.0011284724537 0.0011284690978 0.0011284657419 
0.001128462386 0.0011284590301 0.0011284556743 0.0011284523185 0.0011284489627 0.001128510902 0.0011285075459 0.0011285041898 0.0011285008336 
0.0011284974776 0.0011284941215 0.0011284907654 0.0011284874094 0.0011284840534 0.0011284806974 0.0011284773414 0.0011284739855 0.0011284706295 
0.0011284672736 0.0011284639177 0.0011284605618 0.001128457206 0.0011284538501 0.0011284504943 0.0011284471385 0.0011285090777 0.0011285057216 
0.0011285023654 0.0011284990093 0.0011284956533 0.0011284922972 0.0011284889412 0.0011284855851 0.0011284822291 0.0011284788731 0.0011284755172 
0.0011284721612 0.0011284688053 0.0011284654494 0.0011284620935 0.0011284587376 0.0011284553818 0.001128452026 0.0011284486701 0.0011284453143 
0.0011285072534 0.0011285038972 0.0011285005411 0.001128497185 0.001128493829 0.0011284904729 0.0011284871169 0.0011284837609 0.0011284804049 
0.0011284770489 0.0011284736929 0.001128470337 0.0011284669811 0.0011284636252 0.0011284602693 0.0011284569135 0.0011284535576 0.0011284502018 
0.001128446846 0.0011284434902 0.0011285054291 0.0011285020729 0.0011284987168 0.0011284953608 0.0011284920047 0.0011284886486 0.0011284852926 
0.0011284819366 0.0011284785806 0.0011284752247 0.0011284718687 0.0011284685128 0.0011284651569 0.001128461801 0.0011284584451 0.0011284550893 
0.0011284517334 0.0011284483776 0.0011284450218 0.0011284416661 0.0011285036048 0.0011285002486 0.0011284968926 0.0011284935365 0.0011284901804 
0.0011284868244 0.0011284834684 0.0011284801124 0.0011284767564 0.0011284734004 0.0011284700445 0.0011284666886 0.0011284633327 0.0011284599768 
0.001128456621 0.0011284532651 0.0011284499093 0.0011284465535 0.0011284431977 0.0011284398419 0.0011285017805 0.0011284984244 0.0011284950683 
0.0011284917122 0.0011284883562 0.0011284850001 0.0011284816441 0.0011284782882 0.0011284749322 0.0011284715762 0.0011284682203 0.0011284648644 
0.0011284615085 0.0011284581526 0.0011284547968 0.001128451441 0.0011284480852 0.0011284447294 0.0011284413736 0.0011284380178 0.0011284999562 
0.0011284966001 0.001128493244 0.0011284898879 0.0011284865319 0.0011284831759 0.0011284798199 0.0011284764639 0.001128473108 0.001128469752 
0.0011284663961 0.0011284630402 0.0011284596843 0.0011284563285 0.0011284529726 0.0011284496168 0.001128446261 0.0011284429052 0.0011284395495 
0.0011284361937 0.0011284981319 0.0011284947758 0.0011284914197 0.0011284880637 0.0011284847077 0.0011284813517 0.0011284779957 0.0011284746397 
0.0011284712838 0.0011284679278 0.0011284645719 0.001128461216 0.0011284578602 0.0011284545043 0.0011284511485 0.0011284477927 0.0011284444369 
0.0011284410811 0.0011284377254 0.0011284343696 0.0011285545161 0.0011285511598 0.0011285478035 0.0011285444472 0.0011285410909 0.0011285377347 
0.0011285343784 0.0011285310222 0.001128527666 0.0011285243099 0.0011285209537 0.0011285175976 0.0011285142414 0.0011285108854 0.0011285075293 
0.0011285041732 0.0011285008172 0.0011284974612 0.0011284941052 0.0011284907492 0.0011285526917 0.0011285493353 0.001128545979 0.0011285426227 
0.0011285392665 0.0011285359102 0.001128532554 0.0011285291978 0.0011285258416 0.0011285224855 0.0011285191293 0.0011285157732 0.0011285124171 
0.001128509061 0.0011285057049 0.0011285023489 0.0011284989929 0.0011284956368 0.0011284922809 0.0011284889249 0.0011285508672 0.0011285475109 
0.0011285441546 0.0011285407983 0.0011285374421 0.0011285340858 0.0011285307296 0.0011285273734 0.0011285240172 0.0011285206611 0.001128517305 
0.0011285139488 0.0011285105927 0.0011285072367 0.0011285038806 0.0011285005246 0.0011284971685 0.0011284938125 0.0011284904566 0.0011284871006 
0.0011285490427 0.0011285456864 0.0011285423301 0.0011285389739 0.0011285356176 0.0011285322614 0.0011285289052 0.001128525549 0.0011285221929 
0.0011285188367 0.0011285154806 0.0011285121245 0.0011285087684 0.0011285054123 0.0011285020563 0.0011284987003 0.0011284953442 0.0011284919883 
0.0011284886323 0.0011284852763 0.0011285472183 0.001128543862 0.0011285405057 0.0011285371495 0.0011285337932 0.001128530437 0.0011285270808 
0.0011285237247 0.0011285203685 0.0011285170124 0.0011285136562 0.0011285103001 0.0011285069441 0.001128503588 0.001128500232 0.001128496876 
0.00112849352 0.001128490164 0.001128486808 0.0011284834521 0.0011285453938 0.0011285420376 0.0011285386813 0.0011285353251 0.0011285319688 
0.0011285286126 0.0011285252564 0.0011285219003 0.0011285185441 0.001128515188 0.0011285118319 0.0011285084758 0.0011285051197 0.0011285017637 
0.0011284984077 0.0011284950517 0.0011284916957 0.0011284883397 0.0011284849837 0.0011284816278 0.0011285435694 0.0011285402131 0.0011285368569 
0.0011285335007 0.0011285301444 0.0011285267883 0.0011285234321 0.0011285200759 0.0011285167198 0.0011285133637 0.0011285100076 0.0011285066515 
0.0011285032954 0.0011284999394 0.0011284965834 0.0011284932274 0.0011284898714 0.0011284865154 0.0011284831595 0.0011284798036 0.001128541745 
0.0011285383887 0.0011285350325 0.0011285316763 0.0011285283201 0.0011285249639 0.0011285216077 0.0011285182516 0.0011285148954 0.0011285115393 
0.0011285081832 0.0011285048272 0.0011285014711 0.0011284981151 0.0011284947591 0.0011284914031 0.0011284880471 0.0011284846912 0.0011284813352 
0.0011284779793 0.0011285399206 0.0011285365643 0.0011285332081 0.0011285298519 0.0011285264957 0.0011285231395 0.0011285197834 0.0011285164272 
0.0011285130711 0.001128509715 0.0011285063589 0.0011285030029 0.0011284996468 0.0011284962908 0.0011284929348 0.0011284895788 0.0011284862229 
0.0011284828669 0.001128479511 0.0011284761551 0.0011285380962 0.0011285347399 0.0011285313837 0.0011285280275 0.0011285246713 0.0011285213152 
0.001128517959 0.0011285146029 0.0011285112468 0.0011285078907 0.0011285045346 0.0011285011786 0.0011284978225 0.0011284944665 0.0011284911105 
0.0011284877546 0.0011284843986 0.0011284810427 0.0011284776868 0.0011284743309 0.0011285362718 0.0011285329156 0.0011285295593 0.0011285262032 
0.001128522847 0.0011285194908 0.0011285161347 0.0011285127786 0.0011285094225 0.0011285060664 0.0011285027103 0.0011284993543 0.0011284959983 
0.0011284926423 0.0011284892863 0.0011284859303 0.0011284825744 0.0011284792185 0.0011284758626 0.0011284725067 0.0011285344474 0.0011285310912 
0.001128527735 0.0011285243788 0.0011285210226 0.0011285176665 0.0011285143104 0.0011285109542 0.0011285075982 0.0011285042421 0.001128500886 
0.00112849753 0.001128494174 0.001128490818 0.001128487462 0.0011284841061 0.0011284807502 0.0011284773942 0.0011284740383 0.0011284706825 
0.001128532623 0.0011285292668 0.0011285259106 0.0011285225544 0.0011285191983 0.0011285158422 0.001128512486 0.0011285091299 0.0011285057739 
0.0011285024178 0.0011284990618 0.0011284957057 0.0011284923497 0.0011284889938 0.0011284856378 0.0011284822819 0.0011284789259 0.00112847557 
0.0011284722141 0.0011284688583 0.0011285307987 0.0011285274425 0.0011285240863 0.0011285207301 0.001128517374 0.0011285140178 0.0011285106617 
0.0011285073056 0.0011285039496 0.0011285005935 0.0011284972375 0.0011284938815 0.0011284905255 0.0011284871695 0.0011284838136 0.0011284804576 
0.0011284771017 0.0011284737458 0.0011284703899 0.0011284670341 0.0011285289743 0.0011285256181 0.0011285222619 0.0011285189058 0.0011285155496 
0.0011285121935 0.0011285088374 0.0011285054814 0.0011285021253 0.0011284987693 0.0011284954132 0.0011284920572 0.0011284887012 0.0011284853453 
0.0011284819893 0.0011284786334 0.0011284752775 0.0011284719216 0.0011284685658 0.0011284652099 0.00112852715 0.0011285237938 0.0011285204376 
0.0011285170815 0.0011285137253 0.0011285103692 0.0011285070131 0.0011285036571 0.001128500301 0.001128496945 0.001128493589 0.001128490233 
0.001128486877 0.0011284835211 0.0011284801651 0.0011284768092 0.0011284734533 0.0011284700974 0.0011284667416 0.0011284633857 0.0011285253256 
0.0011285219694 0.0011285186133 0.0011285152572 0.001128511901 0.0011285085449 0.0011285051889 0.0011285018328 0.0011284984768 0.0011284951207 
0.0011284917647 0.0011284884088 0.0011284850528 0.0011284816968 0.0011284783409 0.001128474985 0.0011284716291 0.0011284682733 0.0011284649174 
0.0011284615616 0.0011285235013 0.0011285201451 0.001128516789 0.0011285134328 0.0011285100767 0.0011285067207 0.0011285033646 0.0011285000085 
0.0011284966525 0.0011284932965 0.0011284899405 0.0011284865845 0.0011284832286 0.0011284798726 0.0011284765167 0.0011284731608 0.001128469805 
0.0011284664491 0.0011284630933 0.0011284597374 0.001128521677 0.0011285183208 0.0011285149647 0.0011285116086 0.0011285082525 0.0011285048964 
0.0011285015403 0.0011284981843 0.0011284948283 0.0011284914723 0.0011284881163 0.0011284847603 0.0011284814044 0.0011284780484 0.0011284746925 
0.0011284713367 0.0011284679808 0.0011284646249 0.0011284612691 0.0011284579133 0.0011285198527 0.0011285164965 0.0011285131404 0.0011285097843 
0.0011285064282 0.0011285030721 0.0011284997161 0.00112849636 0.001128493004 0.001128489648 0.0011284862921 0.0011284829361 0.0011284795802 
0.0011284762243 0.0011284728684 0.0011284695125 0.0011284661566 0.0011284628008 0.001128459445 0.0011284560892 0.0011285762375 0.0011285728811 
0.0011285695247 0.0011285661684 0.001128562812 0.0011285594557 0.0011285560994 0.0011285527431 0.0011285493869 0.0011285460306 0.0011285426744 
0.0011285393182 0.001128535962 0.0011285326059 0.0011285292497 0.0011285258936 0.0011285225375 0.0011285191814 0.0011285158254 0.0011285124693 
0.001128574413 0.0011285710566 0.0011285677002 0.0011285643439 0.0011285609876 0.0011285576313 0.001128554275 0.0011285509187 0.0011285475625 
0.0011285442062 0.00112854085 0.0011285374938 0.0011285341377 0.0011285307815 0.0011285274254 0.0011285240693 0.0011285207132 0.0011285173571 
0.001128514001 0.001128510645 0.0011285725885 0.0011285692321 0.0011285658758 0.0011285625194 0.0011285591631 0.0011285558068 0.0011285524505 
0.0011285490943 0.001128545738 0.0011285423818 0.0011285390256 0.0011285356694 0.0011285323133 0.0011285289571 0.001128525601 0.0011285222449 
0.0011285188888 0.0011285155328 0.0011285121767 0.0011285088207 0.001128570764 0.0011285674076 0.0011285640513 0.001128560695 0.0011285573387 
0.0011285539824 0.0011285506261 0.0011285472699 0.0011285439136 0.0011285405574 0.0011285372012 0.001128533845 0.0011285304889 0.0011285271328 
0.0011285237767 0.0011285204206 0.0011285170645 0.0011285137084 0.0011285103524 0.0011285069964 0.0011285689395 0.0011285655832 0.0011285622268 
0.0011285588705 0.0011285555142 0.0011285521579 0.0011285488017 0.0011285454454 0.0011285420892 0.001128538733 0.0011285353768 0.0011285320207 
0.0011285286645 0.0011285253084 0.0011285219523 0.0011285185962 0.0011285152402 0.0011285118841 0.0011285085281 0.0011285051721 0.0011285671151 
0.0011285637587 0.0011285604024 0.0011285570461 0.0011285536898 0.0011285503335 0.0011285469773 0.001128543621 0.0011285402648 0.0011285369086 
0.0011285335525 0.0011285301963 0.0011285268402 0.0011285234841 0.001128520128 0.0011285167719 0.0011285134158 0.0011285100598 0.0011285067038 
0.0011285033478 0.0011285652906 0.0011285619343 0.0011285585779 0.0011285552216 0.0011285518654 0.0011285485091 0.0011285451529 0.0011285417966 
0.0011285384404 0.0011285350843 0.0011285317281 0.001128528372 0.0011285250158 0.0011285216597 0.0011285183036 0.0011285149476 0.0011285115915 
0.0011285082355 0.0011285048795 0.0011285015235 0.0011285634661 0.0011285601098 0.0011285567535 0.0011285533972 0.0011285500409 0.0011285466847 
0.0011285433285 0.0011285399723 0.0011285366161 0.0011285332599 0.0011285299037 0.0011285265476 0.0011285231915 0.0011285198354 0.0011285164793 
0.0011285131233 0.0011285097672 0.0011285064112 0.0011285030552 0.0011284996992 0.0011285616417 0.0011285582854 0.0011285549291 0.0011285515728 
0.0011285482165 0.0011285448603 0.0011285415041 0.0011285381479 0.0011285347917 0.0011285314355 0.0011285280794 0.0011285247233 0.0011285213672 
0.0011285180111 0.001128514655 0.001128511299 0.0011285079429 0.0011285045869 0.0011285012309 0.001128497875 0.0011285598173 0.0011285564609 
0.0011285531047 0.0011285497484 0.0011285463921 0.0011285430359 0.0011285396797 0.0011285363235 0.0011285329673 0.0011285296112 0.0011285262551 
0.0011285228989 0.0011285195428 0.0011285161868 0.0011285128307 0.0011285094747 0.0011285061187 0.0011285027627 0.0011284994067 0.0011284960507 
0.0011285579928 0.0011285546365 0.0011285512803 0.001128547924 0.0011285445678 0.0011285412115 0.0011285378553 0.0011285344992 0.001128531143 
0.0011285277868 0.0011285244307 0.0011285210746 0.0011285177185 0.0011285143625 0.0011285110064 0.0011285076504 0.0011285042944 0.0011285009384 
0.0011284975824 0.0011284942265 0.0011285561684 0.0011285528121 0.0011285494559 0.0011285460996 0.0011285427434 0.0011285393872 0.001128536031 
0.0011285326748 0.0011285293186 0.0011285259625 0.0011285226064 0.0011285192503 0.0011285158942 0.0011285125382 0.0011285091821 0.0011285058261 
0.0011285024701 0.0011284991141 0.0011284957582 0.0011284924023 0.001128554344 0.0011285509877 0.0011285476315 0.0011285442752 0.001128540919 
0.0011285375628 0.0011285342066 0.0011285308505 0.0011285274943 0.0011285241382 0.0011285207821 0.001128517426 0.0011285140699 0.0011285107139 