# vtk DataFile Version 5.1
vtk output
ASCII
DATASET STRUCTURED_POINTS
DIMENSIONS 30 30 30
SPACING 0.01 0.01 0.01
ORIGIN 3.555 -0.145 0.855
POINT_DATA 27000
FIELD FieldData 1
potential 1 27000 double
0.0013330643493 0.0013303137013 0.0013275729864 0.001324842218 0.0013221215115 0.0013194106536 0.0013167096635 0.0013140183782 0.0013113368472 
0.0013086650958 0.0013060029703 0.0013033504428 0.0013007075011 0.0012980740313 0.0012954500719 0.0012928354475 0.0012902301991 0.0012876343003 
0.0012850476149 0.0012824701699 0.001279901877 0.0012773428136 0.0012747927436 0.0012722517275 0.0012697196781 0.0012671965712 0.0012646823768 
0.0012621770249 0.0012596805069 0.0012571927415 0.0013318204761 0.0013290742263 0.001326337903 0.0013236115524 0.0013208952708 0.0013181887977 
0.0013154920846 0.0013128052599 0.001310128069 0.0013074606265 0.0013048028417 0.0013021546124 0.0012995159937 0.0012968867806 0.0012942670418 
0.0012916566707 0.0012890556837 0.0012864640137 0.0012838815661 0.0012813083115 0.0012787442795 0.0012761892893 0.001273643368 0.0012711064588 
0.0012685785097 0.0012660595525 0.0012635494046 0.0012610481091 0.0012585556219 0.0012560718038 0.0013305791892 0.0013278373159 0.0013251054451 
0.0013223834987 0.0013196715674 0.0013169694834 0.0013142771844 0.0013115946352 0.0013089218534 0.00130625874 0.0013036052494 0.0013009613435 
0.0012983269888 0.0012957020948 0.0012930865638 0.001290480495 0.001287883715 0.0012852962183 0.0012827179652 0.0012801489098 0.0012775890904 
0.0012750383064 0.0012724965201 0.0012699636915 0.0012674398814 0.0012649249688 0.0012624189306 0.0012599216927 0.0012574332453 0.0012549535002 
0.0013293405257 0.0013266031162 0.0013238756475 0.0013211581501 0.0013184505994 0.001315752823 0.0013130649459 0.0013103867472 0.0013077183041 
0.0013050595164 0.0013024103299 0.0012997707305 0.0012971406418 0.001294520021 0.0012919087878 0.0012893069452 0.0012867143913 0.0012841311533 
0.0012815570941 0.0012789922067 0.0012764364828 0.0012738898021 0.0012713521372 0.0012688235157 0.0012663038169 0.001263792984 0.0012612909978 
0.0012587978313 0.0012563134259 0.0012538377117 0.001328104674 0.0013253717123 0.0013226486495 0.0013199355934 0.001317232359 0.00131453893 
0.0013118554057 0.0013091815537 0.0013065174459 0.0013038629732 0.0013012181418 0.0012985828386 0.0012959570324 0.0012933406603 0.0012907337259 
0.001288136108 0.0012855477398 0.0012829686507 0.0012803988698 0.0012778381447 0.0012752865275 0.0012727440337 0.0012702105177 0.001267685974 
0.0012651703671 0.0012626636184 0.0012601657031 0.0012576766241 0.0012551962596 0.0012527245548 0.0013268716356 0.001324143062 0.0013214244454 
0.0013187157979 0.0013160169966 0.0013133279972 0.00131064878 0.0013079792756 0.001305319428 0.0013026692741 0.0013000286902 0.0012973976966 
0.0012947760872 0.0012921640326 0.0012895613236 0.0012869679299 0.0012843838433 0.0012818089792 0.0012792433677 0.0012766868194 0.0012741393639 
0.0012716009703 0.0012690716297 0.0012665511942 0.0012640396674 0.0012615370138 0.0012590431881 0.0012565581167 0.0012540817517 0.0012516140624 
0.0013256413792 0.001322917268 0.0013202030246 0.0013174988275 0.0013148044038 0.0013121198093 0.0013094449054 0.0013067797012 0.001304124222 
0.0013014783735 0.0012988421095 0.0012962153398 0.001293598055 0.001290990218 0.0012883917897 0.0012858026266 0.0012832227577 0.0012806521765 
0.0012780906841 0.0012755382843 0.0012729950036 0.0012704607439 0.001267935481 0.0012654192249 0.001262911791 0.0012604132129 0.0012579233854 
0.0012554423393 0.0012529700509 0.0012505063825 0.0013244141194 0.0013216943708 0.0013189845256 0.0013162847118 0.0013135946622 0.00131091443 
0.0013082439057 0.0013055830849 0.0013029319176 0.0013002903641 0.0012976583965 0.0012950359663 0.0012924229873 0.001289819384 0.0012872251523 
0.0012846402631 0.0012820645461 0.0012794981398 0.001276940833 0.0012743926216 0.0012718535117 0.0012693233827 0.0012668022412 0.0012642900262 
0.0012617867236 0.0012592921814 0.0012568064434 0.0012543294365 0.0012518611825 0.0012494015065 0.0013231897258 0.0013204744436 0.0013177690213 
0.0013150736182 0.0013123879491 0.0013097120634 0.0013070458723 0.0013043893761 0.0013017425699 0.0012991053276 0.0012964776512 0.0012938594961 
0.0012912507541 0.0012886514013 0.0012860614073 0.001283480713 0.0012809093692 0.001278347092 0.0012757939898 0.0012732499474 0.0012707149679 
0.0012681889142 0.0012656718713 0.0012631637521 0.0012606644556 0.0012581740607 0.0012556923886 0.0012532194168 0.001250755206 0.0012482995314 
0.001321968444 0.0013192575734 0.0013165565565 0.0013138655301 0.0013111842271 0.0013085126852 0.0013058508361 0.0013031987056 0.0013005561825 
0.0012979232602 0.0012952998853 0.0012926860059 0.0012900814915 0.0012874863767 0.0012849006035 0.0012823242572 0.0012797570007 0.0012771989494 
0.0012746500074 0.0012721101239 0.0012695792885 0.0012670574384 0.0012645444609 0.0012620404395 0.0012595452603 0.0012570588528 0.0012545812543 
0.0012521123222 0.0012496520418 0.0012472003908 0.0013207502408 0.0013180437422 0.0013153471786 0.0013126604566 0.0013099835333 0.0013073162514 
0.0013046588367 0.001302011029 0.0012993728382 0.0012967441927 0.0012941251628 0.0012915154933 0.0012889152611 0.0012863243877 0.0012837427971 
0.0012811706121 0.0012786075933 0.0012760537347 0.0012735089394 0.0012709732263 0.0012684465324 0.0012659287708 0.0012634199514 0.0012609200145 
0.0012584289599 0.0012559466333 0.0012534730803 0.0012510082356 0.0012485519626 0.0012461042972 0.0013195351261 0.0013168330215 0.0013141408185 
0.0013114584321 0.001308785899 0.0013061229825 0.0013034699002 0.0013008263992 0.0012981925264 0.0012955681749 0.0012929533677 0.0012903480663 
0.0012877520656 0.0012851654418 0.0012825881788 0.0012800201138 0.0012774612943 0.0012749115976 0.0012723709876 0.0012698394261 0.0012673168302 
0.0012648032274 0.0012622985466 0.0012598026814 0.0012573156835 0.0012548373979 0.0012523678502 0.0012499070054 0.0012474547884 0.0012450111102 
0.0013183231033 0.0013156253888 0.0013129375637 0.0013102595176 0.0013075913525 0.0013049327878 0.0013022840187 0.0012996448657 0.0012970152783 
0.0012943953412 0.0012917847694 0.0012891836617 0.0012865919614 0.0012840095381 0.0012814365188 0.0012788726238 0.0012763180027 0.0012737724674 
0.0012712360147 0.0012687085852 0.0012661901621 0.0012636806942 0.0012611801289 0.0012586883393 0.0012562053751 0.0012537311645 0.001251265654 
0.0012488088321 0.0012463606207 0.0012439209294 0.0013171142104 0.0013144208817 0.0013117374197 0.0013090637471 0.0013063997983 0.001303745676 
0.0013011012887 0.0012984664328 0.0012958411809 0.0012932254798 0.0012906192392 0.0012880223545 0.0012854348839 0.0012828568001 0.0012802878904 
0.001277728236 0.0012751777343 0.0012726363719 0.0012701040806 0.0012675808323 0.0012650665612 0.0012625611974 0.0012600647045 0.0012575770379 
0.001255098132 0.0012526279664 0.00125016649 0.001247713688 0.0012452694283 0.0012428337583 0.0013159084458 0.0013132195103 0.0013105404058 
0.0013078711024 0.001305211482 0.0013025616964 0.0012999216319 0.0012972910969 0.001294670162 0.0012920587464 0.0012894567545 0.0012868641642 
0.0012842809847 0.0012817070581 0.0012791424008 0.0012765869109 0.0012740405689 0.00127150343 0.0012689752776 0.0012664561558 0.0012639459911 
0.0012614447561 0.001258952359 0.0012564687724 0.0012539939307 0.0012515278221 0.0012490703707 0.001246621585 0.001244181336 0.0012417495223 
0.0013147058368 0.0013120213185 0.0013093465414 0.0013066815832 0.0013040263219 0.0013013808311 0.0012987450973 0.0012961189378 0.0012935022419 
0.0012908951031 0.0012882973729 0.0012857090363 0.0012831300894 0.001280560391 0.00127799995 0.001275448655 0.001272906491 0.0012703735613 
0.0012678495674 0.0012653345638 0.0012628285236 0.0012603313766 0.0012578430945 0.0012553635858 0.001252892806 0.00125043074 0.0012479772604 
0.001245532484 0.0012430962159 0.0012406684483 0.0013135063416 0.0013108262259 0.0013081557825 0.0013054951886 0.0013028442945 0.001300203131 
0.0012975716882 0.0012949498136 0.0012923374836 0.0012897345634 0.0012871410971 0.001284557078 0.0012819823286 0.0012794168344 0.0012768605385 
0.0012743135004 0.0012717755693 0.0012692467237 0.0012667268973 0.0012642160662 0.0012617141105 0.0012592210691 0.0012567368559 0.0012542613823 
0.0012517946775 0.001249336637 0.001246887242 0.0012444464773 0.0012420141997 0.0012395904068 0.0013123100645 0.0013096342577 0.0013069682224 
0.0013043118493 0.0013016653575 0.0012990285185 0.0012964013601 0.0012937837914 0.0012911757507 0.0012885771225 0.0012859879558 0.0012834081178 
0.0012808376026 0.0012782763533 0.0012757242828 0.0012731814163 0.0012706476562 0.0012681229728 0.0012656073021 0.0012631005887 0.001260602744 
0.0012581137686 0.0012556336427 0.0012531622796 0.0012506996301 0.0012482456497 0.0012458003236 0.0012433635177 0.0012409352402 0.0012385154001 
0.0013111167898 0.0013084453687 0.0013057837357 0.0013031317247 0.0013004895666 0.0012978570486 0.0012952341857 0.0012926208549 0.0012900170765 
0.0012874228034 0.0012848378722 0.0012822623004 0.0012796959771 0.0012771389449 0.0012745911046 0.0012720524001 0.0012695227565 0.001267002233 
0.0012644907292 0.0012619881188 0.001259494455 0.0012570096162 0.0012545335376 0.0012520662432 0.0012496076462 0.0012471576972 0.0012447163917 
0.0012422836009 0.0012398592945 0.0012374434311 0.0013099267365 0.0013072595995 0.0013046022474 0.0013019546102 0.0012993167834 0.0012966885839 
0.0012940700724 0.0012914610735 0.0012888615759 0.0012862715491 0.0012836908559 0.0012811194634 0.0012785573512 0.001276004535 0.0012734608941 
0.0012709264027 0.0012684009619 0.0012658845903 0.0012633772362 0.0012608787984 0.0012583891952 0.0012559084538 0.0012534364997 0.0012509732341 
0.001248518692 0.001246072775 0.0012436354725 0.0012412066886 0.0012387863662 0.0012363744675 0.0013087396212 0.0013060768982 0.0013034237892 
0.0013007805562 0.0012981470883 0.0012955232451 0.0012929090045 0.0012903042601 0.0012877090603 0.0012851232403 0.0012825467563 0.0012799796874 
0.0012774218547 0.0012748732085 0.0012723337648 0.001269803448 0.0012672822054 0.0012647699448 0.001262266751 0.0012597724211 0.0012572869284 
0.0012548103079 0.0012523424271 0.0012498832618 0.0012474327311 0.0012449908311 0.001242557558 0.0012401327506 0.0012377164279 0.0012353085117 
0.0013075555902 0.0013048971513 0.001302248384 0.0012996094926 0.0012969803195 0.0012943608123 0.0012917508949 0.0012891505308 0.0012865595471 
0.0012839779683 0.0012814057516 0.0012788428985 0.0012762893073 0.0012737449163 0.001271209667 0.0012686835308 0.0012661664221 0.0012636583397 
0.00126115926 0.0012586690629 0.0012561877255 0.0012537151387 0.0012512513348 0.0012487962307 0.0012463497617 0.0012439118679 0.0012414826287 
0.0012390618075 0.0012366494468 0.0012342454832 0.0013063745545 0.0013037203403 0.0013010760111 0.0012984414654 0.0012958166712 0.0012932014112 
0.0012905958557 0.0012879997215 0.001285412969 0.0012828356679 0.0012802677226 0.0012777090797 0.0012751597337 0.0012726195441 0.001270088501 
0.0012675665268 0.0012650536309 0.0012625496964 0.0012600547517 0.0012575686247 0.0012550913731 0.0012526229258 0.001250163163 0.0012477121164 
0.0012452696889 0.0012428359329 0.0012404106072 0.0012379937469 0.0012355853722 0.0012331853517 0.0013051964359 0.0013025466099 0.0012999066708 
0.0012972763995 0.001294655903 0.0012920449519 0.0012894436989 0.0012868517989 0.0012842693602 0.0012816963177 0.0012791325924 0.0012765782056 
0.0012740330355 0.0012714971051 0.0012689702532 0.0012664524549 0.0012639437116 0.0012614439255 0.0012589530859 0.0012564711449 0.0012539979962 
0.0012515336012 0.0012490779717 0.0012466309282 0.0012441925523 0.0012417628067 0.0012393415118 0.0012369286164 0.0012345241873 0.0012321281496 
0.0013040212271 0.0013013757543 0.0012987401356 0.0012961141916 0.0012934980286 0.0012908914291 0.0012882943508 0.0012857067669 0.001283128628 
0.0012805598423 0.0012780003657 0.0012754502131 0.00127290926 0.0012703774997 0.0012678548603 0.0012653412363 0.0012628366522 0.0012603410128 
0.0012578543065 0.0012553765176 0.0012529074482 0.0012504471676 0.0012479955944 0.0012455526616 0.0012431182443 0.0012406925227 0.0012382752339 
0.0012358663419 0.0012334658271 0.0012310737461 0.0013028487044 0.0013002077102 0.0012975764418 0.001294954849 0.0012923430198 0.001289740639 
0.0012871478955 0.0012845645976 0.0012819906958 0.0012794261959 0.0012768709495 0.0012743250005 0.0012717882871 0.0012692607079 0.0012667422545 
0.0012642328247 0.0012617324021 0.0012592409186 0.0012567583425 0.0012542846701 0.0012518197191 0.0012493634908 0.0012469159771 0.0012444771124 
0.0012420467626 0.001239625062 0.0012372116892 0.001234806812 0.00123241033 0.0012300221669 0.0013016790762 0.0012990424318 0.0012964155028 
0.0012937982937 0.0012911906643 0.001288592683 0.0012860042075 0.0012834251829 0.0012808555477 0.001278295263 0.001275744289 0.0012732025674 
0.0012706700431 0.0012681466853 0.0012656323847 0.0012631271928 0.0012606309101 0.0012581435694 0.0012556651224 0.00125319555 0.0012507347027 
0.0012482825794 0.0012458390937 0.001243404229 0.0012409779863 0.0012385602437 0.0012361509404 0.0012337500726 0.001231357498 0.0012289732878 
0.0013005121672 0.0012978798651 0.0012952573192 0.0012926443918 0.0012900410662 0.0012874473872 0.0012848631861 0.0012822884394 0.0012797230696 
0.0012771670582 0.0012746202855 0.0012720828215 0.001269554521 0.0012670353617 0.001264525246 0.0012620241961 0.001259532093 0.0012570488792 
0.0012545745663 0.0012521091127 0.0012496523585 0.0012472042534 0.001244764851 0.0012423340528 0.0012399119243 0.0012374981387 0.001235092804 
0.0012326959335 0.0012303073848 0.0012279271773 0.0012993478154 0.001296719942 0.0012941017231 0.0012914930903 0.0012888941015 0.0012863046973 
0.0012837248 0.0012811543301 0.0012785932246 0.0012760414434 0.0012734989316 0.0012709656623 0.0012684416021 0.0012659266285 0.0012634207174 
0.0012609238024 0.0012584358495 0.0012559568053 0.0012534865916 0.0012510252001 0.0012485725471 0.0012461285821 0.0012436932646 0.0012412664964 
0.0012388483446 0.0012364386499 0.0012340373808 0.0012316444385 0.0012292598705 0.0012268836017 0.0012981861025 0.0012955625407 0.0012929486076 
0.0012903443407 0.0012877497043 0.0012851645732 0.0012825889479 0.0012800227541 0.0012774659236 0.0012749184005 0.0012723801128 0.0012698510758 
0.0012673311884 0.0012648204276 0.0012623186515 0.0012598259457 0.0012573421493 0.0012548671962 0.0012524011292 0.0012499439001 0.0012474953291 
0.0012450554098 0.0012426241573 0.0012402014716 0.0012377873702 0.0012353816962 0.0012329844284 0.0012305954696 0.0012282148684 0.0012258424734 
0.0013479463776 0.0013451656969 0.0013423949899 0.0013396344896 0.0013368839803 0.0013341434229 0.0013314128524 0.0013286921554 0.001325981396 
0.0013232804127 0.0013205892007 0.0013179076594 0.0013152358297 0.0013125735691 0.0013099208603 0.0013072776808 0.0013046439706 0.0013020196707 
0.0012994047353 0.0012967990952 0.0012942027958 0.0012916156317 0.0012890376638 0.0012864688458 0.0012839090914 0.0012813583448 0.0012788166751 
0.0012762839297 0.0012737600099 0.0012712449149 0.0013466883728 0.001343912094 0.0013411459415 0.0013383899127 0.0013356437661 0.0013329076613 
0.0013301815649 0.0013274652687 0.0013247589051 0.0013220623021 0.0013193754384 0.0013166982951 0.0013140307733 0.0013113728447 0.0013087244468 
0.0013060855611 0.0013034561047 0.0013008360826 0.0012982253756 0.0012956240355 0.0012930319146 0.0012904489736 0.0012878752455 0.0012853105996 
0.0012827549648 0.0012802083895 0.0012776707889 0.0012751421521 0.0012726223608 0.0012701114111 0.0013454328309 0.0013426610378 0.0013398993835 
0.001337147813 0.0013344061458 0.0013316744638 0.0013289527851 0.00132624089 0.0013235389202 0.0013208466947 0.0013181641929 0.0013154913998 
0.0013128282366 0.001310174599 0.0013075305166 0.0013048959256 0.0013022707474 0.0012996550027 0.0012970485583 0.0012944514732 0.0012918635305 
0.0012892847466 0.001286715139 0.0012841547037 0.0012816032604 0.00127906082 0.0012765273408 0.0012740028086 0.0012714871102 0.001268980231 
0.0013441800371 0.0013414127514 0.0013386554707 0.0013359082662 0.0013331710382 0.0013304438061 0.0013277264714 0.0013250190562 0.0013223214668 
0.0013196336143 0.0013169554732 0.001314287064 0.0013116282353 0.0013089789332 0.0013063391403 0.0013037088326 0.001301087949 0.0012984764153 
0.001295874216 0.0012932813136 0.0012906975808 0.0012881230415 0.0012855576318 0.0012830013034 0.0012804540263 0.0012779157186 0.0012753863552 
0.0012728659509 0.0012703543425 0.0012678515271 0.0013429298218 0.0013401669736 0.0013374142027 0.0013346714625 0.0013319387137 0.0013292159072 
0.0013265029195 0.0013237999155 0.0013211066885 0.0013184232075 0.0013157494162 0.0013130853217 0.0013104308035 0.0013077858404 0.0013051502975 
0.0013025242965 0.0012999076596 0.0012973003812 0.0012947024931 0.0012921137594 0.0012895342724 0.0012869639273 0.0012844026957 0.0012818505291 
0.0012793073966 0.0012767732139 0.0012742479697 0.0012717316194 0.0012692240894 0.0012667253347 0.0013416822651 0.0013389239237 0.0013361755224 
0.0013334373397 0.0013307090409 0.0013279906338 0.001325282091 0.0013225834811 0.0013198946374 0.0013172154608 0.001314545968 0.0013118861987 
0.0013092359901 0.0013065953175 0.0013039641628 0.001301342446 0.0012987300935 0.0012961271301 0.0012935334003 0.001290948871 0.0012883735689 
0.0012858074526 0.0012832503951 0.0012807023822 0.0012781633973 0.0012756333441 0.0012731122001 0.0012705999431 0.0012680965154 0.0012656017987 
0.0013404375191 0.0013376835393 0.0013349396938 0.0013322059492 0.0013294820835 0.0013267680818 0.0013240639198 0.0013213696684 0.0013186851898 
0.0013160104389 0.0013133453603 0.001310689933 0.0013080440278 0.001305407682 0.0013027807418 0.0013001633025 0.0012975552102 0.0012949565259 
0.0012923670097 0.0012897867168 0.0012872156011 0.0012846536277 0.001282100781 0.001279556932 0.0012770220782 0.0012744961741 0.0012719791356 
0.0012694709661 0.001266971552 0.0012644809205 0.0013391954807 0.0013364460226 0.0013337066692 0.0013309773171 0.0013282578758 0.001325548261 
0.0013228486281 0.0013201587292 0.0013174785997 0.0013148082076 0.0013121475065 0.0013094963602 0.0013068547905 0.0013042227526 0.0013016001708 
0.001298986985 0.0012963832513 0.0012937887334 0.0012912034617 0.0012886272922 0.0012860603759 0.0012835025919 0.0012809539045 0.0012784142444 
0.0012758835249 0.001273361716 0.0012708487433 0.0012683446728 0.0012658493781 0.0012633627969 0.0013379563913 0.0013352114281 0.001332476519 
0.0013297515707 0.0013270365781 0.001324331368 0.0013216361303 0.0013189506694 0.0013162748821 0.0013136087888 0.0013109524358 0.0013083056347 
0.001305668379 0.0013030406406 0.0013004223464 0.0012978135081 0.0012952139318 0.0012926236692 0.0012900426239 0.0012874707822 0.0012849080671 
0.0012823544453 0.0012798099019 0.0012772743396 0.0012747477809 0.0012722300149 0.0012697211736 0.0012672212056 0.0012647299228 0.0012622473683 
0.0013367202338 0.0013339797417 0.0013312492719 0.0013285287527 0.0013258181759 0.0013231173888 0.0013204265118 0.0013177454376 0.0013150740471 
0.001312412304 0.0013097602561 0.0013071177792 0.0013044848623 0.0013018613915 0.0012992473813 0.0012966427882 0.0012940474812 0.0012914614857 
0.0012888846639 0.0012863170046 0.0012837585028 0.0012812090033 0.0012786686087 0.0012761371635 0.0012736147358 0.0012711012353 0.0012685964877 
0.0012661005477 0.0012636133429 0.0012611348269 0.0013354870103 0.0013327509777 0.0013300249658 0.0013273088716 0.0013246026777 0.001321906309 
0.0013192198264 0.0013165430994 0.0013138760473 0.0013112187118 0.0013085709702 0.0013059328431 0.0013033041714 0.0013006850328 0.001298075341 
0.0012954749991 0.0012928839413 0.0012903021191 0.0012877295624 0.0012851661056 0.0012826117856 0.0012800665289 0.0012775302261 0.0012750029715 
0.0012724846518 0.0012699751641 0.0012674745541 0.0012649827084 0.0012624995609 0.0012600250918 0.0013342567801 0.0013315251679 0.0013288035923 
0.001326091937 0.0013233900686 0.0013206981905 0.0013180160781 0.0013153437342 0.0013126810882 0.001310028136 0.0013073847158 0.0013047508633 
0.0013021265508 0.0012995117042 0.001296906214 0.001294310128 0.0012917232986 0.0012891457208 0.0012865773471 0.0012840181154 0.0012814679775 
0.0012789268698 0.0012763947954 0.0012738716344 0.0012713574069 0.0012688520425 0.0012663554751 0.0012638677491 0.0012613886558 0.0012589182237 
0.0013330295507 0.0013303024421 0.0013275852151 0.0013248779825 0.0013221805389 0.0013194929978 0.0013168153065 0.0013141473384 0.0013114890475 
0.0013088404264 0.0013062014099 0.0013035718561 0.0013009517873 0.0012983412761 0.0012957400221 0.0012931481808 0.0012905655888 0.0012879922446 
0.0012854280866 0.0012828730287 0.0012803271009 0.0012777901595 0.0012752622256 0.0012727432036 0.0012702330948 0.0012677318315 0.0012652393871 
0.0012627556969 0.0012602806527 0.0012578142547 0.0013318054058 0.0013290826595 0.0013263698593 0.0013236670111 0.0013209739687 0.0013182908376 
0.0013156175596 0.001312953924 0.001310299994 0.0013076557283 0.0013050210213 0.0013023958266 0.001299780129 0.0012971737781 0.0012945768269 
0.0012919892072 0.0012894108376 0.0012868417251 0.0012842817004 0.0012817308953 0.0012791891199 0.0012766563846 0.0012741325983 0.0012716177157 
0.0012691117151 0.0012666145494 0.0012641261865 0.0012616465157 0.0012591755684 0.0012567131418 0.0013305842128 0.0013278658999 0.0013251575138 
0.0013224590706 0.0013197704076 0.0013170916928 0.0013144227961 0.0013117635205 0.0013091139286 0.0013064740411 0.0013038436235 0.0013012227921 
0.0012986113513 0.0012960092877 0.0012934165662 0.001290833194 0.0012882590846 0.0012856941481 0.0012831383882 0.0012805917501 0.0012780541513 
0.0012755255559 0.0012730059355 0.0012704951821 0.0012679933008 0.0012655002046 0.0012630158668 0.0012605402584 0.0012580733075 0.0012556150127 
0.0013293660421 0.0013266521593 0.0013239481766 0.001321254068 0.0013185699095 0.0013158955359 0.0013132310116 0.0013105761417 0.0013079309326 
0.0013052953155 0.0013026692151 0.0013000526796 0.0012974455259 0.0012948477208 0.0012922592983 0.001289680175 0.0012871102846 0.0012845495974 
0.0012819980052 0.0012794555398 0.0012769221286 0.00127439769 0.0012718821934 0.0012693756024 0.0012668777541 0.0012643887713 0.0012619085654 
0.0012594370161 0.0012569741074 0.001254519785 0.0013281509016 0.0013254414208 0.001322741886 0.001320052169 0.0013173723981 0.0013147024087 
0.0013120422375 0.0013093917272 0.001306750899 0.0013041195796 0.0013014978329 0.0012988855337 0.0012962826678 0.0012936892216 0.0012911050305 
0.0012885301115 0.0012859644572 0.0012834079855 0.0012808606133 0.0012783223138 0.0012757930141 0.0012732727302 0.0012707613687 0.0012682588797 
0.0012657652179 0.0012632803251 0.0012608041966 0.0012583367005 0.0012558778116 0.0012534275385 0.0013269387914 0.0013242337291 0.001321538568 
0.0013188532935 0.0013161779197 0.0013135123068 0.0013108564514 0.001308210273 0.0013055738006 0.0013029468686 0.001300329412 0.001297721412 
0.0012951228518 0.0012925336401 0.0012899536891 0.0012873830248 0.0012848216343 0.0012822692753 0.0012797261072 0.0012771920263 0.0012746669167 
0.0012721507846 0.0012696435592 0.0012671451903 0.0012646556118 0.0012621748063 0.0012597027715 0.0012572393381 0.0012547844938 0.001252338221 
0.0013257296969 0.0013230290196 0.0013203382221 0.0013176574387 0.0013149863798 0.0013123251409 0.001309673647 0.0013070318923 0.0013043996929 
0.001301777109 0.0012991639674 0.0012965602627 0.0012939659638 0.001291380924 0.0012888052776 0.0012862388672 0.0012836816327 0.0012811336273 
0.0012785946045 0.0012760646871 0.0012735437857 0.0012710317823 0.0012685286904 0.0012660344389 0.0012635489778 0.0012610722503 0.0012586042647 
0.0012561448785 0.0012536940798 0.0012512518237 0.0013245235666 0.0013218272947 0.0013191408773 0.0013164644777 0.001313797889 0.0013111410218 
0.0013084938871 0.0013058564787 0.0013032285436 0.0013006102588 0.0012980014018 0.0012954019898 0.001292811929 0.0012902312505 0.0012876598538 
0.0012850976722 0.0012825446945 0.0012800008728 0.001277466087 0.0012749403017 0.0012724235568 0.0012699157314 0.0012674167499 0.0012649266137 
0.0012624452515 0.001259972645 0.0012575086644 0.0012550533146 0.0012526065766 0.0012501683237 0.001323320385 0.0013206283675 0.0013179464587 
0.0013152744223 0.001312612247 0.0013099597466 0.0013073170198 0.0013046839773 0.0013020603847 0.0012994463494 0.0012968418606 0.0012942466543 
0.0012916609065 0.0012890844889 0.0012865173412 0.0012839593933 0.0012814106361 0.0012788710465 0.0012763404268 0.0012738188628 0.0012713062234 
0.0012688025492 0.001266307733 0.0012638216732 0.0012613444135 0.0012588758886 0.0012564159701 0.001253964667 0.0012515219519 0.0012490877171 
0.0013221200945 0.00131943253 0.0013167549846 0.0013140873401 0.0013114295374 0.0013087814344 0.0013061430929 0.0013035143364 0.0013008950715 
0.0012982853519 0.0012956850582 0.0012930942894 0.0012905128222 0.0012879406603 0.0012853777203 0.0012828240023 0.0012802794616 0.0012777440852 
0.0012752176527 0.0012727002603 0.001270191766 0.0012676922329 0.001265201542 0.0012627196275 0.0012602464405 0.0012577820022 0.0012553261555 
0.0012528789048 0.0012504401712 0.0012480099069 0.0013209226959 0.0013182395971 0.0013155664254 0.0013129031699 0.0013102497082 0.0013076059517 
0.0013049720308 0.0013023475744 0.0012997326588 0.001297127186 0.0012945312348 0.0012919447525 0.0012893675581 0.0012867996548 0.0012842409991 
0.0012816915201 0.0012791511946 0.0012766199675 0.0012740977502 0.0012715845044 0.0012690802145 0.0012665847539 0.0012640981913 0.001261620402 
0.0012591513342 0.0012566909283 0.0012542391266 0.0012517958964 0.0012493612212 0.0012469349966 0.00131972806 0.0013170494718 0.0013143807117 
0.0013117218141 0.0013090727225 0.0013064334103 0.0013038037567 0.0013011836375 0.001298573005 0.001295971884 0.001293380231 0.0012907979701 
0.0012882251205 0.0012856614738 0.001283107061 0.0012805618147 0.0012780256881 0.0012754986991 0.0012729806639 0.0012704716114 0.0012679714176 
0.0012654801455 0.0012629976665 0.0012605239846 0.0012580589817 0.0012556027075 0.0012531549275 0.0012507157352 0.0012482850621 0.0012458628635 
0.0013185362961 0.0013158621159 0.001313197753 0.001310543264 0.0013078985717 0.0013052635587 0.0013026382298 0.0013000224361 0.0012974161676 
0.0012948193662 0.0012922320096 0.0012896540316 0.0012870853714 0.0012845260491 0.0012819758664 0.0012794348582 0.001276902942 0.0012743800821 
0.0012718663015 0.001269361417 0.0012668654439 0.0012643782869 0.0012618999246 0.0012594302966 0.0012569694521 0.0012545171858 0.0012520734974 
0.001249638318 0.0012472116654 0.0012447934788 0.0013173472462 0.0013146774857 0.0013120175216 0.0013093674641 0.0013067271293 0.0013040964824 
0.0013014754359 0.0012988639855 0.0012962620621 0.0012936695573 0.0012910864953 0.0012885127989 0.0012859484063 0.0012833933154 0.0012808473948 
0.0012783106109 0.0012757829069 0.0012732642436 0.0012707546558 0.0012682539487 0.0012657621162 0.0012632791118 0.0012608048723 0.0012583393873 
0.0012558825926 0.0012534343457 0.0012509947403 0.0012485636285 0.0012461409169 0.0012437267352 0.0013161608825 0.0013134955101 0.0013108400589 
0.0013081942763 0.0013055583521 0.0013029319992 0.0013003153149 0.0012977081876 0.0012951105821 0.0012925224088 0.0012899436403 0.0012873742235 
0.0012848140988 0.0012822632188 0.0012797215783 0.001277189019 0.001274665534 0.0012721510769 0.0012696456606 0.0012671491039 0.0012646614218 
0.0012621825566 0.0012597124422 0.0012572510355 0.0012547983395 0.0012523541554 0.0012499185954 0.0012474914799 0.0012450728804 0.0012426626659 
0.0013149771356 0.0013123162071 0.0013096650968 0.0013070236963 0.0013043920851 0.0013017701514 0.0012991577919 0.0012965550115 0.0012939617234 
0.0012913778316 0.001288803389 0.0012862382385 0.0012836823824 0.0012811357536 0.0012785983259 0.0012760700371 0.0012735507514 0.0012710404733 
0.0012685392375 0.0012660468502 0.0012635633173 0.001261088586 0.0012586225843 0.0012561652508 0.0012537166223 0.0012512765547 0.0012488450536 
0.0012464220165 0.0012440074074 0.0012416010977 0.0013137958929 0.0013111393828 0.0013084926673 0.001305855638 0.0013032284435 0.0013006108273 
0.001298002813 0.001295404336 0.0012928153791 0.001290235791 0.0012876656249 0.0012851047892 0.0012825532171 0.0012800108338 0.0012774776032 
0.0012749535109 0.0012724384884 0.0012699323893 0.001267435335 0.0012649471115 0.0012624677269 0.0012599970656 0.0012575351823 0.0012550820314 
0.0012526374759 0.0012502015171 0.0012477739717 0.0012453549708 0.0012429443965 0.0012405421447 0.0013126172097 0.0013099650669 0.0013073226846 
0.0013046900363 0.0013020672102 0.0012994539499 0.001296850296 0.0012942561412 0.0012916715018 0.0012890962176 0.0012865303473 0.0012839737597 
0.0012814264643 0.001278888337 0.001276359351 0.0012738394534 0.0012713286623 0.0012688267555 0.001266333857 0.0012638497476 0.0012613745109 
0.0012589080392 0.0012564502751 0.0012540012435 0.001251560734 0.0012491288242 0.0012467053795 0.0012442904214 0.0012418838211 0.0012394856162 
0.0013628157905 0.0013600050017 0.001357204485 0.0013544142243 0.0013516339788 0.0013488638469 0.0013461037677 0.0013433537849 0.0013406137384 
0.0013378836319 0.001335163326 0.0013324528712 0.0013297521928 0.0013270611868 0.0013243798465 0.0013217081346 0.0013190459232 0.0013163932595 
0.0013137500612 0.0013111163609 0.0013084919937 0.0013058769061 0.00130327116 0.0013006745711 0.0012980871617 0.0012955088857 0.0012929396386 
0.0012903794861 0.0012878283458 0.0012852861103 0.0013615436126 0.0013587373576 0.0013559413633 0.0013531556073 0.0013503798857 0.0013476142373 
0.0013448586026 0.0013421130774 0.0013393774722 0.0013366517876 0.0013339359284 0.0013312298721 0.0013285335613 0.0013258469166 0.0013231699363 
0.0013205025467 0.0013178447379 0.0013151963688 0.0013125575144 0.0013099281187 0.0013073079598 0.0013046971202 0.0013020955421 0.0012995031511 