# vtk DataFile Version 5.1
vtk output
ASCII
DATASET STRUCTURED_POINTS
DIMENSIONS 30 30 30
SPACING 0.01 0.01 0.01
ORIGIN 1.555 -0.145 0.855
POINT_DATA 27000
FIELD FieldData 1
potential 1 27000 double
0.0013688080173 0.0013661200753 0.0013634416938 0.0013607729312 0.0013581137239 0.0013554638718 0.0013528235562 0.0013501925297 0.001347570977 
0.0013449586859 0.001342355589 0.0013397617709 0.0013371771813 0.0013346016987 0.0013320353742 0.0013294780608 0.0013269297747 0.0013243904738 
0.0013218602165 0.0013193389005 0.0013168264512 0.0013143228651 0.0013118279753 0.0013093418067 0.0013068643784 0.0013043956049 0.0013019355356 
0.0012994839656 0.0012970409422 0.0012946062673 0.0013670177473 0.0013643345031 0.0013616609191 0.001358996949 0.0013563423314 0.0013536972508 
0.0013510614635 0.0013484350213 0.0013458179383 0.0013432101154 0.0013406114507 0.0013380220489 0.0013354417992 0.0013328707284 0.0013303086501 
0.0013277555996 0.0013252115682 0.0013226764953 0.0013201503874 0.0013176331932 0.0013151247854 0.0013126253232 0.0013101344355 0.0013076522882 
0.0013051788382 0.0013027140324 0.001300257796 0.0012978100817 0.0012953708694 0.0012929400054 0.0013652308014 0.0013625523544 0.0013598834814 
0.0013572241628 0.0013545744007 0.0013519338477 0.0013493026755 0.0013466807742 0.0013440681021 0.0013414647651 0.001338870547 0.0013362855368 
0.0013337097012 0.0013311429732 0.0013285852285 0.0013260363941 0.001323496588 0.0013209657368 0.0013184437882 0.0013159307627 0.0013134265281 
0.0013109309795 0.0013084441507 0.0013059660193 0.0013034964934 0.0013010355597 0.0012985832288 0.0012961393954 0.0012937039388 0.0012912769998 
0.0013634473231 0.0013607736099 0.0013581095519 0.0013554550016 0.0013528097197 0.0013501738419 0.0013475472423 0.0013449298411 0.0013423217408 
0.0013397227926 0.0013371330347 0.0013345524148 0.0013319809633 0.0013294184977 0.0013268650574 0.0013243205803 0.0013217849911 0.0013192583871 
0.0013167405539 0.0013142317085 0.0013117314515 0.0013092399475 0.0013067571395 0.0013042830379 0.0013018175085 0.0012993604645 0.0012969119894 
0.0012944719731 0.0012920403746 0.0012896172413 0.0013616673711 0.001358998509 0.0013563391087 0.0013536891225 0.0013510485178 0.0013484171937 
0.0013457951768 0.0013431823118 0.0013405787125 0.0013379842266 0.001335398956 0.001332822695 0.0013302555667 0.0013276974642 0.0013251482944 
0.0013226080792 0.0013200767753 0.0013175543328 0.001315040653 0.0013125359424 0.0013100398026 0.0013075523603 0.0013050735708 0.0013026034254 
0.0013001418513 0.00129768873 0.0012952441774 0.0012928079914 0.0012903802141 0.0012879608663 0.0013598910121 0.0013572268856 0.0013545722898 
0.0013519269693 0.0013492909512 0.0013466641859 0.0013440466483 0.0013414383446 0.0013388392621 0.0013362492658 0.0013336684457 0.0013310966608 
0.001328533778 0.0013259799328 0.0013234351007 0.0013208991401 0.0013183720573 0.0013158538501 0.0013133443739 0.001310843688 0.0013083516148 
0.0013058682241 0.0013033934982 0.0013009273105 0.001298469656 0.0012960205243 0.0012935798135 0.001291147487 0.0012887235528 0.0012863079931 
0.0013581183666 0.0013554590535 0.0013528091412 0.0013501684218 0.0013475369508 0.0013449148074 0.0013423018601 0.0013396980566 0.001337103434 
0.0013345178807 0.0013319414342 0.0013293741077 0.0013268156512 0.0013242660697 0.0013217254706 0.0013191938102 0.0013166709358 0.0013141568875 
0.0013116516194 0.0013091549942 0.0013066670425 0.0013041877051 0.001301716966 0.0012992547575 0.001296801057 0.0012943556918 0.0012919189609 
0.0012894905745 0.001287070463 0.0012846586663 0.0013563494684 0.0013536950003 0.0013510496323 0.0013484135902 0.0013457867837 0.0013431691871 
0.0013405607362 0.0013379615051 0.001335371367 0.0013327902846 0.0013302182465 0.0013276552382 0.0013251011151 0.0013225559662 0.0013200195954 
0.0013174921121 0.0013149734467 0.0013124636694 0.001309962515 0.0013074699978 0.0013049861221 0.001302510834 0.0013000440764 0.0012975858478 
0.0012951360554 0.0012926946758 0.0012902617212 0.0012878372595 0.0012854209479 0.0012830129543 0.0013545845367 0.0013519346444 0.001349293996 
0.0013466626115 0.0013440403937 0.0013414273963 0.0013388234729 0.0013362287321 0.0013336430265 0.0013310664073 0.0013284987677 0.0013259400844 
0.0013233903703 0.0013208494936 0.0013183174825 0.0013157941797 0.0013132796888 0.0013107741232 0.0013082770297 0.0013057886872 0.0013033088847 
0.0013008376344 0.0012983748787 0.0012959206301 0.0012934747353 0.0012910373272 0.0012886082518 0.0012861875733 0.0012837751568 0.0012813709366 
0.001352823438 0.0013501782329 0.0013475422581 0.0013449154962 0.0013422978951 0.0013396894405 0.0013370900645 0.0013344998203 0.0013319185735 
0.0013293463846 0.0013267831337 0.0013242287904 0.0013216834398 0.0013191468859 0.0013166191368 0.001314100102 0.0013115899279 0.0013090883958 
0.0013065954104 0.001304111013 0.001301635387 0.0012991681875 0.0012967094873 0.0012942590726 0.0012918172491 0.0012893837101 0.0012869585444 
0.0012845416618 0.0012821330411 0.0012797327392 0.0013510663496 0.0013484257876 0.0013457944798 0.0013431723273 0.0013405593393 0.0013379554542 
0.0013353605939 0.0013327747942 0.0013301980175 0.001327630238 0.0013250713577 0.0013225214046 0.0013199802974 0.0013174480771 0.001314924617 
0.0013124098495 0.0013099039038 0.0013074064177 0.0013049176387 0.0013024374041 0.0012999657487 0.0012975025846 0.0012950477985 0.0012926015017 
0.0012901635308 0.0012877339385 0.0012853126143 0.0012828995759 0.0012804947655 0.0012780982084 0.0013493132245 0.0013466773441 0.0013440506696 
0.0013414331247 0.0013388247255 0.0013362253784 0.001333635044 0.0013310537208 0.0013284813986 0.001325918035 0.0013233635533 0.0013208179342 
0.0013182810886 0.0013157531442 0.0013132339076 0.001310723501 0.0013082217157 0.0013057284766 0.0013032437523 0.0013007675971 0.0012983000269 
0.0012958408171 0.0012933900696 0.0012909477777 0.0012885137553 0.0012860880261 0.0012836705253 0.0012812613392 0.001278860285 0.0012764675235 
0.0013475641292 0.0013449329353 0.0013423108906 0.001339697968 0.0013370941343 0.0013344993411 0.001331913512 0.0013293366506 0.0013267687064 
0.001324209699 0.001321659655 0.0013191183795 0.0013165859138 0.0013140621875 0.0013115472365 0.0013090410857 0.0013065434571 0.0013040543516 
0.0013015738079 0.0012991017102 0.0012966381117 0.0012941829699 0.0012917362653 0.0012892979364 0.001286867799 0.0012844460118 0.0012820323883 
0.0012796270351 0.0012772297918 0.0012748408092 0.0013458191334 0.0013431926002 0.001340575135 0.0013379668184 0.0013353675369 0.0013327772921 
0.0013301959538 0.0013276235731 0.0013250601266 0.0013225054822 0.0013199597939 0.0013174228669 0.0013148947086 0.0013123752588 0.0013098646422 
0.0013073625783 0.0013048690848 0.0013023841235 0.0012999077489 0.0012974398008 0.0012949801933 0.0012925290933 0.001290086394 0.0012876520326 
0.0012852258674 0.0012828079859 0.0012803981868 0.0012779966856 0.0012756032452 0.0012732180376 0.0013440782039 0.0013414563188 0.0013388435178 
0.0013362397858 0.0013336450557 0.0013310593321 0.0013284824618 0.0013259145875 0.0013233555491 0.0013208052952 0.0013182639734 0.0013157313769 
0.0013132074954 0.0013106923314 0.0013081858928 0.0013056880531 0.0013031987486 0.0013007179581 0.001298245681 0.0012957817295 0.0012933262719 
0.0012908792022 0.0012884405362 0.0012860101058 0.0012835878552 0.00128117387 0.0012787680145 0.0012763703004 0.0012739806371 0.0012715991436 
0.0013423414688 0.001339724216 0.0013371160362 0.0013345168606 0.0013319266757 0.0013293454744 0.0013267730983 0.0013242096502 0.0013216550035 
0.0013191092128 0.0013165721973 0.0013140439259 0.0013115243551 0.0013090135381 0.0013065112259 0.0013040175265 0.0013015324577 0.001299055792 
0.0012965874746 0.0012941277895 0.0012916763803 0.0012892332876 0.0012867985965 0.0012843721086 0.0012819538159 0.0012795437163 0.0012771417216 
0.0012747478746 0.0012723620644 0.00126998435 0.0013406087395 0.00133799613 0.0013353926228 0.0013327980132 0.0013302123958 0.0013276356814 
0.0013250677852 0.001322508775 0.0013199585237 0.0013174171332 0.0013148844847 0.0013123605171 0.0013098452484 0.001307338688 0.0013048405996 
0.0013023510447 0.0012998701792 0.0012973975459 0.0012949334323 0.0012924778172 0.0012900304342 0.0012875913789 0.0012851606574 0.001282738127 
0.0012803237305 0.0012779175888 0.0012755194596 0.0012731294406 0.0012707475011 0.001268373439 0.0013388802303 0.0013362722906 0.0013336732876 
0.001331083329 0.0013285022476 0.0013259299942 0.0013233665759 0.001320811965 0.0013182661635 0.0013157291669 0.0013132008503 0.0013106811753 
0.0013081702807 0.0013056678415 0.0013031739366 0.0013006885962 0.0012982117562 0.0012957433829 0.0012932833671 0.0012908317786 0.0012883885248 
0.001285953508 0.00128352677 0.001281108146 0.0012786976732 0.0012762953824 0.0012739011308 0.0012715149443 0.001269136671 0.0012667664157 
0.0013371559473 0.0013345525859 0.0013319581605 0.0013293726847 0.0013267960936 0.0013242284182 0.0013216694674 0.0013191192823 0.0013165778701 
0.001314045251 0.0013115212552 0.0013090059129 0.0013064992482 0.0013040010786 0.0013015113803 0.0012990301187 0.001296557501 0.0012940932667 
0.0012916373526 0.0012891898526 0.0012867506007 0.0012843195905 0.0012818967964 0.0012794821396 0.0012770756003 0.0012746771587 0.00127228664 
0.0012699042994 0.001267529957 0.0012651634299 0.0013354357425 0.0013328369791 0.0013302471698 0.0013276662075 0.0013250941433 0.0013225308545 
0.0013199764196 0.0013174306661 0.0013148936909 0.0013123653778 0.0013098457096 0.001307334664 0.0013048322926 0.0013023382975 0.0012998527301 
0.001297375795 0.0012949072622 0.0012924471691 0.0012899953798 0.0012875519058 0.0012851166429 0.0012826896615 0.0012802708429 0.0012778601262 
0.0012754574724 0.0012730627716 0.0012706762434 0.0012682977017 0.0012659271608 0.0012635644547 0.001333719661 0.0013311255027 0.001328540167 
0.0013259638212 0.0013233962115 0.001320837451 0.0013182873399 0.0013157460438 0.0013132135085 0.0013106895597 0.0013081742252 0.001305667565 
0.0013031693494 0.0013006794781 0.0012981982213 0.0012957254135 0.0012932610321 0.0012908050384 0.001288357354 0.0012859179274 0.0012834867386 
0.0012810637189 0.0012786488667 0.0012762419554 0.0012738432165 0.0012714525237 0.0012690698385 0.0012666951125 0.0012643283181 0.0012619693602 
0.001332007686 0.0013294180911 0.0013268373266 0.0013242654555 0.0013217023935 0.0013191480799 0.0013166023915 0.0013140655254 0.0013115372932 
0.0013090177565 0.001306506727 0.0013040043434 0.0013015102785 0.0012990247591 0.0012965476908 0.0012940790295 0.0012916187832 0.0012891668383 
0.0012867232604 0.0012842879193 0.0012818607441 0.0012794415933 0.0012770306979 0.0012746278537 0.0012722329902 0.001269846201 0.0012674673313 
0.0012650964707 0.0012627334295 0.0012603781619 0.0013302997459 0.0013277146979 0.0013251385433 0.0013225711456 0.0013200125966 0.0013174627298 
0.0013149214704 0.0013123889724 0.0013098650988 0.0013073498321 0.00130484323 0.0013023450009 0.0012998552585 0.00129737398 0.0012949010929 
0.0012924365927 0.0012899804711 0.0012875326226 0.001285093105 0.0012826618219 0.0012802385151 0.0012778234986 0.0012754165228 0.0012730176014 
0.0012706266885 0.0012682437005 0.0012658687178 0.0012635016743 0.0012611424225 0.001258790946 0.0013285958249 0.0013260153378 0.0013234436806 
0.0013208808254 0.0013183266927 0.0013157812613 0.0013132445049 0.0013107163908 0.0013081968783 0.0013056859378 0.0013031835062 0.0013006895621 
0.0012982041205 0.0012957270972 0.0012932584121 0.0012907980567 0.0012883460524 0.0012859022847 0.0012834666726 0.0012810394411 0.0012786202905 
0.0012762092411 0.0012738062195 0.0012714112471 0.0012690242533 0.0012666451682 0.0012642740275 0.0012619108041 0.0012595553395 0.0012572076215 
0.0013268958639 0.0013243199548 0.0013217528226 0.0013191944991 0.0013166448135 0.0013141037676 0.0013115714432 0.001309047708 0.0013065325454 
0.0013040258152 0.0013015277955 0.0012990381106 0.0012965568657 0.0012940840054 0.0012916195756 0.0012891634119 0.001286715398 0.0012842757203 
0.0012818442711 0.0012794210961 0.0012770059655 0.001274598897 0.0012721998114 0.0012698086922 0.0012674256275 0.001265050415 0.001262683225 
0.0012603237721 0.001257972076 0.0012556281123 0.0013251998434 0.0013226285016 0.0013200658684 0.0013175119985 0.0013149668412 0.0013124302055 
0.0013099022827 0.0013073828067 0.0013048719881 0.0013023696822 0.0012998759478 0.0012973905334 0.0012949134995 0.0012924448386 0.0012899843962 
0.0012875323441 0.0012850886362 0.001282653084 0.0012802256667 0.0012778065618 0.0012753954208 0.0012729923284 0.0012705971499 0.0012682100081 
0.0012658307876 0.0012634594794 0.0012610960889 0.0012587404453 0.0012563925277 0.0012540523889 0.0013235076912 0.0013209408403 0.0013183827818 
0.0013158333881 0.0013132925702 0.0013107604446 0.0013082367804 0.0013057218443 0.0013032153607 0.0013007174594 0.0012982279057 0.0012957465998 
0.0012932737988 0.0012908093256 0.0012883531596 0.0012859052525 0.0012834655752 0.0012810340929 0.0012786107679 0.0012761956469 0.0012737886489 
0.0012713894601 0.0012689982682 0.0012666150435 0.0012642397212 0.0012618722289 0.0012595127106 0.001257160876 0.0012548167426 0.001252480347 
0.001321819425 0.0013192570647 0.0013167035053 0.0013141585774 0.0013116222003 0.0013090943859 0.0013065752319 0.001304064608 0.0013015624471 
0.0012990687337 0.0012965834431 0.0012941065185 0.0012916379324 0.001289177668 0.0012867256562 0.001284281892 0.0012818463357 0.0012794188972 
0.0012769996365 0.0012745884376 0.0012721854161 0.0012697902301 0.0012674030435 0.0012650237374 0.0012626523119 0.0012602886958 0.0012579329981 
0.0012555850282 0.001253244677 0.0012509119592 0.0013201348455 0.0013175770336 0.0013150279406 0.001312487479 0.0013099554242 0.0013074321042 
0.0013049172572 0.0013024109152 0.0012999130747 0.0012974237657 0.0012949427183 0.0012924700255 0.0012900056673 0.0012875496135 0.0012851017566 
0.0012826621287 0.0012802306517 0.0012778073163 0.0012753920827 0.0012729848862 0.0012705858222 0.0012681946157 0.0012658113789 0.0012634359859 
0.0012610685485 0.0012587088613 0.0012563568903 0.0012540126916 0.0012516760902 0.0012493471492 0.0013184538249 0.00131590054 0.0013133558984 
0.0013108196853 0.00130829216 0.0013057732151 0.0013032627917 0.0013007608397 0.0012982675037 0.0012957824334 0.0012933056433 0.0012908371807 
0.0012883770282 0.0012859251266 0.0012834814449 0.0012810459159 0.0012786185436 0.0012761993042 0.0012737880829 0.0012713849385 0.0012689897423 
0.0012666025479 0.0012642232897 0.001261851709 0.0012594880989 0.0012571322734 0.0012547841844 0.001252443778 0.0012501109854 0.0012477857871 
0.0013843454889 0.0013816266182 0.001378917437 0.0013762180036 0.0013735281092 0.001370847814 0.0013681769359 0.0013655157483 0.0013628638337 
0.0013602211863 0.0013575880148 0.0013549642284 0.0013523496799 0.001349744384 0.0013471482407 0.0013445613204 0.0013419834762 0.0013394146201 
0.0013368549575 0.0013343042763 0.0013317625123 0.0013292297227 0.0013267058178 0.0013241906471 0.001321684307 0.0013191867653 0.0013166978454 
0.0013142176086 0.0013117459146 0.0013092828014 0.0013825413784 0.0013798273628 0.0013771230342 0.0013744282628 0.0013717432328 0.0013690675658 
0.0013664014918 0.0013637446991 0.0013610972685 0.0013584592621 0.0013558305723 0.0013532111964 0.0013506010655 0.001348000187 0.0013454084491 
0.0013428257234 0.0013402521909 0.001337687609 0.0013351321236 0.0013325855942 0.001330048026 0.0013275192751 0.001324999505 0.0013224883864 
0.0013199860476 0.0013174924471 0.0013150074611 0.0013125310952 0.0013100632841 0.0013076040139 0.0013807405874 0.0013780313697 0.0013753318826 
0.0013726418452 0.0013699614252 0.0013672905599 0.0013646290009 0.0013619768768 0.0013593340429 0.0013567004839 0.0013540762984 0.0013514613772 
0.0013488556315 0.0013462591053 0.0013436717393 0.001341093401 0.0013385240459 0.0013359637605 0.0013334125111 0.0013308700946 0.0013283366431 
0.0013258120894 0.0013232962235 0.0013207892072 0.0013182908797 0.0013158012146 0.0013133201878 0.0013108476483 0.0013083837734 0.0013059284542 
0.0013789431196 0.0013762387841 0.0013735439713 0.0013708587077 0.0013681829709 0.001365516707 0.0013628598025 0.0013602122259 0.0013575739339 
0.0013549449351 0.001352325193 0.0013497147182 0.0013471133933 0.0013445212713 0.0013419382126 0.0013393641723 0.0013367991801 0.0013342430607 
0.0013316960311 0.0013291578206 0.0013266285832 0.0013241080531 0.0013215962529 0.0013190932096 0.0013165989179 0.00131411322 0.0013116360129 
0.0013091674857 0.0013067074894 0.0013042559598 0.0013771490832 0.0013744495413 0.001371759459 0.0013690789953 0.0013664079686 0.0013637462745 
0.0013610939545 0.0013584509775 0.0013558171826 0.0013531928278 0.0013505775445 0.0013479715097 0.0013453745445 0.0013427868092 0.0013402080592 
0.001337638317 0.0013350775659 0.0013325258002 0.0013299829735 0.0013274489022 0.0013249237845 0.0013224072804 0.0013198996011 0.0013174005921 
0.0013149102316 0.0013124285631 0.0013099552368 0.0013074906321 0.0013050345322 0.0013025867952 0.0013753586223 0.0013726638336 0.0013699785705 
0.0013673028168 0.0013646363445 0.0013619792982 0.0013593315829 0.0013566931631 0.0013540639564 0.0013514440612 0.0013488333428 0.0013462316768 
0.001343639171 0.0013410557106 0.0013384812731 0.0013359158861 0.0013333594025 0.0013308118441 0.0013282732049 0.0013257434246 0.0013232223532 
0.0013207099935 0.0013182063482 0.0013157113654 0.0013132249708 0.0013107471059 0.0013082778943 0.0013058171237 0.0013033648415 0.0013009209602 
0.0013735716858 0.0013708817075 0.0013682011459 0.0013655301273 0.0013628683145 0.001360215902 0.0013575727471 0.0013549389001 0.0013523142288 
0.0013496987959 0.001347092607 0.0013444954313 0.0013419072469 0.0013393282213 0.0013367580988 0.0013341969145 0.0013316447217 0.0013291013891 
0.0013265669362 0.0013240413544 0.0013215244173 0.0013190161464 0.0013165165309 0.0013140255748 0.0013115431239 0.0013090692035 0.0013066038958 
0.0013041471037 0.0013016987155 0.0012992586664 0.0013717884196 0.0013691031955 0.0013664274907 0.0013637610608 0.0013611039159 0.0013584561166 
0.001355817592 0.0013531882618 0.0013505680843 0.0013479571422 0.0013453553152 0.0013427626809 0.0013401789862 0.0013376041545 0.0013350384501 
0.0013324815926 0.0013299336009 0.0013273945009 0.0013248643174 0.0013223428243 0.0013198299897 0.0013173258397 0.0013148301921 0.0013123432607 
0.0013098648018 0.0013073948979 0.0013049335163 0.0013024806256 0.001300036189 0.0012975999735 0.0013700088975 0.0013673285016 0.0013646574714 
0.0013619956977 0.0013593432606 0.0013567000293 0.001354066101 0.0013514412919 0.0013488257062 0.0013462192394 0.0013436218532 0.0013410335546 
0.0013384542138 0.0013358838598 0.0013333223877 0.0013307698299 0.0013282260985 0.001325691237 0.0013231652224 0.0013206478688 0.0013181390995 
0.0013156390435 0.0013131475742 0.0013106645209 0.0013081901862 0.0013057242425 0.0013032668266 0.0013008177399 0.0012983770907 0.0012959447738 
0.0013682331886 0.0013655575755 0.0013628911966 0.0013602341455 0.0013575863283 0.0013549477384 0.0013523183466 0.0013496980732 0.0013470870043 
0.0013444850144 0.0013418920718 0.0013393081424 0.001336733235 0.001334167207 0.0013316100792 0.0013290617768 0.0013265222229 0.0013239916969 
0.0013214697713 0.0013189565636 0.0013164518841 0.0013139559247 0.0013114684758 0.0013089896245 0.001306519178 0.0013040571899 0.0013016036976 
0.0012991584998 0.0012967216411 0.0012942931496 0.0013664614098 0.0013637904439 0.0013611287681 0.001358476354 0.0013558331756 0.0013531992308 
0.0013505743853 0.0013479586567 0.0013453520846 0.0013427545647 0.0013401660663 0.0013375864713 0.001335015996 0.001332454268 0.0013299014332 
0.0013273574452 0.0013248221789 0.0013222958292 0.0013197780682 0.0013172690058 0.0013147685373 0.0013122765704 0.0013097931712 0.0013073182996 
0.0013048518882 0.0013023938649 0.0012999441978 0.0012975029116 0.0012950699173 0.0012926452532 0.0013646934058 0.0013620271806 0.0013593702039 
0.001356722469 0.0013540839243 0.0013514545498 0.0013488342719 0.0013462230619 0.0013436209328 0.0013410278833 0.0013384438134 0.0013358686542 
0.001333302432 0.0013307451625 0.0013281966289 0.0013256569369 0.0013231260422 0.0013206037559 0.0013180901894 0.0013155852583 0.0013130887636 
0.0013106009518 0.0013081216294 0.0013056507787 0.0013031882983 0.0013007342505 0.0012982885301 0.0012958510852 0.0012934220261 0.0012910010864 
0.0013629293659 0.0013602678582 0.0013576155176 0.0013549724329 0.0013523385316 0.0013497137171 0.0013470979946 0.0013444913278 0.0013418937169 
0.0013393051159 0.0013367254748 0.0013341547068 0.0013315928328 0.0013290398891 0.0013264956712 0.0013239601659 0.0013214335427 0.0013189154917 
0.0013164060633 0.0013139051671 0.001311412874 0.0013089291245 0.0013064538402 0.0013039870351 0.0013015286238 0.0012990784863 0.0012966366325 
0.0012942030883 0.0012917778753 0.0012893606958 0.0013611692804 0.0013585124332 0.0013558648139 0.0013532263707 0.0013505970787 0.0013479768789 
0.0013453656908 0.0013427635219 0.0013401703814 0.0013375862374 0.0013350109492 0.0013324446217 0.0013298871075 0.0013273384102 0.0013247985599 
0.0013222674384 0.0013197449224 0.0013172310525 0.0013147257871 0.0013122290593 0.001309740874 0.0013072611796 0.0013047899224 0.0013023271181 
0.0012998726903 0.0012974264896 0.0012949886256 0.0012925589264 0.0012901375351 0.0012877241853 0.0013594131707 0.0013567610387 0.0013541180864 
0.0013514842894 0.0013488595813 0.0013462439265 0.001343637351 0.0013410396685 0.0013384510156 0.0013358712788 0.0013333003931 0.0013307384427 
0.0013281853027 0.0013256409027 0.0013231053309 0.001320578463 0.0013180601429 0.0013155504883 0.001313049285 0.0013105568036 0.001308072695 
0.0013055970756 0.0013031298595 0.001300671038 0.0012982205942 0.0012957783452 0.0012933444047 0.001290918627 0.0012885011299 0.0012860915941 
0.0013576610413 0.0013550135836 0.0013523753621 0.001349746179 0.001347126069 0.0013445149933 0.001341912937 0.0013393197624 0.0013367355698 
0.0013341602311 0.0013315937727 0.0013290362179 0.0013264873921 0.0013239472995 0.0013214160164 0.0013188933741 0.0013163792701 0.0013138737137 
0.0013113767652 0.001308888361 0.001306408402 0.0013039368501 0.0013014736619 0.0012990188762 0.0012965723541 0.0012941341033 0.0012917040718 
0.0012892821626 0.0012868685065 0.0012844627662 0.0013559129802 0.0013532702022 0.0013506365684 0.0013480120752 0.0013453965622 0.0013427900341 
0.0013401924896 0.0013376038151 0.0013350240653 0.0013324531558 0.0013298911144 0.0013273378896 0.0013247934096 0.0013222576275 0.0013197306079 
0.0013172121898 0.0013147021913 0.0013122009338 0.0013097081356 0.0013072238498 0.0013047480129 0.0013022804959 0.0012998213874 0.0012973705841 
0.0012949280297 0.0012924936617 0.0012900675633 0.0012876495273 0.0012852395864 0.0012828377004 0.0013541689268 0.0013515308321 0.0013489018169 
0.0013462818631 0.0013436709565 0.0013410690025 0.0013384759714 0.0013358917831 0.0013333164485 0.0013307500123 0.0013281924131 0.0013256435381 
0.0013231033523 0.001320571981 0.0013180491277 0.001315534835 0.0013130291465 0.0013105320636 0.0013080434115 0.0013055632728 0.0013030914963 
0.0013006280844 0.0012981729458 0.0012957261446 0.0012932875408 0.0012908571096 0.0012884348873 0.001286020723 0.0012836146707 0.0012812166036 
0.0013524287997 0.0013497954833 0.001347171096 0.0013445557409 0.0013419493364 0.0013393519201 0.0013367634526 0.0013341837466 0.0013316128881 
0.00132905084 0.0013264976139 0.0013239530568 0.0013214172118 0.0013188901198 0.0013163713903 0.0013138614156 0.0013113599987 0.0013088670871 
0.0013063825613 0.0013039065561 0.0013014388564 0.0012989794629 0.001296528429 0.0012940855612 0.0012916509074 0.0012892243075 0.0012868059911 
0.0012843958532 0.0012819936253 0.0012795993492 0.0013506928389 0.0013480641497 0.0013454443887 0.0013428335924 0.0013402317663 0.0013376388676 
0.0013350548428 0.0013324796971 0.0013299132438 0.0013273556209 0.0013248067685 0.0013222665863 0.0013197350296 0.0013172121201 0.0013146977657 
0.0013121919603 0.001309694746 0.0013072059881 0.0013047256809 0.0013022536949 0.0012997900695 0.0012973347228 0.0012948877059 0.001292448714 
0.0012900180491 0.0012875954814 0.0012851810602 0.0012827747923 0.0012803764022 0.0012779859677 0.001348960801 0.0013463366885 0.0013437216338 
0.0013411154025 0.0013385181594 0.0013359297872 0.0013333502454 0.0013307794431 0.0013282174793 0.001325664322 0.0013231198226 0.0013205839797 
0.0013180567535 0.0013155380771 0.0013130279974 0.0013105264349 0.0013080333274 0.0013055487683 0.0013030725904 0.0013006047334 0.0012981451896 
0.0012956938837 0.0012932507198 0.0012908158815 0.0012883891301 0.0012859704938 0.0012835599697 0.0012811575489 0.0012787630039 0.0012763764215 
0.0013472327766 0.0013446133003 0.0013420027289 0.001339401179 0.001336808467 0.0013342246005 0.0013316495774 0.0013290832166 0.0013265256817 
0.0013239768576 0.0013214367907 0.0013189051546 0.0013163823383 0.001313867936 0.0013113621064 0.0013088647526 0.00130637584 0.0013038954412 
0.001301423357 0.0012989595763 0.0012965039894 0.0012940567936 0.0012916177355 0.0012891868602 0.0012867640479 0.0012843493269 0.0012819427263 
0.0012795440721 0.0012771533292 0.0012747705717 0.0013455087 0.0013428937974 0.0013402878446 0.0013376908842 0.0013351027027 0.0013325233403 
0.0013299527657 0.0013273908501 0.0013248377511 0.0013222933215 0.0013197574447 0.0013172303652 0.0013147117765 0.0013122016683 0.0013097000519 
0.0013072068734 0.0013047221554 0.0013022458467 0.0012997778098 0.0012973181167 0.0012948667247 0.0012924235316 0.0012899884778 0.001287561525 
0.0012851427792 0.001282731952 0.0012803292877 0.0012779345231 0.0012755476129 0.0012731686656 0.0013437884828 0.0013411782247 0.0013385768744 
0.0013359843821 0.0013334008251 0.0013308259389 0.001328259771 0.0013257023494 0.0013231536286 0.0013206134664 0.0013180820521 0.0013155593114 
0.0013130449454 0.0013105391122 0.0013080417871 0.0013055528448 0.0013030721651 0.0013006000023 0.0012981362088 0.0012956806192 0.0012932332743 
0.0012907941011 0.0012883630334 0.0012859400902 0.0012835251889 0.0012811183548 0.0012787196201 0.001276328719 0.0012739456596 0.0012715704719 
0.0013420721444 0.001339466476 0.0013368697022 0.0013342817805 0.0013317026543 0.0013291323562 0.0013265706302 0.0013240175573 0.0013214732388 
0.0013189375589 0.0013164104866 0.0013138920205 0.0013113819687 0.0013088803851 0.0013063871649 0.0013039024496 0.0013014260634 0.0012989580193 
0.001296498339 0.001294046818 0.0012916035548 0.0012891684448 0.0012867413647 0.0012843223669 0.0012819114444 0.0012795085289 0.0012771136467 
0.0012747266025 0.0012723474014 0.0012699760425 0.0013403596508 0.0013377585651 0.0013351663515 0.0013325829927 0.0013300083567 0.0013274425383 
0.0013248851522 0.0013223366078 0.0013197966832 0.001317265369 0.0013147427342 0.0013122284504 0.0013097226034 0.0013072252709 0.0013047363742 
0.00130225581 0.0012997836373 0.0012973197895 0.0012948641647 0.0012924167885 0.0012899775325 0.0012875464254 0.0012851233465 0.0012827083418 
0.0012803013639 0.0012779024016 0.0012755113716 0.0012731281897 0.0012707528274 0.0012683852345 0.0013386508807 0.0013360544203 0.0013334667661 
0.001330887939 0.0013283178045 0.0013257562097 0.0013232035358 0.0013206593988 0.001318123836 0.0013155967638 0.0013130784964 0.0013105685172 
0.0013080670166 0.0013055739474 0.0013030892391 0.0013006128944 0.0012981448548 0.0012956850867 0.0012932336082 0.0012907903655 0.0012883551626 
0.0012859280209 0.0012835089932 0.0012810979614 0.0012786949096 0.0012762998648 0.0012739126869 0.0012715333992 0.0012691618335 0.0012667980635 
0.0013369458812 0.0013343539777 0.0013317708748 0.0013291965718 0.0013266308441 0.001324073789 0.0013215254942 0.0013189857526 0.0013164545478 
0.0013139319421 0.0013114179278 0.0013089122601 0.001306415038 0.0013039262211 0.0013014457438 0.0012989735678 0.0012965096843 0.0012940540091 
0.0012916066257 0.0012891673598 0.0012867362837 0.001284313255 0.0012818982223 0.001279491167 0.0012770920715 0.0012747009319 0.0012723175993 
0.0012699421684 0.0012675744309 0.0012652145216 0.0013352444393 0.0013326571032 0.0013300785486 0.0013275086433 0.0013249474392 0.0013223948731 
0.0013198509801 0.0013173158135 0.0013147889824 0.0013122707214 0.0013097609931 0.0013072596398 0.0013047666827 0.0013022820886 0.0012998057821 
0.0012973377795 0.0012948780422 0.0012924265636 0.0012899832002 0.0012875480164 0.0012851209401 0.0012827018586 0.0012802908894 0.0012778878449 
0.0012754926549 0.0012731053901 0.0012707260196 0.0012683543606 0.0012659905057 0.0012636343061 0.0013335466179 0.0013309636297 0.0013283896041 
0.0013258242935 0.0013232676227 0.0013207195276 0.0013181800818 0.0013156491459 0.001313126779 0.0013106129374 0.0013081074338 0.0013056103634 
0.0013031216638 0.0013006413039 0.0012981692344 0.0012957054237 0.0012932498173 0.0012908024186 0.0012883631851 0.001285932017 0.0012835089922 
0.001281093941 0.0012786869041 0.0012762877973 0.0012738967378 0.001271513444 0.0012691378806 0.0012667700533 0.0012644100225 0.0012620577108 
0.0013998699912 0.0013971203607 0.0013943804507 0.0013916503003 0.0013889299079 0.0013862190733 0.0013835178963 0.0013808262625 0.0013781440893 
0.0013754714229 0.0013728081256 0.0013701543373 0.0013675099215 0.0013648748389 0.0013622489746 0.0013596324064 0.001357024996 0.0013544268401 
0.0013518376665 0.0013492576426 0.001346686683 0.0013441247269 0.0013415717545 0.0013390276568 0.0013364925151 0.0013339661037 0.0013314484727 
0.001328939542 0.0013264392831 0.0013239478479 0.0013980521481 0.0013953074002 0.0013925723167 0.0013898469923 0.0013871312673 0.0013844252433 
0.0013817286503 0.0013790417491 0.00137636417 0.0013736959611 0.0013710372384 0.0013683879606 0.0013657479523 0.001363117332 0.0013604958742 
0.0013578836733 0.0013552806345 0.0013526867225 0.0013501018306 0.0013475259832 0.001344959221 0.0013424013984 0.0013398524818 0.0013373125625 