# vtk DataFile Version 5.1
vtk output
ASCII
DATASET POLYDATA
POINTS 2507 double
58.611110687 -9.4444446564 1.258879255e-14 57.569446564 -9.4444446564 1.2347858264e-14 58.611110687 -12.222222328 1.258879255e-14 
58.611110687 -12.222222328 1.258879255e-14 57.569446564 -9.4444446564 1.2347858264e-14 55.833335876 -12.222222328 1.1946300237e-14 
55.833335876 -12.222222328 1.1946300237e-14 57.569446564 -9.4444446564 1.2347858264e-14 56.597221375 -9.4444446564 1.2122985028e-14 
55.833335876 -12.222222328 1.1946300237e-14 56.597221375 -9.4444446564 1.2122985028e-14 55.833335876 -9.4444446564 1.1946300237e-14 
56.597221375 -9.4444446564 1.2122985028e-14 57.569446564 -9.4444446564 1.2347858264e-14 56.597221375 -1.6319445372 1.2122985028e-14 
56.597221375 -1.6319445372 1.2122985028e-14 57.569446564 -9.4444446564 1.2347858264e-14 57.569446564 -1.6319445372 1.2347858264e-14 
56.597221375 -1.6319445372 1.2122985028e-14 57.569446564 -1.6319445372 1.2347858264e-14 55.416667938 -0.72916668653 1.1849925993e-14 
55.416667938 -0.72916668653 1.1849925993e-14 57.569446564 -1.6319445372 1.2347858264e-14 58.611110687 -1.6319445372 1.258879255e-14 
55.416667938 -0.72916668653 1.1849925993e-14 58.611110687 -1.6319445372 1.258879255e-14 55.416667938 0.72916668653 1.1849925993e-14 
55.416667938 0.72916668653 1.1849925993e-14 58.611110687 -1.6319445372 1.258879255e-14 58.611110687 1.840277791 1.258879255e-14 
55.416667938 0.72916668653 1.1849925993e-14 58.611110687 1.840277791 1.258879255e-14 -59.444450378 1.840277791 -1.4717161213e-14 
-59.444450378 1.840277791 -1.4717161213e-14 -59.444450378 0.72916668653 -1.4717161213e-14 55.416667938 0.72916668653 1.1849925993e-14 
-59.444450378 -0.72916668653 -1.4717161213e-14 -59.444450378 -1.6319445372 -1.4717161213e-14 55.416667938 -0.72916668653 1.1849925993e-14 
55.416667938 -0.72916668653 1.1849925993e-14 -59.444450378 -1.6319445372 -1.4717161213e-14 56.597221375 -1.6319445372 1.2122985028e-14 
4.5535728997 -1.12893709 8.5420290281e-17 -27.445438739 -1.3804408136 -7.3158704613e-15 -34.01389122 -0.72916668653 -8.835136967e-15 
-8.5803378094 1.3482428786 -2.9524201581e-15 -34.012394094 1.5942603348 -8.8347906855e-15 -34.01389122 0.72916668653 -8.835136967e-15 
4.5555496216 -1.6319445372 8.5877501067e-17 24.597221375 -1.6319445372 4.7214656706e-15 40.597221375 -1.6319445372 8.4222253491e-15 
-5.3888893127 1.840277791 -2.2142461635e-15 26.611110687 1.840277791 5.1872731935e-15 42.611110687 1.840277791 8.888032872e-15 
4.5525553693 1.221201599 8.5184938051e-17 -27.445947505 1.530739695 -7.3159881374e-15 29.984611654 0.97518414276 5.9675554655e-15 
17.268583512 1.0981928709 3.0263702018e-15 42.700639796 0.85217541465 8.9087407292e-15 -8.5833320618 -0.72916668653 -2.9531127211e-15 
23.416667938 -0.72916668653 4.4484066359e-15 -46.729170799 -1.1805556118 -1.177614909e-14 -8.5833320618 0.72916668653 -2.9531127211e-15 
23.416667938 0.88393935508 4.4484066359e-15 -46.729170799 1.1837197968 -1.177614909e-14 -21.299573111 1.1397114793 -5.8943472297e-15 
4.5535728997 -1.12893709 8.5420290281e-17 -27.444450378 -1.5061907333 -7.3156418559e-15 29.985120419 -0.92905188828 5.9676731416e-15 
-11.443956183 -1.4433118893 -3.6147678712e-15 -3.4427205865 -1.4118685827 -1.7641022417e-15 0.55987506345 -1.3961391569 -8.3831195475e-16 
-14.937093977 1.0694429201 -4.4227218401e-15 -1.3888893127 1.840277791 -1.2890562439e-15 -11.751926303 1.0540373919 -3.686000584e-15 
0.55274251003 1.259893861 -8.3996169638e-16 -3.4470703492 1.298586123 -1.7651083308e-15 -11.446696068 1.375970647 -3.6154015997e-15 
2.6111106873 1.840277791 -3.6386632427e-16 10.611110687 1.840277791 1.486513515e-15 7.4166679382 0.72916668653 7.4764695742e-16 
23.416667938 0.72916668653 4.4484066359e-15 23.418165064 1.0387047826 4.4487529174e-15 -7.4468832084 1.337278385 -2.6902549653e-15 
-5.4469767788 1.317932254 -2.227681648e-15 -4.4454496752 1.4709599523 -1.9960309529e-15 -5.9439078986 1.6375960869 -2.3426205637e-15 
-4.9667619936 1.5289325192 -2.1166091784e-15 -6.4469299936 1.3276053195 -2.4589683066e-15 -27.444450378 1.840277791 -7.3156418559e-15 
-16.416669846 1.840277791 -4.7649440097e-15 -10.902779579 1.840277791 -3.4895950866e-15 -11.44593292 -1.2546889518 -3.6152250855e-15 
7.4166679382 -0.72916668653 7.4764695742e-16 -21.296365952 1.4712516067 -5.8936054218e-15 -27.445438739 -1.3804408136 -7.3158704613e-15 
-27.444450378 -1.6319445372 -7.3156418559e-15 -8.145834446 1.840277791 -2.8519206251e-15 -6.7673618793 1.840277791 -2.5330833943e-15 
-6.078125596 1.840277791 -2.3736647789e-15 -6.946906601 1.3324418522 -2.5746116359e-15 -7.4565981627 1.840277791 -2.6925020097e-15 
-6.1999324823 1.4899248194 -2.4018384047e-15 -5.7335074544 1.840277791 -2.2939554712e-15 -6.4227437377 1.7637401261 -2.4533740866e-15 
-6.6949931563 1.5290350568 -2.516344691e-15 -7.1943905427 1.5937485608 -2.631854048e-15 -7.8012163043 1.840277791 -2.7722113174e-15 
-10.151768463 1.0462979951 -3.3158881081e-15 -4.5833320618 0.72916668653 -2.0279228014e-15 -9.3362864478 1.0423537974 -3.1272691731e-15 
-7.5833320618 1.0338753777 -2.7218152412e-15 -8.8955616919 1.0402221678 -3.0253306477e-15 -6.5833320618 0.72916668653 -2.4905177613e-15 
-0.58333206177 0.72916668653 -1.1027328818e-15 -9.446789638 1.356624516 -3.1528282825e-15 -10.446742853 1.3662975815 -3.3841149411e-15 
-9.5243070126 1.840277791 -3.1707578558e-15 -10.213543296 1.840277791 -3.3301764712e-15 -8.4468364232 1.3469514505 -2.9215416239e-15 
-9.9467662454 1.3614610487 -3.2684716118e-15 -8.8350707293 1.840277791 -3.0113392405e-15 -9.8689251542 1.840277791 -3.2504671635e-15 
-10.19508144 1.5368369934 -3.3259062905e-15 -9.6947864275 1.5649155834 -3.2101893149e-15 -10.558161438 1.7154733434 -3.4098857789e-15 
-10.94671946 1.3711341142 -3.4997582704e-15 -11.194217879 1.6309442927 -3.5570040308e-15 -8.9468130306 1.3517879832 -3.0371849532e-15 
-8.694872493 1.5511819114 -2.9789117417e-15 -8.3998369909 1.6567658668 -2.9106707736e-15 -9.1939865837 1.6451811187 -3.0943555731e-15 
-7.946672199 1.3615098099 -2.8058548993e-15 -7.6873329234 1.5441988694 -2.7458703784e-15 -3.3888893127 1.840277791 -1.7516512037e-15 
-14.938351881 1.4097472426 -4.4230127899e-15 -21.298611641 0.72916668653 -5.894124844e-15 -11.759344845 1.3789950606 -3.687716474e-15 
-14.940971851 0.72916668653 -4.4236187825e-15 -11.762151957 0.72916668653 -3.6883657518e-15 0.61111068726 1.840277791 -8.2646128408e-16 
-0.38888931274 1.6477190516 -1.057758764e-15 1.6111106873 1.4465826169 -5.9516380418e-16 0.1398900873 1.59454065 -9.3545342133e-16 
-3.4461800101 -1.1918130209 -1.7649023976e-15 -7.4460564649 -1.2232509864 -2.6900637416e-15 -0.58333206177 -0.72916668653 -1.1027328818e-15 
-9.4459946924 -1.2389699691 -3.1526444135e-15 -4.5833320618 -0.72916668653 -2.0279228014e-15 -11.444450378 -1.6319445372 -3.6148821774e-15 
-3.4444503784 -1.6319445372 -1.7645023382e-15 7.4189136275 1.1934738306 7.4816637968e-16 -0.58071209099 1.2708583546 -1.1021268892e-15 
0.55554962158 -1.6319445372 -8.3931241855e-16 -11.44593292 -1.2546889518 -3.6152250855e-15 -3.4461800101 -1.1918130209 -1.7649023976e-15 
-7.443585492 -1.3647099353 -2.6894922118e-15 0.55369644483 -1.1603750555 -8.3974105367e-16 55.138893127 -0.45138889551 1.1805757178e-14 
-60.416667938 0.45138889551 -1.3853694803e-14 -61.111114502 -0.45138889551 -1.4034395729e-14 -61.111114502 -0.45138889551 -1.4034395729e-14 
-60.416667938 0.45138889551 -1.3853694803e-14 -60.416667938 27.083335876 -1.3076701911e-14 -61.111114502 -0.45138889551 -1.4034395729e-14 
-60.416667938 27.083335876 -1.3076701911e-14 -61.111114502 29.861114502 -1.3150021797e-14 -61.111114502 29.861114502 -1.3150021797e-14 
-60.416667938 27.083335876 -1.3076701911e-14 -58.333332062 29.861114502 -1.2532573898e-14 -58.333332062 29.861114502 -1.2532573898e-14 
-60.416667938 27.083335876 -1.3076701911e-14 -58.333332062 27.083335876 -1.2613616198e-14 55.138893127 -0.45138889551 1.1805757178e-14 
55.138893127 0.45138889551 1.1832095917e-14 -60.416667938 0.45138889551 -1.3853694803e-14 50.138889313 -27.083335876 1.0661321645e-14 
49.097225189 -27.083335876 1.0480621565e-14 50.138889313 -29.861114502 1.0661321645e-14 50.138889313 -29.861114502 1.0661321645e-14 
49.097225189 -27.083335876 1.0480621565e-14 48.402778625 -27.083335876 1.0360154184e-14 50.138889313 -29.861114502 1.0661321645e-14 
48.402778625 -27.083335876 1.0360154184e-14 47.361114502 -29.861114502 1.0179454104e-14 47.361114502 -29.861114502 1.0179454104e-14 
48.402778625 -27.083335876 1.0360154184e-14 47.361114502 -27.083335876 1.0179454104e-14 48.402778625 -27.083335876 1.0360154184e-14 
49.097225189 -27.083335876 1.0480621565e-14 48.402778625 -10.277778625 1.0360154184e-14 48.402778625 -10.277778625 1.0360154184e-14 
49.097225189 -27.083335876 1.0480621565e-14 49.097225189 -9.5833339691 1.0480621565e-14 48.402778625 -10.277778625 1.0360154184e-14 
49.097225189 -9.5833339691 1.0480621565e-14 6.4583334923 -9.5833339691 3.0839464228e-15 6.4583334923 -3.2986111641 3.0839464228e-15 
5.7638888359 -3.2986111641 2.9634793721e-15 6.4583334923 -9.5833339691 3.0839464228e-15 6.4583334923 -9.5833339691 3.0839464228e-15 
5.7638888359 -3.2986111641 2.9634793721e-15 5.7638888359 -10.277778625 2.9634793721e-15 6.4583334923 -9.5833339691 3.0839464228e-15 
5.7638888359 -10.277778625 2.9634793721e-15 48.402778625 -10.277778625 1.0360154184e-14 7.5000004768 -3.2986111641 3.2646469988e-15 
7.5000004768 -1.9097223282 3.2646469988e-15 6.4583334923 -3.2986111641 3.0839464228e-15 6.4583334923 -3.2986111641 3.0839464228e-15 
7.5000004768 -1.9097223282 3.2646469988e-15 4.7222223282 -1.9097223282 2.7827788787e-15 6.4583334923 -3.2986111641 3.0839464228e-15 
4.7222223282 -1.9097223282 2.7827788787e-15 5.7638888359 -3.2986111641 2.9634793721e-15 5.7638888359 -3.2986111641 2.9634793721e-15 
4.7222223282 -1.9097223282 2.7827788787e-15 4.7222223282 -3.2986111641 2.7827788787e-15 33.097225189 -9.5833339691 7.7050615644e-15 
[...]
CELL_DATA 1682
FIELD FieldData 4
electrode_index 1 1682 int
0 0 0 0 0 0 0 0 0 
0 0 0 0 0 0 0 0 0 
0 0 0 0 0 0 0 0 0 
0 0 0 0 0 0 0 0 0 
0 0 0 0 0 0 0 0 0 
0 0 0 0 0 0 0 0 0 
0 0 0 0 0 0 0 0 0 
0 0 0 0 0 0 0 0 0 
0 0 0 0 0 0 0 0 0 
0 0 0 0 0 0 0 0 0 
0 0 0 0 0 0 0 0 0 
0 0 0 0 0 0 0 0 0 
0 0 0 0 0 0 0 0 0 
0 0 0 0 0 0 0 0 0 
0 0 0 0 0 0 0 0 0 
0 0 0 0 0 0 0 0 0 
0 0 0 0 0 0 0 0 0 
0 0 0 0 0 0 0 0 0 
0 0 1 1 1 1 1 1 2 
2 2 2 2 2 2 2 2 2 
2 2 2 2 2 2 3 3 3 
3 3 3 3 3 3 3 3 3 
3 3 3 3 4 4 4 4 4 
4 4 4 4 4 4 4 4 4 
5 5 5 5 5 5 5 5 5 
5 5 5 5 5 6 6 6 6 
6 6 6 6 6 6 6 6 6 
6 7 7 7 7 7 7 7 7 
7 7 7 7 7 7 7 7 7 
7 7 7 7 7 7 7 7 7 
8 8 8 8 8 8 8 8 8 
8 8 8 8 8 8 8 8 8 
8 8 8 8 8 8 8 8 8 
8 8 8 8 8 9 9 9 9 
9 9 9 9 9 9 9 9 9 
9 9 9 9 9 9 9 9 9 
9 9 9 10 10 10 10 10 10 
10 10 10 10 10 10 10 10 10 
10 10 10 10 10 10 10 10 10 
10 11 11 11 11 11 11 11 11 
11 11 11 11 11 11 11 11 11 
11 11 11 11 11 11 11 11 11 
11 11 11 11 11 11 11 11 11 
11 11 11 11 11 11 11 11 11 
11 11 11 11 11 11 11 11 11 
11 11 11 11 11 11 11 11 11 
11 11 11 11 11 11 11 11 11 
11 11 11 11 11 11 11 11 11 
11 11 11 11 11 11 11 11 11 
11 11 11 11 11 11 11 11 11 
11 11 12 12 12 12 12 12 12 
12 12 12 12 12 12 12 12 12 
12 12 12 12 12 12 12 12 12 
12 12 12 12 12 12 12 12 12 
12 12 12 12 12 12 12 12 12 
12 12 12 12 12 12 12 12 12 
12 12 12 12 12 12 12 12 12 
12 12 12 12 12 12 12 12 12 
12 12 12 12 12 12 12 12 12 
12 12 12 12 12 12 12 12 12 
12 12 12 12 12 12 12 12 12 
12 12 12 12 12 12 12 12 12 
12 12 12 12 12 12 12 12 12 
12 12 12 12 12 12 12 12 12 
12 12 12 12 12 12 12 12 12 
12 12 12 12 12 12 12 12 12 
12 12 12 12 12 12 12 12 12 
12 12 12 12 12 12 12 12 12 
12 12 12 12 12 12 12 12 12 
12 12 12 12 12 12 12 12 12 
12 12 12 12 12 12 12 12 12 
12 12 12 12 12 12 12 12 12 
12 12 12 12 12 12 12 12 12 
12 12 12 12 12 12 12 12 12 
12 12 12 12 12 12 12 12 12 
12 12 12 12 12 12 12 12 12 
12 12 12 12 12 12 12 12 12 
12 12 12 12 12 12 12 12 12 
12 12 12 12 12 12 12 12 12 
12 12 12 12 12 12 12 12 12 
12 12 12 12 12 12 12 12 12 
12 12 12 12 12 12 12 12 12 
12 12 12 12 12 12 12 12 12 
12 12 12 12 12 12 12 12 12 
12 12 12 12 12 12 12 12 12 
12 12 12 12 12 12 12 12 12 
12 12 12 12 12 12 12 12 12 
12 12 12 12 12 12 12 12 12 
12 12 12 12 12 12 12 12 12 
12 12 12 12 12 12 12 12 12 
12 12 12 12 12 12 12 12 12 
12 12 12 12 12 12 12 12 12 
12 12 12 12 12 12 12 12 12 
12 12 12 12 12 12 12 12 12 
12 12 12 12 12 12 12 12 12 
12 12 12 12 12 12 12 12 12 
12 12 12 12 12 12 12 12 12 
12 12 12 12 12 12 12 12 12 
12 12 12 12 12 12 12 12 12 
12 12 12 12 12 12 12 12 12 
12 12 12 12 12 12 12 12 12 
12 12 12 12 12 12 12 12 12 
12 12 12 12 12 12 12 12 12 
12 12 12 12 12 12 12 12 12 
12 12 12 12 12 12 12 12 12 
12 12 12 12 12 12 12 12 12 
12 12 12 12 12 12 12 12 12 
12 12 12 12 12 12 12 12 12 
12 12 12 12 12 12 12 12 12 
12 12 12 12 12 12 12 12 12 
12 12 12 12 12 12 12 12 12 
12 12 12 12 12 12 12 12 12 
12 12 12 12 12 12 12 12 12 
12 12 12 12 12 12 12 12 12 
12 12 12 12 12 12 12 12 12 
12 12 12 12 12 12 12 12 12 
12 12 12 12 12 12 12 12 12 
12 12 12 12 12 12 12 12 12 
12 12 12 12 12 12 12 12 12 
12 12 12 12 12 12 12 12 12 
12 12 12 12 12 12 12 12 12 
12 12 12 12 12 12 12 12 12 
12 12 12 12 12 12 12 12 12 
12 12 12 12 12 12 12 12 12 
12 12 12 12 12 12 12 12 12 
12 12 12 12 12 12 12 12 12 
12 12 12 12 12 12 12 12 12 
12 12 12 12 12 12 12 12 12 
12 12 12 12 12 12 12 12 12 
12 12 12 12 12 12 12 12 12 
12 12 12 12 12 12 12 12 12 
12 12 12 12 12 12 12 12 12 
12 12 12 12 12 12 12 12 12 
12 12 12 12 12 12 12 12 12 
12 12 12 12 12 12 12 12 12 
12 12 12 12 12 12 12 13 13 
13 13 13 13 13 13 13 13 13 
13 13 13 13 13 13 13 13 13 
13 13 13 13 13 13 13 13 13 
13 13 13 13 13 13 13 13 13 
13 13 13 13 13 13 13 13 13 
13 13 13 13 13 13 13 13 13 
13 13 13 13 13 13 13 14 14 
14 14 14 14 14 14 14 14 14 
14 14 14 14 14 14 14 14 14 
14 14 14 14 14 14 14 14 14 
14 14 14 14 14 14 14 14 14 
14 14 14 14 14 14 14 14 14 
14 14 14 14 14 14 14 14 14 
14 14 14 14 14 14 14 14 14 
14 14 14 14 14 14 14 14 14 
14 14 14 14 14 14 14 14 14 
14 14 14 14 14 14 14 14 14 
14 14 14 14 14 14 14 14 14 
14 14 14 14 14 14 14 14 14 
14 14 14 14 14 14 14 14 14 
14 14 14 14 14 14 14 14 14 
14 14 14 14 14 14 14 14 14 
14 14 14 14 14 14 14 14 14 
14 14 14 14 14 14 14 14 14 
14 14 14 14 14 14 14 14 14 
14 14 14 14 14 14 14 14 14 
14 14 14 14 14 14 14 14 14 
14 14 14 14 14 14 14 14 14 
14 14 14 14 14 14 14 14 14 
14 14 14 14 14 14 14 14 14 
14 14 14 14 14 14 14 14 14 
14 14 14 14 14 14 14 14 14 
14 14 14 14 14 14 14 14 14 
14 14 14 14 14 14 14 14 14 
14 14 14 14 14 14 14 14 14 
14 14 14 14 14 14 14 14 14 
14 14 14 14 14 14 14 14 14 
15 15 15 15 15 15 15 15 15 
15 15 15 15 15 15 15 16 16 
16 16 16 16 16 16 16 16 16 
16 16 16 16 16 17 17 17 17 
17 17 17 17 17 17 17 17 17 
17 17 17 17 17 17 18 18 18 
18 18 18 18 18 18 18 18 18 
18 18 18 18 19 19 19 19 19 
19 19 19 19 19 19 19 19 19 
19 19 20 20 20 20 20 20 20 
20 20 20 20 20 20 20 21 21 
21 21 21 21 21 21 21 21 21 
21 21 21 22 22 22 22 22 22 
22 22 22 22 22 22 22 22 
area 1 1682 double
1.4467556719 3.8580204234 1.3503127113 1.0609520401 3.7977547033 3.7977547033 0.43885168332 0.47019564926 2.3292812346 
5.5459077196 6.2768623818 6.7847195624 5.7395363843 7.222222805 8.2811326083 1.599081614 5.7395363843 5.6230296573 
5.6230296573 0.09711265453 0.30470869119 5.5002940616 7.0640441685 5.4992306004 0.47161076061 8.3993432567 9.9984248707 
0.36931783875 6.9207491861 8.8888888359 0.39369517414 4.9526095363 5.2927925569 5.9366793612 6.2768623818 0.98816859966 
6.3963264559 5.7797698811 2.4763047681 2.4763626967 0.50405165646 2.1081340492 5.0405550724 1.0046939687 2.0120608611 
5.623141191 1.0060304305 1.0060304305 0.37735852315 1.0689384075 0.44015190885 0.44015190885 1.0540670246 1.3060075582 
1.2381813483 0.31965309302 0.54089557616 0.54083843047 0.068918160607 3.3296843155 0.043241442633 0.11929078956 0.54169166803 
0.077612124004 0.090004874135 0.75739715966 0.19255873943 0.16270837612 4.308722732 1.7067590947 1.2381813484 2.4763626967 
0.068918160607 0.064725138721 0.035855798206 0.064350988691 0.50410491521 4.0240595771 3.1981632279 1.0825453801 1.509092256 
2.0120608611 0.051899155435 0.050860479803 0.083988129331 0.067258506165 0.026376267848 0.055707587674 0.079078466403 0.049755195529 
0.082350564447 0.034923896118 0.056530405322 0.075375287193 0.057240167125 0.084958445185 0.050455409193 0.051017083883 0.25996177335 
2.3215357201 0.30908190866 0.12621432765 0.12621432765 0.44028786863 1.0833833361 0.06821214657 0.06821214657 3.7142833665 
0.30470869119 2.1667666721 1.8572285761 0.052285601886 0.087020416593 0.052407516282 0.07231858771 0.083579657323 0.048795070396 
0.043221932954 0.051899141366 0.053437662752 0.072747120764 0.050048116171 0.066274463693 0.047447406142 0.051470608311 0.053437662752 
0.043009876812 0.063764173173 0.57712096944 0.69221988002 0.065556652002 0.077136926271 0.06324153831 0.061601264979 0.067233852649 
0.082496065967 0.0096978997989 0.056957042683 0.048795070396 0.27542132524 0.51746518756 2.6100959101 0.2599630731 1.0816768609 
0.51746260037 0.30168159986 0.46900620696 0.12957281736 0.39383537265 0.6917067971 0.077499748173 0.077499748173 0.94313896338 
0.50300744713 1.760526065 0.50300744713 0.92529266877 1.5090922561 0.47188277637 0.37728083545 0.47188277637 0.4401247164 
0.56589600147 0.47161076061 52.473962547 9.2472320331 10.525206911 3.8580323443 2.8935229337 52.16049708 1.4467561686 
0.96450941062 3.8580217479 1.4467561686 5.8352807422 6.0764080948 9.2496179953 2.1821960844 2.4233227747 9.249617333 
0.72337982279 1.9290125296 0.4822532152 0.72337949166 5.555557251 5.555557251 1.4467588177 3.858024397 0.96450676153 
1.4467588177 2.7006190647 2.9417450928 5.1504509405 5.3168423971 5.5579684252 5.1504509405 0.24112627646 0.96450609925 
0.4822532152 0.2411266076 5.5555419922 5.5555419922 0.72337961583 1.9290128608 0.48225329798 0.72337994697 7.1252917471 
7.3664184375 7.2820241952 0.81983101221 1.0609577026 7.2820241952 1.4467601423 3.8580257216 0.96450676153 1.4467588177 
0.72337994697 0.48225329798 1.9290128608 0.72337961583 6.498362617 6.7394893074 7.8607276891 1.4467641159 1.6878914686 
7.8607283514 1.4467574932 3.8580230725 0.96450941062 1.4467561686 1.4467614668 3.8580270461 0.96450676153 1.4467588177 
2.0736892724 2.3148159628 8.6805586186 5.8714314711 6.1125580787 8.6805585358 0.24112664899 0.96450643039 0.48225313241 
0.24112664899 0.7233797814 0.48225313241 0.23547516878 0.30671307436 2.4696561893 5.4856285016 9.5003632888 2.7006116473 
2.9417370131 9.5003627093 1.4467614668 3.8580270461 0.96450411243 1.4467614668 0.24677800503 0.015070447899 0.23170755713 
0.23547516878 0.23547516878 0.015070447899 0.23170755713 0.25054561668 0.23170755713 2.774846367 0.14999999451 0.26666671253 
0.30671307436 0.48225304963 0.058699253143 0.7233797814 1.8435752246 4.8586987527 4.5235232426 3.3275390554 3.5686644213 
4.5235227045 1.4467614668 3.858024397 0.96450411243 1.4467588177 5.5555419922 5.5555419922 0.41666670704 0.22732171804 
0.099841459532 0.13237849213 0.15502246157 0.15614452331 0.15327643827 0.18049108369 0.040679459938 0.1104260801 0.09246237275 
0.1158221339 0.17630361538 0.092978425388 0.1371650953 2.7739976241 0.24112664899 0.23359131703 0.48225313241 0.24112648342 
0.65043888988 4.2317706719 5.3433592169 3.9544664636 4.1955921606 5.3433586374 1.4467614668 3.8580270461 0.96450411243 
1.4467614668 5.5555496216 5.5555496216 0.23924275327 0.015070498346 0.24112656621 0.23547512997 0.84894940848 0.46721600779 
0.46721600779 0.90638519162 0.65043888988 1.4467614668 3.8580270461 0.96450411243 1.4467614668 4.5813938718 4.8225198999 
6.4043226845 0.49370674789 3.6048429947 6.4043233468 0.24112664899 0.38429542867 0.48225329798 0.24112631785 5.555557251 
2.7777786255 0.48933588754 0.39183068043 0.18838015572 0.58075079472 0.48933588754 2.7777786255 0.28600453701 0.53087570171 
0.49370674789 1.4467561686 3.8580217479 0.96450941062 1.4467561686 5.2083498902 5.4494772428 2.8955099362 0.061867444216 
0.51230416871 0.87110674653 0.015095178855 0.048036935052 0.1330621452 0.24112664899 1.9925556427 0.99627782135 0.0076940823809 
0.010211118697 0.028841591601 0.10958674666 0.090280773349 0.088366642722 0.17587085777 1.192583567 0.056820785899 0.10147976461 
0.17169080093 0.011331859699 0.0076665577863 0.0017313771059 0.015095178855 0.049041121823 0.17553152726 0.090000712815 0.083925037301 
0.013474171548 0.0076940823809 0.00699783751 0.011705779272 0.020398613299 0.003965438693 0.003965438693 0.010389814214 0.019486975347 
0.018006954073 0.0099985825569 0.0042211041572 0.013154249992 0.12659144411 0.13791107341 0.082947599049 0.029513936341 0.12167246493 
0.14132421385 0.044177744749 0.021943990385 0.046007205157 0.071413307392 0.060656687758 0.097957688217 0.070148937496 0.059474148857 
2.7777786255 0.05082141775 0.078290153695 0.64536821995 0.14441276911 0.081131742348 0.081366733653 0.05082141775 0.097957688217 
0.69444465637 0.099378888262 0.044434018123 0.10222418257 0.12917664836 0.065906493729 0.06693628052 0.022865938287 0.073787434905 
0.074225239337 0.062431474004 0.092867450956 0.13746371654 0.12972828228 0.12588755595 0.34540273545 0.35038439349 0.17587085777 
0.59923747608 0.81884337533 1.2073326599 2.1102867662 1.4477548745 0.82203031011 0.99627782135 2.0373738636 1.2073326599 
2.1102869535 2.0373741515 0.95908947993 1.3751752111 0.96450411243 0.95908947993 0.58259201302 0.69444274902 0.5139023702 
0.020841199816 0.012152791023 0.038843388915 0.0072986356313 0.010142866371 0.020812210948 0.0083602311865 0.21730319209 0.02144880574 
0.00699783751 0.0091132235251 0.0083590051414 0.009645040193 0.0083152208298 0.011214952923 0.0057705771618 0.009645040193 0.0087863925796 
0.0089181962161 0.0071015279002 0.60296191307 0.020188276478 0.02326402936 0.023652271129 0.030436250603 0.025682104422 0.031647861028 
0.01477868099 0.016773053962 0.0095764914621 0.01165348454 0.0216031757 0.030718477656 0.0089146439866 0.33043667492 0.021639777812 
0.28226276014 0.05604570604 0.70450799545 0.028775231952 0.019673542362 0.012152791023 0.025317783397 0.028789474182 0.024989140727 
0.018310627284 0.038353837059 0.030618724152 0.017258031026 0.012181981645 0.021195464755 0.020855618097 0.022963035277 0.012449908471 
0.021726360886 0.0094176181841 0.018983164718 0.033992401253 0.016975304963 0.017250176628 0.026789782222 0.32123850097 0.057405075089 
0.030545462685 0.027178654636 0.078165190429 0.01025309283 0.028636348836 0.0377877723 0.037853772737 0.043949877096 0.13936228257 
0.016812131917 0.015158065621 0.017799215696 0.010493359067 0.017319853319 0.022308752011 0.022939235534 0.014983443322 0.018129493062 
0.019748129788 0.023006211151 0.011801463287 0.010345830701 0.017303626984 0.014330634678 0.018532310213 0.013962500919 0.014867045713 
0.017206664453 0.020893707753 0.010338666598 0.0082695076417 0.016603148678 0.033564566117 0.02189346378 0.015980846978 0.013555619641 
0.02218472956 0.031624307868 0.063737484518 0.002781010128 0.037306740173 0.04204126874 0.036736272303 0.047014333649 0.061955810934 
0.0421179001 0.031542633016 0.026616115698 0.031884258615 0.032319115888 0.049541845043 0.046132970143 0.021255214715 0.027578664159 
0.064861132108 0.12406319031 0.0037783402326 0.081517519813 0.068154367875 0.1079860918 0.068154367875 0.064861132108 0.052076324045 
0.084927831169 0.13867064421 0.15951184542 0.10577628115 0.073978238612 0.0097895686327 0.021800551181 0.011460024964 0.0037938535112 
0.19071136109 0.13936228257 0.13065213991 0.14920941922 0.1590021608 0.069698763921 0.27876686011 0.17681722696 0.10924981468 
0.49170330802 0.17899970344 0.39697514771 0.12130297267 0.31902366605 0.13867063647 0.017494251012 0.026424311533 0.037030008089 
0.063148534289 0.19071131858 0.10878856339 0.43595088854 0.25627893292 0.47492662937 0.52929484998 0.0076940823809 0.0076940823809 
0.0085361752217 0.013337555302 0.0057705771618 0.0026546496656 0.010529336875 0.0088836703219 0.0091011206391 0.01442355401 0.014239372557 
0.014239372557 0.003965438693 0.003965438693 0.011442447689 0.011678475349 0.0096970543911 0.0022899998574 0.010190438745 0.0080755473117 
0.0071660313706 0.0071660313706 0.0022899998574 0.0039619148168 0.0063986222885 0.0096201202763 0.0097895686327 0.0080681496561 0.0088996078479 
0.014577358436 0.010009071878 0.002651092327 0.013337555302 0.012793739782 0.011679970876 0.012270218891 0.010265121149 0.011093937686 
0.01901741386 0.015090436785 0.009645040193 0.0092538022529 0.011363456978 0.009645040193 0.010199472679 0.0074168464067 0.0070295738669 
0.009645040193 0.0090906077073 0.011569490202 0.011569490202 0.0087508331929 0.006525916822 0.009645066684 0.0096403540527 0.0046916024575 
0.006525916822 0.0024400142449 0.0053016060188 0.010454077448 0.016163025053 0.0088714496438 0.016018664707 0.017711122547 0.1045269988 
0.13919312835 0.22178157642 0.23938253298 0.12477650543 0.16482799471 0.06547474065 0.067503605619 0.010491485444 0.011690719797 
0.01960737514 0.0096285432745 0.018926231469 0.010345830701 0.011799472156 0.0045743334988 0.18287598777 0.08493506101 0.10411234831 
0.043616789168 0.058793462959 0.0037321880657 0.0019235257206 0.0019235257206 0.010738026149 0.0099885088297 0.010738026149 0.0076255009154 
0.013728899507 0.061100507319 0.05446552536 0.014048498476 0.02159042231 0.012244711027 0.013555619641 0.018650679752 0.014851513843 
0.015800218909 0.015596835906 0.0086805517077 0.015442336546 0.011843583208 0.014717373151 0.010498331902 0.012089170392 0.018096378169 
0.014506678971 0.011988010835 0.015520495171 0.015648866934 0.022675187338 0.02135309604 0.0063862760451 0.0086446583622 0.010658726333 
0.0096217905069 0.013175872804 0.010837773956 0.021238795891 0.027401940089 0.0094871994517 0.01491541514 0.015516775612 0.014075663529 
0.015622761348 0.012418436226 0.015511890229 0.0077653982022 0.0091296512448 0.0088490327125 0.009652775513 0.011670141913 0.022018407999 
0.023823364012 0.0027355300796 0.014748579043 0.010142866371 0.0096893163698 0.014569299343 0.0067619841079 0.012126782462 0.01372235559 
0.010332955215 0.0096970703865 0.028582033896 0.020560084327 0.012459450987 0.021800551181 0.015458606281 0.01970500759 0.014815671617 
0.012181981645 0.028775231952 0.035140311606 0.02254916871 0.021201896658 0.021280083235 0.0087181402521 0.014411783181 0.023664867448 
0.0067814548588 0.0067814548588 0.0225589731 0.01404028542 0.023682725166 0.033142366004 0.021566969849 0.025397088169 0.02319810779 
0.029370720188 0.028695915007 0.029062873759 0.003890474568 0.027264868974 0.021684000676 0.026153691444 0.038120470372 0.023890383858 
0.027165107632 0.036563867736 0.0052467255561 0.019321098159 0.011061252722 0.02041920209 0.011061252722 0.010218489886 0.018651631479 
0.016170725623 0.018442779469 0.020526188881 0.022561435994 0.034420353918 0.016881796411 0.016018664707 0.012810021795 0.01618237315 
0.0032756874896 0.018444802659 0.024961617431 0.018746354875 0.021090428256 0.029606667875 0.023095539877 0.033800996668 0.016689990275 
0.016998155132 0.030558679007 0.024918901974 0.024918901974 0.0093850471559 0.01495591527 0.041122426065 0.020967316593 0.027494672965 
0.012459450987 0.0085275904107 0.010364172573 0.020729654602 0.029385657147 0.039120642057 0.015965549463 0.017222554317 0.0094749314262 
0.010364172573 0.015158065621 0.015965549463 0.022087598247 0.019878749079 0.023429794148 0.024252267199 0.017819965663 0.019637582443 
0.014623985731 0.024592368377 0.017843548469 0.028919771389 0.013220882837 0.013475802163 0.012548392538 0.023566051578 0.011112665944 
0.020907461347 0.021610982972 0.013545534035 0.0093433528908 0.016451260274 0.0051620327829 0.017969778853 0.018259753452 0.011393740991 
0.018942541273 0.024325559311 0.020455691947 0.016907904865 0.011417390117 0.022506240738 0.020173464893 0.030662976188 0.013758889337 
0.022134790757 0.01633663404 0.017186084594 0.016083048707 0.012920512486 0.012337253557 0.016176274605 0.019198428107 0.017184236444 
0.0093090126893 0.013430266708 0.014666413332 0.011350653022 0.017835171887 0.013243833071 0.014608013536 0.026523909451 0.026846806257 
0.013682617786 0.020108826547 0.03408744981 0.023672995537 0.017247809335 0.012152791023 0.018728285437 0.015016280023 0.021973633161 
0.018905482008 0.023122260714 0.015759524024 0.012953954761 0.019497151816 0.012152791023 0.022097086912 0.023533254764 0.0083035507161 
0.024501044753 0.0068630334036 0.0052439796079 0.095427256057 0.11839553125 0.10865159604 0.10449014752 0.022825157003 0.021156756918 
0.021263680323 0.032157495558 0.031647861028 0.025682104422 0.01475696817 0.01475696817 0.10230274761 0.060734110759 0.043807966237 
0.038736107859 0.032357619177 0.035114753678 0.039231599708 0.024969179525 0.036548922274 0.038425577844 0.023765519052 0.021082841617 
0.025858238281 0.027735366918 0.019990035771 0.030398397671 0.039860808396 0.050991775168 0.011218410065 0.027042549878 0.027627708509 
0.027627708509 0.0436324872 0.028843772351 0.032336928815 0.042003193858 0.044760148667 0.035857696215 0.03533480876 0.0280618866 
0.023914585661 0.026923335748 0.022973068781 0.022206148762 0.023910757075 0.037435291704 0.014608013536 0.030443754382 0.03457137342 
0.026344559709 0.037107583085 0.068942538665 0.031805020174 0.055789028443 0.043916912112 0.054515799461 0.063737484518 0.062441506878 
0.044611138046 0.062446828456 0.053417179447 0.035353233426 0.042858859167 0.052002828641 0.041582187629 0.043545604181 0.020234809315 
0.025071226973 0.03936533599 0.043425279233 0.050741803143 0.053793174508 0.037812667536 0.043692053071 0.044374442129 0.0088996078479 
0.02567045888 0.0085731453489 0.013023506686 0.014905650331 0.01901741386 0.014030331848 0.018930830786 0.016009761135 0.012152791023 
0.016975304963 0.023672995537 0.022097086912 0.012152791023 0.033604053022 0.035759147 0.042945630413 0.050179776615 0.037091321371 
0.050413799181 0.043549990438 0.0136474438 0.035946245091 0.035321928765 0.02964967005 0.053371878459 0.030302781272 0.023362856959 