# vtk DataFile Version 5.1
vtk output
ASCII
DATASET POLYDATA
POINTS 3531 double
12.055190086 1.840277791 2.2031138493e-15 7.9101924896 1.840277791 1.2827396014e-15 12.055190086 0.72916668653 2.2378083188e-15 
12.055190086 0.72916668653 2.2378083188e-15 7.9101924896 1.840277791 1.2827396014e-15 7.9101924896 0.72916668653 1.3174340709e-15 
7.9101924896 0.72916668653 1.3174340709e-15 7.9101924896 1.840277791 1.2827396014e-15 3.7651948929 1.840277791 3.6236535352e-16 
7.9101924896 0.72916668653 1.3174340709e-15 3.7651948929 1.840277791 3.6236535352e-16 3.7651948929 0.72916668653 3.9705982304e-16 
3.7651948929 0.72916668653 3.9705982304e-16 3.7651948929 1.840277791 3.6236535352e-16 -0.37980249524 1.840277791 -5.5800884807e-16 
3.7651948929 0.72916668653 3.9705982304e-16 -0.37980249524 1.840277791 -5.5800884807e-16 -0.37980249524 0.72916668653 -5.2331437855e-16 
-0.37980249524 0.72916668653 -5.2331437855e-16 -0.37980249524 1.840277791 -5.5800884807e-16 -4.5247998238 1.840277791 -1.4783830364e-15 
-0.37980249524 0.72916668653 -5.2331437855e-16 -4.5247998238 1.840277791 -1.4783830364e-15 -4.5247998238 0.72916668653 -1.4436885669e-15 
-4.5247998238 0.72916668653 -1.4436885669e-15 -4.5247998238 1.840277791 -1.4783830364e-15 -8.6697969437 1.840277791 -2.3987571784e-15 
-4.5247998238 0.72916668653 -1.4436885669e-15 -8.6697969437 1.840277791 -2.3987571784e-15 -8.6697969437 0.72916668653 -2.3640627089e-15 
-8.6697969437 0.72916668653 -2.3640627089e-15 -8.6697969437 1.840277791 -2.3987571784e-15 -12.81479454 1.840277791 -3.3191314263e-15 
-8.6697969437 0.72916668653 -2.3640627089e-15 -12.81479454 1.840277791 -3.3191314263e-15 -12.81479454 0.72916668653 -3.2844369568e-15 
12.055190086 -0.72916668653 2.2833448116e-15 7.9101924896 -0.72916668653 1.3629705637e-15 12.055190086 -1.6319445372 2.3115340705e-15 
12.055190086 -1.6319445372 2.3115340705e-15 7.9101924896 -0.72916668653 1.3629705637e-15 7.9101924896 -1.6319445372 1.3911598226e-15 
7.9101924896 -1.6319445372 1.3911598226e-15 7.9101924896 -0.72916668653 1.3629705637e-15 3.7651948929 -0.72916668653 4.4259631579e-16 
7.9101924896 -1.6319445372 1.3911598226e-15 3.7651948929 -0.72916668653 4.4259631579e-16 3.7651948929 -1.6319445372 4.7078557472e-16 
3.7651948929 -1.6319445372 4.7078557472e-16 3.7651948929 -0.72916668653 4.4259631579e-16 -0.37980249524 -0.72916668653 -4.7777788579e-16 
3.7651948929 -1.6319445372 4.7078557472e-16 -0.37980249524 -0.72916668653 -4.7777788579e-16 -0.37980249524 -1.6319445372 -4.4958862686e-16 
-0.37980249524 -1.6319445372 -4.4958862686e-16 -0.37980249524 -0.72916668653 -4.7777788579e-16 -4.5247998238 -0.72916668653 -1.3981520741e-15 
-0.37980249524 -1.6319445372 -4.4958862686e-16 -4.5247998238 -0.72916668653 -1.3981520741e-15 -4.5247998238 -1.6319445372 -1.3699628152e-15 
-4.5247998238 -1.6319445372 -1.3699628152e-15 -4.5247998238 -0.72916668653 -1.3981520741e-15 -8.6697969437 -0.72916668653 -2.3185262162e-15 
-4.5247998238 -1.6319445372 -1.3699628152e-15 -8.6697969437 -0.72916668653 -2.3185262162e-15 -8.6697969437 -1.6319445372 -2.2903369572e-15 
-8.6697969437 -1.6319445372 -2.2903369572e-15 -8.6697969437 -0.72916668653 -2.3185262162e-15 -12.81479454 -0.72916668653 -3.2389004641e-15 
-8.6697969437 -1.6319445372 -2.2903369572e-15 -12.81479454 -0.72916668653 -3.2389004641e-15 -12.81479454 -1.6319445372 -3.2107112051e-15 
5.719381941 -1.1547873876 8.8980297299e-16 5.9560054416 -1.2063238361 9.4395316543e-16 1.5743845484 -1.154787408 -3.0571228945e-17 
1.8110078493 -1.2063238157 2.3578917875e-17 7.1058183908 -0.72916668653 1.1843636553e-15 4.5695689917 -1.6319445372 6.4939248315e-16 
2.9608208723 -0.72916668653 2.6398942474e-16 0.42457152531 -1.6319445372 -2.709817358e-16 7.9101924896 -1.1805556118 1.3770651932e-15 
7.6659191086 -1.5787419495 1.3352589905e-15 7.337970255 -0.98204531587 1.2438078593e-15 7.9101924896 -0.95486114919 1.3700178784e-15 
6.8147872153 -1.3933659624 1.1404813978e-15 6.8376936913 -0.72916668653 1.1248280191e-15 7.4216457276 -1.5255393619 1.2793581583e-15 
7.8394266958 -1.0677083805 1.3578283749e-15 7.7526002789 -1.2007686935 1.342703851e-15 7.64206779 -0.72916668653 1.3034349276e-15 
7.7583769951 -1.3595109881 1.3489432712e-15 7.085614881 -1.0702153698 1.1905268283e-15 7.8068401097 -1.5190973058 1.3646873295e-15 
7.2670032469 -0.84295207724 1.2237068303e-15 7.4661462795 -1.2029809464 1.2791673708e-15 5.7651948929 -0.72916668653 8.8668547456e-16 
7.9101924896 -1.4062500745 1.3841125079e-15 7.6179944069 -1.2851791949 1.3154510665e-15 7.5673031678 -1.4441479188 1.3091591537e-15 
7.1387112033 -0.93197115843 1.1979999002e-15 6.9221642253 -0.87604907515 1.1481706493e-15 7.7074821671 -0.9931681895 1.3262032883e-15 
7.3739430904 -0.72916668653 1.2438992914e-15 7.4314953938 -1.3721368567 1.2767552266e-15 7.0462183263 -0.84290288277 1.1746811993e-15 
7.2257583958 -1.1180742944 1.2231393321e-15 7.4417317064 -1.0694965462 1.2695781937e-15 6.3014442921 -0.72916668653 1.0057567468e-15 
6.6936076946 -1.1115866605 1.104775577e-15 6.9397618477 -1.0445721623 1.1573402431e-15 7.3268339261 -1.2625703896 1.2500944996e-15 
7.5774226851 -1.0709507702 1.2997530482e-15 6.8302822181 -1.1499112427 1.1363201e-15 7.5114982302 -0.88143568135 1.2791972674e-15 
6.0333195925 -0.72916668653 9.462211107e-16 6.6080720837 -0.99830666115 1.0822456877e-15 7.1182164714 -1.4594526621 1.2099197781e-15 
7.1774027732 -1.2876535329 1.2176973438e-15 6.9866431978 -1.189086003 1.1722624408e-15 6.8637550631 -1.2742621269 1.147635423e-15 
7.2814689309 -1.4395214256 1.2455467484e-15 7.0052819072 -1.3472137562 1.1813386078e-15 5.9816311549 -1.048610236 9.4471860542e-16 
6.7745879738 -0.96150679445 1.1180705618e-15 6.6930513813 -1.2535316833 1.1090842872e-15 6.1573007412 -1.1196358896 9.8594286248e-16 
6.2670845781 -1.274076675 1.0151421854e-15 6.5409358967 -1.3337213187 1.0778117916e-15 6.6633017445 -0.85308141251 1.0899744728e-15 
6.4104609424 -1.2742813489 1.0469845208e-15 6.1476142132 -0.9218753216 9.7761694319e-16 6.4454802705 -0.85970708368 1.041815282e-15 
6.5415643949 -1.1594208409 1.0725088098e-15 5.9932332595 -1.2144320313 9.5247257919e-16 6.4745157037 -1.0374590165 1.0538127506e-15 
6.5695689917 -0.72916668653 1.065292383e-15 4.7651948929 -0.72916668653 6.6464089517e-16 5.7696848344 -1.0328575467 8.9716519576e-16 
6.3391569026 -1.0050829671 1.0227461197e-15 5.8610157265 -1.1629929053 9.215082048e-16 4.5151948929 -0.72916668653 6.0912975033e-16 
5.2651948929 -0.72916668653 7.7566318486e-16 5.4751085599 -1.1015848 8.3390214084e-16 5.5151948929 -0.72916668653 8.3117432971e-16 
5.684515141 -0.88223812375 8.7355063208e-16 5.2308351789 -1.0483822123 7.7800130869e-16 5.0151948929 -0.72916668653 7.2015204002e-16 
7.7838925794 -0.84201391786 1.3384500106e-15 7.5080054402 -0.74632491608 1.2742028756e-15 5.9887371355 -0.88585646938 9.4121445982e-16 
5.8992572427 -0.77570968816 9.1790659891e-16 5.8275040439 -0.90077306795 9.0587929694e-16 6.2956016576 -1.1375652097 1.0172116747e-15 
6.2830296492 -0.87221907042 1.0061346892e-15 6.1673819423 -0.77990304172 9.7757317261e-16 4.7422884169 -0.94197703706 6.6619964439e-16 
5.6119945135 -1.0226357088 8.6183173765e-16 5.4565242781 -0.91121796279 8.2383139297e-16 5.3901948929 -0.78936196497 8.0529835623e-16 
5.2644745409 -0.89054611728 7.8054231101e-16 5.0621082786 -0.92991890987 7.3683739576e-16 5.3657820477 -1.0161670894 8.0695961147e-16 
5.1401948929 -0.80581334577 7.5030090612e-16 4.8994133546 -0.86208110206 6.985936327e-16 4.4980150359 -0.88877444943 6.1029881224e-16 
4.2651948929 -0.72916668653 5.5361860548e-16 4.2537416549 -0.8355718618 5.5439798009e-16 4.0151948929 -0.7560761812 4.9894771022e-16 
4.6401948929 -0.82334991785 6.3982619629e-16 3.7651948929 -1.1805556118 4.5669094526e-16 4.0094682739 -0.78236927417 4.9849714794e-16 
4.3374171275 -1.3790659078 5.8994827916e-16 3.7651948929 -1.4062500745 4.6373825999e-16 4.8606001672 -0.96774526132 6.9327474061e-16 
4.8376936913 -1.6319445372 7.0892811929e-16 4.2537416549 -0.8355718618 5.5439798009e-16 3.8359606867 -1.2934028432 4.7592776355e-16 
3.9227871036 -1.1603425302 4.9105228747e-16 4.0333195925 -1.6319445372 5.3032121086e-16 3.9170103874 -1.0016002356 4.8481286718e-16 
4.5897725016 -1.2908958539 6.4322931011e-16 3.8685472728 -0.84201391786 4.6906880889e-16 4.4083841356 -1.5181591465 6.1004930817e-16 
4.209241103 -1.1581302773 5.5458876764e-16 5.9101924896 -1.6319445372 9.4707066386e-16 3.7651948929 -0.95486114919 4.4964363052e-16 
4.0573929756 -1.0759320288 5.1830507188e-16 4.1080842147 -0.91696330488 5.2459698471e-16 4.5366761792 -1.4291400653 6.3575623819e-16 
4.7532231572 -1.4850621486 6.8558548915e-16 3.9679052154 -1.3679430342 5.0755285008e-16 4.3014442921 -1.6319445372 5.8985684701e-16 
4.2438919887 -0.98897436703 5.5700091181e-16 4.6291690562 -1.5182083409 6.590749391e-16 4.4496289867 -1.2430369293 6.106168063e-16 
4.2336556761 -1.2916146775 5.6417794468e-16 5.3739430904 -1.6319445372 8.2799939158e-16 4.981779688 -1.2495245632 7.2898056143e-16 
4.7356255349 -1.3165390614 6.7641589528e-16 4.3485534564 -1.0985408341 5.8366163881e-16 4.0979646974 -1.2901604535 5.3400309021e-16 
4.8451051644 -1.211199981 6.974360384e-16 4.1638891523 -1.4796755423 5.5455887102e-16 5.64206779 -1.6319445372 8.8753502772e-16 
5.0673152988 -1.3628045626 7.5151045072e-16 4.5571709111 -0.90165856156 6.2383636035e-16 4.4979846093 -1.0734576908 6.1605879458e-16 
4.6887441847 -1.1720252207 6.6149369763e-16 4.8116323194 -1.0868490968 6.8612071542e-16 4.3939184516 -0.92158979814 5.8820938998e-16 
4.6701054754 -1.0138974675 6.5241753057e-16 5.6937562276 -1.3125009877 8.89037533e-16 4.9007994087 -1.3996044292 7.1568557663e-16 
4.9823360012 -1.1075795404 7.2467185121e-16 5.5180866413 -1.2414753341 8.4781327594e-16 5.4083028044 -1.0870345487 8.1861395302e-16 
5.1344514858 -1.027389905 7.5594434682e-16 5.012085638 -1.5080298112 7.4378166562e-16 5.2649264401 -1.0868298748 7.8677161758e-16 
[...]
CELL_DATA 4999
FIELD FieldData 4
electrode_index 1 4999 int
0 0 0 0 0 0 0 0 0 
0 0 0 0 0 0 0 0 0 
0 0 0 0 0 0 0 0 0 
0 0 0 0 0 0 0 0 0 
0 0 0 0 0 0 0 0 0 
0 0 0 0 0 0 0 0 0 
0 0 0 0 0 0 0 0 0 
0 0 0 0 0 0 0 0 0 
0 0 0 0 0 0 0 0 0 
0 0 0 0 0 0 0 0 0 
0 0 0 0 0 0 0 0 0 
0 0 0 0 0 0 0 0 0 
0 0 0 0 0 0 0 0 0 
0 0 0 0 0 0 0 0 0 
0 0 0 0 0 0 0 0 0 
0 0 0 0 0 0 0 0 0 
0 0 0 0 0 0 0 0 0 
0 0 0 0 0 0 0 0 0 
0 0 0 0 0 0 0 0 0 
0 0 0 0 0 0 0 0 0 
0 0 0 0 0 0 0 0 0 
0 0 0 0 0 0 0 0 0 
0 0 0 0 0 0 0 0 0 
0 0 0 0 0 0 0 0 0 
0 0 0 0 0 0 0 0 0 
0 0 0 0 0 0 0 0 0 
0 0 0 0 0 0 0 0 0 
0 0 0 0 0 0 0 0 0 
0 0 0 0 0 0 0 0 0 
0 0 0 0 0 0 0 0 0 
0 0 0 0 0 0 0 0 0 
0 0 0 0 0 0 0 0 0 
0 0 0 0 0 0 0 0 0 
0 0 0 0 0 0 0 0 0 
0 0 0 0 0 0 0 0 0 
0 0 0 0 0 0 0 0 0 
0 0 0 0 0 0 0 0 0 
0 0 0 0 0 0 0 0 0 
0 0 0 0 0 0 0 0 0 
0 0 0 0 0 0 0 0 0 
0 0 0 0 0 0 0 0 0 
0 0 0 0 0 0 0 0 0 
0 0 0 0 0 0 0 0 0 
0 0 0 0 0 0 0 0 0 
0 0 0 0 0 0 0 0 0 
0 0 0 0 0 0 0 0 0 
0 0 0 0 0 0 0 0 0 
0 0 0 0 0 0 0 0 0 
0 0 0 0 0 0 0 0 0 
0 0 0 0 0 0 0 0 0 
0 0 0 0 0 0 0 0 0 
0 0 0 0 0 0 0 0 0 
0 0 0 0 0 0 0 0 0 
0 0 0 0 0 0 0 0 0 
0 0 0 0 0 0 0 0 0 
0 0 0 0 0 0 0 0 0 
0 0 0 0 0 0 0 0 0 
0 0 0 0 0 0 0 0 0 
0 0 0 0 0 0 0 0 0 
0 0 0 0 0 0 0 0 0 
0 0 0 0 0 0 0 0 0 
0 0 0 0 0 0 0 0 0 
0 0 0 0 0 0 0 0 0 
0 0 0 0 0 0 0 0 0 
0 0 0 0 0 0 0 0 0 
0 0 0 0 0 0 0 0 0 
0 0 0 0 0 0 0 0 0 
0 0 0 0 0 0 0 0 0 
0 0 0 0 0 0 0 0 0 
0 0 0 0 0 0 0 0 0 
0 0 0 0 0 0 0 0 0 
0 0 0 0 0 0 0 0 0 
0 0 0 0 0 0 0 0 0 
0 0 0 0 0 0 0 0 0 
0 0 0 0 0 0 0 0 0 
0 0 0 0 0 0 0 0 0 
0 0 0 0 0 0 0 0 0 
0 0 0 0 0 0 0 0 0 
0 0 0 0 0 0 0 0 0 
0 0 0 0 0 0 0 0 0 
0 0 0 0 0 0 0 0 0 
0 0 0 0 0 0 0 0 0 
0 0 0 0 0 0 0 0 0 
0 0 0 0 0 0 0 0 0 
0 0 0 0 0 0 0 0 0 
0 0 0 0 0 0 0 0 0 
0 0 0 0 0 0 0 0 0 
0 0 0 0 0 0 0 0 0 
0 0 0 0 0 0 0 0 0 
0 0 0 0 0 0 0 0 0 
0 0 0 0 0 0 0 0 0 
0 0 0 0 0 0 0 0 0 
0 0 0 0 0 0 0 0 0 
0 0 0 0 0 0 0 0 0 
0 0 0 0 0 0 0 0 0 
0 0 0 0 0 0 0 0 0 
0 0 0 0 0 0 0 0 0 
0 0 0 0 0 0 0 0 0 
0 0 0 0 0 0 0 0 0 
0 0 0 0 0 0 0 0 0 
0 0 0 0 0 0 0 0 0 
0 0 0 0 0 0 0 0 0 
0 0 0 0 0 0 0 0 0 
0 0 0 0 0 0 0 0 0 
0 0 0 0 0 0 0 0 0 
0 0 0 0 0 0 0 0 0 
0 0 0 0 0 0 0 0 0 
0 0 0 0 0 0 0 0 0 
0 0 0 0 0 0 0 0 0 
0 0 0 0 0 0 0 0 0 
0 0 0 0 0 0 0 0 0 
0 0 0 0 0 0 0 0 0 
0 0 0 0 0 0 0 0 0 
0 0 0 0 0 0 0 0 0 
0 0 0 0 0 0 0 0 0 
0 0 0 0 0 0 0 0 0 
0 0 0 0 0 0 0 0 0 
0 0 0 0 0 0 0 0 0 
0 0 0 0 0 0 0 0 0 
0 0 0 0 0 0 0 0 0 
0 0 0 0 0 0 0 0 0 
0 0 0 0 0 0 0 0 0 
0 0 0 0 0 0 0 0 0 
0 0 0 0 0 0 0 0 0 
0 0 0 0 0 0 0 0 0 
0 0 0 0 0 0 0 0 0 
0 0 0 0 0 0 0 0 0 
0 0 0 0 0 0 0 0 0 
0 0 0 0 0 0 0 0 0 
0 0 0 0 0 0 0 0 0 
0 0 0 0 0 0 0 0 0 
0 0 0 0 0 0 0 0 0 
0 0 0 0 0 0 0 0 0 
0 0 0 0 0 0 0 0 0 
0 0 0 0 0 0 0 0 0 
0 0 0 0 0 0 0 0 0 
0 0 0 0 0 0 0 0 0 
0 0 0 0 0 0 0 0 0 
0 0 0 0 0 0 0 0 0 
0 0 0 0 0 0 0 0 0 
0 0 0 0 0 0 0 0 0 
0 0 0 0 0 0 0 0 0 
0 0 0 0 0 0 0 0 0 
0 0 0 0 0 0 0 0 0 
0 0 0 0 0 0 0 0 0 
0 0 0 0 0 0 0 0 0 
0 0 0 0 0 0 0 0 0 
0 0 0 0 0 0 0 0 0 
0 0 0 0 0 0 0 0 0 
0 0 0 0 0 0 0 0 0 
0 0 0 0 0 0 0 0 0 
0 0 0 0 0 0 0 0 0 
0 0 0 0 0 0 0 0 0 
0 0 1 1 1 1 1 1 2 
2 2 2 2 2 3 3 3 3 
3 3 3 3 3 3 3 3 3 
3 3 3 3 3 3 3 3 3 
3 3 3 3 3 3 3 3 3 
3 3 3 3 3 3 3 3 3 
3 3 3 3 3 3 3 3 3 
3 3 3 3 3 3 3 3 3 
3 3 3 3 3 3 3 3 3 
3 3 3 3 3 3 3 3 3 
3 3 3 3 3 3 3 3 3 
3 3 3 3 3 3 3 3 3 
3 3 3 3 3 3 3 3 3 
3 3 3 3 3 3 3 3 3 
3 3 3 3 3 3 3 3 3 
3 3 3 3 3 3 3 3 3 
3 3 3 3 3 3 3 3 3 
3 3 3 3 3 3 3 3 3 
3 3 3 3 3 3 3 3 3 
3 3 3 3 3 3 3 3 3 
3 3 3 3 3 3 3 3 3 
3 3 3 3 3 3 3 3 3 
3 3 3 3 3 3 3 3 3 
3 3 3 3 3 3 3 3 3 
3 3 3 3 3 3 3 3 3 
3 3 3 3 3 3 3 3 3 
3 3 3 3 3 3 3 3 3 
3 3 3 3 3 3 3 3 3 
3 3 3 3 3 3 3 3 3 
3 3 3 3 3 3 3 3 3 
3 3 3 3 3 3 3 3 3 
3 3 3 3 3 3 3 3 3 
3 3 3 3 3 3 3 3 3 
3 3 3 3 3 3 3 3 3 
3 3 3 3 3 3 3 3 3 
3 3 3 3 3 3 3 3 3 
3 3 3 3 3 3 3 3 3 
3 3 3 3 3 3 3 3 3 
3 3 3 3 3 3 3 3 3 
3 3 3 3 3 3 3 3 3 
3 3 3 3 3 3 3 3 3 
3 3 3 3 3 3 3 3 3 
3 3 3 3 3 3 3 3 3 
3 3 3 3 3 3 3 3 3 
3 3 3 3 3 3 3 3 3 
3 3 3 3 3 3 3 3 3 
3 3 3 3 3 3 3 3 3 
3 3 3 3 3 3 3 3 3 
3 3 3 3 3 3 3 3 3 
3 3 3 3 3 3 3 3 3 
3 3 3 3 3 3 3 3 3 
3 3 3 3 3 3 3 3 3 
3 3 3 3 3 3 3 3 3 
3 3 3 3 3 3 3 3 3 
3 3 3 3 3 3 3 3 3 
3 3 3 3 3 3 3 3 3 
3 3 3 3 3 3 3 3 3 
3 3 3 3 3 3 3 3 3 
3 3 3 3 3 3 3 3 3 
3 3 3 3 3 3 3 3 3 
3 3 3 3 3 3 3 3 3 
3 3 3 3 3 3 3 3 3 
3 3 3 3 3 3 3 3 3 
3 3 3 3 3 3 3 3 3 
3 3 3 3 3 3 3 3 3 
3 3 3 3 3 3 3 3 3 
3 3 3 3 3 3 3 3 3 
3 3 3 3 3 3 3 3 3 
3 3 3 3 3 3 3 3 3 
3 3 3 3 3 3 3 3 3 
3 3 3 3 3 3 3 3 3 
3 3 3 3 3 3 3 3 3 
3 3 3 3 3 3 3 3 3 
3 3 3 3 3 3 3 3 3 
3 3 3 3 3 3 3 3 3 
3 3 3 3 3 3 3 3 3 
3 3 3 3 3 3 3 3 3 
3 3 3 3 3 3 3 3 3 
3 3 3 3 3 3 3 3 3 
3 3 3 3 3 3 3 3 3 
3 3 3 3 3 3 3 3 3 
3 3 3 3 3 3 3 3 3 
3 3 3 3 3 3 3 3 3 
3 3 3 3 3 3 3 3 3 
3 3 3 3 3 3 3 3 3 
3 3 3 3 3 3 3 3 3 
3 3 3 3 3 3 3 3 3 
3 3 3 3 3 3 3 3 3 
3 3 3 3 3 3 3 3 3 
3 3 3 3 3 3 3 3 3 
3 3 3 3 3 3 3 3 3 
3 3 3 3 3 3 3 3 3 
3 3 3 3 3 3 3 3 3 
3 3 3 3 3 3 3 3 3 
3 3 3 3 3 3 3 3 3 
3 3 3 3 3 3 3 3 3 
3 3 3 3 3 3 3 3 3 
3 3 3 3 3 3 3 3 3 
3 3 3 3 3 3 3 3 3 
3 3 3 3 3 3 3 3 3 
3 3 3 3 3 3 3 3 3 
3 3 3 3 3 3 3 3 3 
3 3 3 3 3 3 3 3 3 
3 3 3 3 3 3 3 3 3 
3 3 3 3 3 3 3 3 3 
3 3 3 3 3 3 3 3 3 
3 3 3 3 3 3 3 3 3 
3 3 3 3 3 3 3 3 3 
3 3 3 3 3 3 3 3 3 
3 3 3 3 3 3 3 3 3 
3 3 3 3 3 3 3 3 3 
3 3 3 3 3 3 3 3 3 
3 3 3 3 3 3 3 3 3 
3 3 4 4 4 4 4 4 5 
5 5 5 5 5 6 6 6 6 
6 6 7 7 7 7 7 7 8 
8 8 8 8 8 9 9 9 9 
9 9 9 9 9 9 9 9 9 
9 9 9 9 9 9 9 9 9 
9 9 9 9 9 9 9 9 9 
9 9 9 9 9 9 9 9 9 
9 9 9 9 9 9 9 9 9 
9 9 9 9 9 9 9 9 9 
9 9 9 9 9 9 9 9 9 
9 9 9 9 9 9 9 9 9 
9 9 9 9 9 9 9 9 9 
9 9 9 9 9 9 9 9 9 
9 9 9 9 9 9 9 9 9 
9 9 9 9 9 9 9 9 9 
9 9 9 9 9 9 9 9 9 
9 9 9 9 9 9 9 9 9 
9 9 9 9 9 9 9 9 9 
9 9 9 9 9 9 9 9 9 
9 9 9 9 9 9 9 9 9 
9 9 9 9 9 9 9 9 9 
9 9 9 9 9 9 9 9 9 
9 9 9 9 9 9 9 9 9 
9 9 9 9 9 9 9 9 9 
9 9 9 9 9 9 9 9 9 
9 9 9 9 9 9 9 9 9 
9 9 9 9 9 9 9 9 9 
9 9 9 9 9 9 9 9 9 
9 9 9 9 9 9 9 9 9 
9 9 9 9 9 9 9 9 9 
9 9 9 9 9 9 9 9 9 
9 9 9 9 9 9 9 9 9 
9 9 9 9 9 9 9 9 9 
9 9 9 9 9 9 9 9 9 
9 9 9 9 9 9 9 9 9 
9 9 9 9 9 9 9 9 9 
9 9 9 9 9 9 9 9 9 
9 9 9 9 9 9 9 9 9 
9 9 9 9 9 9 9 9 9 
9 9 9 9 9 9 9 9 9 
9 9 9 9 9 9 9 9 9 
9 9 9 9 9 9 9 9 9 
9 9 9 9 9 9 9 9 9 
9 9 9 9 9 9 9 9 9 
9 9 9 9 9 9 9 9 9 
9 9 9 9 9 9 9 9 9 
9 9 9 9 9 9 9 9 9 
9 9 9 9 9 9 9 9 9 
9 9 9 9 9 9 9 9 9 
9 9 9 9 9 9 9 9 9 
9 9 9 9 9 9 9 9 9 
9 9 9 9 9 9 9 9 9 
9 9 9 9 9 9 9 9 9 
9 9 9 9 9 9 9 9 9 
9 9 9 9 9 9 10 10 10 
10 10 10 10 10 10 10 10 10 
10 10 10 10 10 10 10 10 10 
10 10 10 10 10 10 10 10 10 
10 10 10 10 10 10 10 10 10 
10 10 10 10 10 10 10 10 10 
10 10 10 10 10 10 10 10 10 
10 10 10 10 10 10 10 10 10 
10 10 10 10 10 10 10 10 10 
10 10 10 10 10 10 10 10 10 
10 10 10 10 10 10 10 10 10 
10 10 10 10 10 10 10 10 10 
10 10 10 10 10 10 10 10 10 
10 10 10 10 10 10 10 10 10 
10 10 10 10 10 10 10 10 10 
10 10 10 10 10 10 10 10 10 
10 10 10 10 10 10 10 10 10 
10 10 10 10 10 10 10 10 10 
10 10 10 10 10 10 10 10 10 
10 10 10 10 10 10 10 10 10 
10 10 10 10 10 10 10 10 10 
10 10 10 10 10 10 10 10 10 
10 10 10 10 10 10 10 10 10 
10 10 10 10 10 10 10 10 10 
10 10 10 10 10 10 10 10 10 
10 10 10 10 10 10 10 10 10 
10 10 10 10 10 10 10 10 10 
10 10 10 10 10 10 10 10 10 
10 10 10 10 10 10 10 10 10 
10 10 10 10 10 10 10 10 10 
10 10 10 10 10 10 10 10 10 
10 10 10 10 10 10 10 10 10 
10 10 10 10 10 10 10 10 10 
10 10 10 10 10 10 10 10 10 
10 10 10 10 10 10 10 10 10 
10 10 10 10 10 10 10 10 10 
10 10 10 10 10 10 10 10 10 
10 10 10 10 10 10 10 10 10 
10 10 10 10 10 10 10 10 10 
10 10 10 10 10 10 10 10 10 
10 10 10 10 10 10 10 10 10 
10 10 10 10 10 10 10 10 10 
10 10 10 11 11 11 11 11 11 
11 11 11 11 11 11 11 11 11 
11 11 11 11 11 11 11 11 11 
11 11 11 11 11 11 11 11 11 
11 11 11 11 11 11 11 11 11 
11 11 11 11 11 11 11 11 11 
11 11 11 11 11 11 11 11 11 
11 11 11 11 11 11 11 11 11 
11 11 11 11 11 11 11 11 11 
11 11 11 11 11 11 11 11 11 
11 11 11 11 11 11 11 11 11 
11 11 11 11 11 11 11 11 11 
11 11 11 11 11 11 11 11 11 
11 11 11 11 11 11 11 11 11 
11 11 11 11 11 11 11 11 11 
11 11 11 11 11 11 11 11 11 
11 11 11 11 11 11 11 11 11 
11 11 11 11 11 11 11 11 11 
11 11 11 11 11 11 11 11 11 
11 11 11 11 11 11 11 11 11 
11 11 11 11 11 11 11 11 11 
11 11 11 11 11 11 11 11 11 
11 11 11 11 11 11 11 11 11 
11 11 11 11 11 11 11 11 11 
11 11 11 11 11 11 11 11 11 
11 11 11 11 11 11 11 11 11 
11 11 11 11 11 11 11 11 11 
11 11 11 11 11 12 12 12 12 
12 12 12 12 12 12 12 12 12 
12 12 12 12 12 12 12 12 12 
12 12 12 12 12 12 12 12 12 
12 12 12 12 12 12 12 12 12 
12 12 12 12 12 12 12 12 12 
12 12 12 12 12 12 12 12 12 
12 12 12 12 12 12 12 12 12 
12 12 12 12 12 12 12 12 12 
12 12 12 12 12 12 12 12 12 
12 12 12 12 12 12 12 12 12 
12 12 12 12 12 12 12 12 12 
12 12 12 12 12 12 12 12 12 
12 12 12 12 12 12 12 12 12 
12 12 12 12 12 12 12 12 12 
12 12 12 12 12 12 12 12 12 
12 12 12 12 12 12 12 12 12 
12 12 12 12 12 12 12 12 12 
12 12 12 12 12 12 12 12 12 
12 12 12 12 12 12 12 12 12 
12 12 12 12 12 12 12 12 12 
12 12 12 12 12 12 12 12 12 
12 12 12 12 12 12 12 12 12 
12 12 12 12 12 12 12 12 12 
12 12 12 12 12 12 12 12 12 
12 12 12 12 12 12 12 12 12 
12 12 12 12 12 12 12 12 12 
12 12 12 12 12 12 12 12 12 
12 12 12 12 12 12 12 12 12 
12 12 12 12 12 12 12 12 12 
12 12 12 12 12 12 12 12 12 
12 12 12 12 12 12 12 12 12 
12 12 12 12 12 12 12 12 12 
12 12 12 12 12 12 12 12 12 
12 12 12 12 12 12 12 12 12 
12 12 12 12 12 12 12 12 12 
12 12 12 12 12 12 12 12 12 
12 12 12 12 12 12 12 12 12 
12 12 12 12 12 12 12 12 12 
12 12 12 12 12 12 12 12 12 
12 12 12 12 12 12 12 12 12 
12 12 12 12 12 12 12 12 12 
12 12 12 12 12 12 12 12 12 
12 12 12 12 12 12 12 12 12 
12 12 12 12 12 12 12 12 12 
12 12 12 12 12 12 12 12 12 
12 12 12 12 12 12 12 12 12 
12 12 12 12 12 12 12 12 12 
12 12 12 12 12 12 12 12 12 
12 12 12 12 12 12 12 12 12 
12 12 12 12 12 12 12 12 12 
12 12 12 12 12 12 12 12 12 
12 12 12 12 12 12 12 12 12 
12 12 12 12 12 12 12 12 12 
12 12 12 12 12 12 12 12 12 
12 12 12 12 12 12 12 12 12 
12 12 12 12 12 12 12 12 12 
12 12 12 12 12 12 12 12 12 
12 12 12 12 12 12 12 12 12 
12 12 12 12 12 12 12 12 12 
12 12 12 12 12 12 12 12 12 
12 12 12 12 12 12 12 12 12 
12 12 12 12 12 12 12 12 12 
12 12 12 12 12 12 12 12 12 
12 12 12 12 12 12 12 12 12 
12 12 12 12 12 12 12 12 12 
12 12 12 12 12 12 12 12 12 
12 12 12 12 12 12 12 12 12 
12 12 12 12 12 12 12 12 12 
12 12 12 12 12 12 12 12 12 
12 12 12 12 13 13 13 13 13 
13 14 14 14 14 14 14 15 15 
15 15 15 15 16 16 16 16 16 
16 17 17 17 17 17 17 18 18 
18 18 18 18 19 19 19 19 19 
19 20 20 20 20 20 20 20 20 
20 20 20 20 20 20 20 20 20 
20 20 20 20 20 20 20 20 20 
20 20 20 20 20 20 20 20 20 
20 20 20 20 20 20 20 20 20 
20 20 20 20 20 20 20 20 20 
20 20 20 20 20 20 20 20 20 
20 20 20 20 20 20 20 20 20 
20 20 20 20 20 20 20 20 20 
20 20 20 20 20 20 20 20 20 
20 20 20 20 20 20 20 20 20 
20 20 20 20 20 20 20 20 20 
20 20 20 20 20 20 20 20 20 
20 20 20 20 20 20 20 20 20 
20 20 20 20 20 20 20 20 20 
20 20 20 20 20 20 20 20 20 
20 20 20 20 20 20 20 20 20 
20 20 20 20 20 20 20 20 20 
20 20 20 20 20 20 20 20 20 
20 20 20 20 20 20 20 20 20 
20 20 20 20 20 20 20 20 20 
20 20 20 20 20 20 20 20 20 
20 20 20 20 20 20 20 20 20 
20 20 20 20 20 20 20 20 20 
20 20 20 20 20 20 20 20 20 
20 20 20 20 20 20 20 20 20 
20 20 20 20 20 20 20 20 20 
20 20 20 21 21 21 21 21 21 
21 21 21 21 21 21 21 21 21 
21 21 21 21 21 21 21 21 21 
21 21 21 21 21 21 21 21 21 
21 21 21 21 21 21 21 21 21 
21 21 21 21 21 21 21 21 21 
21 21 21 21 21 21 21 21 21 
21 21 21 21 21 21 21 21 21 
21 21 21 21 21 21 21 21 21 
21 21 21 21 21 21 21 21 21 
21 21 21 21 21 21 21 21 21 
21 21 21 21 21 21 21 21 21 
21 21 21 21 21 21 21 21 21 
21 21 21 21 21 21 21 21 21 
21 21 21 21 21 21 21 21 21 
21 21 21 21 21 21 21 21 21 
21 21 21 21 21 21 21 21 21 
21 21 21 21 21 21 21 21 21 
21 21 21 21 21 21 21 21 21 
21 21 21 21 21 21 21 21 21 
21 21 21 21 21 21 21 21 21 
21 21 21 21 21 21 21 21 21 
21 21 21 21 21 21 21 21 21 
21 21 21 21 21 21 21 21 21 
21 21 21 21 21 21 21 21 21 
21 21 21 21 21 21 21 21 21 
21 21 21 21 21 21 21 21 21 
21 21 21 21 21 21 21 21 21 
21 21 21 21 21 21 21 21 21 
21 21 21 21 21 21 21 21 21 
21 21 21 21 21 21 21 21 21 
21 21 21 21 21 21 21 21 21 
21 21 21 21 21 21 21 21 21 
21 21 21 21 21 21 21 21 21 
21 21 21 21 21 21 21 21 21 
21 21 21 21 21 21 21 21 21 
21 21 21 21 21 21 21 21 21 
21 21 21 21 21 21 21 21 21 
21 21 21 21 21 21 21 21 21 
21 21 21 21 21 21 21 21 21 
21 21 21 22 22 22 22 22 22 
22 22 22 22 22 22 22 22 22 
22 22 22 22 22 22 22 22 22 
22 22 22 22 22 22 22 22 22 
22 22 22 22 22 22 22 22 22 
22 22 22 22 22 22 22 22 22 
22 22 22 22 22 22 22 22 22 
22 22 22 22 22 22 22 22 22 
22 22 22 22 22 22 22 22 22 
22 22 22 22 22 22 22 22 22 
22 22 22 22 22 22 22 22 22 
22 22 22 22 22 22 22 22 22 
22 22 22 22 22 22 22 22 22 
22 22 22 22 22 22 22 22 22 
22 22 22 22 22 22 22 22 22 
22 22 22 22 22 22 22 22 22 
22 22 22 22 22 22 22 22 22 
22 22 22 22 22 22 22 22 22 
22 22 22 22 22 22 22 22 22 
22 22 22 22 22 22 22 22 22 
22 22 22 22 22 22 22 22 22 
22 22 22 22 22 22 22 22 22 
22 22 22 22 22 22 22 22 22 
22 22 22 22 
area 1 4999 double
2.3027764289 2.3027764289 0.007200426225 0.010244557354 0.015651476499 0.0097475906004 2.3027762799 2.3027762799 2.302776164 
2.302776164 2.3027764289 2.3027764289 1.8710060106 1.8710060106 0.010927630258 0.010927630258 0.010750339462 0.010750339462 
1.8710058895 1.8710058895 1.8710057954 1.8710057954 1.8710060106 1.8710060106 0.011560117944 0.011560121397 0.011560117944 
0.011560121397 0.010750340481 0.019960723715 0.010750340481 0.019960723715 0.010957580418 0.010926373611 0.010957580418 0.010926373611 
0.0094569469765 0.011663029929 0.010957581284 0.012689814424 0.0090865983837 0.012080986846 0.0079857239061 0.015254908593 0.01077758942 
0.019080668124 0.012063755053 0.011389602399 0.01280980948 0.017031973568 0.015967693901 0.013815557857 0.013856737205 0.016215552932 
0.010744637119 0.014067433428 0.009465599555 0.0079141314957 0.011033480341 0.015254336851 0.014473144048 0.018058660854 0.010510619618 
0.009937796917 0.015128565 0.013042205805 0.0096071197121 0.010981277021 0.017131958226 0.014447505763 0.015247741724 0.011963814693 
0.012566657194 0.010771268841 0.012619759242 0.013433487097 0.019133929652 0.01008223527 0.013039839308 0.010762448783 0.016349258018 
0.0090661677023 0.0099791452643 0.013231701301 0.013186929087 0.015516455632 0.0090385623216 0.014888004261 0.015638266405 0.010025438369 
0.012014318989 0.014252595186 0.013296547547 0.012652050317 0.016361959788 0.01459763033 0.010673294221 0.011807814774 0.014152899556 
0.017026262593 0.011745218698 0.014163605761 0.016130541656 0.014267125164 0.010509798828 0.011175359877 0.013056896044 0.012807318311 
0.0084182682816 0.010214337119 0.013022532782 0.01026662342 0.013067647957 0.010379880035 0.0042477909696 0.014266336347 0.009710794413 
0.017872897442 0.011634075925 0.011005309497 0.013246614843 0.0062396641639 0.011074933688 0.0095470208563 0.0091218234341 0.010389445748 
0.010663873287 0.017500552385 0.013806165333 0.0088410731082 0.0096713921424 0.016612299339 0.011504272433 0.01065749536 0.015558376837 
0.013071501627 0.0098706718809 0.012438355152 0.014739433238 0.015633622077 0.013283924185 0.009695476294 0.0031003024076 0.018536798938 
0.01144031717 0.015308112497 0.014953865222 0.013762879099 0.019902881293 0.010058608136 0.019950970362 0.010784512403 0.011015630774 
0.018164965719 0.0023002725715 0.0090266682914 0.011691455786 0.014452813653 0.010052949909 0.0097891771378 0.009551665741 0.011143043001 
0.0091218234341 0.0068018349957 0.011634075925 0.011772903915 0.009612357769 0.0075244098044 0.0075244098044 0.010107895315 0.009612357769 
0.010107895315 0.015803839373 0.0095808324043 0.011015630774 0.010749136814 0.011020145537 0.01661430194 0.011828837198 0.0067273736655 
0.013300646908 0.013146546485 0.012221943946 0.0067273736655 0.011772903915 0.0094569469765 0.011663029929 0.010957581284 0.012689814424 
0.0090865983837 0.012080986846 0.0079857239061 0.015254908593 0.01077758942 0.019080668124 0.012063755053 0.011389602399 0.01280980948 
0.017031973568 0.015967693901 0.013815557857 0.013856737205 0.016215552932 0.010744637119 0.014067433428 0.009465599555 0.0079141314957 
0.011033480341 0.015254336851 0.014473144048 0.018058660854 0.010510619618 0.009937796917 0.015128565 0.013042205805 0.0096071197121 
0.010981277021 0.017131958226 0.014447505763 0.015247741724 0.011963814693 0.012566657194 0.010771268841 0.012619759242 0.013433487097 
0.019133929652 0.01008223527 0.013039839308 0.010762448783 0.016349258018 0.0090661677023 0.0099791452643 0.013231701301 0.013186929087 
0.015516455632 0.0090385623216 0.014888004261 0.015638266405 0.010025438369 0.012014318989 0.014252595186 0.013296547547 0.012652050317 
0.016361959788 0.01459763033 0.010673294221 0.011807814774 0.014152899556 0.017026262593 0.011745218698 0.014163605761 0.016130541656 
0.014267125164 0.010509798828 0.011175359877 0.013056896044 0.012807318311 0.0084182682816 0.010214337119 0.013022532782 0.01026662342 
0.013067647957 0.010379880035 0.0042477909696 0.014266336347 0.009710794413 0.017872897442 0.011634075925 0.011005309497 0.013246614843 
0.0062396641639 0.011074933688 0.0095470208563 0.0091218234341 0.010389445748 0.010663873287 0.017500552385 0.013806165333 0.0088410731082 
0.0096713921424 0.016612299339 0.011504272433 0.01065749536 0.015558376837 0.013071501627 0.0098706718809 0.012438355152 0.014739433238 
0.015633622077 0.013283924185 0.009695476294 0.0031003024076 0.018536798938 0.01144031717 0.015308112497 0.014953865222 0.013762879099 
0.019902881293 0.010058608136 0.019950970362 0.010784512403 0.011015630774 0.018164965719 0.0023002725715 0.0090266682914 0.011691455786 
0.014452813653 0.010052949909 0.0097891771378 0.009551665741 0.011143043001 0.0091218234341 0.0068018349957 0.011634075925 0.011772903915 
0.009612357769 0.0075244098044 0.0075244098044 0.010107895315 0.009612357769 0.010107895315 0.015803839373 0.0095808324043 0.011015630774 
0.010749136814 0.011020145537 0.01661430194 0.011828837198 0.0067273736655 0.013300646908 0.013146546485 0.012221943946 0.0067273736655 
0.011772903915 0.0094569495723 0.011663029822 0.015254906568 0.012689814531 0.0090865967348 0.012080987285 0.0079857234693 0.010927630448 
0.012063754335 0.011389601104 0.010777582144 0.019080667145 0.012809808843 0.017031973203 0.015967693634 0.013815557986 0.01385673791 
0.016215549213 0.010744635023 0.014067432787 0.0094655977207 0.0079141308972 0.011033480203 0.015254332961 0.014473141548 0.018058660236 
0.010510619098 0.0099377951476 0.015128563529 0.013042205905 0.0096071195638 0.010981277156 0.017131958475 0.014447503975 0.015247737828 
0.011963814239 0.012566657345 0.010771268889 0.012619759245 0.013433486637 0.019133927158 0.010082234493 0.013039838746 0.010762448039 
0.016349258367 0.0090661662384 0.0099791458195 0.013231694969 0.013186927023 0.015516455288 0.0090385618851 0.014888002685 0.015638266738 
0.010025436996 0.012014318162 0.014252596117 0.01329655251 0.012652049892 0.01636195876 0.014597630101 0.010673293408 0.011807815401 
0.0141529043 0.017026249041 0.011745216664 0.014163600269 0.016130540582 0.01426712511 0.010509798305 0.011175357899 0.01305688481 
0.012807317859 0.00841826745 0.010214336782 0.01302252945 0.01026662181 0.013067659642 0.010379877524 0.004247798163 0.01426633193 
0.0097107944913 0.017872892631 0.01163407203 0.011005309607 0.013246613606 0.0062396682782 0.011074931273 0.0095470269762 0.0091218198792 
0.010389444583 0.010663881141 0.017500555427 0.013806163764 0.0088410743088 0.0096713942641 0.016612300283 0.011504271853 0.010657490472 
0.015558371245 0.013071513368 0.0096123567451 0.012438357543 0.01090508218 0.015633613998 0.013283924937 0.0096954748855 0.0031003034719 
0.018536780722 0.01144031661 0.010784513 0.011015629464 0.013762879373 0.019902873266 0.011772904494 0.0098706724821 0.0075244073571 
0.014953863524 0.018164962969 0.0023002742397 0.0090266667075 0.011691454538 0.01445281973 0.010052948083 0.0097891755853 0.0095516656555 
0.01114304299 0.0091218198792 0.0068018456634 0.01163407203 0.01995097132 0.0075244073571 0.010107895536 0.015558635219 0.010107895536 
0.010812598449 0.013146547101 0.014366847366 0.010016671501 0.0096123567451 0.011015629464 0.0067273739963 0.013300647547 0.010057353337 