# vtk DataFile Version 5.1
vtk output
ASCII
DATASET STRUCTURED_POINTS
DIMENSIONS 60 20 20
SPACING 0.05 0.05 0.05
ORIGIN -0.475 -0.475 0.525
POINT_DATA 24000
FIELD FieldData 1
potential 1 24000 double
0.4140296172 0.41407107334 0.41412642826 0.41419347682 0.41391784969 0.41397353648 0.4140286633 0.41407956034 0.41412292961 
0.41415553886 0.41417399954 0.41417631452 0.4141619139 0.4141313442 0.4140868748 0.41403279551 0.41397369223 0.41391479406 
0.41385958118 0.41381072604 0.41376796395 0.4137305385 0.41369695329 0.4136663383 0.4136393811 0.41361865581 0.41360716911 
0.41360778871 0.41362182189 0.41365008302 0.41368959493 0.41373733817 0.41378943301 0.41384119249 0.41389444119 0.41394132271 
0.41397700747 0.41399805636 0.41400273457 0.41399074459 0.41396268825 0.41392136939 0.41387119682 0.41381687626 0.41376343722 
0.41371414465 0.41367135068 0.41363457012 0.413602919 0.41357493361 0.41354986722 0.41352873499 0.41351417162 0.41350946717 
0.41351709115 0.41353838164 0.41357349245 0.41361947623 0.41367307115 0.41373038771 0.43532288101 0.43536415728 0.43542156566 
0.43549327341 0.43520820593 0.43526783446 0.43532744303 0.43538275304 0.43543030768 0.43546674033 0.43548906866 0.43549544986 
0.43548506159 0.43545859852 0.43541795267 0.43536672731 0.43530922747 0.43525044023 0.43519334527 0.43514073514 0.43509267253 
0.43504837065 0.43500662163 0.43496731763 0.43493199291 0.43490332446 0.43488568701 0.4348824877 0.43489524034 0.4349244596 
0.4349677838 0.43502061893 0.43507901586 0.43513731975 0.43519708949 0.43524844299 0.43528803566 0.43531300681 0.43532194641 
0.43531384304 0.43529001692 0.43525237402 0.43520480584 0.43515185181 0.43509814313 0.43504664041 0.43499961291 0.43495720457 
0.43491828964 0.43488182486 0.43484787556 0.43481820651 0.43479586978 0.4347849788 0.43478901949 0.43480897571 0.43484536632 
0.43489512429 0.43495376393 0.43501707149 0.45494016509 0.45498131724 0.45504048501 0.45511505247 0.45481830954 0.45487832685 
0.45493864476 0.45499486643 0.45504335973 0.45508095759 0.45510502989 0.45511408505 0.45510701944 0.45508441952 0.45504797746 
0.45500012937 0.45494585537 0.4548884777 0.45483150541 0.4547767064 0.45472526433 0.45467623017 0.45462876178 0.45458335212 
0.45454208483 0.45450851134 0.45448661331 0.45448065339 0.45449210733 0.4545217012 0.45456646669 0.45462206423 0.45468338003 
0.45474533672 0.45480803333 0.45486056283 0.45490145081 0.45492847583 0.45494018942 0.45493570232 0.45491579806 0.45488228743 
0.45483798486 0.45478800642 0.45473537414 0.45468346683 0.45463410013 0.45458791195 0.4545440491 0.4545014774 0.45446137186 
0.45442573492 0.45439839099 0.45438325554 0.4543844954 0.45440334586 0.45443998029 0.45449107531 0.45455234614 0.45461827307 
0.47256324688 0.47260517396 0.47266515172 0.47274093526 0.4724307645 0.47248748276 0.47254487598 0.47259884183 0.47264553389 
0.47268230716 0.47270637662 0.47271648579 0.47271178804 0.47269252839 0.47266006577 0.472616825 0.47256638644 0.47251200245 
0.47245643889 0.4724014472 0.47234822464 0.47229619029 0.47224510509 0.47219641748 0.47215209495 0.47211592662 0.47209214066 
0.47208432605 0.47209508697 0.47212376305 0.47216820244 0.472223809 0.47228546995 0.47234763076 0.47241041474 0.47246130531 
0.47250161241 0.47252888442 0.47254187057 0.47253992275 0.47252359554 0.47249420696 0.47245446738 0.47240815899 0.47235828213 
0.47230749284 0.47225745905 0.47220930934 0.4721621024 0.47211596071 0.47207239895 0.47203362985 0.47200358556 0.47198645172 
0.47198585521 0.47200369697 0.4720392762 0.4720899566 0.47215070334 0.47221687439 0.48795418415 0.48799889465 0.48806298635 
0.4881443804 0.48783378187 0.48787669452 0.48792272928 0.48796744622 0.48800722322 0.4880396324 0.48806147098 0.48807166756 
0.48806892204 0.48805372056 0.48802655419 0.4879890729 0.4879438426 0.48789368709 0.48784134838 0.48778779362 0.48773425376 
0.48768064874 0.48762792959 0.48757681835 0.48753020948 0.48749171996 0.48746546299 0.48745522519 0.48746281472 0.48748829089 
0.48752944323 0.48758203086 0.48764150206 0.48770300239 0.48776345222 0.48781359306 0.48785503899 0.48788509703 0.48790274173 
0.48790674654 0.48789803923 0.48787650849 0.48784474676 0.48780507284 0.48776039354 0.48771336547 0.48766472495 0.48761586823 
0.48756652457 0.48751785182 0.48747082173 0.48742856702 0.48739483093 0.48737399011 0.48736950803 0.48738301917 0.48741425019 
0.48746099203 0.48751876006 0.48758300695 0.50091652201 0.50095847343 0.50101831865 0.50109454084 0.50077066585 0.50081023634 
0.50085270665 0.50089462188 0.5009326597 0.50096394506 0.50098600139 0.50099776058 0.50099814345 0.5009871123 0.50096492861 
0.50093313326 0.5008934888 0.50084824459 0.50079916241 0.50074831711 0.50069518311 0.500642007 0.50058899769 0.50053764132 
0.50049065846 0.50045182138 0.5004244177 0.50041224741 0.50041673243 0.50043776443 0.50047343645 0.50052026733 0.50057370542 
0.50062911581 0.50068741767 0.50073560783 0.50077589008 0.50080617965 0.50082541738 0.50083260174 0.5008279035 0.50081166027 
0.50078558104 0.50075141096 0.50071138643 0.50066774448 0.50062141521 0.50057289338 0.5005240618 0.50047527773 0.50042810716 
0.50038564935 0.50035169408 0.50032995639 0.50032344394 0.50033363162 0.50036075572 0.5004021664 0.50045419092 0.5005126728 
0.51136158834 0.51140047583 0.51145586991 0.5115267523 0.51118955795 0.51122496993 0.51126360401 0.51130215165 0.51133775001 
0.51136769428 0.51138974137 0.51140300518 0.51140588656 0.51139868582 0.51138133919 0.51135491612 0.51132048796 0.51127985431 
0.51123471375 0.51118653977 0.51113519353 0.51108299256 0.51103070474 0.5109798735 0.51093343154 0.51089452167 0.51086665066 
0.51085227311 0.51085351311 0.51086975405 0.51090000361 0.5109402467 0.51098709555 0.51103621353 0.51109181795 0.51113737734 
0.51117633829 0.51120664126 0.51122740789 0.51123708668 0.51123623481 0.51122493701 0.51120418291 0.51117512808 0.51113977495 
0.51109957132 0.51105615712 0.51100932889 0.51096143238 0.51091345967 0.51086706658 0.51082535369 0.51079144172 0.51076895823 
0.5107603878 0.5107675095 0.51078970436 0.51082557123 0.51087111101 0.51092307967 0.5192298308 0.51926562997 0.51931648349 
0.51938190034 0.51903253577 0.51906400758 0.51909886582 0.51913434437 0.51916780761 0.51919663835 0.51921890983 0.51923347761 
0.51923923346 0.51923549587 0.51922260007 0.51920093026 0.51917150309 0.5191353713 0.51909394372 0.51904771763 0.51899902972 
0.51894794788 0.51889646733 0.51884639538 0.51880035661 0.51876128098 0.51873257458 0.51871607582 0.51871398115 0.51872540685 
0.51874982052 0.51878413851 0.51882483346 0.51886834223 0.51892112752 0.51896448561 0.51900220818 0.51903282384 0.5190547709 
0.51906743278 0.51907025079 0.51906329311 0.51904730042 0.51902314343 0.51899208785 0.51895546999 0.51891408254 0.51886984482 
0.51882319593 0.51877606021 0.51873044151 0.51868912449 0.51865518853 0.51863184797 0.51862111969 0.5186248257 0.51864215945 
0.51867220867 0.51871183038 0.51875759362 0.52449408686 0.52452631514 0.52457283728 0.52463347636 0.52427323663 0.52430146368 
0.52433383906 0.5243671569 0.52439919547 0.52442752251 0.52445042066 0.5244667794 0.52447522833 0.52447528338 0.52446674701 
0.52444964284 0.52442475747 0.52439239689 0.52435410309 0.52431042726 0.52426338511 0.52421331202 0.5241619568 0.52411197397 
0.52406569277 0.5240256257 0.52399518477 0.5239762286 0.52397032045 0.52397728439 0.52399674428 0.52402562287 0.52406126947 
0.52410047154 0.52415146604 0.52419317835 0.52423037258 0.52426158926 0.5242851779 0.52430070069 0.52430720591 0.52430466856 
0.52429315556 0.52427346576 0.52424617506 0.52421268232 0.52417364426 0.52413097569 0.52408534892 0.52403836368 0.52399286987 
0.52395134028 0.52391651475 0.5238913852 0.52387812575 0.5238779889 0.52389076426 0.52391581565 0.52395021124 0.52399096246 
0.52714484712 0.52717337907 0.52721596824 0.52727216819 0.52690351031 0.52692946517 0.52696036652 0.52699269742 0.5270246569 
0.5270535742 0.52707799847 0.52709643394 0.527108257 0.5271118912 0.52710748578 0.5270945332 0.52707326838 0.52704465738 
0.52700897769 0.52696744053 0.52692097437 0.52687105514 0.5268195335 0.52676838474 0.52672046278 0.52667878455 0.52664569641 
0.52662337771 0.52661363721 0.52661655858 0.52663162962 0.52665660003 0.52668835714 0.52672457647 0.52677480327 0.5268164533 
0.52685395437 0.52688664828 0.52691251342 0.5269312338 0.5269412336 0.52694282544 0.52693531594 0.5269193145 0.52689553578 
0.52686453367 0.52682742988 0.52678563733 0.52673990657 0.5266926667 0.52664612391 0.52660305575 0.5265666587 0.52653879242 
0.52652198902 0.52651817003 0.52652689002 0.52654769267 0.52657794663 0.52661494789 0.52718015873 0.52720466878 0.5272435299 
0.52729635623 0.52692113128 0.52694646419 0.52697707504 0.52701027951 0.52704338433 0.52707407901 0.52710082316 0.52712234873 
0.5271375208 0.52714532937 0.52714495797 0.52713618289 0.5271186306 0.52709295106 0.52705933043 0.52701875467 0.52697224579 
0.52692157408 0.52686821042 0.52681486975 0.52676384821 0.52671870355 0.52668167779 0.52665529937 0.52664168944 0.52664098152 
0.52665263622 0.52667474218 0.52670471749 0.5267393215 0.52679049052 0.52683297377 0.52687221136 0.52690723582 0.52693630735 
0.52695818124 0.52697217874 0.52697770123 0.52697425147 0.52696191801 0.52694094226 0.52691200781 0.5268757481 0.52683355605 
0.52678706948 0.52673813454 0.52668932607 0.52664312823 0.52660303583 0.52657147438 0.52655088643 0.52654302466 0.52654818153 
0.52656565214 0.52659305827 0.5266283031 0.52459984116 0.5246201559 0.52465543394 0.52470593639 0.52432672806 0.5243526917 
0.52438462261 0.52441978922 0.52445534588 0.52448895206 0.5245190389 0.52454433595 0.5245635459 0.52457578741 0.52457964897 
0.52457489616 0.52456120408 0.52453820721 0.52450590643 0.52446537786 0.5244179836 0.52436521659 0.52430858539 0.52425137697 
0.5241958018 0.52414553927 0.52410339801 0.52407225808 0.52405447361 0.52405043241 0.52405979435 0.52408068983 0.52411024985 
0.52414541905 0.52419855433 0.52424322859 0.52428542829 0.52432329451 0.52435603872 0.52438204067 0.52440058747 0.52441017578 
0.52441068728 0.52440193832 0.52438352833 0.52435562487 0.52431920883 0.52427608891 0.52422746601 0.52417511693 0.52412232093 
0.52407167757 0.52402659675 0.52398996431 0.52396459032 0.52395284358 0.52395464019 0.52396988311 0.52399622421 0.52403098648 
0.51940600787 0.51942185725 0.51945401395 0.5195028889 0.51912204474 0.51914976523 0.51918446564 0.51922256696 0.51926159276 
0.5192988854 0.5193328672 0.51936286208 0.51938669232 0.51940363162 0.51941257423 0.51941225434 0.51940171605 0.51938125732 
0.51934974096 0.51930872046 0.51925938987 0.5192031001 0.51914213299 0.51907930787 0.51901809261 0.51896142939 0.5189127903 
0.51887602749 0.51885425927 0.51884716156 0.51885523801 0.51887611853 0.51890685194 0.5189441289 0.51900010974 0.51904796109 
0.51909376151 0.51913547927 0.51917277088 0.51920325909 0.51922639312 0.51924087268 0.51924578387 0.51924011091 0.51922370405 
0.51919653253 0.51915960138 0.5191142 0.5190621069 0.51900516793 0.51894681944 0.5188903818 0.51883886979 0.51879582604 
0.51876509339 0.51874942898 0.51874860242 0.5187626904 0.51878888615 0.51882497075 0.51160789035 0.51161874702 0.51164813997 
0.51169635792 0.51131564634 0.51134624037 0.51138470049 0.5114266033 0.51146944935 0.51151106612 0.51154992392 0.5115841877 
0.51161334668 0.5116357187 0.51164995547 0.51165422991 0.51164760312 0.51162878295 0.51159809615 0.51155602523 0.51150383076 
0.51144327941 0.51137659576 0.5113071168 0.51123841278 0.51117417123 0.5111189948 0.51107604926 0.5110495834 0.51104037249 
0.51104772907 0.51106948136 0.51110281756 0.51114342739 0.51120292007 0.51125458965 0.51130426341 0.51135091989 0.51139234027 
0.51142814999 0.51145659391 0.51147638312 0.51148563977 0.5114836221 0.51146873517 0.51144216869 0.51140374765 0.51135547476 
0.51129866251 0.51123608221 0.51117094694 0.51110706536 0.51104809942 0.51099858834 0.51096213211 0.51094194588 0.51093920348 
0.51095261916 0.51098020032 0.51101843571 0.50123214952 0.50123810483 0.50126481281 0.50131224756 0.50093444015 0.50096811973 
0.50100998212 0.50105647704 0.50110337048 0.50114911068 0.50119242694 0.50123195791 0.50126629815 0.50129439776 0.50131444945 
0.50132384742 0.50132063067 0.5013037246 0.50127375726 0.50123026861 0.50117476766 0.50110917851 0.5010361278 0.50095940252 
0.50088254136 0.50081031685 0.50074758053 0.50069913584 0.50066814231 0.50065648908 0.50066383447 0.50068793166 0.50072415785 
0.50076797306 0.50083163002 0.50088715962 0.50094094878 0.50099185865 0.50103821799 0.50107949461 0.50111366479 0.50113904775 
0.50115320074 0.50115420872 0.50114130497 0.50111490289 0.5010750066 0.50102306835 0.5009610411 0.50089205494 0.50081963631 
0.50074761698 0.50068070545 0.50062396062 0.5005819786 0.50055767715 0.50055291159 0.50056656666 0.5005962197 0.50063745898 
0.48833648 0.48833802414 0.4883627206 0.48841001054 0.48803606701 0.48807247772 0.48811788586 0.48816776828 0.48821838351 
0.4882678472 0.48831516658 0.48835919933 0.48839878609 0.48843287692 0.48845852771 0.48847299836 0.48847382273 0.48845935668 
0.48842979891 0.48838467688 0.48832592334 0.48825508582 0.48817606106 0.48809187444 0.48800695432 0.48792682524 0.48785728704 
0.48780303951 0.48776800643 0.48775461173 0.48776237097 0.48778860333 0.48782760853 0.4878752151 0.48794191113 0.48800073358 
0.48805822761 0.48811301936 0.48816402189 0.48821043524 0.48825051675 0.48828147315 0.48830050586 0.48830533058 0.48829456668 
0.48826835077 0.48822652674 0.48817106543 0.48810372426 0.4880285718 0.48794866957 0.48786852693 0.48779395012 0.4877305754 
0.48768305614 0.4876550132 0.4876487008 0.48766299905 0.48769488134 0.48773880495 0.47302723049 0.47302542097 0.4730480281 
0.4730954649 0.47272612555 0.47276469959 0.47281235139 0.47286449643 0.47291770194 0.47296977252 0.47301993715 0.47306783055 
0.47311234602 0.4731515745 0.47318266895 0.47320232668 0.47320711141 0.47319523991 0.473166006 0.47311999697 0.47305815989 
0.472982922 0.47289830236 0.47280743244 0.47271584828 0.47262888516 0.47255318828 0.47249393949 0.47245616296 0.47244097567 
0.47244932941 0.47247705842 0.47251874947 0.47256874547 0.47263723609 0.47269882916 0.47275839052 0.47281603027 0.47287103414 
0.47292228698 0.47296749026 0.4730038728 0.47302800413 0.47303658001 0.4730281394 0.47300201995 0.47295912081 0.47290037738 
0.47282864483 0.47274762783 0.47266096621 0.47257427033 0.47249298301 0.47242364522 0.47237155534 0.47234078605 0.47233296092 
0.47234807933 0.47238126112 0.47242790342 0.45547311303 0.45546871266 0.4554901331 0.4555372827 0.45517288908 0.45521223864 
0.45526056663 0.45531310476 0.45536682586 0.45541970886 0.4554712745 0.45552170414 0.45556996458 0.45561395667 0.45564956659 
0.45567383228 0.45568247018 0.45567330385 0.45564515976 0.45559845457 0.4555347388 0.45545655994 0.45536739367 0.45527188456 
0.4551751261 0.45508353654 0.45500350479 0.45494100433 0.45490088627 0.45488516202 0.4548933388 0.45492156715 0.45496461288 
0.45501579604 0.45508430849 0.45514582505 0.45520637999 0.45526553635 0.45532302601 0.45537810752 0.45542817149 0.4554691571 
0.45549764601 0.45551000584 0.45550399688 0.45547881846 0.45543500535 0.45537437195 0.45529933435 0.45521395876 0.45512254066 
0.45503096087 0.45494501727 0.45487162599 0.45481632867 0.45478375098 0.454775387 0.45479030088 0.45482410584 0.45487168017 
0.43591594707 0.43591018125 0.43593096649 0.43597712205 0.43561731313 0.4356551952 0.43570197569 0.43575300008 0.43580477286 
0.43585652798 0.43590798993 0.43595943815 0.43600977784 0.43605667742 0.4360963862 0.43612411873 0.43613629213 0.43612955052 
0.43610301147 0.43605672368 0.43599249793 0.43591294846 0.43582157385 0.43572391024 0.4356249207 0.43553122905 0.43544958517 
0.43538582721 0.43534485304 0.43532852333 0.43533594115 0.43536331902 0.43540532037 0.43545579168 0.43552170814 0.43558145051 
0.43564106239 0.43569995252 0.43575858543 0.43581588891 0.43586890929 0.43591395465 0.43594606712 0.43596184583 0.43595828546 
0.43593453151 0.43589117966 0.43582971134 0.43575335212 0.43566586167 0.43557253486 0.43547857208 0.43539090404 0.43531592929 
0.43525949638 0.43522594395 0.43521708783 0.43523093796 0.43526411473 0.43531037688 0.41467055621 0.41466463376 0.41468496516 
0.41472946648 0.41437454845 0.41440850461 0.41445141615 0.41449797724 0.4145459648 0.41459451088 0.41464414079 0.41469440726 
0.41474511424 0.41479333272 0.41483515671 0.41486559545 0.41488038162 0.41487625733 0.41485171541 0.41480698981 0.41474381536 
0.41466500096 0.41457448227 0.41447754119 0.41437947883 0.41428694682 0.41420633762 0.41414328479 0.41410232229 0.41408602816 
0.41409170211 0.41411679661 0.41415587186 0.41420307213 0.41426412038 0.41431993402 0.4143762524 0.41443341822 0.41449117654 
0.41454887797 0.41460337432 0.41465065168 0.41468550859 0.41470393866 0.41470294141 0.4146813192 0.41463940237 0.41457925787 
0.41450378063 0.41441706947 0.41432465635 0.41423185101 0.41414521234 0.41407159252 0.41401575667 0.41398234977 0.4139732223 
0.41398537909 0.41401582806 0.41405902346 0.39752953 0.39756899147 0.39761781811 0.39767375113 0.39738013514 0.39741934178 
0.39745766855 0.39749256204 0.39752127641 0.39754186575 0.39755204557 0.39755048372 0.39753708182 0.39751243963 0.39747802158 
0.39743641377 0.39739115391 0.39734536369 0.39730150915 0.39726125671 0.39722513006 0.39719353139 0.39716551441 0.39714113276 
0.39712127949 0.39710693823 0.39710011739 0.39710146131 0.3971123828 0.39713259098 0.39715996184 0.39719286303 0.39722836284 
0.3972631848 0.39730154169 0.39733439711 0.39735841395 0.39737183277 0.39737336489 0.39736316051 0.39734175653 0.39731110009 
0.39727372899 0.39723328339 0.39719273175 0.39715448131 0.39712003817 0.39708988062 0.39706396556 0.39704169702 0.39702315324 
0.39700925309 0.39700103674 0.39700059223 0.39700843957 0.39702592424 0.39705247224 0.39708594257 0.39712447367 0.39716510428 
0.41644158847 0.41648105425 0.41653150248 0.41659140531 0.41628686826 0.41632845598 0.41636970094 0.41640742979 0.41643938661 
0.41646293102 0.41647605234 0.41647758196 0.41646702512 0.41644501687 0.41641296174 0.41637323785 0.41632873956 0.4162826211 
0.41623712318 0.41619398492 0.41615408635 0.41611729955 0.41608352297 0.41605325699 0.41602724396 0.41600755958 0.41599654753 
0.41599550305 0.41600524815 0.41602601681 0.4160561865 0.41609266689 0.41613263619 0.41617240849 0.41621590268 0.41625199242 
0.41627916644 0.41629568088 0.41630039935 0.4162930785 0.41627425764 0.41624591813 0.4162102028 0.41617030565 0.416129088 
0.41608892482 0.41605126741 0.4160168914 0.41598560851 0.41595734766 0.41593269098 0.41591248576 0.41589898744 0.41589426539 
0.41589957848 0.41591605365 0.4159432205 0.41597925839 0.4160212926 0.41606622196 0.43390127939 0.43394116715 0.43399314842 
0.43405546811 0.43373927059 0.43378074871 0.43382229966 0.43386081652 0.43389380268 0.43391834293 0.43393296556 0.4339365053 
0.43392836385 0.43390904077 0.43387949027 0.4338422436 0.43379937073 0.43375382637 0.43370779904 0.43366299829 0.43362069044 
0.43358008869 0.43354211364 0.43350727602 0.43347716187 0.43345349786 0.43343949791 0.43343658768 0.43344543483 0.43346634192 
0.43349768545 0.43353639045 0.43357895769 0.43362171713 0.43366825243 0.43370557912 0.43373399013 0.43375211792 0.43375889361 
0.43375412589 0.43373809388 0.43371212216 0.43367880811 0.43364033097 0.43359949511 0.43355854852 0.43351890055 0.43348183849 
0.43344651535 0.4334138104 0.43338440403 0.4333599928 0.43334236307 0.43333473591 0.43333819755 0.43335357409 0.43338082128 
0.43341802895 0.43346201148 0.43350931864 0.4496357588 0.44967634913 0.4497295347 0.4497935794 0.44946447772 0.4495039785 
0.44954339373 0.44958053997 0.4496125058 0.44963658231 0.44965138021 0.44965575154 0.44964940293 0.44963237035 0.44960543478 
0.4495706345 0.44953026709 0.44948623527 0.44944106002 0.44939589175 0.44935175321 0.44930921978 0.4492684587 0.44923109181 
0.44919837565 0.44917244513 0.44915646216 0.449151972 0.44916009743 0.44918077242 0.44921217718 0.4492514038 0.44929502782 
0.44933913122 0.44938672336 0.44942299357 0.4494511675 0.4494696786 0.44947757283 0.44947474982 0.44946096338 0.44943766844 
0.44940669553 0.44937061743 0.44933116284 0.44929073856 0.44925044083 0.44921142317 0.44917392758 0.44913833383 0.44910629487 
0.44907914275 0.44905920332 0.449049403 0.44905117931 0.44906578345 0.44909258488 0.44912966953 0.44917414144 0.44922197295 
0.46343180181 0.46347554323 0.46353345653 0.46360413781 0.46327474589 0.46330238038 0.46333231032 0.46336224452 0.4633886185 
0.46340964675 0.46342321411 0.46342804002 0.46342348336 0.46340925812 0.46338603213 0.46335510718 0.4633183111 0.46327745974 
0.46323414087 0.46318980937 0.46314507128 0.46310104009 0.46305826614 0.4630182555 0.46298280265 0.462954236 0.46293541173 
0.46292780681 0.46293304628 0.46295111615 0.46298032345 0.46301779644 0.46306103685 0.46310567597 0.46315227552 0.46318878009 
0.46321906135 0.46324111019 0.46325365652 0.46325632099 0.4632487895 0.46323178834 0.46320703167 0.46317604841 0.46314088263 
0.46310287915 0.46306375848 0.46302382413 0.46298433758 0.46294610743 0.4629104667 0.46287942853 0.46285559052 0.46284159862 
0.46283906053 0.46284961935 0.46287289744 0.46290704878 0.46294933698 0.46299722857 0.47509772777 0.47513878717 0.47519339549 
0.47526059642 0.47492011455 0.47494613501 0.4749750391 0.47500355106 0.47502938948 0.47505072235 0.4750650505 0.47507175729 
0.47506977677 0.47505895088 0.47503966816 0.47501301911 0.47497979022 0.47494189532 0.47490108316 0.47485805038 0.47481390457 
0.47476924162 0.47472619187 0.47468510615 0.47464863922 0.47461867867 0.47459817337 0.47458856469 0.47459094383 0.47460569106 
0.47463119852 0.47466473885 0.47470380768 0.47474498974 0.47479072433 0.47482663512 0.4748570842 0.47487988779 0.47489419754 
0.47489939601 0.47489525817 0.47488225874 0.47486152017 0.47483404389 0.47480170122 0.47476610056 0.47472817648 0.47468873546 
0.474648814 0.47461016951 0.47457360331 0.47454173314 0.47451665166 0.47450111058 0.47449668127 0.47450451452 0.47452449497 
0.47455504814 0.47459365521 0.47463755108 0.48453632099 0.48457482765 0.4846261454 0.48468932902 0.48433818171 0.48436201982 
0.48438884494 0.48441575068 0.48444101632 0.48446210418 0.48447727918 0.48448542432 0.48448593649 0.48447808254 0.48446249097 
0.4844395284 0.48441013489 0.48437563948 0.48433747859 0.48429622795 0.48425289581 0.48420876081 0.48416547819 0.48412428389 
0.48408705705 0.48405631392 0.48403438218 0.48402241961 0.48402217039 0.48403345896 0.48405473196 0.48408405971 0.4841187269 
0.48415571295 0.48420062786 0.48423566328 0.48426568385 0.48428910355 0.48430483293 0.48431260317 0.48431141765 0.48430209319 
0.48428493396 0.48426121117 0.48423213591 0.48419927603 0.48416278607 0.48412422648 0.48408471244 0.48404602565 0.48400931295 
0.4839768346 0.48395102203 0.48393410354 0.48392749893 0.483932477 0.48394925468 0.4839756769 0.48401011186 0.48404968505 
0.49167220251 0.491708015 0.49175588983 0.49181522439 0.49145411245 0.49147583944 0.49150048878 0.49152624259 0.49155056474 
0.4915712116 0.4915872112 0.49159699355 0.49159993321 0.49159497482 0.49158282758 0.49156360415 0.49153772373 0.49150642974 
0.49147068006 0.49143119401 0.49138909262 0.49134587505 0.4913025146 0.49126114164 0.49122342969 0.49119172532 0.49116813359 
0.49115417575 0.49115092343 0.49115862036 0.49117595376 0.49120117376 0.49123161375 0.49126448703 0.49130870522 0.49134267987 
0.49137216366 0.49139646274 0.49141370959 0.49142380462 0.49142534357 0.49141948401 0.49140604042 0.49138580582 0.49135979 
0.49132913586 0.49129458013 0.49125727135 0.49121847332 0.49117972449 0.49114299193 0.49110991453 0.49108326185 0.49106484883 
0.49105611262 0.49105833287 0.49107132946 0.49109389966 0.49112414276 0.49115961784 0.49645979813 0.49649289673 0.49653748697 
0.49659291237 0.49622310266 0.49624307436 0.49626616809 0.49629083268 0.49631493585 0.49633568974 0.4963526608 0.49636396276 
0.49636933131 0.49636760162 0.49635880484 0.49634306274 0.49632048182 0.49629210578 0.49625854644 0.49622059718 0.49618004756 
0.49613721377 0.49609370152 0.49605154556 0.49601278974 0.49598009568 0.49595453271 0.49593801868 0.49593201403 0.49593623076 
0.49594959469 0.49597110982 0.49599807888 0.49602766161 0.49607116837 0.49610453052 0.4961342387 0.4961593056 0.4961782523 
0.49619069862 0.49619535792 0.49619270651 0.49618270536 0.49616565022 0.49614253843 0.49611412381 0.49608098742 0.49604490444 
0.49600641759 0.49596753567 0.49593019413 0.49589634083 0.49586854197 0.49584810508 0.49583692976 0.4958362062 0.49584577887 
0.49586451185 0.49589112178 0.49592281479 0.49887490638 0.49890476038 0.49894611152 0.49899841514 0.49862153534 0.49863993719 
0.49866248353 0.49868685911 0.49871103233 0.49873282557 0.49875108856 0.49876473672 0.49877271758 0.49877395591 0.49876865286 
0.4987561453 0.49873683696 0.49871090236 0.49867932471 0.4986426286 0.49860257677 0.49855969855 0.49851540216 0.49847234413 
0.49843177417 0.49839697642 0.49836897705 0.49834978792 0.49834053425 0.49834153648 0.49835183153 0.49837026815 0.49839417054 
0.49842193487 0.49846525108 0.4984987654 0.4985290162 0.49855543092 0.4985765574 0.49859146081 0.49859938927 0.49859994887 
0.49859322517 0.49857916046 0.49855843402 0.4985317465 0.49849974498 0.49846432422 0.49842586859 0.49838630986 0.49834773961 
0.49831214899 0.49828229109 0.49825945165 0.4982455459 0.49824170734 0.49824800927 0.4982636427 0.49828716194 0.4983160532 
0.49890688849 0.49893333251 0.49897159881 0.49902152993 0.49863904809 0.49865690225 0.49867962811 0.49870437315 0.49872963121 
0.49875316688 0.49877321357 0.49878965889 0.49880042238 0.49880493127 0.49880273744 0.49879355967 0.49877695983 0.49875359716 
0.49872362347 0.49868800083 0.49864768072 0.49860389176 0.4985581818 0.49851295098 0.49847012633 0.49843235764 0.49840124729 
0.49837886515 0.49836638227 0.4983642606 0.49837210199 0.49838829691 0.49841048455 0.49843719813 0.49848120286 0.49851548589 
0.49854757715 0.49857550967 0.49859933699 0.49861689394 0.49862788338 0.49863183523 0.49862808069 0.49861677233 0.49859845038 
0.49857301305 0.49854208128 0.49850639748 0.49846710888 0.49842594763 0.49838534194 0.49834720821 0.49831453674 0.49828851002 
0.49827155545 0.49826456296 0.49826775239 0.49828093487 0.4983022141 0.49832934533 0.49655541118 0.49657851294 0.49661396374 
0.49666182283 0.49627590148 0.49629425662 0.49631766158 0.4963437224 0.49637064646 0.49639653006 0.49641926433 0.49643867972 
0.49645264985 0.49646071886 0.49646197828 0.49645579073 0.49644203396 0.49642094227 0.49639207837 0.49635665481 0.4963154665 
0.49627034938 0.49622227838 0.49617399142 0.49612802689 0.4960863198 0.49605112339 0.49602512829 0.49600942015 0.49600462507 
0.49601055588 0.49602521693 0.49604717017 0.49607380867 0.49611916367 0.49615495697 0.4961891355 0.49621968435 0.49624634834 
0.49626708318 0.49628143198 0.49628852002 0.49628785828 0.49627931771 0.49626305137 0.49623882196 0.49620786758 0.49617114557 
0.49613038131 0.49608673062 0.49604312089 0.49600192942 0.49596515748 0.49593536108 0.49591466083 0.49590458304 0.49590521673 
0.49591655201 0.49593632942 0.49596290547 0.49183072846 0.491850524 0.49188355994 0.49192970775 0.49154209015 0.491561322 
0.49158631019 0.49161470068 0.4916439174 0.49167238205 0.49169869701 0.4917211409 0.49173875529 0.4917505214 0.49175549122 
0.4917525367 0.49174165977 0.49172242912 0.49169429358 0.49165855034 0.49161610842 0.4915686462 0.49151743553 0.49146521 
0.49141484722 0.49136844059 0.49132882624 0.49129870808 0.49127983234 0.49127277988 0.49127734763 0.49129158777 0.49131375186 
0.49134126369 0.49138877613 0.49142677612 0.49146333806 0.49149733456 0.4915268952 0.49155114402 0.4915690637 0.49157982353 
0.49158227646 0.49157664214 0.49156195317 0.49153836977 0.49150687695 0.49146879328 0.4914254849 0.49137876284 0.49133115022 
0.49128557029 0.4912442021 0.49120990897 0.49118542998 0.49117213346 0.49117065516 0.49118057169 0.4911999122 0.49122671239 
0.48475734197 0.4847734362 0.48480409043 0.48484916759 0.48446163261 0.48448231551 0.4845093495 0.48454020496 0.48457212374 
0.48460370824 0.48463322702 0.48465922668 0.4846807344 0.48469662126 0.48470542974 0.48470620466 0.48469787868 0.48468032673 
0.48465243946 0.48461630684 0.4845721632 0.48452155468 0.48446652786 0.48440988096 0.48435425913 0.48430267302 0.48425825713 
0.48422400411 0.48420182687 0.48419278318 0.48419631926 0.48421060129 0.48423403805 0.48426330852 0.48431307111 0.48435355124 
0.48439311551 0.48443019185 0.48446328601 0.48449146484 0.4845134451 0.48452787961 0.48453387618 0.48453034149 0.48451727595 
0.48449399211 0.48446181223 0.48442179177 0.48437536155 0.48432463475 0.48427261368 0.48422175591 0.48417528021 0.48413629234 
0.48410760454 0.48409142074 0.4840879578 0.48409698444 0.48411630802 0.48414441808 0.4753793378 0.47539198994 0.47542053237 
0.47546494412 0.47507880214 0.47510114205 0.475130597 0.47516371555 0.47519836947 0.4752332048 0.47526595061 0.47529574484 
0.47532098165 0.47534086659 0.47535382703 0.47535807954 0.47535262444 0.47533642972 0.47530932616 0.47527217296 0.47522600456 
0.4751720274 0.47511283371 0.47505137119 0.47499013809 0.47493317554 0.47488416744 0.47484552048 0.47482001593 0.47480942482 
0.4748124203 0.47482713025 0.4748520331 0.47488366779 0.47493538275 0.47497841692 0.47502105059 0.47506131484 0.47509813853 
0.47512986778 0.47515581013 0.47517434196 0.47518369427 0.47518289136 0.47517089499 0.47514812204 0.47511498084 0.47507282526 
0.4750228777 0.47496809317 0.47491094393 0.47485455173 0.47480282375 0.47475928835 0.4747263912 0.47470694101 0.47470213639 
0.47471069398 0.47473044594 0.47475990932 0.46377209635 0.46378142186 0.46380799092 0.46385149082 0.46346871245 0.46349239376 
0.46352328368 0.46355881193 0.46359621067 0.46363324592 0.46366885445 0.4637019873 0.46373118112 0.46375489109 0.46377179764 
0.46377971233 0.46377690798 0.46376228711 0.46373593816 0.46369812212 0.46364973429 0.46359249148 0.46352934988 0.46346272708 