# vtk DataFile Version 5.1
vtk output
ASCII
DATASET STRUCTURED_POINTS
DIMENSIONS 60 20 20
SPACING 0.05 0.05 0.05
ORIGIN 2.225 -0.475 0.525
POINT_DATA 24000
FIELD FieldData 3
potential 1 24000 double
0.38865415216 0.38863338066 0.3886055378 0.38857281358 0.38853695733 0.38850005437 0.38846494306 0.38843422025 0.38841001405 
0.38839428605 0.38811960334 0.38813240756 0.38815614421 0.38818965822 0.38822976844 0.38827202792 0.38831188474 0.38834546658 
0.38837008627 0.38838471043 0.38839051815 0.38838948957 0.38838357613 0.38837489364 0.38836328392 0.38834734127 0.3883253055 
0.38829591197 0.38825864081 0.38821371183 0.38816357263 0.38811011039 0.38805592758 0.38800379302 0.38795654262 0.38791660291 
0.38788598504 0.38786760422 0.38786199912 0.3879238073 0.38794348336 0.38797000359 0.38799918684 0.38802603841 0.38804699684 
0.38805909195 0.38806202537 0.38805672424 0.38804526734 0.38802930985 0.38801095175 0.38798918244 0.38796246172 0.38792941388 
0.38788878702 0.38783973724 0.38778297928 0.38772129705 0.38765598712 0.38759037242 0.37041073145 0.37039084954 0.37036088851 
0.37032332219 0.37028087977 0.37023614356 0.37019283638 0.37015380708 0.37012197004 0.37009920575 0.36981485241 0.36982062241 
0.36983790386 0.36986494919 0.36989981306 0.36993833218 0.36997658493 0.37001054094 0.37003821921 0.37005825764 0.37007133589 
0.37007939288 0.37008410159 0.37008619684 0.37008494331 0.37007855072 0.37006388429 0.37003932702 0.37000402531 0.36995793955 
0.36990399496 0.36984509364 0.36978415773 0.36972524444 0.36967095378 0.36962417597 0.36958748268 0.36956275229 0.36955094367 
0.36961296694 0.36962646178 0.36964809494 0.36967368204 0.36969904257 0.3697204095 0.36973586595 0.36974426321 0.36974654609 
0.36974414838 0.36973888054 0.36973117488 0.3697199005 0.36970298318 0.36967733814 0.36964154479 0.36959475455 0.3695373356 
0.36947229154 0.36940255899 0.36933127236 0.35359540632 0.35357677307 0.35354615708 0.35350628024 0.35345989804 0.35341093697 
0.35336256891 0.35331862491 0.35328151795 0.35325374084 0.35296169144 0.35296132139 0.35297228675 0.35299317846 0.35302220299 
0.35305661407 0.35309164174 0.35312480578 0.35315392313 0.35317749429 0.35319591358 0.35321090722 0.35322390474 0.3532344473 
0.35324140126 0.35324177368 0.3532331089 0.35321238306 0.35317907997 0.35313322583 0.35307788948 0.35301598699 0.35295176667 
0.35288852374 0.35283039703 0.35277922912 0.35273804933 0.35270838559 0.3526907681 0.3527536269 0.35276109408 0.35277713825 
0.35279860781 0.35282095528 0.3528419088 0.35285898532 0.35287117546 0.35287859256 0.35288357899 0.35288678151 0.35288762878 
0.35288457838 0.35287464966 0.35285526253 0.35282369778 0.35277913023 0.35272241813 0.35265670905 0.35258477499 0.3525112373 
0.33851418803 0.33849692742 0.33846732487 0.33842705595 0.33838006813 0.33832953458 0.33827954114 0.33823319343 0.33819325119 
0.33816211418 0.33786388727 0.3378589328 0.33786444827 0.33787970789 0.33790306315 0.33793194556 0.3379631421 0.33799401068 
0.33802275735 0.33804850464 0.33807072519 0.33809113522 0.33810955099 0.33812585378 0.33813810712 0.33814342218 0.33813852473 
0.33812103568 0.33808975994 0.33804543841 0.33799045181 0.33792855882 0.33786352692 0.33779925476 0.33773915901 0.33768580336 
0.33764174103 0.33760831212 0.33758652172 0.33765125745 0.3376529548 0.33766336891 0.33767943086 0.33769821478 0.33771697998 
0.33773403271 0.33774851248 0.33776025406 0.33777057588 0.33777932712 0.33778606128 0.33778857129 0.3377838146 0.33776846608 
0.33774042866 0.33769863683 0.33764412298 0.33757940367 0.33750873807 0.33743508642 0.32551558677 0.32549712982 0.32546616799 
0.32542436206 0.32537527346 0.3253226019 0.32526975737 0.32521970375 0.32517547728 0.32513882744 0.3248494243 0.32484015402 
0.32484073955 0.32484990354 0.32486738067 0.32489065155 0.32491750608 0.32494562929 0.32497311336 0.32499945111 0.32502395312 
0.32504746872 0.32506946367 0.32508943293 0.32510495502 0.3251134376 0.32511142913 0.32509672676 0.32506837262 0.32502691471 
0.3249746649 0.32491509316 0.32485247615 0.3247900084 0.32473082943 0.3246778956 0.32463297404 0.32459797877 0.32457344354 
0.32462371887 0.32462533655 0.32463517775 0.32465064493 0.32466928567 0.32468887434 0.32470813325 0.32472597441 0.32474189614 
0.32475691322 0.32477028049 0.32478112147 0.3247870961 0.32478526237 0.32477217802 0.32474615267 0.3247062477 0.32465317249 
0.32458989735 0.32451974911 0.32444696804 0.31452538518 0.31450926894 0.31448069956 0.31444188065 0.31439572009 0.31434551981 
0.31429495488 0.31424638472 0.31420251396 0.31416550024 0.31388558066 0.31387275016 0.31386855129 0.31387267473 0.313884258 
0.31390175318 0.3139237708 0.31394822564 0.31397351309 0.31399907803 0.31402475917 0.31404950692 0.31407330778 0.31409520229 
0.31411242917 0.31412270033 0.31412285592 0.31411078223 0.31408578884 0.31404787235 0.31399965702 0.31394411663 0.31388478448 
0.31382545871 0.31376833836 0.31371651723 0.31367162074 0.31363553167 0.31360860245 0.31364723817 0.31364365366 0.31364732879 
0.3136570222 0.3136709429 0.31368727329 0.31370412065 0.3137212352 0.31373849314 0.31375466174 0.3137696588 0.31378235287 
0.31378983154 0.31378979407 0.31377906118 0.31375558643 0.31371909184 0.31366983148 0.3136105369 0.313544436 0.31347535018 
0.30575894864 0.30574476281 0.30571939931 0.30568395331 0.30564174528 0.30559511225 0.30554740648 0.30550088536 0.30545818576 
0.30542114762 0.30515114346 0.30513520498 0.30512706288 0.3051264081 0.30513274193 0.30514496169 0.30516236407 0.30518292054 
0.30520571842 0.30522975418 0.30525524423 0.30528044469 0.30530491125 0.30532737618 0.30534564488 0.3053569845 0.3053588532 
0.30534942164 0.3053273582 0.305293649 0.30524964912 0.30519881303 0.30514372552 0.30508786812 0.305033447 0.30498291448 
0.30493861367 0.30490161673 0.30487265109 0.30490096791 0.30489248567 0.30489073857 0.30489516432 0.30490434378 0.30491678523 
0.30493111585 0.3049471284 0.3049639227 0.30498057021 0.30499625094 0.30500941832 0.30501781666 0.3050188459 0.30500989357 
0.30498917152 0.30495568567 0.30491051936 0.3048555249 0.30479408909 0.30472883053 0.29927005114 0.29925835277 0.29923648783 
0.29920500687 0.29916625973 0.29912316055 0.29907812498 0.2990337835 0.29899230422 0.29895536997 0.29869566473 0.29867703949 
0.29866486074 0.29865971799 0.29866145752 0.29866894066 0.29868167618 0.29869868963 0.29871896811 0.29874165037 0.29876582091 
0.29879111825 0.29881585175 0.29883880217 0.29885768838 0.29887014905 0.29887361314 0.29886663995 0.29884786794 0.29881829675 
0.2987787943 0.29873214875 0.29868115803 0.29862836757 0.2985765022 0.2985276634 0.29848363185 0.29844569379 0.29841513513 
0.298433757 0.29842036319 0.29841399817 0.29841350528 0.29841813748 0.29842693373 0.29843903697 0.29845340509 0.2984691588 
0.29848574797 0.29850147636 0.29851504016 0.29852407289 0.29852615716 0.29851886141 0.29850055887 0.29847060879 0.29842957509 
0.2983788826 0.29832146757 0.29826017705 0.29508452877 0.29507581435 0.29505719905 0.29502897533 0.29499366675 0.29495337367 
0.29491058595 0.29486772745 0.29482696978 0.29478983917 0.29454041424 0.2945189954 0.29450333575 0.29449360902 0.29449070416 
0.29449369367 0.29450228489 0.29451601468 0.29453381836 0.29455497461 0.29457844979 0.29460337222 0.29462910594 0.29465266785 
0.29467266447 0.29468668392 0.29469233098 0.29468785377 0.2946726186 0.29464675345 0.29461127504 0.29456843839 0.29452061055 
0.29447039578 0.29442050963 0.29437243994 0.2943283741 0.29428912661 0.29425666336 0.29426654135 0.29424840712 0.29423733874 
0.29423218112 0.29423272159 0.29423834439 0.29424813635 0.29426069493 0.29427571574 0.29429197181 0.29430863553 0.29432272554 
0.29433285933 0.2943362785 0.2943311165 0.29431547341 0.29428886011 0.29425137813 0.29420469676 0.2941506686 0.29409235348 
0.29321213144 0.29320618808 0.29319056273 0.29316534233 0.29313259198 0.29309446075 0.29305283647 0.29301070857 0.29296969664 
0.29293164217 0.29269229744 0.29266769177 0.29264799886 0.29263480003 0.29262719538 0.29262650628 0.29263146091 0.29264210246 
0.29265774212 0.2926775466 0.29270054768 0.29272640217 0.29275266676 0.29277799146 0.29279985444 0.29281562286 0.29282404783 
0.29282308224 0.29281089184 0.29278853284 0.29275626228 0.29271641849 0.29267080978 0.29262201172 0.29257273004 0.29252478567 
0.29247987839 0.29243915638 0.29240384299 0.2924049303 0.2923832707 0.29236744749 0.29235859435 0.29235537208 0.29235799363 
0.29236555617 0.29237703341 0.29239153541 0.29240859324 0.2924259576 0.29244153427 0.29245328851 0.29245855977 0.29245607297 
0.29244358569 0.2924200816 0.29238593923 0.29234218138 0.29229090537 0.29223415548 0.29365666812 0.29365409036 0.29364110741 
0.29361829085 0.29358725756 0.29354976573 0.29350857441 0.29346569651 0.29342331019 0.2933836483 0.29315387574 0.2931255837 
0.29310231212 0.29308469037 0.29307336676 0.29306831994 0.2930700588 0.29307803766 0.29309164088 0.29311103273 0.29313476975 
0.29316137468 0.29318957704 0.29321723524 0.29324226473 0.29326169129 0.29327340744 0.29327582996 0.29326733356 0.2932476893 
0.29321780667 0.29317972258 0.29313500419 0.29308670042 0.29303687021 0.29298762093 0.29294121074 0.29289807932 0.29285987557 
0.29285252164 0.29282629775 0.29280664404 0.29279360659 0.292787152 0.29278709186 0.2927926025 0.29280376451 0.29281898348 
0.29283685105 0.2928559746 0.29287410128 0.29288896228 0.29289759802 0.29289814482 0.29288892398 0.29286861475 0.29283701179 
0.29279516149 0.29274535119 0.29268920233 0.29642168849 0.29642242002 0.29641213074 0.29639085826 0.2963602681 0.29632258215 
0.29628018049 0.29623565378 0.29619128667 0.2961487603 0.29592848388 0.29589616769 0.29586858704 0.29584654955 0.29583098062 
0.29582208998 0.29582018416 0.29582568917 0.29583855117 0.29585804948 0.29588244214 0.29591109698 0.29594243157 0.295973847 
0.29600273991 0.29602697154 0.29604345876 0.29604973789 0.29604458071 0.29602752143 0.29599922969 0.2959614662 0.29591654205 
0.29586715486 0.29581561033 0.29576449408 0.2957153675 0.29566945465 0.29562753145 0.29561158436 0.29558096275 0.295557088 
0.29553980735 0.29553018086 0.29552787345 0.2955325486 0.29554384901 0.29555982501 0.29557988935 0.29560188054 0.29562358709 
0.295642387 0.29565553222 0.29566063037 0.29565489353 0.29563746531 0.29560798626 0.29556708033 0.29551734583 0.29546054798 
0.3015097489 0.30151384938 0.30150570473 0.30148514153 0.30145455227 0.30141530698 0.30137092717 0.30132403347 0.30127686728 
0.30123115168 0.30101950706 0.30098279868 0.30095079199 0.30092411566 0.30090379516 0.30089062173 0.30088551912 0.30088929965 
0.30090138462 0.30092098285 0.3009475245 0.30097910694 0.30101456773 0.30105074244 0.30108493435 0.30111458362 0.3011366705 
0.30114756274 0.30114549205 0.30113038146 0.30110274378 0.30106456079 0.30101815086 0.30096661455 0.30091261788 0.30085864479 
0.3008060938 0.30075651505 0.30071066785 0.30068619424 0.30065059646 0.30062203964 0.30060080654 0.30058786339 0.30058377684 
0.30058789549 0.30059955796 0.30061769241 0.30064064748 0.30066674133 0.30069313294 0.30071688987 0.30073538029 0.3007456493 
0.30074416198 0.30072937244 0.30070119962 0.30066049043 0.30060966182 0.30055072862 0.30891708511 0.30892532475 0.30891890058 
0.30889906983 0.30886729789 0.30882610211 0.30877870878 0.30872907702 0.30867882052 0.30862954344 0.30842631455 0.30838541405 
0.30834818954 0.30831641381 0.30829092978 0.3082733791 0.30826508847 0.30826689023 0.3082782339 0.30829896898 0.30832765463 
0.30836351149 0.30840369297 0.30844536338 0.30848618484 0.30852224081 0.30854972346 0.30856532059 0.30856693125 0.30855323822 
0.30852576146 0.30848635933 0.30843771531 0.30838306313 0.30832631454 0.30826896407 0.30821282647 0.30815925411 0.30810894872 
0.30807517695 0.30803481588 0.30800099904 0.30797550787 0.30795943252 0.30795354309 0.3079571218 0.3079699203 0.30799035055 
0.30801746276 0.3080483298 0.30808012154 0.30811036826 0.30813481817 0.30815016477 0.30815277038 0.30814093286 0.30811365248 
0.30807281234 0.30801976673 0.30795811295 0.31862603718 0.31863815115 0.31863394032 0.31861426207 0.31858088558 0.31853730846 
0.31848751903 0.31843439029 0.31838109592 0.31832856646 0.31813420345 0.31808857311 0.31804635445 0.31800884992 0.31797797841 
0.31795581547 0.31794437205 0.31794409474 0.31795453776 0.31797626831 0.31800801205 0.31804802608 0.31809345142 0.31814170185 
0.3181892868 0.31823177288 0.31826513723 0.31828558851 0.31829037973 0.31827831977 0.3182504366 0.31820906096 0.31815768934 
0.3181003443 0.31803997917 0.31797952011 0.31791974771 0.31786206843 0.31780730521 0.31776464749 0.31771826618 0.31767930244 
0.31764939235 0.31763029253 0.31762221508 0.31762547366 0.31763931947 0.31766308491 0.31769431928 0.31773042886 0.31776858548 
0.31780526834 0.31783594343 0.3178564243 0.31786352788 0.31785407064 0.3178277534 0.31778556503 0.31773002347 0.31766514516 
0.33058986282 0.33060572321 0.33060342568 0.33058377384 0.3305488638 0.33050372612 0.33045144411 0.33039608035 0.33034033691 
0.33028501233 0.33009985274 0.33004999 0.33000274952 0.32995959103 0.32992327584 0.32989639994 0.32988095094 0.32987798576 
0.32988808 0.32991086974 0.32994528057 0.32998912677 0.33004009735 0.33009435441 0.33014867267 0.33019756362 0.33023649781 
0.33026127174 0.33026928378 0.33025855611 0.33023007224 0.33018652754 0.33013312591 0.33007306236 0.33000987084 0.32994691835 
0.3298840281 0.32982263079 0.32976338757 0.32971166075 0.32965996224 0.32961550939 0.32958086592 0.32955810604 0.32954805813 
0.32955069565 0.32956589556 0.32959236071 0.3296274809 0.32966908063 0.32971319801 0.32975623573 0.32979285241 0.32981845006 
0.32982907793 0.32982210592 0.32979627723 0.32975271531 0.32969455791 0.32962696619 0.34471781482 0.34473651484 0.34473633215 
0.34471659531 0.34468153644 0.3446347145 0.34458156904 0.34452512057 0.3444674903 0.34441070781 0.34423620373 0.3441827386 
0.34413085543 0.34408279467 0.34404113629 0.34400912678 0.34398963179 0.34398402561 0.34399330781 0.34401638183 0.34405299858 
0.34410040895 0.34415558527 0.34421541418 0.34427505383 0.34432935168 0.34437310277 0.3444016799 0.34441193476 0.34440234798 
0.34437312664 0.34432885039 0.34427372963 0.344212163 0.34414774993 0.34408238624 0.34401771405 0.34395377601 0.34389068614 
0.34383007629 0.34377345159 0.34372390199 0.343684486 0.34365773338 0.3436452386 0.34364717172 0.34366322846 0.34369176535 
0.3437305859 0.34377634747 0.34382569665 0.34387379121 0.34391540709 0.3439451962 0.34395895081 0.34395348949 0.34392791517 
0.34388302423 0.34382337211 0.34375327122 0.36085948716 0.36088047458 0.36088157597 0.36086289011 0.36082837539 0.36078188924 
0.36072914833 0.36067319299 0.36061647417 0.36055950014 0.36039675138 0.36034105379 0.36028534545 0.36023250469 0.36018624243 
0.36014965511 0.36012604348 0.36011758605 0.36012541711 0.36014842897 0.36018569768 0.36023538097 0.36029359774 0.36035707173 
0.3604202884 0.36047841081 0.36052543129 0.36055654144 0.3605681026 0.36055929667 0.36053039604 0.36048621735 0.36043063134 
0.3603691394 0.36030479526 0.36023988234 0.36017443111 0.3601089661 0.36004307251 0.35997478181 0.35991356229 0.35985920979 
0.35981535217 0.35978486876 0.359769777 0.35977074098 0.35978648524 0.35981595561 0.35985701208 0.3599057148 0.35995852131 
0.36000987484 0.3600548428 0.36008729049 0.36010276277 0.36009823103 0.36007254588 0.36002709839 0.35996672884 0.35989560891 
0.37879329161 0.3788161043 0.37881851082 0.37880207831 0.37876936296 0.37872563194 0.37867519734 0.37862220115 0.37856799275 
0.37851247419 0.37836308716 0.3783062697 0.37824866968 0.37819252166 0.37814190695 0.37810121489 0.37807379579 0.37806239654 
0.37806770668 0.37808959466 0.37812691424 0.37817684997 0.37823623873 0.37830061282 0.37836536686 0.37842445773 0.37847241265 
0.37850452269 0.37851685639 0.37850850154 0.3784812923 0.37843830413 0.37838455616 0.3783250136 0.37826303703 0.37819989519 
0.3781355549 0.37807008792 0.37800276006 0.37792820112 0.37786352419 0.3778053629 0.37775745825 0.37772332801 0.37770547625 
0.37770415748 0.37771897086 0.37774849323 0.37778974427 0.37783963454 0.37789294062 0.37794542231 0.37799071222 0.37802363638 
0.3780395893 0.37803478109 0.37800909155 0.37796457023 0.37790460413 0.377834582 0.39822497155 0.39824851701 0.39825224347 
0.39823869772 0.39821010996 0.39817053452 0.39812502421 0.39807691342 0.39802714462 0.39797554477 0.39784101309 0.39778496241 
0.39772660894 0.39766874237 0.39761545875 0.39757138733 0.39754054263 0.39752576715 0.39752834915 0.39754812291 0.39758325679 
0.39763141172 0.39768936552 0.39775217518 0.39781539212 0.39787288924 0.39791941545 0.39795083211 0.39796305408 0.39795540039 
0.3979303955 0.39789069207 0.39784067866 0.39778526494 0.3977274511 0.39766814493 0.39760668555 0.39754281078 0.39747587513 
0.3973961665 0.39732995458 0.39726905191 0.39721809973 0.39718085937 0.3971597913 0.39715592987 0.39716865771 0.39719612994 
0.39723552904 0.39728355224 0.39733517063 0.39738548565 0.39742883147 0.39745977228 0.39747437803 0.39746889658 0.39744325491 
0.39740003296 0.39734252892 0.39727545199 0.38934887875 0.38933043865 0.38930796324 0.38928302209 0.3892563522 0.38922947858 
0.38920419929 0.38918232514 0.38916534163 0.38915494402 0.38888877739 0.3889011116 0.38892019536 0.388945119 0.38897370014 
0.38900356659 0.38903126728 0.38905422042 0.3890708699 0.38908056392 0.38908349068 0.38908040829 0.38907294919 0.38906149998 
0.38904651901 0.38902747756 0.38900385142 0.38897546067 0.38894144529 0.388903001 0.38886136609 0.38881783242 0.38877408592 
0.38873221304 0.38869420455 0.38866147037 0.38863609118 0.38861915476 0.38861106593 0.38866362831 0.38867320951 0.38868724825 
0.38870279789 0.38871669164 0.38872629718 0.3887300831 0.38872737921 0.38871845887 0.38870389184 0.38868536486 0.38866280448 
0.38863661304 0.38860632489 0.38857090837 0.38853059276 0.38848429037 0.38843355311 0.38837943751 0.38832346232 0.38826749353 
0.37356463222 0.37354662097 0.3735227592 0.37349424642 0.37346273262 0.37343007706 0.37339845416 0.37337035022 0.37334688742 
0.3733303977 0.37305549191 0.37306201619 0.37307595958 0.37309652024 0.37312126545 0.37314855884 0.37317506602 0.37319894424 
0.37321812073 0.3732316378 0.37323969865 0.37324365517 0.37324373104 0.37324011237 0.373232909 0.3732207123 0.37320249216 
0.37317749835 0.37314530318 0.3731063016 0.3730625034 0.37301524374 0.37296695613 0.37291993366 0.37287687903 0.37283869783 
0.37280809296 0.37278592591 0.37277290565 0.37282695697 0.37283242471 0.37284270703 0.37285593334 0.37286879169 0.37287929206 
0.37288572487 0.37288671987 0.37288311267 0.37287565574 0.37286459825 0.37285004707 0.3728317692 0.37280829883 0.3727785895 
0.37274191461 0.37269784677 0.37264712102 0.37259146058 0.37253269732 0.37247317335 0.35895814626 0.3589411377 0.35891683626 
0.35888630375 0.35885179988 0.35881547489 0.35877987481 0.35874705146 0.35871898622 0.35869801195 0.3584158301 0.35841753303 
0.3584264988 0.35844232432 0.35846330653 0.35848709961 0.35851189195 0.35853543419 0.35855582384 0.3585724729 0.35858469205 
0.35859390985 0.3585999833 0.35860297891 0.35860159831 0.35859500422 0.35858088706 0.35855885971 0.35852870862 0.35849017383 
0.35844498717 0.35839586427 0.35834486541 0.35829468204 0.35824755718 0.35820583915 0.35817159567 0.35814521052 0.35812774395 
0.3581837489 0.35818478008 0.35819143607 0.35820130576 0.35821264746 0.35822298223 0.35823075037 0.35823500517 0.35823563377 
0.35823350483 0.35822851283 0.35822068558 0.35820839606 0.35819078009 0.35816542353 0.35813216737 0.35809043635 0.35804063557 
0.35798446048 0.35792474725 0.35786333434 0.34579932834 0.34578332137 0.34575931565 0.34572845155 0.34569259807 0.34565474323 
0.34561690234 0.34558135466 0.34555052308 0.34552622806 0.3452380459 0.34523578086 0.34524040096 0.34525196838 0.34526874407 
0.34528935032 0.3453113585 0.34533362251 0.34535394996 0.34537221334 0.34538752548 0.34540064926 0.34541125095 0.34541842753 
0.34542158659 0.34541902972 0.34540858326 0.3453894844 0.34536076078 0.34532339803 0.34527860891 0.34522870365 0.34517691607 
0.34512525665 0.34507616349 0.34503202791 0.34499481547 0.34496528292 0.34494416524 0.34500310448 0.34499990755 0.34500245108 
0.34500916256 0.34501778009 0.34502675428 0.34503488921 0.34504087321 0.34504467473 0.34504670693 0.34504647854 0.34504293262 
0.34503553658 0.34502200166 0.34500074496 0.34497064942 0.34493119987 0.34488307613 0.34482802736 0.34476822907 0.34470708492 
0.33441726009 0.3343998394 0.33437381751 0.33434064687 0.33430240185 0.33426093204 0.33421957954 0.33417981334 0.33414438108 
0.33411450023 0.33383482665 0.33382822771 0.33382817848 0.33383488571 0.33384721647 0.33386351505 0.33388243339 0.33390227507 
0.33392208775 0.33394055133 0.33395804656 0.3339735157 0.33398695598 0.33399749665 0.33400382033 0.33400422093 0.33399664434 
0.33398035143 0.33395421249 0.33391879858 0.33387601752 0.33382799061 0.33377696446 0.33372626668 0.33367748573 0.33363339057 
0.33359514074 0.33356405906 0.33354097352 0.33358559578 0.33358343266 0.33358681774 0.3335941642 0.33360400209 0.33361465292 
0.33362504579 0.3336342166 0.33364225536 0.33364813236 0.3336518519 0.33365221753 0.33364805163 0.33363742488 0.33361843028 
0.33359033254 0.33355227625 0.33350497836 0.33345042992 0.33339109097 0.33332926205 0.32474204128 0.32472628008 0.32470208402 
0.32467057526 0.32463368551 0.32459359121 0.32455271252 0.32451360381 0.32447760543 0.32444663474 0.3241756741 0.3241656513 
0.32416165362 0.3241638542 0.32417164292 0.32418379342 0.32419952921 0.32421715901 0.32423537238 0.32425373309 0.3242718625 
0.32428905629 0.32430422209 0.32431701916 0.3243253113 0.32432787104 0.3243227635 0.32430863869 0.32428514846 0.32425263067 
0.32421242988 0.32416673996 0.32411792023 0.32406849223 0.32402099013 0.32397686956 0.32393821494 0.32390585317 0.3238806273 
0.32391477258 0.32390797405 0.32390678993 0.32390991554 0.32391666698 0.3239248445 0.32393376159 0.32394299496 0.32395176586 
0.32395910392 0.32396458837 0.32396715137 0.32396500771 0.32395640428 0.32393995389 0.32391415246 0.32387867807 0.32383432705 
0.32378235912 0.32372523975 0.32366548034 0.3169995172 0.3169856647 0.31696330603 0.31693407119 0.31689924696 0.31686109235 
0.31682145885 0.31678326252 0.31674736985 0.31671566026 0.31645383404 0.31644084077 0.31643331726 0.31643169556 0.31643525938 
0.31644382115 0.31645589461 0.3164705687 0.31648689633 0.31650469847 0.31652292621 0.31654092899 0.31655724873 0.31657112705 
0.31658125943 0.31658533725 0.31658230462 0.31657060244 0.31654981704 0.31652006825 0.31648286457 0.3164399816 0.31639363868 
0.31634636217 0.31630009301 0.31625655858 0.31621739195 0.31618406488 0.31615717155 0.31618177908 0.31617094272 0.31616547094 
0.31616488337 0.31616791085 0.3161734184 0.31618050258 0.31618891309 0.31619781215 0.31620605019 0.3162124633 0.31621617993 
0.31621562945 0.3162085458 0.3161942498 0.3161708187 0.31613812442 0.31609645365 0.31604756708 0.3159932379 0.31593575169 
0.31126207257 0.31125010375 0.31123026522 0.31120333722 0.31117085645 0.31113466633 0.31109692884 0.31105929166 0.31102363337 
0.3109917383 0.310739275 0.31072343985 0.31071246106 0.31070750249 0.31070723698 0.31071188979 0.31072064935 0.31073266757 
0.31074745203 0.31076403309 0.31078183175 0.31079988785 0.31081705488 0.31083206131 0.31084335942 0.31084907881 0.31084794229 
0.31083851347 0.31082032402 0.3107936686 0.31075933483 0.31071943586 0.31067569327 0.31063046732 0.31058532814 0.31054243577 
0.31050333425 0.31046887163 0.31044000713 0.31045564899 0.31044122718 0.31043188408 0.31042756214 0.31042717616 0.31043003485 
0.31043562008 0.310443008 0.31045128324 0.31045967697 0.31046679708 0.31047135962 0.31047203075 0.31046674812 0.31045408715 
0.31043295531 0.31040275343 0.31036419028 0.31031815758 0.31026657291 0.31021151719 0.30757437779 0.30756455806 0.30754697071 
0.30752267518 0.30749225256 0.30745790018 0.30742145588 0.30738438845 0.30734898796 0.30731630733 0.3070736694 0.30705501137 
0.30704098522 0.30703233518 0.30702841752 0.30702956348 0.30703532726 0.30704474329 0.30705764934 0.30707325465 0.30709044534 
0.30710883901 0.30712692873 0.30714309403 0.30715579355 0.30716307133 0.30716404854 0.30715706646 0.30714154159 0.30711762123 
0.3070863101 0.30704889013 0.30700727375 0.30696358503 0.30691931239 0.30687685492 0.30683730478 0.30680169749 0.3067708559 
0.30677846346 0.30676043138 0.30674733051 0.30673929632 0.30673574586 0.30673628563 0.30673989011 0.30674616423 0.30675387828 
0.30676249014 0.30677066936 0.30677636386 0.30677827708 0.30677437709 0.30676387571 0.30674503736 0.30671757094 0.3066816061 
0.30663828084 0.30658900046 0.30653584551 0.30596138337 0.30595404991 0.30593883936 0.30591645769 0.30588784234 0.30585492924 
0.30581910881 0.30578262032 0.30574635166 0.30571316064 0.30548017303 0.30545854632 0.30544130145 0.30542879498 0.3054214232 
0.30541917093 0.30542198556 0.305429392 0.30544069928 0.30545541809 0.3054724912 0.30549133893 0.30551022721 0.30552803733 
0.30554263893 0.30555233758 0.30555558084 0.30555107187 0.30553836725 0.30551701937 0.30548800551 0.30545251931 0.30541260234 
0.30536979727 0.30532631479 0.30528311922 0.30524304162 0.305205852 0.30517280075 0.30517253836 0.30515068133 0.30513400083 
0.30512251455 0.30511623675 0.30511447213 0.30511673366 0.30512199221 0.30512949418 0.30513874289 0.30514742686 0.30515489841 
0.30515856284 0.30515687009 0.30514851054 0.30513198839 0.30510712551 0.30507352537 0.30503230106 0.30498477041 0.30493289671 
0.30643570927 0.30643095999 0.30641809485 0.30639731565 0.30637003146 0.30633788624 0.30630209328 0.3062650735 0.30622817522 
0.30619277824 0.3059694928 0.30594471859 0.30592432874 0.30590857105 0.30589763192 0.30589235271 0.30589245368 0.30589758805 
0.30590755544 0.30592162205 0.30593899927 0.30595870157 0.30597935167 0.30599909021 0.30601614741 0.30602870689 0.30603486879 
0.30603318902 0.30602306251 0.30600415995 0.30597690682 0.30594290153 0.30590387588 0.30586121563 0.30581710072 0.30577331002 
0.30573107449 0.30569230077 0.30565681786 0.30564908124 0.30562369844 0.30560341425 0.30558901022 0.30557997373 0.3055760317 
0.3055768321 0.30558157079 0.30558940678 0.30559939846 0.30560984546 0.30561899145 0.30562503372 0.30562617291 0.30562046162 
0.30560675368 0.30558413668 0.30555258987 0.30551266896 0.3054664099 0.30541496921 0.30900077856 0.30899854137 0.30898766214 
0.30896821828 0.30894177639 0.30890951977 0.30887323177 0.30883514846 0.30879667366 0.30875949712 0.30854503071 0.30851737335 
0.30849342905 0.30847408333 0.30846015593 0.30845147744 0.30844859546 0.3084516027 0.30846053797 0.30847470612 0.30849261088 
0.30851393856 0.3085368959 0.30855941383 0.30857943109 0.308595503 0.3086050354 0.30860674767 0.30859901378 0.30858218435 
0.30855624958 0.30852294347 0.30848362048 0.30844059468 0.30839551139 0.30835008198 0.30830607491 0.30826436561 0.3082264852 
0.30821104417 0.30818216724 0.30815883195 0.3081409637 0.30812895177 0.30812300544 0.30812287418 0.30812770776 0.30813615613 
0.30814766079 0.30816044812 0.3081722309 0.30818109663 0.3081855079 0.30818295249 0.3081721705 0.30815163509 0.30812167685 
0.30808282072 0.30803667945 0.30798471749 0.31365031014 0.31365086022 0.3136417946 0.31362339032 0.31359713918 0.31356455392 
0.31352724739 0.31348734475 0.31344709647 0.3134078 0.31320222046 0.31317112843 0.31314371054 0.31312060343 0.31310279491 
0.31309110805 0.31308529465 0.31308658434 0.31309474253 0.31310910089 0.31312841686 0.31315159479 0.31317727327 0.31320322423 
0.31322730164 0.31324727111 0.31326075443 0.31326542629 0.31326029601 0.31324514087 0.31322008327 0.31318688029 0.31314716141 
0.3131027493 0.31305582784 0.31300847653 0.31296214688 0.31291774816 0.31287651884 0.31285365199 0.31282096876 0.31279386312 
0.31277295538 0.31275823803 0.3127504968 0.3127498316 0.3127548097 0.31276464588 0.31277799251 0.312793527 0.31280856826 
0.31282122603 0.31282943427 0.31283055714 0.31282217163 0.31280383283 0.31277516426 0.31273671273 0.3126900121 0.31263710402 
0.32036648252 0.32036963331 0.32036244404 0.32034487436 0.32031874111 0.32028494464 0.32024624287 0.32020467398 0.32016219685 
0.32012024779 0.31992395801 0.31988941597 0.31985791163 0.31983080284 0.31980926718 0.31979401744 0.31978585695 0.31978559749 
0.31979322632 0.31980789459 0.31982876597 0.31985454453 0.31988356832 0.31991332397 0.3199416991 0.31996592737 0.31998341766 
0.31999167309 0.31998892533 0.31997522667 0.31995055164 0.31991716188 0.31987605711 0.3198300661 0.31978134636 0.31973162374 
0.31968232981 0.31963506568 0.31959069675 0.31956016157 0.31952336197 0.31949234835 0.31946803363 0.31945094101 0.31944204352 
0.31944056462 0.31944592318 0.31945742445 0.31947339026 0.31949205612 0.31951087426 0.31952774844 0.31953972771 0.31954437425 
0.31953933218 0.31952273759 0.31949504906 0.3194563445 0.31940906686 0.31935410164 0.3291115778 0.32911790071 0.32911215261 
0.32909537483 0.3290692513 0.3290344325 0.3289939326 0.32895098279 0.32890652209 0.32886220768 0.32867493127 0.32863673273 
0.32860170651 0.32857063985 0.328544971 0.32852611167 0.32851578571 0.32851403399 0.32852059715 0.32853561791 0.32855802342 
0.3285866433 0.32861901284 0.32865319106 0.32868607735 0.32871462063 0.32873589384 0.32874758929 0.32874748826 0.32873463987 
0.32871053507 0.32867664414 0.32863405183 0.32858603388 0.32853554387 0.32848353262 0.32843180963 0.32838130902 0.32833328443 
0.32829522367 0.32825461889 0.32821962178 0.32819189917 0.32817282499 0.32816217287 0.32815996117 0.32816588773 0.32817894083 
0.32819769291 0.32821964076 0.32824280022 0.32826377094 0.32827970069 0.32828791373 0.32828546538 0.32827107468 0.32824367609 
0.32820507892 0.32815621643 0.32809946325 0.33982047471 0.33982962996 0.33982594821 0.3398100698 0.33978338344 0.33974788732 
0.33970684067 0.33966217277 0.3396161922 0.33957006974 0.33939264074 0.33935119186 0.33931244913 0.33927741639 0.33924799942 
0.3392256938 0.33921222591 0.33920879549 0.33921435774 0.33922977691 0.33925379634 0.339284894 0.33932070773 0.33935872845 