# vtk DataFile Version 5.1
vtk output
ASCII
DATASET STRUCTURED_POINTS
DIMENSIONS 20 20 40
SPACING 0.05 0.05 0.05
ORIGIN 3.225 -0.475 0.525
POINT_DATA 16000
FIELD FieldData 1
potential 1 16000 double
0.00049288068804 0.00048849346033 0.00048409948123 0.0004797001392 0.00047066684113 0.0004674724886 0.00046432374297 0.00046122030219 0.00045816090434 
0.00045514467513 0.00045217058523 0.00044923720546 0.00044634274032 0.0004434854301 0.00044066292966 0.00043787503323 0.00043511944225 0.00043239495517 
0.00042970056785 0.00042703539662 0.0004915741335 0.00048718547454 0.00048278873828 0.00047838495104 0.00046800729451 0.00046484288242 0.00046172318383 
0.00045864785803 0.00045561607217 0.00045262686666 0.00044967898618 0.00044677093122 0.00044390113215 0.00044106722022 0.00043826892828 0.00043550402856 
0.00043277093694 0.0004300686468 0.00042739621127 0.00042475288969 0.00049015085698 0.00048576115824 0.00048136144788 0.00047695257735 0.00046523417691 
0.00046210065118 0.00045901103903 0.00045596474128 0.00045296116555 0.00044999956973 0.00044707831158 0.00044419569266 0.00044135103407 0.00043854250594 
0.00043576838354 0.00043302716908 0.00043031753446 0.00042763832775 0.00042498874024 0.00042236836198 0.00048868027607 0.00048428880798 0.0004798853418 
0.00047547116216 0.00046241441859 0.00045931228662 0.00045625297747 0.00045323624116 0.00045026133508 0.00044732744041 0.00044443251151 0.00044157668692 
0.00043875779154 0.00043597424917 0.00043322454303 0.00043050752736 0.00042782179608 0.00042516629987 0.00042254030902 0.00041994338071 0.00048722853964 
0.00048283421124 0.00047842589125 0.00047400514427 0.00045961157637 0.00045654082646 0.00045351213062 0.00045052496551 0.00044757878372 0.00044467187716 
0.00044180457257 0.00043897490505 0.00043618158186 0.0004334231018 0.00043069812356 0.00042800541322 0.00042534380426 0.00042271222242 0.00042010999127 
0.0004175367696 0.00048585244901 0.00048145333437 0.00047703899861 0.00047260906027 0.00045688010519 0.00045384085223 0.0004508424069 0.00044788406227 
0.00044496615238 0.0004420874118 0.0004392468693 0.00043644322284 0.00043367526221 0.00043094164421 0.00042824130368 0.00042557271007 0.00042293500987 
0.00042032726127 0.00041774888641 0.00041519918479 0.00048459668936 0.00048019148641 0.00047576781311 0.0004713276157 0.00045426296778 0.00045125467771 
0.00044828578223 0.00044535687691 0.00044246687372 0.00043961535216 0.00043680104602 0.00043402303933 0.00043128003269 0.00042857110671 0.00042589484442 
0.00042325013532 0.00042063619073 0.00041805204369 0.00041549698482 0.00041297035531 0.00048349469056 0.00047908013135 0.00047464549073 0.00047019206794 
0.00045179091192 0.00044881310036 0.00044587403044 0.00044297348985 0.00044011086003 0.0004372858374 0.00043449739181 0.00043174441876 0.00042902593236 
0.00042634097319 0.00042368850996 0.00042106728815 0.00041847648224 0.00041591533957 0.00041338304726 0.00041087904685 0.00048256805616 0.00047814122234 
0.00047369275616 0.00046922323986 0.0004494856474 0.00044653760254 0.00044362711517 0.00044075410217 0.00043791836037 0.00043511914747 0.00043235574954 
0.00042962720759 0.00042693273577 0.00042427121476 0.0004216417832 0.00041904345289 0.00041647518093 0.00041393637091 0.0004114262088 0.00040894402888 
0.00048183045007 0.00047738881686 0.00047292380699 0.00046843583613 0.00044735944834 0.00044444009031 0.00044155742413 0.00043871122104 0.00043590135834 
0.00043312707971 0.00043038811087 0.00042768327848 0.00042501193861 0.00042237325545 0.00041976618355 0.00041719011213 0.00041464376633 0.00041212642582 
0.0004096375228 0.00040717632686 0.00048128942212 0.00047683026909 0.00047234544675 0.00046783592774 0.00044541812602 0.00044252638308 0.00043967033436 
0.00043684992912 0.00043406504865 0.00043131497486 0.00042859940226 0.00042591757582 0.00042326866425 0.00042065192159 0.00041806658215 0.00041551173789 
0.00041298661535 0.00041049015373 0.00040802176831 0.00040558080701 0.00047731200463 0.0004747612658 0.00047226411869 0.00046981959892 0.00044357995055 
0.00044074514443 0.0004379419572 0.00043517014204 0.00043242932414 0.00042971951993 0.00042704024973 0.00042439086621 0.0004217707146 0.00041917920728 
0.00041661566801 0.00041407941634 0.00041156963123 0.00040908559642 0.00040662682677 0.00040419245536 0.0004749367142 0.00047238130503 0.00046987748742 
0.00046742403578 0.00044215879299 0.00043934505209 0.00043656257702 0.00043381056943 0.00043108951675 0.00042839890078 0.00042573846068 0.00042310763092 
0.00042050595843 0.00041793277216 0.00041538757785 0.00041286946987 0.00041037763402 0.00040791170545 0.0004054704807 0.00040305368324 0.0004727190076 
0.00047015802146 0.00046764639194 0.0004651830068 0.0004409088725 0.00043811455988 0.00043535074609 0.00043261757908 0.0004299146278 0.00042724187028 
0.00042459897263 0.00042198552248 0.00041940119592 0.00041684530908 0.00041431719221 0.00041181623678 0.00040934172186 0.00040689255923 0.00040446812293 
0.00040206790551 0.00047063982611 0.00046807194862 0.00046555141321 0.00046307698536 0.00043980928527 0.00043703267816 0.00043428638725 0.00043157011531 
0.00042888403511 0.00042622778907 0.00042360126148 0.00042100405562 0.00041843599869 0.00041589627724 0.00041338434611 0.00041089963469 0.00040844127059 
0.00040600820306 0.00040359982862 0.00040121535503 0.00046866857018 0.00046609295016 0.00046356284996 0.00046107680154 0.00043882907453 0.00043606891673 
0.00043333876845 0.00043063827988 0.00042796774445 0.00042532677233 0.00042271555027 0.00042013371308 0.00041758083807 0.00041505637844 0.00041255980896 
0.00041009066525 0.00040764775062 0.00040523009598 0.00040283673021 0.00040046720676 0.00046676313097 0.00046417950749 0.00046163926135 0.00045914120968 
0.00043792604617 0.00043518123621 0.00043246621425 0.00042978062803 0.0004271247026 0.00042449830433 0.00042190146126 0.00041933400727 0.000416795645 
0.00041428586323 0.00041180435678 0.00040934986631 0.00040692153502 0.00040451849127 0.00040213989456 0.00039978461552 0.00046487003111 0.00046227768689 
0.00045972767956 0.00045721754164 0.00043704674758 0.00043431660261 0.00043161608863 0.00042894493857 0.00042630312493 0.00042369091987 0.00042110810341 
0.00041855475938 0.00041603054474 0.00041353511118 0.00041106790301 0.00040862753516 0.00040621349247 0.00040382474027 0.00040146011578 0.00039911876541 
0.00046292607252 0.00046032592427 0.00045776651458 0.00045524488248 0.00043612916965 0.00043341390494 0.00043072774853 0.00042807099068 0.00042544350788 
0.00042284541909 0.00042027674248 0.00041773757581 0.00041522762291 0.00041274629997 0.00041029280287 0.00040786667707 0.00040546664193 0.00040309187047 
0.00040074115881 0.00039841365414 0.00046086581591 0.00045825889673 0.00045569045109 0.00045315916194 0.00043510855429 0.00043240857391 0.00042973769827 
0.0004270958998 0.00042448326702 0.00042189989442 0.00041934592115 0.00041682151867 0.0004143260166 0.00041185877428 0.00040941954415 0.00040700743326 
0.00040462162902 0.00040226095296 0.00039992432068 0.00039761062861 0.00053626757185 0.00053161386483 0.00052696017658 0.0005223070129 0.00051324783402 
0.00050975634208 0.00050631307161 0.00050291729553 0.00049956820446 0.00049626488956 0.0004930063431 0.00048979092277 0.00048661744547 0.00048348444403 
0.00048038962357 0.00047733290233 0.00047431233176 0.00047132671228 0.00046837495477 0.00046545613478 0.00053493448245 0.00053028040777 0.00052562478548 
0.00052096818206 0.00051059038571 0.0005071293619 0.00050371571298 0.00050034898667 0.00049702821569 0.00049375254833 0.00049052081821 0.00048733177277 
0.00048418325161 0.00048107524038 0.00047800560047 0.00047497292054 0.00047197594586 0.00046901340484 0.00046608456975 0.0004631885339 0.00053351352667 
0.00052885868975 0.00052420073939 0.00051953994475 0.00050784821101 0.00050441838351 0.00050103513496 0.00049769795183 0.00049440615936 0.00049115857794 
0.00048795430126 0.00048479133277 0.00048166959465 0.0004785870851 0.00047554251899 0.00047253433369 0.00046956151293 0.00046662295911 0.00046371775181 
0.00046084506829 0.0005320539451 0.00052739774781 0.00052273640979 0.00051807093776 0.00050506853263 0.0005016703748 0.00049831802088 0.00049501081614 
0.00049174817328 0.00048852903516 0.00048535187285 0.00048221656539 0.00047912113288 0.00047606447721 0.00047304523578 0.00047006204123 0.00046711383152 
0.00046419958185 0.00046131850066 0.00045846975269 0.00053060486789 0.00052594609673 0.00052128039204 0.0005166090389 0.00050229857111 0.00049893233502 
0.00049561095321 0.00049233391712 0.00048909990508 0.00048590930256 0.00048276041503 0.00047965225367 0.00047658338809 0.00047355253456 0.00047055875098 
0.00046760061003 0.0004646771564 0.00046178740241 0.000458930637 0.00045610603343 0.00052921063116 0.00052454749497 0.00051987637606 0.00051519634464 
0.00049958076665 0.00049624636599 0.00049295589249 0.00048970824775 0.00048650413521 0.00048334178416 0.00048022045764 0.0004771391523 0.00047409672434 
0.00047109175408 0.0004681233036 0.0004651901922 0.00046229152066 0.00045942624667 0.00045659364893 0.00045379312484 0.00052790793782 0.00052323920429 
0.00051855932063 0.00051386976859 0.00049695023726 0.00049364689134 0.00049038697909 0.0004871696409 0.000483994358 0.00048086005873 0.00047776614234 
0.00047471143129 0.00047169495744 0.00046871562743 0.00046577241425 0.00046286405524 0.00045998986925 0.00045714882704 0.00045434029531 0.00045156349652 
0.00052672588968 0.0005220484701 0.00051735833617 0.00051265634196 0.00049443366478 0.00049116182269 0.00048793217543 0.00048474399248 0.00048159706752 
0.00047849047464 0.0004754233961 0.00047239491887 0.0004694040892 0.00046645002141 0.00046353149194 0.00046064758328 0.00045779758527 0.00045498044172 
0.00045219551529 0.0004494420568 0.00052568443792 0.00052099565934 0.00051629264954 0.00051157594571 0.00049205115375 0.00048880980392 0.0004856096349 
0.00048245022201 0.00047933096803 0.00047625141895 0.00047321073413 0.00047020803095 0.00046724232463 0.00046431290467 0.00046141878237 0.00045855879713 
0.00045573239183 0.00045293855924 0.00045017676198 0.00044744599894 0.00052479674729 0.00052009422638 0.00051537599594 0.0005106422409 0.00048981448255 
0.00048660280054 0.00048343147201 0.0004802999559 0.00047720780351 0.00047415469644 0.00047113968474 0.00046816206214 0.00046522108932 0.00046231568191 
0.00045944523787 0.0004566086944 0.00045380523769 0.00045103424266 0.00044829478241 0.00044558622421 0.00052407022053 0.00051935160213 0.00051461520129 
0.00050986113585 0.00048772968171 0.0004845466292 0.00048140328943 0.00047829896284 0.00047523318139 0.0004722055929 0.0004692156402 0.00046626237745 
0.00046334528213 0.00046046342382 0.00045761605117 0.00045480227735 0.00045202141494 0.00044927241678 0.00044655471188 0.00044386765308 0.00052044472419 
0.00051757660211 0.0005147654135 0.00051200933273 0.00048578355552 0.00048265842833 0.00047956867457 0.00047651372801 0.00047349302941 0.00047050660456 
0.00046755380834 0.00046463396634 0.00046174655704 0.00045889084262 0.00045606619422 0.00045327187094 0.00045050719425 0.00044777141844 0.00044506398284 
0.00044238465941 0.00051784602837 0.00051497530805 0.00051215897315 0.00050939565191 0.00048415104069 0.00048104875059 0.00047798117279 0.00047494801725 
0.00047194900441 0.00046898375689 0.00046605163478 0.00046315238238 0.0004602852204 0.00045744959402 0.0004546449865 0.00045187045845 0.00044912539439 
0.00044640916714 0.00044372122829 0.00044106062039 0.00051537224465 0.00051249781284 0.00050967557414 0.0005069041971 0.00048265728011 0.00047957645963 
0.00047652974122 0.00047351727712 0.00047053865879 0.00046759335539 0.00046468091756 0.00046180123503 0.0004589533664 0.00045613695078 0.00045335136145 
0.0004505957926 0.00044786951859 0.00044517218897 0.0004425025282 0.00043986023433 0.00051300513424 0.00051012622099 0.00050729743737 0.00050451751238 
0.0004812830587 0.00047822215106 0.00047519556683 0.00047220259506 0.00046924316843 0.0004663167335 0.00046342308544 0.00046056189186 0.00045773249298 
0.00045493448818 0.00045216710695 0.00044942967317 0.00044672178122 0.00044404196571 0.00044139017053 0.00043876532885 0.00051071862222 0.00050783471748 
0.00050499896954 0.00050221010491 0.00048000131532 0.0004769597922 0.00047395194231 0.00047097752718 0.00046803629524 0.00046512800848 0.00046225230137 
0.00045940879088 0.00045659709656 0.00045381674701 0.00045106682625 0.00044834712509 0.00044565627887 0.00044299389907 0.00044035924207 0.00043775108447 
0.00050847796107 0.0005055891855 0.00050274642131 0.00049994849987 0.00047877797431 0.00047575464938 0.00047276485837 0.00046980833261 0.0004668846373 
0.00046399372581 0.00046113526178 0.00045830895804 0.00045551435454 0.00045275096956 0.00045001825469 0.0004473153677 0.00044464152112 0.00044199579579 
0.00043937756523 0.00043678576607 0.000506242471 0.00050334827548 0.0005004989624 0.00049769221305 0.00047757090009 0.00047456557315 0.00047159344427 
0.00046865428567 0.00046574790421 0.00046287397863 0.00046003237337 0.00045722287952 0.00045444494441 0.00045169840433 0.00044898227728 0.00044629600326 
0.00044363852301 0.00044100922506 0.000438407189 0.00043583142625 0.00050396538544 0.0005010665536 0.00049821091061 0.00049539602725 0.00047633430933 
0.00047334669344 0.00047039221963 0.00046747046602 0.00046458123884 0.0004617243862 0.00045889969731 0.00045610704495 0.00045334604198 0.00045061608986 
0.00044791639896 0.00044524640118 0.00044260527833 0.00043999215011 0.0004374061246 0.00043484620434 0.00050159975334 0.00049869730993 0.00049583599768 
0.00049301448655 0.00047502149774 0.00047205204256 0.00046911544331 0.00046621154714 0.00046333996294 0.00046050053036 0.00045769313863 0.00045491767888 
0.00045217370909 0.00044946030574 0.00044677723418 0.0004441237695 0.00044149891519 0.00043890203113 0.00043633205951 0.00043378807104 0.00057978895759 
0.00057486810044 0.00056995386835 0.00056504666341 0.00055590902117 0.00055211980244 0.00054838152712 0.0005446934658 0.00054105490717 0.00053746490783 
0.00053392228229 0.00053042579032 0.00052697421135 0.00052356624039 0.0005201996976 0.00051687494075 0.0005135897829 0.000510343051 0.00050713381095 
0.00050396120981 0.00057838596634 0.00057346599695 0.00056855120191 0.00056364193814 0.0005532115027 0.00054945345533 0.00054574569307 0.00054208756535 
0.00053847828852 0.00053491679971 0.00053140208903 0.00052793291647 0.00052450731078 0.00052112551655 0.00051778531449 0.00051448556298 0.00051122507616 
0.00050800272281 0.00050481754169 0.00050166863387 0.00057691825083 0.00057199864218 0.00056708256204 0.00056217029165 0.00055045234976 0.00054672615275 
0.00054304947615 0.00053942187566 0.00053584228488 0.0005323097905 0.00052882334452 0.00052538120075 0.00052198343339 0.00051862818796 0.00051531396854 
0.00051203983341 0.00050880449592 0.00050560690266 0.00050244622065 0.00049932169128 0.00057542152047 0.00057050126726 0.00056558278504 0.00056066693734 
0.00054766581866 0.00054397195167 0.00054032680727 0.00053672987159 0.00053318029372 0.00052967708929 0.00052621864032 0.00052280513955 0.0005194346584 
0.00051610613704 0.00051281826982 0.00050956998205 0.0005063600821 0.00050318765452 0.00050005189251 0.00049695187643 0.00057393219254 0.0005690099686 
0.00056408828666 0.00055916741479 0.00054488697661 0.00054122557998 0.00053761221321 0.00053404609269 0.00053052598918 0.00052705212833 0.00052362301148 
0.00052023751876 0.00051689449543 0.00051359282259 0.00051033134304 0.00050710899728 0.00050392478209 0.00050077770322 0.00049766691732 0.00049459167485 
0.00057248462021 0.00056755918281 0.00056263258732 0.00055770405716 0.00054214847679 0.0005385195525 0.00053493778814 0.00053140196076 0.00052791242943 
0.00052446792108 0.00052106735194 0.0005177098031 0.00051439418704 0.00051111928364 0.00050788418974 0.00050468787471 0.00050152920002 0.00049840741978 
0.00049532162286 0.00049227117072 0.00057110827573 0.00056617797169 0.0005612436865 0.00055630675048 0.00053947850408 0.0005358812539 0.00053233091639 
0.00052882622469 0.00052536656183 0.00052195111051 0.00051857884824 0.00051524905517 0.00051196060568 0.0005087124308 0.00050550349832 0.00050233297036 
0.00049919975153 0.00049610310179 0.00049304212324 0.00049001622749 0.00056982768608 0.00056488923569 0.00055994614658 0.00055499804053 0.0005368991722 
0.0005333343901 0.00052981500286 0.00052634060081 0.00052291046819 0.00051952360556 0.00051617946502 0.00051287707341 0.00050961544356 0.00050639360163 
0.00050321063869 0.00050006555229 0.00049695745779 0.00049388560268 0.00049084922263 0.00048784744934 0.00056865989187 0.00056371170905 0.00055875670132 
0.00055379518479 0.00053442826912 0.0005308948018 0.00052740608094 0.00052396138835 0.00052056015439 0.00051720158747 0.00051388506195 0.00051060962481 
0.00050737448017 0.000504178574 0.00050102109577 0.00049790111359 0.00049481778239 0.00049177045289 0.00048875811898 0.00048578010173 0.00056761638054 
0.00056265650027 0.00055768764183 0.00055271048747 0.00053207618131 0.00052857343343 0.000525114655 0.00052169918391 0.00051832626749 0.00051499547549 
0.00051170608672 0.00050845710245 0.00050524778523 0.00050207744038 0.00049894499122 0.00049584961008 0.00049279061504 0.00048976721151 0.00048677850404 
0.0004838237229 0.00056670541823 0.00056173061883 0.00055674505976 0.00055174936388 0.00052984832345 0.00052637560659 0.00052294611995 0.00051955915425 
0.00051621402851 0.00051291033533 0.00050964738742 0.00050642438474 0.00050324045513 0.00050009499456 0.00049698712508 0.00049391593441 0.00049088061092 
0.00048788060157 0.00048491496573 0.00048198297421 0.00056338341016 0.00056020037279 0.0005570766922 0.00055401097996 0.00052779953469 0.00052438590147 
0.0005210110723 0.00051767469563 0.00051437603164 0.00051111447507 0.00050788981929 0.00050470131863 0.00050154811824 0.00049842988005 0.00049534570789 
0.00049229494871 0.0004892769006 0.00048629102893 0.0004833366797 0.00048041349189 0.00056057431352 0.00055739025811 0.00055426324508 0.00055119180898 
0.00052596814341 0.00052257900284 0.0005192283119 0.00051591532829 0.00051264000644 0.00050940161102 0.0005061995629 0.00050303332064 0.00049990229626 
0.0004968058969 0.00049374334582 0.00049071404164 0.00048771734072 0.00048475242219 0.00048181911833 0.0004789162065 0.0005578640228 0.00055467813808 
0.00055154727291 0.00054846983996 0.00052424984055 0.00052088412848 0.00051755637598 0.00051426628316 0.00051101322806 0.00050779676303 0.00050461651465 
0.00050147165652 0.00049836192701 0.00049528659566 0.00049224492107 0.00048923632078 0.00048626009802 0.00048331579553 0.00048040229067 0.0004775192601 
0.00055523679842 0.00055204876298 0.00054891364619 0.00054582991189 0.00052262803074 0.00051928460221 0.00051597909472 0.00051271072426 0.00050947913965 
0.00050628382361 0.00050312444224 0.00050000034923 0.0004969111069 0.00049385609483 0.00049083459557 0.00048784595928 0.00048488978588 0.00048196490697 
0.0004790709803 0.00047620705941 0.0005526711336 0.00054948072746 0.00054634116685 0.00054325102255 0.00052108016768 0.0005177583964 0.00051447410424 
0.0005112267616 0.00050801594282 0.00050484109611 0.00050170184544 0.00049859776451 0.00049552844997 0.00049249310753 0.0004894912507 0.00048652221598 
0.0004835850849 0.00048067943018 0.00047780427192 0.00047495894662 0.00055013937381 0.00054694685818 0.00054380292297 0.00054070638493 0.00051957852004 
0.00051627779648 0.00051301410859 0.00050978715426 0.00050659645577 0.00050344155296 0.0005003220815 0.00049723755467 0.00049418751622 0.0004911714352 
0.00048818879177 0.00048523858045 0.00048232051903 0.00047943335205 0.00047657657013 0.00047374949876 0.00054761045109 0.00054441572901 0.00054126768562 
0.00053816513806 0.00051809101213 0.00051481083411 0.00051156752963 0.00050836054191 0.00050518959821 0.00050205432412 0.00049895423435 0.00049588899157 
0.00049285801576 0.00048986103564 0.00048689706204 0.00048396567521 0.0004810659585 0.00047819711645 0.00047535849072 0.00047254933446 0.00054504963217 
0.00054185277574 0.00053870166802 0.0005355938181 0.0005165828775 0.00051332313078 0.00051010009218 0.00050691319256 0.00050376209608 0.00050064622253 
0.00049756552824 0.0004945193613 0.00049150757794 0.00048852958677 0.00048558420135 0.00048267118254 0.0004797897088 0.00047693913383 0.00047411849152 
0.00047132705215 0.00054242302417 0.00053922540234 0.00053607138543 0.00053295967228 0.00051502038257 0.000511781291 0.0005085787573 0.00050541210102 
0.00050228090441 0.00049918487029 0.00049612364777 0.00049309706626 0.00049010448471 0.00048714506513 0.0004842184692 0.00048132405126 0.00047846098053 
0.00047562849913 0.00047282588702 0.00047005221005 0.00062340104399 0.0006182129809 0.00061303838565 0.00060787719061 0.00059861137099 0.00059452390376 
0.0005904905659 0.00058651047008 0.00058258279421 0.00057870645985 0.00057488044518 0.0005711036116 0.00056737474431 0.00056369191712 0.00056005526695 
0.00055646289428 0.00055291359375 0.0005494062728 0.00054593989671 0.00054251360536 0.00062189806317 0.0006167125568 0.0006115389903 0.00060637750137 
0.00059584398436 0.00059178880348 0.000587787037 0.00058383792955 0.00057994053449 0.00057609390898 0.000572296948 0.00056854854372 0.00056484685724 
0.00056119204128 0.00055758218143 0.000554016135 0.00055049273567 0.00054701091853 0.00054356970879 0.00054016822608 0.00062034879413 0.00061516493424 
0.00060999160527 0.00060482862685 0.00059303378527 0.00058901137291 0.00058504171843 0.00058112394902 0.00057725728735 0.00057344070337 0.00056967315512 
0.00056595281177 0.00056228002959 0.00055865285822 0.00055507013152 0.00055153076086 0.00054803358426 0.00054457767053 0.00054116197045 0.00053778574533 
0.00061877927739 0.00061359608971 0.00060842163437 0.00060325634808 0.00059020562405 0.00058621631827 0.0005822790455 0.00057839302064 0.00057455728647 
0.00057077034057 0.00056703238152 0.0005633417076 0.00055969733041 0.00055609801207 0.00055254263956 0.00054903013182 0.00054555947859 0.00054212964603 
0.00053873970433 0.00053538900208 0.00061721691885 0.00061203289232 0.00060685634431 0.00060168695279 0.00058738574485 0.00058342968151 0.0005795249481 
0.00057567066965 0.00057186536843 0.00056810938229 0.00056440113064 0.00056073961627 0.00055712365891 0.00055355228702 0.00055002440119 0.00054653887289 
0.00054309481876 0.00053969123054 0.00053632723768 0.00053300214521 0.00061568800963 0.00061050166471 0.00060532154683 0.00060014621527 0.00058459898691 
0.00058067623911 0.00057680406773 0.00057298093542 0.00056920725775 0.00056548156527 0.0005618030256 0.00055817049182 0.00055458299339 0.0005510395553 
0.00054753909928 0.00054408055772 0.00054066310205 0.00053728574703 0.00053394771658 0.00053064819296 0.00061421571636 0.0006090258564 0.00060383915119 
0.0005986567249 0.00058186771357 0.00057797756543 0.00057413771318 0.0005703468249 0.00056660392944 0.00056290845697 0.00055925938043 0.00055565570849 
0.00055209653984 0.00054858086458 0.00054510769898 0.00054167603493 0.00053828505899 0.00053493383211 0.00053162151693 0.00052834742457 0.00061282031776 
0.00060762365303 0.0006024295862 0.00059723685815 0.00057920986167 0.00057535310653 0.00057154531669 0.00056778572986 0.00056407343898 0.00056040778511 
0.0005567879433 0.00055321288252 0.00054968186313 0.00054619367912 0.00054274751587 0.00053934250209 0.00053597774293 0.00053265240263 0.00052936560513 
0.00052611669149 0.00061151603533 0.0006063111202 0.00060110652297 0.00059590242247 0.00057664040152 0.000572816155 0.0005690399679 0.00056531123558 
0.00056162926588 0.00055799312857 0.00055440205796 0.00055085533183 0.00054735197706 0.00054389101906 0.00054047159138 0.00053709292364 0.00053375411237 
0.00053045427642 0.00052719264607 0.00052396855704 0.00061031266651 0.00060509748698 0.00059988065173 0.00059466259547 0.00057416818826 0.00057037583316 
0.00056663085019 0.00056293259319 0.00055928034809 0.00055567327948 0.00055211064403 0.0005485917954 0.00054511573303 0.00054168158407 0.00053828858536 
0.00053493583173 0.00053162253511 0.00052834788073 0.00052511110703 0.00052191140083 0.00060921748474 0.00060398893424 0.00059875742138 0.00059352257404 
0.00057179791195 0.00056803694065 0.00056432262202 0.00056065425182 0.00055703119816 0.0005534527418 0.00054991812748 0.00054642656505 0.00054297741213 
0.00053956969503 0.00053620261354 0.00053287534171 0.00052958716965 0.00052633730752 0.00052312492121 0.00051994916653 0.00060615275296 0.00060265649198 
0.00059922236929 0.00059584864335 0.00056965092301 0.0005659505321 0.00056229248908 0.00055867609104 0.00055510080889 0.00055156581944 0.00054807089811 
0.00054461514767 0.00054119794609 0.00053781857386 0.0005344763742 0.00053117063947 0.00052790079176 0.0005246662073 0.0005214662407 0.00051830048066 
0.00060314469378 0.00059964917762 0.00059621334717 0.0005928357167 0.00056763198451 0.00056395775888 0.00056032558249 0.00055673463135 0.00055318419134 
0.0005496741262 0.00054620354904 0.00054277190294 0.00053937848631 0.00053602263878 0.00053270372237 0.00052942102968 0.0005261739671 0.00052296197487 
0.00051978446745 0.00051664049938 0.00060021525644 0.00059671998936 0.00059328221401 0.00058990050804 0.00056570621409 0.00056205733876 0.00055844992864 
0.00055488359165 0.00055135763949 0.00054787146576 0.00054442444091 0.00054101613324 0.00053764579601 0.0005343127825 0.00053101647152 0.0005277561825 
0.0005245313144 0.00052134138519 0.00051818531067 0.00051506280757 0.00059735150441 0.00059385620246 0.00059041643739 0.00058703051683 0.00056385975388 
0.00056023512764 0.00055665203569 0.00055310956729 0.00054960711682 0.00054614417646 0.00054272015994 0.00053933443574 0.00053598646243 0.00053267568105 
0.00052940144107 0.00052616291695 0.00052295983292 0.000519791033 0.00051665606378 0.00051355426782 0.00059453605339 0.00059104065841 0.00058759879824 
0.00058420884553 0.00056207387659 0.0005584733172 0.00055491374523 0.00055139441034 0.0005479148652 0.00054447457732 0.00054107287053 0.00053770929428 
0.00053438318447 0.0005310940818 0.00052784123754 0.00052462427998 0.00052144205599 0.00051829416742 0.00051517984271 0.00051209835786 0.00059174728538 
0.00058825237063 0.0005848086055 0.00058141468961 0.00056032710713 0.0005567497953 0.0005532132362 0.00054971662544 0.00054625951085 0.00054284126435 
0.00053946148271 0.00053611958898 0.0005328150089 0.0005295471133 0.00052631559911 0.00052311923814 0.00051995795661 0.00051683041114 0.00051373617428 
0.00051067462188 0.00058896167419 0.0005854670956 0.00058202182306 0.00057862450488 0.00055859427524 0.00055503988667 0.00055152589036 0.00054805174197 
0.00054461677835 0.00054122046662 0.00053786227621 0.00053454180981 0.00053125838454 0.00052801174321 0.00052480077639 0.0005216252801 0.00051848405508 
0.00051537673374 0.00051230242001 0.0005092605512 0.00058615314627 0.00058265918405 0.00057921345114 0.00057581338823 0.00055684942594 0.00055331790116 
0.00054982652514 0.00054637463359 0.00054296162545 0.00053958716106 0.00053625047751 0.00053295132252 0.00052968913393 0.00052646326124 0.00052327307706 
0.00052011781217 0.00051699682502 0.00051390946373 0.00051085499927 0.00050783264968 0.00058329749957 0.0005798052714 0.00057635901147 0.00057295745318 
0.00055506758059 0.00055155900584 0.00054809033399 0.00054466085519 0.00054127004698 0.00053791734263 0.00053460233333 0.00053132466987 0.00052808368433 
0.00052487855494 0.00052170894629 0.00051857408634 0.00051547333572 0.00051240595963 0.00050937119866 0.00050636835182 0.00066706914609 0.00066161461776 
0.00065618019798 0.00065076587712 0.00064132370079 0.0006369382127 0.00063261002629 0.00062833821082 0.00062412182176 0.00061995979051 0.00061585108704 
0.00061179468389 0.00060778933029 0.00060383316513 0.00059992640575 0.00059606718812 0.00059225443139 0.00058848703997 0.00058476400072 0.00058108429324 
0.00066544509339 0.0006599948336 0.00065456340149 0.00064915039353 0.00063846571641 0.0006341136798 0.00062981826241 0.00062557862385 0.00062139373064 
0.00061726263125 0.00061318423431 0.00060915748871 0.00060518055273 0.00060125368891 0.00059737497062 0.00059354338809 0.00058975777712 0.00058601702706 
0.00058232033179 0.00057866661114 0.00066378928736 0.00065834238371 0.00065291282633 0.00064750019908 0.0006355798897 0.00063126165718 0.000626999393 
0.00062279222492 0.00061863916699 0.0006145392801 0.00061049142525 0.00060649399517 0.00060254707552 0.00059864904284 0.0005947986763 0.00059099493959 
0.00058723670691 0.00058352300078 0.00057985292235 0.00057622552601 0.00066212094377 0.00065667616977 0.00065124693951 0.00064583363879 0.00063268438132 
0.00062840025289 0.00062417140837 0.00061999697274 0.00061587596419 0.00061180678088 0.00060778965059 0.00060382298243 0.00059990564848 0.00059603662808 
0.00059221475772 0.00058843899512 0.00058470838066 0.00058102190003 0.00057737866198 0.00057377775343 0.00066046049877 0.00065501625716 0.00064958645823 
0.00064417053142 0.00062979877223 0.00062554888871 0.00062135353278 0.00061721192718 0.00061312241256 0.00060908534784 0.00060509906394 0.00060116256768 
0.00059727487732 0.0005934349422 0.0005896416238 0.00058589402729 0.00058219106891 0.00057853185337 0.00057491556682 0.00057134127614 0.00065882796743 
0.00065338305391 0.00064795099633 0.00064253071733 0.00062694212852 0.00062272656298 0.00061856418131 0.00061445533837 0.00061039857534 0.00060639287865 
0.00060243740043 0.00059853114958 0.00059467298646 0.00059086207871 0.00058709738962 0.0005833778838 0.00057970259502 0.00057607068744 0.00057248128579 
0.00056893348767 0.00065724204365 0.00065179478627 0.00064635775468 0.00064093192006 0.00062413188994 0.00061994993855 0.0006158215746 0.00061174542414 
0.00060772059342 0.00060374620125 0.00059982145632 0.00059594523371 0.00059211656624 0.00058833460639 0.00058459837057 0.0005809068616 0.00057725913207 
0.00057365440032 0.00057009177962 0.00056657042229 0.00065571854009 0.0006502659768 0.00064482306996 0.00063938860332 0.00062138229689 0.00061723473838 