# vtk DataFile Version 5.1
vtk output
ASCII
DATASET STRUCTURED_POINTS
DIMENSIONS 50 50 50
SPACING 0.002 0.002 0.002
ORIGIN 0.0482 -0.052672 0.02732
POINT_DATA 125000
FIELD FieldData 1
potential 1 125000 double
0.0030421790676 0.0030786700465 0.0031158555842 0.0031537300693 0.0031923011944 0.0032315685483 0.0032715344171 0.0033121908581 0.0033535680517 
0.0033956634618 0.003438531032 0.0034821198888 0.0035264875155 0.0035716605041 0.0036176742002 0.0036645554204 0.0037123363489 0.00376105409 
0.0038107356024 0.0038609081896 0.0039126040188 0.0039653672004 0.0040192062659 0.0040742822051 0.0041303960817 0.0041876889325 0.0042461845879 
0.0043059257548 0.0043669485227 0.0044292927368 0.0044929807767 0.0045580519094 0.0046245303583 0.0046924072693 0.0047617732325 0.0048325766366 
0.0049048519152 0.0049785915375 0.0050537298959 0.0051305213205 0.0052086714388 0.0052883299039 0.005369508913 0.0054522500492 0.0055365742109 
0.0056225913793 0.0057103369629 0.0057998659104 0.0058912569248 0.0059844863538 0.0030327977837 0.0030690576455 0.0031059973489 0.0031436250305 
0.0031819319698 0.0032209220409 0.003260599872 0.003300974267 0.003342038213 0.0033837925114 0.0034263265503 0.0034695676147 0.0035135816148 
0.0035583871605 0.003604024106 0.0036505237433 0.0036979092498 0.0037462226533 0.00379549307 0.003845749271 0.0038964998469 0.0039488093626 
0.0040021888 0.0040567846929 0.0041124050838 0.0041691787268 0.0042271444302 0.0042863283033 0.0043467762174 0.0044085226232 0.0044715962119 
0.0045360295293 0.0046018471418 0.0046690382071 0.0047376970277 0.0048077632946 0.0048792687143 0.0049521996517 0.0050265827387 0.0051024681181 
0.005179737783 0.0052584709536 0.005338705693 0.0054204646639 0.0055037775691 0.0055887489913 0.0056754007196 0.0057638135136 0.005854041809 
0.0059460784239 0.0030221664989 0.0030581777405 0.003094862543 0.0031322163614 0.0031702425119 0.0032089402987 0.0032483163057 0.0032883721739 
0.003329109392 0.003370543574 0.0034127252139 0.0034555886325 0.0034992297539 0.0035436627015 0.0035889055823 0.0036350012705 0.0036819841628 
0.0037298806747 0.0037787258778 0.0038285433531 0.0038788425302 0.0039306900639 0.003983586925 0.0040376863179 0.0040927846014 0.004149022954 
0.0042064302586 0.0042650449225 0.0043248941006 0.0043860123564 0.0044484423181 0.0045122096492 0.0045773355681 0.0046438052065 0.004711715812 
0.0047810083676 0.0048517087214 0.0049238028001 0.0049973230538 0.0050723636038 0.0051487061684 0.0052264385243 0.0053056853613 0.0053864299467 
0.0054686919062 0.0055525818059 0.0056381254513 0.0057253917261 0.0058144421237 0.0059052577678 0.0030100095847 0.0030457557708 0.0030821675426 
0.0031192323484 0.0031569591369 0.0031953450661 0.0032343919985 0.0032741075328 0.0033145017911 0.0033555759202 0.0033973551382 0.0034398920763 
0.0034831425371 0.0035271785596 0.0035719967299 0.0036176778454 0.0036642333542 0.0037116935902 0.0037600944279 0.0038094543114 0.0038598056181 
0.0039106428991 0.0039630348148 0.0040166178729 0.0040711728292 0.0041268517082 0.0041836759955 0.0042416816944 0.0043009048004 0.0043613690605 
0.0044231217883 0.0044861818759 0.004550576774 0.0046162869968 0.0046834056264 0.0047518810906 0.0048217293901 0.0048929535321 0.0049655657307 
0.0050396646236 0.0051150402669 0.0051918219185 0.0052699936564 0.0053496766566 0.0054308443 0.0055136179037 0.0055980152098 0.0056840985672 
0.0057719403149 0.0058615054263 0.002996113758 0.003031577074 0.0030676918651 0.003104449079 0.0031418548233 0.0031799110095 0.0032186105153 
0.0032579655649 0.0032979891833 0.0033386801474 0.0033800654361 0.0034221992854 0.0034650377222 0.003508652385 0.0035530641916 0.0035983063543 
0.0036443982708 0.003691396123 0.0037393277009 0.0037882108327 0.003838066625 0.0038883934823 0.0039402534105 0.0039932917655 0.0040472761222 
0.0041023646238 0.004158573592 0.0042159403841 0.0042744960326 0.004334270871 0.0043953067616 0.0044576223172 0.0045212424249 0.0045861537269 
0.0046524424676 0.0047200532763 0.0047890102337 0.004859308524 0.0049309496122 0.0050040787096 0.005078438384 0.0051541722631 0.0052313084768 
0.0053098946677 0.0053898869359 0.0054714957127 0.0055547039856 0.0056395702658 0.0057261494004 0.0058144307735 0.0029803424069 0.0030155036742 
0.0030513003647 0.0030877289236 0.0031247908126 0.0031624869267 0.0032008199519 0.0032397922256 0.0032794171636 0.0033197091552 0.0033606759872 
0.0034023825968 0.0034447838196 0.0034879490537 0.0035319055184 0.0035766873918 0.003622321936 0.003668840681 0.0037162810142 0.0037646338268 
0.0038139699254 0.0038637574603 0.0039150601232 0.0039673969862 0.0040209007979 0.0040753556456 0.004130917606 0.0041876122441 0.0042454587419 
0.0043045034615 0.0043647871345 0.0044263164858 0.0044891228964 0.004553187054 0.0046186018891 0.0046853075763 0.0047533182977 0.0048226548856 
0.0048932929516 0.0049653930865 0.0050386829539 0.0051133241011 0.0051893351533 0.0052667675095 0.0053456226882 0.0054259801636 0.0055079525603 
0.0055915474324 0.0056768269631 0.0057638510031 0.0029626504257 0.0029974833849 0.0030329392172 0.0030690143424 0.0031057108622 0.0031430276136 
0.0031809647358 0.0032195327792 0.0032587392307 0.003298601751 0.0033391275586 0.0033803805025 0.0034223200563 0.0034650172634 0.0035084925211 
0.0035527827246 0.0035979205903 0.0036439270883 0.0036908385084 0.0037386749232 0.0037874575634 0.0038371803848 0.0038873721681 0.0039390921382 
0.0039919667444 0.0040457612337 0.0041006347256 0.004156608593 0.0042137144319 0.0042719972186 0.0043314776748 0.0043921796942 0.0044541287966 
0.0045173077319 0.0045818009084 0.0046475592448 0.0047145951324 0.0047829124688 0.0048525116484 0.0049235176991 0.0049957100712 0.0050692108709 
0.0051440504609 0.0052202802266 0.0052979082652 0.0053770521251 0.0054577405836 0.0055399810889 0.0056239115658 0.0057095562385 0.0029430752807 
0.0029775579864 0.0030126522116 0.0030483492196 0.0030846560903 0.0031215706445 0.0031590939494 0.0031972315136 0.0032359963991 0.003275399488 
0.0033154647239 0.0033562414907 0.0033976964293 0.0034398933506 0.0034828638425 0.0035266394291 0.0035712511017 0.003616717173 0.0036630807773 
0.0037103489538 0.0037585471476 0.0038076888658 0.0038572512172 0.0039083275567 0.0039605182019 0.0040136161518 0.0040677616612 0.0041229914194 
0.0041793174497 0.0042367850745 0.0042954219877 0.0043552663125 0.0044163176365 0.0044785710967 0.0045421107058 0.0046068763982 0.004672891229 
0.0047401595071 0.0048086710714 0.0048784351941 0.0049496012935 0.0050219173451 0.0050955422801 0.0051705274772 0.0052468841513 0.0053247268443 
0.0054040798194 0.0054850016744 0.0055675452095 0.0056517255272 0.0029217443913 0.002955853998 0.0029905634898 0.0030258667454 0.0030617626044 
0.0030982513272 0.0031353370952 0.0031730228175 0.0032113251374 0.0032502506629 0.0032898293651 0.0033301085218 0.0033710548126 0.0034127318312 
0.0034551733528 0.0034984065804 0.0035424627113 0.0035873673477 0.0036331541104 0.003679831946 0.003727413935 0.0037759238041 0.0038253633933 
0.0038752339185 0.0039267461127 0.0039791149132 0.0040325011212 0.0040869146263 0.0041424318837 0.0041990575877 0.0042568211576 0.0043157537316 
0.004375872222 0.0044371632731 0.0044997228179 0.0045634613899 0.0046284221581 0.0046946018176 0.0047619935808 0.0048306031681 0.0049005809997 
0.0049716793559 0.005044054233 0.0051177575009 0.0051927998399 0.005269301488 0.0053472882467 0.0054268092833 0.0055079214191 0.0055906727454 
0.002898877643 0.002932584892 0.0029668876996 0.0030017718459 0.0030372348188 0.00307328186 0.0031099076212 0.0031471257117 0.0031849451772 
0.0032233781451 0.0032624527961 0.0033022148865 0.0033426334297 0.0033837719428 0.0034256618736 0.0034683338599 0.0035118143253 0.0035561363018 
0.0036013124459 0.0036473662905 0.0036943127273 0.0037421632155 0.0037909201342 0.0038400858693 0.0038908611851 0.0039424769191 0.0039950814247 
0.0040486957627 0.0041033693205 0.0041591200842 0.0042159630105 0.0042739608754 0.0043331150538 0.0043934120031 0.0044549367036 0.0045176213332 
0.0045815089015 0.0046465710894 0.0047128112053 0.0047802410842 0.0048489905379 0.0049188497668 0.0049899516823 0.0050623505116 0.0051360495754 
0.0052111817373 0.0052877635504 0.0053658480254 0.0054454985687 0.0055267404108 0.0028747140363 0.0029080210489 0.0029418935473 0.0029763404865 
0.0030113548276 0.0030469391636 0.0030830914392 0.003119822233 0.0031571450803 0.0031950692835 0.0032336196831 0.003272856156 0.0033127308461 
0.0033533160471 0.0033946399984 0.0034367310344 0.0034796192074 0.0035233285781 0.0035678801123 0.003613294334 0.0036595767397 0.0037067421365 
0.0037548054704 0.0038037629384 0.0038532511851 0.0039040849433 0.0039558772138 0.0040086505159 0.0040624593934 0.0041173155804 0.0041732488558 
0.0042302895125 0.004288455949 0.0043477200132 0.0044081800561 0.0044698072934 0.0045325714523 0.0045964933881 0.0046615756608 0.0047278012234 
0.0047953174718 0.0048639109053 0.0049337110796 0.0050047789848 0.0050771171141 0.0051508575802 0.0052260111526 0.0053026428425 0.0053807995597 
0.0054605140287 0.0028495723368 0.0028824478704 0.0029158863149 0.0029498798471 0.0029844337519 0.0030195412822 0.0030552083505 0.0030914419284 
0.0031282541155 0.003165661729 0.0032036820284 0.0032423781736 0.0032816998491 0.0033217159121 0.0033624592084 0.0034039588954 0.003446238915 
0.0034893244694 0.0035332318834 0.0035779851389 0.0036235894053 0.003670056504 0.0037173941717 0.0037656022667 0.0038141763964 0.0038643458972 
0.0039153151225 0.0039672352223 0.0040201536447 0.0040740948544 0.0041290845561 0.0041851507535 0.0042423147388 0.004300565324 0.0043599616052 
0.004420496974 0.0044821187833 0.0045448875927 0.004608780748 0.0046737892921 0.0047400591979 0.0048073678991 0.0048758802255 0.0049456078478 
0.0050165757496 0.0050889114559 0.0051626291054 0.0052377867859 0.0053144350303 0.0053926086925 0.0028237668969 0.0028562034201 0.0028891922381 
0.0029227241055 0.0029567997541 0.0029914205868 0.0030265969065 0.0030623269171 0.0030986237032 0.003135504822 0.0031729907697 0.0032111004611 
0.0032499021882 0.0032893475352 0.0033295032936 0.0033704031547 0.0034120655363 0.0034545152262 0.0034977695578 0.0035418519788 0.00358676047 
0.0036325133889 0.003679114637 0.0037265561319 0.0037748908465 0.0038237094004 0.0038738319473 0.0039248904213 0.0039769111014 0.0040299263064 
0.0040839624603 0.0041390451405 0.0041951983684 0.0042524047305 0.0043107286518 0.0043701647023 0.00443067399 0.0044922801928 0.0045549842846 
0.004618757848 0.0046837771076 0.0047498025358 0.0048170021831 0.0048853929911 0.0049550383046 0.0050259359718 0.0050982193759 0.0051719012745 
0.0052470289973 0.0053236477217 0.0027976081032 0.0028295985673 0.0028621280347 0.0028951889422 0.0029287857948 0.0029629185368 0.0029975890195 
0.0030328054877 0.0030685845859 0.0031049444144 0.0031418914163 0.0031794556881 0.0032176967541 0.003256570087 0.0032961421733 0.0033364334621 
0.0033774743605 0.0034192849357 0.0034618820896 0.003505278254 0.0035494902948 0.0035945176744 0.003640373047 0.0036870485749 0.0037345871844 
0.0037825902708 0.0038318655962 0.0038820600352 0.003933182881 0.0039852725315 0.0040383550774 0.0040924539868 0.0041475966251 0.0042037520627 
0.0042610042598 0.0043193340132 0.0043787118878 0.0044391551329 0.0045006656978 0.0045632480423 0.0046269047505 0.0046917806167 0.0047576622655 
0.0048247218058 0.0048929996061 0.0049625042888 0.0050333581536 0.0051055874089 0.0051792052617 0.0052542723059 0.0027713838774 0.0028029239394 
0.0028349898756 0.0028675778535 0.0029006905287 0.0029343324703 0.0029685008076 0.0030032095068 0.0030384725866 0.0030743006153 0.0031107105608 
0.0031477276792 0.0031854128315 0.0032237225864 0.0032627072244 0.0033023969954 0.0033428181669 0.0033839852865 0.0034259238816 0.003468633094 
0.0035121423357 0.0035564460972 0.0036015494854 0.0036474614214 0.0036942036851 0.0037419373843 0.0037898260083 0.0038391555169 0.0038893873517 
0.0039405565178 0.0039926886538 0.004045808803 0.0040999412538 0.0041550580807 0.004211242588 0.0042684723045 0.0043267262428 0.0043860162072 
0.0044463486864 0.0045077261015 0.0045701523437 0.0046337668559 0.0046983737904 0.0047641406182 0.0048310788539 0.0048992054198 0.0049686301649 
0.0050393957912 0.0051115189162 0.0051850501534 0.0027453447771 0.0027764319892 0.0028080372657 0.0028401529813 0.0028727847256 0.002905934639 
0.0029396054523 0.0029738080299 0.003008558552 0.0030438650325 0.0030797470785 0.0031162240033 0.0031533525992 0.0031910904772 0.0032295003464 
0.0032685963059 0.0033084012525 0.0033489322857 0.0033902069224 0.003432239443 0.0034750450169 0.0035186245457 0.0035629854291 0.0036081307319 
0.0036540826258 0.0037010121836 0.0037480689006 0.0037965361335 0.0038458923661 0.0038961522202 0.0039473479147 0.0039995079691 0.0040526414498 
0.0041067278646 0.0041618511412 0.0042179934972 0.0042751392506 0.0043332870007 0.004392454472 0.0044526443144 0.00451386026 0.0045762406715 
0.0046395898849 0.0047040472469 0.004769686195 0.0048364679931 0.0049045193633 0.0049738609965 0.0050445134493 0.0051165262877 0.0027196940072 
0.002750338399 0.0027814832434 0.0028131326764 0.0028452891496 0.0028779532381 0.0029111303229 0.0029448351684 0.0029790786939 0.0030138677733 
0.0030492256548 0.0030851750222 0.003121759753 0.0031589419302 0.0031967751222 0.0032352779755 0.0032744690028 0.003314370551 0.003355001227 
0.0033963616133 0.0034384653384 0.0034813337548 0.0035249609434 0.0035693454242 0.0036145198762 0.0036604945658 0.0037074480307 0.0037545167963 
0.0038030055043 0.0038523736625 0.0039026485736 0.0039538562953 0.0040060119046 0.0040591243455 0.0041131757392 0.0041682478442 0.0042242964359 
0.0042813274158 0.0043393521556 0.004398371275 0.0044584015294 0.0045195719068 0.0045816871176 0.004644886526 0.0047092374034 0.0047746966807 
0.0048413954905 0.0049093371503 0.0049785510746 0.0050490760723 0.0026946044609 0.0027248047827 0.0027555012374 0.0027866904989 0.0028183775522 
0.0028505666005 0.0028832591297 0.0029164733395 0.0029502203425 0.0029845068539 0.0030193471503 0.0030547672238 0.0030908236489 0.0031274534977 
0.0031647196512 0.0032026450032 0.0032412353431 0.0032805194956 0.003320503578 0.003361202028 0.0034026240266 0.0034447831267 0.0034876893116 
0.003531343106 0.0035757501391 0.003620938731 0.0036670895494 0.0037133379077 0.0037609676614 0.0038094682153 0.0038588418329 0.0039091183436 
0.0039603141679 0.0040124403891 0.0040654825676 0.0041195110444 0.0041744839453 0.004230417029 0.0042873271591 0.0043452071171 0.0044040798349 
0.0044640658568 0.0045249767585 0.0045869473816 0.0046500138671 0.0047142044217 0.004779580242 0.0048461552319 0.004913965199 0.0049830411905 
0.0026701909842 0.0026999590673 0.0027302139199 0.0027609530619 0.0027921817683 0.0028239037397 0.002856123994 0.0028888587743 0.002922119542 
0.0029559108666 0.0029902488699 0.0030251567329 0.0030606459061 0.0030967673533 0.0031334886683 0.0031708403933 0.0032088429809 0.0032475171955 
0.0032868741926 0.003326921569 0.0033676734077 0.0034091475496 0.0034513427849 0.0034942690619 0.0035379309025 0.0035823546885 0.0036277228401 
0.003673726511 0.0037199791308 0.0037676253958 0.0038161160927 0.0038654857925 0.0039157458633 0.0039669087463 0.0040189636507 0.0040719777712 
0.0041259065689 0.004180771278 0.0042365920079 0.0042933602802 0.0043511029167 0.004409819868 0.0044696740362 0.0045304523155 0.0045922927028 
0.0046552073986 0.004719311753 0.0047845555563 0.0048509950273 0.0049186589807 0.0026465332888 0.0026758863977 0.002705705396 0.002736007944 
0.0027667903675 0.0027980572678 0.002829819061 0.0028620854124 0.0028948704927 0.0029281788786 0.0029620275066 0.0029964304413 0.0030314055665 
0.0030669988942 0.0031031659948 0.0031399665789 0.0031773964353 0.0032154731282 0.0032542137678 0.0032936251048 0.0033337309071 0.003374526689 
0.0034160330431 0.0034582505387 0.0035011884572 0.0035448664696 0.0035894707427 0.0036346898075 0.0036801421988 0.0037269557305 0.0037746059703 
0.0038230881563 0.0038724393025 0.0039226696939 0.0039737576663 0.0040257882714 0.0040787051149 0.004132539746 0.0041872959382 0.0042429840267 
0.0042996263105 0.0043572317268 0.0044159450277 0.0044755600298 0.004536210643 0.0045979003595 0.0046607497878 0.0047247014383 0.0047898119399 
0.0048561012012 0.0026236787976 0.0026526289673 0.0026820390153 0.0027119088296 0.0027422592703 0.0027730862391 0.0028043992952 0.0028362119594 
0.0028685342224 0.0029013726039 0.002934743926 0.0029686525211 0.003003125006 0.0030382030602 0.0030738389578 0.0031100824622 0.0031469441352 
0.0031844556233 0.0032225940979 0.0032613901672 0.0033008580907 0.0033410016716 0.0033818359858 0.0034233633785 0.0034655952688 0.0035085545301 
0.0035522532563 0.0035968737642 0.0036421041797 0.0036875543748 0.0037343689683 0.0037820104514 0.0038304769529 0.0038798018765 0.0039299563551 
0.0039810297106 0.0040329706204 0.0040858020355 0.0041395345872 0.0041941817869 0.0042497541581 0.0043062820667 0.0043638858921 0.0044223681315 
0.0044818686995 0.0045424049561 0.0046039761393 0.0046666935742 0.0047305116149 0.0047954675639 0.0026016759199 0.00263022005 0.0026592270255 
0.0026886950213 0.0027186243592 0.0027490246425 0.0027799035595 0.0028112762061 0.0028431493027 0.0028755279708 0.0029084293497 0.0029418645325 
0.0029758434448 0.0030104156647 0.0030455369547 0.0030812459895 0.0031175541984 0.0031544866902 0.0031920566148 0.0032302519376 0.0032690993691 
0.0033086061122 0.0033487809136 0.0033896458378 0.0034311964372 0.0034734502241 0.0035164269251 0.003560312566 0.0036047825325 0.0036494572892 
0.0036954736384 0.0037422890433 0.0037899093416 0.0038383487673 0.0038876062153 0.0039377414312 0.0039887468845 0.0040406110608 0.0040933526002 
0.0041469946133 0.0042015456737 0.0042570155564 0.0043135471538 0.0043709344023 0.0044293131609 0.0044887009872 0.0045490853744 0.0046105863596 
0.0046731480422 0.00473680917 0.0025805257416 0.0026086866437 0.0026373030765 0.002666367197 0.0026958908102 0.0027258854572 0.0027563442219 
0.002787286373 0.0028187205694 0.0028506564257 0.0028831001694 0.0029160677623 0.0029495669897 0.0029836531814 0.0030182666278 0.0030534537334 
0.0030892295817 0.0031256064714 0.0031625979796 0.0032002061898 0.003238470493 0.0032773606877 0.0033169010011 0.0033571124935 0.003397996958 
0.003439571531 0.0034818511536 0.0035250232883 0.0035687595776 0.003613241809 0.003657919911 0.0037039316151 0.0037507363616 0.0037983422799 
0.0038467249455 0.003895967011 0.0039460641075 0.0039969946546 0.0040487826276 0.0041014541826 0.0041550052909 0.0042094619434 0.0042649563335 
0.0043212765853 0.0043785659918 0.0044368411316 0.0044960806792 0.0045563726333 0.0046177399159 0.0046801479684 0.0025602225828 0.0025880140945 
0.002616254443 0.0026449313988 0.0026740674441 0.0027036525839 0.0027337040533 0.0027642381392 0.0027952454842 0.0028267562038 0.0028587580816 
0.0028912708551 0.0029243084185 0.0029578794994 0.002992030363 0.0030267149067 0.0030619695833 0.0030978098728 0.0031342449176 0.003171291797 
0.0032089541031 0.0032472438943 0.0032861936712 0.0033257700125 0.0033660113527 0.0034069225523 0.0034485314412 0.0034910046261 0.0035340291381 
0.00357778253 0.0036217119941 0.0036669509432 0.0037129578832 0.0037597576418 0.0038073105422 0.003855691899 0.0039049080143 0.0039549424089 
0.0040058104189 0.0040575392828 0.0041101315392 0.0041636084281 0.004217979358 0.0042733905876 0.0043296218691 0.0043868176446 0.0044449453792 
0.0045040959024 0.0045642616882 0.0046254767855 0.0025407721608 0.0025682082993 0.0025960830008 0.002624391361 0.0026531443734 0.0026823482153 
0.0027120031252 0.0027421264907 0.00277272567 0.0028038145831 0.0028353853647 0.0028674585593 0.0029000419578 0.0029331512947 0.0029668201605 
0.0030010106057 0.0030357594431 0.0030710797751 0.0031069794921 0.003143473286 0.0031805710117 0.0032182809225 0.0032566153065 0.0032956001839 
0.0033352172018 0.0033754876247 0.0034164403824 0.0034580721962 0.0035005797349 0.0035436236898 0.0035873946601 0.0036313274855 0.003676570324 
0.0037225848838 0.0037693644056 0.0038168893404 0.0038652649676 0.0039144248541 0.0039644169058 0.0040152326449 0.004066900725 0.0041194280849 
0.0041728321594 0.0042272513694 0.004282468092 0.0043386160108 0.0043956657986 0.0044537137933 0.0045127385062 0.0045727838361 0.0025221607364 
0.0025492542441 0.0025767777282 0.0026047284057 0.0026331120321 0.0026619435516 0.0026912221453 0.0027209515573 0.0027511497689 0.0027818246329 
0.0028129766201 0.002844628387 0.0028767726372 0.0029094286048 0.0029426322715 0.0029763440602 0.0030106010402 0.0030454123113 0.0030807921395 
0.0031167510274 0.0031533010825 0.0031904498597 0.0032282077508 0.0032665830741 0.0033055884484 0.0033452712858 0.0033855804999 0.0034265623889 
0.0034684051533 0.0035107685457 0.0035538339212 0.0035970542143 0.003641559531 0.0036868093682 0.0037328245125 0.0037795580801 0.0038271155515 
0.0038754493011 0.0039245845854 0.0039745294959 0.0040253006446 0.0040769179059 0.0041293846046 0.0041828431394 0.0042370722101 0.0042922049001 
0.0043482184548 0.0044051954292 0.0044631230809 0.0045220115604 0.0025043770484 0.0025311385121 0.002558319748 0.0025859292674 0.0026139593226 
0.0026424250969 0.0026713394173 0.0027006933505 0.0027305074818 0.0027607820964 0.0027915262182 0.002822754021 0.0028544714799 0.0028866953568 
0.0029194479562 0.0029526934759 0.0029864724973 0.003020795542 0.0030556716555 0.0030911105171 0.0031271226187 0.0031637274551 0.0032009262171 
0.0032387303799 0.0032771540654 0.0033162121707 0.0033559036775 0.0033962864878 0.00343748147 0.0034791830118 0.0035215748735 0.0035646667084 
0.0036078997253 0.0036524178748 0.0036976766791 0.0037436521193 0.0037904293972 0.0038379656038 0.0038862833349 0.0039353919259 0.0039853052304 
0.0040360342511 0.0040876038946 0.0041401321908 0.0041934116619 0.0042475690776 0.0043026104732 0.0043585215833 0.0044153847621 0.0044731835759 
0.0024874142687 0.0025138560652 0.0025407099581 0.0025679849332 0.0025956731253 0.0026237913408 0.0026523427843 0.0026813354536 0.0027107742895 
0.0027406667258 0.0027710197297 0.0028018418995 0.0028331443661 0.0028649350223 0.0028972504538 0.0029300525035 0.0029633632479 0.002997208681 
0.0030315959334 0.0030665317096 0.0031020285475 0.0031381017077 0.003174758874 0.0032120049435 0.0032498666121 0.003288337978 0.003327438297 
0.0033671854931 0.0034076057589 0.0034488568784 0.0034905933874 0.0035330169988 0.0035755682569 0.0036193921581 0.0036639282414 0.0037091717927 
0.003755195416 0.0038019613967 0.003849488284 0.0038977993775 0.0039468871675 0.0039967728811 0.004047464392 0.0040989860952 0.0041514614876 
0.0042046775229 0.0042587495978 0.0043136603632 0.0043694992964 0.0044262360569 0.0024712655749 0.0024974013334 0.0025239387176 0.0025508909946 
0.002578250634 0.0026060299203 0.0026342375187 0.0026628747499 0.0026919519406 0.002721473855 0.0027514467874 0.0027818761266 0.0028127763479 
0.002844151186 0.0028760134421 0.0029083999296 0.0029412657492 0.0029746501818 0.0030085610029 0.0030430084386 0.0030780058587 0.0031135660402 
0.003149697437 0.0031864059263 0.003223714243 0.0032616277778 0.0033001573508 0.003339312368 0.0033791085534 0.0034197359249 0.0034608760598 
0.0035026542798 0.0035451117292 0.0035877016934 0.0036315521322 0.0036760843627 0.003721376897 0.0037674146011 0.0038141895695 0.003861725466 
0.0039100230155 0.0039590942071 0.0040089579587 0.0040596122821 0.0041112021244 0.0041635101734 0.0042166491228 0.0042705965116 0.0043254385936 
0.0043811509421 0.0024559249008 0.0024817621051 0.0025079971934 0.0025346382913 0.0025616819477 0.0025891376501 0.0026170122725 0.0026453046157 
0.0026740280218 0.0027031905754 0.0027327984934 0.0027628482903 0.0027933554204 0.0028243301057 0.0028557791539 0.0028877405096 0.0029201709281 
0.0029531018948 0.0029865506005 0.0030205301782 0.0030550415437 0.0030901036045 0.0031257248717 0.0031619138387 0.0031986906123 0.0032360591711 
0.0032740325621 0.0033126181291 0.0033518367881 0.0033918711736 0.0034323729203 0.0034735326056 0.0035153899721 0.0035579007838 0.0036005265183 
0.0036443830337 0.0036889783435 0.0037343141758 0.0037803641817 0.0038271558134 0.003874694012 0.0039229881529 0.0039720520294 0.0040218939519 
0.0040726271461 0.0041240535551 0.0041762886736 0.0042293078573 0.0042831899084 0.0043379178292 0.0024413874519 0.0024669399758 0.0024928820584 
0.0025192226842 0.0025459622189 0.0025731052259 0.0026006575354 0.0026286247111 0.0026570079489 0.0026858198493 0.002715069342 0.0027447533332 
0.0027748819377 0.0028054648714 0.002836514343 0.0028680630288 0.0029000681131 0.0029325652988 0.0029655640556 0.0029990792716 0.0030331208895 
0.0030677066264 0.0031028350607 0.0031385216335 0.0031747806199 0.0032116229683 0.0032490615054 0.0032870940535 0.0033257539139 0.0033652212948 
0.0034051392676 0.0034457071916 0.0034869237912 0.0035288132227 0.0035708477296 0.0036140850155 0.0036579885857 0.0037026435154 0.0037480016023 
0.0037940834026 0.003840890036 0.0038884362503 0.0039367350947 0.0039857855182 0.0040357132984 0.0040862999172 0.0041376629919 0.0041897755876 
0.0042427332853 0.0042965055524 0.0024276537919 0.0024529277004 0.0024785882729 0.0025046393297 0.0025310869315 0.00255793056 0.0025851709981 
0.0026128202653 0.0026408776883 0.0026693539611 0.0026982532205 0.0027275797581 0.0027573483344 0.0027875546687 0.0028182145107 0.0028493612334 
0.0028809510318 0.0029130253716 0.0029455927455 0.0029786600719 0.0030122470662 0.003046362357 0.0030810098148 0.0031162147921 0.0031519749221 
0.0031883118217 0.0032252300873 0.0032627432143 0.0033008549028 0.0033395867516 0.0033791324535 0.0034191289403 0.0034597663331 0.0035010611439 
0.0035430237581 0.003585114914 0.0036283887903 0.0036723916782 0.0037170829948 0.0037624879845 0.0038086001599 0.0038554320144 0.0039029930031 
0.0039512903216 0.0040003196634 0.0040502080989 0.0041007349969 0.0041520241972 0.0042040553439 0.0042569007562 0.0024147135556 0.0024397212886 
0.0024651115247 0.0024908851058 0.0025170514723 0.0025436039683 0.0025705485926 0.002597890916 0.0026256339229 0.0026537837832 0.0026823475846 
0.0027113304942 0.0027407399371 0.0027705832701 0.0028008640393 0.0028315943441 0.0028628086861 0.0028944733795 0.0029266199847 0.0029592586407 
0.0029923997293 0.0030260605059 0.0030602494844 0.0030949776131 0.0031302559481 0.0031661067879 0.0032025281129 0.0032395336813 0.0032771285064 
0.0033153306451 0.0033543396786 0.0033937868046 0.003433866394 0.0034745990713 0.0035159783487 0.0035574517253 0.0036001211798 0.0036435417918 
0.0036875993206 0.0037323509865 0.0037778024637 0.0038239507074 0.0038708075557 0.0039183726925 0.0039666536004 0.0040157627778 0.0040654915122 
0.0041159470621 0.0041671271294 0.0042190920647 0.0024023437813 0.0024273078499 0.0024524367815 0.002477946123 0.0025038383081 0.0025301160132 
0.002556773861 0.0025838220444 0.0026112613186 0.0026390961883 0.0026673339481 0.0026959862226 0.0027250498624 0.0027545320326 0.0027844497856 
0.0028148025775 0.002845631354 0.0028768963832 0.0029086300783 0.0029408498432 0.0029735642825 0.0030067860066 0.0030405277612 0.0030748018329 
0.0031096183436 0.0031449928617 0.0031809298451 0.0032174456788 0.0032545401458 0.0032922405154 0.0033307341087 0.0033696559705 0.0034092082997 
0.0034493964293 0.0034902220987 0.0035316970433 0.00357323139 0.0036160255286 0.0036594801437 0.0037036558315 0.0037484692721 0.0037939648293 
0.0038401455112 0.0038870137013 0.0039345723101 0.0039829378487 0.0040318940785 0.0040815533449 0.0041319012669 0.0041830157091 0.0023909458545 
0.0024154505845 0.0024405473245 0.0024657998976 0.0024914324453 0.0025174414079 0.0025438247934 0.0025705894407 0.0025977368509 0.0026252686116 
0.0026531937039 0.0026815206312 0.0027102511446 0.002739389776 0.0027689437571 0.0027989328344 0.0028293841127 0.0028602609522 0.0028915984833 
0.0029234133556 0.0029557126762 0.0029885132999 0.0030218215492 0.0030556566371 0.0030900250971 0.0031249430024 0.003160417175 0.003196459599 
0.0032330777918 0.0032702850991 0.0033080974671 0.0033467089163 0.0033857518793 0.0034254150219 0.0034657152443 0.0035066540408 0.0035482084004 
0.0035898721084 0.0036327638028 0.0036763079122 0.0037205080671 0.0037654271425 0.0038109588771 0.0038571624444 0.0039040309511 0.003951675939 
0.0039998903813 0.004048783624 0.0040983358181 0.0041486244366 0.002380272161 0.0024045436744 0.0024291802199 0.0024544107741 0.0024797915915 
0.0025055439604 0.0025316660199 0.0025581556758 0.002585020826 0.0026122598681 0.0026398859394 0.002667898637 0.0026963009832 0.0027251027793 
0.002754312192 0.0027839412039 0.0028140257744 0.0028445288439 0.0028754813909 0.0029069023696 0.0029388030506 0.0029711924508 0.0030040842159 
0.0030374962893 0.0030714330301 0.0031059092306 0.0031409360867 0.0031765223249 0.0032126812716 0.003249418892 0.0032867532972 0.0033248893012 
0.0033634422499 0.0034026099296 0.0034424058401 0.0034828351925 0.00352389902 0.0035649997743 0.0036073447788 0.0036503204707 0.0036939422905 
0.0037382147374 0.0037831344742 0.0038287387971 0.0038749478912 0.0039217977951 0.003969401166 0.0040175534855 0.0040663406992 0.0041158365607 
0.0023702690538 0.0023943180702 0.002418724296 0.0024434949044 0.0024688595704 0.0024943650392 0.002520234346 0.002546462258 0.0025730551442 
0.0026000120023 0.0026273429826 0.0026550482237 0.0026831395202 0.0027116149362 0.0027404880548 0.0027697705245 0.002799473123 0.0028296342453 
0.0028602156828 0.0028912559631 0.0029227662717 0.0029547615056 0.0029872514002 0.0030202531953 0.0030537742634 0.0030878237521 0.0031224197442 
0.0031575675581 0.0031932812093 0.0032295726616 0.0032664485937 0.0033041249781 0.0033422048937 0.0033808951688 0.0034202103085 0.003460147916 
0.0035007115543 0.0035418715343 0.0035831312525 0.0036255688313 0.0036686326805 0.0037123307726 0.0037566519076 0.0038015970319 0.0038471636109 
0.003893397654 0.0039403085807 0.0039877464013 0.0040358269242 0.0040845294483 0.0023608598806 0.002384692017 0.00240887987 0.0024334241984 