# vtk DataFile Version 5.1
vtk output
ASCII
DATASET STRUCTURED_POINTS
DIMENSIONS 60 20 20
SPACING 0.05 0.05 0.05
ORIGIN 2.225 -0.475 0.525
POINT_DATA 24000
FIELD FieldData 1
potential 1 24000 double
0.00060606643269 0.00060173265961 0.00059745099225 0.00059322366551 0.0005890534262 0.00058494463484 0.00058090161362 0.00057692856083 0.00057302895904 
0.00056920641761 0.00056437773831 0.00056061317612 0.00055690875717 0.00055326409372 0.00054967790375 0.0005461490653 0.00054267540264 0.0005392542926 
0.00053588332052 0.00053256016043 0.0005292825558 0.00052604832361 0.00052285510423 0.00051969962458 0.00051657875031 0.00051348867336 0.00051042521766 
0.00050738534653 0.00050436739488 0.00050137023081 0.00049839531075 0.0004954446254 0.00049252138217 0.00048962848634 0.00048676898455 0.00048394518384 
0.00048115947589 0.00047841313196 0.00047570763832 0.00047081781398 0.00046818440302 0.00046559412355 0.00046304645706 0.00046053997377 0.00045807351214 
0.0004556454011 0.00045325427639 0.00045089889346 0.00044857792986 0.00044628981189 0.00044403223382 0.00044180306857 0.00043959945294 0.00043741858467 
0.00043525862313 0.00043311863105 0.00043099862872 0.00042890064211 0.00042682713175 0.00042478139655 0.0006033326905 0.00059899904732 0.00059471769639 
0.00059048973795 0.00058631899012 0.00058220902552 0.00057816382003 0.00057418723766 0.00057028291521 0.00056645397327 0.00056190685341 0.00055816723344 
0.00055448725644 0.00055086627099 0.00054730293792 0.0005437956926 0.00054034251235 0.00053694097892 0.0005335884975 0.00053028279383 0.0005270218027 
0.00052380369705 0.00052062583365 0.00051748577826 0.00051438001618 0.00051130509301 0.00050825711156 0.00050523304187 0.00050223143046 0.00049925136754 
0.00049629361003 0.00049336100945 0.00049045593475 0.00048758136048 0.00048473972051 0.00048193388189 0.00047916539604 0.00047643587372 0.00047374652613 
0.00046868074325 0.00046606306833 0.00046348768559 0.00046095369882 0.00045846022576 0.00045600568372 0.00045358864417 0.00045120785041 0.00044886213578 
0.00044655059037 0.00044427125072 0.0004420228538 0.00043980268594 0.00043760825501 0.00043543699204 0.0004332870997 0.00043115791291 0.00042904951767 
0.00042696352428 0.00042490274208 0.00042287002809 0.00060043462794 0.00059610230748 0.00059182217389 0.00058759573384 0.00058342596727 0.00057931634445 
0.00057527061652 0.00057129223994 0.00056738463755 0.00056355053171 0.00055929539975 0.00055558325948 0.00055192940629 0.00054833332416 0.00054479386793 
0.00054130896013 0.00053787691837 0.00053449532581 0.00053116180713 0.00052787426999 0.00052463068564 0.00052142915917 0.0005182674126 0.00051514279912 
0.00051205259183 0.00050899327575 0.00050596135785 0.00050295393334 0.00049996949252 0.00049700753311 0.00049406885001 0.00049115565519 0.00048827050836 
0.00048541577842 0.00048259391556 0.00047980746613 0.00047705780757 0.00047434673021 0.00047167505221 0.0004664356197 0.00046383428994 0.00046127412277 
0.00045875418476 0.00045627367834 0.00045383103764 0.00045142524965 0.00044905501038 0.0004467193586 0.00044441703766 0.00044214683225 0.00043990704524 
0.00043769581848 0.00043551063007 0.00043334920876 0.00043120967979 0.00042909168634 0.00042699542206 0.00042492240488 0.00042287506249 0.00042085641674 
0.00059746396048 0.00059313339554 0.00058885519562 0.00058463093462 0.00058046298847 0.0005763542468 0.00057230875013 0.00056832924002 0.00056441891048 
0.00056057975518 0.00055662585794 0.00055294204284 0.00054931526858 0.00054574460725 0.00054222913336 0.00053876724552 0.00053535681283 0.00053199533621 
0.0005286810719 0.0005254117828 0.00052218579177 0.00051900079076 0.00051585525355 0.00051274660869 0.00050967216237 0.00050662846264 0.00050361289939 
0.00050062264191 0.00049765609032 0.00049471285101 0.00049179427102 0.0004889015565 0.00048603699452 0.00048320330892 0.00048040233156 0.00047763621778 
0.00047490620979 0.00047221406468 0.00046956053714 0.00046414980689 0.00046156482444 0.00045901974693 0.00045651395214 0.00045404635445 0.00045161559587 
0.00044922089118 0.00044686096186 0.00044453496943 0.0004422417833 0.00043998052132 0.00043774943814 0.0004355470203 0.00043337075199 0.00043121899101 
0.00042909010232 0.00042698350608 0.00042489957241 0.0004228400853 0.00042080679386 0.00041880246753 0.00059786504836 0.00059371308602 0.00058960610477 
0.00058554373565 0.00058152680284 0.00057755587662 0.00057363260944 0.00056975847069 0.00056593346016 0.00056215908674 0.00055426809715 0.00055050867805 
0.0005468127865 0.00054317877798 0.00053960530525 0.00053609054367 0.00053263210543 0.00052922763974 0.00052587478286 0.00052257167225 0.00051931622684 
0.00051610626443 0.00051293950029 0.0005098140535 0.0005067266354 0.00050367446464 0.00050065479189 0.00049766509472 0.00049470409441 0.00049177103043 
0.0004888669402 0.00048599310413 0.00048315131117 0.00048034360524 0.00047757219681 0.00047483816915 0.00047214348443 0.00046948930072 0.00046687648713 
0.00046200442305 0.00045945163656 0.00045694131479 0.00045447255754 0.00045204379732 0.00044965318078 0.00044729941649 0.00044498112861 0.00044269698082 
0.00044044537442 0.00043822497241 0.00043603432359 0.00043387079848 0.00043173267447 0.00042961790123 0.00042752485511 0.00042545268582 0.00042340179576 
0.00042137324863 0.00041936870037 0.0004173900152 0.0005948599946 0.00059071380935 0.00058661363366 0.00058255870318 0.00057854956224 0.00057458675788 
0.00057067105327 0.00056680410796 0.00056298532614 0.00055921561768 0.00055162241402 0.00054788897669 0.00054421767578 0.00054060682808 0.00053705512763 
0.00053356100819 0.00053012203734 0.00052673593779 0.00052340078656 0.00052011486135 0.00051687560836 0.00051368147743 0.00051053012886 0.00050741960536 
0.00050434709662 0.0005013100684 0.0004983058354 0.00049533264945 0.00049238891507 0.00048947418044 0.0004865893083 0.00048373525959 0.00048091363735 
0.00047812595584 0.00047537422146 0.00047265933546 0.00046998308241 0.00046734627513 0.00046474996842 0.00046004613309 0.00045750730961 0.00045501017116 
0.00045255369081 0.00045013633144 0.00044775648378 0.00044541311205 0.00044310486822 0.0004408301746 0.00043858795364 0.00043637666829 0.00043419490106 
0.00043204065321 0.0004299120437 0.00042780730675 0.0004257252555 0.00042366522186 0.00042162724765 0.00041961259985 0.0004176225132 0.00041565873781 
0.00059199782425 0.00058785822596 0.00058376529314 0.00057971809342 0.0005757168424 0.00057176206659 0.00056785445193 0.00056399414437 0.0005601817419 
0.00055641738584 0.00054911696317 0.00054540811809 0.0005417598711 0.00053817129085 0.0005346404101 0.00053116582171 0.00052774529103 0.00052437711715 
0.00052105914773 0.00051778946206 0.00051456602953 0.00051138728419 0.00050825102846 0.00050515503459 0.00050209699102 0.00049907463767 0.00049608552651 
0.00049312800832 0.00049020109436 0.00048730428659 0.00048443770564 0.00048160239599 0.00047879976361 0.00047603119738 0.0004732978104 0.00047060115163 
0.00046794207357 0.00046532171322 0.00046274100996 0.00045820646768 0.00045568098776 0.00045319624951 0.00045075139735 0.00044834499402 0.00044597572408 
0.00044364249672 0.00044134378442 0.00043907835373 0.00043684526425 0.00043464299185 0.00043247002129 0.00043032466466 0.00042820537315 0.00042611049881 
0.00042403909439 0.0004219907161 0.00041996548806 0.00041796395587 0.00041598758507 0.00041403786178 0.00058932313385 0.0005851899635 0.00058110413288 
0.00057706426757 0.00057307093311 0.00056912377272 0.00056522320464 0.00056136946683 0.00055756270614 0.00055380318009 0.00054678957756 0.00054310347747 
0.00053947714036 0.00053590929261 0.00053239781136 0.00052894179223 0.00052553906412 0.00052218779069 0.00051888606708 0.00051563199175 0.0005124239854 
0.00050925986759 0.00050613807055 0.00050305626187 0.00050001242439 0.00049700417075 0.00049402984696 0.00049108758141 0.00048817644161 0.00048529620539 
0.00048244671012 0.00047962901707 0.00047684401746 0.00047409278431 0.0004713764553 0.0004686961125 0.00046605309157 0.00046344793391 0.00046088127385 
0.00045651685567 0.00045400388225 0.00045153072755 0.00044909686471 0.00044670093899 0.00044434162337 0.00044201785774 0.00043972851253 0.00043747230237 
0.00043524795688 0.00043305444184 0.00043089011539 0.0004287535806 0.00042664339732 0.00042455815501 0.00042249706023 0.00042045973688 0.00041844616941 
0.00041645702134 0.00041449345981 0.00041255665949 0.00058686527506 0.00058273848168 0.00057865924937 0.00057462647341 0.00057063969792 0.00056669943043 
0.0005628049452 0.00055895697316 0.0005551550031 0.00055139963771 0.00054466514218 0.0005410003443 0.00053739385546 0.00053384528558 0.00053035211399 
0.00052691348802 0.00052352731751 0.00052019195453 0.00051690563557 0.00051366683786 0.0005104732931 0.0005073235965 0.00050421545446 0.00050114746381 
0.00049811719943 0.0004951227275 0.00049216236329 0.00048923463408 0.00048633835775 0.0004834735375 0.00048063972063 0.0004778378268 0.00047506874247 
0.0004723330612 0.00046963209401 0.00046696648339 0.00046433768446 0.00046174598204 0.00045919216439 0.00045499789807 0.0004524964976 0.00045003417424 
0.0004476107588 0.00044522456478 0.00044287476128 0.00044056025914 0.00043827990749 0.00043603244985 0.00043381681199 0.00043163151913 0.000429475782 
0.00042734789198 0.00042524630265 0.00042317059062 0.00042111923894 0.00041909226965 0.00041708960918 0.00041511172176 0.00041315961218 0.00041123439176 
0.00058464183661 0.00058052138098 0.00057644817916 0.00057242124002 0.00056844039861 0.00056450539563 0.00056061609527 0.00055677243238 0.00055297450457 
0.0005492224162 0.00054275892527 0.00053911312075 0.00053552501974 0.0005319934621 0.00052851716806 0.00052509439099 0.00052172360095 0.00051840334866 
0.00051513181052 0.00051190721809 0.00050872772865 0.00050559164541 0.00050249730396 0.00049944240562 0.00049642552111 0.00049344436757 0.00049049749272 
0.00048758324429 0.00048470102217 0.00048185004484 0.00047903036871 0.00047624262758 0.00047348731515 0.00047076535502 0.00046807750995 0.00046542494488 
0.00046280862819 0.00046022871115 0.00045768616611 0.00045366216778 0.00045117077849 0.00044871848209 0.00044630433954 0.00044392738838 0.00044158654597 
0.00043928081886 0.00043700906345 0.00043477014438 0.00043256287375 0.00043038620593 0.0004282387558 0.00042611952249 0.00042402672558 0.0004219598671 
0.00041991777895 0.00041790037689 0.00041590752845 0.00041393966174 0.00041199773892 0.00041008250274 0.0005826608472 0.00057854601365 0.00057447832512 
0.00057045644681 0.00056648035383 0.00056254942358 0.00055866383617 0.00055482354308 0.00055102852631 0.00054727846553 0.00054107691285 0.00053744789095 
0.00053387627885 0.00053036052434 0.00052689912086 0.000523491193 0.0005201346678 0.00051682830619 0.00051357057776 0.00051035967122 0.00050719340332 
0.00050407073196 0.00050098943519 0.00049794751369 0.000494943334 0.00049197482384 0.00048904085165 0.00048613962435 0.00048326996517 0.00048043162576 
0.00047762428944 0.00047484883465 0.0004721053603 0.000469395093 0.00046671878649 0.00046407734173 0.00046147150293 0.00045890194962 0.00045636907837 
0.00045251452883 0.00045003247545 0.00044758879588 0.00044518332204 0.00044281472055 0.00044048223354 0.00043818497729 0.00043592157838 0.00043369078218 
0.00043149199191 0.00042932365112 0.00042718446136 0.00042507346579 0.00042298910954 0.00042093092992 0.00041889766817 0.00041688895801 0.00041490497136 
0.00041294574935 0.00041101256558 0.00040910583783 0.00058092172007 0.00057681203066 0.00057274918801 0.00056873150282 0.00056475889642 0.0005608308891 
0.00055694798055 0.00055310984726 0.00054931649148 0.00054556781733 0.000539618404 0.00053600408148 0.00053244687879 0.00052894505504 0.0005254971803 
0.00052210247346 0.00051875932914 0.00051546609991 0.00051222103776 0.00050902284123 0.00050586971429 0.00050275974096 0.00049969111593 0.00049666186719 
0.00049366988498 0.0004907138835 0.00048779176997 0.00048490249216 0.00048204435476 0.00047921737645 0.00047642087872 0.00047365574224 0.0004709223863 
0.00046822191335 0.00046555506329 0.00046292290212 0.00046032603234 0.00045776507839 0.00045524030875 0.00045155446292 0.00044908030483 0.00044664447535 
0.00044424692377 0.0004418861575 0.00043956161995 0.00043727187686 0.00043501642192 0.00043279395288 0.00043060330713 0.00042844315043 0.00042631230937 
0.00042420921066 0.00042213334601 0.00042008316429 0.00041805812018 0.00041605734691 0.00041408114241 0.00041212952636 0.0004102035323 0.00040830388188 
0.00057941586748 0.00057531135113 0.00057125261819 0.00056723837538 0.00056326808719 0.00055934205234 0.00055546028888 0.00055162310445 0.00054783074523 
0.00054408253291 0.00053837462935 0.00053477365213 0.0005312289436 0.00052773930881 0.00052430380291 0.00052092119875 0.00051758998754 0.0005143087245 
0.00051107578142 0.00050788984098 0.00050474876743 0.00050165117118 0.00049859490243 0.00049557790816 0.00049259815138 0.00048965381081 0.00048674316234 
0.00048386470743 0.00048101722027 0.00047820007748 0.00047541306832 0.00047265635116 0.00046993129202 0.00046723859416 0.00046457951174 0.00046195482955 
0.00045936517997 0.00045681126786 0.00045429349862 0.00045077511228 0.0004483078926 0.00044587916374 0.00044348851563 0.0004411349417 0.00043881759494 
0.00043653527516 0.00043428762277 0.00043207281872 0.00042989023682 0.00042773817598 0.00042561555658 0.00042352078093 0.00042145277435 0.00041941038623 
0.0004173927479 0.00041539929072 0.00041342983144 0.00041148460953 0.00040956446561 0.0004076706983 0.00057812616313 0.00057402615853 0.00056997113267 
0.00056595926014 0.00056199047642 0.0005580654661 0.00055418431123 0.00055034728478 0.00054655488848 0.00054280696162 0.00053732998461 0.00053374019994 
0.00053020683617 0.00052672806229 0.00052330329877 0.00051993167633 0.00051661134527 0.00051334113799 0.00051011966597 0.00050694526263 0.00050381612335 
0.00050073022981 0.00049768581941 0.00049468048126 0.00049171238055 0.00048877943092 0.00048587979587 0.00048301145965 0.00048017333357 0.00047736485256 
0.00047458532286 0.00047183585019 0.00046911743387 0.00046643109427 0.0004637780459 0.00046115938189 0.00045857578377 0.00045602758351 0.00045351538017 
0.00045016367854 0.00044770233663 0.00044527970919 0.00044289541875 0.00044054813559 0.00043823756167 0.00043596255301 0.00043372209873 0.00043151518389 
0.0004293402624 0.00042719621503 0.00042508144199 0.00042299457789 0.00042093435936 0.00041889952436 0.0004168888726 0.00041490182925 0.00041293817338 
0.00041099798954 0.00040908271972 0.0004071933879 0.00057702337726 0.00057292782855 0.00056887565138 0.00056486573828 0.00056089819833 0.00055697358309 
0.0005530921929 0.00054925536485 0.00054546264168 0.00054171430857 0.00053645777906 0.00053287833308 0.00052935447947 0.00052588561005 0.00052247074691 
0.00051910888064 0.00051579834752 0.00051253861919 0.00050932816722 0.00050616485664 0.00050304679894 0.000499972368 0.00049693935509 0.00049394534777 
0.00049098845794 0.00048806646545 0.00048517706754 0.00048231819649 0.00047948834198 0.000476687094 0.00047391421939 0.0004711705637 0.00046845751937 
0.00046577605666 0.00046312808297 0.00046051422476 0.00045793516653 0.00045539171407 0.00045288442922 0.00044969792463 0.00044724205748 0.00044482485061 
0.00044244616951 0.00044010473641 0.00043780058418 0.00043553252174 0.00043329924541 0.00043109954489 0.00042893235487 0.00042679604362 0.00042468907545 
0.0004226099916 0.00042055737547 0.00041852954278 0.00041652532041 0.00041454379203 0.00041258497719 0.00041064925329 0.00040873777727 0.00040685206156 
0.00057606503458 0.00057197380991 0.00056792460609 0.00056391655422 0.00055995027558 0.00055602572342 0.00055214444532 0.00054830749274 0.00054451496493 
0.00054076658791 0.00053571983839 0.00053214912685 0.00052863442289 0.00052517451704 0.00052176854097 0.00051841569967 0.00051511499992 0.00051186544966 
0.00050866514511 0.00050551233451 0.00050240521751 0.000499342036 0.00049631976169 0.00049333682699 0.00049039063964 0.00048747896561 0.00048459901706 
0.00048174895713 0.00047892667293 0.00047613186754 0.00047336457921 0.00047062605086 0.0004679171782 0.0004652398216 0.00046259596789 0.00045998605128 
0.00045741108795 0.00045487178964 0.00045236834779 0.00044934640023 0.00044689521242 0.00044448308514 0.00044210944536 0.00043977400243 0.00043747606893 
0.00043521458794 0.00043298816186 0.00043079583208 0.00042863620115 0.00042650722975 0.00042440781189 0.00042233625042 0.00042029078869 0.00041826959182 
0.00041627135011 0.0004142948287 0.00041234013299 0.00041040804159 0.00040849982145 0.00040661676925 0.00057519306106 0.00057110671174 0.00056706097304 
0.00056305552994 0.00055909077369 0.00055516758113 0.0005512870864 0.0005474506631 0.00054365913142 0.0005399118344 0.00053506391631 0.00053150185114 
0.00052799563445 0.00052454432307 0.00052114701133 0.00051780320852 0.00051451189089 0.00051127204294 0.00050808187681 0.00050493957701 0.00050184311147 
0.00049879028376 0.00049577899895 0.00049280655224 0.00048987085074 0.00048696846606 0.00048409743394 0.00048125529915 0.00047844022283 0.00047565145992 
0.00047288959903 0.00047015550337 0.00046745061632 0.00046477718388 0.00046213672454 0.00045953074752 0.00045695953556 0.00045442390245 0.00045192429646 
0.00044906602937 0.00044661955827 0.00044421217414 0.00044184378434 0.00043951405069 0.00043722230609 0.00043496735428 0.00043274769992 0.00043056257727 
0.00042840995803 0.0004262886316 0.00042419650963 0.00042213210526 0.00042009309068 0.00041807791082 0.00041608499565 0.00041411324128 0.00041216243988 
0.0004102338395 0.00040832840941 0.00040644790512 0.00057433558499 0.00057025480621 0.00056621353831 0.00056221223161 0.000558250499 0.00055432993636 
0.0005504518258 0.00054661758769 0.00054282806077 0.00053908342959 0.00053442439691 0.00053087114812 0.00052737397345 0.00052393154298 0.00052054328967 
0.0005172086587 0.00051392708087 0.00051069694902 0.00050751688288 0.00050438499563 0.0005012990189 0.00049825670754 0.00049525585702 0.00049229356682 
0.00048936716328 0.00048647415822 0.00048361140629 0.00048077704286 0.00047796896082 0.00047518625778 0.00047242973362 0.0004697004272 0.00046699998894 
0.00046433058653 0.00046169395058 0.00045909158061 0.00045652455663 0.0004539929135 0.00045149735522 0.00044880245114 0.00044636105933 0.0004439588882 
0.00044159607309 0.00043927223929 0.00043698659949 0.00043473812208 0.00043252556706 0.00043034747431 0.00042820202354 0.00042608776019 0.00042400259778 
0.00042194456604 0.00041991188167 0.00041790234324 0.00041591461276 0.00041394729107 0.00041200061243 0.000410075314 0.00040817284427 0.00040629526463 
0.00057341002203 0.00056933591761 0.00056530121891 0.00056130544974 0.00055734907839 0.0005534330735 0.0005495597187 0.00054573018019 0.00054194523566 
0.00053820529587 0.00053372573242 0.00053018256193 0.00052669486562 0.00052326237026 0.00051988426675 0.00051656001971 0.00051328870368 0.00051006887336 
0.00050689942327 0.00050377802809 0.00050070255674 0.00049767072469 0.0004946798606 0.00049172725774 0.00048881022262 0.00048592601426 0.00048307178517 
0.00048024513914 0.00047744396344 0.00047466796729 0.00047191744781 0.00046919363382 0.00046649827166 0.00046383374695 0.00046120207999 0.00045860442565 
0.00045604204821 0.00045351522421 0.00045102465899 0.00044849296882 0.0004460572765 0.00044366132762 0.00044130487967 0.00043898754159 0.00043670849781 
0.00043446694779 0.00043226136323 0.00043009022398 0.00042795175337 0.00042584418771 0.0004237655947 0.00042171394051 0.0004196871164 0.00041768321625 
0.00041570050354 0.00041373782967 0.00041179542183 0.00040987400923 0.00040797507389 0.00040610083324 0.00057232911022 0.00056826412542 0.00056423829562 
0.00056025092059 0.00055630253997 0.0005523949888 0.00054852938676 0.00054470767763 0.00054093037303 0.00053719788144 0.00053288865964 0.00052935705636 
0.0005258810342 0.00052246021451 0.00051909364036 0.00051578101697 0.00051252130235 0.00050931305487 0.0005061546187 0.00050304404476 0.00049997944955 
0.00049695820932 0.00049397725364 0.0004910343949 0.0004881266215 0.00048525145146 0.00048240543025 0.00047958689316 0.00047679364158 0.00047402522656 
0.00047128170153 0.00046856477508 0.0004658763276 0.00046321828542 0.0004605928376 0.00045800126417 0.00045544479282 0.00045292415147 0.00045043970254 
0.00044807189847 0.00044564351552 0.00044325469689 0.00044090561446 0.0004385957695 0.00043632431536 0.00043408995817 0.00043189146974 0.00042972742228 
0.00042759609456 0.00042549499609 0.00042342278123 0.00042137718454 0.00041935624495 0.00041735774096 0.00041538034478 0.00041342290507 0.00041148537051 
0.00040956861176 0.00040767436725 0.00040580460562 0.00066220572837 0.00065740831619 0.00065267288827 0.00064800037343 0.00064339265953 0.00063885231362 
0.00063438195652 0.00062998470251 0.00062566281469 0.0006214187602 0.00061629940295 0.00061214839325 0.00060806113539 0.0006040371827 0.0006000748301 
0.00059617263628 0.00059232896079 0.00058854187235 0.00058480886011 0.00058112782338 0.00057749662433 0.00057391341525 0.00057037508988 0.00056687977595 
0.00056342404243 0.00056000544437 0.00055662049159 0.00055326757964 0.00054994457209 0.00054665149479 0.00054338810349 0.00054015621037 0.00053695743763 
0.00053379372792 0.00053066703516 0.00052757926352 0.00052453174502 0.00052152566373 0.0005185619691 0.00051351381178 0.000510629623 0.00050778964916 
0.00050499346193 0.00050224012841 0.00049952877044 0.00049685791449 0.00049422632688 0.00049163282739 0.00048907642936 0.0004865551387 0.00048406767419 
0.00048161195043 0.00047918609136 0.00047678819392 0.00047441716792 0.00047207229341 0.00046975401645 0.00046746311164 0.00046520182224 0.0004629720817 
0.00065946296656 0.00065466744419 0.00064993324708 0.00064526109534 0.00064065314313 0.00063611155119 0.00063163909794 0.00062723831349 0.00062291146311 
0.00061866090373 0.0006138123806 0.00060968709095 0.00060562445474 0.00060162440353 0.00059768537875 0.00059380556622 0.0005899835122 0.00058621694546 
0.00058250378768 0.00057884193232 0.00057522960619 0.00057166400526 0.00056814310085 0.00056466483839 0.00056122614304 0.00055782435912 0.0005544563827 
0.00055112061513 0.00054781519454 0.00054453940936 0.00054129406506 0.0005380801941 0.00053489948782 0.00053175395414 0.00052864522444 0.00052557498974 
0.0005225446564 0.00051955538757 0.00051660819908 0.00051139210078 0.00050852374467 0.00050569890792 0.0005029169556 0.00050017717981 0.00049747859076 
0.00049481976018 0.00049219983857 0.00048961770499 0.00048707177183 0.00048456084821 0.00048208370196 0.00047963830861 0.00047722295683 0.0004748356748 
0.00047247586176 0.00047014257438 0.00046783589954 0.00046555747699 0.00046330869115 0.00046109173651 0.00065659569539 0.00065180297261 0.00064707081 
0.00064240048356 0.00063779338203 0.00063325172703 0.00062877809091 0.00062437473111 0.00062004386856 0.00061578757317 0.0006112198238 0.000607121468 
0.0006030853445 0.00059911048724 0.0005951956527 0.00059133909214 0.00058753928052 0.00058379380423 0.00058010100576 0.00057645875101 0.0005728651565 
0.00056931788435 0.00056581499781 0.00056235399242 0.00055893261422 0.00055554821063 0.00055219777856 0.00054887974787 0.00054559249587 0.00054233529716 
0.00053910880899 0.00053591429369 0.00053275294147 0.00052962671975 0.00052653723175 0.00052348570628 0.00052047378039 0.00051750234254 0.00051457228968 
0.00050919118903 0.00050633915557 0.00050352979483 0.00050076249366 0.00049803637821 0.00049535057744 0.0004927039506 0.00049009561528 0.00048752440284 
0.00048498926886 0.00048248887571 0.00048002186307 0.00047758673794 0.00047518194996 0.00047280555476 0.00047045699349 0.00046813542527 0.00046584109959 
0.00046357537657 0.00046133981814 0.0004591362857 0.00065366969005 0.00064888009466 0.00064415061881 0.00063948231801 0.00063487665931 0.00063033554782 
0.00062586090726 0.00062145549305 0.00061712068538 0.00061285881721 0.00060858036475 0.00060451002835 0.00060050085734 0.00059655188706 0.0005926617671 
0.00058882893596 0.00058505151033 0.00058132762176 0.00057765557217 0.00057403309148 0.00057045854577 0.0005669297064 0.00056344494557 0.00056000183759 
0.00055659789277 0.0005532307923 0.00054989818449 0.00054659820889 0.00054332958009 0.00054009156002 0.0005368848206 0.00053371021204 0.00053056914433 
0.00052746277594 0.00052439322547 0.00052136121985 0.00051836842722 0.00051541541132 0.00051250305741 0.00050695901509 0.00050412341704 0.00050132955981 
0.00049857690146 0.00049586447046 0.00049319154406 0.00049055710563 0.00048796027878 0.00048540000994 0.00048287525981 0.00048038525364 0.00047792852401 
0.00047550347706 0.00047310883539 0.00047074327377 0.00046840580541 0.0004660961254 0.0004638143574 0.00046156173635 0.00045933965885 0.0004571498963 
0.00065411898963 0.00064951885191 0.00064497356918 0.00064048217568 0.00063604443335 0.00063166021097 0.00062733009502 0.00062305450217 0.00061883338108 
0.00061466729036 0.00060641072711 0.00060226520495 0.00059818659478 0.00059417401542 0.00059022571013 0.00058634006347 0.00058251478211 0.00057874774058 
0.00057503696421 0.00057138054485 0.00056777600993 0.00056422188375 0.0005607155385 0.00055725505966 0.00055383793033 0.00055046166818 0.00054712410781 
0.0005438236199 0.00054055859555 0.00053732874528 0.00053413417439 0.00053097581782 0.00052785452863 0.00052477179957 0.00052172907902 0.00051872730043 
0.00051576785047 0.00051285144372 0.00050997887501 0.00050493064004 0.00050212400673 0.000499362095 0.00049664381431 0.00049396784855 0.00049133271829 
0.00048873727422 0.00048618019802 0.00048365985763 0.00048117536016 0.00047872492942 0.00047630724713 0.00047392053635 0.00047156311524 0.00046923363343 
0.00046693110526 0.00046465472748 0.00046240476351 0.00046018178157 0.00045798715662 0.00045582193594 0.00065110291186 0.00064651065427 0.00064197329993 
0.00063749014042 0.00063306063003 0.00062868453992 0.00062436207314 0.00062009345458 0.00061587840616 0.00061171702759 0.00060376036136 0.00059964089795 
0.00059558757267 0.00059159903314 0.00058767395423 0.00058381020873 0.00058000577302 0.00057625892717 0.00057256759249 0.00056892983105 0.00056534364595 
0.0005618072449 0.0005583182915 0.00055487480245 0.00055147462967 0.00054811543577 0.00054479510184 0.00054151227884 0.00053826553312 0.00053505430752 
0.00053187898164 0.00052874006747 0.00052563840482 0.00052257516155 0.00051955152759 0.00051656829915 0.00051362675662 0.00051072755415 0.00050787135058 
0.00050298653926 0.00050019448716 0.00049744657098 0.00049474147269 0.00049207791517 0.0004894548299 0.00048687111831 0.00048432508169 0.00048181592477 
0.00047934206784 0.0004769022799 0.00047449505732 0.00047211910561 0.00046977261528 0.00046745451524 0.00046516388964 0.00046290005258 0.00046066310415 
0.00045845383334 0.00045627314797 0.00045412226449 0.00064819273389 0.00064360908644 0.0006390804781 0.0006346060429 0.00063018522589 0.00062581759429 
0.00062150336115 0.00061724217232 0.00061303372461 0.00060887817269 0.00060121694548 0.00059712272939 0.00059309350029 0.00058912839512 0.00058522541674 
0.00058138274176 0.00057759899206 0.00057387188354 0.00057019948634 0.0005665800856 0.0005630118495 0.00055949245472 0.00055602035971 0.00055259391511 
0.00054921016073 0.0005458676339 0.00054256419587 0.00053929851966 0.00053606963299 0.00053287659235 0.0005297197653 0.00052659959057 0.00052351676139 
0.00052047226034 0.00051746687093 0.00051450156683 0.00051157737729 0.00050869472385 0.00050585418274 0.00050113410433 0.00049835623302 0.00049562157571 
0.00049292916634 0.00049027805407 0.00048766686772 0.00048509435654 0.00048255949878 0.00048006107776 0.00047759759199 0.00047516815422 0.00047277158222 
0.00047040593279 0.00046807013399 0.00046576318907 0.00046348408581 0.0004612325289 0.0004590083736 0.0004568122073 0.00045464498098 0.00045250772493 
0.0006454268064 0.00064085195492 0.00063633237631 0.00063186700407 0.0006274549671 0.00062309596948 0.00061878989585 0.00061453595293 0.00061033431021 
0.00060618448349 0.00059881307676 0.00059474310961 0.00059073710775 0.00058679410014 0.00058291230468 0.00057909010855 0.00057532589669 0.00057161764153 
0.00056796353411 0.00056436195946 0.00056081098123 0.00055730879807 0.00055385326679 0.00055044291882 0.00054707561116 0.00054374912124 0.00054046229682 
0.00053721334586 0.00053400137211 0.00053082579029 0.00052768671237 0.00052458429155 0.00052151915767 0.00051849243644 0.00051550411712 0.00051255560372 
0.00050964756005 0.00050678051153 0.00050395485606 0.00049940047157 0.00049663604313 0.00049391411089 0.00049123398226 0.00048859466696 0.0004859947953 
0.00048343330189 0.00048090929407 0.00047842125324 0.00047596839576 0.0004735491699 0.00047116275905 0.00046880744353 0.00046648208111 0.00046418607512 
0.00046191822698 0.00045967831066 0.0004574663152 0.00045528267132 0.00045312819637 0.0004510036853 0.00064283201384 0.00063826623483 0.00063375562531 
0.00062929885538 0.00062489546318 0.00062054502467 0.00061624664141 0.00061199995214 0.00060780465486 0.000603660669 0.00059657201204 0.00059252452587 
0.0005885404935 0.00058461850158 0.0005807570002 0.00057695424817 0.00057320864238 0.0005695185688 0.00056588226501 0.0005622979989 0.00055876378792 
0.00055527806029 0.0005518387561 0.00054844426652 0.00054509267276 0.00054178207103 0.00053851103507 0.00053527811995 0.00053208248419 0.00052892338964 
0.00052580071284 0.00052271491713 0.00051966658191 0.000516655936 0.00051368369341 0.00051075054784 0.00050785752012 0.00050500466576 0.00050219264441 
0.0004978046239 0.00049505275203 0.00049234309256 0.00048967467283 0.0004870465034 0.00048445753648 0.00048190688255 0.00047939336307 0.00047691570082 
0.00047447302792 0.00047206378448 0.00046968730118 0.00046734217375 0.00046502717597 0.00046274156907 0.00046048456991 0.00045825592523 0.00045605537405 
0.00045388323706 0.00045174058963 0.00044962814002 0.00064042565626 0.00063586880907 0.00063136691755 0.00062691877171 0.00062252350364 0.0006181807577 