# vtk DataFile Version 5.1
vtk output
ASCII
DATASET STRUCTURED_POINTS
DIMENSIONS 60 20 20
SPACING 0.05 0.05 0.05
ORIGIN 2.225 -0.475 0.525
POINT_DATA 24000
FIELD FieldData 1
potential 1 24000 double
0.00057038453586 0.0005665291665 0.00056272139855 0.00055896140494 0.00055524973279 0.0005515882881 0.00054797896814 0.00054442357885 0.00054092335597 
0.00053747966027 0.00053234645022 0.00052893673777 0.00052558654669 0.00052229555032 0.00051906261942 0.00051588671129 0.00051276589538 0.00050969784464 
0.00050668040719 0.00050371146583 0.00050078896099 0.0004979108847 0.00049507502386 0.00049227844606 0.00048951827821 0.00048679101309 0.0004840929333 
0.00048142126891 0.0004787744487 0.00047615137182 0.00047355321984 0.00047098160417 0.00046843921873 0.00046592850982 0.00046345208695 0.00046101191445 
0.00045861006064 0.00045624767783 0.00045392610995 0.00044982471576 0.00044757087846 0.00044535944728 0.00044318967657 0.00044105997281 0.00043896902957 
0.00043691503376 0.00043489645414 0.00043291186106 0.00043095974766 0.00042903835647 0.0004271453193 0.00042527834194 0.00042343447673 0.00042161094418 
0.00041980574014 0.00041801770387 0.00041624655686 0.0004144938578 0.00041276151604 0.00041105225972 0.00057142039497 0.00056754798455 0.00056372550401 
0.00055995216708 0.00055622944435 0.00055255855332 0.00054894114933 0.00054537874407 0.00054187274193 0.00053842409616 0.00053322288911 0.00052979632084 
0.00052642965793 0.00052312226991 0.00051987295413 0.00051668027811 0.00051354243164 0.00051045717708 0.00050742221282 0.00050443544689 0.00050149495796 
0.00049859901497 0.0004957451918 0.00049293120817 0.00049015385736 0.00048740999265 0.00048469606356 0.0004820093333 0.00047934840033 0.00047671236282 
0.00047410178236 0.00047151902976 0.00046896605439 0.00046644539603 0.00046395909058 0.00046150963519 0.00045909836902 0.00045672673408 0.00045439582385 
0.0004501298277 0.00044786731745 0.00044564703905 0.00044346786624 0.0004413286846 0.00043922775073 0.00043716346624 0.0004351343759 0.000433139105 
0.00043117647649 0.00042924440176 0.00042734136876 0.0004254646054 0.00042361152004 0.0004217794382 0.00041996643116 0.00041817158625 0.00041639467273 
0.00041463686017 0.00041290039648 0.00041118756869 0.00057232208373 0.00056843391214 0.0005645978832 0.00056081349504 0.00055708149789 0.0005534031056 
0.0005497797292 0.00054621260196 0.0005427029137 0.00053925138425 0.00053399217899 0.00053055019411 0.00052716778245 0.00052384439407 0.00052057893841 
0.00051736951125 0.00051421452677 0.00051111179767 0.00050805913243 0.00050505458162 0.00050209623879 0.00049918232442 0.00049631066314 0.00049347878453 
0.00049068416447 0.00048792356397 0.00048519384391 0.00048249231294 0.00047981753122 0.00047716897595 0.00047454719941 0.0004719540007 0.00046939155471 
0.00046686181906 0.00046436688631 0.00046190897045 0.00045948928437 0.00045710940497 0.00045477008719 0.00045034129873 0.00044807044484 0.00044584138167 
0.0004436529225 0.00044150399084 0.00043939286734 0.00043731827984 0.00043527871103 0.00043327294535 0.00043129951105 0.00042935693344 0.00042744331309 
0.0004255566143 0.00042369420485 0.0004218537198 0.00042003309943 0.00041823173432 0.00041644948775 0.00041468741973 0.00041294740702 0.00041123194766 
0.00057316529965 0.00056926218944 0.00056541367652 0.00056161938042 0.00055787955033 0.0005541948573 0.00055056704249 0.000546996718 0.00054348491913 
0.00054003170765 0.00053472528588 0.00053126806004 0.00052787014676 0.00052453061749 0.00052124857163 0.00051802246045 0.00051485029295 0.00051172973901 
0.00050865914571 0.00050563642245 0.00050265993974 0.00049972753591 0.00049683768001 0.00049398794986 0.00049117583715 0.0004883981483 0.00048565247495 
0.00048293623954 0.00048024787478 0.00047758693879 0.00047495449158 0.00047235145191 0.00046977971118 0.00046724161698 0.00046473869174 0.00046227281334 
0.00045984506447 0.00045745703396 0.00045510943486 0.00045051976467 0.00044824040759 0.00044600232531 0.00044380453989 0.00044164573486 0.00043952429441 
0.0004374391564 0.00043538880721 0.00043337212764 0.00043138772439 0.00042943441282 0.00042751023614 0.00042561346143 0.00042374143741 0.00042189235173 
0.00042006439478 0.00041825669362 0.00041646928557 0.00041470346354 0.00041296050381 0.00041124263824 0.00057443592599 0.00057035476799 0.00056634582376 
0.00056241139759 0.00055855490953 0.00055477963279 0.00055108988694 0.00054749001209 0.00054398320094 0.00054057445409 0.00053550706471 0.00053207149442 
0.00052869330568 0.00052537133606 0.00052210462353 0.0005188917331 0.00051573078033 0.00051261985576 0.00050955705485 0.00050654082454 0.00050356940414 
0.00050064094243 0.00049775341372 0.00049490517558 0.00049209332992 0.00048931539243 0.00048656896929 0.00048385173617 0.00048116253515 0.00047850060612 
0.00047586675801 0.00047326199986 0.00047068777345 0.00046814575048 0.00046563777578 0.00046316470519 0.00046072813875 0.00045832904329 0.00045596805495 
0.00045147697521 0.00044918040981 0.00044692205946 0.00044470151448 0.0004425177388 0.00044036938037 0.00043825565548 0.0004361756036 0.00043412832182 
0.00043211263243 0.00043012756603 0.00042817205315 0.00042624393482 0.00042434187503 0.00042246425743 0.00042060979893 0.00041877792901 0.00041696921526 
0.0004151848345 0.00041342645584 0.00041169595339 0.00057539638691 0.00057129930081 0.00056727618843 0.00056332898406 0.00055946077078 0.00055567478963 
0.00055197455928 0.00054836454439 0.00054484734765 0.00054142705634 0.00053626404524 0.0005328104749 0.00052941411864 0.00052607373964 0.00052278831348 
0.0005195566422 0.00051637680011 0.00051324684448 0.00051016517641 0.00050713037685 0.00050414029744 0.00050119350711 0.00049828798787 0.00049542199102 
0.00049259298057 0.00048979869203 0.00048703675285 0.00048430549622 0.00048160348345 0.00047893018571 0.00047628627186 0.00047367245299 0.00047109002574 
0.00046854019333 0.00046602460481 0.00046354395237 0.00046109972991 0.00045869254429 0.00045632324447 0.00045196943673 0.00044966322887 0.00044739508414 
0.00044516441757 0.00044297021667 0.00044081129945 0.00043868703711 0.00043659651296 0.00043453860467 0.00043251253193 0.00043051715699 0.00042855142349 
0.00042661370106 0.00042470250637 0.00042281644787 0.00042095463037 0.00041911665668 0.00041730272618 0.00041551420195 0.00041375236143 0.0004120189846 
0.00057648769227 0.00057237367844 0.00056833507487 0.0005643735339 0.00056049181851 0.00055669314596 0.00055298092163 0.00054935823443 0.0005458287083 
0.00054239572 0.00053715268731 0.00053368004429 0.00053026430974 0.00052690483432 0.00052360002135 0.00052034877233 0.00051714924097 0.00051399997011 
0.00051089919207 0.00050784520254 0.00050483625698 0.00050187096178 0.00049894732711 0.00049606336047 0.00049321695204 0.00049040606274 0.0004876284541 
0.00048488256916 0.00048216743146 0.00047948253425 0.00047682782253 0.00047420407811 0.00047161245627 0.00046905405695 0.00046652973019 0.00046404075483 
0.00046158778965 0.00045917174034 0.00045679336532 0.00045257727968 0.00045026080132 0.00044798206278 0.00044574063874 0.00044353549749 0.00044136575335 
0.00043923071581 0.00043712925171 0.00043506047419 0.00043302376802 0.00043101795439 0.00042904186752 0.00042709414987 0.0004251735975 0.00042327889836 
0.00042140935565 0.00041956475067 0.0004177453903 0.00041595191144 0.00041418582127 0.00041244868876 0.00057774784339 0.0005736152448 0.00056955937846 
0.00056558146497 0.00056168457095 0.00055787102679 0.00055414402642 0.00055050668013 0.00054696219976 0.00054351402675 0.00053820628695 0.00053471317339 
0.00053127728614 0.00052789759905 0.00052457235839 0.00052130085737 0.00051808127036 0.0005149120368 0.00051179146583 0.00050871793955 0.00050569002202 
0.00050270575582 0.00049976368441 0.00049686166148 0.00049399786087 0.0004911700162 0.00048837661985 0.00048561589208 0.000482886889 0.00048018930559 
0.00047752282442 0.00047488830419 0.00047228639425 0.00046971791499 0.00046718377888 0.000464684846 0.00046222221764 0.00045979626631 0.00045740747098 
0.00045332951451 0.00045100198289 0.00044871189387 0.00044645906581 0.00044424254973 0.0004420614196 0.00043991494079 0.00043780235005 0.00043572269168 
0.00043367500126 0.00043165853439 0.00042967195903 0.00042771419963 0.0004257840776 0.00042388050417 0.00042200290045 0.00042015109569 0.00041832523507 
0.00041652607112 0.00041475487039 0.00041301287337 0.00057920226398 0.00057504958129 0.00057097447172 0.00056697841158 0.00056306348077 0.00055923274127 
0.00055548832062 0.00055183378188 0.00054827170695 0.00054480579444 0.00053944736699 0.00053593274218 0.00053247507029 0.00052907415508 0.00052572777504 
0.00052243526431 0.00051919478536 0.00051600489166 0.00051286409197 0.00050977096359 0.00050672347018 0.00050372026818 0.00050075927072 0.00049783912048 
0.00049495753421 0.00049211270026 0.00048930302218 0.00048652700396 0.00048378347314 0.00048107231966 0.00047839298788 0.00047574619762 0.00047313258265 
0.00047055254741 0.00046800719886 0.00046549698841 0.00046302314344 0.00046058580734 0.00045818563198 0.00045424550363 0.00045190608808 0.00044960397266 
0.00044733928567 0.00044511073601 0.00044291779191 0.00044075975337 0.00043863571973 0.0004365447667 0.00043448608508 0.00043245848338 0.00043046141584 
0.00042849343391 0.00042655330621 0.00042464078032 0.00042275458368 0.00042089490639 0.00041906182355 0.00041725591517 0.00041547829797 0.00041373014802 
0.0005808666292 0.00057669243223 0.00057259617149 0.00056857931241 0.00056464417976 0.00056079316569 0.00055702883067 0.0005533540307 0.00054977187663 
0.0005462855537 0.0005408902184 0.00053735230872 0.00053387188815 0.00053044793209 0.00052707939543 0.00052376471283 0.00052050253822 0.00051729162339 
0.00051413027246 0.00051101685478 0.00050794964715 0.00050492707546 0.00050194753722 0.00049900885471 0.00049610960147 0.00049324760489 0.00049042140554 
0.00048762935265 0.00048487078428 0.00048214482529 0.00047945141996 0.00047679099418 0.00047416387559 0.00047157078649 0.000469012309 0.00046648943464 
0.00046400291638 0.00046155281993 0.00045913993634 0.0004553375891 0.00045298482413 0.00045066994586 0.00044839233309 0.00044615131944 0.00044394615046 
0.00044177610837 0.0004396403241 0.0004375379206 0.00043546797068 0.00043342966012 0.00043142184939 0.00042944373603 0.00042749379772 0.00042557171236 
0.00042367649863 0.00042180821309 0.00041996688917 0.00041815307597 0.00041636781582 0.0004146119672 0.00058274851415 0.00057855081702 0.00057443150848 
0.00057039169543 0.00056643381401 0.00056255982664 0.0005587726319 0.00055507506286 0.00055147005605 0.00054796041187 0.00054254112164 0.0005389782552 
0.00053547359583 0.00053202584185 0.00052863361359 0.0005252961584 0.00052201160017 0.00051877877592 0.00051559628527 0.00051246238938 0.00050937500603 
0.00050633314576 0.00050333464717 0.00050037754835 0.00049746026729 0.00049458070897 0.00049173769901 0.00048892940086 0.00048615462341 0.00048341298546 
0.00048070400512 0.00047802842812 0.00047538618342 0.00047277832997 0.00047020543901 0.00046766827715 0.00046516740828 0.00046270336521 0.00046027643517 
0.00045661094903 0.00045424427465 0.00045191536376 0.00044962431028 0.0004473700584 0.0004451521183 0.00044296986412 0.00044082215991 0.00043870796657 
0.00043662691599 0.0004345776628 0.00043255912632 0.00043057051675 0.00042861048464 0.00042667869693 0.00042477405967 0.00042289636863 0.00042104591994 
0.00041922285766 0.00041742859291 0.00041566364452 0.00058484794253 0.00058062501465 0.00057648071595 0.00057241575919 0.0005684324747 0.00056453295365 
0.00056072038117 0.00055699726877 0.00055336656003 0.00054983120443 0.00054440029448 0.00054081087544 0.00053728046685 0.00053380748478 0.00053039064999 
0.00052702921987 0.00052372173273 0.00052046662187 0.00051726218508 0.00051410715822 0.00051099981898 0.00050793826995 0.00050492073542 0.00050194521859 
0.00049900964543 0.00049611262701 0.00049325203299 0.0004904267615 0.00048763500857 0.0004848766665 0.00048215095552 0.00047945857061 0.00047679978406 
0.00047417555944 0.00047158650518 0.00046903350351 0.00046651700545 0.00046403751652 0.0004615952067 0.00045806583969 0.00045568395462 0.00045334035786 
0.0004510352143 0.00044876730074 0.00044653628389 0.00044434093119 0.00044218093611 0.00044005522959 0.00043796280947 0.00043590255448 0.00043387341406 
0.00043187402291 0.00042990396018 0.0004279618329 0.00042604724372 0.00042415943412 0.00042229881894 0.00042046554845 0.00041866077756 0.00041688535447 
0.00058715754849 0.00058290819075 0.00057873691452 0.00057464474923 0.00057063358136 0.00056670619731 0.00056286527725 0.00055911389898 0.00055545516986 
0.00055189154889 0.00054646060423 0.00054284369259 0.00053928604766 0.00053578656058 0.000532344323 0.00052895818644 0.00052562670308 0.00052234845923 
0.00051912183122 0.00051594554395 0.00051281747573 0.00050973619861 0.00050669955566 0.00050370545531 0.00050075184406 0.00049783677726 0.00049495848201 
0.0004921153396 0.00048930602555 0.00048652977747 0.00048378624064 0.0004810754568 0.0004783986176 0.00047575631216 0.0004731496528 0.00047057926831 
0.00046804567331 0.00046554943514 0.00046309084016 0.00045969639098 0.00045729846272 0.00045493951831 0.00045261937613 0.00045033723494 0.00044809244584 
0.00044588396956 0.00044371163096 0.00044157380937 0.00043947000394 0.0004373986614 0.00043535884065 0.0004333490934 0.00043136841198 0.00042941579291 
0.00042749045865 0.00042559196097 0.00042372019839 0.00042187556081 0.00042005899368 0.00041827193782 0.00058966206376 0.00058538436209 0.00058118443501 
0.00057706272823 0.00057302154241 0.00056906394766 0.00056519268247 0.00056141071389 0.00055772141848 0.00055412764069 0.00054870818303 0.00054506211862 
0.00054147646844 0.00053794950017 0.00053448063214 0.00053106899832 0.00052771277864 0.00052441081973 0.0005211616799 0.00051796369267 0.0005148150306 
0.00051171360319 0.00050865759245 0.00050564458835 0.00050267259553 0.00049973943611 0.0004968431821 0.0004939817351 0.00049115378743 0.00048835867824 
0.00048559560492 0.00048286549749 0.00048016923425 0.00047750768923 0.00047488195607 0.0004722929576 0.00046974129717 0.00046722718034 0.0004647510929 
0.00046149086359 0.00045907589359 0.00045670070919 0.00045436508673 0.00045206788747 0.00044980895738 0.00044758731213 0.00044540209479 0.00044325241508 
0.0004411368434 0.0004390543779 0.00043700355038 0.00043498304458 0.00043299170455 0.00043102834118 0.00042909189022 0.00042718179895 0.00042529797469 
0.00042344063218 0.00042161133496 0.00041981125537 0.00059233447274 0.00058802715012 0.00058379650772 0.00057964356343 0.00057557068106 0.00057158087173 
0.00056767698321 0.00056386293104 0.00056014114822 0.00055651491697 0.00055111844786 0.00054744271565 0.00054382761885 0.00054027256281 0.00053677650915 
0.00053333848711 0.00052995677562 0.00052663078061 0.00052335891824 0.00052013903054 0.00051696913549 0.00051384753832 0.00051077194545 0.00050773984609 
0.00050474922755 0.00050179774418 0.00049888297452 0.00049600271107 0.00049315526525 0.0004903401325 0.00048755690139 0.0004848062705 0.00048208951837 
0.00047940749168 0.00047676191035 0.00047415331085 0.00047158227587 0.00046904948099 0.00046655536845 0.00046342798756 0.00046099567328 0.00045860360657 
0.00045625182106 0.00045393917578 0.00045166581718 0.00044943067809 0.00044723257244 0.00044507038626 0.00044294313535 0.00044084928092 0.00043878735937 
0.00043675599049 0.00043475380111 0.00043277917317 0.00043083100126 0.00042890843305 0.00042701160426 0.00042514099121 0.00042329787857 0.00042148395099 
0.00059513494403 0.00059079668927 0.00058653412952 0.00058234850493 0.0005782426508 0.0005742188427 0.00057028113867 0.00056643318374 0.00056267781268 
0.00055901776157 0.00055365547002 0.00054994879251 0.0005463041607 0.0005427203737 0.00053919645481 0.00053573153535 0.00053232455825 0.00052897445176 
0.0005256792047 0.00052243701734 0.0005192459382 0.00051610411303 0.00051300842436 0.00050995713272 0.00050694750471 0.00050397720446 0.00050104327678 
0.00049814373235 0.00049527626666 0.0004924404449 0.00048963617132 0.00048686453863 0.00048412626661 0.0004814231204 0.00047875695371 0.00047612803383 
0.00047353732467 0.0004709853698 0.00046847228109 0.00046547721556 0.00046302679129 0.00046061757562 0.000458249091 0.0004559211482 0.00045363317328 
0.00045138417264 0.00044917285776 0.00044699829415 0.0004448591783 0.00044275351688 0.00044068023515 0.00043863768164 0.0004366241505 0.00043463785751 
0.00043267752627 0.00043074194877 0.00042883135447 0.00042694663001 0.00042508916547 0.0004232603945 0.00059800846216 0.00059363853559 0.00058934325231 
0.00058512437492 0.00058098433197 0.00057692635443 0.00057295399333 0.0005690711359 0.00056528136609 0.0005615868643 0.0005562694187 0.00055253199701 
0.00054885744317 0.00054524474046 0.00054169288958 0.00053820126862 0.00053476875607 0.00053139420218 0.00052807570069 0.00052481130828 0.00052159887554 
0.00051843604285 0.00051532056809 0.0005122495905 0.00050922087381 0.00050623083762 0.00050327731569 0.00050035768728 0.00049746994097 0.0004946131768 
0.00049178784697 0.00048899458077 0.00048623475133 0.00048351042752 0.00048082299846 0.00047817389769 0.00047556323237 0.00047299171655 0.00047045972717 
0.00046759627326 0.00046512778473 0.00046270104638 0.00046031605002 0.00045797252956 0.00045566986345 0.00045340692197 0.00045118225407 0.00044899511081 
0.00044684350961 0.00044472626559 0.00044264130097 0.00044058715494 0.00043856152353 0.00043656286767 0.00043458962436 0.00043264075517 0.00043071613947 
0.00042881711627 0.00042694475215 0.00042510100512 0.00060088660328 0.00059648437084 0.00059215600716 0.00058790387187 0.0005837296809 0.00057963727598 
0.00057563022135 0.0005717124883 0.00056788756668 0.00056415844076 0.00055889729153 0.00055512942117 0.00055142563606 0.00054778447332 0.00054420517501 
0.00054068709413 0.00053722946676 0.00053383055439 0.00053048878494 0.00052720217089 0.00052396824413 0.00052078458584 0.00051764881557 0.00051455788087 
0.0005115089177 0.00050849922795 0.00050552553529 0.0005025857193 0.0004996775248 0.00049679986747 0.00049395338165 0.00049113891998 0.00048835802081 
0.00048561266597 0.00048290448155 0.00048023484621 0.0004776047216 0.00047501401985 0.00047246337641 0.00046973128321 0.00046724507277 0.00046480125905 
0.00046240003207 0.00046004104106 0.00045772353092 0.00045544647702 0.00045320869368 0.0004510087033 0.00044884466121 0.00044671515582 0.00044461806472 
0.00044255143328 0.00044051346089 0.00043850196127 0.00043651558645 0.00043455296987 0.00043261443678 0.0004307008111 0.00042881364899 0.00042695518296 
0.00060369029946 0.00059925548387 0.00059489464321 0.00059060918891 0.00058640162694 0.00058227507085 0.00057823408899 0.00057428224025 0.00057042295781 
0.00056665941664 0.00056146614405 0.0005576691457 0.00055393656913 0.00055026799196 0.00054666239198 0.00054311904316 0.00053963683134 0.0005362141157 
0.00053284960487 0.00052954080943 0.00052628536222 0.00052308082604 0.00051992428537 0.00051681285501 0.00051374364424 0.00051071371461 0.0005077199966 
0.00050475990806 0.00050183113554 0.00049893320066 0.00049606620852 0.00049323122591 0.00049042984498 0.00048766431717 0.00048493648573 0.00048224741504 
0.00047959824029 0.00047698911363 0.00047442069388 0.00047181991658 0.00046931651715 0.00046685651794 0.00046443974305 0.00046206577822 0.00045973378829 
0.00045744297635 0.00045519181051 0.00045297872837 0.00045080193627 0.00044865962313 0.0004465498634 0.00044447057356 0.00044241963001 0.00044039510927 
0.00043839526584 0.00043641898669 0.0004344665457 0.00043253875104 0.00043063721617 0.00042876429322 0.00060633595423 0.00060186951478 0.00059747698669 
0.00059315949441 0.0005889195231 0.0005847610423 0.00058068733433 0.00057670273386 0.00057281030842 0.00056901317417 0.00056389926931 0.00056007457275 
0.00055631533971 0.00055262100167 0.000548990374 0.0005454229133 0.00054191736491 0.00053847204993 0.00053508508425 0.00053175430737 0.00052847761945 
0.00052525216382 0.00052207464001 0.00051894266592 0.00051585297669 0.00051280291193 0.00050978878421 0.00050680868585 0.00050386024177 0.00050094279084 
0.00049805618455 0.00049520195848 0.00049238185911 0.00048959761741 0.00048685130143 0.00048414404352 0.0004814769664 0.00047885068606 0.00047626548043 
0.00047379672467 0.00047127757381 0.00046880220564 0.00046637070346 0.00046398259269 0.00046163696892 0.00045933247809 0.00045706785623 0.00045484163136 
0.00045265203153 0.00045049649298 0.0004483736414 0.00044628116287 0.00044421706617 0.00044217908832 0.00044016588121 0.00043817631222 0.00043621037321 
0.00043426900329 0.00043235404499 0.00043046763845 0.00061710183552 0.00061295933787 0.00060887247116 0.00060484046288 0.00060086331633 0.0005969416292 
0.00059307604627 0.00058926762974 0.00058551680329 0.00058182412434 0.00057648190134 0.00057283130485 0.00056924124382 0.00056571136733 0.00056224022144 
0.00055882658855 0.00055546902432 0.00055216581526 0.00054891480105 0.00054571409361 0.00054256178604 0.00053945618207 0.00053639456115 0.00053337515184 
0.00053039492422 0.00052745163877 0.00052454220676 0.00052166515022 0.00051881851119 0.000516002289 0.0005132162013 0.00051046177554 0.00050774037934 
0.00050505368885 0.00050240340123 0.00049979119023 0.00049721827007 0.00049468572851 0.00049219448215 0.00048796789136 0.00048554714079 0.00048316872226 
0.00048083199204 0.0004785358565 0.00047627925048 0.0004740606151 0.00047187854887 0.00046973172452 0.00046761894613 0.00046553819237 0.00046348795856 
0.00046146608662 0.00045947062921 0.00045749955927 0.00045555163669 0.00045362590772 0.00045172255828 0.0004498420146 0.00044798606244 0.00044615622236 
0.00061846850714 0.00061430600817 0.0006102008528 0.00060615208889 0.00060215995188 0.00059822470191 0.00059434715049 0.00059052788619 0.00058676727907 
0.00058306584699 0.00057765053854 0.00057398035511 0.00057037062389 0.00056682125601 0.00056333088602 0.00055989796971 0.00055652115345 0.00055319847224 
0.00054992802954 0.00054670793277 0.00054353659517 0.00054041151058 0.00053733079372 0.00053429255317 0.00053129404714 0.00052833283156 0.00052540613401 
0.00052251249534 0.00051965022372 0.00051681862283 0.00051401835744 0.00051125024231 0.00050851573165 0.00050581656102 0.00050315414731 0.00050052997569 
0.00049794532182 0.00049540128692 0.00049289884288 0.00048850878299 0.00048607721908 0.00048368794267 0.00048134013169 0.00047903284011 0.0004767648981 
0.00047453473543 0.00047234128043 0.00047018324173 0.00046805891933 0.00046596690995 0.0004639057784 0.00046187344271 0.00045986801992 0.00045788745287 
0.0004559309203 0.00045399730128 0.00045208639888 0.00045019945109 0.00044833744787 0.00044650214641 0.00061973453306 0.00061555311363 0.00061143075297 
0.00060736693781 0.00060336133475 0.00059941421938 0.00059552623334 0.00059169774993 0.00058792913358 0.00058422068213 0.00057874186546 0.00057505249472 
0.00057142406084 0.00056785570012 0.00056434626473 0.00056089420024 0.0005574981302 0.00055415587176 0.00055086591856 0.00054762631362 0.00054443534758 
0.00054129088723 0.00053819111704 0.00053513378227 0.00053211675631 0.00052913767576 0.00052619378667 0.00052328368566 0.00052040587111 0.00051755961839 
0.00051474543966 0.0005119644183 0.00050921751778 0.00050650647324 0.00050383264055 0.0005011971541 0.00049860149309 0.00049604648699 0.00049353302099 
0.000488981806 0.00048653967619 0.00048413968097 0.0004817809686 0.00047946243969 0.000477183014 0.00047494134235 0.00047273631833 0.00047056657605 
0.00046843086107 0.00046632764347 0.00046425540053 0.00046221242474 0.00046019704295 0.00045820716512 0.0004562420395 0.00045430060252 0.00045238280538 
0.00045048960818 0.00044862219936 0.00044678200709 0.00062095407179 0.00061675440515 0.00061261589665 0.00060853785459 0.00060451996431 0.00060056231029 
0.00059666488513 0.00059282858475 0.00058905306776 0.00058533886535 0.00057980668471 0.0005760984877 0.00057245119753 0.0005688638945 0.00056533532998 
0.00056186407166 0.00055844835079 0.0005550865056 0.00055177692586 0.00054851752093 0.00054530674764 0.00054214259559 0.00053902348773 0.00053594716686 
0.00053291136067 0.00052991394063 0.0005269527541 0.00052402609064 0.00052113274521 0.0005182720019 0.00051544437553 0.00051265055816 0.00050989177571 
0.00050716894363 0.00050448399663 0.0005018375728 0.00049923119704 0.00049666542892 0.00049414112879 0.00048943033411 0.00048697760517 0.00048456679209 
0.00048219708147 0.00047986724189 0.00047757632344 0.00047532305724 0.00047310630656 0.00047092481069 0.00046877730272 0.00046666273887 0.00046457943725 
0.00046252565394 0.00046049989238 0.00045850067743 0.00045652679681 0.00045457769937 0.00045265320898 0.00045075417157 0.00044888160381 0.00044703688804 
0.00062278631725 0.00061841842248 0.00061412907062 0.00060992007006 0.00060579391614 0.00060175335333 0.00059780184951 0.00059394280056 0.00059017938926 
0.00058651580615 0.00058090852761 0.00057721480328 0.00057358003859 0.00057000374869 0.00056648463174 0.00056302150543 0.00055961254581 0.00055625606287 
0.00055295047622 0.00054969419522 0.00054648517034 0.00054332213605 0.0005402028316 0.00053712558432 0.00053408818902 0.00053108844579 0.00052812443466 
0.00052519469154 0.00052229773302 0.00051943325268 0.00051660125484 0.00051380246501 0.00051103752849 0.00050830769248 0.00050561411105 0.00050295752028 
0.00050033906498 0.00049775927682 0.00049521879398 0.00049063249393 0.00048816128453 0.00048572947508 0.00048333652111 0.00048098157147 0.00047866364986 
0.00047638205901 0.00047413591374 0.00047192405063 0.00046974593229 0.00046760021028 0.0004654859375 0.00046340175272 0.00046134635648 0.00045931875487 
0.00045731827698 0.00045534439873 0.00045339757222 0.00045147851184 0.00044958867222 0.00044772918955 0.00062407840168 0.00061969208229 0.00061538536221 
0.00061116025232 0.00060701891727 0.00060296394614 0.00059899840158 0.00059512555591 0.00059134826183 0.00058766992373 0.00058196931929 0.00057825412045 
0.00057459831075 0.00057100091693 0.00056746097277 0.00056397683252 0.00056054685264 0.0005571696337 0.00055384345416 0.00055056675312 0.00054733780138 
0.00054415506286 0.00054101645079 0.00053792026285 0.00053486456493 0.00053184726708 0.00052886648329 0.00052592096784 0.00052300936189 0.00052013109935 
0.00051728645455 0.00051447576042 0.00051169965532 0.00050895905685 0.00050625495241 0.00050358791669 0.00050095902287 0.00049836875461 0.00049581759735 
0.00049136079286 0.00048887826712 0.00048643516703 0.00048403072567 0.00048166408579 0.00047933459724 0.00047704157581 0.00047478382096 0.00047256085502 
0.00047037149155 0.00046821487555 0.00046608987402 0.00046399552591 0.00046193040419 0.00045989376539 0.00045788497895 0.00045590358859 0.00045394990748 
0.0004520248564 0.00045012943906 0.0004482649638 0.00062546973297 0.00062106388248 0.00061673873883 0.00061249607927 0.00060833801969 0.00060426692896 
0.00060028585411 0.00059639749307 0.00059260466672 0.00058891075637 0.0005831329009 0.00057939559992 0.00057571778612 0.00057209883523 0.00056853717924 
0.00056503136662 0.00056158027843 0.00055818203215 0.00055483498871 0.00055153771055 0.00054828859395 0.00054508559627 0.00054192734424 0.00053881235434 
0.00053573799195 0.00053270290479 0.00052970514355 0.00052674344362 0.00052381689057 0.00052092453744 0.00051806662242 0.00051524342363 0.00051245543907 
0.00050970348755 0.00050698812176 0.0005043101124 0.00050167030909 0.00049906897428 0.00049650653592 0.00049217997411 0.00048968562436 0.00048723048115 
0.00048481397605 0.00048243555752 0.00048009428645 0.00047778930269 0.00047551995993 0.00047328539225 0.00047108447843 0.00046891662123 0.00046678097502 
0.00046467598298 0.00046260084419 0.00046055486742 0.0004585372972 0.00045654807964 0.00045458724698 0.00045265552144 0.00045075396503 0.00044888369518 
0.0006269928678 0.00062256601829 0.00061822100827 0.00061395934995 0.00060978283004 0.00060569391925 0.00060169533419 0.00059778929888 0.00059397904949 
0.00059026736125 0.00058442791166 0.00058066782977 0.00057696737572 0.00057332583145 0.00056974177708 0.00056621390636 0.00056274088273 0.00055932095548 
0.00055595261269 0.00055263441801 0.00054936468971 0.00054614179636 0.00054296378911 0.00053982935921 0.00053673648304 0.00053368315893 0.00053066828579 
0.00052769016461 0.00052474791642 0.00052184091852 0.00051896916526 0.00051613265658 0.00051333187487 0.00051056774039 0.00050784009805 0.00050515014284 
0.00050249837224 0.00049988516019 0.00049731081234 0.00049311502958 0.00049060813652 0.00048814036415 0.00048571137294 0.00048332053633 0.00048096687286 
0.00047864969642 0.00047636842222 0.00047412189926 0.0004719096151 0.00046973036651 0.00046758361292 0.00046546793029 0.00046338248503 0.00046132691445 
0.00045930027808 0.00045730254974 0.00045533390428 0.00045339489827 0.00045148646273 0.00044960951634 0.00062867073639 0.00062422159573 0.0006198550504 
0.00061557231022 0.00061137553048 0.00060726697526 0.00060324859047 0.00059932299425 0.0005954929649 0.00059176159631 0.00058587512791 0.00058209082361 
0.00057836680394 0.00057470191658 0.00057109487466 0.00056754422197 0.00056404859897 0.00056060660412 0.0005572167078 0.00055387735489 0.00055058674331 
0.00054734346092 0.00054414558569 0.00054099162482 0.00053787978229 0.00053480827573 0.00053177570698 0.00052878068063 0.00052582235789 0.00052289994365 
0.0005200132303 0.0005171625232 0.00051434824054 0.00051157045589 0.00050882973324 0.00050612661528 0.00050346193192 0.00050083564546 0.00049824825546 
0.0004941836492 0.00049166339129 0.00048918254173 0.00048674050134 0.00048433661008 0.00048197017262 0.0004796406156 0.00047734706645 0.00047508855455 
0.00047286449937 0.0004706736154 0.00046851549175 0.00046638898869 0.0004642931592 0.0004622274606 0.00046019132881 0.00045818471372 0.00045620752049 
0.00045426022759 0.00045234399725 0.00045045967663 0.00063051828815 0.00062604527131 0.00062165546532 0.00061735010023 0.00061313092402 0.00060900021272 