# vtk DataFile Version 5.1
vtk output
ASCII
DATASET STRUCTURED_POINTS
DIMENSIONS 20 20 20
SPACING 2e-05 2e-05 2e-05
ORIGIN 3.69981 -0.00019 0.99981
POINT_DATA 8000
FIELD FieldData 1
potential 1 8000 double
0.0009390946358 0.00093909267494 0.00093909071409 0.00093908875324 0.00093908679241 0.00093908483159 0.00093908287078 0.00093908090998 0.00093907894919 
0.0009390769884 0.00093907502763 0.00093907306688 0.00093907110613 0.00093906914539 0.00093906718466 0.00093906522394 0.00093906326323 0.00093906130254 
0.00093905934185 0.00093905738117 0.00093909350395 0.00093909154309 0.00093908958224 0.0009390876214 0.00093908566057 0.00093908369976 0.00093908173895 
0.00093907977815 0.00093907781737 0.00093907585659 0.00093907389583 0.00093907193508 0.00093906997433 0.0009390680136 0.00093906605288 0.00093906409216 
0.00093906213146 0.00093906017077 0.00093905821009 0.00093905624942 0.0009390923721 0.00093909041124 0.0009390884504 0.00093908648957 0.00093908452874 
0.00093908256793 0.00093908060713 0.00093907864634 0.00093907668556 0.00093907472479 0.00093907276403 0.00093907080328 0.00093906884254 0.00093906688182 
0.0009390649211 0.00093906296039 0.00093906099969 0.00093905903901 0.00093905707833 0.00093905511767 0.00093909124025 0.0009390892794 0.00093908731857 
0.00093908535774 0.00093908339692 0.00093908143612 0.00093907947532 0.00093907751454 0.00093907555376 0.000939073593 0.00093907163224 0.0009390696715 
0.00093906771076 0.00093906575004 0.00093906378933 0.00093906182863 0.00093905986794 0.00093905790725 0.00093905594658 0.00093905398592 0.00093909010842 
0.00093908814758 0.00093908618674 0.00093908422592 0.00093908226511 0.00093908030431 0.00093907834352 0.00093907638274 0.00093907442197 0.00093907246121 
0.00093907050046 0.00093906853972 0.00093906657899 0.00093906461828 0.00093906265757 0.00093906069687 0.00093905873619 0.00093905677551 0.00093905481484 
0.00093905285419 0.00093908897659 0.00093908701575 0.00093908505493 0.00093908309411 0.0009390811333 0.00093907917251 0.00093907721172 0.00093907525095 
0.00093907329018 0.00093907132943 0.00093906936869 0.00093906740795 0.00093906544723 0.00093906348652 0.00093906152581 0.00093905956512 0.00093905760444 
0.00093905564377 0.00093905368311 0.00093905172246 0.00093908784477 0.00093908588394 0.00093908392312 0.00093908196231 0.00093908000151 0.00093907804071 
0.00093907607993 0.00093907411917 0.00093907215841 0.00093907019766 0.00093906823692 0.00093906627619 0.00093906431547 0.00093906235477 0.00093906039407 
0.00093905843338 0.00093905647271 0.00093905451204 0.00093905255139 0.00093905059074 0.00093908671296 0.00093908475213 0.00093908279132 0.00093908083051 
0.00093907886972 0.00093907690893 0.00093907494815 0.00093907298739 0.00093907102664 0.00093906906589 0.00093906710516 0.00093906514444 0.00093906318372 
0.00093906122302 0.00093905926233 0.00093905730165 0.00093905534098 0.00093905338032 0.00093905141967 0.00093904945903 0.00093908558116 0.00093908362034 
0.00093908165952 0.00093907969872 0.00093907773793 0.00093907577715 0.00093907381638 0.00093907185562 0.00093906989487 0.00093906793414 0.00093906597341 
0.00093906401269 0.00093906205198 0.00093906009129 0.0009390581306 0.00093905616993 0.00093905420926 0.00093905224861 0.00093905028796 0.00093904832733 
0.00093908444936 0.00093908248854 0.00093908052774 0.00093907856694 0.00093907660616 0.00093907464538 0.00093907268462 0.00093907072386 0.00093906876312 
0.00093906680239 0.00093906484167 0.00093906288095 0.00093906092025 0.00093905895956 0.00093905699888 0.00093905503821 0.00093905307755 0.0009390511169 
0.00093904915626 0.00093904719563 0.00093908331757 0.00093908135676 0.00093907939596 0.00093907743517 0.00093907547439 0.00093907351362 0.00093907155286 
0.00093906959211 0.00093906763138 0.00093906567065 0.00093906370993 0.00093906174922 0.00093905978853 0.00093905782784 0.00093905586716 0.0009390539065 
0.00093905194584 0.0009390499852 0.00093904802457 0.00093904606394 0.00093908218579 0.00093908022499 0.00093907826419 0.00093907630341 0.00093907434263 
0.00093907238187 0.00093907042111 0.00093906846037 0.00093906649964 0.00093906453891 0.0009390625782 0.0009390606175 0.00093905865681 0.00093905669613 
0.00093905473546 0.0009390527748 0.00093905081415 0.00093904885351 0.00093904689288 0.00093904493226 0.00093908105402 0.00093907909322 0.00093907713243 
0.00093907517165 0.00093907321088 0.00093907125012 0.00093906928937 0.00093906732863 0.00093906536791 0.00093906340719 0.00093906144648 0.00093905948579 
0.0009390575251 0.00093905556442 0.00093905360376 0.0009390516431 0.00093904968246 0.00093904772183 0.0009390457612 0.00093904380059 0.00093907992226 
0.00093907796146 0.00093907600067 0.0009390740399 0.00093907207914 0.00093907011838 0.00093906815764 0.00093906619691 0.00093906423618 0.00093906227547 
0.00093906031477 0.00093905835408 0.0009390563934 0.00093905443273 0.00093905247207 0.00093905051142 0.00093904855078 0.00093904659015 0.00093904462953 
0.00093904266892 0.0009390787905 0.00093907682971 0.00093907486893 0.00093907290816 0.0009390709474 0.00093906898665 0.00093906702591 0.00093906506519 
0.00093906310447 0.00093906114376 0.00093905918307 0.00093905722238 0.0009390552617 0.00093905330104 0.00093905134038 0.00093904937974 0.00093904741911 
0.00093904545848 0.00093904349787 0.00093904153727 0.00093907765875 0.00093907569796 0.00093907373719 0.00093907177643 0.00093906981567 0.00093906785493 
0.0009390658942 0.00093906393347 0.00093906197276 0.00093906001206 0.00093905805137 0.00093905609069 0.00093905413002 0.00093905216936 0.00093905020871 
0.00093904824807 0.00093904628744 0.00093904432682 0.00093904236622 0.00093904040562 0.00093907652701 0.00093907456623 0.00093907260546 0.0009390706447 
0.00093906868395 0.00093906672321 0.00093906476249 0.00093906280177 0.00093906084106 0.00093905888037 0.00093905691968 0.000939054959 0.00093905299834 
0.00093905103769 0.00093904907704 0.00093904711641 0.00093904515578 0.00093904319517 0.00093904123457 0.00093903927398 0.00093907539527 0.0009390734345 
0.00093907147374 0.00093906951298 0.00093906755224 0.00093906559151 0.00093906363078 0.00093906167007 0.00093905970937 0.00093905774868 0.000939055788 
0.00093905382733 0.00093905186667 0.00093904990602 0.00093904794538 0.00093904598475 0.00093904402413 0.00093904206353 0.00093904010293 0.00093903814234 
0.00093907426355 0.00093907230278 0.00093907034202 0.00093906838127 0.00093906642053 0.00093906445981 0.00093906249909 0.00093906053838 0.00093905857769 
0.000939056617 0.00093905465633 0.00093905269566 0.00093905073501 0.00093904877436 0.00093904681373 0.00093904485311 0.00093904289249 0.00093904093189 
0.0009390389713 0.00093903701072 0.00093907313183 0.00093907117107 0.00093906921031 0.00093906724957 0.00093906528884 0.00093906332811 0.0009390613674 
0.0009390594067 0.00093905744601 0.00093905548533 0.00093905352466 0.000939051564 0.00093904960335 0.00093904764271 0.00093904568208 0.00093904372147 
0.00093904176086 0.00093903980026 0.00093903783967 0.0009390358791 0.00093911215191 0.00093911019101 0.00093910823012 0.00093910626925 0.00093910430838 
0.00093910234752 0.00093910038668 0.00093909842584 0.00093909646502 0.0009390945042 0.0009390925434 0.00093909058261 0.00093908862182 0.00093908666105 
0.00093908470029 0.00093908273954 0.00093908077879 0.00093907881806 0.00093907685734 0.00093907489663 0.00093911102003 0.00093910905914 0.00093910709826 
0.00093910513739 0.00093910317652 0.00093910121567 0.00093909925483 0.000939097294 0.00093909533318 0.00093909337238 0.00093909141158 0.00093908945079 
0.00093908749001 0.00093908552924 0.00093908356849 0.00093908160774 0.000939079647 0.00093907768628 0.00093907572556 0.00093907376486 0.00093910988816 
0.00093910792728 0.0009391059664 0.00093910400553 0.00093910204468 0.00093910008383 0.000939098123 0.00093909616217 0.00093909420136 0.00093909224055 
0.00093909027976 0.00093908831898 0.00093908635821 0.00093908439744 0.00093908243669 0.00093908047595 0.00093907851522 0.0009390765545 0.00093907459379 
0.00093907263309 0.0009391087563 0.00093910679542 0.00093910483455 0.00093910287369 0.00093910091284 0.000939098952 0.00093909699117 0.00093909503035 
0.00093909306954 0.00093909110874 0.00093908914795 0.00093908718718 0.00093908522641 0.00093908326565 0.00093908130491 0.00093907934417 0.00093907738344 
0.00093907542273 0.00093907346202 0.00093907150133 0.00093910762445 0.00093910566358 0.00093910370271 0.00093910174185 0.00093909978101 0.00093909782017 
0.00093909585935 0.00093909389853 0.00093909193773 0.00093908997694 0.00093908801615 0.00093908605538 0.00093908409462 0.00093908213387 0.00093908017313 
0.0009390782124 0.00093907625168 0.00093907429097 0.00093907233027 0.00093907036958 0.00093910649261 0.00093910453174 0.00093910257088 0.00093910061002 
0.00093909864918 0.00093909668835 0.00093909472754 0.00093909276673 0.00093909080593 0.00093908884514 0.00093908688436 0.0009390849236 0.00093908296284 
0.00093908100209 0.00093907904136 0.00093907708063 0.00093907511992 0.00093907315921 0.00093907119852 0.00093906923783 0.00093910536077 0.0009391033999 
0.00093910143905 0.0009390994782 0.00093909751737 0.00093909555654 0.00093909359573 0.00093909163493 0.00093908967413 0.00093908771335 0.00093908575258 
0.00093908379182 0.00093908183106 0.00093907987032 0.00093907790959 0.00093907594887 0.00093907398816 0.00093907202746 0.00093907006677 0.0009390681061 
0.00093910422894 0.00093910226808 0.00093910030723 0.00093909834639 0.00093909638556 0.00093909442474 0.00093909246393 0.00093909050313 0.00093908854235 
0.00093908658157 0.0009390846208 0.00093908266005 0.0009390806993 0.00093907873856 0.00093907677784 0.00093907481712 0.00093907285642 0.00093907089572 
0.00093906893504 0.00093906697437 0.00093910309712 0.00093910113627 0.00093909917542 0.00093909721459 0.00093909525376 0.00093909329295 0.00093909133214 
0.00093908937135 0.00093908741057 0.0009390854498 0.00093908348903 0.00093908152828 0.00093907956754 0.00093907760681 0.00093907564609 0.00093907368538 
0.00093907172468 0.00093906976399 0.00093906780331 0.00093906584265 0.00093910196531 0.00093910000446 0.00093909804362 0.00093909608279 0.00093909412197 
0.00093909216116 0.00093909020036 0.00093908823957 0.0009390862788 0.00093908431803 0.00093908235727 0.00093908039653 0.00093907843579 0.00093907647507 
0.00093907451435 0.00093907255365 0.00093907059295 0.00093906863227 0.0009390666716 0.00093906471093 0.0009391008335 0.00093909887266 0.00093909691182 
0.000939094951 0.00093909299018 0.00093909102938 0.00093908906859 0.00093908710781 0.00093908514703 0.00093908318627 0.00093908122552 0.00093907926478 
0.00093907730405 0.00093907534333 0.00093907338262 0.00093907142192 0.00093906946123 0.00093906750055 0.00093906553988 0.00093906357923 0.0009390997017 
0.00093909774086 0.00093909578004 0.00093909381922 0.00093909185841 0.00093908989761 0.00093908793682 0.00093908597604 0.00093908401528 0.00093908205452 
0.00093908009377 0.00093907813304 0.00093907617231 0.0009390742116 0.00093907225089 0.0009390702902 0.00093906832952 0.00093906636884 0.00093906440818 
0.00093906244753 0.00093909856991 0.00093909660908 0.00093909464826 0.00093909268744 0.00093909072664 0.00093908876585 0.00093908680506 0.00093908484429 
0.00093908288353 0.00093908092278 0.00093907896204 0.00093907700131 0.00093907504059 0.00093907307988 0.00093907111918 0.00093906915849 0.00093906719781 
0.00093906523714 0.00093906327649 0.00093906131584 0.00093909743813 0.0009390954773 0.00093909351648 0.00093909155568 0.00093908959488 0.00093908763409 
0.00093908567331 0.00093908371255 0.00093908175179 0.00093907979104 0.00093907783031 0.00093907586958 0.00093907390887 0.00093907194816 0.00093906998747 
0.00093906802679 0.00093906606611 0.00093906410545 0.0009390621448 0.00093906018416 0.00093909630636 0.00093909434553 0.00093909238472 0.00093909042392 
0.00093908846312 0.00093908650234 0.00093908454157 0.00093908258081 0.00093908062006 0.00093907865932 0.00093907669859 0.00093907473787 0.00093907277716 
0.00093907081646 0.00093906885577 0.00093906689509 0.00093906493442 0.00093906297377 0.00093906101312 0.00093905905248 0.00093909517459 0.00093909321377 
0.00093909125296 0.00093908929217 0.00093908733138 0.0009390853706 0.00093908340983 0.00093908144908 0.00093907948833 0.0009390775276 0.00093907556687 
0.00093907360616 0.00093907164545 0.00093906968476 0.00093906772408 0.0009390657634 0.00093906380274 0.00093906184209 0.00093905988145 0.00093905792081 
0.00093909404283 0.00093909208202 0.00093909012122 0.00093908816042 0.00093908619964 0.00093908423887 0.00093908227811 0.00093908031736 0.00093907835662 
0.00093907639588 0.00093907443517 0.00093907247446 0.00093907051376 0.00093906855307 0.00093906659239 0.00093906463172 0.00093906267107 0.00093906071042 
0.00093905874978 0.00093905678916 0.00093909291108 0.00093909095027 0.00093908898948 0.00093908702869 0.00093908506791 0.00093908310714 0.00093908114639 
0.00093907918564 0.00093907722491 0.00093907526418 0.00093907330347 0.00093907134276 0.00093906938207 0.00093906742139 0.00093906546071 0.00093906350005 
0.0009390615394 0.00093905957876 0.00093905761813 0.0009390556575 0.00093909177934 0.00093908981853 0.00093908785774 0.00093908589696 0.00093908393619 
0.00093908197543 0.00093908001468 0.00093907805394 0.0009390760932 0.00093907413249 0.00093907217178 0.00093907021108 0.00093906825039 0.00093906628971 
0.00093906432904 0.00093906236839 0.00093906040774 0.0009390584471 0.00093905648648 0.00093905452586 0.0009390906476 0.0009390886868 0.00093908672602 
0.00093908476524 0.00093908280447 0.00093908084372 0.00093907888297 0.00093907692224 0.00093907496151 0.0009390730008 0.00093907104009 0.0009390690794 
0.00093906711872 0.00093906515804 0.00093906319738 0.00093906123673 0.00093905927609 0.00093905731546 0.00093905535484 0.00093905339423 0.00093912966799 
0.00093912770706 0.00093912574614 0.00093912378523 0.00093912182433 0.00093911986344 0.00093911790256 0.00093911594169 0.00093911398083 0.00093911201998 
0.00093911005915 0.00093910809832 0.0009391061375 0.00093910417669 0.0009391022159 0.00093910025511 0.00093909829434 0.00093909633357 0.00093909437282 
0.00093909241207 0.0009391285361 0.00093912657517 0.00093912461426 0.00093912265335 0.00093912069246 0.00093911873157 0.0009391167707 0.00093911480983 
0.00093911284898 0.00093911088814 0.00093910892731 0.00093910696648 0.00093910500567 0.00093910304487 0.00093910108408 0.0009390991233 0.00093909716253 
0.00093909520177 0.00093909324102 0.00093909128028 0.00093912740422 0.00093912544329 0.00093912348238 0.00093912152148 0.00093911956059 0.00093911759971 
0.00093911563884 0.00093911367799 0.00093911171714 0.0009391097563 0.00093910779547 0.00093910583466 0.00093910387385 0.00093910191305 0.00093909995227 
0.00093909799149 0.00093909603073 0.00093909406997 0.00093909210923 0.0009390901485 0.00093912627234 0.00093912431142 0.00093912235052 0.00093912038962 
0.00093911842874 0.00093911646786 0.000939114507 0.00093911254615 0.0009391105853 0.00093910862447 0.00093910666365 0.00093910470284 0.00093910274203 
0.00093910078124 0.00093909882046 0.00093909685969 0.00093909489893 0.00093909293818 0.00093909097745 0.00093908901672 0.00093912514047 0.00093912317956 
0.00093912121866 0.00093911925777 0.00093911729689 0.00093911533602 0.00093911337516 0.00093911141431 0.00093910945347 0.00093910749265 0.00093910553183 
0.00093910357102 0.00093910161023 0.00093909964944 0.00093909768867 0.0009390957279 0.00093909376715 0.0009390918064 0.00093908984567 0.00093908788495 
0.00093912400861 0.0009391220477 0.00093912008681 0.00093911812592 0.00093911616505 0.00093911420418 0.00093911224333 0.00093911028249 0.00093910832165 
0.00093910636083 0.00093910440002 0.00093910243922 0.00093910047843 0.00093909851765 0.00093909655688 0.00093909459612 0.00093909263537 0.00093909067463 
0.0009390887139 0.00093908675319 0.00093912287675 0.00093912091585 0.00093911895496 0.00093911699408 0.00093911503321 0.00093911307236 0.00093911111151 
0.00093910915067 0.00093910718984 0.00093910522903 0.00093910326822 0.00093910130742 0.00093909934664 0.00093909738586 0.0009390954251 0.00093909346434 
0.0009390915036 0.00093908954287 0.00093908758214 0.00093908562143 0.00093912174491 0.00093911978401 0.00093911782313 0.00093911586225 0.00093911390139 
0.00093911194054 0.00093910997969 0.00093910801886 0.00093910605804 0.00093910409723 0.00093910213643 0.00093910017564 0.00093909821486 0.00093909625409 
0.00093909429333 0.00093909233258 0.00093909037184 0.00093908841111 0.00093908645039 0.00093908448969 0.00093912061307 0.00093911865218 0.0009391166913 
0.00093911473043 0.00093911276957 0.00093911080872 0.00093910884789 0.00093910688706 0.00093910492624 0.00093910296544 0.00093910100464 0.00093909904385 
0.00093909708308 0.00093909512232 0.00093909316156 0.00093909120082 0.00093908924008 0.00093908727936 0.00093908531865 0.00093908335795 0.00093911948124 
0.00093911752035 0.00093911555948 0.00093911359861 0.00093911163776 0.00093910967692 0.00093910771609 0.00093910575526 0.00093910379445 0.00093910183365 
0.00093909987286 0.00093909791208 0.00093909595131 0.00093909399055 0.0009390920298 0.00093909006907 0.00093908810834 0.00093908614762 0.00093908418691 
0.00093908222622 0.00093911834941 0.00093911638853 0.00093911442767 0.00093911246681 0.00093911050596 0.00093910854512 0.0009391065843 0.00093910462348 
0.00093910266267 0.00093910070188 0.00093909874109 0.00093909678032 0.00093909481955 0.0009390928588 0.00093909089805 0.00093908893732 0.0009390869766 
0.00093908501589 0.00093908305518 0.00093908109449 0.0009391172176 0.00093911525672 0.00093911329586 0.00093911133501 0.00093910937417 0.00093910741333 
0.00093910545251 0.0009391034917 0.0009391015309 0.00093909957011 0.00093909760933 0.00093909564856 0.0009390936878 0.00093909172705 0.00093908976631 
0.00093908780558 0.00093908584487 0.00093908388416 0.00093908192346 0.00093907996278 0.00093911608579 0.00093911412492 0.00093911216406 0.00093911020322 
0.00093910824238 0.00093910628155 0.00093910432074 0.00093910235993 0.00093910039913 0.00093909843835 0.00093909647757 0.00093909451681 0.00093909255606 
0.00093909059531 0.00093908863458 0.00093908667386 0.00093908471314 0.00093908275244 0.00093908079175 0.00093907883107 0.00093911495399 0.00093911299313 
0.00093911103228 0.00093910907143 0.0009391071106 0.00093910514978 0.00093910318897 0.00093910122817 0.00093909926738 0.0009390973066 0.00093909534583 
0.00093909338507 0.00093909142432 0.00093908946358 0.00093908750285 0.00093908554214 0.00093908358143 0.00093908162073 0.00093907966005 0.00093907769937 
0.0009391138222 0.00093911186134 0.00093910990049 0.00093910793966 0.00093910597883 0.00093910401801 0.00093910205721 0.00093910009641 0.00093909813563 
0.00093909617485 0.00093909421409 0.00093909225333 0.00093909029259 0.00093908833186 0.00093908637113 0.00093908441042 0.00093908244972 0.00093908048903 
0.00093907852835 0.00093907656768 0.00093911269042 0.00093911072956 0.00093910876872 0.00093910680789 0.00093910484707 0.00093910288626 0.00093910092545 
0.00093909896466 0.00093909700388 0.00093909504311 0.00093909308236 0.00093909112161 0.00093908916087 0.00093908720014 0.00093908523942 0.00093908327872 
0.00093908131802 0.00093907935733 0.00093907739666 0.00093907543599 0.00093911155864 0.00093910959779 0.00093910763695 0.00093910567613 0.00093910371531 
0.00093910175451 0.00093909979371 0.00093909783292 0.00093909587215 0.00093909391139 0.00093909195063 0.00093908998989 0.00093908802916 0.00093908606843 
0.00093908410772 0.00093908214702 0.00093908018633 0.00093907822565 0.00093907626498 0.00093907430432 0.00093911042687 0.00093910846603 0.0009391065052 
0.00093910454437 0.00093910258356 0.00093910062276 0.00093909866197 0.00093909670119 0.00093909474042 0.00093909277966 0.00093909081892 0.00093908885818 
0.00093908689745 0.00093908493673 0.00093908297603 0.00093908101533 0.00093907905464 0.00093907709397 0.0009390751333 0.00093907317265 0.00093910929511 
0.00093910733427 0.00093910537345 0.00093910341263 0.00093910145182 0.00093909949103 0.00093909753024 0.00093909556947 0.0009390936087 0.00093909164795 
0.00093908968721 0.00093908772647 0.00093908576575 0.00093908380504 0.00093908184434 0.00093907988365 0.00093907792297 0.0009390759623 0.00093907400164 
0.00093907204099 0.00093910816336 0.00093910620252 0.0009391042417 0.00093910228089 0.00093910032009 0.0009390983593 0.00093909639852 0.00093909443775 
0.00093909247699 0.00093909051625 0.00093908855551 0.00093908659478 0.00093908463406 0.00093908267336 0.00093908071266 0.00093907875197 0.0009390767913 
0.00093907483063 0.00093907286998 0.00093907090933 0.00093914718406 0.0009391452231 0.00093914326214 0.0009391413012 0.00093913934026 0.00093913737934 
0.00093913541842 0.00093913345752 0.00093913149663 0.00093912953575 0.00093912757487 0.00093912561401 0.00093912365316 0.00093912169232 0.00093911973149 
0.00093911777067 0.00093911580986 0.00093911384906 0.00093911188827 0.0009391099275 0.00093914605215 0.00093914409119 0.00093914213024 0.0009391401693 
0.00093913820837 0.00093913624745 0.00093913428654 0.00093913232565 0.00093913036476 0.00093912840388 0.00093912644302 0.00093912448216 0.00093912252131 
0.00093912056048 0.00093911859965 0.00093911663884 0.00093911467804 0.00093911271724 0.00093911075646 0.00093910879569 0.00093914492025 0.00093914295929 
0.00093914099835 0.00093913903741 0.00093913707649 0.00093913511558 0.00093913315467 0.00093913119378 0.0009391292329 0.00093912727203 0.00093912531117 
0.00093912335031 0.00093912138947 0.00093911942864 0.00093911746782 0.00093911550702 0.00093911354622 0.00093911158543 0.00093910962465 0.00093910766388 
0.00093914378835 0.0009391418274 0.00093913986646 0.00093913790553 0.00093913594462 0.00093913398371 0.00093913202281 0.00093913006192 0.00093912810105 
0.00093912614018 0.00093912417932 0.00093912221848 0.00093912025764 0.00093911829682 0.000939116336 0.0009391143752 0.00093911241441 0.00093911045362 
0.00093910849285 0.00093910653209 0.00093914265647 0.00093914069552 0.00093913873459 0.00093913677366 0.00093913481275 0.00093913285185 0.00093913089095 
0.00093912893007 0.0009391269692 0.00093912500834 0.00093912304749 0.00093912108665 0.00093911912582 0.000939117165 0.00093911520419 0.00093911324339 
0.0009391112826 0.00093910932182 0.00093910736106 0.0009391054003 0.00093914152459 0.00093913956365 0.00093913760272 0.0009391356418 0.00093913368089 
0.00093913171999 0.00093912975911 0.00093912779823 0.00093912583736 0.00093912387651 0.00093912191566 0.00093911995483 0.000939117994 0.00093911603319 
0.00093911407238 0.00093911211159 0.00093911015081 0.00093910819003 0.00093910622927 0.00093910426852 0.00093914039272 0.00093913843178 0.00093913647086 
0.00093913450994 0.00093913254904 0.00093913058815 0.00093912862727 0.0009391266664 0.00093912470553 0.00093912274468 0.00093912078384 0.00093911882301 
0.00093911686219 0.00093911490138 0.00093911294059 0.0009391109798 0.00093910901902 0.00093910705825 0.0009391050975 0.00093910313675 0.00093913926085 
0.00093913729992 0.000939135339 0.0009391333781 0.0009391314172 0.00093912945631 0.00093912749543 0.00093912553457 0.00093912357371 0.00093912161287 
0.00093911965203 0.00093911769121 0.00093911573039 0.00093911376959 0.0009391118088 0.00093910984801 0.00093910788724 0.00093910592648 0.00093910396573 
0.00093910200499 0.000939138129 0.00093913616807 0.00093913420716 0.00093913224626 0.00093913028536 0.00093912832448 0.00093912636361 0.00093912440275 
0.0009391224419 0.00093912048106 0.00093911852023 0.00093911655941 0.0009391145986 0.0009391126378 0.00093911067701 0.00093910871624 0.00093910675547 
0.00093910479471 0.00093910283397 0.00093910087323 0.00093913699715 0.00093913503623 0.00093913307532 0.00093913111442 0.00093912915354 0.00093912719266 
0.00093912523179 0.00093912327094 0.00093912131009 0.00093911934926 0.00093911738843 0.00093911542762 0.00093911346681 0.00093911150602 0.00093910954524 
0.00093910758447 0.0009391056237 0.00093910366295 0.00093910170221 0.00093909974148 0.00093913586531 0.00093913390439 0.00093913194349 0.0009391299826 
0.00093912802172 0.00093912606085 0.00093912409998 0.00093912213913 0.00093912017829 0.00093911821746 0.00093911625664 0.00093911429584 0.00093911233504 
0.00093911037425 0.00093910841347 0.0009391064527 0.00093910449195 0.0009391025312 0.00093910057047 0.00093909860974 0.00093913473347 0.00093913277257 
0.00093913081167 0.00093912885078 0.00093912688991 0.00093912492904 0.00093912296818 0.00093912100734 0.0009391190465 0.00093911708568 0.00093911512486 
0.00093911316406 0.00093911120327 0.00093910924249 0.00093910728171 0.00093910532095 0.0009391033602 0.00093910139946 0.00093909943873 0.00093909747801 
0.00093913360165 0.00093913164075 0.00093912967985 0.00093912771897 0.0009391257581 0.00093912379724 0.00093912183639 0.00093911987555 0.00093911791472 
0.0009391159539 0.00093911399309 0.00093911203229 0.00093911007151 0.00093910811073 0.00093910614996 0.0009391041892 0.00093910222846 0.00093910026772 
0.000939098307 0.00093909634628 0.00093913246983 0.00093913050893 0.00093912854805 0.00093912658717 0.00093912462631 0.00093912266545 0.0009391207046 
0.00093911874377 0.00093911678295 0.00093911482213 0.00093911286133 0.00093911090053 0.00093910893975 0.00093910697898 0.00093910501822 0.00093910305747 
0.00093910109673 0.000939099136 0.00093909717527 0.00093909521457 0.00093913133802 0.00093912937713 0.00093912741625 0.00093912545538 0.00093912349452 
0.00093912153367 0.00093911957283 0.000939117612 0.00093911565118 0.00093911369037 0.00093911172957 0.00093910976878 0.00093910780801 0.00093910584724 
0.00093910388648 0.00093910192574 0.000939099965 0.00093909800428 0.00093909604356 0.00093909408286 0.00093913020622 0.00093912824533 0.00093912628446 
0.00093912432359 0.00093912236274 0.00093912040189 0.00093911844106 0.00093911648023 0.00093911451942 0.00093911255862 0.00093911059782 0.00093910863704 
0.00093910667627 0.00093910471551 0.00093910275475 0.00093910079401 0.00093909883328 0.00093909687256 0.00093909491185 0.00093909295115 0.00093912907443 
0.00093912711355 0.00093912515267 0.00093912319181 0.00093912123096 0.00093911927012 0.00093911730929 0.00093911534848 0.00093911338767 0.00093911142687 
0.00093910946608 0.0009391075053 0.00093910554454 0.00093910358378 0.00093910162303 0.0009390996623 0.00093909770157 0.00093909574086 0.00093909378015 
0.00093909181946 0.00093912794264 0.00093912598177 0.0009391240209 0.00093912206004 0.0009391200992 0.00093911813836 0.00093911617754 0.00093911421673 
0.00093911225592 0.00093911029513 0.00093910833435 0.00093910637358 0.00093910441281 0.00093910245206 0.00093910049132 0.00093909853059 0.00093909656987 
0.00093909460916 0.00093909264846 0.00093909068777 0.00093912681086 0.00093912484999 0.00093912288913 0.00093912092828 0.00093911896744 0.00093911700661 
0.00093911504579 0.00093911308498 0.00093911112419 0.0009391091634 0.00093910720262 0.00093910524185 0.0009391032811 0.00093910132035 0.00093909935962 
0.00093909739889 0.00093909543818 0.00093909347747 0.00093909151678 0.0009390895561 0.00093912567909 0.00093912371823 0.00093912175737 0.00093911979653 
0.00093911783569 0.00093911587487 0.00093911391405 0.00093911195325 0.00093910999246 0.00093910803168 0.0009391060709 0.00093910411014 0.00093910214939 
0.00093910018865 0.00093909822792 0.0009390962672 0.00093909430649 0.00093909234579 0.0009390903851 0.00093908842442 0.00093916470011 0.00093916273911 
0.00093916077812 0.00093915881714 0.00093915685617 0.00093915489522 0.00093915293427 0.00093915097333 0.00093914901241 0.00093914705149 0.00093914509058 
0.00093914312969 0.0009391411688 0.00093913920793 0.00093913724706 0.00093913528621 0.00093913332537 0.00093913136453 0.00093912940371 0.0009391274429 
0.00093916356818 0.00093916160719 0.0009391596462 0.00093915768523 0.00093915572427 0.00093915376332 0.00093915180237 0.00093914984144 0.00093914788052 
0.00093914591961 0.00093914395871 0.00093914199782 0.00093914003694 0.00093913807607 0.00093913611521 0.00093913415436 0.00093913219352 0.0009391302327 
0.00093912827188 0.00093912631107 0.00093916243626 0.00093916047527 0.00093915851429 0.00093915655333 0.00093915459237 0.00093915263142 0.00093915067048 
0.00093914870956 0.00093914674864 0.00093914478774 0.00093914282684 0.00093914086596 0.00093913890508 0.00093913694422 0.00093913498336 0.00093913302252 
0.00093913106169 0.00093912910087 0.00093912714005 0.00093912517925 0.00093916130435 0.00093915934337 0.00093915738239 0.00093915542143 0.00093915346048 
0.00093915149954 0.0009391495386 0.00093914757768 0.00093914561677 0.00093914365587 0.00093914169498 0.0009391397341 0.00093913777323 0.00093913581237 
0.00093913385152 0.00093913189069 0.00093912992986 0.00093912796904 0.00093912600824 0.00093912404744 0.00093916017245 0.00093915821147 0.0009391562505 
0.00093915428954 0.00093915232859 0.00093915036766 0.00093914840673 0.00093914644581 0.00093914448491 0.00093914252401 0.00093914056313 0.00093913860225 
0.00093913664139 0.00093913468054 0.00093913271969 0.00093913075886 0.00093912879804 0.00093912683723 0.00093912487643 0.00093912291563 0.00093915904055 
0.00093915707958 0.00093915511861 0.00093915315766 0.00093915119672 0.00093914923579 0.00093914727487 0.00093914531395 0.00093914335305 0.00093914139216 
0.00093913943128 0.00093913747042 0.00093913550956 0.00093913354871 0.00093913158787 0.00093912962704 0.00093912766623 0.00093912570542 0.00093912374462 
0.00093912178384 0.00093915790866 0.00093915594769 0.00093915398673 0.00093915202579 0.00093915006485 0.00093914810392 0.00093914614301 0.0009391441821 
0.00093914222121 0.00093914026032 0.00093913829945 0.00093913633858 0.00093913437773 0.00093913241689 0.00093913045606 0.00093912849523 0.00093912653442 
0.00093912457362 0.00093912261283 0.00093912065205 0.00093915677678 0.00093915481582 0.00093915285486 0.00093915089392 0.00093914893299 0.00093914697207 