# vtk DataFile Version 5.1
vtk output
ASCII
DATASET STRUCTURED_POINTS
DIMENSIONS 76 38 38
SPACING 0.002 0.002 0.002
ORIGIN 0.1914 -0.040672 0.03932
POINT_DATA 109744
FIELD FieldData 1
potential 1 109744 double
0.00053685239549 0.0005346774212 0.00053251747718 0.00053037249159 0.00052824318382 0.00052612938075 0.00052403167436 0.00052194987737 0.00051988439668 
0.00051783528683 0.0005158023345 0.00051378617922 0.00051178641373 0.00050980354351 0.00050783712438 0.00050588712238 0.00050395345422 0.00050203610465 
0.00050013447554 0.00049824881112 0.00049637843974 0.00049452306366 0.00049268252041 0.00049085622598 0.00048904388088 0.00048724530477 0.00048545962775 
0.00048368684333 0.00048192617169 0.00048017751208 0.00047844023732 0.00047671388939 0.00047499812168 0.00047329214167 0.00047159597054 0.00046990865125 
0.00046823001147 0.00046656026784 0.00046489817032 0.00046324407266 0.00046159807423 0.00045996007138 0.00045832974998 0.00045670739949 0.00045509324699 
0.00045348755291 0.00045189087302 0.00045030374357 0.00044872641027 0.00044715873186 0.0004456020406 0.00044405675922 0.00044252324549 0.0004410018575 
0.00043949300608 0.00043799683362 0.00043651362696 0.00043504326773 0.00043358558119 0.00043214063495 0.00043070736572 0.00042928587936 0.00042787534687 
0.0004264750257 0.00042508451164 0.00042370259099 0.00042232870913 0.00042096219987 0.00041960252939 0.00041824896512 0.00041690130457 0.00041555937244 
0.00041422279757 0.00041289203857 0.00041156738874 0.00041024868994 0.0005378512224 0.00053566691481 0.00053349781927 0.00053134394768 0.00052920586913 
0.00052708347831 0.00052497723431 0.00052288742062 0.00052081385397 0.00051875677165 0.00051671620789 0.00051469223586 0.00051268513123 0.00051069482849 
0.0005087210376 0.00050676402458 0.00050482322367 0.00050289860741 0.0005009903822 0.00049909752672 0.00049722028252 0.00049535818758 0.00049351064371 
0.00049167761945 0.00048985861055 0.00048805329004 0.00048626090802 0.00048448133091 0.00048271406386 0.00048095869006 0.000479214851 0.0004774819187 
0.00047575967073 0.00047404722733 0.00047234461112 0.00047065111688 0.00046896653797 0.00046729038765 0.00046562225473 0.00046396230372 0.00046231020224 
0.00046066606102 0.00045903005067 0.00045740196562 0.00045578219853 0.00045417104573 0.00045256915147 0.00045097686954 0.00044939451093 0.00044782240647 
0.00044626093706 0.00044471105879 0.0004431732137 0.000441647623 0.00044013471146 0.00043863458277 0.00043714723196 0.00043567274891 0.00043421114234 
0.0004327619654 0.00043132481353 0.00042989922696 0.00042848452222 0.00042707991546 0.0004256850609 0.00042429875459 0.00042292054555 0.00042154962912 
0.0004201855126 0.00041882780319 0.00041747587027 0.00041612949508 0.00041478911617 0.00041345438788 0.00041212572713 0.00041080343928 0.00053877798044 
0.00053658505266 0.00053440729224 0.00053224512495 0.00053009869694 0.00052796830206 0.00052585409996 0.00052375648494 0.00052167529273 0.00051961056099 
0.00051756286876 0.00051553178306 0.00051351761465 0.00051152022768 0.00050953967701 0.00050757561054 0.00050562805136 0.00050369669988 0.00050178163081 
0.00049988211751 0.00049799813278 0.00049612925078 0.00049427503666 0.00049243532911 0.0004906093571 0.0004887973425 0.000486998287 0.00048521214246 
0.00048343822353 0.00048167638173 0.00047992596666 0.0004781865816 0.00047645773797 0.00047473912207 0.00047303053194 0.0004713307011 0.00046963997231 
0.00046795808074 0.00046628421664 0.00046461841829 0.00046296065407 0.00046131084529 0.00045966959585 0.00045803583718 0.00045641094555 0.00045479483396 
0.00045318801949 0.00045159098283 0.00045000391709 0.0004484273176 0.00044686190957 0.00044530796896 0.00044376598351 0.00044223646094 0.00044071960674 
0.00043921564159 0.0004377246138 0.00043624610972 0.00043478060489 0.00043332748479 0.00043188638298 0.00043045673298 0.00042903790849 0.00042762907791 
0.00042622988781 0.00042483944131 0.00042345687985 0.0004220818126 0.0004207134192 0.00041935142678 0.00041799529597 0.00041664502574 0.0004153006144 
0.00041396214861 0.00041262991489 0.00041130397164 0.00053963889102 0.00053743771604 0.00053525210876 0.00053308189675 0.00053092767373 0.00052878972058 
0.00052666814076 0.0005245631215 0.00052247483508 0.00052040310797 0.00051834830898 0.0005163102509 0.00051428934782 0.00051228538406 0.00051029809658 
0.00050832751266 0.00050637343216 0.00050443554672 0.00050251379805 0.00050060767134 0.00049871709795 0.00049684158478 0.00049498088576 0.00049313426601 
0.00049130184892 0.00048948301235 0.00048767760151 0.0004858848108 0.00048410433334 0.00048233589738 0.00048057917107 0.00047883337144 0.00047709828054 
0.000475373773 0.00047365883673 0.00047195319065 0.00047025663514 0.00046856898172 0.00046688944347 0.00046521828505 0.00046355513345 0.00046190015523 
0.0004602533067 0.00045861496107 0.00045698514549 0.00045536446041 0.00045375311084 0.00045215140031 0.00045056015978 0.00044897955553 0.00044741018801 
0.00044585230031 0.00044430665485 0.00044277352927 0.00044125292052 0.00043974523975 0.00043825053619 0.0004367684924 0.000435299062 0.00043384198853 
0.00043239697431 0.00043096336223 0.00042954040449 0.00042812751424 0.00042672394299 0.00042532927193 0.00042394258569 0.00042256320537 0.00042119066655 
0.00041982454833 0.00041846446208 0.00041711021885 0.0004157621269 0.00041442017091 0.00041308435563 0.00041175519954 0.00054044190223 0.0005382329043 
0.0005360396219 0.00053386211464 0.0005317007881 0.00052955577761 0.00052742690926 0.0005253151201 0.00052322006796 0.00052114178701 0.00051908042497 
0.00051703583586 0.00051500839799 0.00051299788962 0.00051100420423 0.00050902704806 0.0005070667912 0.0005051224803 0.00050319427564 0.00050128189461 
0.00049938475477 0.0004975025935 0.0004956353138 0.00049378229373 0.00049194326005 0.00049011792562 0.00048830587764 0.00048650672667 0.00048471978951 
0.00048294503505 0.00048118179073 0.00047942995046 0.00047768861814 0.00047595788348 0.00047423712897 0.00047252574294 0.00047082353924 0.0004691303733 
0.00046744563293 0.0004657690031 0.00046410090616 0.00046244086164 0.00046078935198 0.00045914626645 0.00045751209993 0.00045588709606 0.00045427165172 
0.00045266579602 0.0004510706296 0.00044948612406 0.00044791305801 0.00044635170145 0.00044480248184 0.00044326565299 0.00044174166282 0.00044023036955 
0.00043873198395 0.00043724627375 0.00043577321825 0.00043431229499 0.00043286322453 0.00043142553076 0.00042999850228 0.0004285814366 0.00042717376205 
0.00042577473856 0.00042438377452 0.00042300021787 0.00042162366689 0.00042025334536 0.00041888943673 0.00041753158864 0.00041617987345 0.0004148344332 
0.00041349514334 0.00041216281513 0.00054119654521 0.00053898043919 0.00053678013611 0.0005345956951 0.00053242748384 0.00053027578887 0.00052814051295 
0.00052602222688 0.00052392059812 0.00052183596813 0.00051976828881 0.00051771760119 0.00051568384129 0.00051366719518 0.00051166720875 0.00050968386447 
0.00050771713144 0.00050576661069 0.00050383205122 0.00050191319639 0.00050000970983 0.00049812141287 0.00049624750294 0.00049438835905 0.00049254278444 
0.00049071078885 0.00048889243895 0.00048708665871 0.00048529349579 0.00048351243934 0.00048174307272 0.00047998504637 0.00047823791935 0.00047650117222 
0.00047477450341 0.00047305755012 0.00047134995179 0.00046965152457 0.00046796132776 0.00046627982942 0.00046460677462 0.00046294204996 0.000461286076 
0.00045963853898 0.00045800023451 0.00045637117631 0.00045475150106 0.00045314208024 0.00045154313814 0.00044995523732 0.0004483786689 0.00044681382576 
0.00044526134051 0.00044372106372 0.00044219352552 0.00044067887934 0.00043917693627 0.00043768756477 0.00043621070381 0.00043474598391 0.00043329304072 
0.0004318511299 0.00043041983546 0.00042899870702 0.00042758675939 0.00042618341814 0.00042478826612 0.00042340072565 0.00042201981311 0.00042064580213 
0.00041927790943 0.00041791633092 0.00041656098769 0.00041521195339 0.00041386990482 0.00041253461299 0.00054191416439 0.00053969128277 0.00053748419999 
0.0005352933279 0.00053311861799 0.00053096063708 0.00052881920133 0.00052669459128 0.00052458694844 0.00052249622003 0.00052042241102 0.00051836595759 
0.00051632622787 0.00051430324375 0.00051229716577 0.00051030764876 0.00050833485947 0.00050637805129 0.000504437279 0.00050251201923 0.00050060233547 
0.00049870761309 0.00049682753952 0.0004949618416 0.0004931099305 0.00049127174247 0.00048944693592 0.0004876347313 0.00048583533328 0.0004840480794 
0.00048227262981 0.00048050855025 0.00047875553805 0.00047701315785 0.0004752809178 0.00047355845648 0.00047184550314 0.0004701416239 0.0004684464774 
0.00046676004347 0.00046508221851 0.00046341312426 0.00046175282684 0.00046010135116 0.00045845887608 0.00045682598451 0.00045520275141 0.00045358977013 
0.00045198739362 0.00045039610495 0.00044881634437 0.00044724835261 0.0004456924738 0.00044414904169 0.00044261806404 0.00044109970618 0.00043959418022 
0.00043810127018 0.00043662055708 0.00043515193385 0.00043369492999 0.00043224906524 0.00043081339146 0.00042938801628 0.0004279718105 0.00042656409803 
0.00042516477235 0.00042377290879 0.00042238800981 0.00042100978767 0.00041963815055 0.00041827290056 0.00041691419375 0.00041556205347 0.00041421685298 
0.00041287842076 0.00054260644129 0.00054037711274 0.00053816381418 0.00053596635798 0.00053378565019 0.00053162150323 0.00052947428499 0.00052734380966 
0.00052523009999 0.00052313356569 0.00052105384446 0.00051899143849 0.00051694572729 0.0005149168524 0.00051290478998 0.00051090932411 0.00050893028707 
0.00050696768288 0.00050502063263 0.00050308923917 0.00050117314668 0.00049927222179 0.00049738589831 0.00049551387514 0.00049365567099 0.00049181121888 
0.00048998018315 0.00048816179231 0.0004863561028 0.00048456262821 0.00048278118154 0.00048101089138 0.0004792522259 0.00047750408822 0.00047576636022 
0.00047403862418 0.00047232027929 0.00047061118302 0.00046891130049 0.00046722008513 0.00046553792483 0.00046386445768 0.00046220022392 0.00046054480337 
0.00045889855352 0.00045726200967 0.00045563535797 0.00045401890004 0.00045241315296 0.00045081848251 0.00044923555947 0.00044766431201 0.0004461051646 
0.00044455843466 0.00044302417535 0.00044150249174 0.00043999321296 0.00043849637645 0.00043701184243 0.0004355392246 0.00043407813911 0.00043262790749 
0.00043118837846 0.00042975826605 0.00042833759449 0.00042692574604 0.0004255220716 0.00042412577877 0.00042273693215 0.00042135493867 0.0004199795227 
0.00041861068033 0.00041724848804 0.00041589333401 0.00041454478548 0.00041320343832 0.00054328523935 0.00054104952914 0.00053883009329 0.00053662678724 
0.00053444023181 0.0005322701405 0.00053011699371 0.00052798043135 0.00052586139224 0.00052375920363 0.00052167384295 0.00051960562518 0.00051755427735 
0.00051551975891 0.00051350157191 0.00051150007052 0.00050951506416 0.0005075462307 0.0005055930552 0.00050365541905 0.00050173324617 0.00049982612 
0.00049793358061 0.00049605525753 0.00049419074187 0.00049233990014 0.0004905026412 0.0004886780324 0.00048686628392 0.00048506665192 0.00048327900916 
0.0004815030513 0.0004797384658 0.00047798471126 0.00047624149991 0.00047450825262 0.00047278467675 0.00047107071998 0.00046936602092 0.0004676703205 
0.00046598391856 0.0004643065 0.00046263815216 0.00046097897559 0.00045932912434 0.00045768896115 0.00045605897434 0.00045443911241 0.00045283022876 
0.00045123241384 0.00044964629214 0.00044807180457 0.00044650953042 0.0004449594466 0.00044342172369 0.00044189638279 0.00044038350472 0.00043888271808 
0.00043739409026 0.00043591748217 0.00043445205025 0.00043299766962 0.00043155355355 0.00043011908038 0.00042869389352 0.00042727759154 0.00042586937904 
0.00042446895873 0.00042307589232 0.00042169000101 0.00042031083766 0.00041893847188 0.00041757307173 0.00041621435309 0.00041486278077 0.00041351874257 
0.0005439622713 0.0005417205157 0.00053949514909 0.00053728588639 0.00053509360755 0.00053291781375 0.00053075887921 0.00052861684614 0.00052649204944 
0.00052438422919 0.00052229322396 0.00052021921045 0.00051816219646 0.00051612194447 0.00051409792772 0.00051209067898 0.00051009964548 0.00050812479379 
0.00050616539686 0.000504221468 0.00050229308177 0.00050037962991 0.00049848088157 0.00049659628963 0.00049472580545 0.00049286865906 0.00049102507605 
0.00048919434045 0.00048737651847 0.00048557114121 0.000483777439 0.00048199542508 0.00048022480029 0.0004784656211 0.00047671687993 0.00047497827764 
0.00047324964472 0.00047153092285 0.00046982157649 0.00046812133653 0.0004664305321 0.00046474878407 0.00046307658113 0.00046141365545 0.00045976018301 
0.00045811676892 0.00045648333606 0.00045486046889 0.00045324845087 0.00045164737855 0.00045005800255 0.00044848033376 0.00044691467266 0.0004453611832 
0.00044381993805 0.00044229100981 0.00044077421301 0.00043926965467 0.00043777681226 0.00043629566346 0.00043482588992 0.00043336694429 0.00043191828828 
0.00043047924414 0.00042904967785 0.00042762875627 0.00042621614867 0.0004248113444 0.00042341422617 0.00042202429743 0.00042064132105 0.00041926560891 
0.00041789653789 0.00041653446335 0.00041517994224 0.00041383285322 0.00054464863654 0.00054240106137 0.00054016997312 0.00053795506067 0.00053575680954 
0.00053357524669 0.0005314106123 0.00052926302251 0.00052713275392 0.00052501918404 0.0005229225549 0.0005208429669 0.00051878005686 0.00051673382246 
0.00051470412689 0.00051269109173 0.00051069410992 0.00050871311784 0.00050674767242 0.00050479769407 0.00050286304614 0.00050094316549 0.00049903821186 
0.00049714742034 0.000495270588 0.00049340730913 0.00049155739741 0.00048972070072 0.00048789681461 0.00048608530783 0.00048428578894 0.00048249779683 
0.00048072162851 0.00047895670551 0.00047720254076 0.00047545854289 0.00047372475485 0.00047200114492 0.00047028717358 0.00046858246433 0.00046688743515 
0.00046520150296 0.00046352530298 0.00046185869033 0.0004602019015 0.00045855491605 0.00045691819118 0.00045529203589 0.00045367683746 0.00045207258066 
0.00045047998314 0.00044889879379 0.00044732973943 0.00044577264324 0.00044422765216 0.00044269478927 0.0004411741693 0.00043966541973 0.00043816830565 
0.00043668278301 0.00043520833616 0.00043374493918 0.00043229171607 0.00043084787128 0.0004294134878 0.00042798795829 0.00042657093078 0.00042516182085 
0.00042376038941 0.00042236632021 0.00042097964145 0.00041959989019 0.00041822748622 0.00041686206289 0.00041550432498 0.00041415419548 0.00054535493379 
0.00054310148039 0.00054086454766 0.00053864390051 0.00053643985615 0.0005342526283 0.0005320824624 0.00052992911695 0.00052779304967 0.000525673807 
0.00052357158956 0.00052148612636 0.00051941763268 0.00051736567564 0.00051533007361 0.00051331081199 0.00051130782969 0.00050932073256 0.00050734930958 
0.00050539319706 0.00050345232723 0.00050152632225 0.00049961488767 0.00049771788883 0.00049583488512 0.00049396536767 0.00049210916275 0.00049026639143 
0.00048843630158 0.00048661882758 0.00048481346643 0.00048301987034 0.00048123755485 0.00047946703056 0.00047770727083 0.00047595801196 0.00047421929237 
0.00047249071433 0.00047077196423 0.00046906268646 0.00046736330547 0.00046567349437 0.00046399327228 0.00046232271337 0.00046066242695 0.00045901203148 
0.00045737190463 0.00045574227943 0.00045412366852 0.00045251621447 0.00045092010656 0.00044933555942 0.00044776295461 0.00044620219813 0.00044465335429 
0.00044311648373 0.00044159158398 0.0004400786312 0.00043857720159 0.00043708698057 0.00043560766236 0.00043413947496 0.00043268129979 0.00043123291321 
0.00042979365023 0.00042836346188 0.00042694187021 0.00042552826586 0.00042412262232 0.00042272434513 0.00042133364749 0.0004199501862 0.00041857385647 
0.00041720518182 0.00041584417947 0.00041449088541 0.00054609047793 0.00054383089573 0.00054158802669 0.00053936145675 0.00053715170876 0.0005349588579 
0.00053278275684 0.00053062381205 0.00052848194484 0.00052635690762 0.00052424881585 0.00052215768908 0.00052008314559 0.00051802527537 0.00051598372028 
0.00051395842011 0.00051194930908 0.00050995608798 0.00050797862868 0.00050601646308 0.00050406929815 0.00050213684117 0.00050021926402 0.0004983161198 
0.00049642683061 0.00049455101684 0.00049268837021 0.00049083956552 0.00048900344194 0.00048717979135 0.00048536834858 0.00048356896514 0.00048178111155 
0.00048000498368 0.00047823963673 0.00047648515135 0.00047474122126 0.00047300761711 0.00047128401751 0.00046957029995 0.00046786640566 0.00046617235161 
0.00046448806911 0.0004628138078 0.00046114968381 0.00045949559617 0.00045785196648 0.00045621900004 0.00045459699989 0.00045298591335 0.00045138642279 
0.00044979832568 0.00044822188112 0.00044665724037 0.0004451041991 0.00044356321538 0.00044203397024 0.00044051638182 0.00043901033663 0.00043751554571 
0.00043603147283 0.00043455802651 0.00043309491973 0.00043164152813 0.00043019742871 0.00042876255552 0.00042733624733 0.00042591813313 0.00042450787298 
0.00042310542001 0.00042171053242 0.0004203231424 0.00041894309948 0.00041757100582 0.00041620655982 0.00041485001163 0.00054686336644 0.00054459763397 
0.00054234858971 0.00054011649776 0.00053790063393 0.00053570181171 0.000533519963 0.00053135499415 0.00052920702622 0.00052707637572 0.00052496238825 
0.00052286511629 0.00052078470391 0.00051872059841 0.00051667295991 0.00051464171297 0.00051262631857 0.00051062690962 0.00050864303129 0.00050667461632 
0.00050472117792 0.00050278257539 0.00050085865273 0.00049894877264 0.00049705334593 0.00049517129296 0.00049330280962 0.00049144763673 0.00048960535699 
0.00048777557867 0.00048595819338 0.0004841529102 0.00048235933179 0.00048057745911 0.00047880653335 0.00047704687731 0.00047529762539 0.00047355893347 
0.0004718304541 0.00047011202514 0.00046840379174 0.00046670542332 0.00046501698357 0.00046333871174 0.00046167069609 0.00046001286406 0.00045836560873 
0.00045672888181 0.00045510312089 0.00045348835483 0.00045188498853 0.00045029334566 0.00044871291075 0.00044714406191 0.00044558676558 0.0004440413879 
0.00044250760758 0.0004409851533 0.00043947428109 0.00043797466579 0.00043648570618 0.00043500705375 0.0004335388987 0.0004320805531 0.00043063152356 
0.00042919162579 0.00042776042539 0.00042633761403 0.00042492272376 0.00042351596147 0.00042211664488 0.00042072511326 0.00041934143911 0.00041796560547 
0.00041659766174 0.00041523771613 0.00054768101165 0.00054540864534 0.00054315347025 0.00054091502571 0.00053869321562 0.00053648831389 0.00053430048292 
0.00053212955266 0.00052997570409 0.00052783869586 0.00052571854086 0.00052361537261 0.00052152849839 0.00051945822476 0.00051740450763 0.00051536694213 
0.00051334529838 0.00051133936058 0.00050934916729 0.00050737427154 0.0005054142601 0.00050346962044 0.00050153917345 0.00049962313613 0.00049772122024 
0.00049583312295 0.00049395828945 0.00049209677241 0.00049024832734 0.00048841247827 0.0004865890792 0.00048477778858 0.00048297832685 0.00048119077315 
0.00047941447726 0.0004776493271 0.00047589471335 0.00047415100583 0.00047241751088 0.00047069422411 0.00046898135477 0.00046727854199 0.00046558563044 
0.00046390324687 0.00046223105805 0.00046056945643 0.00045891822489 0.00045727770873 0.00045564806297 0.00045402932415 0.00045242202833 0.00045082611044 
0.00044924155192 0.00044766829204 0.00044610652003 0.00044455656614 0.00044301795922 0.00044149073423 0.00043997490477 0.00043847004374 0.00043697610356 
0.00043549236971 0.00043401893029 0.0004325553517 0.00043110122778 0.00042965606263 0.00042821994472 0.00042679229349 0.00042537276954 0.00042396127568 
0.00042255768068 0.00042116188769 0.00041977418766 0.00041839453279 0.00041702286501 0.00041565942813 0.00054854881313 0.00054627004582 0.00054400838102 
0.00054176322762 0.00053953528497 0.00053732407108 0.00053513001632 0.00053295290765 0.00053079266805 0.00052864941499 0.00052652307447 0.00052441346842 
0.0005223202069 0.00052024360038 0.00051818346789 0.00051613958335 0.00051411137363 0.00051209897423 0.00051010220449 0.00050812074439 0.00050615463042 
0.00050420313769 0.00050226626398 0.00050034401266 0.00049843554903 0.00049654108923 0.00049466007226 0.00049279228704 0.00049093745102 0.00048909557527 
0.00048726602174 0.00048544876605 0.00048364352859 0.00048185028662 0.0004800683977 0.00047829757269 0.0004765375688 0.00047478852543 0.00047304990424 
0.00047132181421 0.00046960409629 0.00046789657386 0.00046619934604 0.00046451256759 0.00046283605171 0.00046117030922 0.00045951498897 0.00045787027554 
0.00045623647845 0.000454613437 0.00045300192382 0.00045140157377 0.000449812496 0.00044823466345 0.00044666831568 0.00044511336428 0.00044356968322 
0.00044203750006 0.0004405165477 0.00043900642635 0.00043750694879 0.00043601808073 0.00043453940158 0.00043307054435 0.00043161109679 0.00043016063081 
0.00042871949127 0.00042728673875 0.00042586245877 0.00042444623789 0.00042303815169 0.00042163798568 0.00042024599766 0.00041886229398 0.00041748678864 
0.000416119522 0.0005494720966 0.00054718635128 0.00054491789347 0.00054266629547 0.00054043165866 0.00053821404035 0.00053601322709 0.00053382952673 
0.0005316628583 0.0005295131908 0.00052738029623 0.00052526417687 0.00052316449863 0.00052108124731 0.0005190144469 0.00051696369549 0.00051492909137 
0.00051291005227 0.00051090664287 0.00050891859695 0.00050694593622 0.00050498776746 0.00050304448406 0.00050111549383 0.0004992005949 0.00049729957965 
0.00049541240805 0.00049353820507 0.00049167721375 0.0004898291478 0.00048799361606 0.00048617033111 0.00048435896054 0.00048256005299 0.00048077219618 
0.0004789956121 0.00047723018145 0.00047547594442 0.00047373230402 0.00047199888599 0.00047027628951 0.00046856402126 0.00046686208162 0.00046517067787 
0.00046348973229 0.00046181949174 0.00046015965503 0.00045851043554 0.00045687204655 0.00045524477197 0.00045362856586 0.00045202356054 0.00045042960636 
0.00044884705955 0.00044727585563 0.00044571567413 0.00044416711173 0.00044262976221 0.00044110327037 0.00043958775536 0.00043808274606 0.00043658822762 
0.00043510413564 0.00043362982696 0.00043216499137 0.00043070946919 0.00042926267724 0.00042782486933 0.00042639560895 0.00042497474085 0.00042356180176 
0.00042215726302 0.0004207608541 0.00041937282244 0.00041799302764 0.00041662172266 0.00055045467845 0.00054816177766 0.00054588620173 0.00054362768854 
0.00054138608026 0.00053916147703 0.00053695404053 0.00053476353891 0.00053259008054 0.00053043391334 0.00052829413222 0.00052617114199 0.00052406470886 
0.00052197475581 0.00051990111753 0.00051784364201 0.00051580193305 0.00051377618443 0.00051176614993 0.0005097714348 0.00050779169222 0.00050582694905 
0.00050387705714 0.00050194141689 0.00050001990061 0.00049811235176 0.00049621871438 0.00049433808439 0.00049247083459 0.00049061653771 0.00048877485511 
0.00048694544884 0.00048512806835 0.00048332297489 0.00048152968242 0.00047974737807 0.00047797637169 0.00047621650618 0.00047446734383 0.00047272889323 
0.00047100107764 0.00046928389923 0.00046757703567 0.00046588077259 0.00046419505338 0.00046251992057 0.00046085552222 0.00045920164043 0.00045755857338 
0.00045592644634 0.00045430523419 0.00045269525051 0.00045109629343 0.0004495085092 0.00044793200663 0.00044636696965 0.00044481294911 0.00044326999947 
0.00044173805969 0.00044021657147 0.00043870611852 0.00043720613903 0.00043571621434 0.00043423618304 0.00043276610776 0.00043130492984 0.00042985282634 
0.00042840974891 0.00042697543967 0.00042554962202 0.0004241318867 0.00042272252109 0.00042132148634 0.00041992890006 0.00041854483578 0.00041716906383 
0.00055149874278 0.00054919892211 0.0005469162396 0.00054465045384 0.00054240154718 0.00054016989436 0.00053795536535 0.00053575780489 0.00053357738249 
0.00053141393873 0.00052926715736 0.00052713703278 0.000525023529 0.00052292650734 0.00052084599368 0.00051878135681 0.00051673279887 0.00051470012813 
0.00051268307288 0.00051068137488 0.00050869502326 0.00050672338908 0.00050476649176 0.00050282413351 0.00050089607395 0.00049898195406 0.00049708153329 
0.00049519471277 0.00049332092204 0.00049146027964 0.00048961223642 0.00048777670295 0.00048595342259 0.00048414226587 0.00048234283029 0.00048055475589 
0.00047877807555 0.00047701258334 0.00047525812453 0.00047351418835 0.00047178104954 0.00047005857479 0.00046834661997 0.00046664547872 0.00046495476022 
0.00046327455477 0.00046160519429 0.00045994620761 0.00045829811867 0.00045666084959 0.00045503445298 0.00045341906306 0.00045181477694 0.00045022161233 
0.00044863944264 0.00044706889073 0.00044550926605 0.00044396056265 0.00044242287304 0.00044089576148 0.00043937954027 0.00043787372631 0.00043637816412 
0.00043489236833 0.00043341638715 0.00043194996441 0.00043049228883 0.00042904363596 0.0004276040352 0.00042617323477 0.00042475050886 0.00042333606196 
0.0004219302898 0.00042053303045 0.00041914400841 0.00041776365225 0.00055260795033 0.00055030033929 0.00054800989341 0.00054573657108 0.00054347992075 
0.00054124089429 0.00053901888236 0.00053681410155 0.00053462620084 0.00053245539901 0.00053030125854 0.00052816382388 0.000526043234 0.00052393892298 
0.00052185087425 0.00051977930162 0.00051772352131 0.00051568388645 0.00051365968956 0.00051165101357 0.00050965722863 0.00050767863837 0.0005057148464 
0.0005037655268 0.00050183080871 0.0004999099686 0.00049800306469 0.00049610952229 0.00049422940775 0.00049236237238 0.00049050796875 0.00048866611875 
0.00048683658756 0.00048501922296 0.00048321378222 0.00048141972884 0.00047963705841 0.00047786618124 0.00047610594935 0.00047435636057 0.00047261784045 
0.0004708900536 0.00046917287863 0.00046746625017 0.00046577026203 0.00046408482215 0.00046241015455 0.00046074610173 0.00045909254558 0.00045744979069 
0.00045581780505 0.00045419687946 0.00045258693403 0.00045098797388 0.00044940020456 0.00044782361169 0.00044625788861 0.00044470325773 0.00044315949391 
0.00044162669121 0.00044010450877 0.00043859292358 0.00043709145277 0.0004355997055 0.00043411799283 0.00043264575707 0.00043118274709 0.00042972846236 
0.00042828341239 0.00042684708492 0.00042541943911 0.00042399998772 0.00042258902813 0.00042118657089 0.00041979268155 0.00041840731932 0.00055378296338 
0.00055146710887 0.00054916868003 0.00054688735947 0.00054462311129 0.00054237614883 0.00054014635567 0.00053793384374 0.00053573829642 0.00053355970849 
0.00053139794164 0.00052925314327 0.00052712482832 0.00052501271433 0.00052291737606 0.00052083824345 0.00051877517516 0.00051672815255 0.00051469665178 
0.00051268051313 0.00051067990552 0.00050869426617 0.0005067231458 0.00050476694987 0.00050282510474 0.0005008972957 0.00049898372187 0.00049708362662 
0.00049519690337 0.00049332350393 0.00049146244887 0.00048961440958 0.00048777850306 0.00048595502325 0.00048414342601 0.00048234340538 0.00048055506943 
0.00047877829615 0.00047701224155 0.00047525684276 0.00047351276498 0.00047177929024 0.00047005657571 0.00046834449315 0.0004666429696 0.00046495197373 
0.00046327168063 0.00046160201157 0.0004599427865 0.00045829422505 0.00045665636308 0.00045502969939 0.00045341371997 0.00045180871764 0.00045021473529 
0.00044863187392 0.00044706005799 0.00044549940483 0.00044394943552 0.00044241038159 0.00044088229096 0.00043936451054 0.00043785694501 0.00043635948046 
0.0004348717897 0.00043339382316 0.00043192479895 0.00043046483519 0.00042901442008 0.00042757249611 0.00042613933726 0.00042471477085 0.00042329859381 
0.00042189060005 0.00042049137004 0.00041910076767 0.00055502441216 0.0005526999399 0.00055039293115 0.00054810363353 0.00054583104199 0.00054357599136 
0.00054133819927 0.0005391174596 0.00053691377747 0.00053472733701 0.00053255769244 0.00053040476683 0.00052826853417 0.00052614919561 0.00052404598896 
0.00052195931062 0.00051988872615 0.00051783385859 0.00051579496519 0.00051377142443 0.00051176319165 0.00050977033822 0.00050779214311 0.00050582862199 
0.00050387967524 0.00050194501985 0.00050002448479 0.00049811782058 0.00049622414098 0.00049434423139 0.0004924769858 0.00049062223551 0.00048878000316 
0.00048695028569 0.00048513253581 0.00048332645496 0.00048153222071 0.00047974916386 0.00047797715286 0.00047621607482 0.00047446610802 0.00047272699999 
0.00047099830143 0.00046928040428 0.00046757320321 0.00046587645984 0.000464190224 0.00046251451614 0.00046084932264 0.00045919458617 0.00045755065137 
0.00045591776976 0.00045429562994 0.00045268434459 0.00045108393864 0.00044949451411 0.00044791640531 0.00044634929353 0.00044479294929 0.00044324752448 
0.00044171302167 0.00044018916291 0.0004386753937 0.00043717181104 0.00043567828995 0.00043419423197 0.00043271938918 0.00043125386603 0.00042979735727 
0.0004283498746 0.00042691095423 0.00042548088995 0.00042405923846 0.00042264569082 0.00042124066581 0.00041984449109 0.0005563317247 0.0005539984492 
0.00055168275007 0.00054938491043 0.00054710378171 0.00054484020699 0.00054259395262 0.00054036466934 0.00053815294298 0.00053595805003 0.00053378004612 
0.00053161905422 0.0005294749518 0.00052734740637 0.00052523641079 0.00052314173863 0.00052106329014 0.00051900067987 0.0005169540316 0.00051492299709 
0.00051290736705 0.00051090715144 0.00050892149015 0.00050695079554 0.00050499473253 0.00050305288675 0.00050112550898 0.00049921183356 0.00049731155559 
0.0004954249022 0.00049355074782 0.00049168962308 0.00048984096053 0.00048800497075 0.00048618101339 0.00048436857532 0.0004825681346 0.00048077861792 
0.00047900083904 0.00047723369708 0.0004754777419 0.00047373265415 0.00047199801191 0.0004702740187 0.00046856078424 0.00046685802206 0.00046516554247 
0.00046348368808 0.00046181190364 0.00046015093401 0.00045850071086 0.00045686115496 0.00045523247417 0.00045361442849 0.00045200733207 0.00045041154044 
0.00044882668721 0.00044725281212 0.0004456899985 0.00044413824017 0.00044259707357 0.00044106668139 0.00043954673509 0.0004380368981 0.00043653702735 
0.00043504690473 0.00043356643485 0.00043209498257 0.00043063257836 0.00042917905427 0.00042773432297 0.00042629842924 0.00042487076115 0.00042345143648 