# vtk DataFile Version 5.1
vtk output
ASCII
DATASET STRUCTURED_POINTS
DIMENSIONS 26 14 26
SPACING 0.08 0.08 0.08
ORIGIN 2.7 -0.52 0
POINT_DATA 9464
FIELD FieldData 1
potential 1 9464 double
0.0028046904731 0.0029180098626 0.00303155752 0.0031449164189 0.0032576540644 0.0033693269894 0.0034795752731 0.0035884409656 0.0036970346871 
0.003808313123 0.003927018301 0.0040572358511 0.0042003021218 0.0043546439247 0.0045176054467 0.0046861723393 0.0048591722434 0.0050381050736 
0.0052256023202 0.0054234377313 0.0056319225356 0.0058503038219 0.0060783766137 0.0063182638001 0.0065740880057 0.0068492414261 0.0029222586726 
0.0030423527536 0.0031637330345 0.0032862403022 0.0034097087802 0.0035340373462 0.0036593664128 0.0037861403065 0.0039154935165 0.0040493089803 
0.0041899760876 0.0043395698551 0.0044991124016 0.0046682155193 0.004846024842 0.0050314755725 0.0052242776521 0.005425083305 0.0056350827609 
0.0058553569927 0.0060865868149 0.0063291895808 0.0065838497504 0.0068520461764 0.0071358110129 0.0074371155489 0.0029358169597 0.0030608710684 
0.0031880065911 0.0033172543783 0.0034486176552 0.00358219441 0.0037183020576 0.0038574830519 0.0040006518844 0.0041490625746 0.004304123665 
0.004467101269 0.0046388213577 0.0048193047034 0.0050085546888 0.0052063178184 0.0054126782693 0.0056281306228 0.0058534304563 0.0060893759751 
0.0063367291717 0.0065962217106 0.0068687123422 0.0071553534111 0.007457482183 0.0077764303211 0.0028485846488 0.0029768670052 0.0031078730418 
0.0032417075468 0.0033784938665 0.0035184051524 0.0036618290181 0.0038092810857 0.00396147204 0.0041193137035 0.0042837511819 0.0044556710966 
0.0046358054897 0.0048243241122 0.0050215535886 0.0052277365403 0.0054430634567 0.0056680610269 0.0059033255195 0.0061495801034 0.0064075364916 
0.006678026902 0.0069618642967 0.0072600967704 0.0075736620669 0.0079036830236 0.0026508119006 0.0027806857459 0.002913735971 0.0030501250484 
0.0031900484306 0.0033336920352 0.0034814692702 0.0036338359933 0.0037913613619 0.0039547533344 0.0041247184088 0.0043019457495 0.0044871080039 
0.0046804392317 0.0048824246184 0.0050934681185 0.0053138913802 0.0055442311293 0.0057850647051 0.0060370814558 0.0063009376722 0.0065774468084 
0.0068674098658 0.0071717056035 0.0074912104366 0.0078267940504 0.002305939928 0.0024355348089 0.0025685630087 0.0027053216201 0.0028459316227 
0.0029907022905 0.0031399382775 0.0032940718333 0.0034535942711 0.0036190591551 0.0037910417493 0.003970132595 0.004156829475 0.0043517414251 
0.0045550782341 0.0047674327485 0.0049891898794 0.0052209036031 0.0054631512276 0.0057165696955 0.0059818278746 0.00625970737 0.0065509193341 
0.0068562651992 0.0071766213219 0.0075126770269 0.0015928386871 0.0017151812736 0.0018419042652 0.0019728949865 0.0021083072925 0.0022483845966 
0.0023934242141 0.002543709838 0.0026996862519 0.0028617781922 0.0030304781345 0.0032062922842 0.0033896740213 0.0035812081784 0.0037811394564 
0.0039900363611 0.0042084490568 0.0044368001489 0.0046756976462 0.0049257468745 0.0051876057848 0.0054619831686 0.0057495949894 0.0060511821719 
0.0063675189368 0.0066992987719 0.00092576183479 0.0010536735852 0.0011856070016 0.0013214662641 0.0014615961869 0.0016062058025 0.0017555819336 
0.0019100416362 0.0020699525028 0.0022357448818 0.0024078353347 0.0025866928718 0.0027727656588 0.002966640899 0.0031685543308 0.0033791194517 
0.0035988912331 0.0038283062384 0.0040679642938 0.0043184732847 0.00458045209 0.0048545703126 0.0051415596572 0.0054420626004 0.0057568509386 
0.0060866685265 0.00057676496392 0.00070335406526 0.00083399519956 0.00096857893655 0.0011074347241 0.0012507438139 0.0013987490616 0.0015517797266 
0.0017101062602 0.0018741151722 0.0020441872266 0.0022207560658 0.0024042453331 0.0025952203409 0.0027939448086 0.003000981708 0.0032168731733 
0.003442194128 0.0036773978943 0.0039231048732 0.0041799190307 0.0044484875081 0.0047295067686 0.005023614918 0.0053314940659 0.005653893642 
0.00036805683219 0.00049165550502 0.00061926524949 0.00075076336186 0.00088644054663 0.0010264595258 0.0011710351533 0.0013204338747 0.0014749379532 
0.0016348238745 0.0018004699663 0.0019722528396 0.0021506146947 0.0023360776213 0.0025289032244 0.0027296773105 0.0029388909043 0.0031571503832 
0.003384885197 0.0036227001474 0.0038711942703 0.0041309417593 0.0044026552722 0.0046869615042 0.0049844874219 0.005295949378 0.00027322232854 
0.00039243630182 0.00051557928369 0.00064247553599 0.00077341654848 0.0009084959753 0.0010479041607 0.00119185852 0.0013405916888 0.0014943390643 
0.0016534486159 0.0018182648647 0.0019891964118 0.002166680897 0.0023512844268 0.0025432698844 0.0027432305501 0.0029517061607 0.003169277445 
0.0033963868193 0.003633642348 0.0038816231143 0.0041409691788 0.0044123435634 0.0046963371698 0.0049936459135 0.00030607414805 0.00041959157156 
0.00053674676668 0.00065776209462 0.00078246481474 0.00091104464937 0.0010436551982 0.0011803969723 0.0013214894733 0.0014671545342 0.0016176412485 
0.0017733207677 0.0019345678321 0.0021018160068 0.0022756482534 0.0024563286994 0.0026444583934 0.0028405249561 0.0030451399479 0.0032587138778 
0.0034818318394 0.0037150774928 0.0039589988413 0.0042143178915 0.0044815934851 0.0047615139973 0.00058273917884 0.00068918177679 0.00079909111563 
0.00091264589506 0.0010295810283 0.001150115243 0.001274206438 0.0014019820212 0.0015335525838 0.0016690673039 0.0018087905421 0.0019530198835 
0.0021021603743 0.0022566579275 0.0024171056113 0.0025837917853 0.0027573126443 0.0029381738572 0.003126847319 0.0033239448479 0.0035298664787 
0.0037451984404 0.003970484813 0.0042064251736 0.004453628352 0.0047127118598 0.001030189233 0.0011280530335 0.0012291919709 0.0013337086363 
0.0014412934791 0.0015520436094 0.0016659088267 0.0017828231535 0.0019028033093 0.0020259545504 0.0021524516326 0.0022826460853 0.0024169364621 
0.0025558062172 0.0026999083257 0.0028495489349 0.003005345002 0.0031677918214 0.0033373556828 0.0035144966654 0.0036998127103 0.0038937017457 
0.0040967547539 0.0043095490187 0.0045328379787 0.0047672165865 0.0028624706166 0.0029770256946 0.0030919719265 0.0032069349497 0.0033215398441 
0.0034354219057 0.0035483280313 0.0036604105479 0.0037728431337 0.0038883846829 0.0040112561171 0.0041451069221 0.004291261283 0.0044484083496 
0.0046142625697 0.0047861931847 0.0049631661315 0.0051464142019 0.0053382304472 0.0055402931558 0.005753070846 0.0059761141391 0.0062094386919 
0.0064549563188 0.0067163133036 0.0069966142873 0.002969008873 0.0030901233322 0.0032126361356 0.003336411942 0.0034613141981 0.0035872765325 
0.0037144757934 0.0038433817416 0.0039751133754 0.0041114626167 0.0042546640153 0.0044066641909 0.0045684623286 0.0047397472065 0.0049197929894 
0.0051076573731 0.0053030990437 0.0055067221659 0.0057196366505 0.0059428900388 0.0061771991853 0.0064230551671 0.0066811829536 0.006953005462 
0.0072404346906 0.0075453539689 0.0029796104178 0.003105549665 0.0032336507122 0.0033639580662 0.0034964900012 0.0036313599152 0.0037688975258 
0.0039096481921 0.0040545101683 0.0042046969203 0.0043615613627 0.0045263247676 0.0046998020647 0.0048820386026 0.005073087319 0.0052727374958 
0.0054810969941 0.0056986546742 0.0059261477962 0.0061643683491 0.0064140771036 0.0066760332254 0.0069510992299 0.0072404091725 0.0075452654353 
0.0078669733294 0.0028964236796 0.0030255234316 0.0031574066712 0.0032921861912 0.0034299932853 0.0035710081579 0.0037156223842 0.0038643500429 
0.0040178916812 0.004177140484 0.0043430190376 0.0045163964027 0.0046979997097 0.0048880080932 0.0050867664934 0.0052945362698 0.0055115198818 
0.0057382463728 0.005975309145 0.0062234295208 0.0064833218077 0.0067558220733 0.0070417441246 0.007342129448 0.00765790525 0.0079901869464 
0.0027131212619 0.0028438472207 0.0029777964196 0.003115136217 0.0032560510199 0.0034007766187 0.00354968129 0.0037032346332 0.0038620003657 
0.0040266774316 0.0041979625773 0.0043765375148 0.0045629653393 0.0047578060177 0.0049612304556 0.0051737583175 0.0053957179147 0.005627649014 
0.0058701297848 0.0061238499105 0.0063894667864 0.0066677950913 0.0069596353631 0.0072658643701 0.0075873555141 0.0079249771719 0.0024136504495 
0.0025444968748 0.0026788280939 0.0028169365767 0.0029589462498 0.0031051682968 0.0032559081121 0.0034115970192 0.0035727236485 0.0037398373377 
0.0039135090784 0.0040943262049 0.0042827856842 0.0044794983008 0.0046846776494 0.004898920852 0.0051226165688 0.0053563213161 0.005600613913 
0.0058561322958 0.006123546221 0.0064036380284 0.0066971188354 0.0070047899004 0.0073275271355 0.0076660204585 0.0019939045544 0.0021237477212 
0.0022574889927 0.002395127931 0.0025368913834 0.0026830736679 0.0028340093103 0.0029900099505 0.0031515414816 0.0033190450648 0.0034930261751 
0.0036740023537 0.0038624375457 0.0040589267437 0.0042637247753 0.0044774095075 0.0047005395868 0.0049335450163 0.0051770401309 0.005431635769 
0.00569799472 0.0059768300255 0.006268861572 0.0065748333955 0.0068955231942 0.0072316282087 0.0015732771755 0.0017023405698 0.0018354434976 
0.0019724920547 0.0021138326045 0.0022596754611 0.0024103082479 0.0025660482451 0.0027272627805 0.0028943816053 0.0030678204733 0.0032480478723 
0.003435511898 0.0036307950701 0.00383414933 0.0040461740686 0.0042674304606 0.0044983560707 0.0047395516087 0.0049916255522 0.0052551972449 
0.0055309366364 0.0058195756086 0.0061217571377 0.0064382531314 0.0067698084307 0.0012658431855 0.0013931517492 0.0015245327281 0.0016598783685 
0.0017995195496 0.0019436388164 0.002092480065 0.0022463731288 0.0024055888488 0.0025705137101 0.0027415284065 0.0029190662389 0.0031035508253 
0.0032955475153 0.0034953203594 0.0037034327109 0.0039204271569 0.0041468790065 0.004383242034 0.0046301369443 0.0048881679416 0.0051579823026 
0.0054402765074 0.0057356888725 0.0060449017893 0.0063686649669 0.0010675640579 0.0011917833919 0.0013200331306 0.0014521923606 0.0015885533486 
0.0017292804674 0.0018745899848 0.0020247495271 0.0021800422716 0.0023407453344 0.002507237249 0.0026798946873 0.0028591595271 0.0030455536464 
0.0032393385173 0.0034410997305 0.0036513282551 0.0038706303852 0.0040994357881 0.0043383492227 0.0045879697585 0.0048488716935 0.0051217674112 
0.005407283609 0.0057060473114 0.0060187747561 0.00096774031122 0.0010875617794 0.0012113306024 0.0013388731582 0.0014704828757 0.0016062556796 
0.0017463839964 0.0018910872164 0.0020405996517 0.0021951579442 0.0023551106345 0.0025208022931 0.0026926410754 0.0028710638245 0.0030566358161 
0.0032496192437 0.0034506067466 0.003660137661 0.0038787923486 0.0041070132457 0.0043454082101 0.0045945562179 0.0048550970407 0.0051276932644 
0.0054129354949 0.005711519232 0.00096953629141 0.0010836933816 0.0012015069358 0.0013232008222 0.0014486051474 0.0015779127988 0.0017112806 
0.0018488124087 0.0019907305529 0.0021372590222 0.0022886480192 0.00244526737 0.0026074943623 0.0027757573163 0.0029506385716 0.0031324006708 
0.0033216433502 0.0035188533697 0.0037246416758 0.0039394186296 0.0041637690911 0.004398276425 0.0046434883697 0.0049001260489 0.0051687476364 
0.0054500405661 0.0010746760323 0.0011818378198 0.0012924834018 0.0014067947517 0.0015245109463 0.0016458552562 0.0017707910631 0.0018994512279 
0.0020319515438 0.0021684451511 0.0023091982543 0.002454507982 0.0026047769473 0.0027604476012 0.0029221093572 0.0030900476471 0.0032648543206 
0.0034470397264 0.0036370689927 0.0038355556073 0.0040428996832 0.0042596872519 0.0044864881843 0.0047239224873 0.0049726761991 0.0052333390823 
0.0011772971406 0.001276023487 0.0013780404745 0.0014834553398 0.0015919645395 0.0017036724512 0.0018185377925 0.0019365046499 0.0020575997487 
0.0021819362002 0.0023096924074 0.0024412182794 0.0025769067322 0.0027172338195 0.0028628453524 0.0030140420473 0.003171437136 0.0033355240056 
0.0035067683119 0.0036856303023 0.0038727083667 0.0040684009766 0.0042732988941 0.0044879784863 0.0047131909821 0.0049495289668 0.0030245645623 
0.0031426804598 0.0032616160126 0.0033811498489 0.0035010113419 0.003621031347 0.0037411838616 0.0038618453939 0.0039842329561 0.0041106302562 
0.0042441981054 0.0043876894227 0.0045423365486 0.0047073629371 0.0048813028775 0.005062348389 0.0052497908738 0.0054444029642 0.0056478055257 
0.0058614267413 0.0060860029964 0.0063216799179 0.006568897466 0.0068292038111 0.0071053217817 0.0073997061647 0.0031087613118 0.003232843863 
0.0033586395292 0.003486075968 0.0036150916699 0.0037457062063 0.0038781809967 0.0040130357644 0.0041513353631 0.0042946448964 0.0044448363459 
0.0046035556244 0.0047717398919 0.0049492547695 0.0051356810977 0.005330371999 0.0055332140923 0.0057447206577 0.0059658268736 0.0061974973696 
0.0064405205832 0.0066955454578 0.0069633852479 0.0072453417534 0.0075430614114 0.007858221676 0.0031135152897 0.0032420363705 0.0033729486726 
0.0035063332472 0.0036422482214 0.0037808465629 0.0039224876756 0.0040677206703 0.0042173981449 0.0043726283603 0.0045346243319 0.0047044945084 
0.0048830249656 0.0050703240639 0.005266562829 0.0054716472802 0.0056857472739 0.0059093440851 0.0061431336722 0.0063878850999 0.0066443778422 
0.0069134115132 0.0071958638443 0.0074928256433 0.0078055207626 0.0081351770898 0.0030397176971 0.003171179894 0.0033055976704 0.0034431055921 
0.003583856651 0.0037280497313 0.003876086183 0.0040284748326 0.0041858882295 0.0043491698208 0.0045191830143 0.0046967509103 0.00488258759 
0.0050768983536 0.0052800709166 0.0054924180946 0.0057141851207 0.0059458981916 0.0061881491176 0.0064416547004 0.0067071401734 0.0069854381079 
0.0072773765912 0.0075839765009 0.0079061391559 0.0082449619497 0.0028870549623 0.0030201140359 0.0031565302952 0.0032964847806 0.0034401741829 
0.0035878435262 0.0037398644637 0.0038967012265 0.0040589031837 0.0042271457838 0.004402094237 0.0045844156645 0.0047746655165 0.0049734137499 
0.0051808544936 0.0053975267558 0.0056237766249 0.0058601575097 0.0061072484957 0.0063657408953 0.0066362942519 0.0069197272894 0.0072168389902 
0.0075285011991 0.0078555799291 0.008198940794 0.0026584459202 0.00279189044 0.0029289291501 0.0030698630777 0.0032148241425 0.0033641284977 
0.0035180832024 0.0036771165951 0.0038417094878 0.0040123991692 0.0041897445635 0.0043743238468 0.0045666313969 0.0047672824237 0.0049765006688 
0.005194894199 0.0054228634743 0.0056609703309 0.005909798199 0.0061699875469 0.0064422102403 0.0067272538484 0.0070258181409 0.0073387145433 
0.0076668139642 0.0080108085058 0.0023743689448 0.0025071288599 0.0026438727661 0.0027846062078 0.0029295616375 0.0030790367944 0.0032333674796 
0.0033928643356 0.0035579894041 0.003729178631 0.0039069313929 0.0040917611241 0.0042841306843 0.0044846369324 0.0046935398545 0.0049114230696 
0.005138851688 0.0053762577297 0.0056242612472 0.005883474485 0.0061545617553 0.0064382369908 0.0067352209954 0.0070462572799 0.0073721248143 
0.0077135235446 0.0020860343381 0.0022174888746 0.0023530551491 0.0024926411524 0.0026365974425 0.0027851377703 0.0029385518243 0.00309715731 
0.0032613206073 0.0034314695834 0.0036080175195 0.0037914312524 0.003982158474 0.0041807826088 0.0043875581851 0.0046030875714 0.0048279349604 
0.0050625406308 0.0053075076591 0.0055634460618 0.0058309766122 0.0061107693613 0.0064035572883 0.006709984918 0.0070308229667 0.0073668204193 
0.0018437863032 0.0019730544608 0.0021064573056 0.0022438919419 0.0023856933786 0.0025320478938 0.0026832023885 0.0028394883484 0.0030011777587 
0.0031686570514 0.0033423067451 0.0035225591829 0.0037098368401 0.0039047084345 0.0041074357164 0.0043185842149 0.0045386978181 0.0047683524613 
0.0050080043618 0.0052582745635 0.0055197675498 0.0057931312785 0.0060790622715 0.0063781997471 0.0066912251223 0.0070188925157 0.0016673055232 
0.0017933175603 0.0019234176607 0.0020574901222 0.0021958317313 0.0023386116395 0.0024860501914 0.0026384184119 0.0027960021108 0.0029590802332 
0.0031280319206 0.0033032340518 0.003485127616 0.0036742339191 0.0038708141001 0.0040754531523 0.0042886419075 0.0045109864273 0.0047429170247 
0.0049850383366 0.0052379495198 0.0055022251778 0.0057785768735 0.00606763131 0.0063700167482 0.0066864458646 0.0015588462475 0.0016804466186 
0.001806048883 0.0019354855594 0.0020690556519 0.002206861619 0.0023491018344 0.0024960013131 0.0026478008589 0.0028047354704 0.0029671605053 
0.0031354189852 0.0033099178483 0.0034910917918 0.0036795040806 0.0038754137573 0.0040794132639 0.0042920395555 0.0045138728652 0.0047453549378 
0.0049870934944 0.0052396670075 0.0055037142165 0.0057798968673 0.006068804222 0.0063711306978 0.0015134823692 0.0016295165611 0.0017492600693 
0.001872943813 0.0020004060446 0.0021318486582 0.0022674375766 0.002407286077 0.0025516243781 0.0027006824892 0.0028547137286 0.0030140876043 
0.0031791785646 0.0033504103792 0.0035283603445 0.0037132865982 0.0039057851755 0.0041063403857 0.0043155613792 0.0045338473372 0.0047618146298 
0.0050000132179 0.0052490010287 0.0055094846015 0.0057820555838 0.0060673631458 0.0015108425704 0.0016200989856 0.0017328904206 0.0018494081551 
0.0019694030661 0.0020931111537 0.0022205111022 0.0023517507968 0.0024869602772 0.0026263034788 0.0027700516224 0.002918500658 0.0030720466467 
0.0032311234821 0.0033963080373 0.0035678807597 0.0037464244636 0.0039324470765 0.0041264112652 0.0043289292887 0.004540401324 0.0047614126309 
0.0049925316543 0.0052343755555 0.0054876260291 0.0057528682645 0.001500024411 0.0016012301075 0.0017057744188 0.0018137776085 0.0019249529601 
0.0020394247427 0.0021571762007 0.0022781784838 0.0024024849061 0.0025302292005 0.0026615993044 0.0027969408867 0.0029366320739 0.00308112928 
0.0032310589927 0.003386712236 0.0035486763565 0.0037174546833 0.0038935056802 0.0040772895655 0.0042694056482 0.0044702534183 0.0046804224755 
0.0049004860647 0.00513118857 0.0053731153454 0.0032668818782 0.0033904975706 0.0035155762099 0.0036420207218 0.0037697383044 0.0038987144034 
0.0040291782053 0.004161648994 0.0042972745504 0.0044378135062 0.0045854823259 0.0047422255842 0.0049091165643 0.0050858417443 0.005271740103 
0.00546579949 0.0056676730398 0.0058778558564 0.0060974319073 0.0063275499084 0.0065690995495 0.0068227028687 0.0070891105406 0.0073696770112 
0.0076662545723 0.0079808229235 0.0033257740177 0.0034545294576 0.0035854616549 0.003718580893 0.003853919258 0.0039915963115 0.0041319604014 
0.0042755643803 0.004423381083 0.0045767116247 0.0047370220282 0.0049056450301 0.0050834465642 0.0052704628701 0.0054666161589 0.0056715952412 
0.0058854527809 0.0061086475454 0.0063419559845 0.006586251656 0.0068423763306 0.007111118857 0.0073933721736 0.0076903264366 0.0080033712 
0.0083339724613 0.0033231735308 0.0034557857381 0.0035911226704 0.0037293410784 0.0038705532414 0.0040149340923 0.0041628888183 0.0043149629423 
0.0044719436256 0.0046348058925 0.0048045931423 0.0049822719792 0.0051686121324 0.0053637751704 0.0055680818205 0.0057815830773 0.0060045370811 
0.0062374286396 0.0064809170491 0.0067357590517 0.0070027159895 0.0072826603576 0.0075764573878 0.0078852015419 0.0082099754739 0.0085519566826 
0.0032590708602 0.0033942454461 0.0035326402638 0.003674421338 0.0038197713108 0.003968913656 0.0041222608117 0.0042803141318 0.0044437000015 
0.0046132021983 0.0047896072907 0.0049736727307 0.0051661019706 0.005367129299 0.005577207324 0.0057967084367 0.0060259322134 0.0062654195575 
0.0065157602679 0.0067776681096 0.0070518753665 0.0073392229611 0.0076405476658 0.007956843304 0.0082889850959 0.0086380511022 0.0031360999063 
0.0032726717914 0.0034128088725 0.0035567116103 0.0037045947338 0.0038567160671 0.0040134512615 0.0041752566483 0.004342660062 0.0045163031611 
0.004696815304 0.0048848368734 0.0050809146853 0.0052856334179 0.0054992152392 0.005722232509 0.0059550577533 0.0061982592408 0.0064524225624 
0.0067182421918 0.0069963817703 0.0072876655489 0.0075928896448 0.0079129210303 0.0082486178754 0.0086008441444 0.0029622173522 0.0030991160458 
0.0032397767413 0.0033845132696 0.0035334701637 0.0036869689523 0.0038453202119 0.0040089480962 0.004178321914 0.0043539619256 0.0045364102026 
0.0047262322042 0.0049239192441 0.0051300916529 0.0053449889946 0.0055691831434 0.0058032470019 0.0060475960836 0.006302873024 0.0065697226512 
0.0068488202773 0.0071409470678 0.0074468269096 0.0077672516469 0.0081030928621 0.0084550494468 0.0027550102311 0.0028911594017 0.0030314280262 
0.0031758326582 0.0033246154816 0.00347807921 0.0036365617392 0.0038003728282 0.0039699684639 0.0041457774436 0.0043282910712 0.0045180168589 
0.0047154163924 0.0049210894302 0.0051353037903 0.0053586517612 0.0055917064356 0.0058349089858 0.0060888828149 0.0063542452445 0.0066316613252 
0.0069218485487 0.0072255288796 0.0075434457443 0.0078763790648 0.0082250377564 0.0025418764035 0.0026764984903 0.0028153486673 0.0029583431825 
0.0031058390789 0.003258055454 0.0034152852507 0.0035778469519 0.003746105684 0.0039204875457 0.0041013996961 0.0042893092517 0.0044846625818 
0.0046880444968 0.0048997134846 0.0051202764279 0.0053503030533 0.0055902346734 0.0058406821623 0.0061022558134 0.0063755787523 0.0066613224333 
0.0069602204841 0.0072729196502 0.0076001912795 0.0079427886913 0.0023496651104 0.002481869379 0.0026183113131 0.0027588954619 0.002903963337 
0.0030537070566 0.0032083782393 0.0033683109731 0.0035337791385 0.0037051692009 0.0038828615547 0.0040672872248 0.0042588686943 0.0044581748378 
0.004665467788 0.0048813185779 0.0051062692933 0.0053408989758 0.0055856656402 0.0058411920155 0.0061080836474 0.0063869891048 0.0066786050007 
0.0069835689078 0.0073025717965 0.0076363609905 0.0021944785291 0.0023233115881 0.0024563271312 0.0025934174844 0.002734886515 0.0028809108143 
0.0030317170279 0.0031875814159 0.0033487938562 0.003515636164 0.0036884884723 0.0038677280878 0.0040537947985 0.0042471011227 0.0044482316945 
0.0046574468978 0.0048753453403 0.0051025327507 0.0053394404145 0.005586673244 0.0058448296949 0.0061144854936 0.0063963506697 0.0066910519414 
0.0069992175187 0.0073215601735 0.0020810254706 0.0022054659425 0.0023339943537 0.0024664619203 0.0026031671014 0.0027442254363 0.0028898594115 
0.0030402572382 0.0031957121514 0.0033564494324 0.0035228268869 0.0036951879419 0.0038739386199 0.0040595082248 0.0042524589547 0.0044530464501 
0.0046618762657 0.0048794361497 0.0051063522024 0.0053430505979 0.0055901374638 0.0058481911952 0.0061178488663 0.0063997700867 0.0066945426769 
0.0070028590362 0.0020045466931 0.0021235751326 0.0022463994657 0.0023732843382 0.002504011771 0.0026388658425 0.0027780030907 0.002921550691 
0.0030697503048 0.0032228407639 0.0033810799197 0.0035448369638 0.003714482449 0.0038904337426 0.0040732609411 0.004263216078 0.0044608891074 
0.0046667613778 0.0048814387184 0.0051053199195 0.0053390194839 0.0055830861645 0.0058380761605 0.0061046917239 0.0063835209525 0.0066752092478 
0.0019497530271 0.0020623143503 0.0021784956611 0.0022985022343 0.0024221025192 0.0025495513781 0.0026808494842 0.0028161661103 0.0029556512895 
0.0030994839823 0.0032479423915 0.0034013210353 0.0035600071205 0.0037244216716 0.0038951260761 0.0040723934039 0.0042567931361 0.0044488283087 
0.0046489583495 0.0048577933513 0.0050757331844 0.0053033613906 0.0055412611783 0.0057899924217 0.0060502820591 0.0063226903917 0.0018916421677 
0.0019966745695 0.0021051283515 0.0022171426745 0.0023324553459 0.0024512192067 0.0025734515421 0.0026991604819 0.0028284347151 0.0029614348388 
0.0030983611705 0.0032395539636 0.0033853722364 0.0035362464941 0.0036927769787 0.0038552341161 0.0040241902069 0.0042001398915 0.0043835387964 
0.0045748455229 0.004774659728 0.0049833813599 0.0052015970115 0.0054298747167 0.0056689449168 0.0059193842399 0.0035666977099 0.0036973290876 
0.0038301437097 0.0039651703342 0.0041024591476 0.0042421498695 0.00438461066 0.0045304196544 0.0046805894325 0.0048364515351 0.0049995741533 
0.0051713494359 0.0053527025841 0.0055436215656 0.0057440228834 0.0059534866483 0.0061719829271 0.0063999329366 0.0066381335284 0.0068875344505 
0.0071490719942 0.0074235975185 0.0077120391622 0.0080156231212 0.0083357881211 0.0086741265373 0.0036023929939 0.0037372107257 0.0038747554782 
0.0040151212304 0.0041584287437 0.0043048838947 0.0044548972539 0.0046090247737 0.0047681315522 0.0049332790818 0.0051056158854 0.0052862116106 
0.0054758626628 0.0056747474948 0.0058830619224 0.0061007862507 0.0063281377081 0.0065655785438 0.0068137943304 0.0070735929317 0.0073458360922 
0.0076313976565 0.0079312171721 0.0082464093437 0.0085781928881 0.0089278752866 0.0035918913641 0.0037298610555 0.0038709883004 0.0040154595886 
0.0041634647587 0.0043152157794 0.0044711454895 0.0046317838408 0.0047978467007 0.0049701806756 0.0051496740614 0.0053371715142 0.0055334082264 
0.0057386106058 0.0059532301373 0.0061774570831 0.0064116424348 0.0066562954538 0.006912058482 0.007179671958 0.0074599119367 0.0077536671806 
0.008061821299 0.0083854462936 0.0087255060711 0.0090831801693 0.0035348113162 0.0036748394715 0.0038184203865 0.0039657553899 0.0041170591294 
0.0042725816169 0.0044327388296 0.0045980236901 0.0047690188139 0.0049464387798 0.0051309945277 0.0053233854478 0.0055242982415 0.005733997976 
0.0059529996145 0.0061817446381 0.0064205858442 0.0066700894775 0.0069308510284 0.007203585109 0.0074890317213 0.0077880407605 0.008101447938 
0.0084302334145 0.0087752873191 0.0091375638856 0.0034342173919 0.0035753007308 0.0037202138124 0.0038691964303 0.0040224404416 0.0041802597539 
0.0043430194587 0.0045111589226 0.0046852057426 0.0048657412345 0.0050533655616 0.0052486910649 0.0054522567891 0.0056646618451 0.0058861601042 
0.006117359361 0.0063586635318 0.0066106591947 0.0068739501195 0.0071492200479 0.0074371529148 0.0077385731335 0.0080542760617 0.0083851254118 
0.0087319746136 0.0090956939087 0.0032976071082 0.0034387998061 0.0035839459144 0.0037334139427 0.0038873496735 0.0040460829019 0.0042099269975 
0.0043793010747 0.0045546674376 0.0047365109179 0.0049253724686 0.0051217978959 0.005326275274 0.0055394322317 0.0057615250733 0.0059931455147 
0.0062348826003 0.0064871670802 0.0067506532176 0.0070259879491 0.0073138538587 0.0076150344054 0.0079302562966 0.0082603098775 0.008606069276 
0.0089682405176 0.0031375860697 0.0032778316336 0.0034223789895 0.0035712558474 0.0037247154077 0.0038830820802 0.0040466511214 0.0042157765645 
0.0043908934147 0.0045724225502 0.0047608501392 0.0049566642626 0.0051603388438 0.0053724727058 0.0055933431479 0.00582355282 0.0060636852111 
0.0063141911678 0.006575700683 0.0068488363868 0.0071342668023 0.0074327124843 0.0077449000676 0.0080715642293 0.008413502427 0.008771422067 
0.0029706124151 0.0031091508812 0.003252073577 0.0033993075321 0.0035512179988 0.003708030924 0.0038700435263 0.0040375755548 0.0042109910112 
0.0043907133584 0.0045771455467 0.0047707526705 0.0049719816455 0.0051814162067 0.0053993228832 0.0056263134279 0.0058629615476 0.0061097166455 
0.0063671927748 0.0066360046899 0.0069167761715 0.0072101832856 0.0075169581385 0.0078377525549 0.0081733385071 0.0085244769677 0.0028126058232 
0.0029485766156 0.0030889298315 0.0032335945782 0.0033828685135 0.0035369759029 0.0036961965554 0.0038608527957 0.0040312230498 0.0042076883937 
0.0043906358928 0.0045804802393 0.0047776783042 0.0049827668467 0.0051960208074 0.0054180133224 0.0056492891623 0.0058904303048 0.0061418953291 
0.006404311073 0.0066782838871 0.0069644631965 0.0072635355313 0.0075761710432 0.0079030309646 0.0082448751251 0.002674539158 0.0028070799675 
0.00294393084 0.0030849946772 0.0032305843875 0.0033808855815 0.0035361332723 0.0036966101395 0.0038626111943 0.0040344219637 0.004212424549 
0.0043969958045 0.0045885739844 0.0047875730184 0.0049945752539 0.0052098413415 0.0054339695397 0.0056675652101 0.0059110611974 0.0061650619258 
0.0064301662705 0.0067069504892 0.0069961227668 0.0072983098553 0.0076141398956 0.0079443262471 0.0025605881389 0.0026888012498 0.0028210763823 
0.0029576950499 0.0030985591897 0.0032439326122 0.0033940490532 0.0035491064151 0.0037093870429 0.0038751830984 0.0040467949029 0.0042245867871 
0.0044089628941 0.0046003495376 0.0047993047283 0.005006081376 0.0052212818446 0.005445391867 0.0056790354634 0.0059226387444 0.0061768069401 
0.0064421210562 0.0067192042306 0.0070087244338 0.0073112649853 0.0076275145493 0.0024681764376 0.0025911548911 0.0027180468079 0.0028491316919 
0.0029842055952 0.0031236047201 0.0032673938815 0.0034158248042 0.00356911637 0.0037275173441 0.0038912917815 0.0040608080029 0.0042364327219 
0.0044185751167 0.0046078007995 0.0048043511474 0.0050088088839 0.0052216571855 0.0054434339853 0.0056747132243 0.0059159328183 0.0061676976512 
0.0064305614423 0.0067052209429 0.0069922583064 0.0072923143605 0.0023885731023 0.0025054358022 0.0026260337535 0.0027505913914 0.0028788977112 
0.0030112292567 0.003147612475 0.0032882404817 0.0034332854413 0.0035829428096 0.003737498497 0.0038972362327 0.0040625629554 0.0042338571364 
0.0044116744177 0.0045962750314 0.0047882179849 0.0049879989414 0.005196072961 0.005413046963 0.0056393198707 0.0058754727768 0.0061220824767 
0.00637970601 0.0066490575646 0.0069306889074 0.0023095008453 0.0024193878197 0.0025328148178 0.002649940556 0.0027705477014 0.0028947752968 
0.0030227241348 0.0031544264688 0.0032900076137 0.0034296552995 0.0035735824318 0.0037221228391 0.0038756206163 0.0040344763334 0.0041991568895 
0.0043702314191 0.0045479346128 0.0047328579574 0.0049254520284 0.0051261733589 0.0053356201099 0.0055541914143 0.005782472162 0.0060210109213 
0.0062705212052 0.0065315971959 0.0039070032688 0.0040457394715 0.0041873925793 0.004332094888 0.0044800045172 0.0046313645661 0.0047866156436 
0.0049463348635 0.0051113970085 0.0052828382442 0.0054618096788 0.0056493751814 0.0058463673625 0.0060529368488 0.0062693672409 0.0064956336858 
0.0067319537051 0.0069787832347 0.0072368100451 0.0075068895713 0.0077899299404 0.0080868989511 0.0083987913084 0.0087267625942 0.0090720658541 
0.0094360958209 0.0039229955822 0.0040649457029 0.0042101957679 0.0043589499843 0.0045113646935 0.0046677212672 0.0048284584996 0.0049941348411 