# vtk DataFile Version 5.1
vtk output
ASCII
DATASET STRUCTURED_POINTS
DIMENSIONS 20 20 20
SPACING 2e-05 2e-05 2e-05
ORIGIN 3.69981 -0.00019 0.99981
POINT_DATA 8000
FIELD FieldData 1
potential 1 8000 double
0.00094508634625 0.00094508408292 0.00094508181959 0.00094507955628 0.00094507729299 0.0009450750297 0.00094507276643 0.00094507050317 0.00094506823992 
0.00094506597668 0.00094506371345 0.00094506145024 0.00094505918704 0.00094505692385 0.00094505466067 0.00094505239751 0.00094505013435 0.00094504787121 
0.00094504560809 0.00094504334497 0.00094508513574 0.00094508287241 0.0009450806091 0.00094507834579 0.0009450760825 0.00094507381922 0.00094507155595 
0.00094506929269 0.00094506702945 0.00094506476622 0.000945062503 0.00094506023979 0.00094505797659 0.00094505571341 0.00094505345024 0.00094505118708 
0.00094504892393 0.00094504666079 0.00094504439767 0.00094504213456 0.00094508392524 0.00094508166192 0.0009450793986 0.0009450771353 0.00094507487202 
0.00094507260874 0.00094507034548 0.00094506808223 0.00094506581899 0.00094506355576 0.00094506129254 0.00094505902934 0.00094505676615 0.00094505450297 
0.0009450522398 0.00094504997665 0.00094504771351 0.00094504545038 0.00094504318726 0.00094504092415 0.00094508271475 0.00094508045143 0.00094507818812 
0.00094507592483 0.00094507366154 0.00094507139827 0.00094506913501 0.00094506687177 0.00094506460853 0.00094506234531 0.0009450600821 0.0009450578189 
0.00094505555572 0.00094505329254 0.00094505102938 0.00094504876623 0.00094504650309 0.00094504423997 0.00094504197685 0.00094503971375 0.00094508150426 
0.00094507924095 0.00094507697764 0.00094507471435 0.00094507245108 0.00094507018781 0.00094506792456 0.00094506566132 0.00094506339809 0.00094506113487 
0.00094505887166 0.00094505660847 0.00094505434529 0.00094505208212 0.00094504981896 0.00094504755582 0.00094504529269 0.00094504302957 0.00094504076646 
0.00094503850336 0.00094508029378 0.00094507803047 0.00094507576717 0.00094507350389 0.00094507124062 0.00094506897736 0.00094506671411 0.00094506445087 
0.00094506218765 0.00094505992444 0.00094505766124 0.00094505539805 0.00094505313487 0.00094505087171 0.00094504860856 0.00094504634542 0.00094504408229 
0.00094504181917 0.00094503955607 0.00094503729298 0.00094507908331 0.00094507682 0.00094507455671 0.00094507229343 0.00094507003016 0.00094506776691 
0.00094506550367 0.00094506324043 0.00094506097721 0.00094505871401 0.00094505645081 0.00094505418763 0.00094505192446 0.0009450496613 0.00094504739815 
0.00094504513502 0.0009450428719 0.00094504060879 0.00094503834569 0.0009450360826 0.00094507787284 0.00094507560954 0.00094507334626 0.00094507108298 
0.00094506881972 0.00094506655647 0.00094506429323 0.00094506203 0.00094505976679 0.00094505750359 0.0009450552404 0.00094505297722 0.00094505071405 
0.0009450484509 0.00094504618776 0.00094504392463 0.00094504166151 0.0009450393984 0.00094503713531 0.00094503487223 0.00094507666238 0.00094507439909 
0.00094507213581 0.00094506987254 0.00094506760928 0.00094506534603 0.0009450630828 0.00094506081958 0.00094505855637 0.00094505629317 0.00094505402999 
0.00094505176682 0.00094504950365 0.00094504724051 0.00094504497737 0.00094504271424 0.00094504045113 0.00094503818803 0.00094503592494 0.00094503366187 
0.00094507545193 0.00094507318864 0.00094507092536 0.0009450686621 0.00094506639885 0.00094506413561 0.00094506187238 0.00094505960916 0.00094505734596 
0.00094505508277 0.00094505281959 0.00094505055642 0.00094504829326 0.00094504603012 0.00094504376699 0.00094504150387 0.00094503924076 0.00094503697766 
0.00094503471458 0.00094503245151 0.00094507424148 0.0009450719782 0.00094506971493 0.00094506745167 0.00094506518842 0.00094506292519 0.00094506066196 
0.00094505839875 0.00094505613555 0.00094505387237 0.00094505160919 0.00094504934603 0.00094504708288 0.00094504481974 0.00094504255661 0.0009450402935 
0.0009450380304 0.00094503576731 0.00094503350423 0.00094503124116 0.00094507303105 0.00094507076777 0.0009450685045 0.00094506624125 0.000945063978 
0.00094506171477 0.00094505945156 0.00094505718835 0.00094505492516 0.00094505266197 0.0009450503988 0.00094504813565 0.0009450458725 0.00094504360937 
0.00094504134625 0.00094503908314 0.00094503682004 0.00094503455695 0.00094503229388 0.00094503003082 0.00094507182062 0.00094506955734 0.00094506729408 
0.00094506503083 0.00094506276759 0.00094506050437 0.00094505824116 0.00094505597795 0.00094505371477 0.00094505145159 0.00094504918842 0.00094504692527 
0.00094504466213 0.000945042399 0.00094504013588 0.00094503787278 0.00094503560969 0.00094503334661 0.00094503108354 0.00094502882048 0.00094507061019 
0.00094506834692 0.00094506608367 0.00094506382042 0.00094506155719 0.00094505929397 0.00094505703076 0.00094505476757 0.00094505250438 0.00094505024121 
0.00094504797805 0.0009450457149 0.00094504345177 0.00094504118864 0.00094503892553 0.00094503666243 0.00094503439934 0.00094503213627 0.00094502987321 
0.00094502761016 0.00094506939977 0.00094506713651 0.00094506487326 0.00094506261002 0.00094506034679 0.00094505808358 0.00094505582037 0.00094505355718 
0.000945051294 0.00094504903084 0.00094504676768 0.00094504450454 0.00094504224141 0.00094503997829 0.00094503771518 0.00094503545209 0.00094503318901 
0.00094503092594 0.00094502866288 0.00094502639983 0.00094506818936 0.00094506592611 0.00094506366286 0.00094506139963 0.0009450591364 0.00094505687319 
0.00094505461 0.00094505234681 0.00094505008364 0.00094504782047 0.00094504555732 0.00094504329419 0.00094504103106 0.00094503876795 0.00094503650485 
0.00094503424176 0.00094503197868 0.00094502971561 0.00094502745256 0.00094502518952 0.00094506697896 0.00094506471571 0.00094506245247 0.00094506018924 
0.00094505792602 0.00094505566282 0.00094505339962 0.00094505113644 0.00094504887327 0.00094504661012 0.00094504434697 0.00094504208384 0.00094503982072 
0.00094503755761 0.00094503529451 0.00094503303143 0.00094503076836 0.0009450285053 0.00094502624225 0.00094502397921 0.00094506576857 0.00094506350532 
0.00094506124208 0.00094505897886 0.00094505671564 0.00094505445244 0.00094505218926 0.00094504992608 0.00094504766292 0.00094504539976 0.00094504313663 
0.0009450408735 0.00094503861038 0.00094503634728 0.00094503408419 0.00094503182111 0.00094502955804 0.00094502729499 0.00094502503194 0.00094502276891 
0.00094506455818 0.00094506229493 0.0009450600317 0.00094505776848 0.00094505550528 0.00094505324208 0.0009450509789 0.00094504871573 0.00094504645257 
0.00094504418942 0.00094504192629 0.00094503966316 0.00094503740005 0.00094503513696 0.00094503287387 0.00094503061079 0.00094502834773 0.00094502608468 
0.00094502382164 0.00094502155862 0.00094506334779 0.00094506108456 0.00094505882133 0.00094505655812 0.00094505429491 0.00094505203172 0.00094504976855 
0.00094504750538 0.00094504524223 0.00094504297908 0.00094504071596 0.00094503845284 0.00094503618973 0.00094503392664 0.00094503166356 0.00094502940049 
0.00094502713743 0.00094502487439 0.00094502261135 0.00094502034833 0.00094510482462 0.00094510256124 0.00094510029788 0.00094509803452 0.00094509577118 
0.00094509350784 0.00094509124452 0.00094508898122 0.00094508671792 0.00094508445464 0.00094508219137 0.00094507992811 0.00094507766486 0.00094507540163 
0.0009450731384 0.00094507087519 0.00094506861199 0.00094506634881 0.00094506408563 0.00094506182247 0.00094510361409 0.00094510135072 0.00094509908735 
0.000945096824 0.00094509456066 0.00094509229734 0.00094509003402 0.00094508777072 0.00094508550743 0.00094508324415 0.00094508098089 0.00094507871763 
0.00094507645439 0.00094507419116 0.00094507192794 0.00094506966474 0.00094506740154 0.00094506513836 0.00094506287519 0.00094506061203 0.00094510240357 
0.0009451001402 0.00094509787684 0.00094509561349 0.00094509335016 0.00094509108684 0.00094508882353 0.00094508656023 0.00094508429695 0.00094508203367 
0.00094507977041 0.00094507750716 0.00094507524392 0.0009450729807 0.00094507071749 0.00094506845429 0.0009450661911 0.00094506392792 0.00094506166476 
0.0009450594016 0.00094510119305 0.00094509892968 0.00094509666633 0.00094509440299 0.00094509213966 0.00094508987634 0.00094508761304 0.00094508534975 
0.00094508308647 0.0009450808232 0.00094507855994 0.0009450762967 0.00094507403347 0.00094507177025 0.00094506950704 0.00094506724384 0.00094506498066 
0.00094506271749 0.00094506045433 0.00094505819118 0.00094509998254 0.00094509771918 0.00094509545583 0.00094509319249 0.00094509092917 0.00094508866586 
0.00094508640256 0.00094508413927 0.000945081876 0.00094507961273 0.00094507734948 0.00094507508624 0.00094507282302 0.0009450705598 0.0009450682966 
0.00094506603341 0.00094506377023 0.00094506150706 0.00094505924391 0.00094505698077 0.00094509877203 0.00094509650868 0.00094509424534 0.00094509198201 
0.00094508971869 0.00094508745538 0.00094508519209 0.0009450829288 0.00094508066553 0.00094507840227 0.00094507613903 0.00094507387579 0.00094507161257 
0.00094506934936 0.00094506708616 0.00094506482298 0.00094506255981 0.00094506029664 0.00094505803349 0.00094505577036 0.00094509756154 0.00094509529819 
0.00094509303485 0.00094509077152 0.00094508850821 0.00094508624491 0.00094508398162 0.00094508171834 0.00094507945508 0.00094507719182 0.00094507492858 
0.00094507266535 0.00094507040214 0.00094506813893 0.00094506587574 0.00094506361256 0.00094506134939 0.00094505908623 0.00094505682309 0.00094505455996 
0.00094509635105 0.0009450940877 0.00094509182437 0.00094508956105 0.00094508729774 0.00094508503444 0.00094508277116 0.00094508050789 0.00094507824463 
0.00094507598138 0.00094507371814 0.00094507145492 0.00094506919171 0.00094506692851 0.00094506466532 0.00094506240214 0.00094506013898 0.00094505787583 
0.00094505561269 0.00094505334956 0.00094509514056 0.00094509287722 0.0009450906139 0.00094508835058 0.00094508608728 0.00094508382399 0.00094508156071 
0.00094507929744 0.00094507703418 0.00094507477094 0.00094507250771 0.00094507024449 0.00094506798128 0.00094506571809 0.00094506345491 0.00094506119174 
0.00094505892858 0.00094505666543 0.0009450544023 0.00094505213917 0.00094509393009 0.00094509166675 0.00094508940343 0.00094508714012 0.00094508487682 
0.00094508261353 0.00094508035026 0.000945078087 0.00094507582375 0.00094507356051 0.00094507129728 0.00094506903407 0.00094506677087 0.00094506450768 
0.0009450622445 0.00094505998134 0.00094505771818 0.00094505545504 0.00094505319191 0.00094505092879 0.00094509271962 0.00094509045629 0.00094508819297 
0.00094508592967 0.00094508366637 0.00094508140309 0.00094507913982 0.00094507687656 0.00094507461332 0.00094507235009 0.00094507008687 0.00094506782366 
0.00094506556046 0.00094506329727 0.0009450610341 0.00094505877094 0.00094505650779 0.00094505424466 0.00094505198153 0.00094504971842 0.00094509150916 
0.00094508924583 0.00094508698252 0.00094508471922 0.00094508245593 0.00094508019265 0.00094507792939 0.00094507566614 0.0009450734029 0.00094507113967 
0.00094506887645 0.00094506661325 0.00094506435006 0.00094506208688 0.00094505982371 0.00094505756056 0.00094505529741 0.00094505303428 0.00094505077116 
0.00094504850805 0.0009450902987 0.00094508803538 0.00094508577207 0.00094508350878 0.0009450812455 0.00094507898222 0.00094507671896 0.00094507445572 
0.00094507219248 0.00094506992926 0.00094506766605 0.00094506540285 0.00094506313966 0.00094506087649 0.00094505861333 0.00094505635018 0.00094505408704 
0.00094505182391 0.0009450495608 0.00094504729769 0.00094508908825 0.00094508682494 0.00094508456164 0.00094508229835 0.00094508003507 0.0009450777718 
0.00094507550855 0.0009450732453 0.00094507098207 0.00094506871886 0.00094506645565 0.00094506419246 0.00094506192928 0.00094505966611 0.00094505740295 
0.0009450551398 0.00094505287667 0.00094505061355 0.00094504835044 0.00094504608734 0.00094508787781 0.0009450856145 0.0009450833512 0.00094508108792 
0.00094507882465 0.00094507656139 0.00094507429814 0.0009450720349 0.00094506977167 0.00094506750846 0.00094506524526 0.00094506298207 0.00094506071889 
0.00094505845573 0.00094505619258 0.00094505392944 0.00094505166631 0.00094504940319 0.00094504714009 0.000945044877 0.00094508666738 0.00094508440407 
0.00094508214078 0.0009450798775 0.00094507761423 0.00094507535098 0.00094507308773 0.0009450708245 0.00094506856128 0.00094506629807 0.00094506403488 
0.00094506177169 0.00094505950852 0.00094505724536 0.00094505498221 0.00094505271908 0.00094505045596 0.00094504819284 0.00094504592975 0.00094504366666 
0.00094508545695 0.00094508319365 0.00094508093036 0.00094507866709 0.00094507640383 0.00094507414057 0.00094507187734 0.00094506961411 0.00094506735089 
0.00094506508769 0.0009450628245 0.00094506056132 0.00094505829815 0.000945056035 0.00094505377186 0.00094505150873 0.00094504924561 0.0009450469825 
0.00094504471941 0.00094504245633 0.00094508424653 0.00094508198324 0.00094507971995 0.00094507745668 0.00094507519343 0.00094507293018 0.00094507066695 
0.00094506840372 0.00094506614051 0.00094506387732 0.00094506161413 0.00094505935096 0.0009450570878 0.00094505482465 0.00094505256151 0.00094505029838 
0.00094504803527 0.00094504577217 0.00094504350908 0.000945041246 0.00094508303612 0.00094508077283 0.00094507850955 0.00094507624629 0.00094507398303 
0.00094507171979 0.00094506945656 0.00094506719335 0.00094506493014 0.00094506266695 0.00094506040377 0.0009450581406 0.00094505587744 0.0009450536143 
0.00094505135117 0.00094504908805 0.00094504682494 0.00094504456184 0.00094504229876 0.00094504003568 0.00094508182571 0.00094507956243 0.00094507729915 
0.00094507503589 0.00094507277265 0.00094507050941 0.00094506824619 0.00094506598297 0.00094506371977 0.00094506145659 0.00094505919341 0.00094505693025 
0.0009450546671 0.00094505240396 0.00094505014083 0.00094504787771 0.00094504561461 0.00094504335152 0.00094504108844 0.00094503882537 0.00094512330298 
0.00094512103955 0.00094511877614 0.00094511651274 0.00094511424935 0.00094511198597 0.0009451097226 0.00094510745925 0.00094510519591 0.00094510293258 
0.00094510066926 0.00094509840596 0.00094509614266 0.00094509387938 0.00094509161611 0.00094508935286 0.00094508708961 0.00094508482638 0.00094508256316 
0.00094508029995 0.00094512209242 0.000945119829 0.00094511756559 0.0009451153022 0.00094511303881 0.00094511077544 0.00094510851208 0.00094510624873 
0.00094510398539 0.00094510172207 0.00094509945876 0.00094509719546 0.00094509493217 0.00094509266889 0.00094509040563 0.00094508814238 0.00094508587914 
0.00094508361591 0.00094508135269 0.00094507908949 0.00094512088187 0.00094511861846 0.00094511635505 0.00094511409166 0.00094511182828 0.00094510956491 
0.00094510730156 0.00094510503822 0.00094510277488 0.00094510051156 0.00094509824826 0.00094509598496 0.00094509372168 0.00094509145841 0.00094508919515 
0.0009450869319 0.00094508466867 0.00094508240544 0.00094508014223 0.00094507787904 0.00094511967133 0.00094511740792 0.00094511514452 0.00094511288114 
0.00094511061776 0.0009451083544 0.00094510609105 0.00094510382771 0.00094510156438 0.00094509930107 0.00094509703777 0.00094509477448 0.0009450925112 
0.00094509024793 0.00094508798468 0.00094508572144 0.00094508345821 0.00094508119499 0.00094507893178 0.00094507666859 0.0009451184608 0.00094511619739 
0.000945113934 0.00094511167062 0.00094510940725 0.00094510714389 0.00094510488054 0.00094510261721 0.00094510035389 0.00094509809058 0.00094509582728 
0.000945093564 0.00094509130072 0.00094508903746 0.00094508677421 0.00094508451098 0.00094508224775 0.00094507998454 0.00094507772134 0.00094507545815 
0.00094511725027 0.00094511498687 0.00094511272348 0.0009451104601 0.00094510819674 0.00094510593338 0.00094510367004 0.00094510140672 0.0009450991434 
0.0009450968801 0.0009450946168 0.00094509235352 0.00094509009026 0.000945087827 0.00094508556376 0.00094508330052 0.0009450810373 0.0009450787741 
0.0009450765109 0.00094507424772 0.00094511603975 0.00094511377635 0.00094511151297 0.0009451092496 0.00094510698624 0.00094510472289 0.00094510245955 
0.00094510019623 0.00094509793292 0.00094509566962 0.00094509340633 0.00094509114306 0.00094508887979 0.00094508661654 0.0009450843533 0.00094508209008 
0.00094507982686 0.00094507756366 0.00094507530047 0.00094507303729 0.00094511482923 0.00094511256584 0.00094511030246 0.0009451080391 0.00094510577574 
0.0009451035124 0.00094510124907 0.00094509898575 0.00094509672245 0.00094509445915 0.00094509219587 0.0009450899326 0.00094508766934 0.0009450854061 
0.00094508314286 0.00094508087964 0.00094507861643 0.00094507635323 0.00094507409005 0.00094507182687 0.00094511361873 0.00094511135534 0.00094510909197 
0.0009451068286 0.00094510456526 0.00094510230192 0.00094510003859 0.00094509777528 0.00094509551198 0.00094509324869 0.00094509098541 0.00094508872215 
0.00094508645889 0.00094508419565 0.00094508193242 0.00094507966921 0.000945077406 0.00094507514281 0.00094507287963 0.00094507061646 0.00094511240823 
0.00094511014485 0.00094510788148 0.00094510561812 0.00094510335478 0.00094510109144 0.00094509882812 0.00094509656481 0.00094509430152 0.00094509203823 
0.00094508977496 0.0009450875117 0.00094508524845 0.00094508298522 0.00094508072199 0.00094507845878 0.00094507619558 0.0009450739324 0.00094507166922 
0.00094506940606 0.00094511119773 0.00094510893436 0.00094510667099 0.00094510440764 0.0009451021443 0.00094509988098 0.00094509761766 0.00094509535436 
0.00094509309107 0.00094509082779 0.00094508856452 0.00094508630126 0.00094508403802 0.00094508177479 0.00094507951157 0.00094507724837 0.00094507498517 
0.00094507272199 0.00094507045882 0.00094506819566 0.00094510998725 0.00094510772388 0.00094510546052 0.00094510319717 0.00094510093384 0.00094509867051 
0.0009450964072 0.00094509414391 0.00094509188062 0.00094508961735 0.00094508735408 0.00094508509083 0.0009450828276 0.00094508056437 0.00094507830116 
0.00094507603796 0.00094507377477 0.00094507151159 0.00094506924842 0.00094506698527 0.00094510877677 0.0009451065134 0.00094510425005 0.00094510198671 
0.00094509972338 0.00094509746006 0.00094509519675 0.00094509293346 0.00094509067018 0.00094508840691 0.00094508614365 0.00094508388041 0.00094508161718 
0.00094507935396 0.00094507709075 0.00094507482755 0.00094507256437 0.00094507030119 0.00094506803803 0.00094506577489 0.0009451075663 0.00094510530293 
0.00094510303959 0.00094510077625 0.00094509851293 0.00094509624961 0.00094509398631 0.00094509172302 0.00094508945975 0.00094508719648 0.00094508493323 
0.00094508266999 0.00094508040677 0.00094507814355 0.00094507588035 0.00094507361715 0.00094507135398 0.00094506909081 0.00094506682765 0.00094506456451 
0.00094510635583 0.00094510409247 0.00094510182913 0.0009450995658 0.00094509730248 0.00094509503917 0.00094509277588 0.0009450905126 0.00094508824932 
0.00094508598607 0.00094508372282 0.00094508145958 0.00094507919636 0.00094507693315 0.00094507466995 0.00094507240677 0.00094507014359 0.00094506788043 
0.00094506561728 0.00094506335414 0.00094510514537 0.00094510288202 0.00094510061868 0.00094509835536 0.00094509609204 0.00094509382874 0.00094509156545 
0.00094508930217 0.00094508703891 0.00094508477565 0.00094508251241 0.00094508024918 0.00094507798596 0.00094507572276 0.00094507345956 0.00094507119638 
0.00094506893321 0.00094506667006 0.00094506440691 0.00094506214378 0.00094510393492 0.00094510167158 0.00094509940824 0.00094509714492 0.00094509488161 
0.00094509261831 0.00094509035503 0.00094508809176 0.0009450858285 0.00094508356525 0.00094508130201 0.00094507903879 0.00094507677557 0.00094507451237 
0.00094507224918 0.00094506998601 0.00094506772284 0.00094506545969 0.00094506319655 0.00094506093342 0.00094510272448 0.00094510046114 0.00094509819781 
0.00094509593449 0.00094509367119 0.0009450914079 0.00094508914462 0.00094508688135 0.00094508461809 0.00094508235485 0.00094508009162 0.0009450778284 
0.00094507556519 0.00094507330199 0.00094507103881 0.00094506877564 0.00094506651248 0.00094506424933 0.0009450619862 0.00094505972307 0.00094510151404 
0.0009450992507 0.00094509698738 0.00094509472407 0.00094509246077 0.00094509019748 0.00094508793421 0.00094508567095 0.00094508340769 0.00094508114446 
0.00094507888123 0.00094507661801 0.00094507435481 0.00094507209162 0.00094506982844 0.00094506756528 0.00094506530212 0.00094506303898 0.00094506077585 
0.00094505851273 0.00094510030361 0.00094509804028 0.00094509577696 0.00094509351365 0.00094509125036 0.00094508898708 0.00094508672381 0.00094508446055 
0.0009450821973 0.00094507993407 0.00094507767085 0.00094507540764 0.00094507314444 0.00094507088126 0.00094506861808 0.00094506635492 0.00094506409177 
0.00094506182864 0.00094505956551 0.0009450573024 0.00094514178132 0.00094513951784 0.00094513725438 0.00094513499094 0.0009451327275 0.00094513046408 
0.00094512820066 0.00094512593726 0.00094512367388 0.0009451214105 0.00094511914714 0.00094511688379 0.00094511462045 0.00094511235712 0.00094511009381 
0.0009451078305 0.00094510556721 0.00094510330393 0.00094510104067 0.00094509877741 0.00094514057074 0.00094513830727 0.00094513604381 0.00094513378037 
0.00094513151694 0.00094512925352 0.00094512699011 0.00094512472672 0.00094512246334 0.00094512019997 0.00094511793661 0.00094511567326 0.00094511340993 
0.00094511114661 0.0009451088833 0.00094510662 0.00094510435671 0.00094510209344 0.00094509983018 0.00094509756693 0.00094513936016 0.0009451370967 
0.00094513483325 0.00094513256981 0.00094513030639 0.00094512804297 0.00094512577957 0.00094512351618 0.0009451212528 0.00094511898944 0.00094511672609 
0.00094511446274 0.00094511219942 0.0009451099361 0.00094510767279 0.0009451054095 0.00094510314622 0.00094510088295 0.00094509861969 0.00094509635645 
0.0009451381496 0.00094513588614 0.00094513362269 0.00094513135926 0.00094512909584 0.00094512683243 0.00094512456904 0.00094512230565 0.00094512004228 
0.00094511777892 0.00094511551557 0.00094511325223 0.00094511098891 0.0009451087256 0.0009451064623 0.00094510419901 0.00094510193573 0.00094509967247 
0.00094509740922 0.00094509514598 0.00094513693904 0.00094513467558 0.00094513241214 0.00094513014872 0.0009451278853 0.0009451256219 0.00094512335851 
0.00094512109513 0.00094511883176 0.0009451165684 0.00094511430506 0.00094511204173 0.00094510977841 0.0009451075151 0.00094510525181 0.00094510298853 
0.00094510072526 0.000945098462 0.00094509619875 0.00094509393552 0.00094513572848 0.00094513346504 0.0009451312016 0.00094512893818 0.00094512667477 
0.00094512441137 0.00094512214798 0.00094511988461 0.00094511762125 0.0009451153579 0.00094511309456 0.00094511083123 0.00094510856792 0.00094510630462 
0.00094510404133 0.00094510177805 0.00094509951478 0.00094509725153 0.00094509498829 0.00094509272506 0.00094513451794 0.0009451322545 0.00094512999107 
0.00094512772765 0.00094512546424 0.00094512320085 0.00094512093747 0.0009451186741 0.00094511641074 0.0009451141474 0.00094511188406 0.00094510962074 
0.00094510735743 0.00094510509414 0.00094510283085 0.00094510056758 0.00094509830432 0.00094509604107 0.00094509377783 0.00094509151461 0.0009451333074 
0.00094513104396 0.00094512878054 0.00094512651713 0.00094512425373 0.00094512199034 0.00094511972696 0.0009451174636 0.00094511520024 0.0009451129369 
0.00094511067358 0.00094510841026 0.00094510614696 0.00094510388366 0.00094510162038 0.00094509935712 0.00094509709386 0.00094509483062 0.00094509256739 
0.00094509030417 0.00094513209687 0.00094512983344 0.00094512757002 0.00094512530661 0.00094512304321 0.00094512077983 0.00094511851646 0.0009451162531 
0.00094511398975 0.00094511172642 0.0009451094631 0.00094510719978 0.00094510493649 0.0009451026732 0.00094510040992 0.00094509814666 0.00094509588341 
0.00094509362017 0.00094509135695 0.00094508909373 0.00094513088635 0.00094512862292 0.0009451263595 0.0009451240961 0.00094512183271 0.00094511956933 
0.00094511730597 0.00094511504261 0.00094511277927 0.00094511051594 0.00094510825262 0.00094510598932 0.00094510372602 0.00094510146274 0.00094509919947 
0.00094509693621 0.00094509467297 0.00094509240973 0.00094509014651 0.0009450878833 0.00094512967583 0.00094512741241 0.000945125149 0.0009451228856 
0.00094512062221 0.00094511835884 0.00094511609548 0.00094511383213 0.00094511156879 0.00094510930547 0.00094510704215 0.00094510477885 0.00094510251556 
0.00094510025229 0.00094509798902 0.00094509572577 0.00094509346253 0.0009450911993 0.00094508893609 0.00094508667288 0.00094512846532 0.0009451262019 
0.0009451239385 0.0009451216751 0.00094511941172 0.00094511714836 0.000945114885 0.00094511262165 0.00094511035832 0.000945108095 0.00094510583169 
0.0009451035684 0.00094510130512 0.00094509904184 0.00094509677858 0.00094509451534 0.0009450922521 0.00094508998888 0.00094508772567 0.00094508546247 
0.00094512725481 0.0009451249914 0.000945122728 0.00094512046462 0.00094511820124 0.00094511593788 0.00094511367453 0.00094511141119 0.00094510914786 
0.00094510688454 0.00094510462124 0.00094510235795 0.00094510009467 0.00094509783141 0.00094509556815 0.00094509330491 0.00094509104168 0.00094508877846 
0.00094508651525 0.00094508425206 0.00094512604432 0.00094512378091 0.00094512151752 0.00094511925413 0.00094511699076 0.00094511472741 0.00094511246406 
0.00094511020073 0.0009451079374 0.00094510567409 0.0009451034108 0.00094510114751 0.00094509888424 0.00094509662097 0.00094509435773 0.00094509209449 
0.00094508983126 0.00094508756805 0.00094508530485 0.00094508304166 0.00094512483383 0.00094512257043 0.00094512030704 0.00094511804366 0.0009451157803 
0.00094511351694 0.0009451112536 0.00094510899027 0.00094510672696 0.00094510446365 0.00094510220036 0.00094509993708 0.00094509767381 0.00094509541055 
0.00094509314731 0.00094509088407 0.00094508862085 0.00094508635765 0.00094508409445 0.00094508183126 0.00094512362335 0.00094512135995 0.00094511909657 
0.00094511683319 0.00094511456983 0.00094511230649 0.00094511004315 0.00094510777983 0.00094510551651 0.00094510325321 0.00094510098993 0.00094509872665 
0.00094509646339 0.00094509420013 0.00094509193689 0.00094508967367 0.00094508741045 0.00094508514725 0.00094508288406 0.00094508062088 0.00094512241287 
0.00094512014948 0.0009451178861 0.00094511562273 0.00094511335938 0.00094511109604 0.0009451088327 0.00094510656939 0.00094510430608 0.00094510204278 
0.0009450997795 0.00094509751623 0.00094509525297 0.00094509298972 0.00094509072649 0.00094508846327 0.00094508620006 0.00094508393686 0.00094508167367 
0.0009450794105 0.0009451212024 0.00094511893902 0.00094511667564 0.00094511441228 0.00094511214893 0.00094510988559 0.00094510762227 0.00094510535895 
0.00094510309565 0.00094510083236 0.00094509856908 0.00094509630582 0.00094509404256 0.00094509177932 0.00094508951609 0.00094508725288 0.00094508498967 
0.00094508272648 0.0009450804633 0.00094507820013 0.00094511999194 0.00094511772856 0.00094511546519 0.00094511320183 0.00094511093849 0.00094510867516 
0.00094510641183 0.00094510414853 0.00094510188523 0.00094509962194 0.00094509735867 0.00094509509541 0.00094509283216 0.00094509056893 0.0009450883057 
0.00094508604249 0.00094508377929 0.0009450815161 0.00094507925292 0.00094507698976 0.00094511878149 0.00094511651811 0.00094511425475 0.0009451119914 
0.00094510972805 0.00094510746473 0.00094510520141 0.00094510293811 0.00094510067482 0.00094509841154 0.00094509614827 0.00094509388501 0.00094509162177 
0.00094508935854 0.00094508709532 0.00094508483211 0.00094508256892 0.00094508030573 0.00094507804256 0.0009450757794 0.00094516025963 0.00094515799611 
0.00094515573261 0.00094515346911 0.00094515120563 0.00094514894216 0.00094514667871 0.00094514441526 0.00094514215183 0.0009451398884 0.00094513762499 
0.0009451353616 0.00094513309821 0.00094513083484 0.00094512857148 0.00094512630813 0.00094512404479 0.00094512178147 0.00094511951815 0.00094511725485 
0.00094515904903 0.00094515678552 0.00094515452201 0.00094515225853 0.00094514999505 0.00094514773158 0.00094514546813 0.00094514320469 0.00094514094126 
0.00094513867785 0.00094513641444 0.00094513415105 0.00094513188767 0.0009451296243 0.00094512736094 0.0009451250976 0.00094512283427 0.00094512057095 
0.00094511830764 0.00094511604435 0.00094515783843 0.00094515557492 0.00094515331143 0.00094515104794 0.00094514878447 0.00094514652101 0.00094514425756 
0.00094514199413 0.0009451397307 0.00094513746729 0.00094513520389 0.00094513294051 0.00094513067713 0.00094512841377 0.00094512615042 0.00094512388708 
0.00094512162375 0.00094511936044 0.00094511709713 0.00094511483384 0.00094515662784 0.00094515436434 0.00094515210085 0.00094514983737 0.0009451475739 
0.00094514531045 0.000945143047 0.00094514078357 0.00094513852015 0.00094513625675 0.00094513399335 0.00094513172997 0.0009451294666 0.00094512720324 
0.0009451249399 0.00094512267656 0.00094512041324 0.00094511814993 0.00094511588663 0.00094511362335 0.00094515541726 0.00094515315376 0.00094515089027 
0.0009451486268 0.00094514636334 0.00094514409989 0.00094514183645 0.00094513957303 0.00094513730961 0.00094513504621 0.00094513278282 0.00094513051944 
0.00094512825608 0.00094512599273 0.00094512372939 0.00094512146606 0.00094511920274 0.00094511693943 0.00094511467614 0.00094511241286 0.00094515420668 
0.00094515194319 0.00094514967971 0.00094514741624 0.00094514515278 0.00094514288934 0.0009451406259 0.00094513836248 0.00094513609908 0.00094513383568 
0.0009451315723 0.00094512930892 0.00094512704556 0.00094512478222 0.00094512251888 0.00094512025556 0.00094511799224 0.00094511572894 0.00094511346566 
0.00094511120238 0.00094515299611 0.00094515073262 0.00094514846915 0.00094514620568 0.00094514394223 0.00094514167879 0.00094513941537 0.00094513715195 
0.00094513488855 0.00094513262516 0.00094513036178 0.00094512809841 0.00094512583505 0.00094512357171 0.00094512130838 0.00094511904506 0.00094511678176 
0.00094511451846 0.00094511225518 0.00094510999191 0.00094515178555 0.00094514952207 0.0009451472586 0.00094514499514 0.00094514273169 0.00094514046826 