# vtk DataFile Version 5.1
vtk output
ASCII
DATASET STRUCTURED_POINTS
DIMENSIONS 20 20 20
SPACING 2e-05 2e-05 2e-05
ORIGIN 3.69981 -0.00019 0.99981
POINT_DATA 8000
FIELD FieldData 1
potential 1 8000 double
0.045379066297 0.045378899745 0.045378733192 0.045378566636 0.045378400079 0.045378233519 0.045378066958 0.045377900395 0.045377733829 
0.045377567262 0.045377400693 0.045377234122 0.045377067549 0.045376900974 0.045376734398 0.045376567819 0.045376401238 0.045376234656 
0.045376068071 0.045375901485 0.045379745632 0.045379579076 0.045379412519 0.04537924596 0.045379079399 0.045378912836 0.045378746272 
0.045378579705 0.045378413136 0.045378246565 0.045378079993 0.045377913418 0.045377746842 0.045377580263 0.045377413683 0.045377247101 
0.045377080517 0.045376913931 0.045376747343 0.045376580753 0.04538042498 0.045380258422 0.045380091861 0.045379925299 0.045379758734 
0.045379592168 0.045379425599 0.045379259029 0.045379092457 0.045378925883 0.045378759306 0.045378592728 0.045378426149 0.045378259567 
0.045378092983 0.045377926397 0.045377759809 0.04537759322 0.045377426628 0.045377260035 0.045381104343 0.045380937781 0.045380771217 
0.045380604651 0.045380438083 0.045380271513 0.045380104941 0.045379938367 0.045379771791 0.045379605214 0.045379438634 0.045379272053 
0.045379105469 0.045378938884 0.045378772296 0.045378605707 0.045378439116 0.045378272523 0.045378105928 0.045377939331 0.04538178372 
0.045381617154 0.045381450587 0.045381284017 0.045381117446 0.045380950872 0.045380784297 0.045380617719 0.04538045114 0.045380284559 
0.045380117976 0.045379951391 0.045379784804 0.045379618215 0.045379451624 0.045379285031 0.045379118436 0.04537895184 0.045378785241 
0.045378618641 0.045382463111 0.045382296542 0.04538212997 0.045381963397 0.045381796822 0.045381630245 0.045381463666 0.045381297085 
0.045381130503 0.045380963918 0.045380797331 0.045380630743 0.045380464152 0.04538029756 0.045380130965 0.045379964369 0.045379797771 
0.045379631171 0.045379464569 0.045379297965 0.045383142515 0.045382975943 0.045382809368 0.045382642791 0.045382476213 0.045382309632 
0.04538214305 0.045381976466 0.045381809879 0.045381643291 0.045381476701 0.045381310109 0.045381143515 0.045380976919 0.045380810321 
0.045380643721 0.045380477119 0.045380310516 0.04538014391 0.045379977303 0.045383821934 0.045383655358 0.04538348878 0.0453833222 
0.045383155618 0.045382989034 0.045382822448 0.04538265586 0.04538248927 0.045382322678 0.045382156085 0.045381989489 0.045381822891 
0.045381656292 0.04538148969 0.045381323087 0.045381156482 0.045380989875 0.045380823266 0.045380656654 0.045384501367 0.045384334787 
0.045384168205 0.045384001622 0.045383835036 0.045383668449 0.045383501859 0.045383335268 0.045383168674 0.045383002079 0.045382835482 
0.045382668883 0.045382502282 0.045382335679 0.045382169074 0.045382002467 0.045381835858 0.045381669248 0.045381502635 0.04538133602 
0.045385180814 0.04538501423 0.045384847645 0.045384681058 0.045384514469 0.045384347878 0.045384181285 0.04538401469 0.045383848093 
0.045383681494 0.045383514894 0.045383348291 0.045383181686 0.04538301508 0.045382848471 0.045382681861 0.045382515249 0.045382348635 
0.045382182018 0.0453820154 0.045385860274 0.045385693687 0.045385527099 0.045385360508 0.045385193915 0.045385027321 0.045384860724 
0.045384694126 0.045384527526 0.045384360923 0.045384194319 0.045384027713 0.045383861105 0.045383694495 0.045383527883 0.045383361269 
0.045383194653 0.045383028035 0.045382861416 0.045382694794 0.045386539749 0.045386373159 0.045386206566 0.045386039972 0.045385873376 
0.045385706778 0.045385540178 0.045385373576 0.045385206972 0.045385040366 0.045384873759 0.045384707149 0.045384540537 0.045384373924 
0.045384207308 0.045384040691 0.045383874072 0.04538370745 0.045383540827 0.045383374202 0.045387219238 0.045387052644 0.045386886048 
0.04538671945 0.045386552851 0.045386386249 0.045386219645 0.04538605304 0.045385886433 0.045385719823 0.045385553212 0.045385386599 
0.045385219984 0.045385053367 0.045384886748 0.045384720127 0.045384553504 0.045384386879 0.045384220252 0.045384053624 0.04538789874 
0.045387732143 0.045387565543 0.045387398942 0.045387232339 0.045387065734 0.045386899127 0.045386732518 0.045386565907 0.045386399294 
0.04538623268 0.045386066063 0.045385899444 0.045385732824 0.045385566201 0.045385399577 0.04538523295 0.045385066322 0.045384899692 
0.04538473306 0.045388578257 0.045388411656 0.045388245053 0.045388078448 0.045387911842 0.045387745233 0.045387578622 0.04538741201 
0.045387245396 0.045387078779 0.045386912161 0.045386745541 0.045386578919 0.045386412295 0.045386245669 0.045386079041 0.045385912411 
0.045385745779 0.045385579145 0.045385412509 0.045389257787 0.045389091183 0.045388924577 0.045388757968 0.045388591358 0.045388424746 
0.045388258132 0.045388091516 0.045387924898 0.045387758278 0.045387591656 0.045387425033 0.045387258407 0.045387091779 0.04538692515 
0.045386758518 0.045386591885 0.04538642525 0.045386258612 0.045386091973 0.045389937332 0.045389770724 0.045389604114 0.045389437502 
0.045389270889 0.045389104273 0.045388937655 0.045388771036 0.045388604414 0.045388437791 0.045388271166 0.045388104539 0.045387937909 
0.045387771278 0.045387604645 0.04538743801 0.045387271373 0.045387104734 0.045386938094 0.045386771451 0.04539061689 0.045390450279 
0.045390283666 0.04539011705 0.045389950433 0.045389783814 0.045389617193 0.04538945057 0.045389283945 0.045389117318 0.045388950689 
0.045388784058 0.045388617426 0.045388450791 0.045388284155 0.045388117516 0.045387950876 0.045387784233 0.045387617589 0.045387450943 
0.045391296463 0.045391129848 0.045390963231 0.045390796612 0.045390629992 0.045390463369 0.045390296744 0.045390130118 0.045389963489 
0.045389796859 0.045389630227 0.045389463592 0.045389296956 0.045389130318 0.045388963678 0.045388797036 0.045388630392 0.045388463746 
0.045388297098 0.045388130448 0.04539197605 0.045391809431 0.045391642811 0.045391476188 0.045391309564 0.045391142938 0.04539097631 
0.04539080968 0.045390643048 0.045390476414 0.045390309778 0.04539014314 0.0453899765 0.045389809859 0.045389643215 0.04538947657 
0.045389309922 0.045389143273 0.045388976621 0.045388809968 0.045379692782 0.045379526228 0.045379359673 0.045379193115 0.045379026556 
0.045378859995 0.045378693431 0.045378526866 0.045378360299 0.04537819373 0.045378027159 0.045377860586 0.045377694012 0.045377527435 
0.045377360856 0.045377194276 0.045377027693 0.045376861109 0.045376694522 0.045376527934 0.045380372122 0.045380205565 0.045380039006 
0.045379872445 0.045379705882 0.045379539318 0.045379372751 0.045379206182 0.045379039612 0.045378873039 0.045378706465 0.045378539888 
0.04537837331 0.04537820673 0.045378040148 0.045377873563 0.045377706977 0.045377540389 0.0453773738 0.045377207208 0.045381051477 
0.045380884916 0.045380718354 0.045380551789 0.045380385223 0.045380218655 0.045380052084 0.045379885512 0.045379718938 0.045379552362 
0.045379385784 0.045379219204 0.045379052622 0.045378886039 0.045378719453 0.045378552865 0.045378386276 0.045378219684 0.045378053091 
0.045377886495 0.045381730845 0.045381564281 0.045381397715 0.045381231147 0.045381064577 0.045380898005 0.045380731432 0.045380564856 
0.045380398278 0.045380231699 0.045380065117 0.045379898534 0.045379731949 0.045379565361 0.045379398772 0.045379232181 0.045379065588 
0.045378898993 0.045378732396 0.045378565797 0.045382410228 0.04538224366 0.045382077091 0.045381910519 0.045381743946 0.04538157737 
0.045381410793 0.045381244214 0.045381077633 0.04538091105 0.045380744465 0.045380577878 0.045380411289 0.045380244698 0.045380078105 
0.045379911511 0.045379744914 0.045379578316 0.045379411715 0.045379245113 0.045383089624 0.045382923053 0.04538275648 0.045382589905 
0.045382423328 0.045382256749 0.045382090169 0.045381923586 0.045381757001 0.045381590415 0.045381423826 0.045381257236 0.045381090643 
0.045380924049 0.045380757453 0.045380590855 0.045380424254 0.045380257652 0.045380091048 0.045379924443 0.045383769035 0.04538360246 
0.045383435883 0.045383269305 0.045383102725 0.045382936142 0.045382769558 0.045382602972 0.045382436384 0.045382269793 0.045382103201 
0.045381936607 0.045381770012 0.045381603414 0.045381436814 0.045381270212 0.045381103609 0.045380937003 0.045380770396 0.045380603786 
0.045384448459 0.045384281881 0.045384115301 0.045383948719 0.045383782135 0.045383615549 0.045383448961 0.045383282372 0.04538311578 
0.045382949186 0.045382782591 0.045382615993 0.045382449394 0.045382282792 0.045382116189 0.045381949584 0.045381782977 0.045381616368 
0.045381449757 0.045381283144 0.045385127897 0.045384961316 0.045384794732 0.045384628147 0.045384461559 0.04538429497 0.045384128379 
0.045383961785 0.04538379519 0.045383628593 0.045383461994 0.045383295393 0.04538312879 0.045382962185 0.045382795578 0.04538262897 
0.045382462359 0.045382295746 0.045382129132 0.045381962515 0.04538580735 0.045385640765 0.045385474178 0.045385307589 0.045385140998 
0.045384974405 0.04538480781 0.045384641213 0.045384474614 0.045384308014 0.045384141411 0.045383974807 0.0453838082 0.045383641592 
0.045383474982 0.045383308369 0.045383141755 0.045382975139 0.045382808521 0.045382641901 0.045386486816 0.045386320228 0.045386153637 
0.045385987044 0.04538582045 0.045385653854 0.045385487255 0.045385320655 0.045385154053 0.045384987449 0.045384820842 0.045384654234 
0.045384487624 0.045384321013 0.045384154399 0.045383987783 0.045383821165 0.045383654546 0.045383487924 0.045383321301 0.045387166297 
0.045386999704 0.04538683311 0.045386666514 0.045386499916 0.045386333316 0.045386166714 0.045386000111 0.045385833505 0.045385666897 
0.045385500288 0.045385333676 0.045385167063 0.045385000447 0.04538483383 0.045384667211 0.045384500589 0.045384333966 0.045384167341 
0.045384000714 0.045387845791 0.045387679195 0.045387512598 0.045387345998 0.045387179397 0.045387012793 0.045386846188 0.04538667958 
0.045386512971 0.04538634636 0.045386179747 0.045386013132 0.045385846515 0.045385679896 0.045385513275 0.045385346652 0.045385180028 
0.045385013401 0.045384846772 0.045384680142 0.045388525299 0.0453883587 0.045388192099 0.045388025496 0.045387858891 0.045387692284 
0.045387525675 0.045387359064 0.045387192451 0.045387025837 0.04538685922 0.045386692601 0.045386525981 0.045386359359 0.045386192734 
0.045386026108 0.04538585948 0.045385692849 0.045385526217 0.045385359583 0.045389204822 0.045389038219 0.045388871614 0.045388705008 
0.045388538399 0.045388371789 0.045388205176 0.045388038562 0.045387871946 0.045387705327 0.045387538707 0.045387372085 0.045387205461 
0.045387038835 0.045386872207 0.045386705577 0.045386538946 0.045386372312 0.045386205676 0.045386039039 0.045389884358 0.045389717752 
0.045389551144 0.045389384533 0.045389217921 0.045389051307 0.045388884691 0.045388718074 0.045388551454 0.045388384832 0.045388218208 
0.045388051583 0.045387884955 0.045387718326 0.045387551694 0.045387385061 0.045387218426 0.045387051789 0.045386885149 0.045386718508 
0.045390563908 0.045390397298 0.045390230687 0.045390064073 0.045389897458 0.04538973084 0.045389564221 0.045389397599 0.045389230976 
0.045389064351 0.045388897723 0.045388731094 0.045388564463 0.04538839783 0.045388231195 0.045388064559 0.04538789792 0.045387731279 
0.045387564636 0.045387397992 0.045391243473 0.045391076859 0.045390910244 0.045390743627 0.045390577008 0.045390410387 0.045390243764 
0.045390077139 0.045389910512 0.045389743883 0.045389577253 0.04538941062 0.045389243985 0.045389077349 0.04538891071 0.04538874407 
0.045388577428 0.045388410784 0.045388244137 0.045388077489 0.045391923051 0.045391756434 0.045391589815 0.045391423195 0.045391256572 
0.045391089947 0.045390923321 0.045390756693 0.045390590062 0.04539042343 0.045390256796 0.04539009016 0.045389923521 0.045389756881 
0.04538959024 0.045389423596 0.04538925695 0.045389090302 0.045388923652 0.045388757001 0.045392602643 0.045392436023 0.0453922694 
0.045392102776 0.04539193615 0.045391769522 0.045391602892 0.04539143626 0.045391269626 0.045391102991 0.045390936353 0.045390769713 
0.045390603072 0.045390436428 0.045390269783 0.045390103135 0.045389936486 0.045389769835 0.045389603181 0.045389436526 0.045380319254 
0.045380152699 0.045379986142 0.045379819582 0.045379653021 0.045379486458 0.045379319893 0.045379153326 0.045378986757 0.045378820186 
0.045378653613 0.045378487039 0.045378320462 0.045378153883 0.045377987303 0.04537782072 0.045377654136 0.04537748755 0.045377320961 
0.045377154371 0.045380998601 0.045380832042 0.045380665481 0.045380498918 0.045380332353 0.045380165787 0.045379999218 0.045379832648 
0.045379666075 0.045379499501 0.045379332925 0.045379166346 0.045378999766 0.045378833184 0.0453786666 0.045378500014 0.045378333426 
0.045378166836 0.045378000244 0.045377833651 0.045381677961 0.045381511399 0.045381344834 0.045381178268 0.0453810117 0.045380845129 
0.045380678557 0.045380511983 0.045380345407 0.045380178829 0.04538001225 0.045379845668 0.045379679084 0.045379512499 0.045379345911 
0.045379179321 0.04537901273 0.045378846137 0.045378679541 0.045378512944 0.045382357335 0.045382190769 0.045382024201 0.045381857632 
0.04538169106 0.045381524486 0.04538135791 0.045381191333 0.045381024753 0.045380858172 0.045380691589 0.045380525003 0.045380358416 
0.045380191827 0.045380025236 0.045379858643 0.045379692048 0.045379525451 0.045379358852 0.045379192252 0.045383036723 0.045382870154 
0.045382703583 0.045382537009 0.045382370434 0.045382203857 0.045382037278 0.045381870697 0.045381704114 0.045381537529 0.045381370942 
0.045381204353 0.045381037762 0.04538087117 0.045380704575 0.045380537978 0.04538037138 0.04538020478 0.045380038177 0.045379871573 
0.045383716126 0.045383549553 0.045383382978 0.045383216401 0.045383049822 0.045382883241 0.045382716659 0.045382550074 0.045382383488 
0.045382216899 0.045382050309 0.045381883716 0.045381717122 0.045381550526 0.045381383928 0.045381217328 0.045381050726 0.045380884122 
0.045380717516 0.045380550908 0.045384395542 0.045384228965 0.045384062387 0.045383895806 0.045383729224 0.04538356264 0.045383396054 
0.045383229466 0.045383062876 0.045382896284 0.04538272969 0.045382563094 0.045382396496 0.045382229897 0.045382063295 0.045381896691 
0.045381730086 0.045381563478 0.045381396869 0.045381230258 0.045385074972 0.045384908392 0.04538474181 0.045384575226 0.04538440864 
0.045384242053 0.045384075463 0.045383908871 0.045383742278 0.045383575682 0.045383409085 0.045383242485 0.045383075884 0.045382909281 
0.045382742676 0.045382576069 0.04538240946 0.045382242849 0.045382076236 0.045381909621 0.045385754416 0.045385587833 0.045385421247 
0.04538525466 0.04538508807 0.045384921479 0.045384754886 0.045384588291 0.045384421694 0.045384255095 0.045384088494 0.045383921891 
0.045383755286 0.045383588679 0.045383422071 0.04538325546 0.045383088848 0.045382922233 0.045382755617 0.045382588999 0.045386433874 
0.045386267287 0.045386100698 0.045385934107 0.045385767514 0.04538560092 0.045385434323 0.045385267724 0.045385101124 0.045384934521 
0.045384767917 0.04538460131 0.045384434702 0.045384268092 0.04538410148 0.045383934866 0.04538376825 0.045383601632 0.045383435012 
0.04538326839 0.045387113346 0.045386946756 0.045386780163 0.045386613569 0.045386446972 0.045386280374 0.045386113774 0.045385947172 
0.045385780568 0.045385613962 0.045385447354 0.045385280744 0.045385114132 0.045384947518 0.045384780903 0.045384614285 0.045384447665 
0.045384281044 0.045384114421 0.045383947795 0.045387792832 0.045387626238 0.045387459642 0.045387293044 0.045387126444 0.045386959843 
0.045386793239 0.045386626633 0.045386460026 0.045386293416 0.045386126805 0.045385960191 0.045385793576 0.045385626959 0.045385460339 
0.045385293718 0.045385127095 0.04538496047 0.045384793843 0.045384627214 0.045388472332 0.045388305735 0.045388139135 0.045387972534 
0.04538780593 0.045387639325 0.045387472718 0.045387306109 0.045387139498 0.045386972885 0.04538680627 0.045386639653 0.045386473034 
0.045386306413 0.04538613979 0.045385973166 0.045385806539 0.045385639911 0.04538547328 0.045385306648 0.045389151846 0.045388985245 
0.045388818642 0.045388652037 0.04538848543 0.045388318822 0.045388152211 0.045387985598 0.045387818984 0.045387652367 0.045387485748 
0.045387319128 0.045387152506 0.045386985881 0.045386819255 0.045386652627 0.045386485997 0.045386319365 0.045386152731 0.045385986095 
0.045389831375 0.04538966477 0.045389498163 0.045389331555 0.045389164944 0.045388998332 0.045388831718 0.045388665102 0.045388498483 
0.045388331863 0.045388165241 0.045387998617 0.045387831992 0.045387665364 0.045387498734 0.045387332102 0.045387165469 0.045386998833 
0.045386832196 0.045386665556 0.045390510917 0.045390344308 0.045390177698 0.045390011086 0.045389844472 0.045389677857 0.045389511239 
0.045389344619 0.045389177997 0.045389011374 0.045388844748 0.045388678121 0.045388511491 0.04538834486 0.045388178227 0.045388011592 
0.045387844954 0.045387678315 0.045387511674 0.045387345031 0.045391190473 0.045391023861 0.045390857247 0.045390690632 0.045390524014 
0.045390357395 0.045390190774 0.04539002415 0.045389857525 0.045389690898 0.045389524269 0.045389357638 0.045389191005 0.04538902437 
0.045388857734 0.045388691095 0.045388524454 0.045388357812 0.045388191167 0.045388024521 0.045391870043 0.045391703427 0.04539153681 
0.045391370191 0.04539120357 0.045391036947 0.045390870323 0.045390703696 0.045390537067 0.045390370436 0.045390203804 0.045390037169 
0.045389870533 0.045389703895 0.045389537254 0.045389370612 0.045389203968 0.045389037322 0.045388870674 0.045388704024 0.045392549627 
0.045392383008 0.045392216387 0.045392049765 0.04539188314 0.045391716514 0.045391549885 0.045391383255 0.045391216623 0.045391049989 
0.045390883353 0.045390716715 0.045390550075 0.045390383433 0.045390216789 0.045390050143 0.045389883496 0.045389716846 0.045389550195 
0.045389383541 0.045393229225 0.045393062602 0.045392895978 0.045392729352 0.045392562724 0.045392396094 0.045392229462 0.045392062829 
0.045391896193 0.045391729555 0.045391562916 0.045391396274 0.045391229631 0.045391062985 0.045390896338 0.045390729689 0.045390563037 
0.045390396384 0.045390229729 0.045390063072 0.045380945715 0.045380779158 0.045380612599 0.045380446038 0.045380279474 0.045380112909 
0.045379946343 0.045379779774 0.045379613203 0.04537944663 0.045379280055 0.045379113479 0.0453789469 0.04537878032 0.045378613737 
0.045378447153 0.045378280567 0.045378113979 0.045377947389 0.045377780796 0.045381625067 0.045381458506 0.045381291944 0.045381125379 
0.045380958812 0.045380792244 0.045380625673 0.045380459101 0.045380292527 0.04538012595 0.045379959372 0.045379792792 0.04537962621 
0.045379459626 0.04537929304 0.045379126452 0.045378959863 0.045378793271 0.045378626677 0.045378460082 0.045382304433 0.045382137869 
0.045381971303 0.045381804734 0.045381638164 0.045381471592 0.045381305018 0.045381138442 0.045380971865 0.045380805285 0.045380638703 
0.045380472119 0.045380305534 0.045380138946 0.045379972357 0.045379805766 0.045379639172 0.045379472577 0.04537930598 0.045379139381 
0.045382983813 0.045382817245 0.045382650675 0.045382484104 0.04538231753 0.045382150955 0.045381984377 0.045381817798 0.045381651216 
0.045381484633 0.045381318048 0.045381151461 0.045380984872 0.045380818281 0.045380651688 0.045380485093 0.045380318496 0.045380151897 
0.045379985297 0.045379818694 0.045383663207 0.045383496636 0.045383330062 0.045383163487 0.04538299691 0.045382830331 0.04538266375 
0.045382497167 0.045382330582 0.045382163995 0.045381997407 0.045381830816 0.045381664223 0.045381497629 0.045381331032 0.045381164434 
0.045380997834 0.045380831231 0.045380664627 0.045380498021 0.045384342615 0.04538417604 0.045384009463 0.045383842885 0.045383676304 
0.045383509721 0.045383343137 0.04538317655 0.045383009962 0.045382843372 0.045382676779 0.045382510185 0.045382343589 0.045382176991 
0.045382010391 0.045381843789 0.045381677185 0.04538151058 0.045381343972 0.045381177362 0.045385022037 0.045384855458 0.045384688878 
0.045384522296 0.045384355712 0.045384189126 0.045384022538 0.045383855948 0.045383689356 0.045383522762 0.045383356166 0.045383189568 
0.045383022969 0.045382856367 0.045382689764 0.045382523158 0.045382356551 0.045382189942 0.045382023331 0.045381856717 0.045385701473 
0.045385534891 0.045385368307 0.045385201721 0.045385035134 0.045384868544 0.045384701952 0.045384535359 0.045384368764 0.045384202166 
0.045384035567 0.045383868966 0.045383702363 0.045383535757 0.04538336915 0.045383202542 0.045383035931 0.045382869318 0.045382702703 
0.045382536086 0.045386380923 0.045386214337 0.04538604775 0.045385881161 0.045385714569 0.045385547976 0.045385381381 0.045385214784 
0.045385048185 0.045384881584 0.045384714982 0.045384548377 0.04538438177 0.045384215162 0.045384048551 0.045383881939 0.045383715324 
0.045383548708 0.04538338209 0.04538321547 0.045387060386 0.045386893797 0.045386727207 0.045386560614 0.045386394019 0.045386227423 
0.045386060824 0.045385894223 0.045385727621 0.045385561017 0.04538539441 0.045385227802 0.045385061192 0.04538489458 0.045384727966 
0.04538456135 0.045384394732 0.045384228112 0.04538406149 0.045383894867 0.045387739864 0.045387573272 0.045387406677 0.045387240081 
0.045387073483 0.045386906883 0.045386740281 0.045386573677 0.045386407071 0.045386240463 0.045386073853 0.045385907241 0.045385740628 
0.045385574012 0.045385407394 0.045385240775 0.045385074153 0.04538490753 0.045384740905 0.045384574278 0.045388419356 0.04538825276 
0.045388086162 0.045387919562 0.045387752961 0.045387586357 0.045387419751 0.045387253144 0.045387086534 0.045386919923 0.04538675331 
0.045386586694 0.045386420077 0.045386253458 0.045386086837 0.045385920214 0.045385753589 0.045385586962 0.045385420333 0.045385253703 
0.045389098862 0.045388932262 0.045388765661 0.045388599058 0.045388432452 0.045388265845 0.045388099236 0.045387932625 0.045387766012 
0.045387599397 0.04538743278 0.045387266161 0.045387099541 0.045386932918 0.045386766294 0.045386599667 0.045386433039 0.045386266408 
0.045386099776 0.045385933142 0.045389778382 0.045389611779 0.045389445174 0.045389278567 0.045389111958 0.045388945347 0.045388778735 
0.04538861212 0.045388445504 0.045388278885 0.045388112265 0.045387945643 0.045387779018 0.045387612392 0.045387445764 0.045387279134 
0.045387112502 0.045386945868 0.045386779232 0.045386612595 0.045390457915 0.045390291309 0.0453901247 0.04538995809 0.045389791478 
0.045389624864 0.045389458247 0.045389291629 0.045389125009 0.045388958387 0.045388791763 0.045388625138 0.04538845851 0.04538829188 
0.045388125249 0.045387958615 0.04538779198 0.045387625342 0.045387458703 0.045387292062 0.045391137463 0.045390970853 0.045390804241 
0.045390637627 0.045390471011 0.045390304394 0.045390137774 0.045389971152 0.045389804529 0.045389637903 0.045389471276 0.045389304647 
0.045389138015 0.045388971382 0.045388804747 0.04538863811 0.045388471471 0.04538830483 0.045388138187 0.045387971542 0.045391817025 
0.045391650411 0.045391483796 0.045391317178 0.045391150559 0.045390983938 0.045390817315 0.04539065069 0.045390484063 0.045390317434 
0.045390150803 0.04538998417 0.045389817535 0.045389650898 0.04538948426 0.045389317619 0.045389150977 0.045388984332 0.045388817686 
0.045388651037 0.045392496601 0.045392329983 0.045392163365 0.045391996744 0.045391830121 0.045391663496 0.045391496869 0.045391330241 
0.04539116361 0.045390996978 0.045390830343 0.045390663707 0.045390497069 0.045390330428 0.045390163786 0.045389997142 0.045389830496 
0.045389663848 0.045389497198 0.045389330546 0.04539317619 0.04539300957 0.045392842947 0.045392676323 0.045392509696 0.045392343068 
0.045392176438 0.045392009806 0.045391843172 0.045391676536 0.045391509898 0.045391343258 0.045391176616 0.045391009972 0.045390843327 
0.045390676679 0.045390510029 0.045390343378 0.045390176725 0.045390010069 0.045393855794 0.04539368917 0.045393522544 0.045393355916 
0.045393189286 0.045393022654 0.045392856021 0.045392689385 0.045392522747 0.045392356108 0.045392189466 0.045392022823 0.045391856178 
0.04539168953 0.045391522881 0.04539135623 0.045391189577 0.045391022922 0.045390856265 0.045390689606 0.045381572164 0.045381405605 
0.045381239044 0.045381072481 0.045380905916 0.045380739349 0.04538057278 0.045380406209 0.045380239637 0.045380073062 0.045379906485 
0.045379739907 0.045379573327 0.045379406744 0.04537924016 0.045379073574 0.045378906986 0.045378740396 0.045378573804 0.04537840721 
0.045382251522 0.045382084959 0.045381918394 0.045381751828 0.045381585259 0.045381418689 0.045381252117 0.045381085542 0.045380918966 
0.045380752388 0.045380585808 0.045380419226 0.045380252642 0.045380086056 0.045379919468 0.045379752879 0.045379586287 0.045379419694 
0.045379253098 0.045379086501 0.045382930893 0.045382764327 0.045382597759 0.045382431189 0.045382264617 0.045382098043 0.045381931467 
0.045381764889 0.04538159831 0.045381431728 0.045381265145 0.045381098559 0.045380931972 0.045380765382 0.045380598791 0.045380432198 
0.045380265603 0.045380099005 0.045379932406 0.045379765805 0.045383610279 0.045383443709 0.045383277138 0.045383110564 0.045382943989 
0.045382777411 0.045382610832 0.045382444251 0.045382277667 0.045382111082 0.045381944495 0.045381777906 0.045381611315 0.045381444722 
0.045381278127 0.045381111531 0.045380944932 0.045380778331 0.045380611729 0.045380445124 0.045384289679 0.045384123105 0.04538395653 
0.045383789953 0.045383623374 0.045383456793 0.04538329021 0.045383123626 0.045382957039 0.04538279045 0.04538262386 0.045382457267 
0.045382290673 0.045382124076 0.045381957478 0.045381790878 0.045381624275 0.045381457671 0.045381291065 0.045381124457 0.045384969092 
0.045384802515 0.045384635937 0.045384469356 0.045384302774 0.045384136189 0.045383969603 0.045383803015 0.045383636424 0.045383469832 
0.045383303238 0.045383136642 0.045382970044 0.045382803444 0.045382636842 0.045382470238 0.045382303633 0.045382137025 0.045381970416 
0.045381803804 0.04538564852 0.04538548194 0.045385315357 0.045385148773 0.045384982187 0.045384815599 0.045384649009 0.045384482418 
0.045384315824 0.045384149228 0.045383982631 0.045383816031 0.045383649429 0.045383482826 0.045383316221 0.045383149613 0.045382983004 
0.045382816393 0.04538264978 0.045382483165 0.045386327961 0.045386161378 0.045385994792 0.045385828204 0.045385661615 0.045385495023 
0.04538532843 0.045385161835 0.045384995237 0.045384828638 0.045384662037 0.045384495434 0.045384328829 0.045384162222 0.045383995613 
0.045383829002 0.04538366239 0.045383495775 0.045383329158 0.04538316254 0.045387007417 0.04538684083 0.045386674241 0.045386507649 
0.045386341056 0.045386174461 0.045386007864 0.045385841266 0.045385674665 0.045385508062 0.045385341457 0.045385174851 0.045385008242 
0.045384841632 0.045384675019 0.045384508405 0.045384341789 0.045384175171 0.045384008551 0.045383841928 0.045387686887 0.045387520296 
0.045387353703 0.045387187108 0.045387020512 0.045386853913 0.045386687313 0.045386520711 0.045386354106 0.0453861875 0.045386020892 
0.045385854282 0.04538568767 0.045385521056 0.04538535444 0.045385187822 0.045385021202 0.04538485458 0.045384687957 0.045384521331 
0.04538836637 0.045388199776 0.04538803318 0.045387866581 0.045387699981 0.045387533379 0.045387366775 0.045387200169 0.045387033562 
0.045386866952 0.04538670034 0.045386533727 0.045386367111 0.045386200494 0.045386033874 0.045385867253 0.045385700629 0.045385534004 
0.045385367377 0.045385200748 0.045389045868 0.04538887927 0.04538871267 0.045388546068 0.045388379465 0.045388212859 0.045388046252 
0.045387879642 0.045387713031 0.045387546418 0.045387379803 0.045387213185 0.045387046566 0.045386879945 0.045386713322 0.045386546698 
0.045386380071 0.045386213442 0.045386046811 0.045385880179 0.045389725379 0.045389558778 0.045389392175 0.045389225569 0.045389058962 
0.045388892353 0.045388725742 0.045388559129 0.045388392514 0.045388225898 0.045388059279 0.045387892658 0.045387726036 0.045387559411 
0.045387392785 0.045387226156 0.045387059526 0.045386892894 0.04538672626 0.045386559623 0.045390404905 0.0453902383 0.045390071693 
0.045389905084 0.045389738474 0.045389571861 0.045389405247 0.04538923863 0.045389072012 0.045388905391 0.045388738769 0.045388572145 
0.045388405519 0.045388238891 0.045388072261 0.045387905629 0.045387738995 0.045387572359 0.045387405722 0.045387239082 0.045391084444 
0.045390917836 0.045390751225 0.045390584613 0.045390417999 0.045390251383 0.045390084765 0.045389918145 0.045389751523 0.045389584899 
0.045389418274 0.045389251646 0.045389085016 0.045388918385 0.045388751751 0.045388585116 0.045388418478 0.045388251839 0.045388085198 
0.045387918555 0.045391763998 0.045391597386 0.045391430772 0.045391264156 0.045391097538 0.045390930919 0.045390764297 0.045390597674 
0.045390431048 0.045390264421 0.045390097792 0.045389931161 0.045389764528 0.045389597892 0.045389431255 0.045389264617 0.045389097976 
0.045388931333 0.045388764688 0.045388598041 0.045392443565 0.04539227695 0.045392110332 0.045391943713 0.045391777092 0.045391610469 
0.045391443844 0.045391277217 0.045391110588 0.045390943957 0.045390777324 0.045390610689 0.045390444053 0.045390277414 0.045390110774 
0.045389944131 0.045389777487 0.045389610841 0.045389444192 0.045389277542 0.045393123146 0.045392956528 0.045392789907 0.045392623284 
0.045392456659 0.045392290033 0.045392123404 0.045391956774 0.045391790141 0.045391623507 0.04539145687 0.045391290232 0.045391123592 
0.04539095695 0.045390790306 0.04539062366 0.045390457012 0.045390290362 0.04539012371 0.045389957057 0.045393802742 0.045393636119 
0.045393469495 0.045393302869 0.045393136241 0.04539296961 0.045392802978 0.045392636344 0.045392469708 0.045392303071 0.045392136431 
0.045391969789 0.045391803145 0.0453916365 0.045391469852 0.045391303203 0.045391136551 0.045390969898 0.045390803243 0.045390636585 