# vtk DataFile Version 5.1
vtk output
ASCII
DATASET STRUCTURED_POINTS
DIMENSIONS 26 14 26
SPACING 0.08 0.08 0.08
ORIGIN 2.7 -0.52 0
POINT_DATA 9464
FIELD FieldData 1
potential 1 9464 double
-0.0012632920188 -0.0017652609156 -0.0022330390074 -0.002669097715 -0.0030756492931 -0.003454670743 -0.0038079969837 -0.0041372366969 -0.0044439784498 
-0.0047297102372 -0.0049958648341 -0.0052438123343 -0.0054749167621 -0.0056904476271 -0.0058915906 -0.0060794412027 -0.0062549435033 -0.006418827383 
-0.0065715292809 -0.0067131651099 -0.0068433579551 -0.0069612670919 -0.0070655920529 -0.0071546501543 -0.0072265319934 -0.0072793429045 0.00075314785665 
0.00022601499771 -0.00026643074641 -0.00072659797132 -0.0011566810471 -0.0015586709035 -0.0019343407026 -0.002285375456 -0.0026133329834 -0.0029196843038 
-0.0032058168902 -0.003473060776 -0.0037226811194 -0.0039558417879 -0.0041736281287 -0.0043770017826 -0.0045667890396 -0.0047436050117 -0.0049078454892 
-0.0050596038191 -0.0051986461748 -0.0053244263622 -0.0054360792969 -0.0055324751249 -0.0056123556116 -0.0056744812982 0.002310184281 0.001764970002 
0.0012545334981 0.00077654750829 0.00032891615903 -9.0299339519e-05 -0.00048288169293 -0.00085045286268 -0.0011945622936 -0.0015166316273 -0.0018180119301 
-0.0020999741108 -0.0023637001451 -0.0026102812398 -0.0028407212062 -0.0030558880842 -0.0032565385953 -0.0034432146915 -0.0036162981641 -0.0037759219083 
-0.0039220294732 -0.0040542652465 -0.0041720763196 -0.0042747217201 -0.0043614135694 -0.0044313400619 0.0035236271675 0.0029664557555 0.0024438196836 
0.0019535442764 0.0014936051505 0.001062134805 0.0006574340463 0.00027790795323 -7.7935739431e-05 -0.00041147478853 -0.00072401027708 -0.0010167404951 
-0.0012908022739 -0.0015472213595 -0.0017869108545 -0.0020106985688 -0.0022192737704 -0.0024131782358 -0.0025927679398 -0.0027582813237 -0.002909719206 
-0.0030469506018 -0.0031696149561 -0.0032772927032 -0.0033694900773 -0.0034457074238 0.0044517642927 0.003887972347 0.0033582360704 0.0028605026491 
0.0023928724154 0.0019535664356 0.0015409635602 0.0011535291753 0.00078984514201 0.00044857689617 0.00012847477591 -0.00017158601331 -0.00045267984286 
-0.00071578100885 -0.0009617628687 -0.0011914089813 -0.0014053649296 -0.0016041551729 -0.0017881882092 -0.0019577172754 -0.0021128632173 -0.0022536020772 
-0.0023797819451 -0.0024911789506 -0.002587522215 -0.002668549905 0.0051296043448 0.0045638230931 0.0040314096058 0.0035304620694 0.0030591944092 
0.0026159376416 0.0021991509887 0.0018073698619 0.0014392688567 0.0010935556375 0.00076906794798 0.00046469312404 0.00017943954161 -8.762146883e-05 
-0.000337321429 -0.00057040778537 -0.00078749653229 -0.00098913170561 -0.0011757239665 -0.0013475855008 -0.0015048872549 -0.0016477222624 -0.0017760968618 
-0.0018899333692 -0.0019891020033 -0.0020735099319 0.0055437240653 0.0049791015097 0.0044471120434 0.0039459607254 0.0034739943289 0.0030296490424 
0.0026114555111 0.0022180410995 0.0018481173016 0.0015004970472 0.0011740366803 0.00086770441822 0.00058055076035 0.0003116924072 6.0341549118e-05 
-0.00017423315665 -0.00039264545609 -0.00059540544228 -0.00078297650447 -0.00095567560554 -0.0011137549099 -0.0012573946912 -0.0013866912159 -0.0015016719333 
-0.0016023653937 -0.0016887701716 0.0057931819924 0.0052361675554 0.0047107293228 0.0042152550398 0.0037482008044 0.0033081471602 0.0028937182579 
0.0025036344387 0.0021366998286 0.0017917741561 0.0014677966317 0.0011638046151 0.00087888496312 0.00061221155666 0.00036300703517 0.00013059619056 
-8.5624858153e-05 -0.00028618312731 -0.00047152725248 -0.00064202097713 -0.00079794786703 -0.00093955864971 -0.0010670170204 -0.0011804677162 -0.0012799919005 
-0.0013656901379 0.0059430361511 0.0053959610493 0.0048794094767 0.0043919229654 0.0039320761447 0.0034985515929 0.0030900783626 0.0027054695902 
0.0023435833228 0.0020033715568 0.0016838410131 0.0013840763163 0.0011032099126 0.00084045506192 0.00059507937771 0.00036642673048 0.00015390950464 
-4.3002324299e-05 -0.00022474917318 -0.00039173057044 -0.00054426868267 -0.00068264660392 -0.000807097368 -0.0009178192108 -0.0010149686854 -0.0010987225517 
0.0059664139065 0.0054323224155 0.0049276640657 0.0044510757542 0.004001288477 0.0035770828119 0.0031772654116 0.0028007411822 0.0024464663413 
0.0021134522689 0.0018007709264 0.0015075563469 0.001232996649 0.00097634375587 0.00073689777433 0.00051403055005 0.00030716736242 0.00011578987485 
-6.0556331406e-05 -0.00022227875718 -0.00036973129917 -0.00050321595137 -0.00062302314268 -0.00072937879829 -0.0008225310994 -0.00090266580444 0.0058596291671 
0.0053414473766 0.0048515394103 0.0043886766198 0.0039517233377 0.0035395243905 0.0031510191332 0.002785186439 0.0024410570403 0.0021177117979 
0.0018142958139 0.0015299928782 0.0012640369778 0.0010157144295 0.00078437200995 0.00056939601711 0.00037024744014 0.00018639840451 1.7401102165e-05 
-0.00013716085975 -0.00027765914623 -0.00040441715964 -0.00051775858961 -0.00061794196693 -0.00070523947685 -0.00077990427979 0.0056201784762 0.0051206999634 
0.004648317806 0.0042019597067 0.003780535752 0.0033830322761 0.0030084805487 0.00265593901 0.0023245125536 0.002013351037 0.0017216601057 
0.0014486795497 0.0011936945834 0.00095603323841 0.00073506818295 0.00053023181666 0.0003409857173 0.00016682507034 7.2936264122e-06 -0.00013801691428 
-0.00026949228259 -0.00038747740909 -0.00049230068308 -0.00058426090734 -0.00066365109237 -0.0007307481048 0.0052591759186 0.004781202796 0.0043291345864 
0.0039020101039 0.003498881472 0.0031188176478 0.0027609315979 0.002424359927 0.0021082796126 0.0018119272456 0.001534556778 0.0012754622893 
0.0010339886325 0.00080948805363 0.00060139204774 0.00040914255999 0.00023222980358 7.016045985e-05 -7.7510142083e-05 -0.00021119163536 -0.00033127397849 
-0.00043811742127 -0.00053203966201 -0.00061339526574 -0.00068246523072 -0.00073953962831 0.0047207241002 0.004267114962 0.0038382652885 0.003433308807 
0.0030513866626 0.0026916609497 0.0023533321412 0.0020356221084 0.0017377773074 0.0014591026698 0.001198912649 0.00095656244414 0.0007314276369 
0.0005229349212 0.00033053008097 0.00015369690082 -8.0663723803e-06 -0.00015521958589 -0.00028820233449 -0.0004074179157 -0.00051325766239 -0.00060608594427 
-0.00068622733378 -0.00075404726909 -0.000809835614 -0.00085389133333 -0.00095094143848 -0.0014555987825 -0.0019259798715 -0.0023645598489 -0.0027735559277 
-0.0031549506126 -0.003510584056 -0.0038420695955 -0.0041509992699 -0.0044388633132 -0.0047070953425 -0.0049570649124 -0.0051901339555 -0.0054075687378 
-0.0056105505494 -0.0058001698137 -0.005977365449 -0.0061428631964 -0.0062970979832 -0.0064401960283 -0.0065717704281 -0.0066910224968 -0.006796677452 
-0.0068870956194 -0.0069604164873 -0.0070147931997 0.00098860028598 0.00045929814578 -3.5254929882e-05 -0.00049746882338 -0.00092954010277 -0.0013334625102 
-0.0017110121887 -0.0020638767393 -0.0023936160713 -0.0027017025589 -0.0029895242204 -0.003258410758 -0.0035096261456 -0.0037443324302 -0.0039636126095 
-0.004168425835 -0.0043595962852 -0.0045377381337 -0.0047032484251 -0.0048562252652 -0.0049964444337 -0.005123375226 -0.0052361742338 -0.005333738508 
-0.0054148393879 -0.005478266429 0.0025029255835 0.0019559364923 0.0014437693603 0.00096409716665 0.00051482337719 9.4008052138e-05 -0.00030013289243 
-0.00066922276959 -0.0010148121198 -0.0013383233311 -0.0016411077475 -0.0019244360441 -0.002189489591 -0.0024373586244 -0.0026690458377 -0.0028854182866 
-0.0030872322169 -0.0032750301815 -0.0034491962499 -0.0036098680411 -0.0037569968711 -0.0038902384054 -0.0040090544976 -0.0041127216986 -0.0042004709268 
-0.0042715088793 0.0036872942575 0.003128654855 0.0026045815456 0.0021129006807 0.0016515882408 0.0012187765948 0.00081276614306 0.00043196146581 
7.4869856261e-05 -0.00025988674508 -0.00057360946015 -0.00086749646669 -0.0011426842303 -0.0014001980602 -0.0016409506595 -0.0018657696682 -0.002075344706 
-0.0022702187699 -0.0024507503448 -0.0026171819672 -0.0027695206206 -0.0029076435286 -0.0030312004476 -0.0031397835343 -0.0032329115374 -0.0033100970555 
0.0045981304358 0.0040331216351 0.0035021891285 0.0030032815902 0.0025345002787 0.0020940667708 0.0016803601258 0.0012918457875 0.00092710561806 
0.0005848050582 0.0002636945684 -3.7350543804e-05 -0.00031940443784 -0.00058344125594 -0.00083033432269 -0.0010608674361 -0.0012756868948 -0.0014753185665 
-0.0016601732349 -0.0018305076192 -0.0019864472758 -0.0021279743711 -0.0022549442225 -0.002367141131 -0.0024643027655 -0.0025461756815 0.0052709874913 
0.0047042532145 0.0041709005444 0.0036690294081 0.0031968550104 0.0027527092617 0.0023350520009 0.0019424190749 0.0015734853612 0.0012269588214 
0.00090167738113 0.00059652859598 0.00031052096593 4.2725359067e-05 -0.00020768832837 -0.00044146946738 -0.00065923434361 -0.00086152828275 -0.0010487639578 
-0.0012212562922 -0.0013791799109 -0.0015226322925 -0.0016516250059 -0.001766086108 -0.0018658918022 -0.001950955117 0.0057319933089 0.0051677498316 
0.0046360477052 0.00413511487 0.0036633130661 0.0032190890685 0.0028009813518 0.0024076233 0.0020377311984 0.0016901217975 0.0013636546568 
0.0010573006072 0.00077011233279 0.00050120830821 0.00024980208133 1.5163269131e-05 -0.00020332143424 -0.00040616223323 -0.00059382316955 -0.00076662258533 
-0.00092481462128 -0.0010685821879 -0.0011980247122 -0.00131317319 -0.0014140599 -0.0015006871225 0.0060227410727 0.0054649893422 0.0049388136824 
0.0044426036385 0.0039748167945 0.0035340348552 0.0031188829237 0.0027280821087 0.002360437097 0.0020148081112 0.0016901346894 0.0013854544153 
0.0010998542555 0.00083250805181 0.00058263826096 0.00034956924408 0.00013269642036 -6.8508218575e-05 -0.00025449467003 -0.00042562846826 -0.00058219533035 
-0.00072444851767 -0.00085255457905 -0.00096666131302 -0.0010668530306 -0.0011532334018 0.0061775817925 0.0056297479909 0.0051124346265 0.0046241849114 
0.0041635749343 0.0037292884476 0.0033200554873 0.0029346899416 0.0025720505195 0.0022310896709 0.0019108144667 0.0016103097532 0.0013287080913 
0.0010652226961 0.00081912098394 0.00058974643577 0.0003765108332 0.00017888332323 -3.5776548561e-06 -0.00017127302456 -0.00032452664697 -0.00046362354697 
-0.00058879891977 -0.00070025330302 -0.00079814560924 -0.00088265492278 0.0062028271973 0.0056679834773 0.0051625664757 0.0046852147197 0.0042346605598 
0.0038096857 0.0034090977923 0.0030318024821 0.0026767565976 0.0023429719907 0.0020295209675 0.0017355377838 0.0014602106501 0.0012027914518 
0.00096258010613 0.00073894813628 0.00053132031044 0.0003391775701 0.00016206458885 -4.272522281e-07 -0.0001486531762 -0.00028291668099 -0.00040350984687 
-0.0005106603665 -0.00060461822721 -0.00068557097831 0.0060981909271 0.0055792410921 0.0050885554621 0.0046249068483 0.0041871608054 0.0037741632752 
0.0033848544569 0.0030182139376 0.0026732730086 0.0023491129619 0.0020448791977 0.0017597556851 0.0014929788744 0.0012438278227 0.0010116563325 
0.00079584798667 0.00059586329285 0.00041117378666 0.00024133088953 8.5917291532e-05 -5.5439741243e-05 -0.00018306482426 -0.00029728294814 -0.00039835405573 
-0.00048655177714 -0.00056213072395 0.0058598718359 0.0053595695234 0.0048863530559 0.0044391487715 0.0040168679129 0.003618497703 0.0032430701583 
0.0028896443196 0.0025573255402 0.0022452639996 0.001952665553 0.0016787700695 0.0014228627571 0.001184271511 0.00096236877018 0.0007565865632 
0.00056638601167 0.0003912617248 0.00023075675423 8.446197878e-05 -4.8009261068e-05 -0.00016700293829 -0.00027284856693 -0.00036584615843 -0.00044628998952 
-0.00051445822132 0.0054743919872 0.0049954913751 0.0045424781186 0.0041143920443 0.0037102861376 0.0033292300681 0.0029703373479 0.0026327449924 
0.0023156302387 0.0020182298078 0.0017397976579 0.0014796277827 0.0012370648242 0.0010114607433 0.00080224661072 0.00060886388796 0.00043080219762 
0.00026756754571 0.00011871448705 -1.6167479881e-05 -0.00013746926909 -0.00024555218008 -0.00034073506267 -0.00042337369537 -0.000493750402 -0.00055215664169 
0.0048875181052 0.0044327950766 0.0040028072125 0.0035966889383 0.0032135819163 0.0028526486079 0.0025130896671 0.0021941270103 0.001895006989 
0.0016150342891 0.0013535229947 0.0011098278183 0.00088332375576 0.00067343678694 0.00047961191045 0.00030133202394 0.00013809440837 -1.0561840996e-05 
-0.00014507745485 -0.00026585695603 -0.00037329298527 -0.00046775132371 -0.00054955808262 -0.00061908034591 -0.00067660980663 -0.00072244740716 -0.00011090329861 
-0.00062345011882 -0.0011014698627 -0.001547447967 -0.0019636155886 -0.0023519708579 -0.0027143688654 -0.0030524363173 -0.0033677752557 -0.0036618824146 
-0.0039361939168 -0.0041920778775 -0.0044308903404 -0.0046538884368 -0.0048622411339 -0.0050570245945 -0.0052391635034 -0.0054093724746 -0.0055680830438 
-0.0057154320143 -0.0058510730339 -0.0059742431399 -0.0060837854677 -0.0061781733039 -0.0062556834932 -0.0063146034153 0.0015999677147 0.0010642790717 
0.00056352122585 9.5280912634e-05 -0.00034266106547 -0.00075225671279 -0.0011353403219 -0.0014935903379 -0.0018285726733 -0.0021417636165 -0.0024345527898 
-0.0027082689915 -0.0029641728552 -0.0032034212966 -0.0034270907101 -0.0036361333182 -0.0038313675506 -0.0040134053166 -0.0041826477904 -0.0043392073175 
-0.004482887768 -0.0046132031962 -0.0047293723576 -0.004830369093 -0.0049150489259 -0.004982283976 0.0029823669346 0.0024301384682 0.001912861467 
0.0014282098958 0.00097408543721 0.00054854530357 0.00014980711011 -0.00022377375267 -0.00057373336567 -0.00090150210831 -0.0012084321239 -0.0014957934258 
-0.0017647656778 -0.0020164363814 -0.0022518051076 -0.0024717362261 -0.0026769848206 -0.0028680954485 -0.0030454590692 -0.0032092272635 -0.0033593740448 
-0.0034955878061 -0.0036173730353 -0.0037240567306 -0.0038149238234 -0.0038892341719 0.0040842801105 0.0035212928843 0.0029929617041 0.0024971161512 
0.002031733471 0.001594945822 0.0011850525553 0.00080045690223 0.00043966494424 0.00010129778811 -0.00021594577489 -0.00051326359636 -0.00079179109823 
-0.0010525523673 -0.0012964590205 -0.0015243383103 -0.0017368810131 -0.0019346338348 -0.0021179627299 -0.0022871152229 -0.0024421375621 -0.0025829096615 
-0.0027091182972 -0.0028203895878 -0.0029162785004 -0.002996333087 0.0049440859133 0.0043754402086 0.0038409306071 0.0033385103265 0.0028662835002 
0.0024224733394 0.0020054596295 0.0016137080757 0.0012458006129 0.00090040274368 0.00057627092174 0.00027226394361 -1.2674925114e-05 -0.00027952501351 
-0.00052915992309 -0.00076236325346 -0.00097978444663 -0.0011819532602 -0.0013692872485 -0.0015420533897 -0.0017003910547 -0.0018443003197 -0.0019736575827 
-0.0020882709462 -0.0021879029546 -0.0022723245716 0.0055913698993 0.0050215960903 0.00448524061 0.0039804085854 0.0035053190494 0.0030583065902 
0.0026378328895 0.002242435087 0.0018707888829 0.0015216030888 0.001193716123 0.00088601612874 0.00059751189461 0.00032727434595 7.4472918411e-05 
-0.00016164301037 -0.00038169221606 -0.00058622394227 -0.00077565689867 -0.00095031416321 -0.0011103812616 -0.001255968798 -0.0013871037452 -0.0015037310436 
-0.0016057444849 -0.0016930743218 0.0060516782467 0.00548486436 0.0049506093015 0.0044471464782 0.0039728418051 0.0035261453401 0.0031055979952 
0.0027098350071 0.0023375741659 0.0019876332111 0.0016588726489 0.0013502638092 0.0010608596446 0.00078977850957 0.00053623326844 0.00029949222933 
7.8939699678e-05 -0.00012593815125 -0.00031560891075 -0.00049040168569 -0.00065057483797 -0.00079632258396 -0.00092775565928 -0.0010449173309 -0.0011478525353 
-0.0012365760185 0.0063506683616 0.0057905363125 0.0052619825683 0.0047634020331 0.0042932567146 0.0038501317739 0.0034326551471 0.0030395502227 
0.0026696233473 0.0023217361998 0.0019948292738 0.001687940796 0.001400158031 0.0011306546735 0.00087865260546 0.00064347487619 0.0004245147983 
0.0002212413969 3.3200619419e-05 -0.00013997838227 -0.00029858769364 -0.00044288806298 -0.00057305445998 -0.00068924370923 -0.00079154939672 -0.00088008434267 
0.0065091410854 0.0059590267935 0.005439423813 0.0049488804019 0.0044859770384 0.0040494010136 0.0036378853329 0.0032502461607 0.0028853442124 
0.0025421333189 0.0022196216201 0.0019168946461 0.0016330853205 0.0013674067432 0.0011191257625 0.00088758471818 0.00067219362059 0.0004724191778 
0.0002878164601 0.00011798043699 -3.7417740504e-05 -0.00017866877665 -0.00030601422287 -0.0004196613828 -0.00051977610251 -0.00060654429596 0.0065377919371 
0.0060007145735 0.0054930447888 0.0050134260119 0.0045605946746 0.0041333358806 0.0037304603036 0.0033508758338 0.0029935411598 0.0026574695772 
0.0023417344569 0.0020454707517 0.0017678669794 0.0015081749452 0.0012656940344 0.0010397948426 0.0008299006517 0.00063549029308 0.00045610578233 
0.00029133522223 0.0001408194986 4.2507005062e-06 -0.00011866809695 -0.00022816977192 -0.00032450960809 -0.00040788040426 0.0064399379711 0.0059187192873 
0.005425736412 0.0049597665572 0.0045196789708 0.0041043229712 0.0037126413259 0.0033436138619 0.0029962794073 0.0026697147711 0.0023630682327 
0.002075524345 0.0018063197772 0.0015547335217 0.0013201188507 0.0011018584828 0.00089941154629 0.00071224787895 0.00053991667006 0.00038199794558 
0.00023811586167 0.00010794226836 -8.8516140288e-06 -0.00011252984311 -0.00020337025575 -0.00028163168513 0.0062131619248 0.0057104459649 0.0052347775353 
0.0047850867744 0.0043602884442 0.00395937249 0.0035813732312 0.0032253515759 0.0028904143285 0.0025757127087 0.0022804543643 0.0020038762341 
0.0017452668449 0.001503952692 0.0012793056236 0.0010707566585 0.00087776565911 0.00069982562205 0.00053647762594 0.00038731021827 0.00025193409451 
0.00013000030654 2.1176127657e-05 -7.4841905561e-05 -0.00015835168371 -0.00022963505453 0.0058467884624 0.0053651804452 0.0049094093106 0.0044785180234 
0.0040715622624 0.0036876139523 0.0033257883669 0.0029852238883 0.0026650986769 0.0023646499966 0.0020831319847 0.001819842673 0.0015741138785 
0.0013453092698 0.0011328547208 0.00093619045438 0.00075480454472 0.00058820120845 0.00043593292625 0.00029758685559 0.00017276949516 6.1116694042e-05 
-3.7693533489e-05 -0.00012402026378 -0.00019814942673 -0.00026037624424 0.0053191148678 0.0048611736474 0.0044278992788 0.0040184286542 0.0036319048931 
0.0032674920326 0.0029243916347 0.0026018251606 0.0022990397865 0.0020153423767 0.0017500420637 0.0015024941863 0.0012720724103 0.0010582010294 
0.0008603231704 0.0006779195851 0.00051048520449 0.00035755653307 0.00021869005147 9.3478218948e-05 -1.8474827354e-05 -0.00011753835139 -0.00020404227167 
-0.00027835773147 -0.00034078095403 -0.00039161776811 0.0010711466819 0.00054600480383 5.5789753084e-05 -0.00040199838511 -0.00082961115037 -0.0012290699852 
-0.0016022525098 -0.0019508058388 -0.0022763473901 -0.0025803840335 -0.0028643486711 -0.0031296294651 -0.0033775518876 -0.0036093669577 -0.0038262255751 
-0.0040291832422 -0.0042191428322 -0.0043968092912 -0.0045626059997 -0.0047166925215 -0.004858772091 -0.0049881759578 -0.0051038866813 -0.0052045572804 
-0.0052886665842 -0.0053546991759 0.0025019008909 0.0019559547176 0.0014452287628 0.00096730560392 0.00051995770134 0.00010122092484 -0.00029075121586 
-0.0006576485035 -0.0010010460117 -0.0013224260646 -0.0016231808397 -0.0019046378895 -0.0021680529224 -0.0024145753082 -0.0026452717859 -0.0028610846534 
-0.0030628245124 -0.0032511011094 -0.0034263235221 -0.0035886275922 -0.00373786167 -0.0038736091408 -0.0039951837029 -0.0041016754364 -0.0041920666696 
-0.0042653538276 0.0037028600122 0.0031421745052 0.0026166506472 0.0021239521332 0.0016619915136 0.0012288174639 0.00082264201277 0.00044181498378 
8.4795592061e-05 -0.00024984973254 -0.00056347434698 -0.0008573472756 -0.0011326456682 -0.0013904530056 -0.0016317643608 -0.0018574404312 -0.0020682351517 
-0.0022646970066 -0.0024472285528 -0.0026160039347 -0.0027710330839 -0.002912056281 -0.0030386392197 -0.0031501961528 -0.0032460867204 -0.0033256546965 
0.0046847765122 0.0041147354181 0.0035794929234 0.0030768844606 0.0026048899315 0.002161641715 0.0017454379541 0.0013546800995 0.00098787257874 
0.00064363535163 0.00032066716903 1.7770698872e-05 -0.00026618789778 -0.00053223093366 -0.00078126855577 -0.0010141277312 -0.001231501464 -0.0014339427592 
-0.0016218298023 -0.0017954295766 -0.001954816704 -0.002099908977 -0.0022304399183 -0.0023460885174 -0.0024464660129 -0.0025311755188 0.0054655101909 
0.0048909131909 0.0043505462471 0.0038423715104 0.0033644949396 0.0029151461017 0.0024927052321 0.002095638771 0.0017225320319 0.0013720417464 
0.001042934091 0.00073406555443 0.00044438017878 0.00017289928287 -8.1250796823e-05 -0.0003188550755 -0.00054056667773 -0.00074692230379 -0.00093835048672 
-0.0011151346712 -0.0012774396271 -0.0014252835768 -0.0015585863615 -0.0016771900919 -0.0017808960135 -0.0018695143915 0.0060636930861 0.0054888323915 
0.004947446261 0.004437648634 0.0039576653173 0.0035058349545 0.0030806231279 0.0026805691197 0.0023043501679 0.0019506835995 0.0016183878106 
0.0013063728881 0.0010136411284 0.00073926352893 0.00048240872836 0.00024233302747 1.8386503715e-05 -0.00018995912833 -0.00038314220839 -0.00056149803989 
-0.00072522985357 -0.00087446913439 -0.0010092681254 -0.0011295959908 -0.0012353768375 -0.0013265673121 0.006497413611 0.005926157585 0.0053874869272 
0.0048796442624 0.004401002605 0.0039500176433 0.0035252345165 0.0031252917101 0.0027489096642 0.0023949078936 0.0020621485816 0.0017496039697 
0.0014563275189 0.0011814374348 0.00092414549915 0.00068371791631 0.00045953514128 0.00025107749785 5.7869478596e-05 -0.00012042861606 -0.00028408854142 
-0.00043332033333 -0.00056825272847 -0.00068894776702 -0.00079547269572 -0.00088785985498 0.006783838983 0.0062196938751 0.0056871301682 0.0051845461014 
0.0047104280387 0.0042633500693 0.0038419505821 0.0034449568551 0.0030711780911 0.0027194784718 0.0023888001522 0.0020781824881 0.0017867132921 
0.0015135660636 0.0012579617844 0.0010192213976 0.00079673481988 0.00058996629792 0.00039845524998 0.00022182247641 5.9765109491e-05 -8.7989019883e-05 
-0.00022162853942 -0.00034132469476 -0.0004471858813 -0.000539339528 0.0069373424309 0.0063834726854 0.005860099304 0.0053657779193 0.0048990967291 
0.0044587489876 0.0040434831084 0.0036520879651 0.0032834588574 0.0029365416076 0.0026103462112 0.0023039594085 0.002016514797 0.0017472253593 
0.0014953567511 0.0012602505001 0.0010413090803 0.00083800841484 0.00064988214657 0.00047652791321 0.00031760521693 0.00017281629363 4.1908738175e-05 
-7.5335576955e-05 -0.00017909358372 -0.00026956211136 0.0069676240439 0.0064269085733 0.005915568983 0.0054322569057 0.0049757156282 0.0045447359865 
0.0041381337635 0.0037548206756 0.0033937574964 0.0030539633281 0.0027345100974 0.0024345351154 0.00215322751 0.0018898390552 0.0016436683649 
0.0014140846125 0.001200508752 0.0010024162723 0.00081934496306 0.00065087770265 0.00049664932327 0.0003563444054 0.00022965875879 0.00011635107632 
1.6157629744e-05 -7.1122743355e-05 0.0068798792164 0.0063549936036 0.0058582952711 0.0053885763226 0.0049447047451 0.0045255380707 0.0041300234522 
0.0037571444595 0.0034059429125 0.0030754979646 0.0027649595973 0.002473513475 0.0022003962476 0.0019448885402 0.0017063413167 0.001484136562 
0.0012777313003 0.0010865927523 0.0009102666238 0.00074832876301 0.00060039843179 0.00046614190628 0.00034522443284 0.00023737546118 0.0001423105256 
5.97641511e-05 0.0066755691945 0.0061689869752 0.0056893915049 0.0052357193825 0.0048068913727 0.0044019009534 0.0040197899539 0.0036596190839 
0.0033204989328 0.0030015826665 0.0027020783937 0.0024212266555 0.0021583135046 0.0019126661126 0.0016836556162 0.0014707116402 0.0012732922531 
0.0010908880892 0.00092303728505 0.00076932487192 0.00062935753216 0.00050278178179 0.00038925999125 0.00028848342651 0.00020014868763 0.00012396832542 
0.00635321399 0.0058673229095 0.0054071908374 0.0049718662349 0.0045604090981 0.0041718968071 0.0038054465264 0.0034602010675 0.0031353365259 
0.0028300954663 0.0025437314259 0.0022755427309 0.0020248609655 0.0017910491461 0.0015735319012 0.0013717479413 0.00118518334 0.0010133399409 
0.00085576740789 0.00071204967022 0.00058178962488 0.0004646191219 0.00036021175273 0.00026820380611 0.00018830427094 0.00012021265378 0.0059119937776 
0.0054490601627 0.0050106798787 0.0045960126047 0.0042041989981 0.0038344060574 0.0034858374642 0.0031577162092 0.0028492903009 0.0025598668553 
0.0022887547255 0.0020353084656 0.0017989005648 0.0015789536058 0.0013749087541 0.0011862444082 0.0010124528702 0.00085306768332 0.00070764210765 
0.00057576507604 0.00045703694276 0.00035108432295 0.00025757275355 0.0001761262657 0.00010644319252 4.8211851853e-05 0.0024403612124 0.0018986488613 
0.0013923901955 0.00091905621279 0.00047638632512 6.2307246772e-05 -0.00032503100375 -0.00068735349744 -0.0010262793884 -0.0013433283496 -0.0016399388799 
-0.0019174970138 -0.0021773225724 -0.0024206388805 -0.0026485879589 -0.0028621978757 -0.0030623496422 -0.0032497338767 -0.0034247758367 -0.0035876636927 
-0.0037381682698 -0.0038757294256 -0.0039995223149 -0.0041083892649 -0.0042010546025 -0.004276234563 0.0035993531504 0.003039800786 0.0025158465429 
0.0020250699319 0.0015652347494 0.0011343629124 0.00073059356808 0.00035222329912 -2.3341535997e-06 -0.00033456859014 -0.00064587016148 -0.00093758108086 
-0.0012109347255 -0.00146707885 -0.0017070672907 -0.0019318319502 -0.0021421755415 -0.0023387075132 -0.0025218495685 -0.0026917588361 -0.0028483738062 
-0.0029913327387 -0.003120077493 -0.0032338401101 -0.0033317567692 -0.0034129746477 0.0046055708941 0.0040335924826 0.0034970445404 0.0029935955354 
0.0025211568259 0.0020777730084 0.0016616499714 0.0012711311699 0.00090467031622 0.00056083006059 0.00023825560936 -6.4320853785e-05 -0.00034807354096 
-0.00061408127208 -0.00086333409153 -0.001096689044 -0.0013148996694 -0.0015185210701 -0.0017079720374 -0.0018834568175 -0.0020450319322 -0.002192502771 
-0.0023255181979 -0.0024435889 -0.0025461777863 -0.0026327296872 0.0054492602613 0.0048697311827 0.0043252119307 0.0038135072374 0.0033326153554 
0.002880669914 0.0024559684133 0.0020569107276 0.0016819996897 0.0013298541432 0.00099917300812 0.00068875966197 0.00039748221384 0.00012432036814 
-0.00013163456854 -0.00037120979703 -0.00059510194089 -0.00080387296685 -0.00099791767878 -0.0011775288247 -0.0013428179836 -0.0014937496004 -0.0016301231981 
-0.0017516785085 -0.0018581000671 -0.0019490606141 0.0061329746067 0.0055503309517 0.0050020383892 0.004486070134 0.0040005399325 0.0035436823171 
0.0031138803501 0.0027096020948 0.0023294337326 0.0019720331155 0.0016361671843 0.0013206936007 0.0010245574161 0.00074678067405 0.00048648939136 
0.00024289636599 1.5343248755e-05 -0.00019671644633 -0.00039371872769 -0.00057598893848 -0.00074369918536 -0.00089691659201 -0.0010355982406 -0.0011596362158 
-0.0012688818346 -0.0013631944429 0.0066649010372 0.0060831067587 0.0055348577448 0.0050182805608 0.0045316105803 0.0040731934093 0.0036414996475 
0.003235072258 0.0028525909725 0.0024927754185 0.0021544457724 0.0018365133077 0.0015379811352 0.0012579203321 0.00099549839291 0.00074996860225 
0.00052067574083 0.00030708260478 0.00010873798121 -7.4709262736e-05 -0.00024348983424 -0.00039775792872 -0.00053759913205 -0.0006630173036 -0.00077397260356 
-0.00087045695887 0.0070555186966 0.0064781690731 0.0059334381861 0.0054195792135 0.0049349761736 0.0044780929005 0.0040474807316 0.0036417829716 
0.0032597321647 0.002900126052 0.0025618537896 0.0022438808597 0.0019452615196 0.0016651133294 0.0014026481546 0.0011571278597 0.00092792823186 
0.00071452177456 0.00051642245106 0.00033327652554 0.00016479457638 1.0745779353e-05 -0.00012902219267 -0.00025460458764 -0.00036607183886 -0.00046350522699 
0.0073158356228 0.0067461953582 0.0062081397946 0.0057000776311 0.0052205055107 0.0047680061528 0.0043412247838 0.003938903601 0.0035598281361 
0.0032028940938 0.0028670368191 0.0025512973759 0.0022547693358 0.0019766114125 0.0017160580883 0.0014724226569 0.0012450905275 0.0010335196027 
0.0008372406305 0.00065586308589 0.00048907062425 0.00033657524468 0.00019817059232 7.3666460937e-05 -3.7064999157e-05 -0.00013417040558 0.0074559749213 
0.0068970004652 0.0063684987685 0.0058690373462 0.0053972147973 0.0049517328516 0.0045313469211 0.0041348519738 0.0037611477353 0.0034091836865 
0.0030779725676 0.0027666029566 0.0024742095353 0.0022000052724 0.0019432547876 0.0017032972856 0.001479531567 0.0012714283559 0.0010785142218 
0.00090037803331 0.0007366688015 0.00058707669069 0.00045133589608 0.0003292140251 0.00022051954617 0.00012504126246 0.0074841091368 0.0069384942819 
0.0064222011505 0.005933902669 0.0054723518143 0.0050363475675 0.0046247129971 0.0042363653339 0.0038702699895 0.0035254496921 0.0032009791873 
0.0028959977056 0.0026096954096 0.0023413272913 0.0020901806103 0.0018556353645 0.0016371040354 0.0014340576244 0.0012460288689 0.0010725937909 
0.00091337905253 0.00076805999384 0.00063632223792 0.00051791360653 0.00041255927972 0.0003200477857 0.0074064332217 0.0068766414271 0.0063749745225 
0.0059002350806 0.0054512999286 0.0050270347529 0.0046263932492 0.0042483622497 0.0038919931545 0.0035563638826 0.0032406285341 0.002943974571 
0.0026656358519 0.0024049046082 0.0021611198029 0.0019336657228 0.0017219967897 0.001525576938 0.0013439474189 0.0011766787006 0.0010233837126 
0.00088372149802 0.0007573495541 0.00064398889785 0.00054334646891 0.00045514819664 0.0072277934185 0.0067160964136 0.0062313189065 0.0057723688724 
0.0053382133937 0.0049278402278 0.0045402970641 0.0041746495713 0.0038300123177 0.0035055415387 0.0032004476569 0.002913972718 0.0026454036254 
0.00239406761 0.0021593352494 0.0019406346819 0.0017374219547 0.0015491849161 0.0013754581404 0.0012158223313 0.0010698791888 0.00093726956017 
0.0008176496784 0.0007107042065 0.00061612285368 0.00053361119257 0.0069534123784 0.0064619476197 0.0059961385339 0.0055550472752 0.005137742044 
0.0047433068579 0.0043708536725 0.0040195409283 0.0036885442334 0.0033771088591 0.0030844890818 0.0028099886343 0.0025529290004 0.0023126831766 