# vtk DataFile Version 5.1
vtk output
ASCII
DATASET STRUCTURED_POINTS
DIMENSIONS 30 30 30
SPACING 0.01 0.01 0.01
ORIGIN 1.555 -0.145 0.855
POINT_DATA 27000
FIELD FieldData 1
potential 1 27000 double
0.015581273644 0.015503906065 0.015426961934 0.015350451192 0.015274366465 0.015198704832 0.015123466138 0.015048647353 0.014974235521 
0.014900253382 0.01482668554 0.014753532005 0.014680790546 0.014608458477 0.014536535425 0.014465018141 0.014393905521 0.014323195352 
0.014252887281 0.014182979052 0.014113467922 0.014044347129 0.01397562487 0.013907294381 0.013839354191 0.013771802316 0.013704638222 
0.013637857147 0.013571458795 0.013505438812 0.015505491295 0.015428773128 0.015352484542 0.015276618324 0.015201170691 0.015126142404 
0.01505153012 0.014977318154 0.014903533774 0.014830160617 0.014757196169 0.014684640578 0.014612491083 0.014540746845 0.014469404666 
0.014398463492 0.014327921516 0.014257777363 0.014188029422 0.014118676176 0.014049708837 0.01398113895 0.013912956263 0.013845160633 
0.01377775057 0.013710724353 0.013644078838 0.013577812739 0.013511924489 0.013446410194 0.015430096425 0.015354033324 0.015278388758 
0.015203160251 0.015128348009 0.015053945504 0.014979939983 0.014906357314 0.014833181535 0.014760412714 0.014688046694 0.014616084053 
0.014544522788 0.014473360872 0.014402595721 0.014332225589 0.014262250171 0.014192667327 0.014123475445 0.014054667583 0.013986252167 
0.013918221658 0.013850574928 0.013783310377 0.013716425393 0.013649919402 0.013583790054 0.01351803542 0.013452652044 0.013387641868 
0.015355099269 0.015279680492 0.015204676542 0.0151300818 0.015055894565 0.014982100007 0.014908724472 0.014835751829 0.01476318152 
0.014691010442 0.014619238851 0.014547864242 0.014476886086 0.014406301147 0.014336108697 0.014266306499 0.014196892697 0.014127866982 
0.014059220213 0.013990965039 0.01392309024 0.013855596284 0.013788480941 0.013721743169 0.013655380807 0.013589390976 0.013523773412 
0.01345852482 0.013393645456 0.013329133558 0.015280495001 0.015205717144 0.015131344912 0.015057376944 0.014983797651 0.014910633318 
0.014837868822 0.014765501162 0.014693530657 0.014621953916 0.0145507718 0.014479980696 0.014409580435 0.014339568784 0.014269943879 
0.014200704296 0.014131848555 0.014063368765 0.013995275244 0.01392756252 0.013860225172 0.013793263614 0.013726675645 0.013660460562 
0.013594615654 0.013529138843 0.013464029912 0.013399284619 0.013334904245 0.013270886634 0.015206283958 0.015132139771 0.015058396359 
0.014985036474 0.014912087902 0.014839534197 0.014767374606 0.014695607568 0.014624232041 0.014553245284 0.014482647618 0.014412436259 
0.014342608351 0.014273164574 0.014204103242 0.014135421738 0.014067112771 0.013999187697 0.013931637376 0.013864461849 0.013797657613 
0.013731224014 0.013665160288 0.013599463111 0.013534131621 0.013469164626 0.013404558658 0.013340314305 0.013276429311 0.013212902354 
0.015132466458 0.015058951203 0.014985815797 0.014913087223 0.01484074904 0.014768802038 0.014697243375 0.014626071527 0.014555285791 
0.014484883585 0.014414864821 0.014345228118 0.014275970173 0.014207089403 0.014138586295 0.014070452553 0.014002698452 0.013935316709 
0.01386830566 0.013801663526 0.013735388373 0.013669479316 0.013603934234 0.013538751597 0.013473930037 0.013409465816 0.013345362367 
0.013281614233 0.013218220753 0.013155180456 0.015059042227 0.01498613599 0.014913631182 0.014841514778 0.014769783911 0.014698437619 
0.0146274741 0.014556893084 0.014486692367 0.014416870233 0.014347426005 0.014278358182 0.014209664412 0.014141344201 0.014073388251 
0.01400580936 0.013938599444 0.013871757681 0.01380528094 0.013739168315 0.013673418235 0.013608028819 0.013542998744 0.013478326709 
0.013414009598 0.013350047913 0.013286440288 0.013223185723 0.013160279826 0.013097723057 0.014985996799 0.014913722147 0.014841830372 
0.014770320792 0.014699191028 0.014628440828 0.014558067864 0.014488072121 0.014418450893 0.014349204241 0.014280329816 0.014211826343 
0.014143692815 0.014075920277 0.014008521408 0.013941486898 0.013874816393 0.013808510046 0.013742562775 0.013676976417 0.013611746633 
0.013546873105 0.013482353577 0.013418188209 0.013354372801 0.013290909649 0.013227795015 0.013165028348 0.013102607366 0.01304053013 
0.014913359773 0.0148416973 0.014770412664 0.014699504262 0.014628970819 0.014558811335 0.014489024284 0.014419608982 0.014350562956 
0.014281886488 0.014213577012 0.014145633355 0.014078048373 0.014010833 0.013943979289 0.013877485379 0.013811351512 0.013745574733 
0.01368015335 0.013615085594 0.013550373549 0.013486012 0.013422000852 0.013358335767 0.013295020764 0.013232050959 0.013169425775 
0.013107143468 0.013045202667 0.012983603348 0.014841116276 0.014770060365 0.014699377549 0.014629065408 0.014559123329 0.014489549836 
0.014420343247 0.014351503093 0.014283027788 0.01421491657 0.014147167397 0.014079772379 0.01401274404 0.013946074709 0.013879762078 
0.013813804563 0.013748201531 0.013682950536 0.013618051268 0.013553501629 0.013489301055 0.01342544735 0.01336193755 0.013298773754 
0.013235952321 0.013173472632 0.013111332651 0.01304953144 0.012988067363 0.012926940075 0.014769265339 0.014698811111 0.014628724514 
0.014559003361 0.014489647469 0.014420654835 0.014352024226 0.014283754449 0.014215845189 0.014148294672 0.014081094197 0.014014257017 
0.013947773665 0.013881645422 0.013815868859 0.013750443937 0.01368536841 0.013620640066 0.013556257682 0.013492220833 0.013428529006 
0.013365177259 0.013302168178 0.013239499534 0.013177168742 0.0131151747 0.013053515717 0.012992192011 0.012931200541 0.012870542308 
0.014697806237 0.014627948935 0.014558453356 0.014489318645 0.014420543623 0.014352127038 0.014284067428 0.01421636346 0.014149014069 
0.014082011799 0.014015370248 0.01394907932 0.013883138588 0.013817546286 0.013752301972 0.013687404965 0.013622851524 0.013558640989 
0.013494772497 0.013431244171 0.013368054612 0.013305204312 0.013242690944 0.013180513252 0.013118668493 0.013057157115 0.012995976412 
0.012935126335 0.012874604375 0.012814411451 0.014626739383 0.014557473382 0.014488563146 0.014420009566 0.014351810518 0.014283965106 
0.014216471399 0.014149321109 0.014082529 0.014016085206 0.013949990007 0.013884240993 0.013818837119 0.01375377708 0.013689061145 
0.013624685795 0.01356065031 0.01349695336 0.0134335946 0.013370571557 0.0133078817 0.013245527357 0.013183505797 0.013121815317 
0.013060453851 0.01299942105 0.012938714095 0.012878334183 0.012818278088 0.012758546896 0.014556063009 0.014487383112 0.014419054749 
0.014351077201 0.01428344919 0.014216169878 0.014149229151 0.014082643608 0.014016402751 0.013950505746 0.013884952481 0.013819740537 
0.013754868949 0.013690337162 0.013626143713 0.013562287169 0.013498765965 0.013435578822 0.013372724998 0.013310200656 0.013248009172 
0.013186146789 0.013124613145 0.013063405694 0.013002523135 0.012941965088 0.012881729532 0.0128218156 0.012762221464 0.012702946968 
0.01448577834 0.014417679171 0.014349926906 0.014282520299 0.01421545844 0.014148732502 0.01408235623 0.014016322036 0.013950627969 
0.013885273432 0.013820257148 0.013755577895 0.013691234763 0.013627226779 0.013563551424 0.013500208814 0.013437197953 0.013374516116 
0.013312160697 0.013250136212 0.013188436686 0.013127061948 0.013066011886 0.013005283743 0.012944876652 0.012884789558 0.012825020901 
0.0127655692 0.012706434591 0.012647615786 0.014415881859 0.014348358696 0.014281178308 0.014214337787 0.014147829286 0.014081667758 
0.014015843235 0.013950355882 0.013885203709 0.013820386838 0.01375590351 0.013691752584 0.013627932995 0.013564444106 0.013501283318 
0.013438450302 0.013375945563 0.01331376283 0.013251906509 0.013190374584 0.013129163216 0.013068272712 0.013007702342 0.012947449889 
0.012887514007 0.012827895138 0.012768588851 0.012709597222 0.012650918667 0.012592549355 0.014346375008 0.014279423203 0.014212807882 
0.014146521276 0.014080577604 0.014014967103 0.013949689726 0.013884744324 0.013820130001 0.013755846224 0.013691891276 0.013628263723 
0.013564964089 0.013501989003 0.013439338301 0.013377011327 0.013315005557 0.013253322532 0.013191959064 0.013130915327 0.013070189097 
0.013009778962 0.012949684918 0.012889903913 0.012830434906 0.012771279084 0.012712433392 0.012653897342 0.01259566802 0.012537746772 
0.014277256771 0.014210870579 0.014144807883 0.014079085293 0.014013692791 0.013948630101 0.013883894968 0.01381948709 0.013755405649 
0.013691650536 0.013628219104 0.013565111134 0.013502325952 0.013439861533 0.01337771684 0.013315889311 0.013254382876 0.013193193041 
0.013132318497 0.01307175981 0.013011513736 0.012951579884 0.012891957479 0.012832643865 0.012773639868 0.012714943572 0.012656551578 
0.012598467731 0.01254068887 0.012483206912 0.014208524937 0.014142690977 0.014077193414 0.014012021927 0.013947176285 0.013882654711 
0.013818457828 0.013754582971 0.01369103057 0.013627798599 0.013564886549 0.01350229351 0.013440019082 0.013378060298 0.01331641528 
0.013255088176 0.013194074414 0.013133373823 0.013072984446 0.01301290587 0.012953135915 0.012893673943 0.012834519942 0.012775671394 
0.012717127445 0.012658885011 0.012600947796 0.012543312185 0.012485973483 0.012428937233 0.014140170066 0.014074900865 0.014009953745 
0.013945329553 0.013881025283 0.013817041736 0.01375337666 0.01369003047 0.013627002452 0.013564290084 0.013501893141 0.013439811355 
0.013378042368 0.013316583183 0.013255438125 0.013194603761 0.013134079174 0.013073863547 0.013013955157 0.012954352403 0.01289505551 
0.012836062739 0.012777373096 0.01271898274 0.012660895445 0.012603108 0.012545619502 0.01248842499 0.012431530866 0.012374931792 
0.014072208371 0.014007490063 0.013943089421 0.013879006535 0.013815240057 0.013751789234 0.013688652156 0.013625829902 0.013563320397 
0.013501123638 0.013439237158 0.013377661547 0.013316392207 0.013255433168 0.013194781506 0.013134436192 0.013074396662 0.013014661263 
0.012955229302 0.012896100563 0.012837272313 0.012778741992 0.012720513065 0.012662581899 0.012604947229 0.012547609132 0.012490561177 
0.012433812818 0.012377355981 0.012321189482 0.01400462954 0.013940457029 0.013876598547 0.013813052111 0.013749818662 0.013686895718 
0.013624282293 0.013561979053 0.013499984295 0.013438297269 0.013376917838 0.013315841981 0.013255072417 0.013194606945 0.013134444504 
0.013074584329 0.013015025015 0.012955766565 0.012896808034 0.012838148231 0.012779782422 0.01272171568 0.012663943384 0.012606464959 
0.01254927985 0.012492382297 0.012435780717 0.012379470182 0.012323447473 0.012267712134 0.013937432286 0.013873800981 0.013810478858 
0.013747465113 0.013684758823 0.013622359306 0.013560265559 0.013498476959 0.013436992603 0.013375811628 0.013314931528 0.013254354622 
0.013194079158 0.013134103258 0.013074425366 0.013015046208 0.012955964525 0.012897178835 0.012838686736 0.012780492012 0.012722589639 
0.012664979785 0.012607660754 0.012550632253 0.01249388886 0.012437437747 0.01238127428 0.012325398207 0.012269806219 0.012214497934 
0.013870614815 0.013807520186 0.013744729973 0.013682244239 0.013620060925 0.013558179708 0.013496600755 0.013435322352 0.013374343935 
0.013313662291 0.013253282205 0.0131931987 0.013133411776 0.013073919997 0.01301472475 0.012955822814 0.012897211912 0.012838895192 
0.012780870082 0.012723136721 0.012665691748 0.012608535302 0.012551665787 0.012495078153 0.01243878134 0.012382768589 0.012327041362 
0.012271595259 0.012216430434 0.012161545827 0.013804176058 0.013741613252 0.013679350075 0.013617386886 0.013555722878 0.013494355723 
0.013433286768 0.013372511696 0.013312034855 0.013251852974 0.013191966111 0.013132371146 0.013073069179 0.013014059125 0.012955337918 
0.012896908711 0.012838769702 0.01278091838 0.01272335421 0.012666078469 0.012609086869 0.01255238009 0.012495951801 0.012439811194 
0.012383952435 0.012328374814 0.012273078246 0.012218059619 0.012163318641 0.012108855094 0.013738114146 0.013676077657 0.013614337738 
0.0135528928 0.013491741738 0.013430885063 0.013370318937 0.013310048297 0.013250068626 0.013190379905 0.013130981322 0.013071869676 
0.013013048622 0.012954515324 0.012896269109 0.012838308972 0.0127806342 0.012723244027 0.012666137574 0.012609314814 0.012552774439 
0.012496508818 0.012440527259 0.012384825205 0.012329401374 0.01227425462 0.01221938603 0.012164791473 0.012110471039 0.01205642388 
0.013672428185 0.013610913297 0.013549691267 0.013488759891 0.013428118237 0.013367764435 0.013307701944 0.013247927231 0.013188440418 
0.01312923907 0.013070325237 0.013011696489 0.012953352159 0.012895291853 0.012837514419 0.012780019361 0.012722805888 0.012665872681 
0.012609220027 0.012552845973 0.012496747604 0.012440928477 0.012385386106 0.012330119055 0.012275126634 0.012220407725 0.012165963255 
0.012111789746 0.012057886491 0.012004252511 0.013607114708 0.013546117937 0.013485408931 0.013424986726 0.013364847557 0.013304996757 
0.013245428877 0.013186146623 0.013127148062 0.013068433207 0.013009999611 0.01295184725 0.012893975792 0.012836384572 0.012779072008 
0.012722038122 0.012665281679 0.012608802156 0.012552599044 0.012496666852 0.012441014348 0.012385633969 0.012330526998 0.012275691366 
0.012221127473 0.012166833891 0.012112808689 0.012059052352 0.012005562514 0.011952339332 0.013542171569 0.013481687751 0.013421487113 
0.013361565304 0.013301928425 0.013242573753 0.01318349999 0.013124706448 0.013066194205 0.013007959407 0.012950002148 0.012892322209 
0.012834919338 0.012777792524 0.012720941151 0.012664364102 0.012608061083 0.012552031525 0.0124962702 0.01244078453 0.01238556899 
0.012330624316 0.012275948868 0.012221539739 0.012167400023 0.012113527403 0.012059919924 0.012006577057 0.011953497787 0.011900681869 
0.015730892602 0.015652899081 0.015575333192 0.015498202753 0.015421499968 0.015345223415 0.015269371376 0.015193929884 0.015118922004 
0.015044332086 0.01497016121 0.014896406826 0.014823066043 0.014750138093 0.014677620149 0.014605511694 0.014533809648 0.014462512325 
0.01439162012 0.01432112907 0.014251037463 0.014181339091 0.014112042252 0.01404313904 0.01397462882 0.013906510046 0.013838778775 
0.013771434667 0.01370447452 0.013637897118 0.015654525871 0.015577188503 0.01550028154 0.015423798006 0.015347738969 0.015272098203 
0.015196863279 0.015122058254 0.015047668246 0.014973692214 0.014900128399 0.014826975376 0.014754230955 0.01468189399 0.01460996164 
0.014538431883 0.014467304875 0.014396577005 0.0143262484 0.014256315812 0.014186772898 0.014117627674 0.014048874708 0.013980510068 
0.013912533153 0.013844941909 0.013777733948 0.013710907911 0.013644460983 0.013578393096 0.015578549148 0.015501870537 0.015425612997 
0.015349771666 0.015274347658 0.015199324778 0.015124727962 0.01505054291 0.014976766897 0.014903398154 0.014830437027 0.014757880982 
0.014685727491 0.014613976303 0.01454262506 0.01447167135 0.014401113408 0.01433095072 0.014261181916 0.014191797493 0.014122809084 
0.014054208861 0.013985993734 0.013918163596 0.013850716058 0.013783648766 0.013716960518 0.013650647436 0.013584711893 0.013519150733 
0.015502971546 0.015426941941 0.015351325747 0.015276121686 0.015201314628 0.015126930852 0.015052954214 0.014979382718 0.014906215004 
0.014833449851 0.014761085863 0.014689121898 0.014617555485 0.014546385856 0.014475610327 0.014405227375 0.014335235798 0.014265632757 
0.014196413481 0.014127585325 0.014059142495 0.013991081712 0.013923401588 0.013856101396 0.013789179026 0.01372263211 0.01365645744 
0.013590657176 0.013525227896 0.013460167627 0.015427786803 0.015352400491 0.015277421417 0.015202835525 0.015128668682 0.015054904595 
0.01498154199 0.014908579837 0.014836015217 0.014763849821 0.014692078523 0.01462070188 0.014549716849 0.014479124055 0.01440891972 
0.014339102954 0.014269672188 0.014200620267 0.014131957679 0.014063675047 0.013995773038 0.013928247481 0.013861099116 0.013794324593 
0.013727922797 0.013661892951 0.013596229455 0.013530936434 0.013466009692 0.01340144678 0.015352996918 0.01527824796 0.015203886885 
0.015129941802 0.015056394382 0.014983245178 0.014910492414 0.014838134315 0.014766168874 0.01469459623 0.014623413859 0.014552619154 
0.014482212111 0.014412190409 0.014342552814 0.014273298267 0.014204418002 0.014135923469 0.014067807089 0.01400006738 0.013932701293 
0.013865708213 0.013799086045 0.013732833525 0.01366694878 0.013601428905 0.013536276005 0.013471485088 0.013407056404 0.01334298779 
0.015278600591 0.015204469461 0.015130748851 0.015057425124 0.014984493363 0.014911954385 0.014839805692 0.014768046803 0.014696675005 
0.014625690431 0.01455509178 0.014484875491 0.014415040421 0.014345587014 0.014276511664 0.014207807016 0.014139485502 0.01407153816 
0.014003964048 0.013936761962 0.01386992885 0.013803462804 0.013737363153 0.013671628665 0.013606255688 0.013541244915 0.013476595665 
0.013412305458 0.013348371878 0.013284793585 0.015204583087 0.015131093719 0.01505799609 0.014985287087 0.01491296566 0.014841031376 
0.014769482565 0.014698317125 0.014627534162 0.014557133121 0.014487111792 0.014417469851 0.014348203633 0.014279311688 0.014210788401 
0.014142643483 0.014074869123 0.014007464828 0.013940429159 0.013873760119 0.013807454666 0.013741512448 0.013675930195 0.013610709756 
0.01354584616 0.013481341143 0.013417192052 0.013353397309 0.013289955732 0.013226864114 0.015130975338 0.015058107976 0.014985626108 
0.014913527274 0.014841811536 0.014770476571 0.014699522414 0.01462894584 0.01455874746 0.014488925016 0.01441947709 0.014350402828 
0.014281699815 0.014213360593 0.014145396444 0.014077800027 0.014010569435 0.013943703775 0.013877201849 0.013811061192 0.013745278886 
0.013679856144 0.013614790279 0.013550077471 0.013485721571 0.01342171747 0.013358065068 0.013294761549 0.013231806624 0.013169198683 
0.015057761706 0.014985510863 0.014913639196 0.014842146352 0.014771030359 0.014700290361 0.014629925096 0.014559932726 0.01449031353 
0.014421065004 0.014352185897 0.014283667966 0.014215524402 0.014147745576 0.01408033069 0.014013277893 0.013946585188 0.01388025507 
0.013814281809 0.0137486658 0.013683403534 0.013618496319 0.013553939699 0.013489735773 0.013425880567 0.013362373518 0.013299213693 
0.013236398277 0.01317392643 0.013111797802 0.014984942755 0.014913301916 0.014842035877 0.014771142664 0.014700621636 0.014630471823 
0.014560690879 0.014491277977 0.014422232905 0.014353553529 0.014285231527 0.014217279188 0.014149690263 0.014082459904 0.014015589162 
0.013949076328 0.013882919482 0.013817118714 0.013751670625 0.013686575168 0.013621829773 0.013557431903 0.013493383083 0.013429681054 
0.013366324027 0.013303310262 0.013240638121 0.013178307245 0.013116315508 0.013054662628 0.014912515928 0.014841481103 0.014770815166 
0.014700517329 0.014630586294 0.014561020843 0.014491819295 0.014422981032 0.014354504471 0.014286382334 0.01421862697 0.014151229463 
0.014084189094 0.014017505104 0.0139511743 0.01388519711 0.013819571505 0.013754295229 0.013689368347 0.013624789251 0.013560553328 
0.013496664607 0.013433118711 0.013369915029 0.013307051196 0.013244527062 0.013182340478 0.013120489915 0.013058975883 0.012997793559 
0.014840482605 0.014770048136 0.014699976509 0.014630268613 0.014560922532 0.014491936645 0.014423309764 0.014355041341 0.014287122742 
0.01421956759 0.01415236712 0.014085519524 0.01401902404 0.013952880309 0.013887085488 0.013821637986 0.013756538746 0.01369178435 
0.013627374 0.013563305029 0.013499578928 0.013436193399 0.013373146481 0.013310437468 0.013248064512 0.013186025681 0.013124319817 
0.013062946412 0.013001905056 0.012941190707 0.014768841262 0.014699001583 0.014629520748 0.01456039772 0.014491631432 0.014423220676 
0.014355163394 0.0142874521 0.0142201008 0.014153100809 0.014086449886 0.014020148047 0.013954193186 0.013888584711 0.013823321553 
0.013758401647 0.013693823354 0.013629586084 0.013565688399 0.013502127937 0.013438905607 0.013376019169 0.013313467039 0.013251248432 
0.013189361684 0.01312780464 0.013066577142 0.013005676713 0.01294510417 0.012884854873 0.014697592349 0.014628342584 0.014559446654 
0.014490903547 0.014422711994 0.014354870629 0.014287371571 0.014220227765 0.014153431791 0.014086981762 0.01402087633 0.013955115281 
0.013889696971 0.013824619484 0.013759883055 0.013695485314 0.013631424462 0.013567700393 0.013504309166 0.013441255088 0.013378532212 
0.013316141179 0.013254079983 0.013192347802 0.013130943506 0.013069864587 0.013009111017 0.012948680695 0.012888573483 0.012828785554 
0.014626733947 0.014558068879 0.014489753599 0.014421785274 0.014354163698 0.014286879554 0.01421994847 0.014153359944 0.014087114326 
0.014021209717 0.013955645487 0.013890421142 0.01382553401 0.013760983503 0.013696769315 0.013632889536 0.013569342044 0.013506124813 
0.013443240189 0.013380685711 0.013318459002 0.01325655931 0.013194985128 0.013133735996 0.01307280977 0.013012206021 0.012951922725 
0.012891957353 0.012832312654 0.012772982393 0.014556266534 0.014488181203 0.014420439966 0.014353042383 0.014285977931 0.014219261875 
0.014152885932 0.014086848096 0.014021148106 0.013955784605 0.013890757108 0.013826064088 0.013761704283 0.01369767647 0.013633980298 
0.013570614037 0.013507573421 0.013444863256 0.013382478982 0.013320420485 0.013258685774 0.013197273253 0.013136182966 0.013075412607 
0.013014961146 0.01295482632 0.012895009683 0.012835507669 0.012776319 0.012717443455 0.014486188436 0.014418677903 0.014351497983 
0.014284664772 0.014218168698 0.014152008434 0.014086183048 0.014020691067 0.013955531996 0.013890705578 0.013826210233 0.01376204441 
0.013698207131 0.013634698493 0.01357151538 0.013508656219 0.013446122812 0.013383913244 0.013322025251 0.013260459246 0.013199212148 
0.013138283505 0.013077671713 0.013017376602 0.012957395127 0.012897728041 0.01283837399 0.012779330135 0.012720597297 0.012662172638 
0.01441649793 0.014349549762 0.014282943108 0.014216669784 0.014150728205 0.014085118469 0.014019839611 0.013954888857 0.013890266798 
0.013825971923 0.013762003913 0.013698360696 0.013635041907 0.013572047079 0.013509371093 0.013447019211 0.013384987422 0.013323274372 
0.013261878482 0.013200800405 0.013140037043 0.013079587682 0.01301945129 0.012959626938 0.012900113444 0.012840907557 0.012782012747 
0.012723426614 0.012665144871 0.012607162908 0.014347187697 0.014280812532 0.014214765785 0.014149047293 0.014083656288 0.014018592249 
0.013953853839 0.013889440809 0.013825350243 0.013761582982 0.013698138004 0.013635013526 0.013572208558 0.013509721147 0.013447552828 
0.013385701239 0.013324166157 0.013262945499 0.013202038795 0.013141443683 0.013081159434 0.013021185778 0.012961521772 0.01290216284 
0.012843113099 0.012784368867 0.012725929586 0.01266779508 0.012609956653 0.012552423336 0.014278271713 0.014212455518 0.014146964653 
0.0140817961 0.014016951223 0.013952428371 0.013888226387 0.013824344026 0.013760781346 0.013697537794 0.013634611055 0.013572000671 
0.0135097041 0.013447723248 0.013386056149 0.013324701525 0.013263658129 0.013202926287 0.013142503741 0.013082388242 0.013022580752 
0.012963078939 0.012903880162 0.012844987725 0.012786397487 0.012728109174 0.012670121881 0.012612430912 0.012555041208 0.012497948726 
0.014209741045 0.01414447961 0.014079537715 0.014014915704 0.013950611659 0.013886624995 0.013822955096 0.013759599975 0.013696560217 
0.013633834477 0.0135714226 0.013509319454 0.013447530615 0.013386050899 0.01332488074 0.01326401872 0.013203463891 0.013143215645 
0.013083273059 0.013023634168 0.01296429658 0.012905263476 0.012846530772 0.012788098152 0.012729963675 0.012672127526 0.012614585174 
0.012557341717 0.012500392258 0.012443737064 0.014141594162 0.014076882076 0.014012485458 0.013948404569 0.013884636578 0.013821181571 
0.013758038695 0.013695206355 0.013632685133 0.013570473485 0.013508568273 0.013446973829 0.01338568581 0.013324703227 0.013264025565 
0.013203650838 0.013143580589 0.013083812721 0.013024344641 0.012965177896 0.012906310815 0.012847741529 0.012789469069 0.012731492348 
0.012673811854 0.012616419843 0.012559326956 0.012502524752 0.012446012581 0.012389790982 0.014073829095 0.014009662206 0.013945806233 
0.01388226034 0.013819024771 0.013756096569 0.013693475829 0.013631162158 0.013569154626 0.013507450205 0.013446052761 0.013384959443 
0.013324167634 0.013263677755 0.013203488661 0.013143599624 0.01308400737 0.013024715819 0.012965722274 0.012907023926 0.012848621153 
0.012790512254 0.012732696059 0.012675172372 0.012617935518 0.012560993527 0.01250434237 0.012447977732 0.012391899522 0.012336107435 
0.014006445012 0.013942817955 0.013879497694 0.013816483167 0.013753773627 0.013691368834 0.013629265987 0.01356746391 0.013505965884 
0.013444769071 0.013383872626 0.013323275831 0.013262976335 0.013202974956 0.013143268576 0.013083860274 0.013024746567 0.01296592722 
0.012907402081 0.012849168057 0.012791225945 0.012733573985 0.012676210554 0.012619131532 0.012562344437 0.012505843956 0.012449630137 
0.012393699548 0.012338051978 0.012282687025 0.013939440396 0.013876348554 0.013813559064 0.013751071277 0.013688883649 0.01362699668 
0.013565404975 0.013504114662 0.013443121697 0.013382425756 0.01332202618 0.013261921041 0.013202108818 0.013142591833 0.013083367848 
0.013024435411 0.012965794495 0.012907444141 0.01284938287 0.012791610273 0.012734124411 0.012676925041 0.012620006808 0.012563377573 
0.012507032145 0.012450970459 0.012395190083 0.012339690139 0.012284469655 0.012229527683 0.013872812951 0.013810252077 0.013747988763 
0.013686022834 0.01362435276 0.01356297543 0.013501896635 0.013441110992 0.013380618537 0.013320416485 0.013260510285 0.013200893513 
0.013141567337 0.013082530805 0.013023782834 0.012965322979 0.012907150258 0.012849263827 0.012791663544 0.012734348391 0.012677311492 
0.012620560783 0.012564092616 0.01250790516 0.012451997734 0.012396370499 0.012341020601 0.01228594819 0.012231150795 0.012176629203 
0.013806562365 0.013744527099 0.013682785287 0.013621336569 0.01356017732 0.013499310598 0.013438735797 0.01337844906 0.013318452646 
0.013258745443 0.013199326706 0.013140194299 0.013081348324 0.013022788205 0.012964512661 0.012906521053 0.012848812767 0.01279138663 
0.012734243137 0.012677375942 0.012620792855 0.012564488879 0.012508462571 0.012452713363 0.012397240577 0.012342044096 0.012287121281 
0.012232472645 0.01217809551 0.012123990968 0.013740684582 0.013679170365 0.013617945462 0.013557006886 0.013496356967 0.013435994509 
0.013375919595 0.013316132375 0.013256627969 0.013197408729 0.013138473737 0.013079821461 0.013021451559 0.012963363338 0.01290555548 
0.012848028143 0.012790780352 0.012733811926 0.012677116595 0.012620702753 0.012564564895 0.012508702052 0.012453114502 0.01239780043 
0.012342758378 0.012287988565 0.012233490155 0.012179261073 0.012125301425 0.012071609397 0.013675179937 0.013614177946 0.013553465239 
0.013493036472 0.013432891826 0.013373029965 0.013313451026 0.013254153621 0.013195137884 0.013136402913 0.013077947006 0.013019770554 
0.012961872602 0.01290425255 0.012846909462 0.012789842719 0.01273305142 0.012676531596 0.012620289838 0.012564320681 0.012508624947 
0.012453200419 0.012398047185 0.012343163817 0.012288551255 0.012234206064 0.012180127346 0.012126314745 0.012072769002 0.012019488246 
0.015879683958 0.015801069625 0.015722893368 0.015645149334 0.015567836464 0.015490951803 0.015414494061 0.015338447725 0.015262837439 
0.015187649651 0.015112881043 0.015038531858 0.014964599046 0.014891081062 0.014817975211 0.014745281217 0.014672996061 0.014601119711 
0.014529647625 0.014458580033 0.01438790938 0.014317644729 0.014247778697 0.0141783091 0.014109235248 0.014040553089 0.013972261939 
0.013904359519 0.013836843568 0.013769716088 0.015802736947 0.015724791138 0.015647272452 0.015570180978 0.015493513089 0.015417268619 
0.015341430177 0.01526602653 0.015191038835 0.015116466383 0.015042309399 0.014968565779 0.014895232193 0.014822309116 0.014749792536 
0.014677682125 0.014605975603 0.014534671538 0.0144637672 0.014393255903 0.014323147892 0.014253434914 0.014184115071 0.014115187845 
0.014046650427 0.013978499895 0.013910735496 0.013843354116 0.013776355826 0.013709740488 0.015726189533 0.015648901605 0.015572035011 
0.015495588946 0.015419561245 0.015343937194 0.015268743192 0.015193960468 0.015119590623 0.015045631308 0.014972080229 0.014898936298 
0.014826198334 0.01475386416 0.01468193221 0.014610400624 0.014539267528 0.014468532029 0.014398185089 0.014328237745 0.014258682027 
0.014189516897 0.014120740271 0.014052350107 0.01398434504 0.013916722524 0.013849479281 0.013782617558 0.013716132505 0.013650025541 
0.015650035624 0.015573399729 0.015497180191 0.015421375289 0.015345968966 0.015270987679 0.01519641652 0.015122252037 0.015048494793 
0.014975142134 0.014902192936 0.014829645336 0.014757497262 0.014685748096 0.014614395608 0.01454343833 0.014472874702 0.014402696577 
0.014332915215 0.0142635208 0.014194513894 0.014125892039 0.014057654408 0.013989797318 0.013922320259 0.013855222064 0.013788497413 
0.013722149982 0.013656174486 0.01359057217 0.015574276326 0.01549828779 0.015422709334 0.015347525874 0.015272762831 0.015198405874 
0.01512445258 0.01505090174 0.014977751807 0.014905001198 0.014832648477 0.014760691851 0.014689130193 0.014617960605 0.014547183395 
0.014476796023 0.014406790577 0.014337178052 0.014267951359 0.014199106905 0.014130644001 0.014062562419 0.013994857928 0.013927530051 
0.01386057766 0.013793996656 0.01372778966 0.013661951148 0.013596481526 0.013531380249 0.015498911576 0.01542356502 0.015348607464 
0.015274068401 0.015199930957 0.015126192468 0.015052852836 0.01497990934 0.014907362324 0.014835208864 0.014763447396 0.014692077016 
0.014621096291 0.014550503209 0.014480296643 0.014410467127 0.014341028339 0.014271970801 0.014203294359 0.014134995551 0.014067073947 
0.013999526063 0.013932351501 0.013865549314 0.013799115603 0.01373305143 0.013667354734 0.013602024374 0.013537057877 0.013472452722 