# vtk DataFile Version 5.1
vtk output
ASCII
DATASET STRUCTURED_POINTS
DIMENSIONS 30 30 30
SPACING 0.01 0.01 0.01
ORIGIN 1.555 -0.145 0.855
POINT_DATA 27000
FIELD FieldData 1
potential 1 27000 double
0.37196463028 0.371964765 0.37196500911 0.37196518236 0.37196534465 0.37196558468 0.37196576119 0.37196603096 0.37196652738 
0.37196699623 0.37196752311 0.3719680665 0.3719686029 0.37196909593 0.37196976333 0.37197044227 0.37197125879 0.3719720464 
0.37197286283 0.37197372053 0.37197469354 0.37197555206 0.37197657341 0.37197759433 0.37197869591 0.37197982582 0.37198100092 
0.37198221263 0.37198344055 0.37198470912 0.37270970569 0.37270990333 0.37271008988 0.372710283 0.37271054834 0.37271073885 
0.37271107265 0.37271150843 0.37271195055 0.37271242777 0.37271299383 0.37271357971 0.37271413151 0.37271473134 0.37271537398 
0.37271619108 0.37271698735 0.37271779944 0.3727186736 0.37271949925 0.37272046613 0.37272138231 0.37272238919 0.37272347416 
0.37272460903 0.37272576818 0.37272694274 0.37272817261 0.37272943677 0.37273070861 0.3734029519 0.37340319095 0.37340344846 
0.37340365876 0.37340389181 0.37340424833 0.37340464627 0.37340515728 0.37340561581 0.3734060998 0.37340670435 0.37340732443 
0.37340793189 0.37340856743 0.37340929759 0.37341009831 0.37341092434 0.37341180009 0.37341267583 0.37341356827 0.37341443785 
0.37341546539 0.3734164998 0.37341762111 0.37341876413 0.37341999682 0.37342115758 0.37342238613 0.37342361883 0.37342492247 
0.37404410644 0.37404444881 0.37404475063 0.37404487904 0.37404523871 0.3740456733 0.3740461487 0.37404667338 0.37404720692 
0.37404780724 0.3740483463 0.37404900408 0.37404962512 0.37405037567 0.37405115623 0.37405197465 0.37405280135 0.37405366733 
0.37405464377 0.37405540651 0.37405642131 0.37405743884 0.37405854167 0.37405971077 0.3740608915 0.37406213189 0.37406328078 
0.37406444905 0.3740657764 0.37406708584 0.37463304472 0.37463333246 0.37463363971 0.37463382583 0.37463423377 0.3746347118 
0.37463523353 0.3746357956 0.37463637659 0.37463700712 0.3746376509 0.37463829717 0.37463901504 0.37463975141 0.37464058316 
0.37464144035 0.374642325 0.37464318765 0.37464419471 0.374644989 0.37464604106 0.37464709104 0.3746482144 0.37464938459 
0.37465060277 0.3746518652 0.37465306432 0.37465426737 0.37465556813 0.37465689338 0.37516920484 0.37516954236 0.37516974285 
0.37517019291 0.37517064242 0.37517113716 0.37517162641 0.37517225832 0.37517289376 0.37517358462 0.37517432553 0.37517503386 
0.37517571419 0.37517655059 0.37517735691 0.37517824883 0.37517916823 0.37518011247 0.37518097287 0.37518198103 0.37518297651 
0.37518409239 0.37518524609 0.37518643018 0.37518764513 0.37518896549 0.37519010038 0.37519139693 0.37519274427 0.37519408551 
0.37565247244 0.37565272747 0.37565310283 0.375653609 0.37565408764 0.37565462647 0.37565521809 0.37565586566 0.37565651065 
0.37565724156 0.37565797872 0.37565879245 0.37565965859 0.37566039485 0.37566129353 0.37566216524 0.37566311949 0.37566408318 
0.37566502602 0.37566599323 0.37566708154 0.37566820582 0.37566937328 0.3756705815 0.37567182166 0.37567307306 0.37567439323 
0.37567569226 0.37567706065 0.37567843753 0.37608264146 0.37608288802 0.37608333747 0.37608387024 0.37608443586 0.3760850135 
0.3760856798 0.37608634633 0.37608705103 0.37608784592 0.37608862181 0.37608941963 0.37609032162 0.37609117201 0.37609206633 
0.37609295455 0.37609394373 0.37609480205 0.37609590313 0.37609695552 0.37609804957 0.37609921203 0.37610038384 0.37610161757 
0.37610288365 0.37610415968 0.37610550246 0.37610681617 0.3761082156 0.37610959649 0.37645933985 0.37645975618 0.37646026569 
0.37646082192 0.37646145926 0.37646208566 0.37646279322 0.37646350583 0.37646428018 0.37646505418 0.37646588927 0.37646681416 
0.37646775046 0.37646862636 0.37646955068 0.37647050767 0.3764714603 0.37647235662 0.37647341991 0.37647456736 0.37647571441 
0.37647691263 0.37647810959 0.37647937228 0.37648060802 0.37648192594 0.37648329133 0.3764845858 0.37648603625 0.37648744199 
0.37678267921 0.37678314459 0.37678370857 0.37678430735 0.37678496665 0.37678566947 0.37678642148 0.37678717804 0.37678799339 
0.37678881063 0.37678968478 0.37679063092 0.37679162698 0.37679257179 0.37679353119 0.37679454315 0.3767953763 0.37679642903 
0.37679750924 0.3767986727 0.37679990705 0.37680111726 0.37680236413 0.37680353898 0.37680481842 0.37680619621 0.37680759321 
0.37680898082 0.37681033684 0.37681176305 0.37705233663 0.37705289392 0.37705350713 0.37705415323 0.37705483882 0.37705559928 
0.37705640172 0.37705720486 0.37705805911 0.37705893023 0.37705988665 0.37706082882 0.3770618048 0.37706287142 0.37706384662 
0.37706492525 0.37706575652 0.37706679613 0.37706800144 0.37706921851 0.37707040995 0.37707165098 0.37707287137 0.3770741764 
0.37707547044 0.3770768377 0.37707824928 0.37707965731 0.37708102993 0.37708244427 0.37726827104 0.37726888151 0.37726954134 
0.37727022574 0.37727096915 0.37727177371 0.37727262206 0.37727350108 0.37727436674 0.37727528019 0.37727627099 0.37727726237 
0.37727825824 0.37727935378 0.37728041311 0.37728134305 0.37728247373 0.37728353338 0.37728470309 0.37728593436 0.37728716272 
0.37728839247 0.37728967062 0.3772909731 0.37729236379 0.37729371754 0.37729514031 0.37729656046 0.37729803427 0.37729937655 
0.37743033422 0.37743100487 0.37743170839 0.37743244969 0.37743324001 0.3774340697 0.37743495503 0.37743588701 0.37743678577 
0.37743781338 0.37743878221 0.37743981399 0.37744087666 0.37744196241 0.3774431463 0.37744408329 0.3774452279 0.37744633163 
0.37744755368 0.37744879962 0.37744999529 0.37745130204 0.37745261985 0.37745394779 0.37745533955 0.37745675249 0.37745819297 
0.37745962532 0.37746111812 0.37746247815 0.37753846869 0.37753918877 0.37753992451 0.37754071821 0.37754155418 0.3775424002 
0.3775433571 0.37754431542 0.37754529859 0.37754636209 0.3775473656 0.37754844617 0.3775495549 0.37755068197 0.37755173842 
0.37755285122 0.37755397756 0.37755521709 0.37755642359 0.37755770957 0.37755892723 0.37756027117 0.3775616088 0.37756298164 
0.37756442999 0.37756585905 0.37756730109 0.37756877187 0.37757027804 0.37757165417 0.37759259939 0.37759336765 0.37759416724 
0.37759500799 0.37759589126 0.37759678143 0.37759779753 0.37759877451 0.3775998092 0.37760092248 0.37760197543 0.3776030809 
0.37760422591 0.37760539834 0.37760644773 0.37760765925 0.37760880897 0.37761007837 0.37761130774 0.37761257349 0.37761388447 
0.37761526185 0.37761658853 0.37761802904 0.37761950233 0.37762095714 0.37762246589 0.37762393409 0.37762544828 0.37762693152 
0.37759273811 0.37759355007 0.37759440322 0.3775953007 0.37759621723 0.3775971523 0.37759818494 0.37759922925 0.37760037764 
0.37760147739 0.37760256177 0.37760370669 0.37760489839 0.37760595007 0.37760718774 0.37760844421 0.37760962511 0.37761092009 
0.3776121883 0.37761344195 0.37761484608 0.37761623468 0.37761760314 0.37761903358 0.37762055571 0.37762204074 0.37762357234 
0.3776250886 0.37762663776 0.37762814136 0.37753878189 0.37753964772 0.37754058393 0.37754152945 0.37754247552 0.37754346647 
0.37754455579 0.37754563994 0.37754682054 0.37754793529 0.37754910023 0.37755028622 0.37755154962 0.37755263861 0.3775539143 
0.37755516802 0.37755642173 0.37755768548 0.3775590519 0.37756033911 0.37756176314 0.37756319488 0.37756458396 0.37756604566 
0.37756756925 0.37756912484 0.3775706789 0.37757222351 0.37757374573 0.37757530325 0.37743086545 0.37743182252 0.37743276636 
0.37743380051 0.37743479373 0.37743585557 0.37743695222 0.37743813326 0.37743931194 0.37744045808 0.3774416728 0.37744289204 
0.37744400548 0.37744529399 0.37744656792 0.37744789706 0.37744914373 0.37745048594 0.37745188579 0.377453268 0.37745468563 
0.37745611907 0.37745759933 0.37745908157 0.37746062155 0.37746217412 0.37746378431 0.37746533634 0.37746680022 0.37746841399 
0.37726903614 0.3772700533 0.37727106387 0.37727209003 0.3772731107 0.3772742602 0.37727541216 0.37727663732 0.37727785714 
0.37727905096 0.37728030042 0.3772815652 0.37728269845 0.37728404041 0.37728535211 0.37728665084 0.37728804878 0.37728939218 
0.3772908104 0.37729224625 0.37729365471 0.37729511798 0.37729660654 0.37729813924 0.37729972912 0.37730129638 0.37730279319 
0.37730443858 0.3773060028 0.37730761803 0.3770533428 0.37705437592 0.37705548087 0.3770565271 0.377057611 0.37705876396 
0.37705998593 0.37706126614 0.37706249534 0.37706376472 0.37706505437 0.37706635929 0.37706753793 0.37706884965 0.37707017646 
0.37707160979 0.37707300555 0.37707444385 0.37707587584 0.37707733064 0.37707883212 0.37708026023 0.37708178458 0.37708334136 
0.37708492583 0.37708644374 0.37708804443 0.37708970923 0.37709132195 0.37709296941 0.37678393778 0.37678494133 0.37678603693 
0.37678717964 0.3767883464 0.37678953127 0.3767908472 0.37679208743 0.37679339009 0.37679470863 0.37679602957 0.37679723111 
0.37679860352 0.37679988685 0.37680132006 0.37680275845 0.37680418953 0.37680571774 0.37680714984 0.37680863768 0.37681013614 
0.37681167463 0.37681318309 0.37681469252 0.37681632141 0.37681792781 0.37681955288 0.37682116092 0.37682284274 0.37682450422 
0.37646081958 0.37646183874 0.37646301491 0.37646415941 0.37646541808 0.37646664869 0.37646800235 0.37646929047 0.37647060148 
0.37647195425 0.37647335277 0.37647459181 0.37647593059 0.37647733304 0.37647878092 0.37648027165 0.37648173935 0.37648323921 
0.37648474195 0.3764862936 0.37648781943 0.37648930685 0.37649085129 0.37649246532 0.37649412843 0.37649576039 0.37649740503 
0.37649904091 0.37650071426 0.37650243465 0.37608415726 0.37608533491 0.37608646801 0.3760876883 0.37608897932 0.37609025181 
0.37609165196 0.37609297996 0.37609432828 0.37609569792 0.37609697892 0.37609836719 0.3760997844 0.37610126482 0.37610274869 
0.37610427508 0.37610577931 0.37610733218 0.37610889031 0.376110404 0.37611188958 0.37611350996 0.37611514406 0.37611671586 
0.37611838019 0.37612007073 0.37612174024 0.37612339644 0.37612509247 0.37612681724 0.37565418506 0.37565541027 0.37565663995 
0.37565785493 0.37565914341 0.37566057671 0.3756619576 0.3756633277 0.3756647231 0.37566613454 0.3756673477 0.37566883944 
0.37567031817 0.3756718441 0.37567337736 0.37567492754 0.37567647763 0.37567805925 0.37567960564 0.37568112662 0.37568271509 
0.37568433917 0.37568599882 0.37568771539 0.37568933624 0.37569105159 0.37569274866 0.3756944339 0.37569615318 0.37569790475 
0.37517108357 0.37517233778 0.37517364491 0.37517487358 0.37517622296 0.37517765453 0.37517911264 0.37518052525 0.37518196243 
0.37518334515 0.37518467754 0.37518614556 0.37518772141 0.37518925677 0.37519086199 0.37519245236 0.37519395681 0.37519558323 
0.37519719404 0.37519881032 0.375200412 0.37520206404 0.37520375034 0.37520545813 0.37520710808 0.37520885139 0.37521057287 
0.37521229905 0.37521407119 0.3752158437 0.37463505169 0.37463636347 0.37463769606 0.37463901713 0.37464036556 0.37464185648 
0.37464335686 0.37464473969 0.37464621934 0.37464771517 0.37464908766 0.37465059906 0.37465220236 0.37465378917 0.37465532192 
0.3746569438 0.3746585879 0.37466024817 0.37466191338 0.37466353586 0.37466517851 0.37466686289 0.37466859236 0.37467032027 
0.37467205577 0.3746737694 0.37467547707 0.37467722825 0.37467901834 0.37468085519 0.37404638592 0.37404773381 0.37404905178 
0.3740504565 0.37405194638 0.3740533616 0.37405476138 0.3740563552 0.37405787586 0.37405926233 0.37406082864 0.37406230669 
0.37406391907 0.37406556905 0.37406720517 0.37406887009 0.37407052001 0.3740722078 0.37407392304 0.37407556712 0.37407724912 
0.37407898549 0.37408074934 0.37408250858 0.37408426946 0.37408606606 0.37408774533 0.37408952373 0.37409133767 0.3740932007 
0.37340530419 0.37340668918 0.3734080503 0.37340949251 0.37341102491 0.37341245381 0.37341393763 0.37341554444 0.3734171073 
0.37341846989 0.37342005846 0.37342167634 0.37342332773 0.37342498855 0.37342668943 0.37342837987 0.37343007386 0.37343179163 
0.37343351783 0.37343522454 0.37343695533 0.37343872369 0.37344049807 0.37344228448 0.37344407747 0.37344590166 0.37344760899 
0.3734494351 0.37345127442 0.37345313166 0.37271212645 0.37271354239 0.37271496599 0.37271642727 0.37271793002 0.37271946258 
0.37272092612 0.37272254173 0.37272417704 0.37272564522 0.37272724815 0.3727289193 0.37273059575 0.37273231748 0.37273405559 
0.37273577689 0.37273751388 0.37273926423 0.37274100663 0.37274276092 0.37274452753 0.37274630529 0.37274813335 0.37274994981 
0.37275179964 0.37275359676 0.3727554253 0.37275720164 0.37275908191 0.37276094375 0.37196708276 0.37196855232 0.3719700039 
0.37197137751 0.37197299366 0.37197456067 0.37197615543 0.37197774843 0.37197933993 0.37198104225 0.37198268189 0.37198439139 
0.37198610575 0.37198783717 0.37198957775 0.37199136475 0.37199314154 0.3719949557 0.37199673095 0.37199850947 0.37200029379 
0.37200214167 0.3720039837 0.37200573998 0.37200760997 0.37200944581 0.37201131075 0.37201317617 0.37201502711 0.37201692803 
0.36872352231 0.36872362774 0.36872380101 0.36872397143 0.36872418672 0.36872437012 0.36872454524 0.36872479302 0.36872516626 
0.36872561281 0.36872606807 0.36872660381 0.36872709883 0.36872769285 0.36872822968 0.36872889033 0.36872959616 0.36873041783 
0.36873120172 0.3687320159 0.36873290521 0.3687338751 0.36873473784 0.36873571482 0.36873677719 0.368737851 0.3687389588 
0.36874011178 0.36874134091 0.36874251512 0.36945328992 0.36945343244 0.36945359372 0.36945380402 0.36945403175 0.36945431382 
0.36945451695 0.36945480226 0.36945525486 0.3694557837 0.36945627663 0.36945680608 0.3694574015 0.3694579689 0.36945857332 
0.36945921054 0.36945994302 0.36946081717 0.36946161005 0.36946248378 0.36946337392 0.36946433536 0.36946525417 0.36946626373 
0.36946734739 0.36946843016 0.3694695565 0.36947074722 0.3694718935 0.36947316395 0.37013229994 0.37013248843 0.37013268851 
0.37013297195 0.37013320083 0.37013343271 0.37013379949 0.37013418492 0.37013469281 0.37013519252 0.37013573229 0.37013630755 
0.3701369323 0.37013752911 0.37013817145 0.37013892363 0.37013971542 0.37014055168 0.37014139371 0.3701422395 0.3701431547 
0.3701440268 0.37014501763 0.37014611415 0.37014722308 0.37014834602 0.37014946943 0.37015063193 0.3701518505 0.37015305366 
0.37076036693 0.37076055666 0.37076078422 0.37076106032 0.37076139033 0.37076163773 0.37076207494 0.37076255426 0.37076309022 
0.37076360765 0.37076416062 0.37076477901 0.37076544514 0.37076608878 0.37076681831 0.37076761247 0.37076841733 0.37076924943 
0.37077011219 0.37077102333 0.37077184079 0.37077286412 0.37077387427 0.37077493946 0.3707760951 0.37077723946 0.37077839398 
0.37077956287 0.37078078915 0.37078204935 0.3713370721 0.37133731023 0.37133760438 0.37133790788 0.37133815826 0.37133857028 
0.37133905207 0.3713395719 0.37134016429 0.3713407586 0.37134133452 0.37134199207 0.37134266811 0.37134332546 0.37134411232 
0.37134494104 0.37134580665 0.37134669989 0.37134750899 0.37134850708 0.37134933857 0.37135033031 0.3713514169 0.37135252667 
0.37135366758 0.37135486892 0.3713560316 0.37135720238 0.37135841444 0.371359718 0.37186222127 0.3718625293 0.37186288215 
0.37186303897 0.3718634779 0.37186395539 0.3718644602 0.37186499789 0.37186565996 0.3718662605 0.37186696262 0.37186760944 
0.3718683519 0.37186906782 0.37186990399 0.37187070563 0.37187160358 0.37187251597 0.37187345172 0.37187427616 0.37187529679 
0.37187629383 0.37187739466 0.37187852769 0.37187968247 0.37188082309 0.3718821162 0.37188328563 0.3718845019 0.37188580556 
0.37233554518 0.37233590177 0.37233623501 0.37233654934 0.37233703374 0.37233753642 0.37233803501 0.3723386198 0.37233932606 
0.37233998429 0.37234073007 0.37234146396 0.37234219632 0.3723429807 0.37234385244 0.37234471494 0.37234558917 0.37234653424 
0.37234749575 0.37234840007 0.37234940759 0.37235044744 0.37235155364 0.37235271113 0.37235384294 0.37235507792 0.37235631785 
0.37235758926 0.37235881385 0.37236013317 0.37275683115 0.37275721325 0.37275751939 0.37275798512 0.37275850345 0.37275905869 
0.37275964932 0.37276030085 0.37276095614 0.37276165625 0.37276240211 0.37276323554 0.37276402749 0.37276489249 0.37276574187 
0.37276666582 0.372767545 0.37276853085 0.37276938224 0.37277039399 0.37277148205 0.37277258216 0.37277366358 0.37277484589 
0.37277600113 0.37277727727 0.37277853882 0.37277988335 0.37278115151 0.37278248933 0.37312590146 0.37312623948 0.37312666205 
0.37312719046 0.37312774288 0.3731283599 0.37312899766 0.37312972453 0.37313042383 0.3731311684 0.37313194966 0.37313274909 
0.37313366661 0.37313454783 0.37313538662 0.37313635816 0.37313736839 0.37313832651 0.37313917804 0.37314020144 0.37314132132 
0.37314244039 0.37314361763 0.37314472184 0.37314601222 0.37314731338 0.37314856437 0.37314989597 0.3731511497 0.37315254159 
0.37344258765 0.37344291301 0.37344342481 0.3734439884 0.37344460614 0.37344527554 0.37344594791 0.3734467132 0.37344745669 
0.37344824224 0.37344906346 0.37344992371 0.37345087359 0.37345177846 0.37345274655 0.37345365593 0.37345467322 0.37345554467 
0.37345654193 0.37345762708 0.37345876283 0.37345994403 0.37346111147 0.37346235477 0.37346357289 0.3734648963 0.37346616807 
0.37346752146 0.37346888139 0.37347016142 0.37370659232 0.37370708266 0.37370765314 0.37370824893 0.37370891263 0.37370960094 
0.37371035496 0.37371115521 0.37371194646 0.373712773 0.37371363447 0.37371460653 0.37371552347 0.37371646738 0.37371746155 
0.3737184317 0.37371947571 0.37372035738 0.37372138785 0.37372250457 0.37372374386 0.3737248966 0.37372607998 0.37372734001 
0.37372862321 0.37372991009 0.3737312047 0.37373259472 0.3737339671 0.37373526264 0.37391805101 0.37391859559 0.37391920893 
0.37391986037 0.37392054606 0.37392130219 0.37392210517 0.37392293275 0.37392374825 0.37392461628 0.37392552148 0.37392650137 
0.37392748207 0.37392849031 0.37392952051 0.37393054322 0.37393151581 0.37393253849 0.37393361461 0.37393476465 0.37393592549 
0.37393714734 0.37393840144 0.37393967586 0.37394096142 0.37394229033 0.37394361771 0.37394500818 0.37394635253 0.37394772492 
0.37407675556 0.37407734718 0.37407799082 0.37407868776 0.37407942603 0.37408021993 0.37408106576 0.37408194161 0.37408281039 
0.37408371915 0.37408466839 0.37408568879 0.37408670106 0.37408774807 0.37408882264 0.37408990769 0.37409088041 0.37409194993 
0.37409305462 0.3740941486 0.37409539935 0.37409664795 0.37409793502 0.37409924328 0.37410054004 0.37410193134 0.37410325875 
0.37410468174 0.37410603899 0.37410752096 0.37418255066 0.37418324379 0.37418394977 0.37418469224 0.37418547534 0.37418629216 
0.37418717347 0.37418811779 0.37418902677 0.37418998297 0.37419103771 0.37419202691 0.3741930686 0.37419415385 0.37419529286 
0.37419628177 0.37419740618 0.37419851977 0.37419972155 0.37420078478 0.37420204422 0.37420332815 0.37420464192 0.37420598599 
0.37420729893 0.37420871156 0.37421010563 0.37421152809 0.37421289549 0.37421439209 0.37423555464 0.37423627127 0.37423702426 
0.3742378179 0.37423865255 0.37423952513 0.37424040192 0.37424141603 0.37424237365 0.37424336207 0.37424445343 0.37424548143 
0.37424658192 0.37424770095 0.37424886431 0.37424988681 0.37425100581 0.37425219222 0.37425336254 0.37425453702 0.37425580399 
0.37425712753 0.37425846353 0.37425980955 0.3742611725 0.3742626091 0.37426403139 0.3742655012 0.37426690688 0.37426841778 
0.37423558379 0.3742363612 0.37423719254 0.37423802728 0.37423890303 0.37423980932 0.37424075147 0.37424177406 0.37424279971 
0.37424389932 0.37424496091 0.374246044 0.37424716605 0.37424832348 0.37424935375 0.37425057283 0.37425172501 0.37425288906 
0.37425415487 0.37425542756 0.37425666315 0.37425800831 0.37425937568 0.37426072594 0.37426212259 0.37426362241 0.37426506573 
0.37426655343 0.3742679813 0.3742694924 0.37418274022 0.37418356538 0.37418441711 0.37418531927 0.37418625415 0.37418720268 
0.37418818098 0.37418923094 0.3741903118 0.37419145482 0.37419255609 0.37419366396 0.37419483591 0.37419602322 0.37419709758 
0.37419831651 0.37419952234 0.374200732 0.37420202897 0.37420333276 0.37420462622 0.37420597789 0.37420738687 0.37420876399 
0.37421018648 0.37421166928 0.3742131652 0.3742146745 0.37421605061 0.37421759954 0.37407699274 0.37407783849 0.37407874529 
0.37407968866 0.37408069121 0.37408166318 0.37408268448 0.37408377171 0.37408494119 0.3740860858 0.3740872639 0.37408840798 
0.37408960378 0.37409069562 0.37409195356 0.37409313912 0.37409444493 0.37409568896 0.37409701754 0.37409836759 0.3740997246 
0.37410106702 0.37410249392 0.374103902 0.37410536112 0.37410686201 0.37410833727 0.3741097866 0.37411130561 0.37411287329 
0.37391839386 0.37391930402 0.37392025362 0.3739212539 0.37392227424 0.37392328894 0.37392436995 0.37392550683 0.3739267122 
0.37392790458 0.37392906509 0.37393026771 0.3739315037 0.37393261431 0.37393379435 0.37393514237 0.37393649964 0.37393777903 
0.3739391544 0.37394054374 0.37394193582 0.37394336154 0.37394472767 0.37394618262 0.37394767335 0.37394913068 0.37395063178 
0.37395214315 0.37395370941 0.37395530611 0.37370706018 0.37370800135 0.37370898654 0.37371003692 0.37371107959 0.3737121569 
0.37371326728 0.37371446468 0.3737157149 0.37371692221 0.37371815671 0.37371940511 0.37372067478 0.37372175492 0.37372304109 
0.3737243931 0.37372578332 0.37372716419 0.37372849975 0.37372991174 0.37373133377 0.37373279181 0.37373418353 0.37373560419 
0.37373714627 0.37373869126 0.37374022303 0.37374173282 0.37374334975 0.37374495653 0.37344304669 0.37344403017 0.37344505756 
0.37344615413 0.373447229 0.37344835817 0.37344950888 0.37345080104 0.37345202248 0.37345329489 0.37345456242 0.3734558496 
0.37345694676 0.3734582375 0.37345959839 0.37346097711 0.37346239207 0.37346380186 0.37346516887 0.37346664108 0.37346808977 
0.37346958078 0.3734709816 0.37347244661 0.37347398254 0.37347556117 0.37347711044 0.37347866247 0.37348027178 0.37348193213 
0.37312646909 0.3731274994 0.37312857407 0.3731296937 0.37313082854 0.37313199861 0.3731332006 0.37313452446 0.37313579217 
0.3731370692 0.37313838396 0.37313966669 0.37314087185 0.37314219954 0.37314359228 0.37314501101 0.37314645368 0.37314790881 
0.37314933922 0.37315079276 0.37315218493 0.37315369762 0.37315523293 0.37315674112 0.3731582911 0.37315988696 0.37316141363 
0.3731630049 0.3731646539 0.37316626606 0.37275747999 0.3727585433 0.3727596877 0.37276084003 0.37276201597 0.37276322912 
0.37276446965 0.3727658341 0.3727671429 0.37276846225 0.37276972462 0.37277094191 0.37277238212 0.37277375248 0.37277517544 
0.3727766224 0.37277809379 0.37277955046 0.37278098894 0.37278246397 0.37278395707 0.37278546997 0.37278703257 0.37278862132 
0.37279018751 0.37279180886 0.37279336587 0.37279498106 0.37279665095 0.37279828471 0.37233619593 0.37233733595 0.37233854321 
0.37233974308 0.37234094188 0.37234221238 0.37234356441 0.37234489862 0.37234624358 0.37234753221 0.37234889582 0.37235017749 
0.37235159012 0.37235302474 0.37235450967 0.37235599173 0.37235742949 0.37235892058 0.372360464 0.37236197164 0.37236349315 
0.3723650357 0.37236664081 0.37236824304 0.37236985483 0.3723714487 0.37237307056 0.3723747117 0.37237641086 0.37237809042 
0.37186289782 0.37186409452 0.37186531613 0.37186653263 0.37186782338 0.37186911871 0.37187052738 0.37187184117 0.37187322766 
0.37187462668 0.37187602986 0.37187733775 0.37187877357 0.37188028032 0.37188171689 0.37188324042 0.37188478341 0.37188631091 
0.37188788278 0.37188944894 0.37189099402 0.37189254973 0.37189418397 0.37189581433 0.3718974553 0.37189907522 0.37190068488 
0.37190235095 0.37190404187 0.37190581045 0.37133777618 0.37133904279 0.37134030154 0.37134154227 0.37134285555 0.37134419335 
0.37134557115 0.37134700824 0.371348435 0.37134987333 0.37135117258 0.37135262895 0.37135407156 0.37135561455 0.37135715989 
0.37135870842 0.37136027805 0.37136187334 0.37136342236 0.37136505891 0.37136664245 0.37136823896 0.37136988687 0.37137154585 
0.37137321483 0.37137487331 0.37137649837 0.37137818709 0.37137990457 0.37138165014 0.37076106039 0.370762373 0.37076367547 
0.37076495797 0.37076631372 0.37076769166 0.37076909896 0.37077054536 0.3707720371 0.37077344975 0.37077481264 0.37077630275 
0.37077784111 0.37077939582 0.37078099256 0.37078258554 0.37078418885 0.37078578691 0.37078740016 0.37078908955 0.37079069378 
0.37079233685 0.37079399711 0.37079568376 0.37079738211 0.37079906419 0.3708007691 0.37080242942 0.37080419669 0.37080595419 
0.37013302525 0.37013437219 0.37013571793 0.37013707159 0.37013837954 0.37013986335 0.37014131934 0.37014273046 0.37014427149 
0.37014578647 0.37014716967 0.37014868696 0.37015026061 0.37015187389 0.37015348198 0.37015512361 0.37015676799 0.37015841677 
0.37016003818 0.37016170459 0.37016340856 0.37016510316 0.37016679339 0.37016851088 0.37017023546 0.37017190208 0.3701736557 
0.37017534275 0.37017712559 0.37017894994 0.36945390094 0.36945528994 0.36945667668 0.3694579915 0.36945936733 0.36946089573 
0.36946238179 0.36946395969 0.36946553831 0.36946709154 0.36946847615 0.36947006675 0.36947167717 0.36947330328 0.36947493127 
0.36947661322 0.36947828622 0.3694799786 0.36948165806 0.36948334496 0.36948508871 0.36948679917 0.36948851231 0.36949027685 
0.36949189974 0.36949365594 0.36949545776 0.3694972381 0.36949898821 0.36950076581 0.36872415124 0.36872541604 0.36872684666 
0.36872826886 0.36872974753 0.368731296 0.36873283374 0.36873437773 0.36873598147 0.36873744312 0.36873901227 0.36874063827 
0.36874228207 0.36874393586 0.36874561271 0.3687473046 0.3687490332 0.36875072965 0.36875240781 0.3687541604 0.36875592485 
0.36875766675 0.36875944518 0.36876119926 0.36876296695 0.36876477639 0.36876657982 0.36876841797 0.36877020333 0.36877195544 
0.36553273794 0.36553276426 0.36553288106 0.36553301645 0.36553319611 0.36553331611 0.36553360932 0.36553390921 0.36553413702 
0.36553452584 0.36553498275 0.36553543503 0.3655359969 0.36553650528 0.36553710552 0.36553770472 0.36553833323 0.36553901728 
0.36553982275 0.36554063828 0.36554146724 0.3655423577 0.36554332135 0.36554429828 0.36554513913 0.36554617481 0.36554725182 
0.36554836308 0.36554946426 0.36555058636 0.36624750908 0.3662475709 0.36624774664 0.36624793773 0.36624815144 0.36624836665 
0.36624860217 0.36624886434 0.36624927447 0.36624962512 0.3662501184 0.36625065896 0.36625121194 0.36625176138 0.36625240927 
0.36625302955 0.36625373884 0.36625440528 0.36625525889 0.36625609369 0.36625693894 0.36625785306 0.36625881125 0.3662596883 
0.36626069927 0.36626175984 0.36626285098 0.36626389737 0.36626509565 0.36626623355 0.36691259389 0.36691270179 0.36691292455 
0.36691312913 0.36691342588 0.36691366987 0.36691388982 0.36691420868 0.36691469367 0.36691522489 0.36691571572 0.36691622908 
0.36691682539 0.36691745264 0.36691808371 0.36691868851 0.36691943179 0.36692024103 0.36692102361 0.36692190793 0.36692277648 
0.36692370396 0.3669245685 0.36692555495 0.3669266306 0.36692769463 0.36692876093 0.36692986918 0.36693108458 0.36693223818 
0.36752771726 0.3675279214 0.36752813393 0.36752839377 0.36752867248 0.36752901285 0.36752924291 0.36752970524 0.36753018553 
0.36753071489 0.36753126445 0.36753186287 0.36753244972 0.36753311261 0.36753376357 0.36753449404 0.36753521622 0.36753608976 
0.3675369182 0.36753774597 0.3675386495 0.36753959555 0.36754045381 0.36754149213 0.36754255445 0.3675436746 0.36754479483 
0.36754594385 0.36754711802 0.36754828761 0.3680925747 0.36809284543 0.36809308998 0.36809340213 0.36809371911 0.36809397764 
0.36809439428 0.36809488769 0.36809539377 0.36809597078 0.36809656177 0.36809719465 0.36809784815 0.36809851765 0.36809921219 
0.36809997554 0.36810079936 0.36810163686 0.36810249292 0.36810341884 0.36810432271 0.36810516557 0.36810615404 0.3681071835 
0.36810826907 0.36810934099 0.36811055121 0.36811170925 0.36811289098 0.36811407409 0.36860699074 0.36860725012 0.36860753132 
0.36860785159 0.36860811087 0.36860855472 0.36860904555 0.36860957708 0.36861009371 0.36861074501 0.3686113448 0.36861201548 
0.36861270624 0.36861344147 0.36861414817 0.36861499877 0.36861579382 0.36861667121 0.36861754265 0.36861847315 0.3686193652 
0.36862029154 0.36862131427 0.36862239779 0.36862345707 0.3686245766 0.36862574264 0.36862697681 0.36862812642 0.36862934624 
0.36907061924 0.36907092512 0.36907127721 0.36907159552 0.36907189351 0.36907240589 0.36907291805 0.36907349064 0.36907404421 
0.36907470366 0.36907540767 0.36907607977 0.36907681465 0.36907758504 0.36907837445 0.36907923822 0.36908011912 0.36908095997 
0.36908185878 0.36908281684 0.36908372319 0.36908472895 0.36908571591 0.36908676867 0.3690879052 0.36908905453 0.36909026843 
0.36909148523 0.36909273305 0.36909389721 0.36948326682 0.36948360737 0.36948400511 0.36948428725 0.36948475783 0.36948529063 
0.36948582076 0.36948640846 0.3694870537 0.36948773114 0.36948847239 0.36948921076 0.36948995627 0.36949076241 0.3694916497 
0.3694924917 0.36949340488 0.36949429548 0.36949521756 0.36949604115 0.36949703397 0.36949812818 0.36949920933 0.36950023946 
0.36950139871 0.36950258028 0.36950382929 0.36950505004 0.36950626338 0.3695075114 0.36984471691 0.36984514278 0.36984540966 
0.36984590689 0.36984642887 0.36984697496 0.36984761357 0.36984824195 0.36984886042 0.36984959952 0.36985031698 0.36985114984 
0.3698519591 0.36985273647 0.36985370535 0.36985458071 0.36985550559 0.36985649174 0.36985741704 0.36985826459 0.36985925345 
0.36986039021 0.36986144164 0.36986259498 0.36986375657 0.36986493904 0.36986620486 0.36986751237 0.36986876318 0.36986998643 
0.37015487519 0.37015533143 0.37015565714 0.37015618534 0.37015675263 0.37015734919 0.37015802747 0.37015870432 0.37015943687 
0.37016017976 0.37016093352 0.37016175135 0.37016259942 0.37016351294 0.37016438587 0.37016531834 0.37016630312 0.37016731069 
0.37016813214 0.37016910098 0.37017018911 0.37017129392 0.37017242275 0.37017358285 0.37017484099 0.37017604722 0.37017730293 
0.37017855046 0.3701798384 0.37018115741 0.37041356365 0.37041393635 0.37041442596 0.37041500902 0.37041561097 0.37041625707 
0.37041694865 0.37041768218 0.37041846307 0.37041922792 0.37042004505 0.37042087512 0.37042179728 0.37042273571 0.37042368277 
0.37042463536 0.37042561673 0.37042666776 0.37042757205 0.37042851432 0.37042957304 0.37043073436 0.37043196424 0.37043315183 