# vtk DataFile Version 5.1
vtk output
ASCII
DATASET POLYDATA
POINTS 2458 double
58.611110687 -9.4444446564 1.258879255e-14 57.569446564 -9.4444446564 1.2347858264e-14 58.611110687 -12.222222328 1.258879255e-14 
58.611110687 -12.222222328 1.258879255e-14 57.569446564 -9.4444446564 1.2347858264e-14 55.833335876 -12.222222328 1.1946300237e-14 
55.833335876 -12.222222328 1.1946300237e-14 57.569446564 -9.4444446564 1.2347858264e-14 56.597221375 -9.4444446564 1.2122985028e-14 
55.833335876 -12.222222328 1.1946300237e-14 56.597221375 -9.4444446564 1.2122985028e-14 55.833335876 -9.4444446564 1.1946300237e-14 
56.597221375 -9.4444446564 1.2122985028e-14 57.569446564 -9.4444446564 1.2347858264e-14 56.597221375 -1.6319445372 1.2122985028e-14 
56.597221375 -1.6319445372 1.2122985028e-14 57.569446564 -9.4444446564 1.2347858264e-14 57.569446564 -1.6319445372 1.2347858264e-14 
56.597221375 -1.6319445372 1.2122985028e-14 57.569446564 -1.6319445372 1.2347858264e-14 55.416667938 -0.72916668653 1.1849925993e-14 
55.416667938 -0.72916668653 1.1849925993e-14 57.569446564 -1.6319445372 1.2347858264e-14 58.611110687 -1.6319445372 1.258879255e-14 
55.416667938 -0.72916668653 1.1849925993e-14 58.611110687 -1.6319445372 1.258879255e-14 55.416667938 0.72916668653 1.1849925993e-14 
55.416667938 0.72916668653 1.1849925993e-14 58.611110687 -1.6319445372 1.258879255e-14 58.611110687 1.840277791 1.258879255e-14 
55.416667938 0.72916668653 1.1849925993e-14 58.611110687 1.840277791 1.258879255e-14 -59.444450378 1.840277791 -1.4717161213e-14 
-59.444450378 1.840277791 -1.4717161213e-14 -59.444450378 0.72916668653 -1.4717161213e-14 55.416667938 0.72916668653 1.1849925993e-14 
-59.444450378 -0.72916668653 -1.4717161213e-14 -59.444450378 -1.6319445372 -1.4717161213e-14 55.416667938 -0.72916668653 1.1849925993e-14 
55.416667938 -0.72916668653 1.1849925993e-14 -59.444450378 -1.6319445372 -1.4717161213e-14 56.597221375 -1.6319445372 1.2122985028e-14 
4.5535728997 -1.12893709 8.5420290281e-17 -27.445438739 -1.3804408136 -7.3158704613e-15 -34.01389122 -0.72916668653 -8.835136967e-15 
-8.5803378094 1.3482428786 -2.9524201581e-15 -34.012394094 1.5942603348 -8.8347906855e-15 -34.01389122 0.72916668653 -8.835136967e-15 
4.5555496216 -1.6319445372 8.5877501067e-17 24.597221375 -1.6319445372 4.7214656706e-15 40.597221375 -1.6319445372 8.4222253491e-15 
-5.3888893127 1.840277791 -2.2142461635e-15 26.611110687 1.840277791 5.1872731935e-15 42.611110687 1.840277791 8.888032872e-15 
4.5525553693 1.221201599 8.5184938051e-17 -27.445947505 1.530739695 -7.3159881374e-15 29.984611654 0.97518414276 5.9675554655e-15 
17.268583512 1.0981928709 3.0263702018e-15 42.700639796 0.85217541465 8.9087407292e-15 -8.5833320618 -0.72916668653 -2.9531127211e-15 
23.416667938 -0.72916668653 4.4484066359e-15 -46.729170799 -1.1805556118 -1.177614909e-14 -8.5833320618 0.72916668653 -2.9531127211e-15 
23.416667938 0.88393935508 4.4484066359e-15 -46.729170799 1.1837197968 -1.177614909e-14 -21.299573111 1.1397114793 -5.8943472297e-15 
4.5535728997 -1.12893709 8.5420290281e-17 -27.444450378 -1.5061907333 -7.3156418559e-15 29.985120419 -0.92905188828 5.9676731416e-15 
-11.443956183 -1.4433118893 -3.6147678712e-15 -3.4427205865 -1.4118685827 -1.7641022417e-15 0.55987506345 -1.3961391569 -8.3831195475e-16 
-14.937093977 1.0694429201 -4.4227218401e-15 -5.4469767788 1.317932254 -2.227681648e-15 -11.751926303 1.0540373919 -3.686000584e-15 
-7.4468832084 1.337278385 -2.6902549653e-15 2.6111106873 1.840277791 -3.6386632427e-16 -3.4470703492 1.298586123 -1.7651083308e-15 
-11.446696068 1.375970647 -3.6154015997e-15 10.611110687 1.840277791 1.486513515e-15 7.4166679382 0.72916668653 7.4764695742e-16 
23.416667938 0.72916668653 4.4484066359e-15 23.418165064 1.0387047826 4.4487529174e-15 -4.4454496752 1.4709599523 -1.9960309529e-15 
-6.4469299936 1.3276053195 -2.4589683066e-15 -27.444450378 1.840277791 -7.3156418559e-15 -16.416669846 1.840277791 -4.7649440097e-15 
-10.902779579 1.840277791 -3.4895950866e-15 -11.44593292 -1.2546889518 -3.6152250855e-15 -3.4461800101 -1.1918130209 -1.7649023976e-15 
-21.298611641 -0.72916668653 -5.894124844e-15 -7.4460564649 -1.2232509864 -2.6900637416e-15 7.4166679382 -0.72916668653 7.4764695742e-16 
-27.445438739 -1.3804408136 -7.3158704613e-15 -27.444450378 -1.6319445372 -7.3156418559e-15 -10.151768463 1.0462979951 -3.3158881081e-15 
-4.5833320618 0.72916668653 -2.0279228014e-15 -9.3362864478 1.0423537974 -3.1272691731e-15 -6.5833320618 1.0290387318 -2.4905177613e-15 
-0.58333206177 0.72916668653 -1.1027328818e-15 -9.446789638 1.356624516 -3.1528282825e-15 -13.659724712 1.840277791 -4.1272695482e-15 
-10.446742853 1.3662975815 -3.3841149411e-15 -8.145834446 1.840277791 -2.8519206251e-15 -10.94671946 1.3711341142 -3.4997582704e-15 
-10.694647106 1.5841546173 -3.44145457e-15 -9.5243070126 1.840277791 -3.1707578558e-15 -12.281252146 1.840277791 -3.8084323174e-15 
-11.592015862 1.840277791 -3.649013702e-15 -19.446321786 1.453355171 -5.4656948686e-15 -15.446508927 1.414662909 -4.5405482341e-15 
-13.446602497 1.395316778 -4.0779749169e-15 0.55274251003 1.259893861 -8.3996169638e-16 2.5526489396 1.24054773 -3.7738837917e-16 
-1.3888893127 1.840277791 -1.2890562439e-15 -21.296365952 1.4712516067 -5.8936054218e-15 -21.298611641 0.72916668653 -5.894124844e-15 
-14.940971851 -0.72916668653 -4.4236187825e-15 -14.938351881 1.4097472426 -4.4230127899e-15 -14.940971851 0.72916668653 -4.4236187825e-15 
-11.44593292 -1.2546889518 -3.6152250855e-15 -11.444450378 -1.6319445372 -3.6148821774e-15 -3.4461800101 -1.1918130209 -1.7649023976e-15 
-7.4444503784 -1.6319445372 -2.6896922578e-15 -3.4444503784 -1.6319445372 -1.7645023382e-15 0.55369644483 -1.1603750555 -8.3974105367e-16 
0.55554962158 -1.6319445372 -8.3931241855e-16 -7.4460564649 -1.2232509864 -2.6900637416e-15 -0.58333206177 -0.72916668653 -1.1027328818e-15 
-4.5833320618 -0.72916668653 -2.0279228014e-15 -6.5833320618 -0.72916668653 -2.4905177613e-15 -5.4461182375 -1.2075320036 -2.2274830696e-15 
-2.5833320618 -0.72916668653 -1.5653278416e-15 -3.5833320618 -0.72916668653 -1.7966253215e-15 0.55369644483 -1.1603750555 -8.3974105367e-16 
-1.4462417826 -1.1760940382 -1.3023217256e-15 3.4166679382 -0.72916668653 -1.775429622e-16 7.4189136275 1.1934738306 7.4816637968e-16 
55.138893127 -0.45138889551 1.1805757178e-14 -60.416667938 0.45138889551 -1.3853694803e-14 -61.111114502 -0.45138889551 -1.4034395729e-14 
-61.111114502 -0.45138889551 -1.4034395729e-14 -60.416667938 0.45138889551 -1.3853694803e-14 -60.416667938 27.083335876 -1.3076701911e-14 
-61.111114502 -0.45138889551 -1.4034395729e-14 -60.416667938 27.083335876 -1.3076701911e-14 -61.111114502 29.861114502 -1.3150021797e-14 
-61.111114502 29.861114502 -1.3150021797e-14 -60.416667938 27.083335876 -1.3076701911e-14 -58.333332062 29.861114502 -1.2532573898e-14 
-58.333332062 29.861114502 -1.2532573898e-14 -60.416667938 27.083335876 -1.3076701911e-14 -58.333332062 27.083335876 -1.2613616198e-14 
55.138893127 -0.45138889551 1.1805757178e-14 55.138893127 0.45138889551 1.1832095917e-14 -60.416667938 0.45138889551 -1.3853694803e-14 
50.138889313 -27.083335876 1.0661321645e-14 49.097225189 -27.083335876 1.0480621565e-14 50.138889313 -29.861114502 1.0661321645e-14 
50.138889313 -29.861114502 1.0661321645e-14 49.097225189 -27.083335876 1.0480621565e-14 48.402778625 -27.083335876 1.0360154184e-14 
50.138889313 -29.861114502 1.0661321645e-14 48.402778625 -27.083335876 1.0360154184e-14 47.361114502 -29.861114502 1.0179454104e-14 
47.361114502 -29.861114502 1.0179454104e-14 48.402778625 -27.083335876 1.0360154184e-14 47.361114502 -27.083335876 1.0179454104e-14 
48.402778625 -27.083335876 1.0360154184e-14 49.097225189 -27.083335876 1.0480621565e-14 48.402778625 -10.277778625 1.0360154184e-14 
48.402778625 -10.277778625 1.0360154184e-14 49.097225189 -27.083335876 1.0480621565e-14 49.097225189 -9.5833339691 1.0480621565e-14 
48.402778625 -10.277778625 1.0360154184e-14 49.097225189 -9.5833339691 1.0480621565e-14 6.4583334923 -9.5833339691 3.0839464228e-15 
6.4583334923 -3.2986111641 3.0839464228e-15 5.7638888359 -3.2986111641 2.9634793721e-15 6.4583334923 -9.5833339691 3.0839464228e-15 
6.4583334923 -9.5833339691 3.0839464228e-15 5.7638888359 -3.2986111641 2.9634793721e-15 5.7638888359 -10.277778625 2.9634793721e-15 
6.4583334923 -9.5833339691 3.0839464228e-15 5.7638888359 -10.277778625 2.9634793721e-15 48.402778625 -10.277778625 1.0360154184e-14 
7.5000004768 -3.2986111641 3.2646469988e-15 7.5000004768 -1.9097223282 3.2646469988e-15 6.4583334923 -3.2986111641 3.0839464228e-15 
6.4583334923 -3.2986111641 3.0839464228e-15 7.5000004768 -1.9097223282 3.2646469988e-15 4.7222223282 -1.9097223282 2.7827788787e-15 
6.4583334923 -3.2986111641 3.0839464228e-15 4.7222223282 -1.9097223282 2.7827788787e-15 5.7638888359 -3.2986111641 2.9634793721e-15 
5.7638888359 -3.2986111641 2.9634793721e-15 4.7222223282 -1.9097223282 2.7827788787e-15 4.7222223282 -3.2986111641 2.7827788787e-15 
33.097225189 -9.5833339691 7.7050615644e-15 21.763888836 -10.277778625 5.7390393731e-15 23.750001907 -27.083335876 4.8186764163e-15 
23.750001907 -29.861114502 4.8186764163e-15 24.791667938 -27.083335876 5.0596102794e-15 24.791667938 -27.083335876 5.0596102794e-15 
23.750001907 -29.861114502 4.8186764163e-15 26.527778625 -29.861114502 5.4611668651e-15 24.791667938 -27.083335876 5.0596102794e-15 
26.527778625 -29.861114502 5.4611668651e-15 25.486112595 -27.083335876 5.2202330019e-15 25.486112595 -27.083335876 5.2202330019e-15 
26.527778625 -29.861114502 5.4611668651e-15 26.527778625 -27.083335876 5.4611668651e-15 24.791667938 -27.083335876 5.0596102794e-15 
25.486112595 -27.083335876 5.2202330019e-15 24.791667938 -19.305555344 5.0596102794e-15 24.791667938 -19.305555344 5.0596102794e-15 
25.486112595 -27.083335876 5.2202330019e-15 25.486112595 -18.611112595 5.2202330019e-15 24.791667938 -19.305555344 5.0596102794e-15 
[...]
CELL_DATA 1607
FIELD FieldData 4
electrode_index 1 1607 int
0 0 0 0 0 0 0 0 0 
0 0 0 0 0 0 0 0 0 
0 0 0 0 0 0 0 0 0 
0 0 0 0 0 0 0 0 0 
0 0 0 0 0 0 0 0 0 
0 0 0 0 0 0 0 0 0 
0 0 0 0 0 0 0 0 0 
0 0 0 0 0 0 0 0 0 
0 0 0 0 0 0 0 0 0 
0 0 0 0 0 0 0 0 0 
0 0 0 0 0 0 0 0 0 
0 0 0 0 0 0 0 0 0 
0 0 0 0 0 0 0 0 0 
0 0 0 0 0 0 0 0 1 
1 1 1 1 1 2 2 2 2 
2 2 2 2 2 2 2 2 2 
2 2 2 3 3 3 3 3 3 
3 3 3 3 3 3 3 3 3 
3 4 4 4 4 4 4 4 4 
4 4 4 4 4 4 5 5 5 
5 5 5 5 5 5 5 5 5 
5 5 6 6 6 6 6 6 6 
6 6 6 6 6 6 6 7 7 
7 7 7 7 7 7 7 7 7 
7 7 7 7 7 7 7 8 8 
8 8 8 8 8 8 8 8 8 
8 8 8 8 8 8 8 8 8 
8 8 8 9 9 9 9 9 9 
9 9 9 9 9 9 9 9 9 
9 9 9 9 10 10 10 10 10 
10 10 10 10 10 10 10 10 10 
10 10 10 10 10 10 10 10 11 
11 11 11 11 11 11 11 11 11 
11 11 11 11 11 11 11 11 11 
11 11 11 11 11 11 11 11 11 
11 11 12 12 12 12 12 12 12 
12 12 12 12 12 12 12 12 12 
12 12 12 12 12 12 12 12 12 
12 12 12 12 12 12 12 12 12 
12 12 12 12 12 12 12 12 12 
12 12 12 12 12 12 12 12 12 
12 12 12 12 12 12 12 12 12 
12 12 12 12 12 12 12 12 12 
12 12 12 12 12 12 12 12 12 
12 12 12 12 12 12 12 12 12 
12 12 12 12 12 12 12 12 12 
12 12 12 12 12 12 12 12 12 
12 12 13 13 13 13 13 13 13 
13 13 13 13 13 13 13 13 13 
13 13 13 13 13 13 13 13 13 
13 13 13 13 13 13 13 13 13 
13 13 13 13 13 13 13 13 13 
13 13 13 13 13 13 13 13 13 
13 13 13 13 13 13 13 13 13 
13 13 13 13 13 13 13 13 13 
13 13 13 13 13 13 13 13 13 
13 13 13 13 13 13 13 13 13 
13 13 13 13 13 13 13 13 13 
13 13 13 13 13 13 13 13 13 
13 13 13 13 13 13 13 13 13 
13 13 13 13 13 13 13 13 13 
13 13 13 13 13 13 13 13 13 
13 13 13 13 13 13 13 13 13 
13 13 13 13 13 13 13 13 13 
13 13 13 13 13 13 13 13 13 
13 13 13 13 13 13 13 13 13 
13 13 13 13 13 13 13 13 13 
13 13 13 13 13 13 13 13 13 
13 13 13 13 13 13 13 13 13 
13 13 13 13 13 13 13 13 13 
13 13 13 13 13 13 13 13 13 
13 13 13 13 13 13 13 13 13 
13 13 13 13 13 13 13 13 13 
13 13 13 13 13 13 13 13 13 
13 13 13 13 13 13 13 13 13 
13 13 13 13 13 13 13 13 13 
13 13 13 13 13 13 13 13 13 
13 13 13 13 13 13 13 13 13 
13 13 13 13 13 13 13 13 13 
13 13 13 13 13 13 13 13 13 
13 13 13 13 13 13 13 13 13 
13 13 13 13 13 13 13 13 13 
13 13 13 13 13 13 13 13 13 
13 13 13 13 13 13 13 13 13 
13 13 13 13 13 13 13 13 13 
13 13 13 13 13 13 13 13 13 
13 13 13 13 13 13 13 13 13 
13 13 13 13 13 13 13 13 13 
13 13 13 13 13 13 13 13 13 
13 13 13 13 13 13 13 13 13 
13 13 13 13 13 13 13 13 13 
13 13 13 13 13 13 13 13 13 
13 13 13 13 13 13 13 13 13 
13 13 13 13 13 13 13 13 13 
13 13 13 13 13 13 13 13 13 
13 13 13 13 13 13 13 13 13 
13 13 13 13 13 13 13 13 13 
13 13 13 13 13 13 13 13 13 
13 13 13 13 13 13 13 13 13 
13 13 13 13 13 13 13 13 13 
13 13 13 13 13 13 13 13 13 
13 13 13 13 13 13 13 13 13 
13 13 13 13 13 13 13 13 13 
13 13 13 13 13 13 13 13 13 
13 13 13 13 13 13 13 13 13 
13 13 13 13 13 13 13 13 13 
13 13 13 13 13 13 13 13 13 
13 13 13 13 13 13 13 13 13 
13 13 13 13 13 13 13 13 13 
13 13 13 13 13 13 13 13 13 
13 13 13 13 13 13 13 13 13 
13 13 13 13 13 13 13 13 13 
13 13 13 13 13 13 13 13 13 
13 13 13 13 13 13 13 13 13 
13 13 13 13 13 13 13 13 13 
13 13 13 13 13 13 13 13 13 
13 13 13 13 13 13 13 13 13 
13 13 13 13 13 13 13 13 13 
13 13 13 13 13 13 13 13 13 
13 13 13 13 13 13 13 13 13 
13 13 13 13 13 13 13 13 13 
13 13 13 13 13 13 13 13 13 
13 13 13 13 13 13 13 13 13 
13 13 13 13 13 13 13 13 13 
13 13 13 13 13 13 13 13 13 
13 13 13 13 13 13 13 13 13 
13 13 13 13 13 13 13 13 13 
13 13 13 13 13 13 13 13 13 
13 13 13 13 13 13 13 13 13 
13 13 13 13 13 13 13 13 13 
13 13 13 13 13 13 13 13 13 
13 13 13 13 13 13 13 13 13 
13 13 13 13 13 13 13 13 13 
13 13 13 13 13 13 13 13 13 
13 13 13 14 14 14 14 14 14 
14 14 14 14 14 14 14 14 14 
14 14 14 14 14 14 14 14 14 
14 14 14 14 14 14 14 14 14 
14 14 14 14 14 14 14 14 14 
14 14 14 14 14 14 14 14 14 
14 14 14 14 14 14 14 14 14 
14 14 14 14 14 14 14 14 14 
14 14 14 14 14 14 14 14 14 
14 14 14 14 14 14 14 14 14 
14 14 14 14 14 14 14 14 14 
14 14 14 14 14 14 14 14 14 
14 14 14 14 14 14 14 14 14 
14 14 14 14 14 14 14 14 14 
14 14 14 14 14 14 14 14 14 
14 14 14 14 14 14 14 14 14 
14 14 14 14 14 14 14 14 14 
14 14 14 14 14 14 14 14 14 
14 14 14 14 14 14 14 14 14 
14 14 14 14 14 14 14 14 14 
14 14 14 14 14 14 14 14 14 
14 14 14 14 14 14 14 14 14 
14 14 14 14 14 14 14 14 14 
14 14 14 14 14 14 14 14 14 
14 14 14 14 14 14 14 14 14 
14 14 14 14 14 14 14 14 14 
14 14 14 14 14 14 14 14 14 
14 14 14 14 14 14 14 14 14 
14 14 14 14 14 14 14 14 14 
14 14 14 14 14 14 14 14 14 
14 14 14 14 14 15 15 15 15 
15 15 15 15 15 15 15 15 15 
15 15 15 16 16 16 16 16 16 
16 16 16 16 16 16 16 16 16 
16 17 17 17 17 17 17 17 17 
17 17 17 17 17 17 17 17 17 
17 17 17 18 18 18 18 18 18 
18 18 18 18 18 18 18 18 18 
18 19 19 19 19 19 19 19 19 
19 19 19 19 19 19 19 19 20 
20 20 20 20 20 20 20 20 20 
20 20 20 20 21 21 21 21 21 
21 21 21 21 21 21 21 21 21 
22 22 22 22 22 22 22 22 22 
22 22 22 22 22 
area 1 1607 double
1.4467556719 3.8580204234 1.3503127113 1.0609520401 3.7977547033 3.7977547033 0.43885168332 0.47019564926 2.3292812346 
5.5459077196 6.2768623818 6.7847195624 5.7395363843 7.222222805 4.1405663041 0.86241673788 5.7395363843 5.6230296573 
5.6230296573 0.23353694767 0.61862724575 5.5002940616 7.0640441685 5.4992306004 0.47161076061 8.3993432567 9.9984248707 
0.7386356775 6.9207491861 8.8888888359 0.60026750686 4.9526095363 5.2927925569 5.9366793612 6.2768623818 0.49408429983 
6.3963264559 5.7797698811 1.2381523841 2.4763626967 1.0327054616 2.1081340492 5.0405550724 1.0046939687 2.0120608611 
5.623141191 1.0060304305 1.0060304305 0.37726529564 0.44015190885 0.44015190885 0.44015190885 1.0540670246 1.3060075582 
1.2381813483 0.5997440906 1.0328145786 0.54194830005 1.670540632 0.496214872 0.58669843881 0.45621270572 0.17652938434 
0.25712711077 0.44779515452 0.70670493766 0.26144149143 2.4763047681 4.308722732 0.16270837612 1.2381813484 2.4763626967 
0.47156948169 4.8235446172 1.0060148943 3.1981632279 1.509092256 2.0120608611 0.24766069902 0.24766069902 4.3335333442 
0.65818934118 0.12621432765 0.12621432765 0.5997440906 3.7142833665 1.8572285761 0.15923042379 0.11738669029 0.053862212305 
0.248107436 0.16000866513 0.24144040829 0.054449027823 0.33335138569 0.30668327483 0.16000866513 2.1334488684 0.83242107887 
0.44287865029 1.1607678601 0.60026750686 1.1231504897 1.0825453801 2.6100959101 1.670540632 0.54195347443 1.0816768609 
0.81791730951 1.5090922561 0.47188277637 0.37726529564 0.81713463411 0.44015190885 0.47161076061 0.47188277637 0.81738710159 
0.23132316719 0.48728846441 0.47836531711 0.45585049897 0.23132316719 0.44013151624 0.44692735166 0.79954080699 52.473962547 
9.2472320331 10.525206911 3.8580323443 2.8935229337 52.16049708 1.4467561686 0.96450941062 3.8580217479 1.4467561686 
5.8352807422 6.0764080948 9.2496179953 2.1821960844 2.4233227747 9.249617333 0.72337982279 1.9290125296 0.4822532152 
0.72337949166 5.555557251 5.555557251 1.4467588177 3.858024397 0.96450676153 1.4467588177 2.7006190647 2.9417450928 
5.1504509405 5.3168423971 5.5579684252 5.1504509405 0.24112627646 0.96450609925 0.4822532152 0.2411266076 5.5555419922 
5.5555419922 0.72337961583 1.9290128608 0.48225329798 0.72337994697 7.1252917471 7.3664184375 7.2820241952 0.81983101221 
1.0609577026 7.2820241952 1.4467601423 3.8580257216 0.96450676153 1.4467588177 0.72337994697 0.48225329798 1.9290128608 
0.72337961583 6.498362617 6.7394893074 7.8607276891 1.4467641159 1.6878914686 7.8607283514 1.4467574932 3.8580230725 
0.96450941062 1.4467561686 1.4467614668 3.8580270461 0.96450676153 1.4467588177 2.0736892724 2.3148159628 8.6805586186 
5.8714314711 6.1125580787 8.6805585358 0.24112664899 0.96450643039 0.48225313241 0.24112664899 0.7233797814 0.48225313241 
0.47306962038 0.30671307436 5.2445025563 5.4856285016 9.5003632888 2.7006116473 2.9417370131 9.5003627093 1.4467614668 
3.8580270461 0.96450411243 1.4467614668 0.47306962038 0.4591765486 0.52369690585 0.41666670704 0.7233797814 0.48225304963 
0.26110092318 0.7233797814 1.8435752246 4.8586987527 4.5235232426 3.3275390554 3.5686644213 4.5235227045 1.4467614668 
3.858024397 0.96450411243 1.4467588177 5.5555419922 5.5555419922 0.30864201882 0.23606640786 0.34722226858 0.2745524696 
0.27441715045 0.22701137395 2.7739976241 0.24112664899 0.38429542867 0.48225313241 0.24112648342 2.6042840086 4.2317706719 
5.3433592169 3.9544664636 4.1955921606 5.3433586374 1.4467614668 3.8580270461 0.96450411243 1.4467614668 5.5555496216 
5.5555496216 0.39183068043 0.18838015572 1.3863603869 1.4467614668 3.8580270461 0.96450411243 1.4467614668 4.5813938718 
4.8225198999 6.4043226845 0.98741349578 3.6048429947 6.4043233468 0.24112664899 0.38429542867 0.48225329798 0.24112631785 
5.555557251 5.555557251 0.68758409927 0.40948819686 0.46235027367 0.39183068043 0.18838015572 0.81688023872 1.4467561686 
3.8580217479 0.96450941062 1.4467561686 5.2083498902 5.4494772428 4.2205739069 0.33697446537 1.5890245519 2.895509749 
0.24112598672 0.38429548041 0.48225329798 0.24112664899 5.555557251 1.9925556427 0.52141397308 0.52141397308 3.2447065235 
0.33324709361 0.33697446537 1.3888893127 1.3888893127 1.3888893127 0.39183075287 0.1883797004 0.34338160186 0.34338160186 
2.1102867662 3.2447068114 1.4467614668 3.8580270461 0.96450411243 1.4467614668 5.8352486881 6.0763747162 2.1075771352 
0.12067149256 0.30479035869 1.0018209627 0.013474171548 0.052766438028 0.2044754526 0.15691286545 1.9462961545 0.97314807723 
0.00699783751 0.011139217463 0.015531874345 0.13332757409 0.009645040193 0.021382584837 0.12012909309 0.060455532446 0.030116239121 
0.060604848642 0.22782996091 0.28226276014 0.64247700193 0.061526748412 0.015070575956 0.05116248408 0.23547501356 0.17690240186 
2.2296273669 1.2760947633 0.55744913028 0.0076940823809 0.0076940823809 0.026675110605 0.0075164120829 0.003965438693 0.003965438693 
0.019290080386 0.015531874345 0.012633394732 0.009645040193 0.013337555302 0.02021917971 0.014787571318 0.084213783543 0.14749274412 
0.090121091424 0.085711037497 0.17521105036 0.064664031662 0.093430439778 0.029536902139 0.054261322107 0.0064375049692 0.069516087386 
0.12659144411 0.136450292 0.082741488918 0.021615627048 0.058920839656 0.059483553758 0.059204196912 0.060281620855 0.051689014085 
0.090121091424 0.091550814946 0.017136672421 0.029513936341 0.12167246493 2.36203739 0.11354661755 0.12671156864 0.17031992632 
0.24398452439 0.22782996091 0.22340001471 0.39912390099 0.49471301007 0.11465650193 0.11465650193 0.74198269055 0.43595091332 
0.47492665415 0.29525467375 0.30824658736 0.69444465637 0.44894282693 0.30824658736 0.53854169306 0.42295899971 0.53854169306 
1.6368439618 0.75555118881 1.6918358997 0.83148247102 0.59633008133 0.55744913027 0.55719538612 1.053868515 1.338670947 
0.27876686011 0.27876686011 0.95908947993 1.3751782327 0.96450411243 0.9590932124 0.46055067892 0.69444274902 0.55279147515 
0.016529073299 0.0089940271904 0.028402482716 0.013474206379 0.015704384246 0.013679056826 0.0086991764701 0.22471563586 0.028478338696 
0.006997852463 0.0090028255697 0.011139247858 0.015531949342 0.0091703428657 0.010466016177 0.003732178724 0.009645066684 0.02138264623 
0.0098320949216 0.0079558530916 0.011628515201 0.0042596375095 0.59504464366 0.019627235599 0.031708308647 0.39721428678 0.62435582252 
0.020505997383 0.01014336089 0.031723259357 0.013059948968 0.0058845850413 0.031723259357 0.020046592778 0.031722530495 0.025492830757 
0.027251738517 0.01082752113 0.016529073299 0.011546005941 0.019531549247 0.01398409942 0.024750278508 0.018882472669 0.016905106624 
0.023568930301 0.025952175623 0.010293201696 0.019311758043 0.01974243221 0.009860844672 0.020803882737 0.016005413902 0.013504396915 
0.014396629826 0.016916889554 0.033716458051 0.013504396915 0.018827655908 0.022676176693 0.01028298867 0.01940389204 0.020192609804 
0.0152107568 0.010504536002 0.018054004392 0.011440234997 0.29778017826 0.0099654249081 0.32519793797 0.053056596677 0.45328330924 
0.017671167315 0.049434732846 0.017988054381 0.013261966315 0.0060763913393 0.018270331046 0.015095668897 0.008607752663 0.018930571691 
0.015936128749 0.016271599742 0.030886154349 0.0069223860773 0.0098297343807 0.011385160677 0.030674789334 0.01484819127 0.0068105524563 
0.013511951098 0.026560612177 0.015642483488 0.017067801715 0.014688514228 0.017983834421 0.017125349522 0.011816228562 0.013988322562 
0.016546955752 0.023382700006 0.023051424683 0.0082629586005 0.33361026156 0.031060092245 0.033050076402 0.043709417861 0.10219346877 
0.033822226276 0.026523909451 0.024305539131 0.033822226276 0.024025175408 0.024544879376 0.029872226348 0.12944130968 0.039007733548 
0.031675093916 0.036203592082 0.0332185554 0.041532232909 0.021244334013 0.033245249138 0.053974572471 0.024335499132 0.097362390643 
0.015615459581 0.023577745274 0.015615459581 0.034951872394 0.025742300002 0.037032255585 0.033050076402 0.027962282482 0.024025175408 
0.02423811844 0.042607914753 0.067616348062 0.064442898116 0.031034166593 0.06021632816 0.031329364034 0.03810383841 0.067180959679 
0.070211398012 0.033335025652 0.036968074263 0.028517318256 0.040330612616 0.048926740385 0.057186453433 0.016113636646 0.020206132247 
0.027406994169 0.021078176449 0.019942937168 0.02201053096 0.018733317063 0.017038601744 0.031226492575 0.033007784221 0.018202469294 
0.023163431245 0.015234666609 0.038160452024 0.009217860151 0.009217860151 0.10108565421 0.075299893862 0.044064353203 0.060704546026 
0.087193225626 0.094838534885 0.036342206319 0.053498501622 0.041601012458 0.092344363129 0.055165203629 0.091591088752 0.098875077843 
0.057697097819 0.092430793713 0.12865068607 0.1285018171 0.085831271691 0.099119644818 0.11235781793 0.026658069301 0.12135122783 
0.12944130968 0.15334576153 0.16322379172 0.064734775345 0.25891650902 0.11877265588 0.12773607264 0.11368477182 0.13837984729 
0.094117501562 0.13852871625 0.1088946257 0.12356280201 0.36284423938 0.33373042513 0.01623943569 0.23832746407 0.48473233409 
0.10380672459 0.12850179599 0.1879188542 0.1531968674 0.024505674466 0.5770217804 0.12356278171 0.11384109032 0.024492367717 
0.060556486189 0.11368475315 0.14825785312 0.2655511205 0.43028502125 0.29958069103 0.54529319485 0.0076941028824 0.0076941028824 
0.026675186183 0.010293201696 0.0033661610417 0.0056844149358 0.0037896099572 0.0081919786044 0.0039654498999 0.0039654498999 0.0019235205952 
0.0033661610417 0.0019235205952 0.0060181646999 0.0065470163715 0.010228903796 0.0051144518982 0.0063788104791 0.0086061371736 0.0061707579757 
0.0069483849031 0.0047277671527 0.0068368092872 0.0043760620397 0.024130712146 0.018531028502 0.023181459435 0.029581960113 0.0084072371842 
0.010278961449 0.0025192659804 0.0086991764701 0.009645040193 0.0086991764701 0.013873510035 0.017246450823 0.0075163680522 0.009645066684 
0.0077659746709 0.012633429033 0.009645066684 0.013337593092 0.009645066684 0.0077659746709 0.020219238186 0.01478761053 0.019531549247 
0.027064647924 0.015580780976 0.0079103053407 0.016068854071 0.026370556192 0.0050809679843 0.020671040498 0.013679056826 0.014586333112 
0.012699851011 0.012383232367 0.019911791819 0.013753265297 0.0060780607873 0.012823095074 0.018760974781 0.023114311224 0.02040698517 
0.012159532523 0.015002640633 0.013160194788 0.011979890218 0.00067785471437 0.01020573935 0.01273147667 0.0095501688246 0.010296499551 
0.014520256242 0.012953690501 0.010815594669 0.0071724822857 0.013590477661 0.02015419518 0.014713897447 0.027123346605 0.011141324396 
0.0059741010927 0.018296170575 0.016354476814 0.036516695052 0.015002640633 0.0056115612138 0.02017959679 0.0056115612138 0.011068596548 
0.011068596548 0.010018530452 0.013263685233 0.0012316442084 0.0099486471485 0.011062525432 0.010900018782 0.010273014586 0.011695529292 
0.01093906653 0.011166562722 0.010435222983 0.027292890963 0.02092768116 0.018608472535 0.019783830433 0.010184561644 0.013450332362 
0.019512766756 0.013332775455 0.0091243509709 0.017868501133 0.0096204672632 0.021314572029 0.011973615875 0.028687223691 0.015989367237 
0.0060763913393 0.0060763913393 0.0066309831577 0.0066309831577 0.0089940271904 0.0060763913393 0.019117135107 0.018930571691 0.00083854219702 
0.015331953253 0.0090725357496 0.0091243509709 0.0068105524563 0.0056807068762 0.0068105524563 0.014262648568 0.015917809022 0.015813592508 
0.016849907961 0.010184561644 0.00488771629 0.014049844132 0.01998226702 0.016235790076 0.0098932599589 0.038160452024 0.020367482159 
0.025476738386 0.020132691657 0.020721323882 0.0084771058432 0.0149715003 0.016007361318 0.019397667792 0.020520311724 0.0088050070972 
0.013639799295 0.020367482159 0.0066972176709 0.097085218467 0.1293057688 0.060794741636 0.058653093449 0.12865910293 0.098195343432 
0.0031437214424 0.0033875913245 0.0088067473256 0.012059317893 0.00041808563858 0.014129609781 0.023434579798 0.023918386923 0.026560612177 
0.015072266645 0.011696751861 0.01938287959 0.012637215857 0.0076587052756 0.012728888752 0.16986206551 0.034392383718 0.052675010214 
0.11929588233 0.09407038448 0.015720997892 0.015487559083 0.058653093449 0.050584748773 0.023181459435 0.031723255662 0.0086558841913 
0.017765068736 0.010850612133 0.012026179738 0.010757109619 0.012105085168 0.0085713879293 0.29840286548 0.29840286548 0.49850284417 
0.27240516952 0.016811336376 0.015936128749 0.016811336376 0.0080902988259 0.026023895123 0.028393796261 0.14930526208 0.14930526208 
0.039779002001 0.022027078288 0.018159035051 0.017791408883 0.0015038641119 0.0084771058432 0.017330965779 0.014536912879 0.01896666639 
0.017385035156 0.034177697799 0.017692566689 0.013554588673 0.015989377046 0.018154007648 0.012414524571 0.015095668897 0.01863710646 
0.040356464484 0.031235975423 0.00027154433765 0.013658307084 0.018419241455 0.010422694478 0.0095462091978 0.015171133307 0.01277970129 
0.0095440886835 0.0086654828893 0.019005964209 0.012308669117 0.0053648946757 0.012319683661 0.0044329891444 0.00044414354743 0.016460262232 
0.034947685614 0.024305539131 0.02613760339 0.028402482716 0.015615459581 0.030152509361 0.015615459581 0.028901133316 0.027226985448 
0.0033163983745 0.033412906921 0.0033163983745 0.039286628535 0.02181228899 0.038734109699 0.038071093251 0.032011962839 0.023577745274 
0.044480821285 0.023577745274 0.027505385209 0.023577745274 0.026523909451 0.026523909451 0.026523909451 0.035976055063 0.039248646761 
0.024305539131 0.02073378461 0.024025175408 0.022492119962 0.035910172731 0.011131669099 0.021019258355 0.022735214415 0.022527459275 
0.044349020455 0.029093339149 0.039708610822 0.021019258355 0.022025515967 0.022527459275 0.02181228899 0.024544879376 0.033592347899 
0.029291500772 0.039039779995 0.024437568652 0.040943517064 0.040622482704 0.042249840271 0.039809302566 0.029359582851 0.032403881945 
0.029047967758 0.035715913879 0.037558225818 0.027950810315 0.04084614466 0.034662619647 0.022499410105 0.029432799835 0.017974736537 
0.022499410105 0.035441385847 0.02160495397 0.041841818163 0.036625664085 0.03507979263 0.058282006269 0.023420429585 0.041355970094 
0.032710613836 0.027295902765 0.029698535995 0.034048987913 0.040780814032 0.026872650149 0.04876636532 0.045523942958 0.059158134434 
0.0083865911601 0.056224704376 0.018758577293 0.095660912117 0.15828477662 0.020997070385 0.028608103006 0.021713023906 0.027192865377 
0.017934538837 0.068388708334 0.040330612616 0.12611561882 0.039990382768 0.16816280681 0.066274711278 0.1947247683 0.065565083747 
0.20833659652 0.15813588168 0.021830660965 0.024544879376 0.064364507904 0.03810383841 0.041459706777 0.039221892086 0.047903719882 
0.089789670584 0.14825787747 0.080968970491 0.013099073198 0.063945077905 0.087181960053 0.084310056037 0.010096304902 0.064690444505 
0.0097409823162 0.0086384260083 0.0051790324449 0.008737979083 0.008737979083 0.0031553415324 0.0054333032763 0.0091956464931 0.0076882591772 
0.013090120668 0.0085360656488 0.005048152451 0.005048152451 0.0082117188272 0.009603477453 0.014834647209 0.0036115099804 0.005048152451 
0.0072777486902 0.0054333032763 0.0072889824249 0.0063101905638 0.0063101905638 0.009603477453 0.014834647209 0.041846662201 0.080792319988 