# vtk DataFile Version 5.1
vtk output
ASCII
DATASET STRUCTURED_POINTS
DIMENSIONS 20 20 40
SPACING 0.05 0.05 0.05
ORIGIN 3.225 -0.475 0.525
POINT_DATA 16000
FIELD FieldData 1
potential 1 16000 double
0.00037061138192 0.00036885563511 0.00036712616188 0.00036541481511 0.00036180080532 0.00036015949577 0.00035852140982 0.00035688341 0.00035524362209 
0.00035360403335 0.00035196685833 0.00035033680704 0.00034871904747 0.00034711866013 0.00034553834669 0.00034398016113 0.00034244355868 0.00034092801246 
0.00033942903841 0.00033794417232 0.0003707888592 0.00036903596856 0.00036730924759 0.00036560037199 0.00036186315394 0.00036022009778 0.00035858040078 
0.00035694090058 0.00035529961797 0.00035365760889 0.00035201857364 0.00035038642921 0.00034876638242 0.00034716308146 0.00034558059646 0.00034402036655 
0.00034248324825 0.00034096689992 0.00033946846582 0.00033798406123 0.00037086062244 0.00036911009338 0.00036738464456 0.00036567742681 0.0003618095307 
0.00036016282332 0.00035851974936 0.00035687668137 0.00035523261267 0.00035358773964 0.00035194564531 0.00035031059334 0.00034868803714 0.00034708269938 
0.00034549827603 0.00034393710276 0.00034239922282 0.00034088292446 0.00033938543072 0.0003379024736 0.00037089512008 0.00036914510274 0.00036741929751 
0.00036571162015 0.00036170676028 0.00036005404354 0.00035840539611 0.0003567573318 0.00035510870954 0.00035345973105 0.00035181407818 0.0003501758985 
0.00034855042071 0.00034694249077 0.00034535641053 0.00034379422328 0.00034225515852 0.00034073931652 0.00033924297368 0.00033776173469 0.00037095766206 
0.00036920658948 0.00036747843188 0.00036576833696 0.000361619654 0.00035995867493 0.00035830256346 0.00035664776247 0.00035499280441 0.0003533390943 
0.0003516888503 0.00035004708946 0.00034841865452 0.00034680812484 0.00034521959733 0.00034365563013 0.00034211627097 0.0003405999494 0.00033910384182 
0.00033762400283 0.00037110415887 0.00036934985223 0.0003676188338 0.00036590468714 0.00036160651911 0.00035993516328 0.00035826936502 0.00035660598106 
0.0003549441322 0.0003532844534 0.00035162923831 0.00034998337782 0.00034835125096 0.00034673762521 0.0003451464543 0.00034358048132 0.0003420394677 
0.00034052183303 0.0003390256631 0.00033754602177 0.00037137938852 0.00036962159958 0.00036788572974 0.00036616696103 0.00036171430553 0.0003600310073 
0.00035835449363 0.00035668216137 0.00035501236109 0.00035334569204 0.0003516853169 0.0003500342553 0.0003483980628 0.00034678077164 0.0003451861907 
0.0003436171739 0.00034207305048 0.00034055350294 0.00033905526934 0.00033757442684 0.00037181698202 0.0003700551369 0.00036831414087 0.00036659034546 
0.00036197891342 0.00036028347412 0.00035859558678 0.00035691314088 0.00035523439943 0.00035356049555 0.00035189335617 0.00035023693605 0.00034859563761 
0.00034697395246 0.00034537509155 0.00034380150807 0.00034225335726 0.0003407298903 0.00033922807107 0.00033774519236 0.00037243968801 0.00037067356157 
0.00036892779942 0.00036719874164 0.00036242624569 0.00036071773169 0.00035901812941 0.0003573250892 0.00035563690663 0.00035395440337 0.00035228008967 
0.00035061706422 0.00034896979872 0.00034734212632 0.00034573749574 0.00034415836371 0.00034260429301 0.00034107526617 0.00033956893528 0.00033808208217 
0.00037326155178 0.00037149126622 0.00036974128372 0.00036800794564 0.00036307112217 0.00036135018723 0.00035963903808 0.00035793440777 0.00035623608909 
0.00035454423057 0.00035286156049 0.00035119065085 0.00034953523325 0.00034790027456 0.00034628839146 0.00034470123198 0.00034314009254 0.00034160435851 
0.00034009209255 0.0003385994807 0.00037428926318 0.00037251559993 0.00037076153525 0.00036902451756 0.00036392230056 0.00036218895789 0.00036046553975 
0.00035874917918 0.00035703974593 0.00035533754713 0.00035364480057 0.00035196400472 0.00035029956566 0.00034865463402 0.00034703271281 0.00034543697994 
0.00034386742054 0.00034232342507 0.00034080350313 0.00033930497871 0.00037552448584 0.00037374670041 0.00037198906332 0.00037024945348 0.00036498050258 
0.00036323419027 0.00036149786635 0.00035976954037 0.00035804816372 0.00035633413762 0.00035462921778 0.00035293692363 0.00035126073393 0.00034960386121 
0.00034797067533 0.00034636450148 0.00034478452987 0.00034323133287 0.00034170326803 0.00034019793987 0.00037695850128 0.00037517716904 0.00037341713366 
0.00037167416166 0.00036623752924 0.00036447820539 0.00036272934742 0.000360987856 0.00035925334403 0.00035752576593 0.00035580713064 0.00035410089423 
0.0003524109739 0.00035074165794 0.00034909519859 0.00034747644617 0.00034588507457 0.00034432183234 0.0003427852361 0.00034127231432 0.00037727492663 
0.00037539532333 0.00037354273178 0.00037171623117 0.00036843856725 0.0003667196045 0.00036500639707 0.00036329685539 0.00036158987327 0.00035988642831 
0.00035818818035 0.00035649918591 0.00035482391722 0.00035316674887 0.00035153125414 0.0003499210552 0.00034833815589 0.00034678181517 0.00034525183923 
0.00034374547049 0.00037898414479 0.00037710407682 0.00037525230108 0.00037342641696 0.00037000027121 0.00036826717076 0.00036654006969 0.00036481607527 
0.00036309425195 0.00036137526042 0.00035966194563 0.00035795721267 0.00035626665927 0.000354594599 0.00035294506629 0.00035132175471 0.00034972677642 
0.00034816005921 0.00034662078885 0.00034510708572 0.00038081169303 0.00037893036575 0.00037707863476 0.00037525263119 0.00037167972465 0.0003699328228 
0.00036819138656 0.00036645283413 0.0003647161993 0.00036298206365 0.00036125318448 0.00035953349059 0.00035782760816 0.00035614093952 0.00035447743594 
0.00035284196335 0.00035123464476 0.00034965732251 0.00034810885054 0.00034658669502 0.00038270489685 0.00038082185955 0.00037896894688 0.00037714300796 
0.00037342659384 0.00037166517813 0.00036990988111 0.00036815725562 0.00036640651915 0.00036465820913 0.00036291470738 0.00036118066793 0.00035946115202 
0.00035776100861 0.00035608520199 0.00035443745318 0.00035281960428 0.00035123158791 0.0003496733308 0.00034814224266 0.00038459992384 0.00038271439282 
0.00038085950476 0.00037903441591 0.00037517699765 0.00037340217326 0.00037163370633 0.00036986812206 0.00036810441452 0.00036634347063 0.00036458783204 
0.0003628417763 0.00036111074278 0.00035939945219 0.00035771315265 0.00035605439684 0.00035442635164 0.00035282898549 0.00035126110486 0.00034972087527 
0.00038642320166 0.00038453542772 0.00038267959931 0.00038085442121 0.00037686173974 0.0003750742855 0.00037329396068 0.00037151682369 0.00036974255737 
0.00036797109713 0.00036620578518 0.00036445088113 0.00036271105066 0.00036099188432 0.00035929698488 0.00035763040857 0.00035599379896 0.00035438742743 
0.00035281067476 0.00035126069776 0.00038810160218 0.00038621216629 0.0003843566238 0.00038253227942 0.00037840924441 0.00037661107323 0.00037482063817 
0.00037303481183 0.00037125206856 0.0003694735143 0.00036770192958 0.00036594121777 0.00036419625882 0.00036247140248 0.00036077116136 0.00035909846458 
0.00035745466244 0.00035584066842 0.00035425525865 0.00035269595761 0.00040532271634 0.00040334206035 0.00040138701806 0.00039945123138 0.00039569317092 
0.00039383196075 0.0003919806457 0.00039013722096 0.00038830014632 0.00038646975769 0.00038464885696 0.00038283892015 0.00038104407428 0.0003792669336 
0.00037750976151 0.0003757738163 0.00037405828223 0.00037236301437 0.00037068532422 0.0003690228742 0.00040577808019 0.00040379786331 0.00040184302624 
0.00039990761232 0.0003960214896 0.00039415581217 0.0003923006263 0.00039045322452 0.00038861191032 0.00038677785397 0.00038495268412 0.00038313856742 
0.00038133920423 0.00037955821532 0.00037779720318 0.00037605742945 0.0003743394174 0.00037264146339 0.0003709618626 0.00036929774624 0.00040615417069 
0.00040417457121 0.00040221865744 0.00040028291049 0.00039626317007 0.00039439188756 0.00039253132988 0.00039067857952 0.0003888324787 0.00038699346944 
0.00038516371937 0.00038334544984 0.00038154193379 0.0003797567002 0.0003779919229 0.00037624944056 0.00037452863215 0.00037282876258 0.00037114747168 
0.0003694822977 0.00040650059364 0.0004045197149 0.00040256271804 0.00040062586781 0.00039646619737 0.00039458781611 0.00039272061234 0.00039086163436 
0.00038900975664 0.000387165173 0.00038532977377 0.00038350684893 0.00038169890714 0.00037990982041 0.00037814136423 0.00037639552867 0.00037467182501 
0.00037296994166 0.00037128745173 0.0003696211924 0.00040686594706 0.00040488348377 0.00040292397688 0.0004009844948 0.00039667926185 0.00039479246614 
0.00039291699717 0.00039105017264 0.00038919141775 0.00038734076663 0.00038549943709 0.00038367126438 0.00038185861888 0.00038006480032 0.00037829237414 
0.00037654321992 0.00037481661782 0.00037311231006 0.00037142771481 0.00036976070481 0.00040729410378 0.0004053085324 0.0004033463734 0.00040140324112 
0.00039694744668 0.00039505057027 0.00039316554996 0.00039129013571 0.0003894232881 0.0003875650817 0.00038571768462 0.00038388380462 0.00038206561343 
0.0003802669245 0.00037848982753 0.0003767368397 0.00037500694277 0.00037329934938 0.00037161267056 0.00036994401815 0.00040782181478 0.00040583275249 
0.00040386690169 0.0004019197818 0.00039730869056 0.00039540043579 0.0003935050295 0.00039162014769 0.00038974451845 0.00038787870379 0.00038602450849 
0.00038418334691 0.00038235952512 0.00038055539377 0.00037877336228 0.00037701536106 0.00037528090427 0.00037356979696 0.0003718797898 0.00037020809796 
0.00040847807526 0.00040648532084 0.00040451518044 0.00040256362051 0.00039779360906 0.00039587345444 0.00039396692185 0.0003920714894 0.00039018638214 
0.00038831197727 0.00038644958405 0.00038460156682 0.00038277119286 0.0003809605568 0.00037917277827 0.0003774089021 0.00037566902486 0.0003739529769 
0.0003722582115 0.00037058309021 0.00040928342422 0.00040728700228 0.00040531235111 0.00040335676026 0.00039842459038 0.00039649207874 0.00039457351391 
0.00039266737249 0.00039077185369 0.00038888761499 0.00038701665156 0.00038516052218 0.00038332213236 0.00038150450568 0.00037970954858 0.00037793908344 
0.0003761924196 0.00037447014014 0.00037277015252 0.00037109063259 0.00041025104157 0.00040825070161 0.00040627232693 0.00040431276822 0.00039921543815 
0.00039727035324 0.00039533986953 0.00039342170879 0.00039151543229 0.00038962099567 0.00038774013858 0.00038587490821 0.0003840273841 0.00038220121038 
0.00038039822833 0.00037861916385 0.00037686498423 0.00037513579879 0.00037342946131 0.0003717432336 0.00041138704008 0.00040938323375 0.00040740100798 
0.00040543799068 0.00040017365376 0.00039821587719 0.00039627278285 0.00039434251836 0.0003924243709 0.00039051884742 0.0003886272499 0.00038675132253 
0.00038489384282 0.00038305749832 0.00038124420417 0.0003794560821 0.00037769339398 0.00037595547821 0.00037424128477 0.00037254895399 0.00041269159993 
0.00041068421067 0.00040869840801 0.00040673233877 0.00040129973661 0.00039932859643 0.00039737229051 0.000395429379 0.0003934991487 0.00039158128721 
0.00038967751235 0.00038778966144 0.00038592050445 0.00038407265844 0.00038224782966 0.00038044957413 0.00037867654634 0.00037692956351 0.00037520690854 
0.00037350741559 0.00041415728381 0.00041214610442 0.00041015726133 0.00040818752928 0.00040258587841 0.0004006011085 0.0003986316545 0.00039667539159 
0.00039473188624 0.00039280071673 0.00039088351399 0.00038898263723 0.00038710044013 0.00038524022212 0.00038340331012 0.00038159282017 0.00037980883796 
0.00037805198138 0.00037632061632 0.00037461280709 0.00041441338234 0.00041228883495 0.00041019288362 0.00040812320177 0.0004047231307 0.00040277856509 
0.00040084500886 0.00039892106863 0.00039700599081 0.00039510040577 0.00039320549567 0.00039132383084 0.00038945857521 0.00038761259634 0.00038578857639 
0.00038398916519 0.00038221499678 0.00038046679774 0.00037874313348 0.00037704260986 0.00041607419162 0.00041395018257 0.00041185463294 0.00040978547752 
0.00040624175717 0.00040428277092 0.00040233542594 0.00040039730766 0.00039846804819 0.00039654803737 0.00039463906484 0.00039274310555 0.00039086412796 
0.00038900515904 0.00038716822699 0.0003853563566 0.00038357122533 0.00038181247984 0.00038007957515 0.00037837095284 0.00041782372562 0.00041569928343 
0.0004136031285 0.0004115348162 0.00040784930783 0.00040587664646 0.00040391506592 0.0004019628612 0.00040001952006 0.00039808547248 0.00039616231506 
0.00039425288369 0.00039236023954 0.00039048775209 0.00038863843995 0.00038681526407 0.00038501810125 0.00038324901967 0.00038150672914 0.00037978908098 
0.00041961929987 0.00041749346174 0.00041539761634 0.00041332917526 0.00040950554823 0.00040751869858 0.00040554331729 0.00040357773402 0.00040162109916 
0.00039967374074 0.00039773734752 0.00039581486178 0.00039390930586 0.00039202458441 0.00039016353595 0.00038832894938 0.00038652173189 0.00038474186718 
0.00038298955074 0.00038126248607 0.0004214120087 0.00041928440186 0.00041718743584 0.00041511934452 0.00041116142995 0.0004091612447 0.00040717316027 
0.00040519466729 0.00040322560863 0.00040126618233 0.00039931799094 0.00039738378301 0.00039546740738 0.00039357198993 0.00039170021735 0.00038985508312 
0.00038803767278 0.00038624839361 0.00038448617983 0.00038275001839 0.00042314707168 0.00042101814278 0.00041892084075 0.00041685382116 0.00041276518085 
0.00041075252028 0.00040875271829 0.00040676265434 0.00040478295024 0.00040281273382 0.00040085465476 0.00039891115144 0.00039698548878 0.00039508127378 
0.00039320108162 0.00039134708405 0.00038952070391 0.0003877223758 0.00038595078175 0.00038420498376 0.00042477203156 0.000422642033 0.00042054509529 
0.00041847954132 0.00041426554922 0.00041224194132 0.00041023167875 0.00040823238142 0.00040624323048 0.00040426500281 0.00040229913848 0.00040034850058 
0.00039841604255 0.00039650470614 0.0003946173659 0.00039275633986 0.00039092207608 0.00038911509765 0.00038733523365 0.00038557986179 0.00044012992965 
0.00043792870452 0.00043575345634 0.00043359858167 0.0004297029764 0.00042762646708 0.00042556563925 0.0004235185439 0.00042148411476 0.00041946223123 
0.00041745431063 0.00041546137401 0.00041348610957 0.00041152988506 0.0004095945781 0.00040767983422 0.00040578620211 0.00040391288603 0.00040205829393 
0.00040022031719 0.00044081780441 0.0004386149481 0.00043643756363 0.00043428126219 0.0004302534561 0.00042817060385 0.00042610379588 0.0004240505969 
0.00042200992984 0.00041998245905 0.00041796872973 0.0004159699783 0.00041398843036 0.00041202642422 0.00041008574997 0.00040816642984 0.00040626802325 
0.00040439059395 0.00040253185993 0.00040069069969 0.00044144798537 0.00043924411202 0.00043706436972 0.00043490596311 0.00043074092116 0.00042865079627 
0.00042657686797 0.00042451691483 0.00042246982828 0.00042043559326 0.00041841579003 0.00041641090136 0.00041442380179 0.00041245635855 0.00041051047539 
0.00040858579298 0.00040668313048 0.00040480128693 0.00040293927287 0.0004010949372 0.00044205738682 0.00043985106179 0.00043766874472 0.00043550789337 
0.00043120025075 0.0004291018685 0.00042701987362 0.00042495240066 0.00042289805716 0.00042085705488 0.00041882968745 0.00041681906214 0.00041482595337 
0.00041285301734 0.00041090117799 0.00040897177088 0.00040706493512 0.00040517917067 0.00040331354476 0.00040146599127 0.00044268189238 0.00044047265389 
0.00043828740004 0.00043612383313 0.00043166801338 0.00042956035831 0.00042746938605 0.00042539317224 0.00042333087039 0.0004212820708 0.00041924782544 
0.00041723031236 0.00041523102262 0.00041325177727 0.00041129428137 0.00040935998891 0.00040744786728 0.00040555819294 0.00040368905019 0.00040183836195 
0.0004433557029 0.00044114298819 0.0004389545511 0.0004367871445 0.00043217866818 0.00043006075445 0.000427959643 0.00042587415744 0.00042380295331 
0.00042174568442 0.00041970389519 0.00041767903202 0.00041567252882 0.00041368683712 0.00041172333907 0.0004097835568 0.00040786640816 0.00040597221532 
0.00040409864279 0.00040224484836 0.00044410794839 0.00044189160249 0.0004396995645 0.00043752808517 0.0004327627753 0.00043063346159 0.00042852173761 
0.00042642608026 0.00042434528627 0.00042227924802 0.00042022905696 0.00041819592985 0.00041618239722 0.00041418959731 0.00041221946535 0.00041027316831 
0.00040835029803 0.00040645051326 0.00040457249192 0.00040271453956 0.00044496329971 0.00044274295067 0.00044054680482 0.0004383712187 0.00043344525441 
0.0004313041457 0.00042918108898 0.00042707439104 0.00042498338603 0.00042290752772 0.0004208482648 0.00041880663926 0.0004167850722 0.00041478442858 
0.00041280724693 0.00041085387633 0.0004089243179 0.00040701859513 0.00040513502449 0.00040327139799 0.00044593923944 0.0004437150321 0.00044151458985 
0.00043933493117 0.00043424523506 0.00043209147979 0.00042995612532 0.00042783826545 0.00042573594654 0.0004236497577 0.00042158056163 0.00041952961051 
0.00041749899788 0.00041549006169 0.00041350472926 0.00041154357725 0.0004096064935 0.00040769327087 0.00040580330081 0.00040393475187 0.00044704673043 
0.00044481875341 0.00044261417863 0.00044043064724 0.00043517430444 0.00043300789005 0.00043086046221 0.00042873000081 0.00042661626589 0.00042451884982 
0.00042243903178 0.00042037777984 0.00041833739562 0.00041631909062 0.00041432442879 0.00041235438124 0.00041040866229 0.00040848828134 0.000406590992 
0.00040471529519 0.00044829161131 0.00044605990017 0.00044385138017 0.0004416645984 0.00043623943172 0.00043405975027 0.0004318991559 0.00042975615943 
0.00042762990524 0.00042552089444 0.00042342949051 0.00042135720754 0.00041930584088 0.00041727700376 0.00041527193511 0.00041329209577 0.0004113379005 
0.0004094078387 0.0004075024281 0.00040561980857 0.0004496734506 0.00044743783984 0.00044522561532 0.00044303560445 0.00043743984843 0.00043524661061 
0.00043307253538 0.00043091670481 0.00042877768867 0.00042665587103 0.00042455218894 0.00042246783003 0.0004204042254 0.00041836402128 0.00041634774022 
0.00041435736518 0.00041239242627 0.00041045335207 0.00040853906674 0.00040664817249 0.0004511852055 0.00044894588107 0.00044673012799 0.00044453631168 
0.00043876962994 0.00043656232111 0.00043437475477 0.00043220489277 0.00043005287054 0.00042791747375 0.0004258005868 0.00042370329462 0.00042162709405 
0.0004195742523 0.00041754600754 0.000415543653 0.00041356799894 0.0004116188914 0.00040969532739 0.00040779573974 0.00045139932842 0.00044903269364 
0.00044669534087 0.00044438495471 0.00044087066942 0.00043870307521 0.00043655106054 0.00043441380708 0.00043229044286 0.00043018161538 0.0004280879887 
0.00042601097064 0.00042395302774 0.00042191585882 0.00041990149523 0.00041791161038 0.00041594687125 0.00041400750562 0.00041209225107 0.00041020011915 
0.0004530445042 0.00045067849858 0.00044834111926 0.00044603216045 0.00044237882762 0.00044019653132 0.00043803044907 0.00043587936446 0.00043374206859 
0.00043161893839 0.00042951169559 0.0004274213412 0.00042535032657 0.00042330067699 0.00042127404536 0.00041927243165 0.00041729664309 0.00041534655191 
0.000413421737 0.00041152110369 0.00045475776348 0.00045239139675 0.00045005398768 0.00044774523196 0.00044395591289 0.00044175937179 0.0004395794426 
0.00043741408744 0.00043526299427 0.00043312662015 0.0004310059588 0.00042890228547 0.00042681847029 0.00042475613681 0.00042271759425 0.00042070469741 
0.00041871736579 0.00041675687632 0.00041482230483 0.00041291202082 0.00045650544395 0.00045413803289 0.00045180050778 0.00044949221225 0.00044556960832 
0.00044335973141 0.00044116565482 0.00043898689119 0.00043682276984 0.00043467339911 0.00043253963738 0.00043042369043 0.00042832732344 0.00042625314306 
0.00042420301426 0.00042217881095 0.00042018123431 0.00041820986098 0.00041626513599 0.00041434528716 0.00045824958673 0.00045588088032 0.00045354299578 
0.00045123469588 0.00044718346788 0.00044495962634 0.00044275295472 0.00044056147091 0.00043838482089 0.00043622321861 0.00043407755579 0.00043195008846 
0.00042984260331 0.00042775771649 0.00042569700608 0.00042366247727 0.00042165419308 0.00041967272841 0.00041771793183 0.0004157883365 0.00045994984967 
0.00045757974003 0.00045524188881 0.00045293471211 0.00044875785828 0.00044652161935 0.00044430276545 0.00044209937391 0.00043991168836 0.00043773869022 
0.00043558279232 0.00043344505799 0.00043132804733 0.00042923360163 0.00042716332347 0.00042511906966 0.00042310158201 0.00042111094128 0.00041914609295 
0.00041720674082 0.0004615676473 0.00045919701846 0.00045685903127 0.0004545532261 0.00045025606888 0.0004480080344 0.00044577817666 0.00044356452479 
0.00044136665504 0.00043918468427 0.000437019667 0.00043487367954 0.00043274830693 0.00043064544854 0.00042856691395 0.00042651430261 0.00042448814155 
0.0004224884091 0.00042051477035 0.00041856560779 0.0004749989961 0.00047258036674 0.00047018829758 0.00046781828985 0.00046378936648 0.00046150136701 
0.00045923369291 0.00045698447223 0.00045475281733 0.00045253892401 0.00045034246345 0.00044816456068 0.00044600683152 0.0004438694445 0.0004417550245 
0.00043966166953 0.00043759042747 0.0004355397172 0.00043350974351 0.00043149828222 0.0004758868511 0.00047346507448 0.00047106912518 0.00046869595927 
0.00046453082319 0.00046223481405 0.00045995936676 0.00045770225669 0.00045546263522 0.00045324138483 0.00045103744631 0.00044885238661 0.00044668676542 
0.00044454267469 0.00044242102982 0.00044032159006 0.00043824359015 0.00043618758 0.00043415193448 0.00043213532312 0.00047673529743 0.00047431031856 
0.00047191052866 0.00046953373204 0.00046522778336 0.00046292314014 0.00046063895086 0.00045837371071 0.00045612612372 0.00045389664306 0.00045168519133 
0.00044949228532 0.00044731960385 0.00044516875076 0.00044304027102 0.00044093419784 0.00043885013772 0.00043678839694 0.00043474730848 0.00043272578111 
0.00047757044893 0.00047514178548 0.00047273857221 0.00047035812607 0.00046590595495 0.00046359172988 0.0004612985286 0.00045902425759 0.00045676843071 
0.00045453016233 0.00045231042909 0.00045011009076 0.00044793022147 0.00044577208983 0.00044363679873 0.00044152367784 0.00043943389418 0.00043736637589 
0.00043532010667 0.00043329356443 0.00047842064478 0.00047598741054 0.00047358036232 0.00047119614308 0.00046659346424 0.00046426896631 0.00046196548507 
0.00045968168817 0.00045741656015 0.00045516919015 0.00045294098949 0.0004507327549 0.00044854506951 0.00044637914137 0.00044423598883 0.0004421169361 
0.00044002113529 0.00043794781792 0.00043589608134 0.00043386452969 0.00047931011215 0.00047687337142 0.00047446219111 0.00047207376962 0.00046731569737 
0.00046498034966 0.00046266623142 0.00046037214873 0.00045809720812 0.00045584054781 0.00045360328508 0.00045138649396 0.00044919014919 0.00044701661701 
0.00044486615215 0.00044274002867 0.00044063721586 0.00043855793316 0.00043650042845 0.00043446414028 0.0004802635507 0.00047782293497 0.00047540739575 
0.00047301478782 0.0004680975281 0.00046575009536 0.00046342483852 0.00046111978723 0.00045883427131 0.00045656820247 0.00045432113913 0.00045209465666 
0.00044989003322 0.00044770774465 0.00044554943646 0.00044341571364 0.00044130594207 0.00043921995635 0.00043715610488 0.00043511434125 0.00048130091516 
0.00047885554353 0.00047643563184 0.00047403894092 0.00046895863833 0.00046659921747 0.00046426191559 0.00046194533347 0.00045964884796 0.00045737172892 
0.00045511471456 0.00045287847641 0.00045066439111 0.00044847341737 0.00044630648622 0.00044416459345 0.00044204690333 0.00043995353654 0.00043788314993 
0.00043583496152 0.00048243610033 0.00047998662495 0.00047756246244 0.00047516120464 0.00046991481445 0.00046754244291 0.00046519251437 0.00046286421008 
0.00046055562017 0.00045826728778 0.0004559992817 0.00045375293108 0.00045152878451 0.00044932816329 0.00044715240817 0.0004450013106 0.00044287515287 
0.00044077381321 0.00043869631403 0.0004366411747 0.00048367868088 0.00048122482767 0.00047879620808 0.000476391166 0.0004709758369 0.00046859039252 
0.00046622754315 0.0004638864085 0.00046156564251 0.00045926539201 0.00045698600344 0.00045472823024 0.00045249378883 0.00045028298843 0.00044809709404 
0.00044593647205 0.00044380088476 0.00044169095238 0.00043960506937 0.0004375424354 0.00048503313777 0.00048257518884 0.00048014229469 0.00047773368342 
0.00047214752119 0.00046974819839 0.00046737201273 0.00046501759651 0.00046268405678 0.00046037136642 0.00045807974887 0.00045581053715 0.00045356439468 
0.00045134236061 0.00044914547102 0.00044697447887 0.00044482978385 0.00044270972248 0.00044061522055 0.00043854420129 0.00048649907339 0.00048403688207 
0.0004816001646 0.00047918796265 0.00047342883863 0.00047101556061 0.00046862545694 0.00046625790283 0.000463910579 0.00046158493602 0.00045928079413 
0.00045699900297 0.00045474048574 0.00045250676439 0.00045029828299 0.00044811634019 0.00044596055115 0.00044383097304 0.00044172700817 0.00043964707971 
0.00048807028228 0.00048560379447 0.00048316339918 0.00048074689193 0.00047481471555 0.00047238734835 0.00046998299903 0.00046760109784 0.0004652404383 
0.000462901185 0.00046058366044 0.00045828866547 0.00045601766814 0.00045377122822 0.00045155048985 0.00044935675929 0.00044718978533 0.00044504976426 
0.00044293580518 0.00044084675953 0.00048825905826 0.00048565221254 0.00048307545813 0.00048052667194 0.00047690374929 0.00047451491753 0.00047214570785 
0.00046979572624 0.00046746436459 0.00046515117114 0.00046285729628 0.00046058301924 0.00045833092481 0.0004561006231 0.0004538948203 0.00045171396384 
0.00044955855315 0.00044742908601 0.00044532362477 0.00044324217212 0.00048991562362 0.00048730893132 0.0004847323381 0.00048218431743 0.00047842754165 
0.00047602414559 0.00047364056144 0.00047127653681 0.00046893107985 0.0004666039671 0.00046429630914 0.00046200903442 0.00045974368546 0.00045750127528 
0.00045528329844 0.00045309058653 0.00045092414057 0.00044878340773 0.00044666830763 0.00044457732737 0.00049162590765 0.00048901903256 0.00048644188489 
0.00048389459908 0.00048000675996 0.00047758847269 0.00047519097861 0.00047281270702 0.00047045334019 0.00046811274551 0.00046579200441 0.00046349143881 
0.00046121342265 0.0004589585526 0.00045672859366 0.00045452459649 0.00045234662351 0.00045019504478 0.00044806972879 0.0004459690089 0.00049336378099 
0.00049075534303 0.0004881783819 0.00048563128522 0.00048161539216 0.0004791834244 0.0004767717513 0.00047437981114 0.00047200709767 0.00046965348662 
0.00046731975876 0.00046500674703 0.00046271634193 0.00046044952954 0.00045820784787 0.00045599249164 0.00045380348843 0.00045164110736 0.00044950497104 
0.00044739411623 0.00049509920722 0.00049249027348 0.00048991241877 0.00048736530468 0.0004832258739 0.00048077999116 0.00047835505069 0.0004759500461 
0.00047356457969 0.00047119846539 0.00046885232112 0.0004665276824 0.0004642257029 0.00046194781186 0.0004596949032 0.00045746890915 0.00045526906896 
0.00045309631553 0.00045094953305 0.00044882824111 0.00049680331753 0.00049419271229 0.00049161508554 0.00048906881649 0.00048480860112 0.00048234955509 
0.00047991209767 0.00047749480293 0.00047509732211 0.00047271960331 0.000470362331 0.00046802666405 0.00046571451927 0.00046342576828 0.00046116307652 
0.00045892648937 0.00045671657058 0.00045453368325 0.00045237675942 0.00045024522845 0.0004984465 0.00049583527376 0.0004932570052 0.00049071175511 
0.00048633626301 0.00048386495254 0.00048141553557 0.00047898685236 0.00047657856609 0.00047419037407 0.00047182313094 0.0004694779705 0.00046715606 
0.00046485798686 0.00046258559437 0.00046033972452 0.00045812063427 0.00045592778714 0.00045376104031 0.00045161967525 0.00050990310266 0.00050726958057 
0.00050466317396 0.00050208078177 0.00049792130651 0.000495424764 0.00049295230824 0.00049050240445 0.00048807407196 0.0004856673401 0.00048328185397 
0.0004809177233 0.00047857632905 0.00047625724182 0.00047396268665 0.00047169061252 0.00046944141555 0.00046721493278 0.00046501039842 0.00046282611567 
0.00051096764942 0.00050832955869 0.00050571789188 0.00050313083546 0.00049883098886 0.00049632491328 0.00049384295087 0.00049138369035 0.00048894628305 
0.00048653042274 0.00048413562458 0.00048176311723 0.00047941265386 0.00047708550855 0.00047478258284 0.00047250268358 0.0004702461434 0.00046801224949 
0.00046580047644 0.00046360967931 0.00051200735698 0.0005093637949 0.00050674734882 0.00050415530721 0.00049971069226 0.00049719438934 0.00049470264257 
0.00049223391351 0.00048978667984 0.00048736153762 0.00048495787317 0.00048257623427 0.00048021718547 0.0004778816017 0.00047557031353 0.0004732826666 
0.00047101828855 0.00046877757198 0.00046655890591 0.00046436165399 0.00051304040554 0.00051039250809 0.00050777091371 0.00050517427897 0.00050057995396 
0.00049805294316 0.00049555059033 0.00049307147762 0.00049061437989 0.00048817931595 0.0004857663853 0.00048337573353 0.00048100800212 0.00047866425901 
0.00047634442057 0.00047404846624 0.0004717772735 0.00046952914004 0.00046730345037 0.00046509959722 0.00051408875711 0.00051143547347 0.00050880919407 
0.00050620755388 0.00050145953714 0.00049892133529 0.00049640761807 0.00049391795749 0.00049145086393 0.00048900545146 0.00048658267744 0.00048418248771 
0.000481805976 0.00047945299119 0.00047712472581 0.00047482078336 0.00047254155627 0.00047028614142 0.00046805387859 0.00046584354892 0.00051517181623 
0.0005125134556 0.00050988214856 0.00050727559406 0.00050236932624 0.00049981929438 0.00049729424981 0.00049479339221 0.00049231533926 0.0004898594724 
0.00048742663771 0.00048501688866 0.00048263013675 0.00048026796479 0.00047793097844 0.00047561883018 0.00047333140035 0.00047106847049 0.00046882933725 
0.00046661229753 0.00051630746865 0.00051364443428 0.00051100806527 0.00050839681409 0.00050332827346 0.00050076562041 0.0004982288483 0.00049571598816 
0.00049322653047 0.00049075998107 0.00048831616692 0.0004858958635 0.00048349965647 0.00048112771386 0.00047878110507 0.00047646025325 0.0004741646068 
0.0004718939835 0.0004696469605 0.0004674231873 0.00051751222947 0.00051484408655 0.00051220291196 0.00050958654517 0.00050435236639 0.00050177711826 