# vtk DataFile Version 5.1
vtk output
ASCII
DATASET STRUCTURED_POINTS
DIMENSIONS 76 38 38
SPACING 0.002 0.002 0.002
ORIGIN 0.1914 -0.040672 0.03932
POINT_DATA 109744
FIELD FieldData 1
potential 1 109744 double
0.0011255358387 0.0011179964 0.001110534086 0.0011031468965 0.0010958381276 0.0010886052728 0.0010814492485 0.0010743687198 0.0010673641903 
0.0010604349666 0.0010535797299 0.001046799717 0.0010401509291 0.0010335178056 0.0010269587225 0.0010204688574 0.0010140503563 0.0010077029396 
0.0010014242138 0.00099521400149 0.00098907041865 0.00098298784595 0.00097697556523 0.00097102496731 0.00096513642439 0.00095930844491 0.00095353917499 
0.00094785354961 0.0009421980273 0.00093659795689 0.00093105150366 0.00092555735996 0.00092011408469 0.00091471989057 0.00090937484316 0.00090407562812 
0.00089882172379 0.00089361325269 0.00088844695924 0.00088332369993 0.00087824275546 0.00087320366603 0.00086820512505 0.00086324727901 0.00085833018299 
0.00085345383536 0.00084862244259 0.00084382974482 0.00083907914734 0.00083437019098 0.0008297048681 0.00082508369313 0.00082050700069 0.00081597517096 
0.00081148867634 0.00080704761113 0.0008026521022 0.00079830160466 0.00079399569582 0.00078973423788 0.00078551496738 0.00078133774052 0.00077720088714 
0.00077310275668 0.00076904235164 0.00076501712397 0.00076102570998 0.00075706633218 0.00075313839555 0.00074923986397 0.00074537010684 0.00074152835813 
0.00073771207122 0.00073392505107 0.00073016564179 0.00072643355061 0.0011215406634 0.0011140406509 0.0011066173316 0.0010992689584 0.0010919983648 
0.0010848034362 0.0010776845883 0.0010706416979 0.0010636738927 0.0010567803645 0.0010499616967 0.0010432171916 0.0010366036246 0.0010300051201 
0.0010234790987 0.0010170238129 0.0010106393626 0.0010043244577 0.0009980789193 0.00099190019381 0.00098578374908 0.00097973801995 0.00097375478296 
0.00096783443138 0.00096197552685 0.00095617657885 0.00095043605277 0.00094477847595 0.00093915095201 0.00093357812985 0.00092805880821 0.00092259120626 
0.00091717432929 0.00091180609458 0.00090648661054 0.00090121301099 0.00089598479334 0.00089080090816 0.00088565908321 0.00088056042465 0.00087550324593 
0.00087048760737 0.00086551276521 0.00086057819935 0.00085568408889 0.00085083087866 0.00084602254434 0.00084125269222 0.00083652479248 0.00083183908829 
0.00082719625317 0.00082259747846 0.00081804330867 0.00081353397994 0.00080906991679 0.00080465104686 0.00080027715917 0.00079594799846 0.00079166337283 
0.00078742243905 0.00078322387204 0.00077906678188 0.00077494966119 0.00077087070251 0.00076682912053 0.00076282224252 0.00075884869775 0.00075490753709 
0.00075099707526 0.0007471162691 0.00074326373376 0.00073943867162 0.00073563992557 0.00073186984195 0.00072812721978 0.00072441220822 0.0011173872772 
0.0011099286306 0.0011025446267 0.0010952380111 0.001088006974 0.0010808516878 0.0010737718095 0.0010667675476 0.0010598373752 0.0010529816904 
0.0010462007621 0.0010394932426 0.0010329159618 0.0010263537976 0.0010198630455 0.0010134422571 0.0010070922312 0.0010008112268 0.00099459882921 
0.00098844858077 0.00098236874481 0.00097635437501 0.00097040232366 0.00096451268186 0.0009586832567 0.000952913974 0.00094720253105 0.00094157358337 
0.00093597423542 0.00093042949775 0.00092493752584 0.00091949709746 0.00091410673471 0.00090876518639 0.00090347245448 0.00089822457511 0.00089302207075 
0.00088786402143 0.00088274796727 0.00087767408092 0.00087264183798 0.00086765036462 0.0008627004145 0.0008577896152 0.00085291993292 0.00084809433619 
0.00084330652978 0.00083856053841 0.00083385609268 0.00082919404653 0.00082457538655 0.00082000043231 0.0008154694867 0.00081098338429 0.00080654224922 
0.00080214614029 0.00079779494044 0.00079348763671 0.00078922469425 0.00078500504223 0.00078082741923 0.0007766907967 0.00077259369955 0.00076853431108 
0.00076451174272 0.00076052364656 0.00075656894829 0.00075264623852 0.0007487537894 0.00074489076067 0.00074105572375 0.00073724848719 0.00073346705311 
0.00072971463812 0.0007259896973 0.00072229214785 0.0011130882332 0.0011056708942 0.0010983308719 0.0010910658342 0.0010838759632 0.0010767617757 
0.0010697224867 0.0010627574307 0.0010558675011 0.0010490509528 0.0010423081877 0.0010356961874 0.0010290975105 0.0010225735639 0.001016118364 
0.0010097341834 0.0010034195752 0.0009971732673 0.00099099453135 0.00098487771261 0.00097883173048 0.00097284861766 0.00096692846413 0.00096106928703 
0.00095527073927 0.00094953108319 0.0009438751431 0.00093824948149 0.00093267873351 0.0009271621154 0.00092169828915 0.00091628536111 0.00091092248 
0.00090560848699 0.00090034219203 0.0008951211447 0.00088994511363 0.00088481327232 0.00087972313004 0.00087467531198 0.00086966873049 0.00086470291887 
0.00085977739557 0.00085489248517 0.00085004775396 0.00084524732729 0.00084048468212 0.00083576275711 0.00083108327912 0.00082644602498 0.00082185187974 
0.00081730096311 0.0008127945942 0.00080833261627 0.0008039149976 0.00079954220325 0.00079521401349 0.00079092958709 0.00078668871561 0.00078249042271 
0.00077833418221 0.00077421845436 0.00077014162284 0.00076610235395 0.00076209857873 0.00075813003764 0.00075419439015 0.00075029014835 0.000746416162 
0.00074257127902 0.00073875447918 0.00073496352581 0.00073120195265 0.00072746775936 0.0007237606725 0.00072008126398 0.0011086596709 0.0011012864814 
0.001093989826 0.0010867680894 0.0010796215304 0.0010725497575 0.0010655511832 0.0010586281833 0.0010517789832 0.0010450028272 0.0010382997793 
0.0010317252218 0.0010251679122 0.0010186799592 0.0010122620135 0.0010059141614 0.00099963570954 0.00099342472289 0.00098727635656 0.00098119937884 
0.000975185496 0.00096923481853 0.00096334665649 0.00095751918208 0.00095175154392 0.00094604242024 0.00094041602528 0.00093482013597 0.00092927850576 
0.00092379070204 0.00091835498047 0.00091297051294 0.00090763531823 0.00090234868048 0.00089710987763 0.00089191617943 0.00088676719293 0.00088166221447 
0.00087659909823 0.00087157741754 0.00086659744242 0.00086165776693 0.00085675866552 0.0008518996577 0.0008470845979 0.00084230671139 0.00083756986204 
0.00083287342867 0.00082821951554 0.00082360764598 0.00081903872115 0.00081451325851 0.00081003150038 0.00080559394264 0.00080120079914 0.00079685173833 
0.0007925468328 0.00078828535574 0.00078406713768 0.0007798908354 0.00077575591823 0.00077166110935 0.00076760486352 0.0007635853104 0.00075960185689 
0.00075565242589 0.00075173581897 0.00074785046329 0.00074399531852 0.00074016864688 0.00073637051907 0.00073259833891 0.00072885526529 0.00072513952684 
0.0007214506816 0.00071778979386 0.0011041197307 0.0010967937035 0.0010895424707 0.0010823652975 0.0010752625818 0.0010682338033 0.0010612790711 
0.0010543984744 0.0010475906504 0.0010408558115 0.001034192323 0.0010276588413 0.00102114056 0.0010146907099 0.0010083112071 0.0010020006664 
0.00099575859344 0.00098957929621 0.00098347149976 0.00097742764121 0.00097144751395 0.00096553061042 0.00095967472025 0.00095387976621 0.0009481432536 
0.00094246478347 0.00093686872404 0.00093130223842 0.00092579045139 0.00092033187608 0.00091492508148 0.00090956917171 0.00090426266188 0.0008990038442 
0.00089379261543 0.00088862675203 0.00088350543616 0.00087842806711 0.0008733917562 0.000868397528 0.00086344450207 0.00085853175841 0.0008536597083 
0.00084882735343 0.00084403920005 0.00083928799397 0.00083457686509 0.00082990740024 0.00082527951315 0.00082069394032 0.0008161509185 0.0008116510737 
0.00080719493607 0.00080278215607 0.00079841361641 0.00079408897625 0.00078980773316 0.00078556949549 0.00078137381277 0.00077721986741 0.00077310667628 
0.00076903273686 0.00076499695316 0.0007609978783 0.00075703419145 0.00075310423324 0.00074920693568 0.00074534096118 0.00074150414969 0.00073769683094 
0.00073391729017 0.00073016389138 0.00072643943336 0.00072274206109 0.00071907282634 0.00071543107611 0.001099494323 0.0010922152492 0.0010850098917 
0.0010778788242 0.0010708206088 0.0010638369966 0.001056926466 0.001050088974 0.0010433240158 0.0010366301075 0.0010300664624 0.0010235178885 
0.0010170378859 0.0010106270879 0.0010042860781 0.00099801326184 0.00099180832704 0.00098566521326 0.00097959303537 0.00097358370801 0.00096763818074 
0.00096175463226 0.00095593189861 0.00095016904999 0.00094446446393 0.00093881740402 0.00093325178699 0.00092771553002 0.000922233719 0.00091680462447 
0.00091142714958 0.00090610002659 0.00090082216785 0.00089559209462 0.00089040923463 0.00088527145919 0.00088017814366 0.00087512810866 0.00087011967801 
0.00086515306141 0.00086022740589 0.0008553425299 0.00085049794311 0.00084569681577 0.00084093217715 0.00083620810323 0.00083152437672 0.00082688191945 
0.00082228090106 0.00081772192798 0.00081320559303 0.00080873194519 0.00080430137916 0.00079991427318 0.00079557046395 0.00079126991544 0.00078701255864 
0.00078279786154 0.00077862487261 0.00077449315075 0.00077040160271 0.00076634916287 0.00076233347091 0.00075835505929 0.00075441137511 0.00075050085819 
0.00074662306319 0.00074277597541 0.00073895842938 0.00073516976472 0.00073140764925 0.00072767477547 0.00072396951855 0.00072029165992 0.00071664151429 
0.00071301855247 0.0010948060214 0.0010875747932 0.0010804169171 0.0010733312337 0.0010663199801 0.0010593816212 0.0010525161812 0.0010457226704 
0.0010389996722 0.0010323497821 0.001025827787 0.0010193203776 0.0010128801568 0.001006509847 0.001000207726 0.00099397317619 0.00098780107843 
0.00098170066371 0.00097566300341 0.00096968897003 0.00096377769198 0.00095792811977 0.00095213870859 0.00094640847189 0.00094073591704 0.00093514565302 
0.0009295859228 0.0009240803713 0.00091862865928 0.00091322924926 0.00090788142009 0.00090258298478 0.00089733445374 0.00089213292976 0.00088697890131 
0.0008818698045 0.0008768044762 0.00087178206475 0.00086680247738 0.00086186360457 0.00085696632125 0.0008521092794 0.00084729308064 0.00084251978464 
0.00083778294179 0.0008330864875 0.00082843066304 0.00082381550336 0.00081924150386 0.00081470933803 0.00081021985111 0.00080577257793 0.00080136797227 
0.0007970064261 0.00079268772422 0.00078841180634 0.00078417834291 0.00077998671393 0.00077583662003 0.00077172718211 0.00076765733971 0.00076362540906 
0.00075963151384 0.0007556727605 0.00075174875359 0.00074785819556 0.00074399966657 0.0007401714903 0.00073637342857 0.00073260411961 0.0007288611164 
0.00072514743825 0.00072146131385 0.00071780319768 0.00071417188345 0.00071056831069 0.0010900793587 0.0010828959947 0.0010757855186 0.0010687480891 
0.001061783547 0.0010548910343 0.0010480706602 0.0010413201432 0.0010346430079 0.0010280363414 0.0010215582693 0.0010150907858 0.0010086916779 
0.0010023615436 0.00099609857787 0.0009899023908 0.00098376924522 0.00097770428345 0.00097170267464 0.00096576412724 0.00095988774854 0.00095407224911 
0.0009483163277 0.00094261890763 0.00093697862728 0.00093141972445 0.00092589132139 0.00092041657176 0.00091499540598 0.00090962596444 0.00090430751355 
0.00089903887449 0.00089381925045 0.00088864675732 0.00088352157955 0.00087844076386 0.0008734039552 0.00086841018636 0.00086345885284 0.00085854857967 
0.00085367982505 0.00084885157363 0.00084406333575 0.00083931834261 0.00083460971897 0.0008299411604 0.00082531336787 0.00082072560433 0.00081617945988 
0.00081167466298 0.00080721202531 0.000802791197 0.00079841289944 0.00079407693455 0.00078978322727 0.00078553167257 0.00078132203871 0.00077715366369 
0.00077302607168 0.00076893899155 0.00076489013211 0.00076087989657 0.00075690629432 0.00075296780314 0.00074906349496 0.00074519251661 0.00074135305981 
0.00073754433353 0.00073376524641 0.00073001526103 0.00072629158822 0.0007225973466 0.00071893101355 0.0007152916097 0.00071167978745 0.000708096066 
0.0010853380641 0.0010782030264 0.0010711416109 0.0010641516895 0.0010572342959 0.0010503882166 0.0010436121976 0.0010369080611 0.0010302750545 
0.0010237135976 0.0010172761506 0.00101084983 0.0010044925526 0.00099820282489 0.00099197931506 0.00098581905734 0.00097972680574 0.00097369885412 
0.00096773340431 0.0009618301836 0.00095598862173 0.00095020721934 0.00094448493538 0.00093882041521 0.0009332130895 0.00092768573871 0.00092218853548 
0.00091674483312 0.00091135424304 0.00090601547541 0.000900726719 0.00089548733903 0.00089029624953 0.00088515344656 0.00088005704931 0.00087500497619 
0.00086999692897 0.00086503198264 0.0008601093287 0.00085522759581 0.00085038739674 0.00084558712462 0.00084083082761 0.00083611084475 0.00083143057451 
0.00082679071263 0.00082219052659 0.00081763121024 0.00081311282496 0.00080863519713 0.00080419941065 0.00079980517583 0.00079545285567 0.0007911423217 
0.00078687355315 0.00078264650174 0.00077846041105 0.00077431534277 0.00077021025577 0.00076614418178 0.00076211716374 0.00075812767938 0.00075417439656 
0.00075025589359 0.00074637162321 0.00074251991563 0.0007386998104 0.00073491012879 0.00073115042137 0.00072741954068 0.00072371511274 0.00072004072797 
0.00071639323287 0.00071277311661 0.00070918098409 0.00070561653361 0.0010806041928 0.0010735195304 0.0010665067355 0.0010595649563 0.0010526944161 
0.0010458937384 0.0010391644475 0.0010325056103 0.0010259171978 0.0010194560734 0.0010130042114 0.0010066200303 0.0010003036626 0.00099405393053 
0.00098786609271 0.00098174894511 0.00097569462816 0.00096970362988 0.00096377477944 0.00095790728866 0.00095210049696 0.00094635296516 0.00094066442853 
0.00093503302656 0.0009294828145 0.00092396257979 0.00091849660852 0.00091308422742 0.00090772433739 0.00090241567509 0.00089715700969 0.00089194695458 
0.00088678569825 0.00088167173184 0.00087660433057 0.0008715809079 0.00086660141799 0.00086166526526 0.00085677147954 0.00085191832179 0.00084710667476 
0.00084233482132 0.00083760680065 0.00083291541866 0.00082826398778 0.00082365197605 0.00081908011486 0.00081454864026 0.00081005798681 0.00080560767467 
0.00080119881962 0.0007968306595 0.00079250424741 0.00078821894388 0.00078397484766 0.00077977157739 0.00077560929181 0.00077148701431 0.00076740362114 
0.00076335975101 0.00075935355726 0.000755384956 0.0007514519376 0.00074755316182 0.00074368814661 0.00073985564373 0.00073605490382 0.00073228450288 
0.00072854379873 0.0007248302201 0.00072114697534 0.00071749111936 0.0007138631463 0.00071026235349 0.0007066895776 0.00070314444061 0.0010759008499 
0.0010688656785 0.0010619014747 0.0010550076943 0.0010481832887 0.0010414299838 0.0010347468824 0.0010281329075 0.0010215901156 0.0010151705088 
0.0010087609427 0.0010024190966 0.00099614418654 0.00098993484576 0.00098378750433 0.00097770753102 0.00097169104548 0.00096573710623 0.00095984483542 
0.00095401304548 0.00094824120166 0.00094252800453 0.00093687268549 0.00093127452152 0.0009257566521 0.0009202683824 0.00091483369942 0.00090945248148 
0.00090412308155 0.00089884472331 0.00089361617783 0.00088843612253 0.00088330353444 0.00087821870805 0.00087318002946 0.00086818535154 0.0008632350044 
0.00085832739011 0.00085346192831 0.00084863724147 0.00084385403949 0.00083911439965 0.00083441135863 0.00082974795489 0.00082512484987 0.00082054125879 
0.00081599742625 0.00081149357729 0.00080703013294 0.00080260712994 0.00079822464483 0.00079388279925 0.00078958198656 0.00078532180002 0.00078110200496 
0.00077692254448 0.00077278312654 0.00076868320574 0.00076462226555 0.00076059946135 0.0007566139791 0.00075266565773 0.00074875238009 0.00074487337292 
0.000741027487 0.00073721433676 0.00073343273119 0.00072968124389 0.00072595967143 0.00072226495453 0.00071860053728 0.00071496389437 0.00071135455045 
0.00070777321084 0.00070421962964 0.0007006937321 0.0010712465157 0.0010642601217 0.0010573442847 0.0010504970725 0.0010437208307 0.001037014137 
0.0010303762436 0.0010238073951 0.0010173085237 0.0010109318788 0.0010045646918 0.00099826477565 0.00099203036542 0.00098585834985 0.00097975319986 
0.00097371164117 0.00096773281538 0.00096181577601 0.00095595992297 0.00095016394474 0.00094442674269 0.0009387474481 0.0009331259839 0.00092756094008 
0.00092207525831 0.00091661872682 0.00091121502955 0.00090586507485 0.00090056634219 0.00089531795073 0.00089011896204 0.00088496877166 0.00087986574202 
0.00087481054416 0.00086979997766 0.0008648342092 0.00085991233848 0.0008550330018 0.00085019583422 0.00084539977461 0.00084064457329 0.00083593324046 
0.0008312581436 0.00082662325569 0.00082202811043 0.00081747225393 0.00081295621119 0.00080848002527 0.00080404379256 0.00079964721723 0.00079529127563 
0.00079097537055 0.00078669954521 0.0007824639989 0.00077826791765 0.00077411197751 0.00076999493857 0.00076591727639 0.00076187803421 0.00075787655576 
0.00075391153061 0.00074998279716 0.00074608916438 0.00074222949877 0.00073840275943 0.00073460872846 0.00073084580607 0.00072711327447 0.00072341011211 
0.00071973430997 0.00071608849441 0.00071247061823 0.00070888025321 0.00070531813094 0.00070178344545 0.00069827655156 0.0010666573317 0.001059719572 
0.0010528506288 0.0010460526138 0.0010393226049 0.0010326618072 0.0010260693914 0.0010195463139 0.0010131457507 0.0010067549005 0.0010004305143 
0.00099417165599 0.00098797526495 0.00098184549601 0.00097577929521 0.00096977616686 0.00096383465075 0.00095795447342 0.00095213432562 0.00094637369817 
0.00094067111504 0.00093502619287 0.00092943804609 0.00092390509282 0.00091845176603 0.00091302698918 0.00090765549299 0.00090233601382 0.00089706768198 
0.0008918492565 0.00088668010457 0.00088155934009 0.00087648555736 0.00087145901701 0.00086647706657 0.00086154031745 0.00085664616696 0.00085179536436 
0.00084698634436 0.00084221827205 0.00083749478036 0.00083280783482 0.00082816080243 0.00082355370744 0.00081898627237 0.00081445806835 0.00080996946593 
0.00080551999906 0.00080111029303 0.00079674004971 0.00079240966143 0.0007881196351 0.00078386857994 0.00077965690659 0.00077548428127 0.00077135102497 
0.00076725677288 0.00076320055754 0.00075918247794 0.00075520176749 0.00075125714839 0.00074734783861 0.00074347364296 0.00073963313864 0.00073582550127 
0.00073205000379 0.00072830556999 0.00072459143095 0.00072090496312 0.00071724939472 0.00071362174085 0.00071002227525 0.00070645093244 0.00070290739411 
0.00069939159671 0.00069590344262 0.0010621480974 0.0010552568346 0.0010484366994 0.0010416851483 0.001035001733 0.0010283864724 0.0010218404827 
0.0010153599117 0.0010090026708 0.0010026536997 0.00099637088468 0.00099015461035 0.00098399666084 0.00097790624163 0.00097187888462 0.00096591345072 
0.00096000919255 0.00095416498466 0.00094838062556 0.0009426547694 0.00093698636585 0.00093137583066 0.00092582059578 0.00092034479621 0.00091489877629 
0.00090950633858 0.0009041658308 0.00089887686487 0.00089363881875 0.00088845038747 0.00088331091713 0.0008782191561 0.00087317419597 0.00086817656894 
0.00086322343997 0.00085831474076 0.00085344860371 0.00084862597826 0.00084384476366 0.00083910443245 0.00083440845908 0.00082974927468 0.00082512952357 
0.00082054999116 0.00081600954656 0.00081150868578 0.0008070467966 0.00080262405716 0.00079824050926 0.0007938958827 0.00078959097783 0.00078532536841 
0.00078109859495 0.0007769104408 0.00077276067361 0.00076865024327 0.00076457780285 0.00076054306632 0.00075654584141 0.00075258509876 0.00074866052544 
0.00074477064217 0.00074091547416 0.00073709382582 0.00073330484027 0.00072954732969 0.00072582120153 0.00072212529654 0.00071845710096 0.0007148194204 
0.00071121013346 0.00070762883117 0.00070407578353 0.00070055070675 0.00069705326665 0.0006935836058 0.0010577287199 0.001050886275 0.0010441130885 
0.0010374071602 0.0010307696586 0.0010241991535 0.0010176974356 0.0010112605425 0.0010049447118 0.00099863839822 0.00099239686308 0.00098621675568 
0.00098010231856 0.00097405093691 0.00096806170329 0.00096213384927 0.0009562661311 0.00095045789655 0.00094470869743 0.0009390174378 0.0009333838343 
0.00092780609527 0.00092228370425 0.00091684058115 0.00091142629347 0.00090606516555 0.00090075591299 0.00089549738789 0.00089028913296 0.0008851307194 
0.00088002045023 0.00087495783558 0.00086994185093 0.00086497267278 0.00086004793112 0.00085516696415 0.00085032865331 0.00084553353172 0.00084077964282 
0.00083607028128 0.00083139827647 0.000826766265 0.00082217384146 0.0008176211344 0.00081310731034 0.00080863313267 0.00080419753778 0.0007998006415 
0.00079544263172 0.00079112290523 0.00078684290001 0.00078260126453 0.00077839804803 0.00077423280649 0.00077010616421 0.00076601747766 0.00076196620775 
0.00075795252013 0.00075397570664 0.00075003480384 0.00074612931413 0.00074225885725 0.00073842250046 0.00073461946303 0.00073084854307 0.00072710896498 
0.00072340100075 0.00071972278021 0.00071607256545 0.00071245265045 0.00070886130733 0.00070529791319 0.00070176270256 0.00069825562459 0.00069477626862 
0.00069132452938 0.0010534118086 0.0010466157852 0.0010398884803 0.0010332287273 0.0010266358561 0.0010201113616 0.0010136511017 0.0010073123224 
0.0010009827326 0.00099471783121 0.00098851418628 0.00098237658247 0.00097630129025 0.00097028803319 0.00096433632614 0.0009584450386 0.00095261379938 
0.00094684118083 0.00094112700146 0.00093547011312 0.00092987033928 0.00092432548987 0.0009188361391 0.00091342447787 0.00090804181954 0.0009027116503 
0.00089743348923 0.00089220524351 0.00088702691254 0.00088189799671 0.00087681713741 0.00087178330813 0.00086679545212 0.00086185483384 0.00085695762619 
0.00085210411867 0.00084729349314 0.00084252579699 0.00083779967993 0.00083311675471 0.00082847181872 0.00082386658274 0.00081930068272 0.00081477427072 
0.00081028684853 0.00080583849208 0.00080142828717 0.00079705646735 0.00079272319829 0.00078842857073 0.00078417227999 0.00077995419406 0.00077577350866 
0.00077163123407 0.00076752674227 0.00076345925011 0.00075942936376 0.00075543620073 0.00075147898609 0.00074755761727 0.00074367105526 0.00073981904603 
0.0007360011879 0.00073221620043 0.0007284633888 0.00072474200678 0.00072105096355 0.00071738878866 0.00071375774095 0.00071015567299 0.00070658161322 
0.00070303609587 0.00069951840679 0.00069602877242 0.00069256668352 0.00068913241748 0.0010492036293 0.0010424534954 0.0010357714801 0.0010291564809 
0.0010226074807 0.0010161260769 0.0010097088934 0.0010034117706 0.00099712332208 0.00099090062626 0.0009847354369 0.00097863679937 0.00097260005735 
0.00096662469753 0.00096070994118 0.00095485501969 0.00094905887672 0.00094332161943 0.00093764220937 0.00093201928664 0.00092645227894 0.00092094061746 
0.00091550738232 0.00091010335201 0.0009047519827 0.00089945265854 0.00089420479631 0.00088900652281 0.00088385801516 0.00087875838613 0.00087370640273 
0.00086870100172 0.00086374137889 0.000858828377 0.00085395932258 0.00084913325307 0.00084434959291 0.00083960881106 0.00083491234193 0.00083025311084 
0.00082563428315 0.00082105546524 0.0008165156391 0.000812014918 0.0008075530143 0.00080312964487 0.00079874476765 0.00079439772678 0.00079008880472 
0.00078581791648 0.00078158468999 0.00077738912064 0.00077323116494 0.00076911063333 0.00076502734927 0.00076098144646 0.00075697183983 0.00075299851526 
0.00074906089046 0.00074515788871 0.00074129032855 0.00073745691826 0.00073365677736 0.00072988936236 0.0007261545221 0.00072245043817 0.00071877678752 
0.00071513181571 0.00071151804449 0.00070793328351 0.00070437647166 0.00070084794868 0.00069734740333 0.00069387473871 0.00069042988692 0.00068701229214 
0.0010451091137 0.0010384045399 0.0010317672965 0.0010251961312 0.0010186917863 0.0010122515104 0.0010058755154 0.00099961993276 0.00099337339039 
0.00098718523096 0.00098106299051 0.00097500260466 0.00096900358037 0.00096306519926 0.00095718701171 0.00095136756933 0.00094560688628 0.00093990421316 
0.00093425852325 0.00092866907407 0.00092313546997 0.00091765598738 0.00091225404629 0.00090688146727 0.00090156130358 0.00089629249355 0.00089107435491 
0.00088590641848 0.00088078695992 0.00087571627108 0.00087069257718 0.0008657155546 0.00086078416434 0.00085589858291 0.00085105625531 0.00084625696959 
0.00084150061377 0.00083678633924 0.00083211663286 0.00082748335961 0.00082289031007 0.00081833700902 0.00081382266016 0.00080934762627 0.00080491073683 
0.00080051190652 0.00079615141938 0.0007918282048 0.00078754289567 0.00078329500307 0.00077908411486 0.0007749107494 0.00077077452608 0.0007666752499 
0.0007626125386 0.0007585870006 0.00075459731423 0.00075064315524 0.00074672453334 0.00074284042582 0.00073899117233 0.00073517564142 0.0007313934494 
0.00072764345597 0.00072392551241 0.00072023892086 0.00071658231021 0.00071295392419 0.00070935703891 0.00070578930093 0.00070224941452 0.00069873734575 
0.00069525359859 0.0006917975982 0.00068836874493 0.00068496766722 0.0010411338988 0.0010344740188 0.0010278796943 0.0010213530631 0.0010148891781 
0.0010084906725 0.0010022113938 0.00099594148586 0.00098972954364 0.00098358404917 0.00097750015606 0.00097147746513 0.00096551569588 0.00095961371118 
0.00095377072347 0.00094798705406 0.00094226080338 0.00093659250023 0.00093098046834 0.00092542409219 0.00091992212108 0.00091447462984 0.00090910393878 
0.00090376213013 0.00089847278556 0.00089323409178 0.0008880460715 0.00088290713725 0.00087781687706 0.0008727747489 0.00086777924672 0.00086283013683 
0.00085792615183 0.00085306751531 0.00084825228447 0.0008434795425 0.00083874938571 0.00083406512119 0.00082941771674 0.00082480992608 0.00082024265887 
0.00081571469681 0.00081122557512 0.0008067748572 0.00080236231743 0.00079798755203 0.00079365067124 0.00078935113595 0.00078508841049 0.00078086254472 
0.00077667375253 0.00077252197063 0.00076840672647 0.00076432790494 0.00076028554377 0.00075627935775 0.00075230858844 0.00074837332609 0.0007444729906 
0.00074060748083 0.00073677609831 0.00073297847302 0.00072921357644 0.00072548054645 0.00072177963125 0.00071810964907 0.00071446844926 0.00071085829587 
0.00070727785109 0.00070372629535 0.00070020319912 0.00069670763089 0.00069323983671 0.00068979965838 0.00068638692706 0.00068300141597 0.0010372797337 
0.0010306628208 0.0010241112863 0.0010176263985 0.0010112043821 0.0010048457317 0.00099860798737 0.00099237632418 0.00098620327322 0.00098009577672 
0.00097404936822 0.00096806397769 0.0009621383465 0.00095627142641 0.00095046394947 0.000944714666 0.00093902281402 0.00093338802096 0.00092780878413 
0.00092228445684 0.00091681494787 0.00091142237609 0.00090605864748 0.00090074758602 0.00089548789694 0.00089027882672 0.00088512023013 0.00088001045129 
0.00087494878766 0.00086993516698 0.00086496711446 0.00086004578808 0.00085516870736 0.00085033726854 0.0008455485507 0.00084080232047 0.0008360987363 
0.00083144013535 0.00082681812965 0.00082223551674 0.00081769335173 0.00081318993461 0.0008087251984 0.00080429867048 0.00079990985252 0.00079555842543 
0.00079124446607 0.00078696746733 0.00078272668576 0.0007785226264 0.00077435495482 0.00077022413929 0.00076612916053 0.00076207023163 0.00075804707921 
0.00075405966218 0.00075010758349 0.00074619093644 0.00074230855154 0.0007384606518 0.00073464710814 0.00073086654866 0.00072711853966 0.00072340269756 
0.00071971831132 0.00071606499636 0.00071243966097 0.00070884573929 0.00070528181935 0.00070174612401 0.00069823885185 0.00069475945302 0.00069130758277 
0.00068788250835 0.0006844849704 0.00068111455352 0.0010335475494 0.0010269726108 0.0010204642475 0.0010140190264 0.0010076365181 0.0010013199203 
0.00099511985701 0.00098892288513 0.0009827912575 0.00097672123957 0.00097071163618 0.00096476196394 0.00095887149783 0.00095304081833 0.00094726765242 
0.00094155255087 0.00093589430784 0.00093029162553 0.00092474486393 0.00091925249623 0.00091381399463 0.00090845230621 0.00090311922579 0.00089783798233 
0.00089260788487 0.00088742831041 0.00088229851226 0.00087721768316 0.00087218391216 0.00086719810055 0.00086225814298 0.00085736359613 0.00085251356745 
0.00084770880701 0.00084294649739 0.00083822629616 0.00083355196575 0.00082891493648 0.0008243179744 0.00081976038505 0.00081524263265 0.00081076364382 
0.00080632234925 0.00080191925311 0.0007975537792 0.00079322521538 0.00078893339006 0.00078467782659 0.00078045875731 0.0007762754825 0.00077212844602 
0.0007680177033 0.00076394253169 0.00075990287243 0.00075589839319 0.00075192914964 0.0007479954476 0.00074409642314 0.00074023161183 0.00073640091165 
0.00073260426023 0.00072884072442 0.00072510931812 0.00072140994086 0.00071774214482 0.00071410476142 0.00071049562413 0.00070691785797 0.00070336930261 
0.00069984944683 0.00069635744947 0.000692893639 0.00068945706331 0.00068604690748 0.00068266366359 0.00067930779167 0.0010299362723 0.0010234041644 
0.0010169350782 0.0010105301692 0.0010041872209 0.00099796467267 0.00099174377192 0.00098558787701 0.0009794937288 0.00097346000021 0.00096748598526 
0.00096157173368 0.00095571668101 0.00094991998541 0.00094418089516 0.00093849891163 0.0009328732552 0.00092730288216 0.00092178781613 0.00091632698889 
0.00091091956871 0.00090558817829 0.00090028504226 0.00089503352652 0.00088983299747 0.00088468211751 0.0008795811615 0.00087452829629 0.00086952272741 
0.0008645641224 0.000859651032 0.00085478337731 0.00084996015629 0.00084518179429 0.00084044554921 0.00083575075292 0.00083110163559 0.00082648894011 
0.00082191717516 0.0008173838377 0.00081289012412 0.00080843479189 0.00080401690428 0.00079963656698 0.00079529357017 0.00079098696831 0.0007867166155 
0.00078248265346 0.00077828382219 0.00077412111422 0.00076999412438 0.00076590256036 0.00076184641116 0.00075782501381 0.00075383864159 0.00074988775023 
0.00074597144075 0.00074208953633 0.00073824190129 0.0007344284224 0.00073064799717 0.00072690065583 0.00072318572453 0.00071950245846 0.00071585034495 
0.00071222730024 0.00070863605249 0.00070507389118 0.00070154059319 0.00069803588834 0.00069455894395 0.0006911100777 0.00068768774692 0.00068429199545 
0.0006809227654 0.00067758085081 0.0010264454678 0.001019953639 0.0010135242466 0.0010071577118 0.0010008558462 0.00099466546482 0.00098848536297 
0.00098236681241 0.00097630898156 0.00097031073819 0.00096437241661 0.00095849257491 0.00095267180942 0.00094690873139 0.0009412025387 0.00093555330752 