# vtk DataFile Version 5.1
vtk output
ASCII
DATASET STRUCTURED_POINTS
DIMENSIONS 26 14 26
SPACING 0.08 0.08 0.08
ORIGIN 2.7 -0.52 0
POINT_DATA 9464
FIELD FieldData 1
potential 1 9464 double
0.0076028518759 0.0078609927638 0.0081236552463 0.0083887434407 0.0086591354972 0.0089435351127 0.0092454362319 0.00956190558 0.0098890966955 
0.010218762671 0.010542606122 0.01086025164 0.011175300981 0.011492301333 0.011816133556 0.012144841469 0.012471142522 0.012795070005 
0.013122248171 0.013453982551 0.013787804178 0.014117897683 0.014437351978 0.014748872177 0.015058765389 0.015363624056 0.0086390773641 
0.0089353834046 0.0092395981148 0.0095514743019 0.0098724283156 0.010204952748 0.010550292865 0.010907455633 0.011273857907 0.011645717743 
0.012019672074 0.012394627969 0.01277139711 0.013151498551 0.013535960017 0.01392391596 0.014313383726 0.014703742677 0.015095606474 
0.015488767516 0.015881442337 0.016270680417 0.016653800543 0.017030287094 0.017400367478 0.017762633308 0.009464525634 0.0097948013797 
0.010135190451 0.010485744845 0.010847041529 0.011219885037 0.01160455072 0.012000405587 0.012405928541 0.012819142452 0.013238265599 
0.013662283178 0.01409099116 0.014524513277 0.014962740093 0.015404980156 0.015850165793 0.016297417849 0.01674604796 0.017195066094 
0.017642841305 0.018087347833 0.018526630023 0.018959305157 0.019384143486 0.019799682477 0.01012447696 0.010484770312 0.010856734632 
0.011240461642 0.011636202144 0.012044174138 0.012464307019 0.012896100622 0.013338601893 0.013790601856 0.014250924397 0.01471868235 
0.015193276979 0.015674244914 0.016161012813 0.016652763676 0.017148494798 0.017647086825 0.018147412176 0.018648094801 0.01914745409 
0.019643618947 0.020134690208 0.02061888878 0.021094510034 0.021559781307 0.010622443987 0.011008917684 0.011408345532 0.011820837611 
0.012246512026 0.012685404426 0.013137365906 0.01360195501 0.014078498653 0.014566147044 0.01506403213 0.015571295328 0.016087208949 
0.016611037012 0.017141970194 0.017679039202 0.018221110909 0.018766916184 0.019315051144 0.019863908702 0.020411674956 0.020956382986 
0.021496000488 0.022028454328 0.022551749274 0.023063826488 0.010948001779 0.011356698635 0.011779518809 0.012216597919 0.012668024376 
0.013133802149 0.013613758724 0.014107555121 0.014614657613 0.015134400319 0.015666027353 0.01620874727 0.016761760658 0.017324215288 
0.017895142569 0.01847347313 0.019057958868 0.019647165405 0.020239482526 0.020833127856 0.021426117142 0.022016298236 0.022601449388 
0.023179236494 0.023747351812 0.02430344426 0.011005284823 0.011429962925 0.011870074275 0.012325771851 0.012797125472 0.013284172146 
0.013786760005 0.014304582468 0.014837198233 0.015384024557 0.015944382287 0.016517499648 0.017102519257 0.017698559627 0.018304593308 
0.018919461143 0.019541812039 0.02017005912 0.020802450997 0.021437025994 0.022071619298 0.02270388136 0.023331303567 0.023951333064 
0.024561318135 0.025158611576 0.01097061989 0.011413190379 0.011871976277 0.012347260928 0.012839232607 0.013347992991 0.013873484308 
0.014415461645 0.014973560366 0.015547250326 0.016135868742 0.016738706888 0.01735491836 0.017983583647 0.018623727723 0.019274097684 
0.019933279462 0.020599663002 0.021271335144 0.021946187775 0.022621847869 0.023295716291 0.023965056552 0.02462698617 0.025278572072 
0.025916829206 0.010954111406 0.01140737585 0.011877727254 0.012365598146 0.012871278403 0.013394940033 0.013936630981 0.014496169018 
0.01507320939 0.015667226642 0.016277555912 0.016903472149 0.017544177657 0.018198804081 0.018866403234 0.019545798116 0.020235568791 
0.020934058859 0.021639229668 0.022348787987 0.023060143854 0.023770534417 0.024476908985 0.025176083412 0.025864748443 0.026539532667 
0.010865260811 0.011323420302 0.011799397036 0.01229377324 0.01280705455 0.013339503515 0.013891228848 0.014462134828 0.01505188214 
0.015659879237 0.016285431647 0.016927733699 0.017586035233 0.018259611031 0.018947647814 0.019649143552 0.020362781945 0.021086802429 
0.021819160161 0.022557369267 0.023298647487 0.024039954231 0.024777988808 0.025509260673 0.026230040324 0.0269365582 0.010673506461 
0.011129635899 0.011604046704 0.012097666674 0.012611166761 0.013144963316 0.013699263422 0.014274023486 0.014868893534 0.015483178339 
0.016115924648 0.016766187518 0.017433214559 0.018116539038 0.018815823226 0.0195303391 0.020258947025 0.02099993961 0.021751101023 
0.022509846138 0.023273172102 0.024037829495 0.024800289759 0.025556682377 0.026302890236 0.027034437422 0.010357959932 0.010803056503 
0.011266791569 0.01175037692 0.012254738576 0.012780449161 0.013327822116 0.013896882573 0.014487317159 0.015098156675 0.015727863988 
0.01637496103 0.017038625232 0.017719000974 0.018416696865 0.019131720668 0.01986305043 0.020609068007 0.021367502087 0.022135456205 
0.022909726199 0.023686918399 0.024463275294 0.025234827505 0.025996942755 0.026744234965 0.0099343312711 0.0103560492 0.010796655314 
0.011257978992 0.01174078882 0.012245902215 0.012773584968 0.013324080362 0.013897609199 0.014492550622 0.015105817342 0.015734633348 
0.016377541747 0.017035951789 0.017713293288 0.018410942702 0.019127389349 0.019861200076 0.020610410476 0.021371095172 0.022139777311 
0.022913432596 0.023687965317 0.024459691411 0.025224219826 0.0259739715 0.0092892549679 0.0096680551897 0.010068105198 0.010490267946 
0.010933753831 0.011401113567 0.011891078861 0.012403810494 0.012943583025 0.013507075581 0.014086063568 0.014675568181 0.015270866556 
0.015875009734 0.016502479346 0.017157583803 0.017831852067 0.018526457692 0.019243004695 0.019971159224 0.020707844327 0.021453866556 
0.022201121354 0.022948283751 0.023696467038 0.024430725425 0.0077605953407 0.0080220617229 0.0082886937155 0.0085589419633 0.0088352802439 
0.0091245001482 0.0094295853071 0.0097484028231 0.010077289727 0.010409039502 0.010736704432 0.011059709234 0.011381047953 0.011704574838 
0.012034013193 0.012367666531 0.012699825302 0.013030332418 0.013363454689 0.013700296215 0.014038611483 0.014373282 0.014698665874 
0.0150165142 0.015331366685 0.015640668692 0.0087846514713 0.0090835304639 0.009390571366 0.0097055837117 0.010029811823 0.01036537271 
0.010713333438 0.011072795023 0.011441368536 0.011815600681 0.012192437236 0.012570812946 0.012951361446 0.013335349252 0.013723569477 
0.014115208149 0.014508501181 0.014902800499 0.015298476894 0.015695207196 0.016091274525 0.016483934111 0.016870686698 0.017250846653 
0.017624365799 0.017989892098 0.0096059133436 0.0099383272433 0.010280960344 0.010633863644 0.010997552535 0.011372735965 0.011759630528 
0.012157623453 0.012565271143 0.012980719264 0.013402273118 0.013828940453 0.014260464232 0.014696880413 0.015138015117 0.015583169747 
0.016031302559 0.016481514927 0.016933064984 0.017384922656 0.017835473764 0.018282742969 0.0187248009 0.019160232871 0.019587750899 
0.020005887175 0.010261550298 0.010623762105 0.010997704203 0.011383464854 0.011781272873 0.012191316909 0.0126135029 0.013047346352 
0.013491920362 0.013946062077 0.014408625913 0.014878737449 0.015355778772 0.0158392549 0.016328565641 0.016822878992 0.017321192797 
0.017822365104 0.018325261148 0.01882847929 0.019330340924 0.019828986153 0.020322513529 0.020809138547 0.021287130276 0.021754714021 
0.010762623571 0.011150976665 0.011552329489 0.011966802494 0.012394486872 0.012835421293 0.013289447904 0.013756129592 0.014234805758 
0.014724644854 0.015224791494 0.015734392467 0.016252704294 0.016778986024 0.017312412698 0.017852002235 0.018396613054 0.018944962528 
0.019495638044 0.020047020494 0.020597290942 0.021144482608 0.021686550685 0.022221434261 0.022747092484 0.023261482788 0.011107312199 
0.01151810924 0.011943089194 0.012382382693 0.012836074261 0.013304164556 0.013786480654 0.01428268473 0.014792249689 0.015314518364 
0.015848739936 0.016394120683 0.016949853637 0.017515091263 0.018088857787 0.018670050842 0.019257427516 0.019849544833 0.020444777345 
0.021041336205 0.021637228609 0.022230295915 0.022818308615 0.023398924616 0.023969825501 0.024528652944 0.011293868523 0.011723507835 
0.012168424727 0.012628810848 0.013104770754 0.013596360326 0.014103442778 0.014625729282 0.015162790336 0.015714054713 0.016278851039 
0.016856413148 0.017445893924 0.018046395447 0.018656888399 0.019276211661 0.019903001272 0.020535670495 0.021172450988 0.021811372788 
0.022450268189 0.023086778179 0.023718394789 0.024342526109 0.024956551972 0.025557790514 0.011370187393 0.011815197435 0.012276499595 
0.012754373261 0.013249008669 0.013760505448 0.014288806094 0.014833673706 0.015394743234 0.015971487899 0.016563249658 0.017169318162 
0.017788843909 0.01842090281 0.019064505865 0.019718388302 0.02038112628 0.02105109718 0.021726373351 0.02240482213 0.023084084196 
0.023761525635 0.024434411062 0.025099851823 0.025754905072 0.02639653767 0.011377841842 0.011833719514 0.012306785102 0.012797468337 
0.013306063549 0.013832726247 0.014377524145 0.014940267821 0.015520631679 0.016118076349 0.016731961903 0.017361556036 0.018006059187 
0.018664600674 0.019336204834 0.020019686486 0.020713610175 0.021416288058 0.022125668474 0.02283946937 0.023555062734 0.024269679775 
0.024980242708 0.025683572513 0.026376339835 0.027055144147 0.011302588521 0.011763846411 0.012243055358 0.012740790495 0.013257551108 
0.013793615938 0.014349072311 0.014923845772 0.015517603498 0.01612977176 0.016759669114 0.0174064962 0.018069510674 0.018747959714 
0.019441003789 0.020147625736 0.020866464835 0.021595750372 0.022333425699 0.02307696191 0.023823588432 0.024570229284 0.025313570589 
0.026050103946 0.0267760864 0.027487721166 0.011121816673 0.011581829728 0.012060299607 0.012558141318 0.013076019123 0.013614352073 
0.014173350829 0.014752981713 0.015352908466 0.01597246699 0.016610744966 0.017266828425 0.017939969028 0.018629663586 0.01933551137 
0.020056744383 0.020792174728 0.021540072756 0.022298202723 0.023063964125 0.023834321911 0.024606012245 0.025375466255 0.026138790266 
0.026891837886 0.027630159864 0.010811580573 0.011261819893 0.011730927947 0.012220085311 0.01273020974 0.013261879558 0.013815422444 
0.014390874044 0.01498792416 0.015605664632 0.01624267604 0.016897577093 0.017569568321 0.018258717329 0.018965456986 0.019689692864 
0.020430363317 0.021185827058 0.021953775089 0.022731317335 0.023515231066 0.02430205197 0.025088012264 0.025869021931 0.026640444488 
0.027396978511 0.010334157763 0.010763269038 0.011211470255 0.011680585577 0.012171441724 0.012684836582 0.01322109463 0.013780453676 
0.014363002144 0.014967289017 0.015590584316 0.016230404088 0.016885449239 0.017556893439 0.018247541029 0.018958516757 0.019688494814 
0.020435940692 0.021198745709 0.021973191789 0.022755768366 0.023543278763 0.024331655044 0.025116975402 0.025894627944 0.026657368921 
0.0095754191671 0.0099665517587 0.010378365327 0.010812300319 0.01126818393 0.01174794456 0.01225085643 0.012777272856 0.013330072439 
0.01390649645 0.014499965547 0.015106021667 0.015720983257 0.016347569943 0.016996814461 0.017672299767 0.018368082375 0.019084301067 
0.019821180164 0.020570582935 0.021329195114 0.022096288094 0.022865206936 0.023633745632 0.02440086051 0.025153723079 0.0081764637915 
0.008447173997 0.0087243918832 0.0090074207944 0.0092978757857 0.0095993557496 0.0099137280663 0.010239909369 0.010574930037 0.010913789484 
0.01125201186 0.011588790981 0.011925817354 0.012265441873 0.012609434515 0.012956591122 0.013303815792 0.013650675691 0.013999059098 
0.014349431203 0.014699987818 0.015047080411 0.015387164889 0.015720414767 0.016048453969 0.016369836218 0.0091151580764 0.0094213517394 
0.0097362831747 0.010059868281 0.010392970118 0.010736924215 0.011092384074 0.011458625863 0.011833721591 0.012214979571 0.012600027368 
0.012987873395 0.013378743435 0.01377332844 0.014171938529 0.014573837101 0.01497768276 0.015382761485 0.015788935961 0.016195606266 
0.016601196533 0.017003407613 0.017400106631 0.017790272454 0.018173302936 0.018547913339 0.0098986450666 0.010237224555 0.010586290249 
0.01094588831 0.011316392087 0.011698280856 0.012091626254 0.012495873088 0.012909765932 0.013331736268 0.013760319571 0.01419457083 
0.014634103237 0.015078746221 0.015528170194 0.015981645061 0.016438166402 0.016896802551 0.017356670117 0.017816647679 0.01827515136 
0.018730306546 0.019180270378 0.019623530387 0.020058683451 0.020484220322 0.010539454589 0.01090724318 0.01128692564 0.011678586641 
0.012082383353 0.012498439383 0.012926618737 0.013366453086 0.013817090124 0.01427748739 0.014746582165 0.015223517675 0.015707638911 
0.016198365346 0.016695030018 0.017196760082 0.017702527241 0.018211173853 0.018721489831 0.019232043111 0.019741147972 0.020246963746 
0.020747591716 0.021241216201 0.021726056269 0.022200309095 0.01104490982 0.011438695783 0.011845621226 0.01226580508 0.012699314108 
0.013146159498 0.013606166994 0.014078924239 0.014563785164 0.015059971669 0.015566668414 0.016083021864 0.016608277271 0.017141646121 
0.017682271671 0.01822913689 0.018781077636 0.019336775298 0.019894777872 0.02045344206 0.021010936407 0.021565274664 0.022114421964 
0.022656269442 0.023188742569 0.023709784037 0.01141890365 0.011835413184 0.012266249002 0.012711555437 0.013171402686 0.01364577584 
0.014134511871 0.014637267221 0.015153533599 0.01568268059 0.0162239655 0.016776595599 0.017339754267 0.017912569344 0.018494035901 
0.019083030092 0.0196782613 0.020278270109 0.020881419745 0.021485859713 0.022089606203 0.022690455288 0.023286159683 0.023874365517 
0.024452710949 0.025018813185 0.011669257005 0.012105159097 0.01255653402 0.013023548752 0.013506317883 0.014004884734 0.014519121388 
0.015048741734 0.015593327024 0.01615232167 0.016725040525 0.017310742176 0.017908558506 0.018517568322 0.019136722262 0.019764817312 
0.020400476889 0.021042073261 0.021687811649 0.022335687055 0.022983486565 0.023628856434 0.024269248342 0.024902049273 0.025524584166 
0.026134150462 0.011813989696 0.012265741707 0.012734015235 0.013219083492 0.013721135057 0.014240273048 0.014776433151 0.015329401517 
0.015898805133 0.016484131447 0.017084753077 0.017699930163 0.018328819347 0.018970452922 0.019623845563 0.020287680172 0.02096049129 
0.021640627366 0.022326106207 0.023014785963 0.023704259761 0.024391857829 0.025074816725 0.025750219721 0.026415064249 0.027066288155 
0.011867617767 0.012331093548 0.012812050395 0.013310907884 0.013827971184 0.014363378425 0.014917210363 0.015489295917 0.016079314821 
0.016686748747 0.017310980615 0.017951271137 0.018606823239 0.019276734509 0.019959982236 0.020655330869 0.021361301813 0.022076148286 
0.022797791445 0.023523903892 0.024251807788 0.024978686352 0.025701439668 0.026416814903 0.027121479219 0.027811976719 0.011827911797 
0.012298194817 0.01278681703 0.013294343354 0.013821249728 0.01436783106 0.014934166814 0.015520214083 0.016125664494 0.016749987386 
0.017392516699 0.018052511654 0.01872920296 0.019421800255 0.020129379655 0.020850858321 0.021584776164 0.022329342441 0.023082441837 
0.023841463729 0.02460360356 0.025365727365 0.02612447708 0.026876262237 0.027617321104 0.028343798917 0.011681025357 0.012152265491 
0.012642475993 0.01315253757 0.013683081595 0.014234553235 0.014807169883 0.015400908247 0.016015492133 0.016650334182 0.017304622545 
0.017977507698 0.018668271033 0.019376304751 0.02010105012 0.020841613546 0.021596690828 0.02236449091 0.023142701161 0.023928676675 
0.024719313278 0.02551127719 0.02630088742 0.027084184647 0.027856964368 0.028614786105 0.011405174136 0.011870061187 0.012354492717 
0.012859549771 0.013386147636 0.013934885085 0.014506090947 0.015099858907 0.015715890074 0.01635344527 0.017011379839 0.017688544194 
0.018384216259 0.019098199493 0.019830598279 0.02058097078 0.021348214008 0.02213055017 0.022925616035 0.023730480835 0.024541843763 
0.025356111808 0.026169396085 0.026977430104 0.027775488087 0.028558391501 0.010964986793 0.011414477443 0.011883787746 0.012374633318 
0.012887947444 0.013424516071 0.013984790268 0.014568978 0.015177005686 0.015807786504 0.016459367773 0.017129914291 0.017818454439 
0.018525608143 0.01925291513 0.020000892932 0.020768418931 0.021553767299 0.022354597562 0.023167484702 0.023988860394 0.024815084446 
0.025642043534 0.026465422778 0.027280098244 0.028079510046 0.010305835498 0.01072829603 0.011171218019 0.011636611465 0.012125291383 
0.012638302442 0.013175856227 0.013738418514 0.014326955921 0.014939723487 0.015572936366 0.016223491179 0.016889370067 0.017572392954 
0.018277987837 0.019008192649 0.019760501567 0.020533678318 0.021326029511 0.022132460331 0.022949277725 0.023773570954 0.024600347579 
0.025425817574 0.026245801557 0.027050848511 0.0087524003747 0.0090365558789 0.0093284071227 0.0096277382364 0.0099353902333 0.010252906038 
0.010581126907 0.010919376247 0.011265607397 0.011616769078 0.011970234925 0.012325148787 0.012682077284 0.0130419943 0.013405378286 
0.013771405825 0.014138503691 0.014506079019 0.01487442095 0.015243254662 0.015611115342 0.015975590165 0.016334414101 0.016686815522 
0.017032636828 0.01737078117 0.0095917545783 0.0099089926223 0.010235575546 0.010571484612 0.01091719996 0.011273383385 0.011640274821 
0.012017268757 0.01240294006 0.012795372231 0.013192869427 0.013594519989 0.014000144337 0.014409859585 0.014823518519 0.015240424865 
0.015659534987 0.016080042422 0.016501347788 0.016922592575 0.017342283068 0.017758534943 0.01816951425 0.018573934638 0.018970731353 
0.01935860928 0.010322199091 0.010670341799 0.011029298708 0.011399104608 0.011779988394 0.01217217009 0.012575587627 0.012989723714 
0.013413563232 0.013845847389 0.014285370444 0.014731245237 0.015182939478 0.015640056716 0.016102075119 0.016568212944 0.017037497501 
0.017508894954 0.017981399865 0.018453771784 0.018924445983 0.019391655081 0.019853614516 0.020308726077 0.020755458071 0.021192227733 
0.010940121677 0.011316692519 0.011705393283 0.012106291205 0.012519477047 0.012944989531 0.013382640781 0.013831981865 0.014292272807 
0.014762588284 0.015241987515 0.015729628448 0.016224800952 0.016726833028 0.017234957777 0.017748250897 0.018265636541 0.018785912906 
0.01930779569 0.019829794924 0.020350203315 0.020867200803 0.021378883745 0.021883388767 0.022378872155 0.022863483146 0.011446115703 
0.011848472584 0.012264195472 0.012693382781 0.013136080425 0.013592257114 0.014061723484 0.014544085466 0.015038747883 0.015544989847 
0.016062022211 0.016589020969 0.017125194189 0.017669696914 0.018221625922 0.01877991476 0.019343344643 0.019910561403 0.020480052666 
0.021050143188 0.021618965004 0.022184518183 0.022744727631 0.023297471983 0.023840612784 0.024372029171 0.011842540018 0.012267895978 
0.012707819268 0.013162448123 0.013631842759 0.014115981271 0.014614684126 0.015127628245 0.015654324279 0.016194157004 0.016746418265 
0.017310307523 0.017884981689 0.018469544512 0.019062950818 0.019664019641 0.020271437563 0.0208836846 0.021499056619 0.022115704034 
0.022731581152 0.023344457937 0.023952041072 0.024551948946 0.02514176384 0.025719053472 0.012134390837 0.012579797509 0.013040961874 
0.013518053869 0.014011193762 0.014520395281 0.015045548894 0.015586372855 0.01614246421 0.016713276132 0.017298137939 0.017896288286 
0.018506867111 0.019128910123 0.019761329519 0.02040287052 0.021052103365 0.02170737619 0.022366825094 0.023028411983 0.023689868151 
0.024348787704 0.02500261001 0.025648638483 0.026284154991 0.026906427287 0.012329105427 0.012791376424 0.013270521826 0.013766826046 
0.014280472721 0.014811557095 0.015360016321 0.01592565743 0.016508112717 0.017106895384 0.017721374032 0.018350810431 0.018994340653 
0.019650994037 0.0203196631 0.020999059171 0.021687623174 0.02238364144 0.023085111733 0.023789764656 0.024495199415 0.025198665595 
0.025897378974 0.026588324084 0.027268457713 0.02793469205 0.012431955272 0.012907452434 0.013400909338 0.013912702516 0.014443162833 
0.014992420421 0.015560558729 0.016147427363 0.016752711351 0.017375947027 0.01801652705 0.018673712855 0.019346685986 0.020034515633 
0.020736078066 0.021450107236 0.02217502887 0.022909021423 0.023649946502 0.024395412847 0.025142685516 0.025888833929 0.026630733512 
0.027365075844 0.028088398951 0.02879725265 0.012441465667 0.012926005368 0.013429481155 0.013952446563 0.014495363839 0.01505853891 
0.015642040412 0.016245880775 0.016869768517 0.017513238889 0.018175655964 0.018856328894 0.019554464881 0.020269205518 0.020999527054 
0.02174421943 0.022501743228 0.023270209442 0.024047389937 0.024830627642 0.025617023673 0.026403367245 0.027186181995 0.02796180688 
0.028726404986 0.029476050231 0.012349096309 0.012837827343 0.013346330653 0.013875414597 0.014425725268 0.014997682806 0.015591540213 
0.016207304201 0.016844771621 0.017503442544 0.018182648403 0.018881610658 0.01959961853 0.020335942333 0.021089821017 0.021860193545 
0.022645592503 0.023444105112 0.024253334462 0.025070522741 0.025892465114 0.026715715716 0.027536467994 0.028350628781 0.029153893977 
0.029941821011 0.012140649033 0.012627789512 0.013135533188 0.013664832026 0.014216585485 0.014791399234 0.015389653421 0.016011473009 
0.016656641364 0.017324618001 0.018014559156 0.018725575295 0.019456961254 0.020208315035 0.02097927095 0.021769073155 0.022576431582 
0.023399409862 0.024235505778 0.02508173547 0.02593465404 0.026790510831 0.027645187615 0.028494230401 0.02933276435 0.030155679308 
0.011796841442 0.012275875251 0.012776025753 0.013298809459 0.013845198913 0.014416023943 0.015011816262 0.015632806252 0.016278927784 
0.016949463362 0.017643195304 0.018358926393 0.019095954865 0.019854325848 0.020634479668 0.0214362368 0.022258441942 0.023099147824 
0.023955800594 0.024825073251 0.025703256807 0.0265863575 0.027469950948 0.028349330073 0.02921899894 0.030072878633 0.011299379079 
0.011763059297 0.01224837378 0.012757280829 0.013291024523 0.01385048084 0.014436282748 0.015048901229 0.015688560287 0.016354349781 
0.017044406926 0.017756963315 0.018491015092 0.01924742385 0.020028081651 0.020833676834 0.021662928233 0.022513963891 0.0233842326 
0.024269876367 0.025166882615 0.026071212374 0.026978091825 0.027882544894 0.028778823934 0.029659359958 0.0094165792822 0.0097165973605 
0.010025111942 0.010342070367 0.010667832034 0.011002947286 0.011347620579 0.011701287543 0.012062606809 0.012429749577 0.012801113447 
0.013175894923 0.013553962037 0.013935432883 0.014320137986 0.014707377373 0.015096155386 0.015485736303 0.015875635833 0.01626508911 
0.016652787174 0.017036977392 0.017415950503 0.017788538237 0.01815382142 0.018510669025 0.010169619406 0.010500469604 0.010841162026 
0.011191695496 0.011552274679 0.011923138337 0.012304236009 0.012695046982 0.013094516054 0.013501314689 0.013914214786 0.014332365227 
0.014755317613 0.015182760524 0.015614244078 0.016049028634 0.0164861797 0.016924767556 0.017363922549 0.01780256601 0.01823925232 
0.018672332359 0.019100130906 0.019521217363 0.019934246418 0.020337851009 0.010847870205 0.011208170754 0.011579621648 0.011962244029 
0.012356127064 0.012761314728 0.013177632227 0.013604606355 0.014041412568 0.014487061007 0.014940548861 0.015401037878 0.015867880052 
0.016340489213 0.016818175498 0.017300086538 0.017785218921 0.018272461571 0.018760675093 0.019248518899 0.019734426396 0.020216689446 
0.020693548819 0.021163339454 0.021624409592 0.022075111139 0.011440808626 0.011828779962 0.012229155901 0.012641988788 0.013067308281 
0.013505069931 0.013955075349 0.014416867726 0.014889811235 0.015373096125 0.015865879996 0.016367337827 0.016876714723 0.017393230631 
0.017916039248 0.018444136309 0.018976393622 0.019511542668 0.02004822364 0.020584881154 0.021119783062 0.021651100745 0.022176917203 
0.022695299803 0.023204353617 0.023702157881 0.011944112853 0.012357694999 0.012784925628 0.013225887593 0.01368060234 0.01414900971 
0.014630893966 0.015125885871 0.015633425892 0.01615286513 0.016683424038 0.017224302143 0.017774674544 0.01833365705 0.018900263891 
0.019473362308 0.020051693211 0.020633842987 0.021218233823 0.021803123436 0.022386623595 0.02296669712 0.023541226698 0.024108032248 
0.024664947881 0.025209757979 0.012356934403 0.012793877781 0.013245714287 0.013712551297 0.014194449067 0.014691381815 0.015203158607 
0.015729462404 0.016269829581 0.01682366625 0.017390280861 0.017968869848 0.018558571686 0.019158442648 0.019767379843 0.020384169733 
0.02100741746 0.021635555117 0.022266818285 0.022899314058 0.023530928188 0.024159412672 0.024782392259 0.025397437335 0.026002098942 
0.026593858512 0.012680773828 0.013138618965 0.013612586048 0.01410287315 0.014609578222 0.015132698344 0.015672135814 0.016227626046 
0.016798761769 0.01738501449 0.017985720889 0.018600127398 0.019227345383 0.019866345836 0.020516017724 0.02117503718 0.021841910946 
0.022514943665 0.023192184206 0.023871558837 0.024550734246 0.025227200259 0.025898404292 0.026561561298 0.027213884145 0.0278525699 
0.012918230258 0.013394288047 0.013887693538 0.014398718078 0.014927559875 0.015474289746 0.016038866689 0.016621099263 0.017220652397 
0.017837023659 0.018469607514 0.019117643573 0.019780262415 0.020456445487 0.021145013711 0.021844614168 0.022553649763 0.023270292958 
0.02399248821 0.024717878618 0.025443984648 0.026168051234 0.026887126796 0.027598201994 0.028298126366 0.028983739386 0.013070916318 
0.013562163098 0.014071969326 0.014600710743 0.01514868841 0.015716067342 0.016302912457 0.016909091245 0.017534328388 0.018178170992 
0.018840026192 0.019519187989 0.020214779444 0.020925821933 0.021651136415 0.022389325893 0.023138760829 0.023897498428 0.024663336489 
0.025433804509 0.026206059455 0.026977087449 0.027743676802 0.02850242723 0.02924981048 0.029982282471 0.013137527204 0.013640582752 
0.014163343257 0.014706357786 0.015270044601 0.015854734782 0.016460525137 0.017087419241 0.017735188904 0.018403428491 0.019091549787 
0.019798853559 0.020524540819 0.021267663286 0.022027128181 0.02280155587 0.023589281777 0.024388316355 0.025196299673 0.026010497025 
0.026827899828 0.027645176151 0.028458728612 0.029264802573 0.030059436628 0.03083862986 0.013113385559 0.013624472685 0.014156335624 
0.014709737748 0.015285292112 0.015883439186 0.016504449414 0.017148390563 0.01781510323 0.018504192269 0.019215101296 0.019947137374 
0.020699550183 0.02147150825 0.022262043399 0.023069918616 0.023893451446 0.024730607411 0.025578875422 0.026435336192 0.027296675339 
0.028159275438 0.029019163364 0.029872112944 0.030713724223 0.031539467688 0.012991715711 0.013506557401 0.014043290407 0.014602797032 
0.015185932342 0.015793331736 0.016425397097 0.017082308529 0.017763982118 0.018470037682 0.019199878868 0.019952808051 0.020728126194 
0.021525231311 0.022343377183 0.023181507202 0.024038076251 0.024910958657 0.025797519681 0.026694584096 0.027598585707 0.028505530118 
0.02941111688 0.030310608958 0.031199019343 0.032071211367 0.012765785016 0.013279965277 0.013816941072 0.014378057374 0.014964248018 
0.015576390209 0.016215082338 0.016880645266 0.017573076158 0.018292017716 0.019036787373 0.019806591056 0.020600837675 0.02141918428 
0.022261373795 0.023126570248 0.024013406361 0.024919718424 0.025842732365 0.026779013634 0.027724663529 0.0286753317 0.029626281391 
0.030572360662 0.031507916131 0.032426983247 0.012435102002 0.012944316344 0.013477232023 0.014035516256 0.014620511813 0.015233144778 
0.01587423111 0.016544306563 0.017243553148 0.017971619287 0.018727659765 0.019510807014 0.020320480455 0.02115682987 0.022020112464 
0.022910056912 0.023825314022 0.024763727202 0.025722376396 0.026697522665 0.027684927145 0.028679881267 0.029677198293 0.030671196292 
0.031655536369 0.032623256693 0.010127877393 0.010444877404 0.010770905666 0.011105924911 0.011450041489 0.011803360417 0.012165768243 
0.012536756087 0.012915398858 0.013300518823 0.013691032784 0.014086171803 0.014485471161 0.014888578127 0.015295008284 0.015704030652 
0.016114780534 0.016526377904 0.01693800137 0.017348645728 0.017757015008 0.018161623364 0.018560958192 0.018953705422 0.01933863535 
0.01971451631 0.010814133293 0.011160169846 0.011516448292 0.011882948147 0.012259712105 0.012646741333 0.013043832541 0.013450511097 
0.01386597127 0.014289248334 0.01471937955 0.015155568764 0.015597198524 0.016043698235 0.016494416053 0.016948533831 0.017405099073 
0.01786309394 0.018321455355 0.018778969039 0.019234191155 0.019685556378 0.020131458526 0.020570369329 0.021000813803 0.021421304549 
0.011448633177 0.011822937684 0.012208707837 0.012605950764 0.013014663186 0.013434775128 0.013866048825 0.014308031734 0.014760051625 
0.015221284898 0.015690878555 0.016168022206 0.016651991034 0.017142053115 0.0176373989 0.018137078216 0.01864003355 0.019145081591 
0.019650968297 0.02015626715 0.02065938884 0.021158631978 0.021652244847 0.022138472949 0.022615598297 0.023081890945 0.012019321774 
0.012420692983 0.012834773297 0.013261596813 0.013701139108 0.01415331367 0.014617881062 0.015094419453 0.015582346606 0.016080954798 
0.016589462826 0.017107068196 0.017632951877 0.018166268839 0.018706084159 0.019251313865 0.019800768675 0.020353109058 0.02090689454 
0.021460510912 0.02201217952 0.022560047914 0.023102164078 0.023636546173 0.024161211124 0.024674188671 0.012519449413 0.012946394361 
0.013387316428 0.013842270603 0.014311265625 0.014794213689 0.015290891589 0.015800928185 0.016323823642 0.016858939529 0.017405551955 
0.017962847729 0.018529969955 0.019105985754 0.019689833694 0.020280340644 0.020876159198 0.021475813651 0.022077654511 0.02267990033 
0.023280602768 0.02387767042 0.024468945196 0.025052191912 0.025625163797 0.026185587136 0.012945810226 0.013396607833 0.013862671406 
0.014344102292 0.014840939495 0.015353146158 0.015880540481 0.016422800591 0.016979477226 0.017550000383 0.01813368699 0.018729735665 
0.019337247472 0.019955221275 0.020582522076 0.021217860059 0.021859784931 0.022506654126 0.023156647603 0.023807785451 0.024457927959 
0.025104735114 0.025745814892 0.026378643026 0.027000697986 0.02760940369 0.013297460321 0.013770183318 0.014259474572 0.014765525356 