# vtk DataFile Version 5.1
vtk output
ASCII
DATASET STRUCTURED_POINTS
DIMENSIONS 60 20 20
SPACING 0.05 0.05 0.05
ORIGIN -0.475 -0.475 0.525
POINT_DATA 24000
FIELD FieldData 1
potential 1 24000 double
0.0010305356082 0.0010190701336 0.0010078035454 0.00099673255823 0.00090766159224 0.00089920451604 0.00089087373003 0.00088266962881 0.00087459269984 
0.00086664359757 0.00085882162779 0.00085112583855 0.00084355554899 0.00083610915155 0.00082878495413 0.00082158126737 0.00081449441358 0.00080751997089 
0.00080065437907 0.00079389257567 0.0007872309712 0.00078066581495 0.00077419279259 0.00076780634579 0.00076150176101 0.00075527230815 0.00074911121969 
0.00074301186472 0.00073697052015 0.00073098341519 0.00072505116948 0.00071917502947 0.00071335803142 0.00070760396185 0.00070309540111 0.00069745711415 
0.00069189378393 0.00068640698605 0.00068099757988 0.00067566695915 0.00067041586019 0.00066524436644 0.00066015271407 0.00065513967541 0.00065020350297 
0.00064534289767 0.00064055584872 0.00063584109383 0.00063119713267 0.00062662234428 0.00062211396184 0.00061766949552 0.00061328534262 0.00060895775391 
0.00060468353143 0.00060046175661 0.00059629141981 0.00059217511813 0.00058811603652 0.00058411890905 0.001021805141 0.0010104570976 0.00099930694233 
0.00098835131873 0.00090381207968 0.00089537321058 0.00088706229232 0.00087887997163 0.00087082587246 0.00086290070869 0.00085510337308 0.00084743285151 
0.00083988836307 0.00083246827982 0.00082517138734 0.00081799401469 0.00081093333542 0.00080398519686 0.00079714473644 0.00079040797305 0.00078377054542 
0.00077722970852 0.00077078063056 0.00076441897324 0.00075813920725 0.0007519351096 0.00074579994944 0.0007397276834 0.0007337144378 0.00072775687305 
0.00072185469907 0.00071600991687 0.00071022494948 0.00070450289402 0.00070012872076 0.0006945203421 0.00068898575848 0.00068352558353 0.00067814136567 
0.00067283425634 0.00066760473339 0.00066245319552 0.0006573788865 0.00065238102778 0.00064745811612 0.00064260818006 0.00063782985211 0.00063312156122 
0.00062848239728 0.00062391050047 0.0006194040583 0.00061496010961 0.00061057550618 0.00060624678114 0.00060197090178 0.00059774680963 0.00059357444974 
0.00058945510753 0.00058539308218 0.00058139217023 0.0010128110262 0.0010015829437 0.00099055232364 0.00097971496196 0.00089961962261 0.0008912068304 
0.00088292435034 0.00087477149848 0.000866748274 0.00085885405439 0.00085108837556 0.00084344972545 0.00083593726471 0.00082854924279 0.00082128353076 
0.00081413718118 0.00080710649981 0.00080018755403 0.00079337590734 0.00078666735745 0.00078005866336 0.00077354534349 0.00076712391878 0.00076078964099 
0.00075453747737 0.00074836181679 0.00074225607947 0.00073621444038 0.00073023296732 0.00072430895688 0.00071844144517 0.00071263242074 0.00070688409904 
0.00070119872799 0.00069696511535 0.00069139088011 0.00068588823473 0.00068045829004 0.00067510253513 0.00066982139203 0.00066461573767 0.00065948572923 
0.00065443041452 0.00064944899348 0.00064454013817 0.00063970186972 0.00063493316542 0.00063023278361 0.0006255993466 0.00062103155468 0.00061652727642 
0.00061208448002 0.00060770011191 0.00060337104476 0.00059909438202 0.00059486919377 0.00059069552865 0.00058657520747 0.0005825116701 0.00057850871562 
0.0010037048887 0.00099259798446 0.00098168771787 0.00097097067056 0.00089522754933 0.0008868472569 0.00087859909832 0.00087048186962 0.0008624955599 
0.00085463790652 0.0008469087064 0.00083930702525 0.00083183058072 0.00082447759495 0.00081724650977 0.00081013417081 0.000803136749 0.00079624986339 
0.00078946968056 0.00078279242352 0.00077621441766 0.00076973120208 0.00076333975704 0.00075703583102 0.00075081405916 0.00074466896031 0.00073859506455 
0.00073258692853 0.00072663992271 0.00072075211421 0.00071492299165 0.00070915346458 0.00070344457207 0.00069779930992 0.0006937121909 0.00068817465281 
0.00068270613463 0.00067730872679 0.00067198297402 0.00066672942008 0.00066154853639 0.00065644069805 0.00065140530623 0.00064644114675 0.0006415465934 
0.00063672079872 0.00063196214274 0.00062726982381 0.00062264224093 0.00061807871236 0.000613577492 0.00060913603828 0.00060475184402 0.00060042253072 
0.00059614563378 0.00059191973787 0.00058774546276 0.0005836247756 0.00057956044409 0.00057555582382 0.00099848567242 0.00098730057522 0.000976321602 
0.00096554688485 0.00089481976479 0.00088621343629 0.00087774031382 0.00086940009005 0.00086119120913 0.00085311194189 0.00084516261521 0.00083734088371 
0.00082964599673 0.00082207573528 0.00081462902123 0.00080730288168 0.00080009466504 0.00079300072001 0.00078601806552 0.0007791436542 0.00077237522005 
0.00076570932467 0.00075914290555 0.00075267349116 0.00074629725697 0.00074000951934 0.00073380667046 0.00072768475221 0.00072164114371 0.00071567460408 
0.00070978600603 0.00070397739313 0.00069825067315 0.00069260933271 0.00069145963859 0.00068593389015 0.00068050185659 0.00067516320808 0.00066991648073 
0.00066476092716 0.00065969503577 0.00065471761332 0.00064982628032 0.00064501878087 0.00064029187567 0.00063564280613 0.00063106927396 0.00062656836726 
0.00062213742087 0.0006177732936 0.00061347354621 0.00060923382113 0.00060505012639 0.00060091891576 0.00059683612712 0.00059279942612 0.00058880727928 
0.000584859512 0.00058095725484 0.00057710133584 0.00099211864758 0.00098106264216 0.00097021140531 0.00095956255608 0.00089054514799 0.00088199916343 
0.00087358678406 0.00086530714103 0.00085715753423 0.00084913683268 0.00084124423135 0.0008334780677 0.00082583652722 0.0008183175311 0.00081091961741 
0.00080364067021 0.00079647716204 0.00078942649928 0.00078248540005 0.00077565130031 0.00076892112516 0.00076229230847 0.00075576236916 0.00074932801422 
0.00074298565995 0.00073673165219 0.00073056225277 0.00072447427809 0.00071846512373 0.00071253420009 0.00070668159023 0.00070090893502 0.00069521834301 
0.00068961201664 0.00068817009212 0.00068267611318 0.0006772739409 0.00067196287285 0.00066674181774 0.00066160967577 0.0006565646819 0.00065160572734 
0.00064673110588 0.00064193778106 0.00063722328913 0.00063258505021 0.0006280211795 0.00062352814064 0.00061910384391 0.00061474557684 0.00061045039583 
0.00060621461912 0.00060203485279 0.0005979071946 0.00059382901367 0.0005897973832 0.00058581142488 0.00058187057617 0.00057797567554 0.00057412753705 
0.00098599181118 0.00097506247448 0.00096433673116 0.00095381131821 0.00088647335813 0.00087798525089 0.0008696312526 0.00086140846215 0.00085331543709 
0.00084535077048 0.00083751209265 0.00082979828969 0.00082220732173 0.00081473698904 0.0008073857288 0.00080015106608 0.0007930302059 0.00078602058512 
0.00077911924681 0.00077232345343 0.00076563045214 0.00075903766202 0.00075254252093 0.00074614175119 0.00073983257977 0.00073361086849 0.00072747382845 
0.00072141841528 0.00071544276353 0.0007095459713 0.00070372781142 0.00069798950447 0.00069233281332 0.00068675995038 0.00068502792149 0.00067956430963 
0.00067419083236 0.00066890616301 0.00066370967424 0.00065859970947 0.000653575039 0.000648634033 0.00064377503442 0.000638995469 0.000634293451 
0.000629666316 0.00062511161907 0.00062062684766 0.0006162098093 0.0006118578013 0.00060756774497 0.00060333667673 0.00059916125771 0.00059503818075 
0.00059096483828 0.00058693915535 0.00058295987579 0.0005790262671 0.00057513885523 0.00057129843022 0.00098017887219 0.00096937350036 0.0009587694006 
0.00094836327317 0.00088267154273 0.00087423768642 0.00086593763771 0.00085776870248 0.00084972834149 0.00084181504942 0.00083402705106 0.00082636213816 
0.00081881809264 0.00081139330199 0.00080408548379 0.00079689261373 0.0007898119142 0.00078284116 0.00077597733314 0.00076921786576 0.00076256020249 
0.00075600149145 0.00074953969176 0.00074317126067 0.00073689365177 0.00073070318078 0.00072459725844 0.00071857309338 0.00071262894409 0.00070676427871 
0.0007009781262 0.00069527195296 0.00068964685205 0.00068410449995 0.00068208373554 0.00067664808232 0.00067130101057 0.00066604140791 0.00066086748018 
0.00065577841322 0.00065077274169 0.00064584847838 0.00064100443673 0.00063623836465 0.00063154833865 0.00062693184416 0.00062238652171 0.00061791016287 
0.00061350029524 0.00060915472551 0.00060487038374 0.00060064450136 0.00059647394779 0.00059235601563 0.00058828806726 0.00058426823944 0.00058029554705 
0.00057636883642 0.00057248898029 0.00056865588662 0.00097472896589 0.00096404367688 0.00095355728402 0.00094326690319 0.00087918348521 0.00087080000627 
0.00086254939296 0.00085442957128 0.00084643739582 0.00083857133311 0.00083082951369 0.00082320906692 0.00081570808438 0.00080832540215 0.00080105789878 
0.00079390387585 0.00078686089848 0.00077992620988 0.00077309753019 0.00076637254709 0.00075974808854 0.00075322221501 0.00074679153416 0.00074045413697 
0.00073420641194 0.0007280458345 0.0007219692911 0.0007159749545 0.00071006046319 0.00070422540484 0.00069846907862 0.00069279181837 0.00068719561038 
0.00068168043315 0.0006793706597 0.00067396068524 0.00066863777663 0.00066340043658 0.0006582475781 0.00065317714665 0.00064818884502 0.00064328038488 
0.00063845058466 0.00063369719335 0.00062901832678 0.00062441194574 0.00061987604097 0.00061540792273 0.00061100576133 0.00060666662745 0.00060238843419 
0.00059816803412 0.000594002763 0.00058989018579 0.00058582794741 0.00058181398713 0.00057784745239 0.0005739274478 0.00057005382879 0.00056622737975 
0.00096967130051 0.00095910228039 0.00094872938078 0.00093854963816 0.00087603505911 0.00086769674428 0.0008594911941 0.00085141537252 0.00084346701895 
0.00083564334636 0.00082794283051 0.00082036275103 0.00081290119135 0.00080555613505 0.00079832547678 0.00079120697951 0.00078419812684 0.00077729743692 
0.00077050188148 0.00076380886295 0.00075721615605 0.00075072055816 0.00074432024571 0.00073801203828 0.00073179327997 0.0007256612496 0.00071961290174 
0.00071364613569 0.00070775925631 0.0007019512832 0.00069622146149 0.00069057067188 0.0006849994732 0.00067950849463 0.00067690873122 0.00067152172163 
0.00066622031747 0.00066100292368 0.00065586846647 0.00065081529485 0.00064584235561 0.00064094805333 0.00063613098426 0.00063138900094 0.00062672106261 
0.00062212465817 0.00061759771941 0.0006131378846 0.00060874305249 0.00060441121496 0.000600139158 0.00059592492422 0.00059176556692 0.00058765884706 
0.00058360198731 0.00057959392781 0.00057563301971 0.00057171855345 0.00056785059837 0.00056402919799 0.00096501871121 0.00095456175579 0.00094429825941 
0.00093422450295 0.00087323640943 0.00086493845026 0.00085677268334 0.00084873620915 0.00084082628876 0.0008330406509 0.00082537692853 0.00081783283308 
0.00081040607781 0.00080309520858 0.00079589782684 0.0007888115789 0.00078183461656 0.00077496463636 0.00076819992766 0.00076153704287 0.00075497373161 
0.00074850743722 0.00074213579003 0.00073585542661 0.0007296641195 0.00072355840827 0.00071753665865 0.00071159638977 0.00070573467699 0.00069995148262 
0.00069424558346 0.00068861778285 0.00068306814211 0.00067759781434 0.00067470680751 0.00066933988376 0.00066405704926 0.00065885724912 0.00065373872301 
0.00064870068592 0.00064374151584 0.00063885982618 0.00063405428613 0.00062932323871 0.00062466507606 0.00062007811249 0.0006155599476 0.00061110815903 
0.00060672135677 0.0006023965856 0.00059813136933 0.00059392347241 0.00058976991476 0.00058566903016 0.00058161814925 0.00057761535181 0.00057365964332 
0.00056974996958 0.00056588654934 0.00056206904537 0.00096077008961 0.0009504217824 0.00094026301318 0.00093029036712 0.00087078480303 0.00086252246585 
0.00085439209775 0.0008463899267 0.00083851359179 0.00083076103447 0.00082312988311 0.00081561725006 0.00080822185261 0.00080094136518 0.00079377341 
0.0007867160861 0.00077976860981 0.00077292743856 0.00076619051427 0.00075955548648 0.00075302012607 0.0007465815444 0.0007402368679 0.00073398332291 
0.00072781813793 0.00072173807154 0.00071574096057 0.00070982481559 0.00070398630979 0.00069822526632 0.00069254049928 0.00068693258506 0.00068140134628 
0.00067594858331 0.00067276449005 0.00066741463557 0.00066214796942 0.00065696334567 0.00065185844906 0.0006468332324 0.00064188606435 0.0006370152284 
0.00063221990826 0.00062749909452 0.00062285028149 0.00061827192479 0.00061376207833 0.00060931872065 0.00060493973068 0.00060062240679 0.0005963644634 
0.00059216317564 0.00058801612061 0.00058392091293 0.00057987581487 0.0005758778792 0.00057192676843 0.00056802107632 0.0005641609729 0.0005603462747 
0.00095691179294 0.00094666816344 0.00093661032401 0.00092673473584 0.00086866556546 0.00086043497563 0.00085233476182 0.00084436226411 0.00083651548066 
0.00082879170945 0.00082118868101 0.0008137039608 0.00080633568457 0.00079908163515 0.0007919403312 0.00078491006782 0.00077798801209 0.00077117319729 
0.00076446230042 0.00075785364395 0.00075134420215 0.00074493169606 0.00073861295987 0.0007323848263 0.00072624454238 0.00072018902676 0.00071421518524 
0.00070832106511 0.00070250393847 0.00069676282742 0.00069109647965 0.00068550537739 0.00067998975265 0.00067455079153 0.00067107157564 0.000665736519 
0.00066048328097 0.00065531110776 0.00065021830457 0.00064520400134 0.00064026679765 0.00063540586466 0.00063062009837 0.00062590769826 0.00062126763163 
0.00061669750531 0.00061219604403 0.00060776073698 0.00060338972613 0.00059908024104 0.00059482975336 0.00059063561697 0.0005864954507 0.00058240621056 
0.00057836638495 0.000574373405 0.00057042622699 0.00056652380437 0.00056266591929 0.00055885310334 0.00095341611606 0.00094327315487 0.00093331244275 
0.00092352987272 0.00086684929578 0.0008586464904 0.00085057316714 0.00084262624523 0.00083480458314 0.00082710584738 0.00081952725738 0.00081206697132 
0.00080472284137 0.00079749279705 0.0007903749226 0.00078336810623 0.0007764706113 0.00076967932593 0.00076299262322 0.00075640849614 0.00074992377073 
0.00074353580584 0.00073724144852 0.00073103775952 0.00072492090811 0.00071888838308 0.00071293710196 0.00070706367305 0.00070126575078 0.0006955423857 
0.00068989179169 0.00068431446083 0.00067881179997 0.00067338473248 0.00066960821548 0.00066428516461 0.00065904368084 0.00065388182789 0.00064879910609 
0.00064379430266 0.00063886593279 0.00063401336461 0.00062923564506 0.00062453173541 0.00061989934171 0.00061533739821 0.00061084408354 0.00060641708596 
0.00060205390087 0.00059775242156 0.00059350981819 0.000589322999 0.0005851896498 0.00058110726214 0.00057707271975 0.00057308414103 0.00056914054079 
0.00056524039897 0.00056138394326 0.00055757209451 0.00095023528118 0.00094019054732 0.00093032292766 0.00092062922338 0.00086529038531 0.00085711202858 
0.00084906164868 0.00084113781685 0.00083333834197 0.00082566173285 0.0008181046015 0.00081066612668 0.00080334332592 0.00079613434386 0.00078903825746 
0.00078205287057 0.00077517638188 0.00076840742718 0.00076174388273 0.0007551829918 0.00074872139227 0.00074235678082 0.0007360858874 0.00072990491779 
0.00072381108361 0.00071780074133 0.00071187033275 0.00070601634132 0.00070023610854 0.0006945279162 0.00068889110267 0.00068332591023 0.00067783383325 
0.0006724159955 0.00066834113623 0.0006630282746 0.00065779651151 0.00065264373708 0.00064757002567 0.00064257318975 0.00063765260456 0.00063280777504 
0.00062803752984 0.00062334044728 0.00061871587768 0.00061416223285 0.00060967709422 0.00060525810492 0.00060090336698 0.00059661008355 0.00059237522851 
0.00058819647063 0.00058407054042 0.00057999458915 0.0005759656552 0.00057198147461 0.00056804066692 0.00056414244041 0.00056028719556 0.00055647572785 
0.00094730130611 0.00093735178064 0.00092757472024 0.0009179669423 0.00086392160371 0.00085576558656 0.00084773639458 0.00083983308387 0.00083205428677 
0.00082439681071 0.00081686015358 0.00080944091927 0.00080213792521 0.00079494896464 0.00078787211625 0.00078090677246 0.00077405098481 0.00076730339111 
0.00076066146533 0.00075412235208 0.00074768312688 0.0007413413879 0.00073509276353 0.00072893414019 0.00072286220033 0.00071687276301 0.00071096185218 
0.00070512623132 0.00069936221626 0.0006936682191 0.00068804347806 0.00068248912445 0.00067700600982 0.00067159618823 0.00066722119921 0.00066191803669 
0.00065669458483 0.0006515503992 0.00064648410473 0.0006414949462 0.00063658172773 0.00063174386752 0.00062698055477 0.00062229112824 0.00061767458721 
0.00061312876541 0.00060865175052 0.00060424132174 0.00059989541969 0.00059561057481 0.00059138420007 0.00058721352475 0.00058309523259 0.00057902590509 
0.00057500278243 0.00057102292153 0.00056708510059 0.00056318873121 0.00055933473843 0.00055552336178 0.00094452091621 0.00093466491414 0.00092497669534 
0.00091545350012 0.0008626539096 0.00085451981747 0.00084651109486 0.00083862754 0.00083086775866 0.0008232303928 0.00081571245823 0.00080831218898 
0.00080102792261 0.00079385782231 0.00078680020027 0.00077985421787 0.00077301845242 0.00076629169891 0.00075967079054 0.00075315351827 0.0007467362229 
0.00074041637901 0.00073418976188 0.00072805296575 0.00072200188157 0.0007160324438 0.00071014031237 0.00070432144184 0.00069857314486 0.00069289268846 
0.00068727963427 0.00068173547187 0.00067626144596 0.00067085914048 0.00066618332715 0.00066088933836 0.00065567470637 0.00065053845536 0.00064547993658 
0.00064049803377 0.00063559210271 0.00063076150645 0.00062600573225 0.00062132400216 0.00061671562812 0.00061217833162 0.00060771024707 0.00060330883528 
0.00059897178282 0.00059469615047 0.00059047875161 0.00058631653442 0.00058220589541 0.00057814347186 0.00057412612162 0.00057015121169 0.00056621689643 
0.00056232319622 0.00055847082699 0.00055466086262 0.00094177897465 0.0009320151256 0.00092241489208 0.00091297697887 0.00086137553808 0.00085326425864 
0.0008452772407 0.00083741431184 0.00082967454311 0.000822056924 0.00081455869503 0.00080717786986 0.00079991327328 0.00079276285625 0.0007857251468 
0.00077879921499 0.00077198432729 0.00076527822199 0.00075867874547 0.00075218323886 0.00074578827579 0.00073949019923 0.00073328548367 0.00072716971028 
0.00072113911787 0.00071518890235 0.00070931502819 0.00070351335202 0.00069778036812 0.0006921134003 0.00068651314434 0.00068097960929 0.00067551490685 
0.00067012119872 0.00066514494324 0.00065986046566 0.00065465528868 0.00064952791312 0.00064447783249 0.00063950440697 0.00063460690332 0.00062978444905 
0.00062503714907 0.00062036448146 0.00061576500585 0.00061123693083 0.00060677849375 0.00060238704947 0.00059805974893 0.0005937936843 0.0005895856619 
0.0005854321656 0.00058132982129 0.0005772747059 0.00057326398571 0.00056929473824 0.00056536507699 0.00056147560694 0.00055762626012 0.00055381894052 
0.00093894193178 0.00092927056208 0.0009197599389 0.00091040803954 0.00085995866601 0.00085187239976 0.00084390983064 0.00083607052246 0.00082835324774 
0.00082075736038 0.00081328118285 0.00080592234645 0.00079867902234 0.00079155007408 0.00078453418897 0.00077763069303 0.00077083831466 0.00076415476429 
0.00075757799587 0.00075110498938 0.0007447325605 0.00073845677528 0.00073227380342 0.00072617943726 0.00072016916317 0.00071423884845 0.00070838342237 
0.00070259913743 0.00069688213237 0.00069123020848 0.00068564358713 0.00068012261923 0.00067466889353 0.00066928561763 0.00066401039274 0.00065873748142 
0.00065354329026 0.00064842689501 0.00064338734488 0.00063842374887 0.00063353637984 0.00062872430295 0.00062398764013 0.00061932549512 0.00061473655196 
0.00061021946591 0.0006057718014 0.00060139093279 0.00059707434085 0.00059281864823 0.00058862051004 0.00058447662091 0.00058038326587 0.00057633681627 
0.00057233406199 0.00056837164821 0.00056444859959 0.00056056475706 0.00055672083748 0.00055291810982 0.00093587095898 0.00092629428686 0.00091687574396 
0.00090761253821 0.00085826974105 0.00085021369211 0.00084227980166 0.00083446786173 0.00082677749624 0.00081920748599 0.00081175686906 0.00080442328067 
0.00079720482874 0.00079010110186 0.00078311067243 0.00077623232291 0.00076946497254 0.00076280645459 0.00075625446785 0.000749805607 0.00074345702839 
0.00073720490189 0.00073104450891 0.00072497206127 0.0007189830311 0.00071307298934 0.00070723709583 0.00070147153167 0.000695772382 0.00069013781721 
0.00068456716229 0.00067906121297 0.00067362225922 0.00066825257212 0.00066268046536 0.00065742221522 0.0006522415031 0.00064713873544 0.00064211237764 
0.00063716193852 0.0006322875861 0.00062748863287 0.00062276494343 0.00061811586543 0.00061353989151 0.00060903536488 0.00060459992861 0.00060023138366 
0.00059592691451 0.00059168255297 0.00058749562792 0.00058336236842 0.00057927944062 0.00057524253937 0.00057124920388 0.00056729605801 0.00056338200705 
0.00055950665696 0.0005556708189 0.00055187658332 0.0011213466008 0.0011088256843 0.0010965244972 0.001084438916 0.00099815360794 0.00098866413401 
0.00097932301385 0.00097012905159 0.00096108063016 0.00095217724102 0.00094341712809 0.00093479856222 0.00092631978308 0.00091797911912 0.00090977402372 
0.00090170169199 0.00089375882856 0.00088594195329 0.0008782464432 0.00087066885225 0.00086320431379 0.00085584913637 0.00084859848811 0.00084144786793 
0.00083439214817 0.00082742569599 0.00082054240363 0.00081373812298 0.00080700840381 0.00080035028253 0.00079376299041 0.00078724636784 0.00078080166429 
0.00077443014075 0.00076962313703 0.00076339783651 0.00075725564145 0.00075119747114 0.00074522366556 0.0007393348423 0.00073353168981 0.00072781379451 
0.00072218050442 0.00071663119032 0.00071116456047 0.00070577898599 0.00070047317618 0.00069524513886 0.00069009398322 0.00068501692064 0.00068001268788 
0.00067507821509 0.00067021133156 0.00066540863442 0.00066066888752 0.00065599059294 0.00065137341403 0.00064681868202 0.00064232870927 0.00063790644678 
0.0011124548145 0.0011000566741 0.0010878766128 0.0010759092956 0.00099411483336 0.00098464756727 0.0009753307252 0.00096616212355 0.00095714073751 
0.0009482648297 0.00093953313075 0.00093094410156 0.00092249490934 0.00091418436636 0.00090601011334 0.00089796830249 0.00089005621082 0.00088226945619 
0.00087460434278 0.00086705638713 0.00085962145206 0.00085229634352 0.00084507497087 0.00083795408568 0.00083092809945 0.00082399169829 0.00081713913602 
0.00081036583466 0.00080366809862 0.00079704254217 0.00079048786081 0.00078400477303 0.00077759333263 0.00077125533423 0.00076660741897 0.00076041358386 
0.00075430123234 0.00074827092445 0.00074232403117 0.00073646008682 0.00073067984067 0.00072498315038 0.00071936894854 0.0007138368926 0.00070838537358 
0.00070301295775 0.00069771818601 0.00069249985479 0.00068735615167 0.00068228506268 0.00067728528914 0.00067235401853 0.00066748901718 0.00066268749332 
0.00065794803505 0.00065326916346 0.00064865080471 0.00064409408942 0.00063960142137 0.00063517531307 0.0011033648611 0.001091091526 0.0010790339954 
0.001067188314 0.00098979396478 0.00098035656296 0.00097107075693 0.00096193466446 0.00095294667569 0.00094410483947 0.00093540763486 0.00092685302132 
0.00091843924995 0.00091016382626 0.0009020243587 0.00089401736863 0.00088613943184 0.00087838640775 0.00087075472577 0.00086323994356 0.00085583834731 
0.00084854524503 0.00084135686389 0.00083426816363 0.00082727484665 0.00082037184747 0.00081355285356 0.00080681395077 0.00080015132834 0.00079356142841 
0.000787043736 0.00078059755394 0.00077422363718 0.00076792273356 0.00076343993127 0.00075728044895 0.00075120062621 0.00074520151002 0.00073928338244 
0.0007334465771 0.00072769137357 0.00072201745357 0.00071642396371 0.00071091036612 0.0007054748226 0.00070011655845 0.00069483391956 0.0006896257028 
0.0006844902388 0.00067942601003 0.00067443099445 0.00066950346587 0.00066464127792 0.00065984153574 0.00065510299396 0.00065042449527 0.00064580571258 
0.00064124820382 0.00063675395515 0.00063232539377 0.0010941847227 0.0010820370148 0.001070103178 0.0010583797188 0.00098529386852 0.00097589174837 
0.00096664271109 0.00095754445615 0.00094859501672 0.00093979232824 0.0009311342619 0.00092261867676 0.00091424382245 0.00090600725561 0.00089790583114 
0.00088993669535 0.00088209596774 0.00087437983614 0.00086678459382 0.00085930571328 0.0008519394493 0.00084468143945 0.00083752820352 0.00083047485288 
0.00082351676538 0.00081664880091 0.00080986608658 0.00080316399789 0.00079653910898 0.00078998800108 0.00078350976055 0.00077710405454 0.00077077028858 
0.00076450954583 0.00076019753188 0.00075407442868 0.00074802966287 0.00074206324183 0.00073617555357 0.00073036708358 0.0007246380293 0.00071898776216 
0.00071341591857 0.00070792112047 0.00070250246457 0.00069715901277 0.00069188878897 0.00068669122266 0.00068156423133 0.00067650712001 0.00067151777382 
0.00066659436717 0.0006617346454 0.00065693687838 0.00065219951331 0.00064752162978 0.0006429030453 0.00063834506631 0.00063384961199 0.00062941905731 
0.001089569411 0.0010774022132 0.0010654619269 0.0010537460784 0.00098530063096 0.0009756900345 0.00096623126928 0.00095692210795 0.00094776025331 
0.00093874372114 0.00092987133252 0.00092114106916 0.00091255016796 0.00090409763086 0.00089578104755 0.00088759794355 0.00087954546628 0.00087162014131 
0.00086381932114 0.00085614028353 0.00084857920331 0.00084113360051 0.00083380090407 0.00082657734929 0.0008194594909 0.0008124438499 0.00080552682351 
0.00079870581181 0.00079197828949 0.00078534288796 0.00077879962195 0.00077234929518 0.00076599307687 0.00075973274387 0.00075812244915 0.00075199853 
0.00074597652129 0.00074005584723 0.00073423512951 0.00072851246626 0.00072288704374 0.00071735682196 0.00071192011058 0.0007065740772 0.00070131602532 
0.00069614349754 0.00069105406014 0.00068604438819 0.00068111235574 0.00067625454456 0.00067146821656 0.00066674978118 0.00066209569484 0.00065750268339 
0.00065296807776 0.00064848907199 0.00064406433872 0.00063969311227 0.00063537546787 0.00063111153879 0.0010830306019 0.0010709978113 0.0010591892773 
0.0010476019673 0.00098084301778 0.0009712968323 0.00096190240766 0.00095265694859 0.00094355821753 0.00093460391704 0.00092579217595 0.00091712080773 
0.00090858800081 0.0009001916148 0.0008919293323 0.00088379861811 0.00087579624972 0.00086791962365 0.00086016591762 0.00085253241786 0.00084501580626 
0.0008376135769 0.00083032225985 0.0008231392354 0.00081606128412 0.00080908472246 0.00080220618846 0.00079542355469 0.00078873444026 0.00078213708218 
0.00077563187963 0.00076921938805 0.0007629001218 0.00075667565997 0.00075476657319 0.00074867536626 0.00074268461427 0.00073679322016 0.00073099972703 
0.00072530272979 0.0007197006715 0.00071419203578 0.00070877469728 0.00070344585749 0.00069820345053 0.00069304512212 0.00068796822888 0.00068297000147 
0.00067804824682 0.00067319946282 0.00066842115698 0.00066371021148 0.0006590632562 0.00065447711829 0.00064994938161 0.00064547756619 0.00064106016138 
0.00063669665206 0.00063238680812 0.00062813066791 0.0010766706469 0.0010647701849 0.0010530917852 0.0010416313639 0.00097652922151 0.00096704579121 
0.00095771406068 0.00094853066562 0.00093949283903 0.00093059862124 0.00092184568704 0.0009132316331 0.00090475431261 0.00089641181584 0.00088820160363 
0.0008801209838 0.00087216776372 0.0008643385765 0.00085663087796 0.00084904147982 0.00084156810809 0.00083420734448 0.00082695663312 0.00081981366414 
0.00081277406243 0.0008058356206 0.00079899488825 0.00079224967043 0.00078559763961 0.0007790377741 0.00077256962453 0.00076619336894 0.00075990968981 
0.00075372007495 0.00075151490203 0.00074545569497 0.00073949568266 0.0007336329455 0.00072786638162 0.00072219402317 0.00071661504427 0.00071112741262 
0.00070572878842 0.00070041768426 0.00069519135843 0.00069004739168 0.00068498354141 0.00067999728808 0.00067508580092 0.00067024666498 0.0006654775389 
0.00066077451392 0.00065613537463 0.00065155692873 0.00064703675023 0.00064257292172 0.0006381637057 0.00063380844311 0.000629506894 0.00062525889494 
0.0010705536083 0.0010587829214 0.0010472315017 0.0010358953943 0.00097241733111 0.00096299417299 0.00095372229842 0.00094459818895 0.00093561847866 
0.00092678141461 0.00091808465455 0.00090952549702 0.00090110108286 0.0008928099457 0.00088464953381 0.00087661708611 0.00086871048336 0.00086092653737 
0.00085326277928 0.00084571623612 0.00083828460598 0.00083096439293 0.00082375334348 0.00081664852032 0.00080964681297 0.00080274525334 0.00079594098603 
0.00078923203201 0.00078261607077 0.00077609189441 0.00076965903739 0.00076331735053 0.0007570677785 0.00075091087524 0.00074841138516 0.00074238293926 
0.00073645197855 0.00073061700624 0.00072487630298 0.00071922785322 0.00071367103185 0.00070820358 0.00070282374514 0.00069752961547 0.00069231897689 
0.00068718938475 0.00068213874114 0.0006771645377 0.00067226428313 0.0006674353803 0.00066267538767 0.00065798142281 0.00065335050404 0.00064878028836 
0.0006442684136 0.00063981281952 0.00063541212861 0.00063106549669 0.00062677236725 0.00062253271422 0.0010647239184 0.0010530804237 0.0010416528213 
0.0010304375898 0.0009685475841 0.00095918179644 0.00094996663413 0.00094089824146 0.00093197358659 0.00092319060772 0.00091454630875 0.00090603822684 
0.00089766387615 0.00088942163551 0.00088130839642 0.00087332193486 0.00086545971057 0.00085771902284 0.00085009732329 0.00084259246111 0.0008352004124 
0.00082791977391 0.00082074663325 0.00081367871741 0.00080671366872 0.00079984760672 0.00079307874355 0.00078640443965 0.00077982293231 0.0007733326212 
0.00076693294477 0.00076062406879 0.00075440638987 0.00074828002432 0.00074548672683 0.00073948736532 0.00073358419685 0.00072777495705 0.00072205843069 
0.00071643289895 0.00071089710839 0.00070544925526 0.00070008752646 0.00069481003865 0.00068961479504 0.00068449945269 0.00067946209186 0.00067450010488 
0.00066961139489 0.00066479292192 0.0006600426837 0.0006553579941 0.00065073600554 0.00064617447548 0.00064167115175 0.00063722413036 0.00063283195113 
0.00062849356131 0.0006242087511 0.00061997740234 0.0010592105359 0.0010476907478 0.0010363838853 0.0010252857124 0.00096494534056 0.00095563351619 
0.00094647112863 0.00093745483573 0.00092858137302 0.00091984846371 0.0009112534376 0.00090279351503 0.00089446634966 0.00088626964455 0.00087820087879 