# vtk DataFile Version 5.1
vtk output
ASCII
DATASET STRUCTURED_POINTS
DIMENSIONS 20 20 20
SPACING 2e-05 2e-05 2e-05
ORIGIN 3.69981 -0.00019 0.99981
POINT_DATA 8000
FIELD FieldData 3
potential 1 8000 double
0.34905634826 0.34905634454 0.34905634081 0.34905633708 0.34905633335 0.34905632962 0.34905632589 0.34905632216 0.34905631843 
0.3490563147 0.34905631097 0.34905630723 0.3490563035 0.34905629977 0.34905629604 0.34905629231 0.34905628858 0.34905628484 
0.34905628111 0.34905627738 0.34905657492 0.34905657119 0.34905656746 0.34905656373 0.34905656 0.34905655627 0.34905655254 
0.34905654881 0.34905654508 0.34905654135 0.34905653761 0.34905653388 0.34905653015 0.34905652642 0.34905652268 0.34905651895 
0.34905651522 0.34905651148 0.34905650775 0.34905650402 0.3490568017 0.34905679796 0.34905679423 0.3490567905 0.34905678677 
0.34905678304 0.34905677931 0.34905677557 0.34905677184 0.34905676811 0.34905676437 0.34905676064 0.34905675691 0.34905675317 
0.34905674944 0.34905674571 0.34905674197 0.34905673824 0.3490567345 0.34905673077 0.34905702858 0.34905702485 0.34905702112 
0.34905701738 0.34905701365 0.34905700992 0.34905700618 0.34905700245 0.34905699872 0.34905699498 0.34905699125 0.34905698751 
0.34905698378 0.34905698004 0.34905697631 0.34905697257 0.34905696884 0.3490569651 0.34905696137 0.34905695763 0.34905725558 
0.34905725185 0.34905724811 0.34905724438 0.34905724064 0.34905723691 0.34905723318 0.34905722944 0.34905722571 0.34905722197 
0.34905721824 0.3490572145 0.34905721076 0.34905720703 0.34905720329 0.34905719956 0.34905719582 0.34905719208 0.34905718835 
0.34905718461 0.34905748269 0.34905747896 0.34905747522 0.34905747149 0.34905746775 0.34905746402 0.34905746028 0.34905745655 
0.34905745281 0.34905744907 0.34905744534 0.3490574416 0.34905743786 0.34905743413 0.34905743039 0.34905742665 0.34905742291 
0.34905741918 0.34905741544 0.3490574117 0.34905770992 0.34905770618 0.34905770245 0.34905769871 0.34905769497 0.34905769124 
0.3490576875 0.34905768376 0.34905768003 0.34905767629 0.34905767255 0.34905766881 0.34905766507 0.34905766134 0.3490576576 
0.34905765386 0.34905765012 0.34905764638 0.34905764264 0.3490576389 0.34905793726 0.34905793352 0.34905792978 0.34905792604 
0.34905792231 0.34905791857 0.34905791483 0.34905791109 0.34905790735 0.34905790362 0.34905789988 0.34905789614 0.3490578924 
0.34905788866 0.34905788492 0.34905788118 0.34905787744 0.3490578737 0.34905786996 0.34905786622 0.34905816471 0.34905816097 
0.34905815723 0.34905815349 0.34905814975 0.34905814602 0.34905814228 0.34905813854 0.3490581348 0.34905813106 0.34905812732 
0.34905812358 0.34905811984 0.3490581161 0.34905811236 0.34905810862 0.34905810488 0.34905810113 0.34905809739 0.34905809365 
0.34905839227 0.34905838853 0.34905838479 0.34905838105 0.34905837731 0.34905837357 0.34905836983 0.34905836609 0.34905836235 
0.34905835861 0.34905835487 0.34905835113 0.34905834739 0.34905834365 0.34905833991 0.34905833616 0.34905833242 0.34905832868 
0.34905832494 0.34905832119 0.34905861995 0.34905861621 0.34905861247 0.34905860873 0.34905860499 0.34905860125 0.34905859751 
0.34905859376 0.34905859002 0.34905858628 0.34905858254 0.3490585788 0.34905857505 0.34905857131 0.34905856757 0.34905856383 
0.34905856008 0.34905855634 0.3490585526 0.34905854885 0.34905884774 0.349058844 0.34905884026 0.34905883652 0.34905883277 
0.34905882903 0.34905882529 0.34905882155 0.34905881781 0.34905881406 0.34905881032 0.34905880658 0.34905880283 0.34905879909 
0.34905879534 0.3490587916 0.34905878786 0.34905878411 0.34905878037 0.34905877662 0.34905907565 0.3490590719 0.34905906816 
0.34905906442 0.34905906068 0.34905905693 0.34905905319 0.34905904944 0.3490590457 0.34905904196 0.34905903821 0.34905903447 
0.34905903072 0.34905902698 0.34905902323 0.34905901949 0.34905901574 0.349059012 0.34905900825 0.34905900451 0.34905930366 
0.34905929992 0.34905929618 0.34905929243 0.34905928869 0.34905928494 0.3490592812 0.34905927745 0.34905927371 0.34905926996 
0.34905926622 0.34905926247 0.34905925873 0.34905925498 0.34905925124 0.34905924749 0.34905924374 0.34905924 0.34905923625 
0.3490592325 0.34905953179 0.34905952805 0.34905952431 0.34905952056 0.34905951682 0.34905951307 0.34905950932 0.34905950558 
0.34905950183 0.34905949809 0.34905949434 0.34905949059 0.34905948685 0.3490594831 0.34905947935 0.3490594756 0.34905947186 
0.34905946811 0.34905946436 0.34905946061 0.34905976004 0.34905975629 0.34905975255 0.3490597488 0.34905974506 0.34905974131 
0.34905973756 0.34905973381 0.34905973007 0.34905972632 0.34905972257 0.34905971882 0.34905971508 0.34905971133 0.34905970758 
0.34905970383 0.34905970008 0.34905969633 0.34905969258 0.34905968884 0.3490599884 0.34905998465 0.3490599809 0.34905997716 
0.34905997341 0.34905996966 0.34905996591 0.34905996216 0.34905995842 0.34905995467 0.34905995092 0.34905994717 0.34905994342 
0.34905993967 0.34905993592 0.34905993217 0.34905992842 0.34905992467 0.34905992092 0.34905991717 0.34906021687 0.34906021312 
0.34906020937 0.34906020562 0.34906020187 0.34906019813 0.34906019438 0.34906019063 0.34906018688 0.34906018313 0.34906017938 
0.34906017563 0.34906017188 0.34906016813 0.34906016438 0.34906016063 0.34906015688 0.34906015312 0.34906014937 0.34906014562 
0.34906044545 0.3490604417 0.34906043795 0.3490604342 0.34906043045 0.3490604267 0.34906042295 0.3490604192 0.34906041545 
0.3490604117 0.34906040795 0.3490604042 0.34906040045 0.3490603967 0.34906039295 0.34906038919 0.34906038544 0.34906038169 
0.34906037794 0.34906037418 0.34906067415 0.3490606704 0.34906066665 0.3490606629 0.34906065915 0.3490606554 0.34906065165 
0.34906064789 0.34906064414 0.34906064039 0.34906063664 0.34906063289 0.34906062913 0.34906062538 0.34906062163 0.34906061788 
0.34906061412 0.34906061037 0.34906060661 0.34906060286 0.34905659905 0.34905659533 0.3490565916 0.34905658787 0.34905658414 
0.34905658041 0.34905657668 0.34905657295 0.34905656922 0.34905656549 0.34905656176 0.34905655803 0.3490565543 0.34905655057 
0.34905654683 0.3490565431 0.34905653937 0.34905653564 0.34905653191 0.34905652818 0.34905682571 0.34905682199 0.34905681826 
0.34905681452 0.34905681079 0.34905680706 0.34905680333 0.3490567996 0.34905679587 0.34905679214 0.34905678841 0.34905678468 
0.34905678094 0.34905677721 0.34905677348 0.34905676975 0.34905676601 0.34905676228 0.34905675855 0.34905675481 0.34905705249 
0.34905704876 0.34905704503 0.34905704129 0.34905703756 0.34905703383 0.3490570301 0.34905702637 0.34905702264 0.3490570189 
0.34905701517 0.34905701144 0.3490570077 0.34905700397 0.34905700024 0.3490569965 0.34905699277 0.34905698904 0.3490569853 
0.34905698157 0.34905727937 0.34905727564 0.34905727191 0.34905726818 0.34905726445 0.34905726071 0.34905725698 0.34905725325 
0.34905724951 0.34905724578 0.34905724205 0.34905723831 0.34905723458 0.34905723084 0.34905722711 0.34905722337 0.34905721964 
0.3490572159 0.34905721217 0.34905720843 0.34905750637 0.34905750264 0.34905749891 0.34905749517 0.34905749144 0.34905748771 
0.34905748397 0.34905748024 0.3490574765 0.34905747277 0.34905746903 0.3490574653 0.34905746156 0.34905745783 0.34905745409 
0.34905745036 0.34905744662 0.34905744288 0.34905743915 0.34905743541 0.34905773349 0.34905772975 0.34905772602 0.34905772228 
0.34905771855 0.34905771481 0.34905771108 0.34905770734 0.34905770361 0.34905769987 0.34905769614 0.3490576924 0.34905768866 
0.34905768493 0.34905768119 0.34905767745 0.34905767371 0.34905766998 0.34905766624 0.3490576625 0.34905796071 0.34905795698 
0.34905795324 0.34905794951 0.34905794577 0.34905794203 0.3490579383 0.34905793456 0.34905793083 0.34905792709 0.34905792335 
0.34905791961 0.34905791588 0.34905791214 0.3490579084 0.34905790466 0.34905790092 0.34905789718 0.34905789345 0.34905788971 
0.34905818805 0.34905818432 0.34905818058 0.34905817684 0.34905817311 0.34905816937 0.34905816563 0.34905816189 0.34905815816 
0.34905815442 0.34905815068 0.34905814694 0.3490581432 0.34905813946 0.34905813572 0.34905813198 0.34905812825 0.34905812451 
0.34905812077 0.34905811703 0.34905841551 0.34905841177 0.34905840803 0.34905840429 0.34905840055 0.34905839682 0.34905839308 
0.34905838934 0.3490583856 0.34905838186 0.34905837812 0.34905837438 0.34905837064 0.3490583669 0.34905836316 0.34905835942 
0.34905835568 0.34905835194 0.3490583482 0.34905834446 0.34905864307 0.34905863933 0.34905863559 0.34905863186 0.34905862812 
0.34905862438 0.34905862064 0.3490586169 0.34905861316 0.34905860942 0.34905860568 0.34905860193 0.34905859819 0.34905859445 
0.34905859071 0.34905858697 0.34905858323 0.34905857949 0.34905857574 0.349058572 0.34905887075 0.34905886701 0.34905886327 
0.34905885953 0.34905885579 0.34905885205 0.34905884831 0.34905884457 0.34905884083 0.34905883709 0.34905883334 0.3490588296 
0.34905882586 0.34905882212 0.34905881838 0.34905881463 0.34905881089 0.34905880715 0.3490588034 0.34905879966 0.34905909854 
0.3490590948 0.34905909106 0.34905908732 0.34905908358 0.34905907984 0.3490590761 0.34905907235 0.34905906861 0.34905906487 
0.34905906113 0.34905905738 0.34905905364 0.3490590499 0.34905904615 0.34905904241 0.34905903866 0.34905903492 0.34905903118 
0.34905902743 0.34905932645 0.34905932271 0.34905931897 0.34905931522 0.34905931148 0.34905930774 0.34905930399 0.34905930025 
0.34905929651 0.34905929276 0.34905928902 0.34905928528 0.34905928153 0.34905927779 0.34905927404 0.3490592703 0.34905926655 
0.34905926281 0.34905925906 0.34905925532 0.34905955447 0.34905955073 0.34905954698 0.34905954324 0.34905953949 0.34905953575 
0.34905953201 0.34905952826 0.34905952452 0.34905952077 0.34905951703 0.34905951328 0.34905950954 0.34905950579 0.34905950205 
0.3490594983 0.34905949455 0.34905949081 0.34905948706 0.34905948331 0.3490597826 0.34905977886 0.34905977511 0.34905977137 
0.34905976762 0.34905976388 0.34905976013 0.34905975639 0.34905975264 0.34905974889 0.34905974515 0.3490597414 0.34905973766 
0.34905973391 0.34905973016 0.34905972641 0.34905972267 0.34905971892 0.34905971517 0.34905971142 0.34906001085 0.3490600071 
0.34906000336 0.34905999961 0.34905999586 0.34905999212 0.34905998837 0.34905998462 0.34905998088 0.34905997713 0.34905997338 
0.34905996964 0.34905996589 0.34905996214 0.34905995839 0.34905995464 0.3490599509 0.34905994715 0.3490599434 0.34905993965 
0.34906023921 0.34906023546 0.34906023171 0.34906022796 0.34906022422 0.34906022047 0.34906021672 0.34906021298 0.34906020923 
0.34906020548 0.34906020173 0.34906019798 0.34906019423 0.34906019048 0.34906018674 0.34906018299 0.34906017924 0.34906017549 
0.34906017174 0.34906016799 0.34906046768 0.34906046393 0.34906046018 0.34906045643 0.34906045269 0.34906044894 0.34906044519 
0.34906044144 0.34906043769 0.34906043394 0.34906043019 0.34906042644 0.34906042269 0.34906041894 0.34906041519 0.34906041144 
0.34906040769 0.34906040394 0.34906040019 0.34906039644 0.34906069626 0.34906069251 0.34906068876 0.34906068502 0.34906068127 
0.34906067752 0.34906067377 0.34906067002 0.34906066627 0.34906066252 0.34906065877 0.34906065501 0.34906065126 0.34906064751 
0.34906064376 0.34906064001 0.34906063626 0.34906063251 0.34906062875 0.349060625 0.34906092496 0.34906092121 0.34906091746 
0.34906091371 0.34906090996 0.34906090621 0.34906090246 0.34906089871 0.34906089496 0.3490608912 0.34906088745 0.3490608837 
0.34906087995 0.3490608762 0.34906087244 0.34906086869 0.34906086494 0.34906086119 0.34906085743 0.34906085368 0.34905684973 
0.349056846 0.34905684227 0.34905683855 0.34905683482 0.34905683109 0.34905682736 0.34905682363 0.3490568199 0.34905681617 
0.34905681244 0.34905680871 0.34905680498 0.34905680125 0.34905679752 0.34905679379 0.34905679005 0.34905678632 0.34905678259 
0.34905677886 0.34905707639 0.34905707266 0.34905706893 0.3490570652 0.34905706147 0.34905705774 0.34905705401 0.34905705028 
0.34905704655 0.34905704282 0.34905703909 0.34905703536 0.34905703163 0.34905702789 0.34905702416 0.34905702043 0.3490570167 
0.34905701296 0.34905700923 0.3490570055 0.34905730317 0.34905729944 0.34905729571 0.34905729198 0.34905728824 0.34905728451 
0.34905728078 0.34905727705 0.34905727332 0.34905726959 0.34905726585 0.34905726212 0.34905725839 0.34905725465 0.34905725092 
0.34905724719 0.34905724345 0.34905723972 0.34905723599 0.34905723225 0.34905753006 0.34905752632 0.34905752259 0.34905751886 
0.34905751513 0.34905751139 0.34905750766 0.34905750393 0.3490575002 0.34905749646 0.34905749273 0.349057489 0.34905748526 
0.34905748153 0.34905747779 0.34905747406 0.34905747032 0.34905746659 0.34905746285 0.34905745912 0.34905775706 0.34905775332 
0.34905774959 0.34905774586 0.34905774212 0.34905773839 0.34905773466 0.34905773092 0.34905772719 0.34905772345 0.34905771972 
0.34905771598 0.34905771225 0.34905770851 0.34905770478 0.34905770104 0.34905769731 0.34905769357 0.34905768983 0.3490576861 
0.34905798417 0.34905798044 0.3490579767 0.34905797297 0.34905796923 0.3490579655 0.34905796176 0.34905795803 0.34905795429 
0.34905795056 0.34905794682 0.34905794309 0.34905793935 0.34905793561 0.34905793188 0.34905792814 0.3490579244 0.34905792067 
0.34905791693 0.34905791319 0.3490582114 0.34905820766 0.34905820393 0.34905820019 0.34905819646 0.34905819272 0.34905818898 
0.34905818525 0.34905818151 0.34905817778 0.34905817404 0.3490581703 0.34905816656 0.34905816283 0.34905815909 0.34905815535 
0.34905815161 0.34905814787 0.34905814414 0.3490581404 0.34905843874 0.349058435 0.34905843127 0.34905842753 0.34905842379 
0.34905842006 0.34905841632 0.34905841258 0.34905840884 0.34905840511 0.34905840137 0.34905839763 0.34905839389 0.34905839015 
0.34905838641 0.34905838267 0.34905837894 0.3490583752 0.34905837146 0.34905836772 0.34905866619 0.34905866246 0.34905865872 
0.34905865498 0.34905865124 0.3490586475 0.34905864377 0.34905864003 0.34905863629 0.34905863255 0.34905862881 0.34905862507 
0.34905862133 0.34905861759 0.34905861385 0.34905861011 0.34905860637 0.34905860263 0.34905859889 0.34905859515 0.34905889376 
0.34905889002 0.34905888628 0.34905888254 0.3490588788 0.34905887507 0.34905887133 0.34905886759 0.34905886385 0.34905886011 
0.34905885637 0.34905885263 0.34905884889 0.34905884514 0.3490588414 0.34905883766 0.34905883392 0.34905883018 0.34905882644 
0.3490588227 0.34905912144 0.3490591177 0.34905911396 0.34905911022 0.34905910648 0.34905910274 0.349059099 0.34905909526 
0.34905909152 0.34905908778 0.34905908404 0.34905908029 0.34905907655 0.34905907281 0.34905906907 0.34905906533 0.34905906158 
0.34905905784 0.3490590541 0.34905905035 0.34905934923 0.34905934549 0.34905934175 0.34905933801 0.34905933427 0.34905933053 
0.34905932679 0.34905932304 0.3490593193 0.34905931556 0.34905931182 0.34905930808 0.34905930433 0.34905930059 0.34905929685 
0.3490592931 0.34905928936 0.34905928562 0.34905928187 0.34905927813 0.34905957714 0.3490595734 0.34905956966 0.34905956591 
0.34905956217 0.34905955843 0.34905955469 0.34905955094 0.3490595472 0.34905954346 0.34905953971 0.34905953597 0.34905953223 
0.34905952848 0.34905952474 0.34905952099 0.34905951725 0.3490595135 0.34905950976 0.34905950601 0.34905980516 0.34905980142 
0.34905979767 0.34905979393 0.34905979019 0.34905978644 0.3490597827 0.34905977896 0.34905977521 0.34905977147 0.34905976772 
0.34905976398 0.34905976023 0.34905975649 0.34905975274 0.349059749 0.34905974525 0.3490597415 0.34905973776 0.34905973401 
0.34906003329 0.34906002955 0.34906002581 0.34906002206 0.34906001832 0.34906001457 0.34906001083 0.34906000708 0.34906000334 
0.34905999959 0.34905999584 0.3490599921 0.34905998835 0.34905998461 0.34905998086 0.34905997711 0.34905997337 0.34905996962 
0.34905996587 0.34905996212 0.34906026154 0.3490602578 0.34906025405 0.3490602503 0.34906024656 0.34906024281 0.34906023907 
0.34906023532 0.34906023157 0.34906022783 0.34906022408 0.34906022033 0.34906021659 0.34906021284 0.34906020909 0.34906020534 
0.34906020159 0.34906019785 0.3490601941 0.34906019035 0.3490604899 0.34906048615 0.34906048241 0.34906047866 0.34906047491 
0.34906047117 0.34906046742 0.34906046367 0.34906045992 0.34906045618 0.34906045243 0.34906044868 0.34906044493 0.34906044118 
0.34906043743 0.34906043369 0.34906042994 0.34906042619 0.34906042244 0.34906041869 0.34906071837 0.34906071463 0.34906071088 
0.34906070713 0.34906070338 0.34906069963 0.34906069589 0.34906069214 0.34906068839 0.34906068464 0.34906068089 0.34906067714 
0.34906067339 0.34906066964 0.34906066589 0.34906066214 0.34906065839 0.34906065464 0.34906065089 0.34906064714 0.34906094696 
0.34906094321 0.34906093946 0.34906093571 0.34906093196 0.34906092822 0.34906092447 0.34906092072 0.34906091697 0.34906091322 
0.34906090947 0.34906090572 0.34906090196 0.34906089821 0.34906089446 0.34906089071 0.34906088696 0.34906088321 0.34906087946 
0.3490608757 0.34906117566 0.34906117191 0.34906116816 0.34906116441 0.34906116066 0.34906115691 0.34906115316 0.34906114941 
0.34906114566 0.34906114191 0.34906113815 0.3490611344 0.34906113065 0.3490611269 0.34906112315 0.34906111939 0.34906111564 
0.34906111189 0.34906110814 0.34906110438 0.3490571003 0.34905709657 0.34905709284 0.34905708911 0.34905708538 0.34905708165 
0.34905707792 0.3490570742 0.34905707047 0.34905706674 0.34905706301 0.34905705928 0.34905705555 0.34905705182 0.34905704809 
0.34905704435 0.34905704062 0.34905703689 0.34905703316 0.34905702943 0.34905732696 0.34905732323 0.3490573195 0.34905731577 
0.34905731204 0.34905730831 0.34905730458 0.34905730085 0.34905729712 0.34905729339 0.34905728966 0.34905728593 0.3490572822 
0.34905727846 0.34905727473 0.349057271 0.34905726727 0.34905726354 0.3490572598 0.34905725607 0.34905755373 0.34905755 
0.34905754627 0.34905754254 0.34905753881 0.34905753508 0.34905753135 0.34905752762 0.34905752389 0.34905752015 0.34905751642 
0.34905751269 0.34905750896 0.34905750522 0.34905750149 0.34905749776 0.34905749403 0.34905749029 0.34905748656 0.34905748282 
0.34905778062 0.34905777689 0.34905777316 0.34905776943 0.3490577657 0.34905776196 0.34905775823 0.3490577545 0.34905775077 
0.34905774703 0.3490577433 0.34905773957 0.34905773583 0.3490577321 0.34905772837 0.34905772463 0.3490577209 0.34905771716 
0.34905771343 0.34905770969 0.34905800762 0.34905800389 0.34905800016 0.34905799643 0.34905799269 0.34905798896 0.34905798523 
0.34905798149 0.34905797776 0.34905797403 0.34905797029 0.34905796656 0.34905796282 0.34905795909 0.34905795535 0.34905795162 
0.34905794788 0.34905794414 0.34905794041 0.34905793667 0.34905823474 0.34905823101 0.34905822727 0.34905822354 0.3490582198 
0.34905821607 0.34905821234 0.3490582086 0.34905820487 0.34905820113 0.3490581974 0.34905819366 0.34905818992 0.34905818619 
0.34905818245 0.34905817871 0.34905817498 0.34905817124 0.3490581675 0.34905816377 0.34905846197 0.34905845823 0.3490584545 
0.34905845076 0.34905844703 0.34905844329 0.34905843956 0.34905843582 0.34905843209 0.34905842835 0.34905842461 0.34905842088 
0.34905841714 0.3490584134 0.34905840966 0.34905840593 0.34905840219 0.34905839845 0.34905839471 0.34905839097 0.34905868931 
0.34905868557 0.34905868184 0.3490586781 0.34905867437 0.34905867063 0.34905866689 0.34905866316 0.34905865942 0.34905865568 
0.34905865194 0.34905864821 0.34905864447 0.34905864073 0.34905863699 0.34905863325 0.34905862951 0.34905862577 0.34905862203 
0.34905861829 0.34905891677 0.34905891303 0.34905890929 0.34905890555 0.34905890182 0.34905889808 0.34905889434 0.3490588906 
0.34905888686 0.34905888313 0.34905887939 0.34905887565 0.34905887191 0.34905886817 0.34905886443 0.34905886069 0.34905885695 
0.34905885321 0.34905884947 0.34905884573 0.34905914433 0.3490591406 0.34905913686 0.34905913312 0.34905912938 0.34905912564 
0.3490591219 0.34905911816 0.34905911442 0.34905911068 0.34905910694 0.3490591032 0.34905909946 0.34905909572 0.34905909198 
0.34905908824 0.3490590845 0.34905908076 0.34905907702 0.34905907328 0.34905937202 0.34905936828 0.34905936454 0.3490593608 
0.34905935706 0.34905935332 0.34905934958 0.34905934584 0.3490593421 0.34905933836 0.34905933461 0.34905933087 0.34905932713 
0.34905932339 0.34905931965 0.34905931591 0.34905931216 0.34905930842 0.34905930468 0.34905930094 0.34905959981 0.34905959607 
0.34905959233 0.34905958859 0.34905958485 0.34905958111 0.34905957737 0.34905957362 0.34905956988 0.34905956614 0.3490595624 
0.34905955866 0.34905955491 0.34905955117 0.34905954743 0.34905954368 0.34905953994 0.3490595362 0.34905953245 0.34905952871 
0.34905982772 0.34905982398 0.34905982023 0.34905981649 0.34905981275 0.34905980901 0.34905980527 0.34905980152 0.34905979778 
0.34905979404 0.34905979029 0.34905978655 0.34905978281 0.34905977906 0.34905977532 0.34905977158 0.34905976783 0.34905976409 
0.34905976034 0.3490597566 0.34906005574 0.349060052 0.34906004825 0.34906004451 0.34906004077 0.34906003702 0.34906003328 
0.34906002954 0.34906002579 0.34906002205 0.3490600183 0.34906001456 0.34906001082 0.34906000707 0.34906000333 0.34905999958 
0.34905999583 0.34905999209 0.34905998834 0.3490599846 0.34906028387 0.34906028013 0.34906027639 0.34906027264 0.3490602689 
0.34906026515 0.34906026141 0.34906025766 0.34906025392 0.34906025017 0.34906024643 0.34906024268 0.34906023894 0.34906023519 
0.34906023144 0.3490602277 0.34906022395 0.3490602202 0.34906021646 0.34906021271 0.34906051212 0.34906050838 0.34906050463 
0.34906050089 0.34906049714 0.3490604934 0.34906048965 0.3490604859 0.34906048216 0.34906047841 0.34906047466 0.34906047092 
0.34906046717 0.34906046342 0.34906045968 0.34906045593 0.34906045218 0.34906044843 0.34906044468 0.34906044094 0.34906074048 
0.34906073674 0.34906073299 0.34906072924 0.3490607255 0.34906072175 0.349060718 0.34906071426 0.34906071051 0.34906070676 
0.34906070301 0.34906069927 0.34906069552 0.34906069177 0.34906068802 0.34906068427 0.34906068052 0.34906067677 0.34906067303 
0.34906066928 0.34906096896 0.34906096521 0.34906096146 0.34906095771 0.34906095397 0.34906095022 0.34906094647 0.34906094272 
0.34906093897 0.34906093523 0.34906093148 0.34906092773 0.34906092398 0.34906092023 0.34906091648 0.34906091273 0.34906090898 
0.34906090523 0.34906090148 0.34906089773 0.34906119754 0.3490611938 0.34906119005 0.3490611863 0.34906118255 0.3490611788 
0.34906117505 0.3490611713 0.34906116755 0.3490611638 0.34906116005 0.3490611563 0.34906115255 0.3490611488 0.34906114505 
0.3490611413 0.34906113755 0.3490611338 0.34906113005 0.34906112629 0.34906142624 0.3490614225 0.34906141875 0.349061415 
0.34906141125 0.3490614075 0.34906140375 0.3490614 0.34906139624 0.34906139249 0.34906138874 0.34906138499 0.34906138124 
0.34906137749 0.34906137374 0.34906136998 0.34906136623 0.34906136248 0.34906135873 0.34906135497 0.34905735075 0.34905734702 
0.34905734329 0.34905733956 0.34905733584 0.34905733211 0.34905732838 0.34905732465 0.34905732092 0.34905731719 0.34905731346 
0.34905730973 0.349057306 0.34905730227 0.34905729854 0.34905729481 0.34905729108 0.34905728735 0.34905728362 0.34905727989 
0.34905757741 0.34905757368 0.34905756995 0.34905756622 0.34905756249 0.34905755876 0.34905755503 0.3490575513 0.34905754757 
0.34905754384 0.34905754011 0.34905753638 0.34905753265 0.34905752892 0.34905752519 0.34905752146 0.34905751773 0.34905751399 
0.34905751026 0.34905750653 0.34905780419 0.34905780046 0.34905779673 0.349057793 0.34905778927 0.34905778554 0.3490577818 
0.34905777807 0.34905777434 0.34905777061 0.34905776688 0.34905776315 0.34905775941 0.34905775568 0.34905775195 0.34905774822 
0.34905774448 0.34905774075 0.34905773702 0.34905773328 0.34905803108 0.34905802735 0.34905802362 0.34905801988 0.34905801615 
0.34905801242 0.34905800869 0.34905800496 0.34905800122 0.34905799749 0.34905799376 0.34905799002 0.34905798629 0.34905798256 
0.34905797882 0.34905797509 0.34905797136 0.34905796762 0.34905796389 0.34905796015 0.34905825808 0.34905825435 0.34905825062 
0.34905824688 0.34905824315 0.34905823942 0.34905823568 0.34905823195 0.34905822822 0.34905822448 0.34905822075 0.34905821702 
0.34905821328 0.34905820955 0.34905820581 0.34905820208 0.34905819834 0.34905819461 0.34905819087 0.34905818713 0.3490584852 
0.34905848146 0.34905847773 0.349058474 0.34905847026 0.34905846653 0.34905846279 0.34905845906 0.34905845533 0.34905845159 
0.34905844786 0.34905844412 0.34905844038 0.34905843665 0.34905843291 0.34905842918 0.34905842544 0.3490584217 0.34905841797 
0.34905841423 0.34905871243 0.34905870869 0.34905870496 0.34905870122 0.34905869749 0.34905869375 0.34905869002 0.34905868628 
0.34905868255 0.34905867881 0.34905867507 0.34905867134 0.3490586676 0.34905866386 0.34905866013 0.34905865639 0.34905865265 
0.34905864891 0.34905864518 0.34905864144 0.34905893977 0.34905893603 0.3490589323 0.34905892856 0.34905892483 0.34905892109 
0.34905891735 0.34905891362 0.34905890988 0.34905890614 0.34905890241 0.34905889867 0.34905889493 0.34905889119 0.34905888745 
0.34905888372 0.34905887998 0.34905887624 0.3490588725 0.34905886876 0.34905916723 0.34905916349 0.34905915975 0.34905915602 
0.34905915228 0.34905914854 0.3490591448 0.34905914107 0.34905913733 0.34905913359 0.34905912985 0.34905912611 0.34905912237 
0.34905911863 0.34905911489 0.34905911116 0.34905910742 0.34905910368 0.34905909994 0.3490590962 0.3490593948 0.34905939106 
0.34905938732 0.34905938358 0.34905937984 0.3490593761 0.34905937237 0.34905936863 0.34905936489 0.34905936115 0.34905935741 
0.34905935367 0.34905934993 0.34905934619 0.34905934245 0.34905933871 0.34905933497 0.34905933123 0.34905932748 0.34905932374 
0.34905962248 0.34905961874 0.349059615 0.34905961126 0.34905960752 0.34905960378 0.34905960004 0.3490595963 0.34905959256 
0.34905958882 0.34905958508 0.34905958134 0.3490595776 0.34905957386 0.34905957012 0.34905956637 0.34905956263 0.34905955889 
0.34905955515 0.3490595514 0.34905985027 0.34905984653 0.34905984279 0.34905983905 0.34905983531 0.34905983157 0.34905982783 
0.34905982409 0.34905982035 0.34905981661 0.34905981286 0.34905980912 0.34905980538 0.34905980164 0.3490597979 0.34905979415 
0.34905979041 0.34905978667 0.34905978292 0.34905977918 0.34906007818 0.34906007444 0.3490600707 0.34906006696 0.34906006322 
0.34906005948 0.34906005573 0.34906005199 0.34906004825 0.34906004451 0.34906004076 0.34906003702 0.34906003328 0.34906002953 
0.34906002579 0.34906002204 0.3490600183 0.34906001456 0.34906001081 0.34906000707 0.3490603062 0.34906030246 0.34906029872 
0.34906029498 0.34906029123 0.34906028749 0.34906028375 0.34906028001 0.34906027626 0.34906027252 0.34906026877 0.34906026503 
0.34906026129 0.34906025754 0.3490602538 0.34906025005 0.34906024631 0.34906024256 0.34906023881 0.34906023507 0.34906053434 
0.3490605306 0.34906052685 0.34906052311 0.34906051937 0.34906051562 0.34906051188 0.34906050813 0.34906050439 0.34906050064 
0.3490604969 0.34906049315 0.34906048941 0.34906048566 0.34906048192 0.34906047817 0.34906047442 0.34906047068 0.34906046693 
0.34906046318 0.34906076259 0.34906075884 0.3490607551 0.34906075136 0.34906074761 0.34906074386 0.34906074012 0.34906073637 
0.34906073263 0.34906072888 0.34906072514 0.34906072139 0.34906071764 0.3490607139 0.34906071015 0.3490607064 0.34906070265 
0.34906069891 0.34906069516 0.34906069141 0.34906099095 0.34906098721 0.34906098346 0.34906097971 0.34906097597 0.34906097222 
0.34906096847 0.34906096473 0.34906096098 0.34906095723 0.34906095349 0.34906094974 0.34906094599 0.34906094224 0.34906093849 
0.34906093475 0.349060931 0.34906092725 0.3490609235 0.34906091975 0.34906121943 0.34906121568 0.34906121193 0.34906120819 
0.34906120444 0.34906120069 0.34906119694 0.3490611932 0.34906118945 0.3490611857 0.34906118195 0.3490611782 0.34906117445 
0.3490611707 0.34906116695 0.3490611632 0.34906115946 0.34906115571 0.34906115196 0.3490611482 0.34906144801 0.34906144427 
0.34906144052 0.34906143677 0.34906143302 0.34906142927 0.34906142553 0.34906142178 0.34906141803 0.34906141428 0.34906141053 
0.34906140678 0.34906140303 0.34906139928 0.34906139553 0.34906139178 0.34906138803 0.34906138427 0.34906138052 0.34906137677 
0.34906167672 0.34906167297 0.34906166922 0.34906166547 0.34906166172 0.34906165797 0.34906165422 0.34906165047 0.34906164672 
0.34906164297 0.34906163922 0.34906163547 0.34906163172 0.34906162796 0.34906162421 0.34906162046 0.34906161671 0.34906161296 
0.34906160921 0.34906160545 0.34905760109 0.34905759736 0.34905759363 0.3490575899 0.34905758617 0.34905758245 0.34905757872 
0.34905757499 0.34905757126 0.34905756753 0.3490575638 0.34905756007 0.34905755634 0.34905755261 0.34905754888 0.34905754515 
0.34905754142 0.34905753769 0.34905753396 0.34905753023 0.34905782775 0.34905782402 0.34905782029 0.34905781656 0.34905781283 
0.34905780911 0.34905780538 0.34905780165 0.34905779792 0.34905779419 0.34905779046 0.34905778673 0.34905778299 0.34905777926 
0.34905777553 0.3490577718 0.34905776807 0.34905776434 0.34905776061 0.34905775687 0.34905805453 0.3490580508 0.34905804707 
0.34905804334 0.34905803961 0.34905803588 0.34905803215 0.34905802842 0.34905802469 0.34905802095 0.34905801722 0.34905801349 
0.34905800976 0.34905800603 0.34905800229 0.34905799856 0.34905799483 0.3490579911 0.34905798736 0.34905798363 0.34905828142 
0.34905827769 0.34905827396 0.34905827023 0.34905826649 0.34905826276 0.34905825903 0.3490582553 0.34905825157 0.34905824784 
0.3490582441 0.34905824037 0.34905823664 0.3490582329 0.34905822917 0.34905822544 0.3490582217 0.34905821797 0.34905821423 
0.3490582105 0.34905850842 0.34905850469 0.34905850096 0.34905849723 0.34905849349 0.34905848976 0.34905848603 0.3490584823 
0.34905847856 0.34905847483 0.3490584711 0.34905846736 0.34905846363 0.34905845989 0.34905845616 0.34905845242 0.34905844869 
0.34905844495 0.34905844122 0.34905843748 0.34905873554 0.34905873181 0.34905872807 0.34905872434 0.34905872061 0.34905871687 
0.34905871314 0.34905870941 0.34905870567 0.34905870194 0.3490586982 0.34905869447 0.34905869073 0.349058687 0.34905868326 
0.34905867953 0.34905867579 0.34905867205 0.34905866832 0.34905866458 0.34905896277 0.34905895904 0.3490589553 0.34905895157 