# vtk DataFile Version 5.1
vtk output
ASCII
DATASET STRUCTURED_POINTS
DIMENSIONS 30 30 30
SPACING 0.01 0.01 0.01
ORIGIN 1.555 -0.145 0.855
POINT_DATA 27000
FIELD FieldData 1
potential 1 27000 double
0.0013040281847 0.0013013592239 0.0012986990916 0.0012960475956 0.0012934049152 0.0012907707915 0.0012881451937 0.0012855281237 0.0012829195315 
0.001280319314 0.0012777274581 0.0012751439025 0.0012725685073 0.0012700014139 0.001267442422 0.0012648915426 0.0012623486394 0.0012598137994 
0.0012572868407 0.0012547678979 0.0012522567726 0.0012497534165 0.0012472578136 0.0012447699228 0.0012422896952 0.0012398169935 0.0012373519506 
0.0012348944529 0.0012324444403 0.0012300018749 0.0013051544694 0.0013024791052 0.001299812612 0.0012971549398 0.0012945059386 0.0012918656055 
0.0012892338761 0.0012866107131 0.0012839960788 0.0012813898485 0.0012787919771 0.0012762024529 0.0012736211879 0.0012710481221 0.0012684832805 
0.0012659266777 0.0012633779476 0.0012608374246 0.0012583047825 0.0012557801247 0.0012532633288 0.0012507543642 0.0012482531871 0.0012457597419 
0.0012432740115 0.0012407958473 0.0012383253472 0.0012358624224 0.0012334070049 0.0012309590636 0.0013062850951 0.0013036034357 0.0013009305039 
0.0012982665179 0.0012956112645 0.0012929647892 0.0012903269312 0.001287697627 0.0012850768876 0.0012824645743 0.0012798607255 0.0012772651874 
0.0012746779844 0.0012720990482 0.0012695283308 0.0012669658106 0.0012644113404 0.0012618650688 0.0012593267376 0.0012567964003 0.0012542739908 
0.0012517593663 0.0012492526008 0.0012467536162 0.0012442623442 0.0012417787955 0.0012393027176 0.0012368343398 0.0012343734914 0.00123192016 
0.0013074202548 0.001304732177 0.0013020529534 0.0012993826491 0.0012967211054 0.0012940683307 0.001291424216 0.0012887887279 0.0012861618936 
0.0012835435464 0.001280933709 0.0012783321912 0.001275739026 0.0012731542215 0.0012705776203 0.0012680092471 0.0012654489809 0.0012628969464 
0.0012603528895 0.0012578168536 0.0012552887804 0.001252768562 0.0012502561487 0.0012477515803 0.0012452547636 0.001242765687 0.0012402841348 
0.0012378103019 0.0012353440266 0.0012328852843 0.0013085598219 0.0013058653117 0.0013031797387 0.0013005030095 0.0012978351985 0.0012951761495 
0.0012925258446 0.0012898842289 0.0012872512298 0.0012846267486 0.0012820108524 0.0012794033979 0.0012768043513 0.0012742136275 0.0012716311421 
0.001269056908 0.00126649079 0.0012639330094 0.0012613832255 0.0012588414523 0.001256307701 0.0012537818349 0.0012512638423 0.001248753651 
0.0012462512747 0.001243756673 0.0012412697069 0.0012387903028 0.001236318583 0.0012338544053 0.0013097038565 0.0013070028676 0.0013043109198 
0.0013016278472 0.0012989537159 0.0012962884297 0.0012936318933 0.0012909840858 0.0012883449724 0.0012857144605 0.0012830924603 0.0012804789356 
0.0012778738826 0.0012752772176 0.0012726889115 0.0012701088223 0.0012675369326 0.001264973334 0.0012624178005 0.0012598702843 0.0012573307973 
0.0012547993134 0.0012522756909 0.0012497599289 0.0012472519536 0.0012447518027 0.0012422593302 0.0012397744104 0.0012372972285 0.0012348276279 
0.0013108523827 0.0013081449212 0.0013054465912 0.001302757249 0.0013000766966 0.0012974051309 0.0012947423973 0.0012920884045 0.0012894431443 
0.0012868065267 0.0012841784639 0.0012815589394 0.0012789479077 0.0012763452796 0.0012737510555 0.0012711650382 0.001268587326 0.0012660179061 
0.0012634566952 0.0012609034605 0.001258358234 0.0012558210715 0.0012532917879 0.0012507704177 0.0012482568841 0.0012457511434 0.0012432531405 
0.0012407626994 0.001238280046 0.0012358050153 0.0013120054385 0.0013092915514 0.0013065867308 0.0013038910178 0.0013012041768 0.0012985263105 
0.0012958573572 0.0012931971533 0.0012905456996 0.0012879029966 0.0012852688934 0.0012826433018 0.001280026296 0.0012774177005 0.0012748175227 
0.0012722256274 0.0012696420647 0.0012670667927 0.0012644997296 0.0012619407932 0.0012593899157 0.0012568470687 0.0012543121635 0.0012517851611 
0.001249266041 0.0012467547233 0.0012442511282 0.0012417552877 0.0012392670598 0.0012367865303 0.001313163112 0.0013104427316 0.0013077314802 
0.001305029371 0.0013023361868 0.0012996520719 0.0012969768529 0.0012943104435 0.0012916528185 0.0012890039889 0.001286363796 0.0012837321859 
0.0012811091336 0.0012784945665 0.0012758884691 0.0012732906524 0.0012707012563 0.0012681201275 0.0012655472182 0.0012629824701 0.0012604258811 
0.0012578772952 0.0012553367492 0.0012528041329 0.0012502794508 0.0012477624882 0.0012452533628 0.0012427519847 0.0012402582833 0.0012377722613 
0.001314325472 0.0013115985402 0.0013088808726 0.0013061723369 0.0013034728527 0.0013007822887 0.0012981007818 0.0012954282734 0.0012927644485 
0.0012901094744 0.0012874631785 0.0012848254859 0.00128219643 0.0012795759098 0.0012769637761 0.0012743601615 0.0012717648385 0.0012691778749 
0.00126659912 0.0012640285974 0.0012614662588 0.0012589119519 0.0012563657264 0.001253827429 0.0012512970731 0.0012487745739 0.0012462598982 
0.0012437530228 0.0012412538341 0.0012387622191 0.0013154924797 0.0013127590781 0.0013100349218 0.0013073199416 0.0013046140923 0.0013019171685 
0.0012992293771 0.0012965505322 0.0012938805301 0.0012912194211 0.0012885670149 0.0012859232966 0.0012832882002 0.0012806616795 0.0012780435812 
0.0012754340332 0.0012728328422 0.0012702400265 0.0012676554646 0.0012650791128 0.0012625109641 0.0012599509807 0.0012573990702 0.0012548550835 
0.0012523191084 0.0012497909962 0.0012472707526 0.0012447583094 0.0012422535806 0.0012397564326 0.0013166641164 0.0013139241844 0.0013111935653 
0.0013084721899 0.0013057599366 0.0013030567842 0.0013003625754 0.0012976774778 0.0012950012447 0.0012923339105 0.0012896753505 0.001287025557 
0.0012843844092 0.0012817519206 0.0012791278489 0.0012765123622 0.0012739052539 0.0012713065975 0.0012687162028 0.0012661340468 0.0012635601053 
0.0012609943804 0.0012584366955 0.0012558870712 0.001253345438 0.0012508116894 0.0012482858481 0.0012457678437 0.0012432575617 0.0012407550535 
0.0013178404284 0.0013150939513 0.0013123568246 0.0013096289979 0.0013069103686 0.0013042008651 0.0013015003296 0.001298808944 0.0012961264999 
0.0012934530065 0.001290788278 0.0012881323852 0.001285485156 0.0012828466407 0.0012802165852 0.001277595095 0.001274982121 0.0012723775497 
0.0012697813182 0.00126719336 0.0012646136207 0.0012620420682 0.0012594786878 0.001256923388 0.001254376087 0.0012518367164 0.0012493052766 
0.0012467816752 0.0012442658346 0.0012417577892 0.0013190213626 0.00131626833 0.0013135246926 0.0013107904107 0.0013080653789 0.0013053495381 
0.0013026426663 0.0012999449943 0.0012972563093 0.0012945765907 0.001291905731 0.0012892436613 0.0012865903807 0.0012839457879 0.0012813098141 
0.001278682297 0.0012760633743 0.0012734528834 0.0012708508401 0.0012682570576 0.0012656715486 0.0012630941961 0.0012605250978 0.0012579640699 
0.0012554110972 0.0012528660896 0.0012503290052 0.0012477998043 0.0012452783938 0.0012427647878 0.0013202069446 0.0013174473548 0.0013146971714 
0.0013119564022 0.0013092249245 0.0013065027371 0.0013037896166 0.0013010855762 0.0012983906376 0.0012957046782 0.0012930276468 0.001290359469 
0.0012877000609 0.0012850494174 0.0012824074504 0.0012797739775 0.0012771491099 0.0012745327123 0.0012719247058 0.0012693250915 0.0012667337409 
0.0012641506957 0.0012615757669 0.0012590090895 0.0012564504045 0.0012538997514 0.0012513570349 0.0012488222016 0.0012462952274 0.0012437760447 
0.0013213971214 0.0013186309335 0.0013158742412 0.0013131269852 0.0013103890515 0.0013076604605 0.0013049410462 0.0013022306322 0.0012995294104 
0.0012968372314 0.0012941540266 0.0012914797051 0.0012888142018 0.00128615746 0.0012835094646 0.0012808700216 0.0012782391945 0.0012756168754 
0.0012730030176 0.001270397535 0.0012678003546 0.0012652114659 0.0012626307747 0.0012600583781 0.0012574940454 0.0012549377191 0.0012523893251 
0.0012498488617 0.0012473162891 0.0012447915366 0.0013225919463 0.0013198191185 0.0013170558364 0.0013143020702 0.0013115576989 0.0013088226514 
0.001306096919 0.0013033802696 0.0013006726814 0.0012979742553 0.0012952848823 0.0012926044028 0.0012899327598 0.001287269939 0.0012846159019 
0.0012819705007 0.0012793336979 0.0012767054088 0.0012740856423 0.0012714742928 0.0012688713189 0.0012662766455 0.0012636902048 0.0012611119123 
0.0012585419303 0.0012559798703 0.0012534258918 0.0012508797764 0.0012483415935 0.0012458112555 0.0013237913456 0.0013210119002 0.0013182419923 
0.0013154816963 0.0013127308318 0.0013099893712 0.0013072572355 0.0013045342643 0.0013018203817 0.0012991156973 0.001296420127 0.0012937334784 
0.0012910557619 0.0012883868107 0.0012857267082 0.0012830752852 0.0012804325359 0.0012777982634 0.0012751725356 0.0012725553285 0.0012699465334 
0.0012673460433 0.0012647538393 0.0012621698619 0.001259594113 0.001257026313 0.0012544666147 0.0012519148677 0.0012493711096 0.0012468351683 
0.0013249952413 0.0013222091126 0.0013194327017 0.0013166658755 0.0013139085216 0.0013111605256 0.0013084220077 0.0013056927358 0.0013029724975 
0.0013002615529 0.0012975597423 0.0012948669252 0.0012921830494 0.0012895080198 0.0012868418183 0.0012841843793 0.0012815356362 0.0012788953764 
0.001276263734 0.0012736406349 0.0012710259787 0.0012684196699 0.0012658216837 0.0012632319404 0.0012606504429 0.0012580769886 0.0012555116154 
0.0012529541792 0.0012504047336 0.0012478632087 0.0013262035134 0.0013234108332 0.0013206277708 0.0013178543885 0.0013150905415 0.0013123361722 
0.0013095912362 0.001306855564 0.001304128936 0.0013014117515 0.0012987037065 0.0012960046933 0.0012933146238 0.0012906335214 0.0012879612298 
0.0012852977765 0.0012826429775 0.0012799968191 0.0012773592495 0.0012747302181 0.0012721096611 0.0012694974863 0.0012668936608 0.0012642981993 
0.001261710938 0.0012591317891 0.001256560669 0.0012539975729 0.001251442487 0.0012488952913 0.0013274161965 0.0013246169145 0.0013218272842 
0.001319047337 0.0013162769342 0.0013135160918 0.001310764672 0.0013080226516 0.0013052898553 0.0013025662706 0.0012998519577 0.00129714668 
0.0012944504433 0.0012917631825 0.0012890848305 0.0012864153202 0.0012837545237 0.0012811023544 0.0012784588384 0.0012758238909 0.0012731974658 
0.0012705794574 0.0012679697661 0.0012653684995 0.0012627754041 0.0012601905077 0.0012576138088 0.0012550450448 0.0012524842734 0.001249931499 
0.0013286332672 0.0013258271869 0.001323031066 0.001320244482 0.0013174676111 0.001314700249 0.0013119424189 0.0013091940066 0.0013064548833 
0.0013037249856 0.0013010043932 0.0012982929485 0.0012955905458 0.0012928971814 0.0012902126474 0.0012875370471 0.0012848702438 0.0012822121114 
0.0012795625928 0.0012769216999 0.0012742893674 0.0012716654988 0.0012690500918 0.0012664429793 0.0012638441211 0.0012612534722 0.0012586710255 
0.0012560965551 0.0012535301647 0.0012509718211 0.0013298545965 0.001327041863 0.0013242389509 0.001321445915 0.0013186625019 0.0013158887391 
0.0013131244599 0.0013103695026 0.0013076241198 0.0013048878715 0.0013021610386 0.0012994433458 0.0012967347641 0.001294035205 0.0012913445207 
0.0012886628401 0.0012859899491 0.0012833258544 0.0012806704563 0.0012780236451 0.001275385363 0.0012727556224 0.0012701344188 0.0012675214671 
0.0012649168461 0.0012623204573 0.0012597322836 0.0012571521533 0.0012545800106 0.0012520160163 0.00133108025 0.0013282607332 0.0013254511726 
0.001322651446 0.0013198615655 0.0013170812376 0.0013143105554 0.0013115492575 0.0013087975017 0.0013060550085 0.0013033217538 0.0013005977408 
0.0012978829285 0.0012951772561 0.0012924805015 0.0012897927293 0.0012871138924 0.0012844436739 0.0012817822159 0.0012791294552 0.0012764853548 
0.001273849826 0.0012712226869 0.0012686039133 0.0012659934603 0.0012633913136 0.0012607973455 0.0012582115714 0.0012556337995 0.0012530641065 
0.0013323099643 0.0013294837985 0.0013266675667 0.0013238612246 0.0013210646862 0.0013182778409 0.0013155006449 0.0013127329203 0.0013099747749 
0.0013072259736 0.0013044863934 0.0013017561986 0.0012990351658 0.0012963233044 0.0012936204531 0.001290926617 0.0012882416402 0.0012855654737 
0.0012828981016 0.0012802394183 0.0012775892897 0.0012749477383 0.0012723147094 0.0012696901422 0.0012670738847 0.001264466018 0.0012618663192 
0.0012592748032 0.0012566913947 0.0012541159995 0.0013335437303 0.0013307108251 0.0013278879233 0.0013250749357 0.0013222718187 0.0013194783738 
0.0013166946125 0.0013139206047 0.0013111560312 0.0013084009397 0.0013056551042 0.0013029185286 0.0013001912314 0.0012974732366 0.0012947642888 
0.0012920643639 0.0012893733436 0.0012866910649 0.0012840176804 0.0012813530124 0.0012786970554 0.0012760495848 0.0012734107045 0.0012707801871 
0.0012681580934 0.0012655443873 0.0012629389668 0.0012603417199 0.0012577526038 0.0012551715349 0.0013347813926 0.0013319417949 0.0013291121923 
0.0013262925044 0.0013234827886 0.0013206828566 0.001317892593 0.0013151120435 0.0013123411543 0.0013095797114 0.001306827503 0.0013040847124 
0.0013013513139 0.001298627098 0.0012959119368 0.0012932058235 0.0012905086533 0.0012878203935 0.0012851409955 0.0012824703287 0.0012798084299 
0.001277155074 0.0012745103278 0.0012718740182 0.0012692461159 0.0012666265063 0.0012640152838 0.0012614122993 0.0012588175097 0.0012562307532 
0.0013360229334 0.0013331764677 0.0013303402125 0.0013275139391 0.0013246976013 0.0013218911317 0.0013190943502 0.0013163073291 0.0013135299344 
0.0013107622214 0.0013080038382 0.0013052545849 0.0013025148726 0.0012997845124 0.0012970632342 0.0012943510543 0.0012916477634 0.0012889534446 
0.0012862679674 0.001283591432 0.0012809235355 0.0012782642023 0.0012756135088 0.001272971331 0.0012703376095 0.0012677123076 0.0012650952763 
0.001262486471 0.0012598858871 0.0012572934384 0.0013372681777 0.0013344150201 0.0013315719833 0.0013287390377 0.0013259161207 0.0013231030614 
0.0013202997807 0.0013175063347 0.0013147225036 0.0013119482612 0.0013091836026 0.0013064280797 0.0013036821141 0.0013009454503 0.0012982180114 
0.0012954997038 0.0012927903646 0.001290089952 0.0012873985088 0.0012847159747 0.001282042103 0.0012793768442 0.0012767202514 0.0012740721874 
0.0012714326261 0.0012688015151 0.0012661787412 0.0012635641915 0.0012609579103 0.001258359682 0.0013385170808 0.0013356571393 0.0013328073663 
0.0013299677497 0.0013271382187 0.0013243185893 0.0013215088135 0.0013187088202 0.0013159185391 0.0013131378955 0.0013103667942 0.0013076050642 
0.0013048528271 0.0013021099365 0.0012993763215 0.0012966517827 0.0012939363831 0.0012912298957 0.0012885324985 0.0012858438662 0.0012831640321 
0.0012804928855 0.0012778304137 0.0012751764783 0.0012725310154 0.0012698940885 0.0012672654948 0.0012646451979 0.0012620331411 0.0012594293024 
0.0013183160371 0.0013156212963 0.0013129354058 0.0013102584113 0.0013075900296 0.001304930365 0.0013022794507 0.0012996371027 0.0012970032174 
0.0012943778451 0.0012917608782 0.0012891522977 0.0012865520606 0.0012839601026 0.0012813763124 0.0012788006869 0.0012762332646 0.0012736739176 
0.001271122601 0.0012685792518 0.0012660438147 0.0012635162974 0.001260996621 0.0012584847433 0.0012559805168 0.0012534841265 0.0012509953876 
0.0012485142559 0.0012460406812 0.0012435746655 0.0013194622801 0.00131676107 0.0013140687919 0.0013113853721 0.0013087106826 0.0013060448219 
0.0013033876372 0.001300738996 0.0012980990428 0.0012954676058 0.0012928445458 0.0012902299341 0.00128762373 0.00128502576 0.0012824361384 
0.0012798545726 0.001277281355 0.0012747160874 0.0012721590454 0.0012696099566 0.0012670688414 0.0012645356448 0.0012620103238 0.0012594928373 
0.0012569830598 0.0012544810808 0.0012519868015 0.0012495001738 0.0012470211327 0.0012445496671 0.0013206129513 0.0013179052632 0.0013152065464 
0.0013125166887 0.0013098356765 0.001307163503 0.001304499974 0.0013018451341 0.0012991990323 0.0012965614543 0.0012939322933 0.001291311633 
0.0012886994252 0.0012860955247 0.0012834999424 0.0012809124877 0.0012783334148 0.0012757623691 0.0012731994965 0.0012706446743 0.0012680978339 
0.0012655589476 0.0012630279676 0.0012605048469 0.0012579895724 0.0012554819184 0.0012529820986 0.0012504899456 0.001248005427 0.0012455285064 
0.001321767759 0.0013190535454 0.0013163484175 0.0013136521773 0.0013109648105 0.0013082863165 0.0013056165879 0.0013029554843 0.0013003031536 
0.0012976594425 0.0012950241669 0.0012923974769 0.0012897792874 0.0012871694258 0.0012845678935 0.0012819745645 0.001279389628 0.0012768127227 
0.0012742440507 0.0012716834803 0.0012691308644 0.0012665862739 0.0012640496205 0.0012615208564 0.0012589999608 0.0012564867297 0.0012539813649 
0.0012514836669 0.0012489936552 0.001246511289 0.0013229268962 0.0013202062777 0.0013174946045 0.0013147919754 0.0013120982524 0.0013094133948 
0.0013067374007 0.0013040700989 0.0013014115343 0.001298761689 0.0012961203157 0.0012934875144 0.0012908632568 0.0012882473662 0.0012856399359 
0.0012830406832 0.0012804498516 0.0012778671757 0.0012752926864 0.0012727263118 0.001270167984 0.001267617637 0.0012650752956 0.0012625408734 
0.0012600143489 0.0012574956214 0.0012549845756 0.001252481336 0.0012499857991 0.0012474979291 0.0013240904227 0.0013213632736 0.0013186451364 
0.0013159360893 0.0013132360405 0.0013105448379 0.0013078625416 0.0013051890193 0.0013025242201 0.00129986821 0.0012972207105 0.0012945818246 
0.0012919514893 0.0012893296307 0.0012867161988 0.001284111011 0.0012815142156 0.0012789257788 0.0012763454414 0.0012737732506 0.0012712092048 
0.00126865314 0.0012661050608 0.0012635649622 0.0012610328 0.0012585084631 0.0012559918245 0.0012534830279 0.0012509819718 0.0012484885613 
0.0013252584104 0.0013225247449 0.0013198001446 0.0013170846039 0.0013143781755 0.0013116806293 0.0013089920041 0.0013063122303 0.001303641257 
0.0013009790375 0.0012983254237 0.0012956804709 0.0012930440238 0.0012904161533 0.0012877967279 0.0012851856855 0.001282582912 0.0012799885157 
0.0012774022982 0.0012748243026 0.0012722545082 0.0012696927711 0.0012671390096 0.0012645931898 0.0012620553753 0.0012595254048 0.001257003265 
0.0012544887889 0.0012519821583 0.0012494832421 0.0013264308936 0.0013236906425 0.0013209595479 0.0013182375324 0.0013155246731 0.0013128208241 
0.001310125874 0.0013074398249 0.0013047626234 0.0013020941918 0.0012994344474 0.0012967833847 0.0012941408869 0.0012915069614 0.0012888815518 
0.0012862645353 0.0012836558385 0.0012810555043 0.0012784635134 0.0012758796918 0.00127330408 0.0012707364945 0.0012681770051 0.0012656255548 
0.0012630820362 0.0012605464234 0.0012580186972 0.0012554986373 0.0012529864772 0.0012504820176 0.0013276077405 0.0013248609866 0.0013221233959 
0.0013193949831 0.0013166755941 0.0013139653407 0.0013112640615 0.0013085717698 0.0013058883237 0.0013032136893 0.0013005477827 0.0012978905964 
0.0012952420089 0.0012926020627 0.0012899706319 0.0012873475837 0.0012847329914 0.0012821267892 0.0012795289274 0.0012769392682 0.0012743578042 
0.0012717845301 0.0012692193002 0.0012666620665 0.001264112894 0.0012615715994 0.0012590382054 0.0012565126951 0.001253994853 0.0012514848212 
0.0013287892743 0.0013260358277 0.0013232916784 0.0013205567962 0.0013178310428 0.0013151144271 0.0013124067736 0.0013097081343 0.0013070184483 
0.0013043375743 0.0013016655678 0.0012990022138 0.0012963475654 0.001293701512 0.0012910640556 0.0012884350416 0.0012858144877 0.0012832023537 
0.0012805985639 0.0012780030642 0.001275415785 0.0012728367196 0.0012702657321 0.0012677028169 0.0012651479751 0.0012626009769 0.0012600619353 
0.0012575307919 0.0012550073606 0.0012524917806 0.0013299752707 0.0013272152674 0.0013244645498 0.0013217231923 0.0013189909963 0.0013162678904 
0.0013135539062 0.0013108489075 0.0013081529947 0.0013054658865 0.0013027876937 0.0013001182373 0.0012974574413 0.0012948053115 0.0012921618177 
0.0012895268027 0.0012869003407 0.0012842822349 0.001281672526 0.0012790711235 0.0012764780523 0.0012738931856 0.0012713164285 0.0012687477686 
0.0012661871858 0.001263634581 0.0012610899002 0.0012585530708 0.0012560240516 0.0012535028948 0.0013311658161 0.0013283992232 0.0013256420027 
0.0013228941012 0.001320155438 0.0013174258892 0.0013147055134 0.0013119941852 0.0013092919445 0.0013065985755 0.0013039141717 0.0013012386041 
0.0012985716824 0.0012959134482 0.0012932639321 0.001290622903 0.0012879904598 0.0012853664198 0.0012827508162 0.0012801435604 0.0012775446087 
0.0012749538862 0.0012723713904 0.0012697969765 0.0012672306522 0.0012646723492 0.0012621220264 0.0012595795933 0.001257045024 0.0012545181266 
0.0013323609382 0.0013295877075 0.0013268239131 0.0013240694998 0.0013213243655 0.0013185883715 0.0013158616428 0.0013131439694 0.00131043541 
0.0013077357331 0.0013050450855 0.00130236329 0.0012996902636 0.0012970258895 0.001294370321 0.0012917233369 0.0012890849036 0.0012864549093 
0.0012838333888 0.001281220241 0.001278615422 0.0012760188598 0.0012734305557 0.001270850387 0.0012682783081 0.0012657142961 0.0012631582864 
0.0012606102029 0.0012580700247 0.0012555375581 0.0013335605096 0.0013307806702 0.0013280103033 0.0013252493491 0.0013224976964 0.0013197553917 
0.0013170222045 0.0013142981385 0.0013115832438 0.0013088773547 0.0013061804476 0.001303492493 0.0013008132796 0.0012981428051 0.0012954810825 
0.0012928280302 0.0012901835944 0.0012875476811 0.001284920231 0.0012823011838 0.0012796904874 0.001277088147 0.0012744939635 0.0012719080349 
0.0012693302257 0.0012667604857 0.001264198756 0.0012616450155 0.0012590991748 0.0012565612066 0.0013347646478 0.0013319781321 0.001329201188 
0.0013264337072 0.0013236755766 0.0013209267791 0.0013181871822 0.0013154567785 0.0013127354953 0.0013100233589 0.0013073202047 0.0013046260358 
0.001301940665 0.0012992640989 0.0012965962083 0.0012939370713 0.0012912866407 0.0012886447299 0.001286011289 0.0012833863772 0.0012807698092 
0.0012781615437 0.0012755616384 0.0012729699055 0.0012703863257 0.001267810853 0.0012652434137 0.0012626839933 0.0012601324938 0.0012575889033 
0.0013359733361 0.0013331801513 0.0013303965516 0.001327622475 0.0013248578603 0.0013221025771 0.0013193565661 0.0013166197605 0.0013138921631 
0.0013111737025 0.0013084642823 0.001305763894 0.0013030723677 0.0013003896589 0.0012977157083 0.0012950504974 0.0012923940112 0.0012897461003 
0.0012871066805 0.001284475792 0.0012818533036 0.0012792391873 0.0012766334766 0.0012740359755 0.0012714466387 0.0012688653809 0.0012662922216 
0.0012637271056 0.0012611699453 0.0012586207086 0.0013371864587 0.0013343866126 0.0013315963963 0.0013288157064 0.0013260445414 0.0013232827762 
0.001320530373 0.0013177871079 0.0013150531518 0.0013123283775 0.0013096127075 0.0013069060772 0.0013042083581 0.0013015194972 0.0012988393804 
0.0012961681282 0.0012935056049 0.0012908516871 0.0012882063103 0.0012855695074 0.0012829410646 0.0012803210888 0.0012777094398 0.001275106229 
0.001272511107 0.0012699241083 0.0012673451928 0.0012647743483 0.0012622115082 0.0012596566173 0.0013384040663 0.0013355974798 0.0013328006201 
0.0013300133465 0.0013272356216 0.0013244673787 0.0013217084775 0.0013189588447 0.0013162184942 0.0013134873961 0.001310765443 0.0013080525741 
0.0013053486138 0.0013026535581 0.0012999673815 0.0012972900893 0.0012946214083 0.0012919614681 0.0012893101379 0.0012866673237 0.0012840330251 
0.0012814071879 0.0012787896894 0.0012761805969 0.0012735796529 0.0012709868633 0.0012684022772 0.0012658257348 0.0012632571887 0.0012606966207 
0.0013396260981 0.0013368128583 0.0013340092903 0.0013312153292 0.001328431041 0.001325656279 0.0013228909105 0.0013201348042 0.0013173881238 
0.0013146506901 0.0013119224168 0.0013092032896 0.0013064931697 0.0013037919088 0.0013010995882 0.0012984161867 0.001295741424 0.0012930754537 
0.0012904181029 0.001287769321 0.0012851290896 0.0012824973326 0.0012798739501 0.0012772590666 0.001274652342 0.0012720537421 0.0012694633243 
0.0012668810675 0.0012643068685 0.0012617406205 0.0013408524249 0.0013380324564 0.0013352222502 0.0013324217499 0.0013296308373 0.0013268495454 
0.0013240776099 0.001321315138 0.0013185619864 0.0013158182124 0.0013130836325 0.0013103582358 0.0013076418666 0.0013049344331 0.001302235988 
0.0012995464437 0.0012968656497 0.0012941935672 0.0012915302286 0.0012888754716 0.0012862292804 0.0012835916123 0.0012809624267 0.0012783415895 
0.0012757290472 0.0012731246961 0.0012705285772 0.0012679404976 0.0012653605545 0.0012627886188 0.0013420830741 0.0013392563706 0.0013364394348 
0.0013336323136 0.0013308348575 0.0013280469772 0.0013252686175 0.0013224996911 0.001319740137 0.0013169899227 0.0013142490176 0.001311517316 
0.0013087947169 0.0013060810857 0.001303376479 0.001300680796 0.00129799394 0.0012953157927 0.0012926464347 0.001289985715 0.0012873335505 
0.00128468995 0.0012820548909 0.0012794281741 0.0012768097857 0.0012741996355 0.0012715976634 0.0012690038848 0.0012664182026 0.0012638405682 
0.0013433179787 0.0013404845199 0.0013376609264 0.0013348471315 0.0013320430691 0.0013292486739 0.0013264636891 0.0013236882596 0.0013209223097 
0.001318165777 0.0013154185491 0.0013126805512 0.0013099515692 0.001307231756 0.0013045209664 0.0013018191361 0.0012991261742 0.0012964420032 
0.0012937665873 0.0012910998758 0.0012884417601 0.0012857922236 0.0012831512153 0.0012805185648 0.0012778943383 0.0012752784238 0.0012726707173 
0.0012700711844 0.0012674797443 0.0012648964137 0.0013445568698 0.0013417166273 0.0013388864592 0.0013360660002 0.0013332553193 0.0013304543539 
0.0013276629249 0.0013248811093 0.0013221087402 0.001319345675 0.0013165920625 0.0013138477701 0.0013111126004 0.0013083865909 0.0013056695362 
0.0013029615125 0.0013002624368 0.0012975721756 0.001294890701 0.0012922179642 0.001289553919 0.0012868984828 0.0012842515433 0.0012816130281 
0.0012789829577 0.001276361221 0.0012737476675 0.001271142405 0.0012685452734 0.0012659561815 0.0013458000474 0.0013429530064 0.0013401159778 
0.0013372889204 0.001334471669 0.0013316641013 0.0013288661519 0.0013260778514 0.0013232990322 0.0013205296293 0.001317769642 0.0013150190362 
0.0013122775654 0.0013095453039 0.0013068220294 0.0013041078282 0.0013014026014 0.001298706273 0.0012960187647 0.0012933400205 0.0012906700148 
0.0012880085438 0.0012853556881 0.0012827113154 0.001280075405 0.0012774477814 0.0012748285408 0.0012722174567 0.0012696145069 0.0012670197055 
0.0013470473075 0.0013441934836 0.0013413496396 0.0013385158057 0.0013356919363 0.0013328777775 0.0013300733405 0.0013272785376 0.0013244932664 
0.0013217174635 0.0013189510432 0.00131619405 0.0013134462776 0.0013107077874 0.0013079784545 0.0013052581093 0.0013025466925 0.0012998442726 
0.0012971507289 0.0012944658199 0.0012917899272 0.0012891225277 0.0012864636685 0.0012838133466 0.0012811715364 0.0012785380711 0.0012759129971 
0.0012732961208 0.0012706874401 0.0012680869546 0.0013482984692 0.0013454378492 0.0013425873032 0.0013397467506 0.001336916138 0.0013340953894 
0.0013312844033 0.0013284830835 0.0013256913005 0.0013229090127 0.0013201363089 0.0013173729739 0.0013146189129 0.0013118741131 0.0013091385752 
0.0013064120437 0.0013036944825 0.0013009860416 0.0012982864259 0.0012955955935 0.0012929135371 0.0012902401247 0.0012875753132 0.0012849190909 
0.0012822713925 0.001279632059 0.0012770011491 0.0012743784709 0.0012717640163 0.0012691577818 0.0013495534697 0.0013466860306 0.001343828722 
0.0013409814537 0.0013381441628 0.0013353166432 0.0013324991659 0.0013296913215 0.0013268931296 0.0013241044792 0.0013213253189 0.0013185556691 
0.0013157952458 0.0013130441625 0.001310302476 0.0013075697173 0.0013048460306 0.0013021313976 0.001299425697 0.0012967288899 0.0012940407607 
0.0012913614021 0.001288690628 0.0012860283924 0.001283374776 0.0012807295783 0.0012780928278 0.0012754643832 0.0012728441949 0.0012702321194 
0.0013508121696 0.0013479379592 0.0013450738689 0.001342219803 0.0013393758195 0.0013365417429 0.0013337175762 0.0013309032898 0.001328098607 
0.0013253035079 0.0013225178671 0.0013197419839 0.0013169752727 0.0013142179282 0.0013114699298 0.0013087309412 0.0013060010831 0.0013032803168 
0.0013005685786 0.0012978656641 0.0012951715063 0.0012924861607 0.0012898094804 0.0012871413402 0.0012844818356 0.0012818306822 0.001279188028 
0.0012765537329 0.0012739277561 0.0012713099898 0.0013520745334 0.0013491933984 0.0013463225912 0.0013434618394 0.0013406111608 0.0013377704481 
0.0013349396782 0.0013321187464 0.0013293075502 0.0013265060886 0.0013237140797 0.0013209316739 0.0013181586666 0.0013153951512 0.0013126408266 
0.0013098957026 0.0013071596577 0.0013044327389 0.0013017149208 0.0012990058558 0.0012963056557 0.0012936143004 0.0012909316362 0.0012882575861 
0.0012855921805 0.0012829351998 0.0012802866685 0.0012776464849 0.0012750147084 0.0012723911237 0.0013533405015 0.0013504525404 0.0013475748442 
0.0013447073191 0.0013418499726 0.0013390026315 0.0013361653137 0.001333337806 0.0013305200855 0.0013277120028 0.0013249136581 0.0013221248434 
0.0013193455485 0.0013165756515 0.0013138151078 0.0013110637276 0.0013083215253 0.0013055885314 0.0013028645022 0.0013001494331 0.0012974432163 
0.0012947458191 0.0012920571242 0.0012893771363 0.0012867058018 0.001284042921 0.0012813885722 0.0012787426883 0.0012761049899 0.0012734755521 
0.0013325909596 0.0013298704449 0.001327158929 0.0013244562401 0.001321762433 0.0013190774175 0.0013164010757 0.0013137333739 0.0013110743559 
0.0013084238128 0.001305781851 0.0013031483323 0.0013005232531 0.0012979065026 0.0012952979534 0.0012926977932 0.0012901058593 0.0012875220467 
0.0012849463067 0.001282378684 0.0012798190918 0.0012772674702 0.0012747237804 0.0012721878814 0.0012696599548 0.0012671397965 0.0012646273872 
0.0012621226455 0.0012596256125 0.0012571362137 0.001333757071 0.0013310300381 0.0013283120341 0.0013256028804 0.0013229026423 0.0013202111882 
0.0013175285278 0.0013148546648 0.0013121893817 0.0013095326376 0.0013068845925 0.0013042449476 0.0013016138423 0.0012989910988 0.0012963765679 
0.0012937703911 0.0012911724845 0.0012885828349 0.0012860012693 0.0012834278461 0.0012808624699 0.0012783051032 0.0012757556995 0.0012732142128 