# vtk DataFile Version 5.1
vtk output
ASCII
DATASET STRUCTURED_POINTS
DIMENSIONS 26 14 26
SPACING 0.08 0.08 0.08
ORIGIN 2.7 -0.52 0
POINT_DATA 9464
FIELD FieldData 1
potential 1 9464 double
0.54106402408 0.54139808334 0.5417269443 0.54197600311 0.54217458749 0.54244328042 0.54280829746 0.54312201627 0.54322873602 
0.5431506248 0.54306344326 0.54310491737 0.54330104917 0.54355758153 0.54373393175 0.54375779112 0.54369351446 0.54362828111 
0.54357619855 0.54358290441 0.54380960436 0.5443384047 0.54498187812 0.54550030291 0.54572354439 0.54559853504 0.75592953741 
0.75615247999 0.75637689938 0.75658251063 0.75677700301 0.75698480263 0.75720312415 0.75738801969 0.75749674172 0.75753774413 
0.75756532076 0.75763123705 0.75774713644 0.75788257684 0.75799041992 0.75804635336 0.75806452597 0.75807539499 0.75810629491 
0.75819305142 0.7583814143 0.75867897376 0.75902104843 0.7593124088 0.75948201731 0.75952486336 0.91720432863 0.91737164256 
0.91754280894 0.9177105225 0.9178744302 0.91803775294 0.91819523527 0.91833175478 0.91843498116 0.91850890388 0.91857302213 
0.91864582241 0.91873394111 0.91882701271 0.91890939168 0.91897232983 0.9190202973 0.91906721418 0.91913051234 0.91922859241 
0.91937594973 0.91956978908 0.91978161388 0.91997223326 0.92011249041 0.92020146974 1.0167136001 1.0168463937 1.0169831678 
1.0171201955 1.0172556089 1.0173877002 1.0175128962 1.0176252383 1.0177206535 1.0178009415 1.017873805 1.0179466444 
1.0180225558 1.018098555 1.0181694683 1.0182323826 1.0182900148 1.0183495043 1.0184203376 1.0185114663 1.0186281331 
1.018766725 1.0189144857 1.0190537419 1.0191726434 1.01926981 1.0823656912 1.0824727064 1.0825834052 1.0826954161 
1.0828067456 1.0829155056 1.083018957 1.0831142891 1.0832001469 1.083277136 1.0833483721 1.0834169525 1.0834844799 
1.0835502607 1.083612882 1.0836718551 1.0837287781 1.0837878091 1.0838541907 1.0839322377 1.0840244329 1.0841286137 
1.0842384817 1.0843464735 1.0844472129 1.0845393531 1.1216915824 1.1217743787 1.1218604561 1.1219484162 1.122036598 
1.1221231881 1.1222063635 1.1222845057 1.1223565936 1.1224229476 1.122484735 1.1225433349 1.1225994635 1.1226531684 
1.1227041385 1.1227523734 1.1227993444 1.1228474235 1.1228994231 1.1229583012 1.123025282 1.1231000112 1.1231798112 
1.1232611721 1.1233413873 1.1234199378 1.1361655336 1.1361790105 1.1362006835 1.1362285772 1.1362607504 1.1362953038 
1.136330262 1.1363641095 1.1363958343 1.1364252305 1.1364525277 1.1364782471 1.1365026156 1.1365254218 1.1365464674 
1.1365657924 1.1365840512 1.1366027129 1.1366240068 1.1366498368 1.1366821266 1.1367213263 1.1367668953 1.136817576 
1.1368721021 1.1369293735 1.1308107066 1.1308796994 1.1309533288 1.1310310606 1.1311115967 1.131193413 1.1312748157 
1.1313545017 1.1314315826 1.1315059207 1.1315774967 1.1316466599 1.1317134774 1.1317776373 1.1318385075 1.1318956775 
1.1319490988 1.1319998251 1.1320497508 1.1321012697 1.1321571551 1.1322192497 1.1322888179 1.1323658949 1.1324497154 
1.1325389268 1.1080162865 1.1080920747 1.1081742308 1.1082625922 1.1083555193 1.1084510874 1.1085470744 1.1086417347 
1.1087341645 1.1088239337 1.108911585 1.1089973389 1.1090813178 1.109162487 1.1092396049 1.1093109577 1.1093755399 
1.1094338381 1.1094878266 1.1095411112 1.1095979935 1.1096624077 1.1097373431 1.109823821 1.1099210743 1.1100271039 
1.0648359623 1.0649140715 1.0650023778 1.0651006133 1.0652062089 1.0653158149 1.0654262883 1.0655353162 1.0656412633 
1.0657441894 1.0658450629 1.0659454841 1.0660453418 1.0661432842 1.0662363433 1.0663206809 1.0663934642 1.0664537148 
1.066504413 1.0665511014 1.06660132 1.0666620179 1.0667382222 1.0668330324 1.0669451696 1.0670707754 0.99762233965 
0.99769875641 0.99779373468 0.99790579117 0.99802926538 0.99815787017 0.99828717415 0.99841350271 0.99853418571 0.99864953952 
0.99876307207 0.99887840358 0.99899734127 0.99911679394 0.99923123529 0.99933278233 0.99941446903 0.99947325831 0.99951229394 
0.99954146827 0.99957496079 0.99962426327 0.99969906116 0.99980365042 0.99993721638 1.0000917257 0.89860888194 0.89867716047 
0.89878342229 0.89892061751 0.89907333922 0.89923097696 0.89938810911 0.89953918219 0.89967843654 0.89980521013 0.89992936106 
0.90006237199 0.90020805659 0.90036041627 0.90050989395 0.90064183541 0.90073901062 0.90079213105 0.9008060584 0.90079950097 
0.90079923202 0.90082639018 0.90089474066 0.90101348623 0.90118298351 0.90138779531 0.74090551756 0.74094810339 0.74107909768 
0.74126795257 0.74146983869 0.74166852524 0.74186706619 0.74205801061 0.74222153577 0.74235095803 0.74247213841 0.74262381036 
0.74281067211 0.7430145886 0.74322527772 0.74341613731 0.74354340877 0.7435841774 0.74354305581 0.74345719665 0.74338833394 
0.74337418913 0.74342185362 0.74355624689 0.74379168969 0.74408930944 0.53204215147 0.5320166968 0.53222961982 0.53255338483 
0.53284062667 0.53308638348 0.53335165031 0.53362868029 0.53384006905 0.53394206739 0.53400242552 0.53418005699 0.53445852713 
0.5347360403 0.53506253006 0.53539762785 0.53559355515 0.53561412961 0.53545761276 0.5351776283 0.53497042352 0.53490928742 
0.5348933965 0.53502022701 0.5354087226 0.535904602 0.52578653619 0.5260885114 0.52638698755 0.5266246583 0.52682530783 
0.52707882943 0.52740107734 0.52767606429 0.52778266731 0.5277386859 0.52768387974 0.5277320369 0.52790447791 0.52812527105 
0.52828129043 0.52831497462 0.52827427575 0.52822836823 0.52819811947 0.52822955021 0.52844799243 0.52891044408 0.52946944982 
0.52992619929 0.5301353312 0.53005953548 0.66631784662 0.66652981073 0.66674367621 0.66694248124 0.66713191251 0.66733144561 
0.66753741025 0.66771200299 0.6678195645 0.66786753918 0.6679027139 0.66797007475 0.66807989222 0.66820645537 0.66830884517 
0.66836639647 0.66839081536 0.66840893087 0.66844658593 0.66853664861 0.66871777833 0.66899469943 0.669310744 0.66958227676 
0.66974650972 0.66979946147 0.79024471108 0.79040733838 0.79057386233 0.79073749935 0.79089791014 0.79105700557 0.79120986369 
0.79134292601 0.79144525792 0.79152063234 0.79158659978 0.79165975979 0.791746127 0.79183678202 0.79191772869 0.79198111086 
0.79203120853 0.79208073122 0.79214596728 0.79224400747 0.7923875352 0.79257345702 0.7927759045 0.79295913502 0.79309666746 
0.79318753513 0.88133341816 0.88146419209 0.88159889494 0.88173398372 0.88186754774 0.88199773701 0.88212110757 0.88223234077 
0.88232745254 0.88240836494 0.8824819828 0.88255522137 0.88263097767 0.88270664083 0.8827775591 0.88284119062 0.88289989294 
0.88296078295 0.8830323691 0.88312337365 0.88323848221 0.88337411778 0.88351842452 0.88365492797 0.88377271256 0.88387027235 
0.94376790719 0.94387498928 0.94398568164 0.94409771931 0.94420911373 0.94431799901 0.94442173023 0.94451764131 0.94460446564 
0.94468277103 0.94475554256 0.94482547922 0.94489426374 0.94496138609 0.9450253718 0.94508598914 0.94514487276 0.94520575818 
0.94527379776 0.9453530442 0.94544581499 0.94555007909 0.94565982256 0.94576791482 0.94586938863 0.9459627554 0.98193306213 
0.98202054354 0.98211132017 0.98220398473 0.98229697202 0.98238847176 0.98247672123 0.98256015537 0.98263779438 0.98270993209 
0.982777664 0.98284224902 0.98290456234 0.98296446111 0.98302174853 0.98307661309 0.98313028942 0.98318516039 0.98324393995 
0.98330943065 0.98338284216 0.98346380039 0.98354987067 0.98363761931 0.98372448919 0.98380999416 0.99833746694 0.99841108761 
0.99848832397 0.99856822555 0.99864947915 0.99873063921 0.99881009465 0.99888663196 0.9989594506 0.99902849151 0.99909408922 
0.99915685915 0.9992170711 0.99927465253 0.99932948983 0.99938170437 0.99943197082 0.99948186785 0.99953350846 0.99958882326 
0.99964965078 0.99971657337 0.99978905434 0.99986593015 0.99994602779 1.0000282827 0.99514815264 0.99522189338 0.9953000955 
0.99538224256 0.99546707552 0.99555307325 0.99563865809 0.99572250708 0.9958037632 0.99588228252 0.99595802862 0.99603132827 
0.9961022577 0.99617041821 0.99623541743 0.99629671076 0.99635432365 0.99640933941 0.99646348855 0.99651925647 0.99657916157 
0.99664512768 0.99671833954 0.99679889931 0.99688587868 0.99697825548 0.97336637537 0.97344330667 0.97352638242 0.9736154441 
0.97370899067 0.97380499129 0.97390146434 0.97399668855 0.97408969876 0.97418012797 0.97426845307 0.97435486427 0.97443944494 
0.97452121726 0.97459898366 0.97467115166 0.97473674159 0.97479634999 0.97485179779 0.97490660067 0.9749649389 0.97503059128 
0.97510642967 0.97519347678 0.97529094368 0.97539699711 0.93183727348 0.93191571851 0.93200393172 0.93210164942 0.93220649152 
0.9323152172 0.93242485289 0.9325332082 0.93263848827 0.93274094654 0.93284140497 0.93294127119 0.93304041259 0.93313758252 
0.93322990679 0.93331381632 0.93338658935 0.93344741672 0.93349915255 0.93354723941 0.9335986023 0.9336601553 0.93373663872 
0.93383097962 0.93394206796 0.93406615377 0.86792263465 0.86799942764 0.86809366558 0.86820405986 0.86832544544 0.86845192977 
0.86857915863 0.86870362032 0.86882284251 0.86893713066 0.86904959005 0.86916355183 0.86928060392 0.86939791858 0.86951013284 
0.86960986647 0.86969073069 0.86975001779 0.86979073444 0.86982219046 0.86985783935 0.86990859186 0.86998360501 0.8700870055 
0.87021795374 0.87036895715 0.77708764637 0.77715717308 0.77726149054 0.77739464714 0.77754287739 0.77769631091 0.77784933344 
0.77799680938 0.77813332507 0.7782586636 0.77838170479 0.77851236629 0.77865422845 0.77880187439 0.77894621427 0.77907363077 
0.77916845693 0.77922241624 0.77924018489 0.77923908722 0.77924381172 0.77927410137 0.7793432691 0.77945975771 0.77962367722 
0.77982067258 0.65518653379 0.65523394133 0.65535896078 0.65553655903 0.65572856911 0.65591939631 0.65610980654 0.65629247183 
0.65645075091 0.65657982465 0.65670197929 0.65684981935 0.6570281141 0.6572220559 0.6574206639 0.65759933742 0.65771991319 
0.65776245015 0.65773159647 0.65766117353 0.65760496833 0.65759762495 0.65764881628 0.65777990855 0.65800151695 0.65828017296 
0.51750521779 0.51749838289 0.51768495571 0.51796809584 0.51823252785 0.51846756234 0.51871442959 0.51896556471 0.51916204099 
0.51927162635 0.51935100726 0.51951951638 0.51976933445 0.52002850223 0.52032378559 0.5206168804 0.52079284794 0.52081663784 
0.52068986471 0.5204648595 0.52029395919 0.52023961984 0.52024109365 0.52037165432 0.52071410984 0.5211538601 0.49848960355 
0.49872871938 0.49896766964 0.49917744294 0.49937045434 0.49958728469 0.49982918193 0.50003375656 0.50013796765 0.50015306909 
0.50015599534 0.5002150701 0.50034391387 0.50049965869 0.50061837099 0.50066727273 0.50066897907 0.50066308719 0.50067548616 
0.50074542627 0.50093854796 0.50127493061 0.50167140039 0.50200595877 0.50218522069 0.50219358587 0.60387051292 0.60405677648 
0.60424587868 0.60442673255 0.60460196269 0.60478078927 0.60495831245 0.60511016091 0.60521441264 0.60527630666 0.60532695222 
0.60539680438 0.60549353147 0.60560050463 0.60569125349 0.60575182632 0.6057896014 0.60582373883 0.60587576918 0.60597091893 
0.60613338148 0.60636330899 0.60662054095 0.60684662641 0.60699724095 0.60706977146 0.69845407752 0.69860460574 0.69875893197 
0.69891195009 0.69906239723 0.69921044829 0.69935152307 0.69947551782 0.69957539284 0.69965383651 0.69972351306 0.69979723012 
0.69987939461 0.69996422563 0.70004159422 0.70010593899 0.70016086751 0.70021644534 0.7002857643 0.70038269308 0.70051605579 
0.70068240054 0.70086155287 0.70102628091 0.70115637914 0.7012506515 0.77419366165 0.7743187412 0.77444750548 0.77457695969 
0.77470503303 0.7748298951 0.77494817765 0.77505585227 0.77514987295 0.77523161958 0.77530683054 0.77538069226 0.77545574935 
0.77553024738 0.77560085122 0.77566574816 0.77572712554 0.77579082478 0.77586411843 0.77595424021 0.77606467968 0.77619216537 
0.7763269632 0.77645606672 0.77657013603 0.7766681246 0.82908320374 0.82918906932 0.82929836032 0.82940900001 0.82951910914 
0.82962677789 0.829729871 0.82982592926 0.82991372951 0.82999410561 0.83006921739 0.83014153342 0.83021224771 0.83028133251 
0.83034767716 0.83041119421 0.83047353614 0.83053777287 0.83060847965 0.8306892343 0.8307818103 0.83088459604 0.83099220558 
0.83109901929 0.83120028699 0.83129522445 0.86388227863 0.86397375365 0.86406838798 0.86416486797 0.86426169788 0.86435721924 
0.8644497626 0.86453790413 0.86462084762 0.86469871829 0.86477247456 0.86484320947 0.86491163047 0.8649778295 0.86504159545 
0.86510320204 0.86516393437 0.86522581616 0.86529126827 0.86536296702 0.86544192255 0.86552753484 0.86561804014 0.86571043335 
0.86580244987 0.86589338252 0.87976437 0.87984659773 0.87993222649 0.8800203737 0.88010977348 0.88019911481 0.88028686884 
0.88037191132 0.88045352925 0.88053154955 0.88060634877 0.88067842824 0.88074789584 0.88081491354 0.88087929513 0.88094120971 
0.88100143545 0.88106124219 0.88112278153 0.8811877643 0.88125756962 0.88133313572 0.88141395445 0.88149897945 0.88158713295 
0.88167737341 0.87773936011 0.8778181759 0.87790111683 0.87798769347 0.87807673013 0.87816680126 0.87825650296 0.87834454913 
0.87843016597 0.87851315098 0.87859348186 0.87867140274 0.87874694325 0.87881979172 0.87888954894 0.87895582612 0.87901877273 
0.87907935285 0.87913924141 0.87920062573 0.87926569107 0.87933653619 0.87941409293 0.8794984726 0.87958894509 0.87968437302 
0.85824803674 0.85832677342 0.85841106197 0.8585007881 0.85859460398 0.85869073388 0.85878730391 0.85888272543 0.8589760864 
0.85906714736 0.85915609811 0.85924311201 0.85932821398 0.85941050554 0.85948896464 0.85956226932 0.85962962634 0.85969167387 
0.85975005667 0.85980799651 0.85986924398 0.85993726158 0.86001453037 0.86010206038 0.86019922778 0.86030416739 0.82090037102 
0.82097934113 0.82106695828 0.82116289693 0.82126529376 0.82137127715 0.82147825362 0.82158414389 0.821687451 0.82178820047 
0.82188701726 0.82198501422 0.82208182932 0.82217669719 0.82226674367 0.82234904273 0.82242156355 0.82248367848 0.82253793168 
0.8225891483 0.82264345273 0.82270688136 0.82278383355 0.82287668792 0.82298461416 0.82310412455 0.76472034311 0.76479782363 
0.7648898886 0.76499584912 0.76511146232 0.76523211558 0.76535362026 0.76547282462 0.76558794503 0.7656989691 0.76580818796 
0.76591823636 0.76603006738 0.76614136323 0.76624769925 0.76634271848 0.76642135379 0.76648168117 0.76652651737 0.76656381395 
0.76660477515 0.76665896594 0.76673434359 0.76683429785 0.76695810289 0.76709982069 0.68889052852 0.68896276884 0.68906229982 
0.68918545001 0.68932227089 0.68946450699 0.68960682419 0.6897448178 0.68987432496 0.68999538029 0.69011456871 0.69023891176 
0.69037075917 0.69050648633 0.6906378899 0.69075404913 0.6908431376 0.69089917031 0.69092604522 0.69093822081 0.69095494871 
0.69099304081 0.6910639375 0.69117443137 0.69132412737 0.69150155451 0.59530467725 0.59536216938 0.59547441681 0.59562695576 
0.59579542929 0.59596639642 0.59613660221 0.59629972058 0.59644529065 0.59657184767 0.59669381434 0.59683180864 0.59699017263 
0.59715994509 0.59733006532 0.59748112405 0.59758692982 0.59763362059 0.59762607451 0.59758983322 0.59756263164 0.5975719025 
0.59763018362 0.59775215801 0.5979420768 0.59817706775 0.4915207399 0.4915475603 0.49168866243 0.49189739418 0.4921120665 
0.49231688886 0.49252386765 0.49272562717 0.49289299109 0.49301257775 0.49311845709 0.49326893609 0.49346664474 0.49368144719 
0.49391146742 0.49412561994 0.49426213143 0.49429437127 0.49422762404 0.4941035807 0.49400492504 0.49397508716 0.49400588561 
0.4941342336 0.49439104741 0.49472044195 0.47095895304 0.47114360902 0.47133062249 0.47150760631 0.47167804073 0.47185447022 
0.47203220827 0.47218349488 0.47228250604 0.47233572276 0.47237809532 0.47244365732 0.47254002084 0.47264829069 0.47273861606 
0.47279576163 0.47282833398 0.47285688223 0.47290263497 0.4729913227 0.47315101208 0.47338423534 0.47364811149 0.47387954155 
0.47402870401 0.47408987856 0.55267921943 0.55283701901 0.55299829545 0.55315657235 0.55331157514 0.55346549424 0.55361362108 
0.55374254874 0.55384127895 0.55391368578 0.55397684586 0.55404789756 0.5541322958 0.55422113688 0.55430070723 0.5543633507 
0.55441311804 0.5544625356 0.5545268655 0.5546226087 0.55476226097 0.55494329433 0.55514058389 0.5553193022 0.5554527788 
0.55553922219 0.62677635053 0.6269114169 0.62705008831 0.62718868205 0.62732529252 0.62745870213 0.62758531968 0.62769856875 
0.62779421146 0.62787443837 0.62794724826 0.62802076092 0.62809830789 0.62817639477 0.62824976757 0.62831470901 0.62837420264 
0.6284357819 0.62850882829 0.62860248304 0.62872252131 0.62886513111 0.62901693483 0.62915939185 0.62927907315 0.62937498292 
0.68825932154 0.68837604599 0.68849619145 0.6886170738 0.68873699828 0.68885384618 0.68896497957 0.68906712769 0.68915863782 
0.68924062542 0.68931647154 0.68939043909 0.6894640759 0.68953671844 0.68960633405 0.68967219933 0.68973594706 0.689802448 
0.6898769151 0.68996467048 0.69006800514 0.69018433304 0.69030665381 0.69042512422 0.69053333511 0.69063019106 0.7345023706 
0.73460470794 0.73471012362 0.73481688813 0.734923232 0.73502740899 0.73512753322 0.73522178149 0.73530913963 0.7353901009 
0.73546648214 0.73553994641 0.73561158601 0.73568149218 0.73574914533 0.73581463514 0.73587951254 0.73594621764 0.73601852509 
0.73609915529 0.73618947604 0.73628788332 0.73639069668 0.73649341905 0.73659228404 0.73668687256 0.76472354886 0.76481513326 
0.76490967528 0.76500588507 0.76510243698 0.76519787714 0.76529072538 0.76537979519 0.76546433553 0.76554444244 0.76562073721 
0.76569420649 0.76576543173 0.76583451358 0.7659014111 0.76596653359 0.76603093765 0.76609660149 0.7661653086 0.76623946302 
0.76631978833 0.76640578193 0.76649611543 0.76658848738 0.76668109653 0.7667732169 0.77899624382 0.77908068734 0.77916822623 
0.77925809147 0.77934907564 0.77943996368 0.77952956118 0.77961671907 0.77970078574 0.77978175003 0.77985965623 0.77993498716 
0.78000788164 0.78007832419 0.78014653292 0.78021241914 0.78027695371 0.78034120546 0.78040688942 0.78047575982 0.78054873287 
0.78062691007 0.78070982163 0.78079658586 0.78088639217 0.78097848553 0.77763625767 0.77771696389 0.77780137391 0.77788897855 
0.77797878519 0.77806950663 0.77815992082 0.77824887276 0.77833566335 0.77841998941 0.77850192282 0.77858152641 0.77865878149 
0.77873347353 0.77880529117 0.77887401891 0.778939964 0.77900364395 0.77906710777 0.77913194827 0.77920019985 0.77927349626 
0.77935272966 0.77943793994 0.77952865331 0.77962387176 0.76087707945 0.76095648325 0.7610406967 0.76112953211 0.76122195487 
0.76131647578 0.7614113777 0.76150538085 0.76159753441 0.76168766509 0.76177579469 0.76186197231 0.76194617779 0.76202764142 
0.7621055475 0.76217891384 0.76224723075 0.76231113636 0.76237212163 0.76243296263 0.76249681023 0.762566553 0.76264432193 
0.76273098378 0.76282606927 0.7629280779 0.7287801391 0.72885896677 0.72894494756 0.72903782699 0.72913622556 0.72923779411 
0.72934031947 0.72944203989 0.72954177555 0.72963933135 0.72973517578 0.72982972752 0.72992286163 0.73001372727 0.7301001735 
0.73017997412 0.73025163022 0.7303147947 0.73037181755 0.73042665291 0.73048427554 0.73054972594 0.73062658693 0.73071665104 
0.73081941858 0.73093215912 0.68146264816 0.68154023505 0.68162900499 0.68172887997 0.68183673801 0.68194897178 0.6820624398 
0.68217418502 0.68228313856 0.68238900852 0.6824930831 0.68259730401 0.6827018656 0.68280502312 0.68290321158 0.68299204516 
0.68306775292 0.68312889356 0.68317858237 0.68322301725 0.68327022096 0.68332847066 0.68340359574 0.68349870454 0.68361286549 
0.68374185279 0.61969079375 0.61976527343 0.61985892049 0.61996999689 0.62009253241 0.62022024026 0.62034880196 0.62047426979 
0.62059426092 0.62070862698 0.62082150159 0.62093674331 0.62105607739 0.62117650001 0.62129228594 0.62139506905 0.62147718799 
0.62153552256 0.62157290976 0.62159994988 0.62163052488 0.62167731787 0.62174944862 0.62185197687 0.62198395295 0.62213762604 
0.54604055387 0.54610656892 0.54620635142 0.54633382401 0.54647568828 0.54662245998 0.54676908593 0.54691039202 0.54704115806 
0.5471610249 0.54727838462 0.54740365562 0.54753992552 0.54768196573 0.54782111508 0.54794395721 0.54803496362 0.54808628554 
0.54810220415 0.54809982789 0.54810284043 0.54813018866 0.54819454421 0.54830435599 0.54846042166 0.54864861078 0.46522527896 
0.46527609178 0.46538585139 0.46553767842 0.46570394399 0.46587148082 0.46603849048 0.46619852116 0.46633994857 0.466459699 
0.46657398519 0.46670663282 0.46686199845 0.46702965527 0.46719974087 0.46735120997 0.46745507792 0.4674965882 0.46748105151 
0.46743493092 0.46739886375 0.4674005686 0.46745083437 0.46756629496 0.46775412601 0.46798907632 0.44477286725 0.44491919052 
0.4450686026 0.44521560761 0.44535963745 0.44550229553 0.44563918204 0.44575841908 0.44585065144 0.44591933607 0.4459795477 
0.44604654688 0.44612496509 0.44620731352 0.44628167157 0.44634131922 0.44639014418 0.44643910406 0.44650162649 0.44659214804 
0.44672163755 0.44688772603 0.44706855978 0.44723315611 0.44735749615 0.44743896752 0.50930212046 0.50943528007 0.50957183611 
0.50970774164 0.50984169065 0.50997264803 0.51009678401 0.51020732714 0.51029964665 0.51037601012 0.51044507999 0.51051560963 
0.51059098727 0.51066750554 0.51073898394 0.51080199785 0.51085921261 0.51091828808 0.51098866953 0.51108018962 0.51119854404 
0.51134047917 0.5114917203 0.51163294094 0.51174962106 0.51184031232 0.56817060159 0.56829008877 0.56841281026 0.56853598088 
0.56865780151 0.56877635807 0.56888866932 0.56899132048 0.5690817595 0.56916158518 0.56923521342 0.56930762332 0.5693806512 
0.56945325449 0.56952270375 0.56958773161 0.56965024335 0.5697153866 0.56978927696 0.56987798843 0.56998426358 0.57010512018 
0.57023213952 0.57035395105 0.57046235093 0.57055636826 0.61786984293 0.61797698581 0.61808716605 0.61819823381 0.61830838196 
0.61841601134 0.61851877356 0.61861459113 0.61870236675 0.61878278239 0.61885827314 0.61893114668 0.61900286678 0.61907327795 
0.61914144098 0.61920732955 0.61927254685 0.6193400604 0.61941424242 0.61949807588 0.61959331595 0.61969799376 0.61980690466 
0.61991401196 0.62001488792 0.62010866002 0.65606591602 0.65616288995 0.65626247922 0.6563633638 0.65646394316 0.65656273372 
0.65665812454 0.65674882339 0.65683399233 0.65691397575 0.65698990168 0.65706303474 0.65713424125 0.65720360556 0.65727120863 
0.65733746884 0.65740331238 0.65747113402 0.65754333201 0.65762200446 0.65770806245 0.65780053664 0.65789672009 0.65799328862 
0.65808790064 0.65817989022 0.68154318287 0.68163225085 0.68172391488 0.68181710007 0.68191060944 0.68200320135 0.68209363472 
0.68218094486 0.68226447083 0.68234423235 0.68242060421 0.68249438697 0.68256602851 0.68263565303 0.68270341634 0.68276976227 
0.6828356022 0.68290253531 0.68297217646 0.68304607216 0.68312504068 0.68320866579 0.68329615087 0.68338568185 0.68347588532 
0.68356626413 0.69383787905 0.69392138502 0.69400764826 0.69409592378 0.6941852117 0.69427446397 0.69436258157 0.69444866551 
0.6945321451 0.69461285375 0.6946909055 0.69476650514 0.69483985283 0.69491098705 0.69498002055 0.69504717428 0.69511323772 
0.69517915073 0.69524629194 0.69531616339 0.69538953097 0.69546722558 0.69554906485 0.69563437955 0.6957225609 0.69581294367 
0.69289073245 0.6929708955 0.69305428322 0.69314037474 0.69322840671 0.69331720929 0.69340574402 0.69349305058 0.69357847325 
0.69366179917 0.69374293676 0.69382183952 0.69389853588 0.69397290452 0.69404462906 0.69411377387 0.69418052382 0.69424564387 
0.69431064019 0.69437690943 0.6944461812 0.69451968567 0.69459825646 0.69468203666 0.6947705558 0.69486307981 0.67883844906 
0.67891703503 0.67899962107 0.67908599324 0.67917537791 0.67926648576 0.6793579903 0.67944884589 0.67953818954 0.67962573944 
0.67971140517 0.67979519843 0.67987692967 0.67995618792 0.68003221372 0.68010440029 0.68017249674 0.68023714778 0.68029967974 
0.6803622841 0.68042761333 0.68049774354 0.68057467008 0.68065898835 0.68075036623 0.68084756118 0.65197449678 0.65205219723 
0.65213543457 0.65222426368 0.65231742408 0.65241332403 0.65251015196 0.65260643815 0.65270129333 0.65279428881 0.65288574406 
0.65297573862 0.65306413767 0.65314994837 0.65323196382 0.65330845689 0.65337839886 0.65344213056 0.65350123893 0.65355894792 
0.65361926899 0.65368584832 0.65376155504 0.65384783664 0.65394427838 0.65404895067 0.61290271683 0.61297933784 0.61306418256 
0.6131572174 0.61325654925 0.61335958573 0.6134638502 0.61356741513 0.61366886781 0.61376816426 0.61386592286 0.61396314076 
0.61405940909 0.61415378968 0.61424363848 0.61432593418 0.61439830208 0.61446010345 0.61451382566 0.61456403519 0.61461675235 
0.61467797982 0.61475208204 0.61484144348 0.61494541028 0.61506095034 0.56283557437 0.56291061498 0.56299816824 0.56309800564 
0.56320651943 0.56331987846 0.56343418344 0.56354691718 0.56365639179 0.56376255533 0.56386717008 0.56397231356 0.56407891802 
0.56418476267 0.56428564894 0.56437632491 0.56445233142 0.56451198588 0.56455797805 0.56459719128 0.56463937759 0.56469318807 
0.56476531232 0.56485938918 0.56497443784 0.56510556683 0.50411472246 0.50418505588 0.50427504759 0.50438292747 0.50450212075 
0.50462655425 0.50475157603 0.50487361595 0.50498982097 0.5051003478 0.50520923851 0.50532121436 0.50543774782 0.5055560039 
0.50566967401 0.50577056978 0.50585028766 0.50590511328 0.50593827284 0.50596059935 0.50598612407 0.50602792713 0.50609520163 
0.50619305587 0.50632120342 0.5064713282 0.44007874047 0.44014142897 0.44023399744 0.44035119165 0.44048166293 0.44061696767 
0.44075215689 0.44088287792 0.44100418145 0.4411160211 0.44122547715 0.44134186312 0.44146762025 0.44159849995 0.44172641072 
0.44183906088 0.44192289015 0.44197115354 0.44198793949 0.44198838716 0.441993363 0.44201989719 0.44207934792 0.4421796973 
0.44232185106 0.44249337996 0.42002572073 0.420145633 0.42026843362 0.42039090579 0.42051164414 0.42062917377 0.42074034035 
0.4208400468 0.42092494208 0.42099677417 0.421062245 0.42112804867 0.42119689753 0.42126627138 0.42133195471 0.42139147539 
0.42144724784 0.42150510502 0.42157276054 0.42165761538 0.42176381733 0.42188848155 0.42202049534 0.42214460583 0.42224961527 
0.42233400988 0.47169952377 0.47181294351 0.47192922851 0.47204587405 0.47216094176 0.47227289407 0.47237887346 0.47247566439 
0.47256115139 0.47263669338 0.47270656761 0.47277512869 0.47284429181 0.47291305314 0.47297917191 0.47304142512 0.47310171006 
0.47316471023 0.47323581106 0.47332049502 0.47342122433 0.47353513016 0.47365459741 0.47376896568 0.47387079012 0.47395893921 
0.5189431398 0.51904858451 0.51915677968 0.51926561224 0.51937336291 0.51947833726 0.51957832957 0.5196712588 0.51975595471 
0.51983322288 0.51990559649 0.51997564184 0.52004492666 0.5201130649 0.52017919752 0.52024327634 0.52030669446 0.52037258075 
0.52044518984 0.52052765255 0.52062143398 0.52072450467 0.52083160325 0.52093620971 0.52103374624 0.52112304107 0.55917326216 
0.55927084628 0.55937084808 0.55947180671 0.55957207576 0.55967017828 0.5597645466 0.55985365182 0.55993682345 0.56001453104 
0.56008809689 0.56015903175 0.56022826787 0.56029616789 0.56036239338 0.56042732597 0.56049242937 0.56055965179 0.56063172051 
0.56071091016 0.56079794629 0.56089147279 0.56098827562 0.56108455365 0.56117735582 0.56126635041 0.59046742437 0.59055801263 
0.59065090254 0.59074482932 0.59083865526 0.59093099052 0.59102064078 0.59110661629 0.5911883165 0.59126582928 0.59133994713 
0.59141149858 0.59148112572 0.59154908063 0.59161554871 0.59168111146 0.59174663051 0.59181389288 0.59188447153 0.59195999007 
0.5920410996 0.59212690535 0.59221566234 0.59230536079 0.59239434556 0.59248190919 0.61160533501 0.61169022504 0.61177738683 
0.61186593503 0.6119547874 0.61204290173 0.61212929994 0.61221312637 0.61229390408 0.61237162386 0.61244648169 0.6125189162 
0.61258933032 0.61265794354 0.61272507548 0.61279099763 0.61285666055 0.61292318377 0.61299204424 0.61306408612 0.6131399846 
0.61321983658 0.61330287706 0.6133878012 0.61347391093 0.61356063746 0.62194623609 0.62202697114 0.62211009965 0.62219494504 
0.62228070806 0.62236640015 0.62245122697 0.62253434938 0.6226153194 0.62269393629 0.62277022858 0.62284431652 0.62291633509 
0.6229864063 0.62305463327 0.62312138079 0.62318716074 0.62325296197 0.62331975995 0.6233887433 0.62346069782 0.62353615526 
0.62361509556 0.62369707229 0.62378174202 0.62386840265 0.62126771554 0.62134572125 0.62142640619 0.6215093798 0.6215939245 
0.62167918501 0.62176421884 0.62184819519 0.62193064281 0.62201129945 0.62208995182 0.62216659634 0.6222412017 0.6223137472 
0.62238394883 0.62245201563 0.62251819819 0.62258318656 0.62264815215 0.6227142862 0.6227828971 0.62285508634 0.62293146348 
0.62301214443 0.62309690571 0.62318499916 0.60965416031 0.60973062787 0.60981036308 0.60989310309 0.60997824813 0.61006481072 
0.61015176394 0.61023822089 0.61032343399 0.61040716595 0.61048913145 0.61056938454 0.61064766035 0.61072358534 0.6107967962 
0.61086683415 0.61093376294 0.6109979865 0.61106080356 0.61112400226 0.61118944077 0.61125889013 0.61133359616 0.61141435439 
0.61150079292 0.61159216857 0.58747710486 0.58755262514 0.58763237245 0.5877163398 0.58780373281 0.58789337956 0.58798382474 
0.58807397946 0.58816303656 0.58825067123 0.58833686361 0.58842152573 0.58850445706 0.58858493635 0.58866199314 0.58873476866 
0.58880257985 0.58886594115 0.58892603675 0.58898542442 0.58904696498 0.58911348268 0.58918707507 0.58926877803 0.58935835976 
0.5894545138 0.55547447272 0.55554903906 0.55562943896 0.55571575228 0.55580681254 0.5559008272 0.55599609023 0.55609101713 
0.55618464226 0.55627676022 0.55636747741 0.55645714828 0.5565454746 0.55663134342 0.55671333343 0.55678949098 0.55685851292 
0.55692023088 0.55697649693 0.55703050577 0.55708682448 0.55714943486 0.55722169993 0.55730495291 0.55739913228 0.55750194017 
0.51486362631 0.51493718992 0.51501907739 0.51510918446 0.51520568794 0.51530597541 0.51540760713 0.51550859893 0.51560767383 
0.51570476945 0.51580058733 0.51589602083 0.51599078476 0.51608395572 0.51617256323 0.51625358417 0.51632443845 0.5163844769 
0.51643587594 0.51648342017 0.51653312778 0.51659111248 0.51666188501 0.51674794953 0.51684858483 0.516960837 0.46760759058 