# vtk DataFile Version 5.1
vtk output
ASCII
DATASET STRUCTURED_POINTS
DIMENSIONS 26 14 26
SPACING 0.08 0.08 0.08
ORIGIN 2.7 -0.52 0
POINT_DATA 9464
FIELD FieldData 1
potential 1 9464 double
-0.00028198000391 -0.00028947669483 -0.00029685622596 -0.00030406894751 -0.00031112906944 -0.00031809376234 -0.00032499042923 -0.00033175791748 -0.00033826457038 
-0.00034436526733 -0.00035002544037 -0.00035532679672 -0.00036039029692 -0.00036526875485 -0.00036998401519 -0.00037447085288 -0.00037866121426 -0.00038252032879 
-0.00038612865002 -0.00038967227743 -0.00039333351254 -0.00039725176639 -0.00040149468084 -0.00040611312136 -0.00041110779314 -0.00041645894112 -0.00076167985785 
-0.00076990138657 -0.00077796653062 -0.00078586552225 -0.00079360062183 -0.00080118522161 -0.0008086181901 -0.00081586564772 -0.00082286977435 -0.00082957707726 
-0.00083596989886 -0.00084206094775 -0.00084791976255 -0.00085357329185 -0.0008590240087 -0.00086426058619 -0.00086926313035 -0.00087404374115 -0.00087865732531 
-0.00088319547131 -0.00088777158413 -0.00089246840685 -0.00089736422696 -0.00090248980329 -0.00090785386534 -0.00091348036784 -0.0010752242353 -0.001083903558 
-0.0010923957609 -0.0011007033018 -0.001108825778 -0.0011167661608 -0.0011245193601 -0.0011320656567 -0.0011393672494 -0.0011464273338 -0.0011532236592 
-0.0011597684733 -0.0011660816965 -0.0011721805415 -0.0011780694926 -0.0011837640149 -0.0011892608858 -0.0011945821247 -0.0011997688366 -0.0012048752478 
-0.0012099722184 -0.0012151289806 -0.0012203909514 -0.0012257798387 -0.0012313375434 -0.0012370620278 -0.0011742697225 -0.0011831358629 -0.0011917949708 
-0.0012002487592 -0.0012084991062 -0.001216548367 -0.0012243777425 -0.0012320035186 -0.0012394027817 -0.0012465651592 -0.001253487415 -0.0012601777939 
-0.0012666462665 -0.0012729047326 -0.0012789631622 -0.0012848344741 -0.0012905219811 -0.0012960597495 -0.0013014744333 -0.0013067964302 -0.0013120940289 
-0.0013173992974 -0.0013227514984 -0.0013281665433 -0.0013336848188 -0.0013393179575 -0.0011394973502 -0.0011482319044 -0.0011567412117 -0.0011650288353 
-0.0011730851044 -0.0011809383351 -0.0011885724264 -0.0011959839058 -0.0012031692355 -0.0012101257195 -0.0012168528249 -0.0012233580558 -0.0012296477074 
-0.0012357318987 -0.0012416240351 -0.0012473314511 -0.0012528713449 -0.0012582647958 -0.0012635313356 -0.0012687062615 -0.0012738286302 -0.0012789294362 
-0.0012840244749 -0.0012891692865 -0.0012943465227 -0.0012995768585 -0.00096413339131 -0.00097216938039 -0.00097997648512 -0.00098754546165 -0.00099487974753 
-0.0010019841654 -0.0010088571045 -0.0010154987758 -0.0010219088578 -0.0010280885983 -0.0010340401732 -0.0010397706282 -0.0010452858409 -0.0010505944755 
-0.0010557107153 -0.0010606415395 -0.001065404682 -0.0010700123804 -0.0010744965608 -0.0010788787629 -0.0010831902518 -0.0010874249581 -0.0010916445303 
-0.0010958528804 -0.0011000624055 -0.001104282168 -0.00048946824411 -0.00049251260652 -0.00049570476354 -0.00049896549486 -0.00050224747801 -0.00050551498624 
-0.00050874463076 -0.00051191663602 -0.00051501583539 -0.00051803317635 -0.00052096016344 -0.00052379536507 -0.00052653653744 -0.00052918520117 -0.00053174897434 
-0.00053423020839 -0.00053663446713 -0.00053899648213 -0.00054130257097 -0.00054358271414 -0.0005458394169 -0.00054811740676 -0.00055041670421 -0.00055275331447 
-0.00055513020446 -0.00055756445992 -3.050823747e-05 -3.8923659889e-05 -4.71057755e-05 -5.5058922711e-05 -6.27908278e-05 -7.0302677431e-05 -7.7598889393e-05 
-8.4683018783e-05 -9.1560222857e-05 -9.8233279802e-05 -0.00010470996433 -0.00011099467019 -0.00011709525078 -0.00012302302387 -0.00012879313647 -0.00013439529756 
-0.00013986428689 -0.00014520819979 -0.00015044368588 -0.00015558896336 -0.0001606463305 -0.000165659445 -0.00017063011097 -0.00017557314837 -0.00018049647258 
-0.00018540883385 0.0002080585217 0.00019868560989 0.00018955559052 0.00018066196607 0.00017199864234 0.0001635629693 0.00015535047598 0.00014735411123 
0.00013957022151 0.00013199362893 0.00012461628126 0.00011742415573 0.00011042783547 0.00010360557727 9.6958449561e-05 9.0461372032e-05 8.4106246343e-05 
7.7880630945e-05 7.1768885581e-05 6.5766856539e-05 5.9837768686e-05 5.398219926e-05 4.818031778e-05 4.2422061043e-05 3.6700226448e-05 3.1008528679e-05 
0.00036354533918 0.00035371441106 0.00034413064396 0.00033478653616 0.00032567868992 0.00031680125788 0.00030814772836 0.00029971342469 0.00029148401451 
0.00028347103253 0.00027565711685 0.00026803773658 0.00026060236149 0.00025335089287 0.00024626121132 0.00023932732728 0.00023253735043 0.00022587602062 
0.00021934260287 0.00021290139833 0.00020654938368 0.00020027748149 0.00019406729701 0.00018791058431 0.00018179931081 0.00017572902566 0.0004642016943 
0.00045418039821 0.00044440879632 0.00043487737391 0.0004255851769 0.00041651634952 0.00040768107671 0.00039906534883 0.0003906638013 0.00038246799114 
0.00037447326387 0.00036667182546 0.00035905928523 0.00035161984228 0.00034434683812 0.00033722853239 0.00033025405701 0.00032342157446 0.00031669524724 
0.00031007381494 0.00030354509349 0.0002970985883 0.00029071796453 0.00028439680064 0.00027812563837 0.00027190157197 0.00052056062022 0.00051054033866 
0.00050077403688 0.00049125671688 0.00048197214387 0.00047291893607 0.000464092329 0.00045548520989 0.00044709195792 0.00043890447781 0.00043091736801 
0.000423126739 0.00041551833493 0.00040808579803 0.0004008199183 0.00039370881523 0.00038675082485 0.00037991428954 0.00037319478304 0.00036658103184 
0.00036006022544 0.00035362234841 0.00034725160935 0.00034094013372 0.0003346822388 0.00032847304298 0.0005327695244 0.00052293046009 0.00051333916239 
0.00050399117486 0.00049488113773 0.00048600253771 0.00047735454647 0.00046892093677 0.00046070038513 0.00045268667544 0.00044487807333 0.00043725649659 
0.00042982205972 0.00042256388245 0.00041547317783 0.00040853574019 0.00040175387958 0.00039509182103 0.00038854758573 0.00038210787163 0.00037576011837 
0.00036949075698 0.00036329258846 0.00035714873131 0.000351056623 0.00034501040696 0.00050351293244 0.00049400985249 0.00048475245488 0.00047573995368 
0.00046696459697 0.00045842019138 0.00045010082472 0.00044200119748 0.00043411336052 0.00042644236098 0.00041896261085 0.00041167872892 0.00040458084111 
0.00039766133913 0.00039091069418 0.00038432562233 0.0003778753105 0.00037155608755 0.00036535463316 0.00035925690448 0.00035324787048 0.00034731364299 
0.00034144559755 0.00033562798376 0.00032985659081 0.00032412597207 -0.00020181910575 -0.0002094800831 -0.00021702020352 -0.00022439805821 -0.00023162459539 
-0.00023874551313 -0.00024578301716 -0.00025268171569 -0.00025932585119 -0.00026558973102 -0.00027144531779 -0.00027696000427 -0.00028223800749 -0.00028732483781 
-0.00029224235749 -0.00029693028844 -0.00030132867334 -0.00030540839062 -0.00030924268495 -0.00031300004423 -0.00031685024277 -0.00032092986996 -0.00032530906355 
-0.00033004268087 -0.00033513529958 -0.00034057026884 -0.00042678259515 -0.00043514028283 -0.0004433385246 -0.00045136952172 -0.00045923499892 -0.00046694612174 
-0.00047450087504 -0.00048186783962 -0.00048899425972 -0.00049583207937 -0.00050236534505 -0.00050860363674 -0.00051461179797 -0.00052041395978 -0.00052601220264 
-0.00053139682626 -0.00053655024025 -0.00054148536267 -0.00054625441043 -0.00055094394165 -0.00055566180707 -0.00056048846921 -0.00056550183628 -0.000570733363 
-0.00057619330252 -0.00058190684426 -0.00061471609223 -0.00062352434425 -0.00063214376939 -0.000640576806 -0.00064882349055 -0.00065688609017 -0.00066475985833 
-0.00067242605198 -0.00067984886365 -0.00068703312141 -0.00069395741071 -0.00070063300197 -0.00070707843236 -0.00071330980159 -0.00071933152009 -0.00072515939203 
-0.00073079072776 -0.0007362475634 -0.00074156973107 -0.00074680936661 -0.00075203517661 -0.00075731481298 -0.00076269309066 -0.0007681916866 -0.00077385289691 
-0.00077967526976 -0.00069251882945 -0.00070153225439 -0.00071033751327 -0.0007189364939 -0.0007273311532 -0.00073552389965 -0.0007434961628 -0.00075126478402 
-0.00075880760949 -0.00076611493232 -0.0007731839735 -0.00078002245318 -0.00078664065538 -0.00079304854714 -0.00079925740829 -0.00080527972279 -0.00081111889965 
-0.00081680868967 -0.00082237521216 -0.00082784785665 -0.00083329383896 -0.00083874440424 -0.0008442382745 -0.00084979120369 -0.00085544364368 -0.00086120745903 
-0.00066034107442 -0.00066929995597 -0.00067803352913 -0.00068654556111 -0.00069482646703 -0.00070290467599 -0.0007107642811 -0.00071840226258 -0.00072581497752 
-0.00073300055231 -0.00073995836615 -0.00074669607157 -0.00075321967989 -0.00075953928004 -0.00076566800234 -0.00077161334221 -0.00077739236873 -0.00078302596804 
-0.00078853331432 -0.00079394919737 -0.0007993121197 -0.0008046526 -0.00080998609798 -0.0008153679904 -0.00082078090944 -0.0008262456289 -0.00051578864883 
-0.00052439207141 -0.00053277167486 -0.00054091834534 -0.00054883567353 -0.00055652859977 -0.00056399593843 -0.00057123809252 -0.00057825470661 -0.0005850476751 
-0.00059161924339 -0.00059797662253 -0.00060412561484 -0.00061007508066 -0.0006158391594 -0.00062142494489 -0.00062685011302 -0.00063212705751 -0.00063728739912 
-0.00064235256779 -0.0006473536369 -0.0006522843693 -0.00065720632981 -0.00066212342174 -0.00066704811309 -0.00067199052534 -0.00026096505108 -0.00026930411339 
-0.00027740478578 -0.00028527085307 -0.00029290853158 -0.00030031963052 -0.00030750840199 -0.00031447659891 -0.000321226052 -0.00032776156564 -0.00033408612306 
-0.00034020796877 -0.00034613307487 -0.00035187002769 -0.00035743269745 -0.00036282884805 -0.00036806884785 -0.000373191677 -0.00037818743234 -0.00038308946288 
-0.00038790331328 -0.00039267648253 -0.0003974115601 -0.00040212694521 -0.00040682786924 -0.00041153356141 1.2112330484e-05 3.1720664544e-06 -5.5290504036e-06 
-1.3995500113e-05 -2.2235109906e-05 -3.0249232357e-05 -3.8042372253e-05 -4.5618156476e-05 -5.2981938164e-05 -6.0136659544e-05 -6.7090312088e-05 -7.3846909674e-05 
-8.0414815137e-05 -8.6805281249e-05 -9.3033434875e-05 -9.908892847e-05 -0.00010500677672 -0.00011079482421 -0.00011646971654 -0.00012204961068 -0.00012753672888 
-0.00013297465705 -0.00013836514757 -0.00014372299532 -0.00014905612813 -0.00015437333579 0.00021779784547 0.00020822196482 0.00019889051373 0.00018979696354 
0.00018093518307 0.00017230248713 0.00016389434776 0.0001557036703 0.00014772675139 0.00013995845966 0.00013239044312 0.00012500893639 0.00011782436918 
0.00011081516043 0.00010398227968 9.7300649212e-05 9.0762284234e-05 8.4354803894e-05 7.8062634975e-05 7.1881710991e-05 6.5775346264e-05 5.9744198495e-05 
5.3768512785e-05 4.7838275752e-05 4.19463105e-05 3.6086336671e-05 0.00036171490365 0.00035176247251 0.0003420579487 0.00033259380665 0.00032336663289 
0.00031437054945 0.00030559901617 0.00029704740471 0.00028870111421 0.00028057189236 0.00027264228755 0.00026490775672 0.00025735777165 0.00024999224625 
0.00024278908621 0.00023574233444 0.00022884015555 0.0002220673437 0.00021542322836 0.00020887189752 0.00020241126176 0.00019603146395 0.00018971444407 
0.00018345200644 0.00017723614374 0.0001710624144 0.00045759146363 0.00044747852657 0.00043761574076 0.00042799358355 0.00041861107654 0.00040945234229 
0.00040052755157 0.00039182266153 0.0003833322872 0.00037504797431 0.00036696505346 0.00035907572429 0.00035137560036 0.00034384889094 0.00033648896656 
0.00032928403878 0.0003222235213 0.00031530534051 0.00030849394803 0.00030178800389 0.00029517543554 0.00028864581419 0.00028218285981 0.00027578018877 
0.00026942836889 0.00026312449886 0.00051303319788 0.00050292949179 0.00049308397231 0.00048348770226 0.00047412413847 0.00046499275752 0.00045608789254 
0.00044740270358 0.00043893155091 0.00043066632542 0.00042260161243 0.00041473351516 0.00040704778114 0.00039953806418 0.00039219517428 0.00038500726552 
0.00037797271534 0.00037105991674 0.00036426450461 0.00035757527145 0.00035097947266 0.00034446715817 0.0003380225915 0.00033163793764 0.00032530753513 
0.00031902650292 0.00053154072803 0.00052162562326 0.00051195838773 0.00050253455543 0.00049334874219 0.00048439441545 0.0004756707719 0.000467161412 
0.00045886513842 0.00045077566692 0.00044289124473 0.00043519378004 0.0004276833852 0.00042034918758 0.00041318241653 0.00040616890117 0.0003993109882 
0.00039257295883 0.00038595289837 0.00037943757724 0.00037301450987 0.00036667020288 0.00036039751743 0.00035417961844 0.00034801396246 0.00034189468359 
0.00051739384129 0.0005078120203 0.00049847574925 0.00048938421836 0.00048052964807 0.00047190582055 0.00046350679498 0.00045532721811 0.00044735912904 
0.00043960753589 0.00043204682058 0.00042468155234 0.00041750193054 0.00041050025541 0.00040366703907 0.00039699902069 0.00039046542521 0.00038406263653 
0.0003777774052 0.000371595771 0.00036550279653 0.00035948468486 0.00035353288696 0.00034763170736 0.00034177694803 0.00033596313206 -3.8873328721e-05 
-4.6992818244e-05 -5.4979200373e-05 -6.2808179271e-05 -7.0485218744e-05 -7.8034616536e-05 -8.5467466957e-05 -9.274075551e-05 -9.9772671508e-05 -0.00010647811036 
-0.00011284030506 -0.00011890009331 -0.00012472703342 -0.00013035012608 -0.00013579152778 -0.00014100294859 -0.00014594359754 -0.00015059594105 -0.00015501893014 
-0.00015934362308 -0.00016370884034 -0.00016823936963 -0.00017300823379 -0.00017807700081 -0.00018345891311 -0.00018914517479 -0.00016775144514 -0.00017649585547 
-0.00018507215737 -0.00019347705493 -0.00020171095632 -0.00020978083956 -0.00021768276916 -0.00022539150961 -0.00023286599251 -0.0002400710609 -0.00024699378222 
-0.00025363857467 -0.00026005809623 -0.00026627018269 -0.00027227645383 -0.00027807079771 -0.00028364093708 -0.00028900340791 -0.00029420262828 -0.00029931223439 
-0.00030442757715 -0.00030962174108 -0.00031497047356 -0.00032050661494 -0.00032624319698 -0.00033220906331 -0.00027292248908 -0.00028209562363 -0.00029107408065 
-0.00029986160423 -0.0003084585042 -0.00031686621242 -0.00032508037252 -0.00033308540661 -0.00034084987461 -0.00034838307847 -0.00035566556013 -0.0003627060535 
-0.00036952036299 -0.0003761215415 -0.00038251357082 -0.00038871344237 -0.00039471977624 -0.00040055442342 -0.00040625404498 -0.00041186536299 -0.00041745113993 
-0.00042307510078 -0.00042877966552 -0.00043458633158 -0.00044053823452 -0.00044663541792 -0.00031883964379 -0.00032825085893 -0.00033745024284 -0.00034644022309 
-0.00035522302474 -0.00036380124992 -0.00037215699136 -0.00038030862323 -0.0003882358826 -0.0003959309406 -0.00040339183511 -0.00041062569123 -0.00041764175877 
-0.00042444915433 -0.00043105855309 -0.00043748264428 -0.00044372496015 -0.00044981866402 -0.00045578856175 -0.00046166008208 -0.00046749883311 -0.00047333327944 
-0.00047920056712 -0.00048511588568 -0.00049111980443 -0.00049722475121 -0.0002920037481 -0.00030148469508 -0.00031073884692 -0.00031977036768 -0.00032856932324 
-0.00033716500519 -0.00034554193399 -0.00035369790406 -0.00036163010312 -0.00036933688323 -0.00037682011516 -0.00038408530832 -0.00039113879424 -0.00039799037593 
-0.00040465277896 -0.00041113359609 -0.00041744934307 -0.00042362059165 -0.00042966538608 -0.00043561715326 -0.00044151273575 -0.0004473812972 -0.0004532372908 
-0.00045913556164 -0.00046505861487 -0.00047102743821 -0.00019277031135 -0.00020220098837 -0.0002114089795 -0.00022038523244 -0.00022913299754 -0.00023765803804 
-0.00024595944 -0.00025403756142 -0.0002618931561 -0.00026952848893 -0.00027694558627 -0.00028415216323 -0.00029115381682 -0.0002979592767 -0.00030458221932 
-0.00031102975271 -0.00031731933007 -0.00032346284133 -0.00032949118699 -0.00033542494892 -0.00034129435722 -0.00034709221229 -0.00035287945725 -0.00035865957055 
-0.00036444483852 -0.00037024542711 -3.7210515019e-05 -4.668832604e-05 -5.5925877477e-05 -6.4925982118e-05 -7.3696747321e-05 -8.2238352251e-05 -9.0555685162e-05 
-9.8650770651e-05 -0.00010652555717 -0.00011418540783 -0.00012163280264 -0.0001288767569 -0.00013592229345 -0.0001427805034 -0.00014945839873 -0.0001559700772 
-0.00016232338681 -0.00016855691682 -0.0001746601067 -0.00018066602627 -0.00018657934554 -0.0001924469164 -0.00019827088758 -0.00020406927329 -0.00020984709176 
-0.00021562349666 0.00013562885327 0.00012590185033 0.00011641910889 0.00010717548673 9.8163694842e-05 8.938201738e-05 8.0825784501e-05 7.2491174687e-05 
6.4372660634e-05 5.6467140752e-05 4.8766522635e-05 4.1266730288e-05 3.3959421316e-05 2.6833393619e-05 1.9873601623e-05 1.309053181e-05 6.4493747945e-06 
-5.7395246229e-08 -6.446326197e-06 -1.2734984287e-05 -1.8925299425e-05 -2.5060445439e-05 -3.1141971095e-05 -3.7184370301e-05 -4.319548295e-05 -4.9184069052e-05 
0.00028814181698 0.00027809495918 0.00026829552749 0.00025873699511 0.00024941310033 0.00024032107572 0.00023145624802 0.00022281137351 0.00021438275344 
0.00020616501879 0.0001981497799 0.00019032326755 0.00018269593873 0.00017524618849 0.00016797508958 0.0001608576845 0.00015388615157 0.00014704831107 
0.00014032883211 0.00013372391475 0.00012719714851 0.00012074944429 0.00011436128297 0.00010802281319 0.00010172694978 9.5467443781e-05 0.00040656350584 
0.00039628500054 0.00038625636238 0.00037646986408 0.00036692219005 0.00035760732877 0.00034851866051 0.00033965146767 0.00033099104871 0.00032254909896 
0.00031430818759 0.00030626368515 0.00029840506164 0.00029073217597 0.00028322334899 0.00027587239269 0.00026866772226 0.00026159431829 0.0002546516937 
0.00024780416055 0.000241049846 0.00023437909961 0.00022777404887 0.00022122663186 0.00021472891896 0.00020827650001 0.0004904232082 0.00048005016535 
0.00046992871058 0.00046004915828 0.00045041045987 0.00044099669579 0.00043181793645 0.00042286010358 0.00041411773055 0.0004055823418 0.00039724921548 
0.00038911053761 0.00038116193564 0.00037338765037 0.00036578113811 0.00035833070577 0.00035102589137 0.00034386476616 0.00033681200201 0.00032986641322 
0.00032301613386 0.00031625092532 0.00030955466957 0.00030292109567 0.00029634085011 0.00028981104702 0.00054212820226 0.00053179385955 0.00052171854846 
0.0005118932969 0.00050230152229 0.00049294262916 0.00048381089637 0.00047489939413 0.00046620251312 0.00045771204079 0.00044942249575 0.00044133001991 
0.00043342035351 0.00042568718629 0.0004181213892 0.00041071121949 0.00040345517859 0.00039632180962 0.00038930691168 0.00038239952276 0.00037558704236 
0.00036885973026 0.0003622020128 0.00035560617277 0.00034906661425 0.00034257846168 0.00056421777506 0.00055408111718 0.00054419054414 0.00053454507148 
0.00052513787106 0.00051596242262 0.00050701778421 0.00049828752382 0.00048977036994 0.00048145999146 0.00047335458567 0.00046543603659 0.00045770445464 
0.00045014899428 0.00044276093716 0.00043552621961 0.00042844728979 0.00042148862929 0.00041464848465 0.00040791385286 0.00040127247102 0.00039471107084 
0.00038822269367 0.00038179064569 0.00037541244636 0.00036908221152 0.00055944820069 0.00054963623699 0.00054006956192 0.00053074740405 0.00052166176685 
0.00051280628037 0.00050417526277 0.00049576282833 0.00048756126804 0.00047957539213 0.00047177950405 0.00046417812283 0.00045676142008 0.00044952169369 
0.00044244950473 0.00043554165884 0.00042876753929 0.00042212367295 0.00041559712715 0.00040917393594 0.00040283970783 0.00039658083812 0.00039038901131 
0.00038424870876 0.00037815579034 0.000372104717 0.00014531503299 0.00013652013078 0.00012787754733 0.00011939684018 0.00011107602324 0.00010290471184 
9.4882502178e-05 8.7039251127e-05 7.9424553162e-05 7.2089644144e-05 6.5040841138e-05 5.8259084288e-05 5.1704358469e-05 4.536451609e-05 3.9216160249e-05 
3.3294114466e-05 2.7619801117e-05 2.2198678862e-05 1.6986109596e-05 1.188498948e-05 6.7917181071e-06 1.6011211535e-06 -3.75535221e-06 -9.3433302218e-06 
-1.5183357779e-05 -2.1275054115e-05 6.5981234863e-05 5.6651410076e-05 4.750280988e-05 3.8534147692e-05 2.9745032665e-05 2.1132590192e-05 1.2701382963e-05 
4.469944982e-06 -3.5337343402e-06 -1.1287979039e-05 -1.8782777861e-05 -2.6016970121e-05 -3.3031873898e-05 -3.9839285724e-05 -4.6439248832e-05 -5.2830672316e-05 
-5.9008004874e-05 -6.4989391579e-05 -7.0812315993e-05 -7.6535516264e-05 -8.2238569257e-05 -8.7983778037e-05 -9.3841514531e-05 -9.9845837642e-05 -0.00010601126675 
-0.00011237100421 4.7776992295e-06 -4.9450107236e-06 -1.446416477e-05 -2.3784805804e-05 -3.2908296807e-05 -4.1835030443e-05 -5.0561620806e-05 -5.9076810321e-05 
-6.7354472276e-05 -7.5408292369e-05 -8.3221971982e-05 -9.0801389843e-05 -9.8159493549e-05 -0.00010530576207 -0.00011224380392 -0.00011899192922 -0.00012555033996 
-0.00013194056175 -0.00013819502962 -0.00014435356149 -0.00015047141485 -0.00015660650292 -0.00016279603908 -0.00016906251639 -0.00017544868223 -0.00018195639493 
-1.988850444e-05 -2.9866521589e-05 -3.9626784941e-05 -4.9172430872e-05 -5.850582435e-05 -6.7630337538e-05 -7.6528130719e-05 -8.5221185086e-05 -9.369072611e-05 
-0.00010193132497 -0.00010994220314 -0.00011773033748 -0.0001253032635 -0.00013266892081 -0.00013983802721 -0.00014682257064 -0.00015362678879 -0.00016028267124 
-0.00016681270264 -0.00017323872028 -0.00017962214608 -0.00018598792265 -0.00019237087897 -0.00019878512161 -0.00020527140968 -0.00021184169275 1.5613634197e-06 
-8.5624757156e-06 -1.8455878164e-05 -2.8122645166e-05 -3.7553807204e-05 -4.677931117e-05 -5.5783431343e-05 -6.4565477012e-05 -7.3124655332e-05 -8.1459935837e-05 
-8.9573883298e-05 -9.7471402471e-05 -0.00010515931714 -0.00011264640804 -0.0001199452003 -0.00012706286172 -0.00013401603136 -0.00014082376307 -0.00014750301287 
-0.00015408497812 -0.00016060417201 -0.00016708773984 -0.00017354853467 -0.00018004046252 -0.00018654567162 -0.00019308556088 6.839733368e-05 5.8202487105e-05 
4.8233084203e-05 3.8498133206e-05 2.899411977e-05 1.9714861861e-05 1.0660927644e-05 1.8310970081e-06 -6.7763360939e-06 -1.5163645849e-05 -2.3333759113e-05 
-3.1294228283e-05 -3.9050513935e-05 -4.6610996449e-05 -5.3989642695e-05 -6.1192500665e-05 -6.8236913103e-05 -7.5134081432e-05 -8.1913851913e-05 -8.859554651e-05 
-9.5208047123e-05 -0.00010174262096 -0.00010825990292 -0.0001147610463 -0.00012125956873 -0.00012776512962 0.00016936787526 0.00015906369679 0.00014900350235 
0.00013918346446 0.00012959578449 0.00012024037812 0.00011111104828 0.00010220629725 9.3523094046e-05 8.5056829673e-05 7.6802655102e-05 6.875366374e-05 
6.0904108308e-05 5.3242803434e-05 4.5763249636e-05 3.845210408e-05 3.1300259451e-05 2.4271386876e-05 1.7376028198e-05 1.0582175562e-05 3.8859935678e-06 
-2.7580314435e-06 -9.3527569483e-06 -1.5914123383e-05 -2.2447751984e-05 -2.8972285834e-05 0.00028459678567 0.00027414229769 0.00026393597632 0.00025397202952 
0.00024424426932 0.00023474934956 0.0002254833039 0.00021644176772 0.00020761897092 0.00019901158963 0.00019061139846 0.00018241424389 0.00017441183966 
0.00016659305763 0.00015894302377 0.00015147244739 0.0001441467915 0.00013695919139 0.00012989331563 0.00012293233682 0.00011607490925 0.00010927844197 
0.00010254189757 9.5851145832e-05 8.9198558566e-05 8.2575441249e-05 0.00039420596581 0.00038358468546 0.00037321410069 0.000363087916 0.00035319941126 
0.00034354581451 0.00033412223851 0.00032492129261 0.00031593905579 0.00030717011336 0.00029860586598 0.00029023260914 0.00028206035108 0.00027406874913 
0.00026625769675 0.00025860323386 0.00025109743027 0.00024372918975 0.00023648163795 0.00022935334976 0.00022230771355 0.0002153460452 0.00020844919694 
0.00020160763495 0.00019481438804 0.00018806328665 0.00048598449975 0.00047524443433 0.00046475687102 0.00045451408726 0.00044451254306 0.00043474621069 
0.00042520831888 0.00041589401452 0.00040678847985 0.00039790329169 0.00038922098859 0.00038073689432 0.00037244049759 0.00036433172951 0.0003563890217 
0.00034860638953 0.00034097242317 0.00033347244638 0.00032610625419 0.00031883851494 0.00031166770363 0.00030458450073 0.00029757133711 0.00029062037321 
0.00028372379615 0.00027687726727 0.00055509618107 0.00054432791267 0.0005338131676 0.00052354247565 0.000513514422 0.00050371311678 0.00049414853711 
0.00048480634329 0.0004756811473 0.00046676438985 0.00045805125308 0.00044953393264 0.00044120800405 0.0004330578595 0.00042507703787 0.0004172553869 
0.00040957854146 0.00040204892493 0.00039463013419 0.00038732129452 0.00038011084904 0.00037298886441 0.00036593948364 0.00035895661834 0.00035203104579 
0.00034515991096 0.00060063921082 0.00058994266642 0.00057950652674 0.0005693218674 0.00055937201382 0.00054965625852 0.00054016879815 0.00053090259339 
0.00052185200053 0.00051300870315 0.0005043671126 0.00049592355603 0.00048766358613 0.00047958102637 0.00047166685016 0.00046390948493 0.00045630765728 
0.0004488300669 0.00044147293346 0.00043422552323 0.00042707557163 0.00042001364811 0.00041302444158 0.00040610042593 0.00039923612205 0.00039242631566 
0.00062347593386 0.00061298582272 0.00060274261942 0.00059274526533 0.00058298688628 0.00057346075391 0.00056416594909 0.00055508659041 0.00054621929984 
0.00053755933275 0.00052910511986 0.00052083758316 0.00051275714559 0.00050485360364 0.00049711657209 0.00048953393249 0.00048210773445 0.00047480274026 
0.00046761751203 0.00046053991077 0.00045355649936 0.00044665591005 0.00043983096639 0.00043306521048 0.00042635627755 0.00041969872046 0.00062546986761 
0.00061529251281 0.00060536042995 0.00059567276112 0.00058622136205 0.0005769999148 0.00056800245076 0.00055922304869 0.00055065388639 0.00054229954241 
0.00053413434989 0.00052616273015 0.00051837483364 0.0005107629849 0.00050331784852 0.00049603638757 0.00048888821133 0.00048187015215 0.00047496965337 
0.00046817317637 0.00046146680527 0.00045483739839 0.00044827703269 0.00044177049997 0.00043531332832 0.00042890132877 0.00033241074391 0.00032280026486 
0.0003133635589 0.00030410169476 0.00029501278151 0.00028609348279 0.00027734750319 0.00026879455464 0.0002604625148 0.0002523805912 0.00024454895983 
0.00023695923193 0.00022959171996 0.00022244624333 0.00021549667681 0.00020876691326 0.00020226410471 0.00019598450403 0.00018989408859 0.00018392053846 
0.00017798950582 0.00017201639989 0.00016594323479 0.00015970501216 0.00015327858676 0.00014665810197 0.00028112716717 0.00027107071278 0.00026121029799 
0.00025154195931 0.0002420648272 0.00023277740146 0.00022368342369 0.00021479564678 0.00020613129574 0.00019770286824 0.00018951619109 0.00018157760001 
0.00017385181671 0.00016633413234 0.00015902370635 0.00015191740559 0.00014501561066 0.00013829919526 0.00013173651793 0.00012528207503 0.00011887058004 
0.00011245225054 0.00010596324281 9.9371570755e-05 9.2662175444e-05 8.579841216e-05 0.00024400418998 0.00023360085906 0.00022341047617 0.00021342857942 
0.00020365326869 0.00019408301681 0.0001847194145 0.00017557220645 0.00016666016813 0.00015796612671 0.00014950455333 0.00014127009358 0.00013325344753 
0.00012544699723 0.00011784793257 0.00011043635313 0.00010321128983 9.6151350693e-05 8.9228413423e-05 8.2409391745e-05 7.5647170963e-05 6.8890645084e-05 
6.2106671475e-05 5.5276210371e-05 4.835516749e-05 4.1340987875e-05 0.0002310271015 0.00022037333333 0.00020994478342 0.00019973841603 0.00018975080733 
0.00017997853519 0.00017043714342 0.00016110370445 0.00015199375489 0.00014311023127 0.00013445309625 0.00012601548928 0.00011779139978 0.00010977325326 
0.00010195132586 9.431316179e-05 8.6854661679e-05 7.9544919189e-05 7.2364245222e-05 6.529476768e-05 5.8279382155e-05 5.1297687136e-05 4.4328073254e-05 
3.7325604705e-05 3.0282878553e-05 2.3176498028e-05 0.00024773145011 0.00023690500923 0.0002263143939 0.00021595638226 0.00020583899553 0.00019593169542 
0.00018624944386 0.00017679127262 0.00016755728254 0.00015854664608 0.00014975633332 0.00014118141771 0.00013281543249 0.00012464996149 0.00011667277137 
0.00010887722336 0.00010124709344 9.3764166355e-05 8.6414954892e-05 7.9166377679e-05 7.1990976031e-05 6.4861936218e-05 5.7769328455e-05 5.0660034449e-05 
4.3552506648e-05 3.6425248134e-05 0.00029347054927 0.00028253480015 0.00027182947432 0.00026136324441 0.00025113198823 0.00024112952178 0.00023135533111 
0.00022180785538 0.00021248386756 0.0002033811669 0.00019449578684 0.00018582067049 0.00017734992391 0.00016907566963 0.00016098445201 0.00015306979412 
0.00014531550426 0.00013771130865 0.00013022840297 0.00012284921551 0.00011554573874 0.00010832981736 0.00010114095357 9.3979175411e-05 8.6831497617e-05 
7.9688319164e-05 0.000361445431 0.00035039295207 0.00033958889647 0.00032902891401 0.00031870535888 0.00030861725895 0.00029875932617 0.00028912842386 
0.0002797211179 0.00027053234542 0.00026155740888 0.00025278897779 0.00024422127331 0.00023584347872 0.00022764950155 0.00021962596661 0.00021176439986 
0.00020402915085 0.00019643156764 0.00018894091458 0.00018155429571 0.00017422727837 0.00016695793347 0.00015973095877 0.00015254118267 0.00014536999998 
0.00044053820481 0.00042938284779 0.00041847994126 0.00040782351512 0.00039740698099 0.00038722726835 0.00037727949024 0.00036755937361 0.00035806045067 
0.00034877946323 0.0003397079781 0.00033084154234 0.00032217208399 0.00031368856722 0.00030537634351 0.00029724613399 0.00028926435228 0.00028142417996 
0.00027371019369 0.00026610621582 0.00025861170915 0.00025118480738 0.00024382513563 0.00023651904359 0.00022925918749 0.00022203697609 0.00051912860654 
0.0005078851533 0.00049689639302 0.00048615572314 0.00047565612217 0.00046539497762 0.00045536682083 0.00044556431845 0.00043598323728 0.00042661795636 
0.00041745982355 0.00040849506867 0.00039973355543 0.00039115543633 0.00038276039326 0.00037452486889 0.00036644128445 0.00035849894731 0.00035068150964 
0.00034298809028 0.00033538266548 0.00032786706598 0.0003204226763 0.00031304028746 0.00030571316417 0.00029843523651 0.00058841115154 0.00057712189527 
0.00056608917222 0.00055530292741 0.00054476115287 0.00053445868537 0.00052438682149 0.00051454115276 0.00050490738695 0.00049549477317 0.00048628775161 
0.00047728206957 0.00046846580044 0.00045983945498 0.00045138167043 0.00044308650916 0.00043494339845 0.00042693750556 0.00041906919289 0.00041130358306 