# vtk DataFile Version 5.1
vtk output
ASCII
DATASET STRUCTURED_POINTS
DIMENSIONS 50 50 50
SPACING 0.002 0.002 0.002
ORIGIN 0.0482 -0.052672 0.02732
POINT_DATA 125000
FIELD FieldData 1
potential 1 125000 double
0.0017004622157 0.0016857950288 0.0016713271077 0.0016570402439 0.001642924884 0.0016289726081 0.001615176265 0.0016015272865 0.001588012221 
0.0015746305417 0.0015613749562 0.0015482414405 0.0015352308183 0.0015223393039 0.0015092959676 0.0014966579765 0.0014841518302 0.0014717815252 
0.0014595538084 0.0014474724313 0.0014355402298 0.0014237598623 0.0014121315832 0.0014006562688 0.0013893354368 0.0013781650933 0.0013671415609 
0.0013562678664 0.0013455391847 0.0013349562005 0.0013245175448 0.0013142231492 0.0013040702569 0.0012940573571 0.0012841788637 0.0012744266222 
0.0012647951756 0.0012552703947 0.0012458457384 0.0012365123693 0.0012272582856 0.0012180774185 0.0012089626313 0.0011999040572 0.0011909134235 
0.0011819847916 0.0011731203503 0.0011643216249 0.0011555954143 0.0011469423226 0.0017177507836 0.0017028693504 0.0016881633547 0.0016736536475 
0.0016593175525 0.0016451476193 0.0016311360711 0.0016172733079 0.0016035479084 0.001589957588 0.0015764974379 0.0015631618083 0.0015499505949 
0.0015368631685 0.0015239038974 0.0015107965925 0.0014981054573 0.0014855555025 0.0014731523292 0.0014608986049 0.0014487983922 0.0014368530645 
0.0014250633192 0.0014134281474 0.0014019523924 0.001390626873 0.0013794509069 0.0013684226313 0.0013575456122 0.0013468145767 0.001336230759 
0.0013257932036 0.00131549942 0.0013053462881 0.001295330247 0.0012854428416 0.0012756776238 0.0012660204638 0.0012564658237 0.001247002991 
0.0012376233624 0.0012283159771 0.0012190784443 0.0012099049362 0.001200789293 0.0011917422909 0.0011827612007 0.0011738498544 0.0011650110805 
0.0011562493834 0.0017343989679 0.0017192913148 0.0017043778048 0.0016896456335 0.0016750867876 0.0016607013868 0.0016464772268 0.0016324039927 
0.0016184705819 0.001604675939 0.0015910136601 0.0015774797199 0.0015640731606 0.0015507952301 0.0015376477972 0.0015246365789 0.0015114831399 
0.001498758915 0.0014861865618 0.0014737669071 0.0014615043242 0.0014493994005 0.001437452894 0.0014256642796 0.0014140304709 0.0014025534322 
0.0013912324829 0.0013800576047 0.0013690324655 0.0013581556965 0.0013474269883 0.0013368478126 0.0013264136306 0.0013161207316 0.0013059663704 
0.0012959426398 0.0012860412086 0.0012762500425 0.0012665645101 0.0012569718402 0.0012474640748 0.0012380311483 0.0012286695594 0.0012193750057 
0.0012101396006 0.0012009762894 0.0011918815198 0.0011828591392 0.001173912483 0.0011650447455 0.0017502500364 0.0017349225493 0.0017197938027 
0.0017048473204 0.001690080725 0.0016754848119 0.0016610513887 0.0016467731799 0.0016326361922 0.0016186405452 0.0016047803599 0.0015910527454 
0.001577456342 0.0015639932475 0.001550664947 0.0015374770496 0.0015244350344 0.0015112556163 0.0014985195608 0.0014859404677 0.0014735216291 
0.0014612640792 0.0014491661894 0.0014372288525 0.001425447556 0.0014138241843 0.0014023529853 0.0013910394813 0.0013798713394 0.0013688511392 
0.0013579841249 0.0013472633838 0.001336689195 0.0013262574214 0.0013159647797 0.0013058049677 0.0012957689481 0.0012858450853 0.0012760276093 
0.001266305355 0.0012566708327 0.0012471134276 0.0012376282427 0.0012282125982 0.0012188584293 0.0012095819009 0.0012003767688 0.0011912463117 
0.0011821945689 0.0011732247073 0.0017651768371 0.0017496385663 0.0017342996886 0.0017191441375 0.001704172361 0.001689373449 0.0016747420481 
0.0016602620133 0.0016459276357 0.0016317378563 0.0016176865168 0.0016037703814 0.0015899887721 0.0015763463508 0.0015628433993 0.0015494862731 
0.0015362798014 0.0015232261003 0.0015100430723 0.0014973128934 0.0014847449948 0.0014723414971 0.0014601001135 0.0014480198903 0.0014360977145 
0.001424330891 0.0014127204773 0.0014012601149 0.0013899594701 0.001378801371 0.0013677950711 0.0013569386672 0.0013462272166 0.0013356605397 
0.0013252325646 0.0013149378044 0.0013047690359 0.0012947152986 0.0012847659623 0.0012749158312 0.001265154856 0.0012554738005 0.0012458689564 
0.0012363360263 0.0012268743201 0.0012174794688 0.0012081666362 0.0011989320219 0.0011897786751 0.0011807112925 0.0017790982497 0.0017633588281 
0.0017478171999 0.0017324625006 0.0017172894971 0.0017022925902 0.0016874614641 0.0016727968983 0.0016582712782 0.0016438935984 0.0016296564924 
0.0016155590991 0.0016016003401 0.0015877845227 0.0015741146418 0.0015605947774 0.0015472295616 0.0015340237755 0.0015209821895 0.00150781203 
0.0014951031999 0.0014825612219 0.0014701820279 0.0014579649273 0.0014459075325 0.0014340053261 0.0014222601779 0.0014106650834 0.0013992200173 
0.001387936297 0.001376795899 0.0013658054629 0.0013549618473 0.001344262762 0.0013337046761 0.001323279378 0.0013129792341 0.001302798413 
0.0012927213973 0.0012827467618 0.0012728618088 0.0012630609567 0.0012533377347 0.0012436903231 0.001234118582 0.0012246157474 0.0012151990426 
0.001205863593 0.0011966134564 0.0011874530635 0.0017919902083 0.0017760531835 0.0017603154343 0.0017447673861 0.0017294040241 0.0017142170897 
0.0016991948077 0.0016843353922 0.001669637353 0.0016550807908 0.0016406652401 0.0016263913987 0.0016122629377 0.00159828299 0.0015844515028 
0.00157077558 0.0015572601197 0.0015439075041 0.0015307231209 0.0015174110167 0.0015045684969 0.0014918928517 0.0014793833416 0.0014670363793 
0.0014548490738 0.00144281855 0.001430941082 0.0014192176603 0.001407643213 0.0013962201242 0.0013849610275 0.001373839029 0.001362866841 
0.0013520394036 0.0013413539386 0.0013308024423 0.0013203783311 0.0013100723058 0.0012998741223 0.0012897787248 0.0012797740667 0.0012698578074 
0.0012600203613 0.0012502619852 0.0012405819455 0.0012309749281 0.0012214595632 0.0012120280514 0.0012026860109 0.0011934379719 0.0018037681481 
0.0017877459527 0.0017718200114 0.001756084103 0.0017405354565 0.0017251648113 0.0017099623427 0.0016949215946 0.0016800333496 0.0016653176212 
0.0016507318566 0.0016362897565 0.0016219985907 0.0016078594318 0.0015938740394 0.0015800493325 0.0015663903182 0.0015528978895 0.001539578748 
0.0015264321359 0.0015131581713 0.0015003557205 0.0014877208252 0.0014752493868 0.001462938557 0.0014507838793 0.0014387807836 0.0014269327316 
0.0014152337674 0.0014036853756 0.0013922869642 0.0013810548513 0.0013699586543 0.0013590075325 0.001348199358 0.0013375262568 0.0013269812217 
0.0013165571178 0.0013062410086 0.0012960283521 0.001285911225 0.0012758825498 0.0012659352168 0.0012560708008 0.0012462888287 0.0012365896251 
0.0012269697113 0.0012174483592 0.0012080193492 0.0011986872118 0.0018147168258 0.0017984038344 0.0017823995859 0.0017664867801 0.0017507588636 
0.0017352084831 0.0017198306057 0.0017046161628 0.0016895586348 0.0016746550587 0.001659923677 0.0016453222493 0.0016308742664 0.0016165823775 
0.0016024507224 0.0015884826528 0.0015746840588 0.0015610585665 0.0015476095543 0.001534337235 0.0015212388302 0.0015080094874 0.0014952543111 
0.0014826648738 0.0014702342832 0.0014579586491 0.0014458365527 0.0014338635212 0.0014220462983 0.0014103782538 0.0013988598578 0.0013874907655 
0.0013762730252 0.0013652210784 0.0013542946798 0.0013435046125 0.0013328444892 0.0013223060103 0.001311879128 0.0013015540306 0.0012913266652 
0.0012811906969 0.0012711390286 0.0012611720084 0.0012512911274 0.0012414970771 0.001231785759 0.0012221762456 0.001212665023 0.0012032539434 
0.0018248595799 0.0018083628468 0.0017920718818 0.0017759822595 0.0017601862342 0.0017444638259 0.001728913889 0.0017135310369 0.0016983097488 
0.0016832420328 0.001668330863 0.0016535990203 0.0016389989719 0.0016245614265 0.0016102861915 0.0015961814125 0.0015822490118 0.001568494501 
0.0015549192335 0.0015415240304 0.0015283048364 0.0015152615894 0.0015020812076 0.0014893753062 0.0014768289787 0.0014644375689 0.0014521988785 
0.0014401097244 0.0014281747455 0.0014163878842 0.0014047519518 0.0013932669634 0.0013819322509 0.0013707461046 0.0013597259772 0.0013488235036 
0.0013380526727 0.0013274038086 0.0013168698319 0.0013064382013 0.0012961071102 0.0012858679519 0.0012757170493 0.0012656542594 0.001255679434 
0.0012457942561 0.0012359952139 0.0012263025891 0.0012167117483 0.001207224206 0.0018343505779 0.0018176730597 0.0018012040205 0.001784937789 
0.0017688625621 0.0017530782349 0.0017373607579 0.0017218142693 0.0017064298562 0.0016912025042 0.001676137973 0.0016612305304 0.0016465115669 
0.0016319313384 0.0016175212892 0.0016032819598 0.0015892210177 0.0015753389205 0.0015616411686 0.0015481263999 0.0015347895014 0.0015216285894 
0.0015086384453 0.001495506784 0.0014828460956 0.0014703408031 0.0014579886401 0.0014457845263 0.0014337342069 0.0014218361318 0.0014100871123 
0.0013984880981 0.0013870404865 0.0013757424378 0.0013645916972 0.001353602158 0.0013427230882 0.0013319680567 0.0013213293811 0.0013107962838 
0.0013003651117 0.0012900280118 0.0012797813662 0.0012696252802 0.0012595607895 0.001249590299 0.0012397081751 0.0012299362446 0.001220269769 
0.0012107092391 0.0018433704081 0.0018265126993 0.0018098658781 0.0017934243904 0.0017771773015 0.0017611144339 0.0017453412063 0.0017296304597 
0.0017140863583 0.0016987056498 0.001683489577 0.0016684364456 0.0016535443023 0.0016388561886 0.0016243100792 0.0016099414274 0.0015957524488 
0.001581746836 0.0015679271645 0.0015542924829 0.0015408402083 0.0015275637328 0.0015144595193 0.0015015208998 0.0014884338769 0.001475815898 
0.0014633506228 0.0014510355081 0.0014388727226 0.0014268615017 0.0014150005379 0.0014032915313 0.0013917334377 0.0013803276588 0.001369068339 
0.0013579512145 0.001346989456 0.0013361321132 0.0013253926608 0.0013147592135 0.001304231323 0.0012937996648 0.0012834618348 0.0012732174039 
0.0012630668643 0.0012530127469 0.001243059853 0.0012332032121 0.0012234636333 0.0012138333557 0.0018521124022 0.0018350727072 0.0018182475802 
0.001801628409 0.0017852059904 0.0017689750173 0.0017529257241 0.0017371620746 0.0017214595961 0.0017059238243 0.0016905581732 0.0016753587881 
0.0016603286131 0.0016454705813 0.0016308244273 0.0016163271288 0.0016020128303 0.0015878838698 0.0015739421943 0.0015601885108 0.0015466177784 
0.0015332259023 0.0015200059632 0.0015069516623 0.0014937469251 0.0014810153499 0.0014684367486 0.0014560096983 0.0014437339544 0.0014316113827 
0.0014196417503 0.0014078235049 0.0013961573346 0.0013846436527 0.0013732782202 0.0013620568586 0.0013509694302 0.0013400353999 0.0013291966677 
0.0013184674425 0.0013078417035 0.0012973185677 0.001286892107 0.0012765625323 0.0012663307175 0.0012561971453 0.00124616848 0.0012362387467 
0.0012264270215 0.0012167264321 0.001860763409 0.0018435392524 0.0018265307597 0.0018097311262 0.0017931323042 0.0017767279427 0.0017605098303 
0.0017444694626 0.0017287199745 0.0017130297733 0.0016975144737 0.0016821705708 0.0016670014132 0.0016520058975 0.0016371946435 0.0016226032596 
0.0016081619482 0.0015939107787 0.0015798466792 0.001565970952 0.0015522809462 0.0015387701135 0.0015254330116 0.0015122617854 0.0014992554659 
0.0014860898259 0.0014733977197 0.0014608576614 0.0014484703298 0.0014362360599 0.0014241568573 0.0014122304966 0.0014004585602 0.0013888362187 
0.0013773653939 0.0013660383365 0.0013548491861 0.001343788576 0.0013328778927 0.0013220539174 0.0013113351528 0.0013007216443 0.0012902079063 
0.0012797948374 0.001269483193 0.0012592736468 0.001249170809 0.0012391691115 0.001229287515 0.001219520793 0.0018695597328 0.0018520832995 
0.0018348869442 0.0018179017547 0.001801121752 0.0017845412894 0.0017681505448 0.0017519434447 0.0017359202166 0.0017201861439 0.0017045188315 
0.0016890301674 0.0016737195007 0.0016585890059 0.0016436426517 0.0016288839533 0.0016143552598 0.0015999763567 0.0015857898628 0.0015717871998 
0.0015579742967 0.0015443414562 0.0015308827617 0.0015175930815 0.0015044667993 0.00149150001 0.0014783714995 0.0014657191473 0.0014532198452 
0.0014408734629 0.0014286839153 0.0014166484838 0.0014047680521 0.0013930389333 0.0013814626825 0.0013700299613 0.0013587375211 0.0013475757856 
0.0013365390912 0.0013256483876 0.0013148366834 0.0013041345055 0.0012935357364 0.0012830399238 0.001272649218 0.0012623653006 0.0012521888253 
0.0012421167192 0.0012321652035 0.0012223313148 0.0018785257852 0.0018609125482 0.0018434664551 0.0018262929765 0.0018093271882 0.0017925647691 
0.0017759980177 0.001759618829 0.0017434306856 0.0017274236712 0.0017117169554 0.0016960788617 0.001680624135 0.0016653560789 0.001650273212 
0.0016353804136 0.0016207249487 0.0016062154568 0.0015918982919 0.0015777718287 0.0015638292066 0.0015500687955 0.0015364853826 0.0015230710501 
0.0015098234973 0.0014967368727 0.0014838080139 0.0014707175373 0.0014581039321 0.0014456442918 0.0014333439294 0.0014211993388 0.0014092091422 
0.0013973714394 0.0013856855706 0.0013741479338 0.0013627501389 0.001351487532 0.0013403504105 0.0013293336059 0.0013184596926 0.0013076684719 
0.0012969844107 0.0012864074244 0.0012759382542 0.0012655789392 0.0012553299928 0.0012451960672 0.0012351684704 0.001225264679 0.0018888096945 
0.0018700264722 0.001852394678 0.0018350265571 0.0018178723605 0.0018009215771 0.0017841714077 0.0017676191228 0.0017512607007 0.0017350894527 
0.0017191104842 0.0017033210881 0.001687832666 0.0016724203403 0.0016571977596 0.0016421684164 0.0016273308717 0.0016127344262 0.0015982858511 
0.0015840257315 0.0015699520993 0.0015560620122 0.0015423492785 0.0015288055608 0.0015154307396 0.0015022210762 0.0014891716263 0.0014759575585 
0.0014632267774 0.0014506525782 0.0014382379548 0.0014259810156 0.0014138801038 0.0014019329806 0.0013901371393 0.0013784906004 0.001366986605 
0.0013556200778 0.0013443817763 0.0013332667754 0.0013222671158 0.0013114188891 0.001300648693 0.0012899894896 0.0012794418639 0.0012690056009 
0.0012586850167 0.001248478855 0.0012383809939 0.0012284081754 0.0018986176954 0.0018796113068 0.0018618149219 0.0018441942816 0.0018268541211 
0.0018097120179 0.0017927736039 0.0017760408455 0.0017595079165 0.0017431680227 0.0017270247619 0.0017110770387 0.0016953249464 0.0016798757507 
0.0016645075235 0.0016493372075 0.0016343583707 0.0016195763983 0.0016050375814 0.0015906397541 0.0015764292522 0.0015624021141 0.0015485555159 
0.0015348826057 0.001521378007 0.0015080402466 0.0014948652196 0.0014818510769 0.0014686720787 0.0014559817124 0.0014434489759 0.0014310768974 
0.0014188623664 0.0014068030116 0.0013948957202 0.0013831380687 0.0013715253555 0.001360049869 0.0013487105357 0.0013374952771 0.0013264032751 
0.0013154260984 0.0013046027341 0.0012938600546 0.0012832319637 0.0012727192485 0.0012623233104 0.0012520442402 0.0012418746254 0.0012318307024 
0.0019089653507 0.0018907076517 0.0018717214147 0.0018539419133 0.0018363391733 0.0018189986119 0.0018018799719 0.0017849579921 0.0017682456043 
0.0017517309493 0.001735419221 0.0017193073817 0.001703393699 0.001687679086 0.0016722749769 0.0016569525054 0.0016418285781 0.0016269013167 
0.0016121676903 0.0015976795029 0.0015833264761 0.0015691593667 0.0015551730749 0.0015413631077 0.0015277241194 0.0015142544001 0.0015009517075 
0.0014878106639 0.0014748340124 0.0014616915573 0.0014490383901 0.0014365480783 0.0014242152324 0.0014120410225 0.0014000203476 0.0013881490864 
0.00137642419 0.0013648403638 0.0013533939882 0.0013420774821 0.0013308865545 0.0013198147084 0.0013088668659 0.0012980755222 0.0012873652739 
0.001276773385 0.0012663004686 0.0012559456396 0.0012457010187 0.0012355843619 0.0019199089799 0.0019014274759 0.0018831839185 0.0018642147507 
0.0018464049662 0.0018288593263 0.0018115313144 0.0017944170304 0.0017775277404 0.001760831464 0.0017443441098 0.0017280621981 0.0017119825618 
0.0016961042145 0.0016804294353 0.0016650664386 0.0016497897897 0.0016347119967 0.0016198273137 0.0016051348705 0.0015906925863 0.001576379041 
0.0015622493346 0.0015482966435 0.0015345185467 0.0015209128561 0.0015074748743 0.0014942049574 0.0014810999198 0.0014681585686 0.0014550524559 
0.0014424383932 0.0014299856277 0.0014176926608 0.0014055535699 0.0013935658049 0.0013817269645 0.0013700324056 0.0013584767924 0.0013470543785 
0.0013357633986 0.0013245958286 0.0013135558036 0.0013026389692 0.0012918817562 0.0012812077608 0.0012706547801 0.0012602218206 0.001249908786 
0.0012397061893 0.0019314882763 0.0019127744636 0.0018943033474 0.0018751011085 0.0018571151213 0.0018393199534 0.0018217858819 0.0018044731775 
0.0017873780882 0.0017705060855 0.0017538379437 0.0017373758633 0.0017211236325 0.0017050768643 0.0016892359219 0.0016735972908 0.0016582752936 
0.0016430378524 0.0016279972152 0.0016131511917 0.001598497537 0.0015840918207 0.0015698128761 0.0015557144937 0.0015417917799 0.0015280442278 
0.0015144698299 0.0015010641516 0.0014878281169 0.0014747557598 0.0014615175109 0.0014487782715 0.0014362022485 0.0014237854583 0.0014115248285 
0.0013994177294 0.0013874619668 0.0013756526925 0.0013639848318 0.0013524572745 0.001341061424 0.0013297960209 0.0013186612541 0.0013076522877 
0.0012967687591 0.0012860494238 0.0012754126098 0.0012648986178 0.0012545053096 0.0012442224644 0.0019437282188 0.0019247752771 0.0019060686044 
0.0018876039012 0.0018684160288 0.001850439951 0.0018326593146 0.0018151409877 0.0017978454776 0.001780767977 0.0017639078885 0.0017472736022 
0.00173084019 0.001714615973 0.0016986023904 0.0016827935135 0.0016671882779 0.0016519020476 0.0016366977654 0.0016216921623 0.0016068789939 
0.0015922549614 0.0015778853217 0.0015636344504 0.0015495644371 0.0015356705302 0.0015219525201 0.0015084072617 0.0014950344235 0.0014818285972 
0.0014687912794 0.0014555860799 0.0014428798846 0.0014303356817 0.0014179519454 0.001405723471 0.0013936480123 0.0013817213965 0.0013699401652 
0.0013583021537 0.0013468020995 0.0013354329259 0.0013241993607 0.0013130965738 0.0013021217613 0.0012912725851 0.0012805913621 0.0012699922569 
0.0012595142824 0.0012491470398 0.0019566451474 0.0019374416738 0.0019184940509 0.0018997929365 0.0018803629698 0.0018621627935 0.0018441655208 
0.0018264329806 0.0018089295051 0.0017916497575 0.0017745923335 0.001757753912 0.0017411318194 0.001724737072 0.0017085409226 0.0016925525505 
0.0016767748744 0.0016612021615 0.0016459448423 0.001630769777 0.001615792896 0.0016010075526 0.0015864105354 0.001572070326 0.0015578458748 
0.0015438002928 0.0015299350538 0.0015162454992 0.0015027305818 0.0014893864793 0.0014762121747 0.0014632060257 0.0014500317297 0.001437359808 
0.001424846838 0.0014124935246 0.0014002947186 0.0013882491954 0.0013763519597 0.001364601204 0.0013529922464 0.0013415208392 0.0013301826893 
0.0013189812792 0.0013079117542 0.0012969706741 0.0012861559851 0.0012755105616 0.0012649458727 0.0012544915553 0.0019702454284 0.0019507844662 
0.0019315870863 0.0019126419716 0.0018939473756 0.0018745300394 0.0018563378917 0.0018383575654 0.0018206383212 0.0018031489369 0.0017858895627 
0.0017688508038 0.0017520327897 0.0017354334495 0.0017190496952 0.0017028898657 0.0016869271987 0.0016711740683 0.0016556254905 0.0016403942318 
0.0016252445948 0.0016102920613 0.0015955310877 0.0015809574882 0.0015666443541 0.0015524440497 0.0015384251182 0.0015245852712 0.0015109229409 
0.0014974353609 0.0014841209751 0.0014709754526 0.001457998897 0.0014448569744 0.0014322147646 0.0014197317627 0.0014074082682 0.0013952412589 
0.0013832239598 0.0013713577538 0.0013596367894 0.0013480577329 0.0013366150382 0.0013253122489 0.001314143341 0.0013031068854 0.0012921974892 
0.0012814152383 0.0012708050822 0.0012602695703 0.0019847868125 0.0019648111052 0.0019453531057 0.0019261574792 0.0019072172868 0.0018875498109 
0.0018691236833 0.0018509175974 0.0018329775416 0.0018152699061 0.0017977978884 0.0017805540553 0.0017635314078 0.0017467330454 0.0017301525259 
0.0017137896124 0.001697637945 0.0016817087547 0.0016659759016 0.0016504474878 0.001635237575 0.0016201098378 0.0016051781974 0.0015904382903 
0.0015759609095 0.0015615983455 0.0015474219641 0.0015334290872 0.0015196149257 0.0015059767668 0.0014925173021 0.0014792301479 0.0014661137962 
0.0014528306808 0.0014400526493 0.0014274404653 0.0014149890472 0.0014026948693 0.0013905595807 0.0013785729307 0.0013667382681 0.0013550483739 
0.0013434982553 0.001332091223 0.0013208211313 0.0013096842972 0.0012986773757 0.0012877996504 0.0012770479375 0.0012664665421 0.001999775283 
0.00197978027 0.0019598040394 0.001940346827 0.0019211534035 0.0019022162932 0.0018825620903 0.0018641434174 0.0018459530129 0.0018280210393 
0.0018103293668 0.00179286987 0.0017756366693 0.0017586316868 0.0017418473294 0.0017252840589 0.0017089346122 0.0016928006611 0.0016768886048 
0.0016611723427 0.0016456621849 0.001630470388 0.0016153619056 0.0016004477393 0.0015857244045 0.0015712731398 0.0015569339046 0.0015427794554 
0.0015288093212 0.0015150194143 0.0015014082707 0.0014879754895 0.0014747159022 0.0014616280936 0.0014483728792 0.0014356254125 0.0014230413177 
0.0014106205319 0.0013983575131 0.0013862520862 0.0013742972451 0.0013624957358 0.001350834644 0.0013393216069 0.0013279455493 0.0013167058526 
0.0013055978797 0.0012946215359 0.0012837715872 0.0012730453686 0.0020154782953 0.0019951909979 0.0019751930441 0.001955215775 0.0019357586292 
0.0019165661919 0.0018966545398 0.0018779938934 0.0018595848832 0.0018414043511 0.0018234833928 0.0018058012331 0.0017883514331 0.0017711304694 
0.0017541360233 0.0017373642941 0.0017208104685 0.0017044755811 0.0016883559033 0.0016724450346 0.0016567523232 0.0016412565977 0.0016260794114 
0.0016109879973 0.0015960904607 0.0015813880303 0.0015669583157 0.0015526401617 0.0015385071759 0.0015245590235 0.001510794739 0.0014972109556 
0.0014838030695 0.0014705707997 0.0014575107841 0.0014442851677 0.0014315676594 0.0014190157618 0.0014066264692 0.0013943956323 0.0013823231729 
0.0013704035246 0.0013586292938 0.0013470049147 0.0013355210474 0.0013241756443 0.0013129638249 0.0013018828125 0.001290930241 0.0012801022499 
0.0020318775779 0.0020113154028 0.0019910235968 0.0019710212643 0.0019510402678 0.0019315849747 0.0019123942207 0.0018924960925 0.0018738420849 
0.0018554240324 0.0018372691285 0.0018193562954 0.0018016801305 0.0017842374924 0.0017670236779 0.001750037147 0.0017332695313 0.0017167256375 
0.0017003997983 0.0016842878106 0.001668387194 0.0016526974359 0.0016372224258 0.0016220588204 0.0016069823713 0.0015921000594 0.0015774158894 
0.0015630095698 0.0015487112804 0.0015346033148 0.001520678836 0.001506939557 0.0014933788739 0.001479999285 0.0014667938158 0.0014534216353 
0.0014405678675 0.0014278815319 0.0014153623413 0.0014030080668 0.0013908116187 0.0013787727202 0.001366882505 0.0013551438029 0.0013435502342 
0.0013320963168 0.0013207770725 0.0013095891643 0.0012985313591 0.0012875979696 0.0020489935316 0.002028134703 0.0020075619563 0.0019872652493 
0.0019672602737 0.0019472795807 0.0019278251026 0.0019076579044 0.0018887517512 0.0018700981933 0.001851692246 0.0018335409953 0.0018156314068 
0.0017979573803 0.0017805165364 0.0017633068157 0.0017463223669 0.0017295597741 0.0017130193534 0.0016966971895 0.0016805913402 0.0016646990967 
0.0016490172825 0.0016335555952 0.0016184062503 0.0016033420789 0.001588477915 0.0015738120132 0.0015594280895 0.0015451505608 0.0015310634238 
0.0015171630132 0.0015034466494 0.0014899144911 0.0014765615949 0.0014633879141 0.0014500469643 0.0014372246025 0.0014245743376 0.0014120904225 
0.0013997701604 0.0013876079156 0.0013756043807 0.0013637454937 0.0013520371751 0.0013404720681 0.0013290435224 0.0013177461903 0.0013065782278 
0.0012955353024 0.0020668376299 0.0020456699359 0.002024798178 0.0020042191507 0.0019839198882 0.0019639139377 0.0019439327761 0.0019244776861 
0.0019043213307 0.0018854142765 0.0018667595297 0.0018483626484 0.0018302112114 0.0018122993954 0.0017946253195 0.0017771824566 0.0017599711598 
0.0017429835065 0.0017262205733 0.0017096816629 0.0016933624649 0.0016772601661 0.0016613738907 0.0016457007923 0.0016302406704 0.0016151118378 
0.0016000625819 0.0015852164989 0.0015706579076 0.001556207703 0.0015419516771 0.0015278869212 0.0015140115203 0.0015003231572 0.0014868200447 
0.0014734981406 0.0014603569238 0.0014470507055 0.001434265914 0.0014216504928 0.0014092036339 0.0013969194366 0.0013847935701 0.0013728175706 
0.0013609932404 0.0013493110439 0.0013377674537 0.0013263578572 0.001315076447 0.0013039207792 0.0020853832423 0.0020639347327 0.0020427552903 
0.0020218736713 0.0020012899239 0.0019809970818 0.0019609801386 0.0019409974345 0.001920564575 0.0019013927473 0.0018824848329 0.0018638319583 
0.0018454299151 0.0018272717027 0.0018093559598 0.0017916741545 0.0017742247324 0.0017570046726 0.0017400121475 0.0017232442632 0.0017067031907 
0.0016903844292 0.0016742864104 0.001658406308 0.0016427423572 0.0016272926985 0.0016121793048 0.0015971449409 0.0015823164442 0.001567779634 
0.0015533506734 0.0015391186288 0.0015250792857 0.0015112314814 0.0014975751258 0.0014841030848 0.0014708168083 0.001457365996 0.0014444430921 
0.0014316953018 0.001419118749 0.0014067086842 0.0013944612501 0.0013823629277 0.0013704203759 0.0013586205777 0.0013469581221 0.0013354286484 
0.0013240312329 0.0013127572882 0.0021047100052 0.002082900559 0.0020614026375 0.0020402491227 0.0020193605575 0.0019987737026 0.0019784762636 
0.0019584563857 0.0019384722253 0.0019180429361 0.0018988692964 0.0018799540663 0.0018612978342 0.0018428841779 0.0018247159469 0.0018067859488 
0.0017890881592 0.0017716251767 0.0017543949845 0.0017373933887 0.0017206211766 0.0017040784205 0.001687759251 0.0016716649413 0.0016557918012 
0.001640140508 0.0016248211257 0.0016095950489 0.0015945872261 0.0015797766938 0.0015652653695 0.0015508600327 0.0015366542119 0.001522644029 
0.0015088297479 0.0014952055964 0.0014817722972 0.0014685225037 0.0014551116227 0.0014422290895 0.0014295214887 0.0014169834363 0.0014046105982 
0.0013923899001 0.0013803219259 0.001368399406 0.001356615888 0.0013449656239 0.0013334455362 0.0013220519119 0.0021247834408 0.0021026409502 
0.0020808177656 0.0020593101605 0.002038148605 0.0020172582184 0.0019966656363 0.0019763651235 0.0019563401502 0.0019353711969 0.0019159204889 
0.0018967351954 0.0018778127626 0.0018591371359 0.0018407071647 0.0018225177251 0.0018045658143 0.0017868522585 0.0017693745346 0.0017521302393 
0.0017351190742 0.0017183421147 0.0017017954682 0.0016854788483 0.0016693900189 0.0016535294629 0.0016378893098 0.0016225852061 0.0016073763692 
0.0015923874478 0.0015776000197 0.0015631149348 0.0015487377277 0.0015345627397 0.0015205883372 0.0015068092325 0.0014932250871 0.0014798298699 
0.0014666225401 0.0014532543442 0.0014404135826 0.0014277450826 0.0014152409504 0.0014028944242 0.0013907021244 0.0013786543766 0.0013667465408 
0.0013549712494 0.0013433264914 0.0013318075099 0.00214560771 0.0021231195039 0.0021009607192 0.0020791293175 0.0020576147653 0.0020364168188 
0.0020155546178 0.0019949545246 0.0019746451049 0.0019546056614 0.0019336374472 0.0019141736927 0.0018949691382 0.0018760279231 0.0018573279687 
0.0018388712145 0.0018206575556 0.0018026820023 0.001784947636 0.0017674508045 0.0017501933502 0.0017331738116 0.0017163930548 0.001699846451 
0.0016835362641 0.0016674584864 0.001651606946 0.0016359831353 0.0016206963354 0.0016055068463 0.0015905354046 0.0015757801111 0.0015613274822 
0.0015469846284 0.0015328455847 0.0015189089458 0.0015051724951 0.0014916309834 0.0014782798975 0.0014647688147 0.0014517916287 0.001438989637 
0.0014263555124 0.0014138787273 0.0014015567401 0.0013893815004 0.0013773437271 0.0013654397923 0.0013536644673 0.0013420161541 0.0021671680191 
0.0021443247401 0.0021218250847 0.0020996560797 0.0020778175552 0.0020562990545 0.002035090765 0.0020142230511 0.0019936118414 0.0019732843377 
0.0019522625057 0.0019322566283 0.0019127681414 0.0018935475669 0.0018745662192 0.0018558338404 0.001837346905 0.0018191019015 0.0018011012351 
0.001783344641 0.0017658324352 0.0017485648431 0.0017315392491 0.0017147588162 0.0016982178954 0.0016819170687 0.0016658497097 0.0016500151006 
0.0016344090166 0.0016191415304 0.0016039791968 0.0015890343652 0.001574414327 0.0015598976237 0.0015455927568 0.0015314960086 0.0015176039272 
0.0015039131095 0.0014904175 0.0014771130809 0.001463646235 0.0014507083052 0.0014379390142 0.001425329105 0.0014128741337 0.0014005659642 
0.0013883958246 0.0013763573731 0.0013644478347 0.0013526652895 0.0021894375783 0.0021662323849 0.0021433775426 0.0021208643528 0.0020986909676 
0.0020768480017 0.0020553227065 0.0020341052456 0.0020131874992 0.0019925922044 0.0019722469405 0.0019512120888 0.0019311742854 0.0019116492338 
0.001892396276 0.0018733789075 0.0018546093502 0.0018360870596 0.0018178121352 0.0017997875958 0.0017820127549 0.0017644871362 0.0017472132704 
0.0017301902501 0.0017134139324 0.0016968832288 0.0016805940455 0.0016645438517 0.0016487299942 0.0016331453142 0.0016179034355 0.0016027724009 
0.001587862803 0.0015732738584 0.0015588070374 0.0015445483121 0.0015305008743 0.0015166574642 0.001503014164 0.0014895648854 0.0014763031295 
0.0014628733485 0.0014499663208 0.0014372228169 0.001424627645 0.0014121808771 0.0013998730178 0.0013876980473 0.0013756498622 0.0013637297059 
0.002212360496 0.0021887856267 0.0021655690456 0.0021427079565 0.0021201932298 0.0020980165519 0.0020761656215 0.0020546241535 0.0020333918516 
0.0020124507754 0.001991836954 0.0019704955011 0.0019504010045 0.0019303232228 0.001910774866 0.0018914637901 0.0018724050786 0.0018535968205 
0.0018350411131 0.0018167411921 0.0017986961256 0.001780908311 0.0017633788775 0.0017461068862 0.0017290894431 0.0017123241502 0.001695807895 
0.0016795371363 0.0016635086807 0.0016477179161 0.0016321633458 0.0016169533372 0.0016018574274 0.0015869869735 0.0015724495748 0.0015580310402 
0.001543823209 0.0015298250175 0.0015160310826 0.0015024345689 0.0014890276891 0.0014754531763 0.0014624041437 0.0014495177141 0.0014367784446 
0.0014241901896 0.0014117406819 0.0013994222455 0.0013872331156 0.0013751714643 0.0022358631707 0.0022119126487 0.0021883297707 0.0021651087482 