# vtk DataFile Version 5.1
vtk output
ASCII
DATASET POLYDATA
POINTS 2530 double
58.611110687 -9.4444446564 1.258879255e-14 57.569446564 -9.4444446564 1.2347858264e-14 58.611110687 -12.222222328 1.258879255e-14 
58.611110687 -12.222222328 1.258879255e-14 57.569446564 -9.4444446564 1.2347858264e-14 55.833335876 -12.222222328 1.1946300237e-14 
55.833335876 -12.222222328 1.1946300237e-14 57.569446564 -9.4444446564 1.2347858264e-14 56.597221375 -9.4444446564 1.2122985028e-14 
55.833335876 -12.222222328 1.1946300237e-14 56.597221375 -9.4444446564 1.2122985028e-14 55.833335876 -9.4444446564 1.1946300237e-14 
56.597221375 -9.4444446564 1.2122985028e-14 57.569446564 -9.4444446564 1.2347858264e-14 56.597221375 -1.6319445372 1.2122985028e-14 
56.597221375 -1.6319445372 1.2122985028e-14 57.569446564 -9.4444446564 1.2347858264e-14 57.569446564 -1.6319445372 1.2347858264e-14 
56.597221375 -1.6319445372 1.2122985028e-14 57.569446564 -1.6319445372 1.2347858264e-14 55.416667938 -0.72916668653 1.1849925993e-14 
55.416667938 -0.72916668653 1.1849925993e-14 57.569446564 -1.6319445372 1.2347858264e-14 58.611110687 -1.6319445372 1.258879255e-14 
55.416667938 -0.72916668653 1.1849925993e-14 58.611110687 -1.6319445372 1.258879255e-14 55.416667938 0.72916668653 1.1849925993e-14 
55.416667938 0.72916668653 1.1849925993e-14 58.611110687 -1.6319445372 1.258879255e-14 58.611110687 1.840277791 1.258879255e-14 
55.416667938 0.72916668653 1.1849925993e-14 58.611110687 1.840277791 1.258879255e-14 -59.444450378 1.840277791 -1.4717161213e-14 
-59.444450378 1.840277791 -1.4717161213e-14 -59.444450378 0.72916668653 -1.4717161213e-14 55.416667938 0.72916668653 1.1849925993e-14 
-59.444450378 -0.72916668653 -1.4717161213e-14 -59.444450378 -1.6319445372 -1.4717161213e-14 55.416667938 -0.72916668653 1.1849925993e-14 
55.416667938 -0.72916668653 1.1849925993e-14 -59.444450378 -1.6319445372 -1.4717161213e-14 56.597221375 -1.6319445372 1.2122985028e-14 
4.5535728997 -1.12893709 8.5420290281e-17 -27.445438739 -1.3804408136 -7.3158704613e-15 -34.01389122 -0.72916668653 -8.835136967e-15 
-8.5803378094 1.3482428786 -2.9524201581e-15 -34.012394094 1.5942603348 -8.8347906855e-15 -34.01389122 0.72916668653 -8.835136967e-15 
4.5555496216 -1.6319445372 8.5877501067e-17 24.597221375 -1.6319445372 4.7214656706e-15 40.597221375 -1.6319445372 8.4222253491e-15 
-5.3888893127 1.840277791 -2.2142461635e-15 26.611110687 1.840277791 5.1872731935e-15 42.611110687 1.840277791 8.888032872e-15 
4.5525553693 1.221201599 8.5184938051e-17 -27.445947505 1.530739695 -7.3159881374e-15 29.984611654 0.97518414276 5.9675554655e-15 
17.268583512 1.0981928709 3.0263702018e-15 42.700639796 0.85217541465 8.9087407292e-15 -8.5833320618 -0.72916668653 -2.9531127211e-15 
23.416667938 -0.72916668653 4.4484066359e-15 -46.729170799 -1.1805556118 -1.177614909e-14 -8.5833320618 0.72916668653 -2.9531127211e-15 
23.416667938 0.88393935508 4.4484066359e-15 -46.729170799 1.1837197968 -1.177614909e-14 -21.299573111 1.1397114793 -5.8943472297e-15 
4.5535728997 -1.12893709 8.5420290281e-17 -27.444450378 -1.5061907333 -7.3156418559e-15 29.985120419 -0.92905188828 5.9676731416e-15 
-0.58333206177 -0.72916668653 -1.1027328818e-15 23.417656299 -0.9806704101 4.4486352413e-15 7.4166679382 -0.72916668653 7.4764695742e-16 
-7.4460564649 -1.2232509864 -2.6900637416e-15 -11.44593292 -1.2546889518 -3.6152250855e-15 -21.298611641 -0.72916668653 -5.894124844e-15 
-3.4461800101 -1.1918130209 -1.7649023976e-15 -11.44593292 -1.2546889518 -3.6152250855e-15 -11.446696068 1.375970647 -3.6154015997e-15 
10.611110687 1.840277791 1.486513515e-15 7.4166679382 0.72916668653 7.4764695742e-16 -27.445438739 -1.3804408136 -7.3158704613e-15 
-27.444450378 -1.6319445372 -7.3156418559e-15 23.416667938 0.72916668653 4.4484066359e-15 23.418165064 1.0387047826 4.4487529174e-15 
0.55369644483 -1.1603750555 -8.3974105367e-16 2.5555496216 -1.3882965423 -3.7671745874e-16 -3.4461800101 -1.1918130209 -1.7649023976e-15 
-4.5833320618 0.72916668653 -2.0279228014e-15 -7.5833320618 1.0338753777 -2.7218152412e-15 -6.5833320618 0.72916668653 -2.4905177613e-15 
-0.58333206177 0.72916668653 -1.1027328818e-15 -4.5833320618 -0.72916668653 -2.0279228014e-15 -6.5833320618 -0.72916668653 -2.4905177613e-15 
-7.5833320618 -0.72916668653 -2.7218152412e-15 -8.0833320618 -1.1341982589 -2.8374639811e-15 -7.0833320618 -0.85635984774 -2.6061665012e-15 
-7.3697539734 -0.93593885659 -2.6724151676e-15 -5.4461182375 -1.2075320036 -2.2274830696e-15 -4.4461491238 -1.1996725123 -1.9961927336e-15 
-2.5833320618 -0.72916668653 -1.5653278416e-15 -4.947022965 -1.0904579237 -2.1120435908e-15 -3.9461645669 -1.1957427666 -1.8805475656e-15 
-4.6668681427 -1.0087746384 -2.0472444864e-15 -3.6975798859 -1.0146881998 -1.8230505553e-15 -3.5833320618 -0.72916668653 -1.7966253215e-15 
-4.0833320618 -0.72916668653 -1.9122740615e-15 -3.1987267837 -0.86680260901 -1.70766709e-15 -2.9461954532 -1.1878832752 -1.6492572296e-15 
-4.3333320618 -0.91152725696 -1.9700984315e-15 -5.5833320618 -0.72916668653 -2.2592202814e-15 -6.0833320618 -0.72916668653 -2.3748690213e-15 
-5.256331051 -0.8942318429 -2.1835857716e-15 -4.938580178 -0.73525791457 -2.1100907955e-15 -6.4460873512 -1.215391495 -2.4587734056e-15 
-5.9461027944 -1.2114617493 -2.3431282376e-15 -6.7693792474 -1.0441636323 -2.5335500064e-15 -7.0857481672 -1.2167192454 -2.6067253403e-15 
-5.6975935985 -1.0208031462 -2.2856486868e-15 -6.3333320618 -0.92108235643 -2.4326933913e-15 0.55369644483 -1.1603750555 -8.3974105367e-16 
-1.4462417826 -1.1760940382 -1.3023217256e-15 -0.44627266889 -1.1682345468 -1.0710313897e-15 0.050630011427 -0.7721952851 -9.5609905194e-16 
-1.0833320618 -0.72916668653 -1.2183816218e-15 -1.5833320618 -0.72916668653 -1.3340303617e-15 -2.0833320618 -0.72916668653 -1.4496791017e-15 
-2.4462108963 -1.1839535296 -1.5336120616e-15 -0.94625722575 -1.1721642925 -1.1866765576e-15 -2.8745465933 -0.8716823135 -1.6326850289e-15 
-1.9462263395 -1.1800237839 -1.4179668936e-15 7.4189136275 1.1934738306 7.4816637968e-16 -0.58071209099 1.2708583546 -1.1021268892e-15 
2.6111106873 1.840277791 -3.6386632427e-16 -3.4470703492 1.298586123 -1.7651083308e-15 0.55274251003 1.259893861 -8.3996169638e-16 
-1.3888893127 1.840277791 -1.2890562439e-15 -7.4468832084 1.337278385 -2.6902549653e-15 -5.4469767788 1.317932254 -2.227681648e-15 
-27.444450378 1.840277791 -7.3156418559e-15 -16.416669846 1.840277791 -4.7649440097e-15 -10.902779579 1.840277791 -3.4895950866e-15 
-11.444450378 -1.6319445372 -3.6148821774e-15 -3.4444503784 -1.6319445372 -1.7645023382e-15 55.138893127 -0.45138889551 1.1805757178e-14 
-60.416667938 0.45138889551 -1.3853694803e-14 -61.111114502 -0.45138889551 -1.4034395729e-14 -61.111114502 -0.45138889551 -1.4034395729e-14 
-60.416667938 0.45138889551 -1.3853694803e-14 -60.416667938 27.083335876 -1.3076701911e-14 -61.111114502 -0.45138889551 -1.4034395729e-14 
-60.416667938 27.083335876 -1.3076701911e-14 -61.111114502 29.861114502 -1.3150021797e-14 -61.111114502 29.861114502 -1.3150021797e-14 
-60.416667938 27.083335876 -1.3076701911e-14 -58.333332062 29.861114502 -1.2532573898e-14 -58.333332062 29.861114502 -1.2532573898e-14 
-60.416667938 27.083335876 -1.3076701911e-14 -58.333332062 27.083335876 -1.2613616198e-14 55.138893127 -0.45138889551 1.1805757178e-14 
55.138893127 0.45138889551 1.1832095917e-14 -60.416667938 0.45138889551 -1.3853694803e-14 50.138889313 -27.083335876 1.0661321645e-14 
49.097225189 -27.083335876 1.0480621565e-14 50.138889313 -29.861114502 1.0661321645e-14 50.138889313 -29.861114502 1.0661321645e-14 
49.097225189 -27.083335876 1.0480621565e-14 48.402778625 -27.083335876 1.0360154184e-14 50.138889313 -29.861114502 1.0661321645e-14 
48.402778625 -27.083335876 1.0360154184e-14 47.361114502 -29.861114502 1.0179454104e-14 47.361114502 -29.861114502 1.0179454104e-14 
48.402778625 -27.083335876 1.0360154184e-14 47.361114502 -27.083335876 1.0179454104e-14 48.402778625 -27.083335876 1.0360154184e-14 
49.097225189 -27.083335876 1.0480621565e-14 48.402778625 -10.277778625 1.0360154184e-14 48.402778625 -10.277778625 1.0360154184e-14 
49.097225189 -27.083335876 1.0480621565e-14 49.097225189 -9.5833339691 1.0480621565e-14 48.402778625 -10.277778625 1.0360154184e-14 
49.097225189 -9.5833339691 1.0480621565e-14 6.4583334923 -9.5833339691 3.0839464228e-15 6.4583334923 -3.2986111641 3.0839464228e-15 
5.7638888359 -3.2986111641 2.9634793721e-15 6.4583334923 -9.5833339691 3.0839464228e-15 6.4583334923 -9.5833339691 3.0839464228e-15 
5.7638888359 -3.2986111641 2.9634793721e-15 5.7638888359 -10.277778625 2.9634793721e-15 6.4583334923 -9.5833339691 3.0839464228e-15 
5.7638888359 -10.277778625 2.9634793721e-15 48.402778625 -10.277778625 1.0360154184e-14 7.5000004768 -3.2986111641 3.2646469988e-15 
7.5000004768 -1.9097223282 3.2646469988e-15 6.4583334923 -3.2986111641 3.0839464228e-15 6.4583334923 -3.2986111641 3.0839464228e-15 
7.5000004768 -1.9097223282 3.2646469988e-15 4.7222223282 -1.9097223282 2.7827788787e-15 6.4583334923 -3.2986111641 3.0839464228e-15 
4.7222223282 -1.9097223282 2.7827788787e-15 5.7638888359 -3.2986111641 2.9634793721e-15 5.7638888359 -3.2986111641 2.9634793721e-15 
4.7222223282 -1.9097223282 2.7827788787e-15 4.7222223282 -3.2986111641 2.7827788787e-15 33.097225189 -9.5833339691 7.7050615644e-15 
21.763888836 -10.277778625 5.7390393731e-15 23.750001907 -27.083335876 4.8186764163e-15 23.750001907 -29.861114502 4.8186764163e-15 
24.791667938 -27.083335876 5.0596102794e-15 24.791667938 -27.083335876 5.0596102794e-15 23.750001907 -29.861114502 4.8186764163e-15 
26.527778625 -29.861114502 5.4611668651e-15 24.791667938 -27.083335876 5.0596102794e-15 26.527778625 -29.861114502 5.4611668651e-15 
25.486112595 -27.083335876 5.2202330019e-15 25.486112595 -27.083335876 5.2202330019e-15 26.527778625 -29.861114502 5.4611668651e-15 
26.527778625 -27.083335876 5.4611668651e-15 24.791667938 -27.083335876 5.0596102794e-15 25.486112595 -27.083335876 5.2202330019e-15 
[...]
CELL_DATA 1711
FIELD FieldData 4
electrode_index 1 1711 int
0 0 0 0 0 0 0 0 0 
0 0 0 0 0 0 0 0 0 
0 0 0 0 0 0 0 0 0 
0 0 0 0 0 0 0 0 0 
0 0 0 0 0 0 0 0 0 
0 0 0 0 0 0 0 0 0 
0 0 0 0 0 0 0 0 0 
0 0 0 0 0 0 0 0 0 
0 0 0 0 0 0 0 0 0 
0 0 0 0 0 0 0 0 0 
0 0 0 0 0 0 0 0 0 
0 0 0 0 0 0 0 0 0 
0 0 0 0 0 0 0 0 0 
0 0 0 0 0 0 0 0 0 
0 0 0 0 0 0 0 0 0 
0 0 0 1 1 1 1 1 1 
2 2 2 2 2 2 2 2 2 
2 2 2 2 2 2 2 3 3 
3 3 3 3 3 3 3 3 3 
3 3 3 3 3 3 3 3 3 
3 3 3 3 3 3 3 3 3 
3 3 3 3 3 3 3 3 3 
3 3 3 3 3 3 3 3 3 
3 3 3 3 3 3 3 3 3 
3 3 3 3 3 3 3 3 3 
3 3 3 3 3 3 3 3 3 
3 3 3 3 3 3 3 3 3 
3 3 3 3 3 3 3 3 3 
3 3 3 3 3 3 3 3 3 
3 3 3 3 3 3 3 3 3 
3 3 3 3 3 3 3 3 3 
3 3 3 3 3 3 3 3 3 
3 3 3 3 3 3 3 3 3 
3 3 3 3 3 3 3 3 3 
3 3 3 3 3 3 3 3 3 
3 3 3 3 3 3 3 3 3 
3 3 3 3 3 3 3 3 3 
3 3 3 3 3 3 3 3 3 
3 3 3 3 3 3 3 3 3 
3 3 3 3 3 3 3 3 3 
3 3 3 3 3 3 3 3 3 
3 3 3 3 3 3 3 3 3 
3 3 3 3 3 3 3 3 3 
3 3 3 3 3 3 3 3 3 
3 3 3 3 3 3 3 3 3 
3 3 3 3 3 3 3 3 3 
3 3 3 3 3 3 3 3 3 
3 3 3 3 3 3 3 3 3 
3 3 3 3 3 3 3 3 3 
3 3 3 3 3 3 3 3 3 
3 3 3 3 3 3 3 3 3 
3 3 3 3 3 3 3 3 3 
3 3 3 3 3 3 3 3 3 
3 3 3 3 3 3 3 3 3 
3 3 3 3 3 3 3 3 3 
3 3 3 3 3 3 3 3 3 
3 3 3 3 3 3 3 3 3 
3 3 3 3 3 3 3 3 3 
3 3 3 3 3 3 3 3 3 
3 3 3 3 3 3 3 3 3 
3 3 3 3 3 3 3 3 3 
3 3 3 3 3 3 3 3 3 
3 3 3 3 3 3 3 3 3 
3 3 3 3 3 3 3 3 3 
3 3 3 3 3 3 3 3 3 
3 3 3 3 3 3 3 3 3 
3 3 3 3 3 3 3 3 3 
3 3 3 3 3 3 3 3 3 
3 3 3 3 3 3 3 3 3 
3 3 3 3 3 3 3 3 3 
3 3 3 3 3 3 3 3 3 
3 3 3 3 3 3 3 3 3 
3 3 3 3 3 3 3 3 3 
3 3 3 3 3 3 3 3 3 
3 3 3 3 3 3 3 3 3 
3 3 3 3 3 3 3 3 3 
3 3 3 3 3 3 3 3 3 
3 3 3 3 3 3 3 3 3 
3 3 3 3 3 3 3 3 3 
3 3 3 3 3 3 3 3 3 
3 3 3 3 3 3 3 3 3 
3 3 3 3 3 3 3 3 3 
3 3 3 3 3 3 3 3 3 
3 3 3 3 3 3 3 3 3 
3 3 3 3 3 3 3 3 3 
3 3 3 3 3 3 3 3 3 
3 3 3 3 3 3 3 3 3 
3 3 3 3 3 3 3 3 3 
3 3 3 3 3 3 3 3 3 
3 3 3 3 3 3 3 3 3 
3 3 3 3 3 3 3 3 3 
3 3 3 3 3 3 3 3 3 
3 3 3 3 3 3 3 3 3 
3 3 3 3 3 3 3 3 3 
3 3 3 3 3 3 3 3 3 
3 3 3 3 3 3 3 3 3 
3 3 3 3 3 3 3 3 3 
3 3 3 3 3 3 3 3 3 
3 3 3 3 3 3 3 3 3 
3 3 3 3 3 3 3 3 3 
3 3 3 3 3 3 3 3 3 
3 3 3 3 3 3 3 3 3 
3 3 3 3 3 3 3 3 3 
3 3 3 3 3 3 3 3 4 
4 4 4 4 4 4 4 4 4 
4 4 4 4 5 5 5 5 5 
5 5 5 5 5 5 5 5 5 
6 6 6 6 6 6 6 6 6 
6 6 6 6 6 7 7 7 7 
7 7 7 7 7 7 7 7 7 
7 7 7 8 8 8 8 8 8 
8 8 8 8 8 8 8 8 8 
8 9 9 9 9 9 9 9 9 
9 9 9 9 9 9 9 9 10 
10 10 10 10 10 10 10 10 10 
10 10 10 10 10 10 11 11 11 
11 11 11 11 11 11 11 11 11 
11 11 11 11 12 12 12 12 12 
12 12 12 12 12 12 12 12 12 
12 12 13 13 13 13 13 13 13 
13 13 13 13 13 13 13 13 13 
14 14 14 14 14 14 14 14 14 
14 14 14 14 14 14 14 14 14 
14 14 14 14 14 14 14 14 14 
14 14 14 14 14 14 14 14 14 
14 14 14 14 14 14 14 14 14 
14 14 14 14 14 14 14 14 14 
14 14 14 14 14 14 14 14 14 
14 14 14 14 14 14 14 14 14 
14 14 14 14 14 14 14 14 14 
14 14 14 14 14 14 14 14 14 
14 14 14 14 14 14 14 14 14 
14 14 14 14 14 14 14 14 14 
14 14 14 14 14 14 14 14 14 
14 14 14 14 14 14 14 14 14 
14 14 14 14 14 14 14 14 14 
14 14 14 14 14 14 14 14 14 
14 14 14 14 14 14 14 14 14 
14 14 14 14 14 14 14 14 14 
14 14 14 14 14 14 14 14 14 
14 14 14 14 14 14 14 14 14 
14 14 14 14 14 14 14 14 14 
14 14 14 14 14 14 14 14 14 
14 14 14 14 14 14 14 14 14 
14 14 14 14 14 14 14 14 14 
14 14 14 14 14 14 14 14 14 
14 14 14 14 14 14 14 14 14 
14 14 14 14 14 14 14 14 14 
14 14 14 14 14 14 14 14 14 
14 14 14 14 14 14 14 14 14 
14 14 14 14 14 14 14 14 14 
14 14 15 15 15 15 15 15 15 
15 15 15 15 15 15 15 15 15 
16 16 16 16 16 16 16 16 16 
16 16 16 16 16 16 16 16 16 
16 16 17 17 17 17 17 17 17 
17 17 17 17 17 17 17 17 17 
17 17 17 17 17 17 17 17 17 
17 17 17 17 17 17 17 17 17 
17 17 17 18 18 18 18 18 18 
18 18 18 18 18 18 18 18 18 
18 18 18 18 18 18 18 18 18 
18 18 18 18 18 18 18 18 18 
18 18 18 18 18 18 18 18 18 
18 18 19 19 19 19 19 19 19 
19 19 19 19 19 19 19 19 19 
19 19 19 19 19 19 19 19 19 
19 19 19 19 19 19 19 19 19 
19 19 19 19 19 19 19 19 19 
19 19 19 19 19 19 19 19 19 
19 19 19 19 19 19 19 19 19 
19 19 19 19 19 19 19 19 19 
19 19 19 19 19 19 19 19 19 
19 19 19 19 19 19 19 19 19 
19 19 19 19 19 19 19 19 19 
19 19 19 19 19 19 19 19 19 
19 19 19 19 19 19 19 19 19 
19 19 19 19 19 19 19 19 19 
19 19 19 19 19 19 20 20 20 
20 20 20 20 20 20 20 20 20 
20 20 20 20 20 20 20 20 20 
20 20 20 20 20 20 20 20 20 
20 20 20 20 20 20 20 20 20 
20 20 20 20 20 20 20 20 20 
20 20 20 20 20 20 20 20 20 
20 20 20 20 20 20 20 20 20 
20 20 20 20 20 20 21 21 21 
21 21 21 21 21 21 21 21 21 
21 21 21 21 22 22 22 22 22 
22 22 22 22 22 22 22 22 22 
22 
area 1 1711 double
1.4467556719 3.8580204234 1.3503127113 1.0609520401 3.7977547033 3.7977547033 0.43885168332 0.47019564926 2.3292812346 
5.5459077196 6.2768623818 6.7847195624 5.7395363843 7.222222805 4.1405663041 0.1362274487 5.7395363843 5.6230296573 
5.6230296573 3.9367756803 0.30908190866 5.5002940616 7.0640441685 5.4992306004 0.92763821667 8.3993432567 9.9984248707 
1.0833833361 6.9207491861 8.8888888359 1.2005350137 4.9526095363 5.2927925569 5.9366793612 6.2768623818 0.20251578617 
4.0240595771 5.7797698811 4.308722732 2.4763626967 5.2201918201 4.2162680984 5.0405550724 2.0120608611 5.623141191 
1.0060304305 0.48729598979 1.2381813483 0.31965309302 0.78424325447 2.0120297885 3.5584003182 0.15132155037 4.8235446172 
0.1119977519 3.341081264 1.7067590947 1.0060304305 2.0120608611 1.2381813484 2.4763626967 0.50276663497 0.97459197958 
1.760526065 0.88026303249 3.0179514652 1.5090223414 0.30470869119 2.3215357201 2.4763047681 1.0833833361 3.7142833665 
0.30470869119 2.1667666721 1.8572285761 0.070828981311 0.072909114918 0.038570403593 0.71110242957 0.18811727807 0.047174889626 
0.063596580602 0.051511278139 0.038110206403 0.047978917473 0.071380378307 0.042567837669 0.044773806396 0.073009349331 0.056573914467 
0.070409233707 0.042567837669 0.049410680439 0.035755007269 0.051427856612 0.046008099188 0.071812417716 0.11101531548 0.080763879263 
0.078907017968 0.068817961238 0.045590142606 0.067073734431 0.057227303352 0.057113007752 0.049410680439 0.055761464994 0.0030456140157 
0.05221711639 0.0669172716 0.057113007752 0.073455106241 0.051511278139 0.056794800407 0.0018498496468 0.054978502663 0.057227303352 
0.07335346231 0.19606081362 0.11369671076 0.023810891967 1.4107644935 0.17211439426 0.11173183792 0.1107494015 0.11003287906 
0.075991223157 0.11298018832 0.07952958647 0.11271427434 0.52288298286 1.1607678601 1.1231504897 1.3867417645 0.52288298286 
3.3296843155 1.280069321 0.93909352229 52.473962547 9.2472320331 10.525206911 3.8580323443 2.8935229337 52.16049708 
1.4467561686 0.96450941062 3.8580217479 1.4467561686 5.8352807422 6.0764080948 9.2496179953 2.1821960844 2.4233227747 
9.249617333 0.72337982279 1.9290125296 0.4822532152 0.72337949166 5.555557251 5.555557251 0.4452544881 1.3751745902 
0.96450676153 0.61381617814 0.327932438 0.34722232819 0.30381326232 0.019297793404 0.10609600868 0.13086768495 0.0052029384603 
0.015929785734 0.013679050461 0.0096450640969 0.08542259244 0.08830200536 0.0033875950452 0.0093909479018 0.0061300184438 0.0070959392038 
0.0072689397296 0.01019043169 0.0069068089456 0.0063127245778 0.007288515361 0.0073793567965 0.0045667762207 0.0037321886495 0.0097351714485 
0.010529327507 0.52371039843 0.020828192627 0.031708318619 0.034786035053 0.020638790847 0.03172325568 0.013059948099 0.0058845722931 
0.03172325568 0.020046644278 0.015895087662 0.015895087662 0.041265073746 0.021076555005 0.013719520199 0.032066396814 0.015256242725 
0.014525331922 0.019245238025 0.039703015483 0.17821694128 0.061060215103 0.26575190069 0.12151135477 0.13055122838 0.28344589386 
0.11860356034 0.038898855389 0.33703769028 0.11695355028 0.007082529411 0.13441336648 0.048611030579 0.052602259733 0.060986998618 
0.13055122838 0.030433833151 0.057038232125 0.02726201411 0.062061716692 0.063825749046 0.063975584209 0.073002927602 0.062837728914 
0.11174427772 0.07557114234 0.061483606928 0.071308234596 0.13086768495 0.071308234596 0.14745608867 0.040145853793 0.031811035999 
0.032699179842 0.034429250276 0.031640413154 0.022221389561 0.041265073746 0.016487261705 0.030586067789 0.017649222839 0.026514667692 
0.03415411914 0.019211849445 0.032805911617 0.034399402438 0.0054337489672 0.026778263463 0.02917367358 0.0415824149 0.037608151876 
0.034786035053 0.055727154683 0.044815210969 0.045328188231 0.028162408231 0.037362698984 0.045374778822 0.022664094115 0.047120516913 
0.039063016038 0.036062547582 0.015602857833 0.01333596823 0.011962591588 0.0080135851221 0.014474160677 0.018044092251 0.025998440574 
0.014645658849 0.021448081171 0.018071763765 0.016487261705 0.017151945981 0.027804034505 0.013236992371 0.023126256446 0.027905792793 
0.026262293395 0.015771069404 0.016332295221 0.024018467768 0.006170585846 0.016332295221 0.012182153275 0.0074217011672 0.0069416716201 
0.015195014701 0.011884644113 0.027865129879 0.018186557292 0.019067547782 0.017318326953 0.0061223541392 0.016187225964 0.0055951326525 
0.0097771450975 0.091181418279 0.10227108088 0.092153439789 0.091717798837 0.0018403099991 0.11805595717 0.10905081327 0.12869038909 
0.094687134489 0.090227125266 0.12107122912 0.14232103672 0.1158590296 0.13460329927 0.10964320793 0.091094671314 0.1299539084 
0.10934549155 0.026543145789 0.0057243516971 0.092528033595 0.11032083388 0.029127932531 0.11181720629 0.18430687958 0.18416015032 
0.15116919202 0.091181418279 0.23252747272 0.023056706784 0.10199274164 0.11805595717 0.12165520273 0.080634259815 0.046073663305 
0.070443910317 0.21216010427 0.27365249442 0.19688457793 0.10741673977 0.2223437885 0.25522545654 0.27326220964 0.27593558492 
0.003366166087 0.0026268435173 0.005989662847 0.0070262777414 0.0031437317842 0.0056844305486 0.0086554799315 0.012270220817 0.0019235234783 
0.0020383864561 0.0019235260409 0.0033875983525 0.011214946326 0.011679970483 0.0037321839787 0.0031437269175 0.0037896203657 0.0019235260409 
0.0067547831734 0.0064011908735 0.005513140654 0.0073401082511 0.0060925123565 0.0071377485083 0.0063179567834 0.0063411041576 0.0076045593165 
0.0080064855483 0.0088467413229 0.0066291283956 0.0069959430447 0.0069068089456 0.0052029384603 0.0087733515253 0.0069332295226 0.0021163356399 
0.004064772763 0.0068006976551 0.0042751757098 0.0025006727055 0.0093549488093 0.030871854645 0.023961656068 0.02278090665 0.017085679987 
0.049975254227 0.023106322752 0.13149319916 0.092141213433 0.012763134982 0.0093301901901 0.13824238929 0.092177898992 0.13149319916 
0.087118820414 0.023056706784 0.057605073287 0.029312395429 0.021949596974 0.015581564704 0.010058078355 0.10504725068 0.078812225648 
0.057605073287 0.069170098446 0.024641019958 0.020947162246 0.010977920587 0.0057243516971 0.010787420981 0.010269667646 0.014587493181 
0.0096201136542 0.0085348675533 0.007916669077 0.024130650927 0.018531043103 0.023181499117 0.029581867726 0.01273412583 0.0093008405502 
0.0091012164192 0.0093202499782 0.014556784249 0.014556784249 0.013679050461 0.014586332354 0.066556917266 0.062286589178 0.060269081906 
0.03460768342 0.0019235234783 0.003366166087 0.0024044043478 0.0024044043478 0.0033661705717 0.0033661705717 0.008806789474 0.012059319304 
0.018012647199 0.015089883987 0.016704261537 0.019579793323 0.023181499117 0.016665533166 0.01423243059 0.0096519418724 0.0014739569549 
0.015124649192 0.008655837953 0.017765003106 0.016382146604 0.0087240454757 0.024070842398 0.021069555011 0.016187225964 0.013663862862 
0.0084680631919 0.012613313919 0.0039451141871 0.0094817302015 0.008283169588 0.0088333901963 0.017706376744 0.011404780615 0.014828848002 
0.01068847056 0.015041277763 0.010426206668 0.0066142694276 0.0063562010783 0.020671357631 0.022101618187 0.004716016146 0.012506587904 
0.004141584794 0.010482169529 0.0045674768398 0.004141584794 0.006075752168 0.0052407063946 0.0063615539446 0.0056423362694 0.0049335091147 
0.0040889485986 0.0050570523033 0.0059983422124 0.012373592559 0.01033709812 0.011422536816 0.016054896606 0.012185870794 0.016565722623 
0.032344005839 0.028349834853 0.014689984532 0.026994730303 0.0064648341076 0.0083892991496 0.010107995688 0.0009418985473 0.0029434367195 
0.0063003340482 0.00094483136299 0.0060371059253 0.0063853424799 0.0060371059253 0.023431787612 0.011773746878 0.029312395429 0.0067604911372 
0.027368167509 0.010937962409 0.02512325906 0.0061972977398 0.019367419771 0.018487112133 0.016487261705 0.016487261705 0.01661934845 
0.025691509912 0.024296375378 0.015762497368 0.018344344795 0.0044420327432 0.023885915981 0.020715713613 0.015586226383 0.020529157254 
0.014180217958 0.01726553378 0.015375144249 0.016546237371 0.019234842865 0.013788514289 0.011152339228 0.015891702512 0.013362166092 
0.013453850866 0.012894487433 0.025243287637 0.012930743921 0.01670932743 0.016302144103 0.014064667531 0.009892142515 0.020056142324 
0.0043776086683 0.0081194864951 0.014382597113 0.017369044542 0.010080711129 0.013247995035 0.0082649975916 0.016970399751 0.0093660104308 
0.012813938036 0.010893310648 0.01095875481 0.011962591588 0.0021275764251 0.0043776086683 0.011818030581 0.0065845513796 0.010857488795 
0.007863368907 0.012958174286 0.0058362572879 0.019098209168 0.010033580093 0.016098627257 0.011168335485 0.011420226366 0.016231166947 
0.013591119409 0.01750332539 0.015000206179 0.015125279026 0.021527587241 0.024287260838 0.020899606425 0.016757941623 0.015235732471 
0.012767741844 0.0093251707665 0.0094862915316 0.018332910584 0.018521954313 0.0027704062491 0.021402235977 0.010893310648 0.0097832631809 
0.0069576555267 0.011651989811 0.016843510661 0.020381980473 0.0206067471 0.0069726273195 0.013896521085 0.021682247603 0.016791252918 
0.026854023094 0.024070431025 0.020562885282 0.030940038162 0.0174679471 0.018060284312 0.014337400105 0.020472867251 0.024926011903 
0.01487829059 0.0074224374635 0.027419310363 0.034799801818 0.014458332549 0.028632528096 0.029130985184 0.012480383494 0.02160731823 
0.0076917085499 0.01629424183 0.0207053828 0.024557758224 0.01447849475 0.0099797423724 0.012071838868 0.040186019447 0.024533915132 
0.034477425628 0.0054650636628 0.015992105449 0.021359966076 0.018991877004 0.020974996327 0.023788181115 0.019960216023 0.022201610608 
0.035045514785 0.024626668062 0.026933809713 0.040555845185 0.010168879545 0.033040784233 0.038671866345 0.023943951418 0.02527095473 
0.024212124981 0.012018041256 0.029685277604 0.038267071323 0.024212124981 0.029913207436 0.0271410098 0.01111865394 0.026382272985 
0.029405104073 0.022198119407 0.016270254301 0.035029136076 0.02887306592 0.035882405135 0.0024441830076 0.0473060092 0.026971300959 
0.026327404231 0.017281001703 0.037917542499 0.026171291642 0.040435418023 0.0066516004351 0.022221389561 0.032118825309 0.024048978158 
0.028766844898 0.019852187986 0.012308668975 0.0053649042091 0.012319687984 0.0044329459138 0.00044411279385 0.016460270469 0.029037323295 
0.029773052109 0.023344124171 0.024774264131 0.025450622974 0.025324286399 0.025134749908 0.025941327326 0.027840041576 0.02512325906 
0.0098616662579 0.013831822797 0.027817378045 0.030763362577 0.01746678876 0.03320481176 0.029127932531 0.012692860301 0.013585214373 
0.029773052109 0.027368167509 0.0087020721121 0.03320481176 0.024066811145 0.022335821087 0.032434416491 0.014569778841 0.027942282373 
0.022449756117 0.033693355236 0.066011764067 0.015502869687 0.026011235007 0.022312439491 0.026011235007 0.038898855389 0.017339037131 
0.023909390908 0.0089147857626 0.051832568604 0.030263172378 0.0057275430106 0.059441071928 0.25289484118 0.13928771055 0.048611030579 
0.074161877541 0.045886295477 0.046018435565 0.046018435565 0.023768012105 0.065421315553 0.042042683566 0.058373780022 0.11872653089 
0.070763450928 0.11074578735 0.099183661331 0.13168065733 0.24538453223 0.3066953886 0.28318961799 0.0095614147049 0.0086037564863 
0.14377349218 0.0057008769123 0.013946515351 0.0057008769123 0.0099068278296 0.048569257212 0.1465057114 0.1243797458 0.10153876463 
0.050258359521 0.010269667646 0.014237781873 0.0088531617638 0.0090843862786 0.010460167252 0.009773003996 0.0095614147049 0.010977920587 
0.011145876048 0.0088531617638 0.012763134982 0.016893349393 0.015581564704 0.12138947757 0.016635454636 0.11889812355 0.01132041137 
0.0056660235288 0.0056660235288 0.008472854995 0.0084729355163 0.0099068278296 0.007082529411 0.0056776592169 0.31989954831 0.327932438 
0.32685400606 0.1278939536 0.062601662742 0.0094559656793 0.074161877541 0.057038232125 0.049842594876 0.061896635384 0.067943479478 
0.059960962112 0.063825749046 0.06861003045 0.1253099767 0.10520571792 0.085010315725 0.1041012393 0.094573430559 0.10745638783 
0.080963087927 0.071370600611 0.068654065823 0.11479044805 0.13773195003 0.078741267692 0.235200848 0.12713992347 0.098427775955 
0.016627993807 0.095247804282 0.11250858189 0.017420831982 0.10170248986 0.14133119559 0.14133119559 0.098379964309 0.098379964309 
0.10790773345 0.028111485778 0.099671343834 0.117600424 0.29362957809 0.11050125963 0.093721587854 0.057615791672 0.12066771417 
0.069263367671 0.11456989157 0.1041012393 0.078549760944 0.068412416901 0.10968076313 0.053896580245 0.11456989157 0.077186368737 
0.072097539237 0.054471121235 0.10468889032 0.10361043911 0.072097539237 0.065430100454 0.1060956378 0.09722164154 0.13726866299 
0.093842421431 0.028513972166 0.086437473499 0.094324754891 0.062725529625 0.064096206167 0.10864018848 0.09795364904 0.11860356034 
0.081778292135 0.062725529625 0.20197642004 0.11250858189 0.25556821646 0.10381016792 0.21985959686 0.092141213433 0.17084518488 
0.085712683678 0.086382387593 0.083166762621 0.089261800513 0.34722137451 0.085094256753 0.24271115695 0.13773195003 0.1278939536 
0.067676055839 0.075788190072 0.063927773969 0.096428123855 0.059378698465 0.31637105861 0.31667032183 0.48767120404 0.48767120404 
0.11311856778 0.10821796074 0.12107122912 0.092141213433 0.17852360103 0.16633352524 0.097233055546 0.329458119 0.1843750066 
0.34527143556 0.16953726991 0.094324754891 0.09795364904 0.01941705035 0.10367804294 0.12165520273 0.17708393576 0.10821796074 
0.32453257936 0.35502158662 0.17821694128 0.27403144339 0.44338990428 0.30488271296 0.022664094115 0.045328188231 0.022664094115 
0.034031084117 1.4769006268 1.00594918 0.33871692178 0.33871692178 0.52371039843 0.046088949496 0.023038359947 0.023044473125 
0.023041416536 0.046070606716 0.023038359947 0.069005020726 0.04563620732 0.080634259815 0.023209710808 0.023209710808 0.72337961583 
1.9290128608 0.48225329798 0.72337994697 7.1252917471 7.3664184375 7.2820241952 0.81983101221 1.0609577026 7.2820241952 
1.4467601423 3.8580257216 0.96450676153 1.4467588177 0.72337994697 0.48225329798 1.9290128608 0.72337961583 6.498362617 
6.7394893074 7.8607276891 1.4467641159 1.6878914686 7.8607283514 1.4467574932 3.8580230725 0.96450941062 1.4467561686 
1.4467614668 3.8580270461 0.96450676153 1.4467588177 2.0736892724 2.3148159628 8.6805586186 5.8714314711 6.1125580787 
8.6805585358 0.24112664899 0.96450643039 0.48225313241 0.24112664899 0.7233797814 0.48225313241 0.9268302285 0.7233797814 
5.2445025563 5.4856285016 9.5003632888 2.7006116473 2.9417370131 9.5003627093 1.4467614668 3.8580270461 0.96450411243 
1.4467614668 0.94190067511 0.060281791598 0.7233797814 0.48225304963 1.9290126124 0.7233797814 4.6175728488 4.8586987527 
4.5235232426 3.3275390554 3.5686644213 4.5235227045 1.4467614668 3.858024397 0.96450411243 1.4467588177 5.5555419922 
5.5555419922 0.24112664899 0.96450626482 0.48225313241 0.24112648342 3.9906443954 4.2317706719 5.3433592169 3.9544664636 
4.1955921606 5.3433586374 1.4467614668 3.8580270461 0.96450411243 1.4467614668 5.5555496216 5.5555496216 1.4467614668 
3.8580270461 0.96450411243 1.4467614668 4.5813938718 4.8225198999 6.4043226845 3.3637163043 3.6048429947 6.4043233468 
0.24112664899 0.96450626482 0.48225329798 0.24112631785 5.555557251 5.555557251 1.4467561686 3.8580217479 0.96450941062 
1.4467561686 5.2083498902 5.4494772428 7.4652807183 2.7367871742 2.9779138646 7.465280056 0.24112598672 0.96450593369 
0.48225329798 0.24112664899 5.555557251 5.555557251 1.4467614668 3.8580270461 0.96450411243 1.4467614668 5.8352486881 