# vtk DataFile Version 5.1
vtk output
ASCII
DATASET STRUCTURED_POINTS
DIMENSIONS 30 30 30
SPACING 0.01 0.01 0.01
ORIGIN 3.555 -0.145 0.855
POINT_DATA 27000
FIELD FieldData 1
potential 1 27000 double
0.0007323126458 0.00073143640986 0.00073056284366 0.0007296919684 0.00072882383734 0.00072795837554 0.00072709559799 0.00072623544098 0.00072537792816 
0.00072452308382 0.00072367084789 0.00072282121864 0.00072197419302 0.0007211297438 0.00072028789308 0.00071944856603 0.00071861179379 0.0007177775788 
0.00071694585848 0.00071611666299 0.00071528995528 0.00071446578646 0.00071364406135 0.00071282481498 0.00071200801646 0.0007111936656 0.00071038176073 
0.00070957227937 0.0007087652191 0.00070796057047 0.00073266767583 0.00073179052369 0.00073091605416 0.00073004428633 0.00072917528636 0.00072830894248 
0.00072744524655 0.00072658425791 0.00072572587093 0.00072487014685 0.00072401705802 0.00072316656326 0.0007223186987 0.00072147338361 0.00072063066183 
0.00071979048687 0.00071895288674 0.00071811783168 0.0007172852923 0.00071645526274 0.00071562775994 0.00071480272708 0.00071398018108 0.00071316010249 
0.0007123424808 0.00071152733795 0.00071071460919 0.00070990431234 0.00070909644283 0.00070829094454 0.00073302423996 0.00073214617112 0.00073127081994 
0.00073039816295 0.00072952826023 0.00072866103945 0.00072779648693 0.0007269345902 0.0007260753615 0.00072521877119 0.00072436480842 0.00072351346548 
0.00072266473207 0.000721818589 0.00072097498821 0.00072013400064 0.0007192955431 0.00071845962781 0.00071762624921 0.00071679539387 0.00071596708101 
0.00071514124363 0.00071431786935 0.00071349695301 0.00071267852667 0.0007118625483 0.00071104901861 0.00071023791147 0.00070942923359 0.00070862295834 
0.00073338235244 0.00073250340798 0.00073162716052 0.00073075364408 0.00072988284852 0.00072901471831 0.00072814931453 0.00072728654528 0.00072642644821 
0.00072556899306 0.00072471416366 0.00072386196793 0.0007230123692 0.00072216537614 0.00072132095243 0.00072047911074 0.00071963981079 0.00071880307762 
0.00071796886022 0.00071713715853 0.00071630799365 0.00071548130835 0.00071465710388 0.00071383540449 0.0007130161649 0.00071219936709 0.00071138501433 
0.00071057310742 0.00070976362558 0.00070895655126 0.00073374210644 0.00073286227471 0.00073198514286 0.00073111076272 0.00073023906079 0.00072937003034 
0.00072850374889 0.0007276401085 0.00072677914443 0.00072592082105 0.00072506515527 0.0007242120945 0.00072336165199 0.00072251379976 0.00072166855364 
0.0007208258606 0.00071998570633 0.00071914810677 0.00071831309036 0.00071748055065 0.00071665052613 0.00071582303719 0.00071499801796 0.00071417548036 
0.00071335541921 0.00071253780764 0.00071172264604 0.00071090994768 0.00071009966474 0.00070929178266 0.00073410350168 0.00073322276664 0.00073234476376 
0.00073146950586 0.00073059694663 0.00072972707416 0.00072885988938 0.00072799538239 0.00072713351905 0.00072627433546 0.00072541778161 0.00072456387604 
0.00072371254715 0.00072286387605 0.00072201776946 0.00072117422782 0.00072033325964 0.0007194948353 0.00071865897368 0.00071782560447 0.00071699475373 
0.00071616641499 0.00071534060065 0.00071451724214 0.000713696357 0.00071287793954 0.00071206198513 0.00071124846016 0.00071043735149 0.00070962866819 
0.0007344665223 0.00073358492106 0.00073270602263 0.0007318299085 0.00073095647012 0.00073008574317 0.00072921767836 0.00072835227765 0.00072748956541 
0.00072662951431 0.00072577211358 0.00072491732521 0.00072406516455 0.00072321562431 0.00072236869185 0.00072152430861 0.00072068250285 0.00071984327721 
0.00071900655739 0.00071817234514 0.00071734067783 0.0007165115133 0.0007156848517 0.00071486071786 0.00071403901774 0.00071321978739 0.00071240298234 
0.00071158864026 0.00071077675819 0.00070996727761 0.00073483127497 0.00073394876576 0.00073306898461 0.00073219198684 0.0007313176707 0.00073044607003 
0.0007295771511 0.00072871090085 0.00072784731912 0.00072698639908 0.00072612814149 0.00072527252524 0.00072441953542 0.0007235691337 0.00072272133453 
0.00072187613503 0.00072103346539 0.00072019339343 0.00071935584324 0.00071852081508 0.00071768833559 0.00071685834482 0.00071603086362 0.00071520587443 
0.00071438338348 0.00071356331728 0.00071274572504 0.00071193057637 0.00071111789473 0.00071030760762 0.00073519770248 0.00073431433116 0.00073343367242 
0.00073255580987 0.0007316806235 0.00073080814347 0.00072993834812 0.00072907122847 0.00072820680827 0.00072734503274 0.00072648590962 0.00072562944865 
0.00072477559258 0.0007239243445 0.00072307570284 0.00072222964796 0.000721386215 0.00072054528449 0.00071970692114 0.0007188710685 0.00071803775127 
0.00071720691452 0.00071637860428 0.00071555279498 0.00071472944245 0.00071390861282 0.00071309021751 0.00071227426279 0.00071146079008 0.00071064970203 
0.0007355659001 0.00073468164954 0.00073380011655 0.00073292137446 0.00073204531292 0.00073117195502 0.00073030129239 0.00072943332897 0.00072856803051 
0.00072770540868 0.00072684543761 0.00072598812573 0.00072513340187 0.00072428130258 0.00072343181235 0.00072258498383 0.00072174066143 0.00072089891782 
0.00072005971493 0.00071922303484 0.00071838889337 0.00071755726843 0.00071672810914 0.00071590148445 0.00071507734276 0.00071425566422 0.00071343647835 
0.00071261972256 0.00071180540672 0.000710993532 0.00073593586703 0.00073505071545 0.00073416833017 0.00073328868401 0.00073241175519 0.00073153748881 
0.00073066600261 0.00072979717497 0.00072893102873 0.00072806753768 0.0007272067485 0.00072634855053 0.00072549299323 0.00072464005174 0.00072378970212 
0.0007229420045 0.00072209686922 0.00072125429661 0.00072041424749 0.00071957675184 0.00071874178766 0.00071790931793 0.00071707937205 0.0007162519271 
0.00071542699395 0.00071460451277 0.00071378451556 0.00071296698708 0.00071215186673 0.0007113391883 0.00073630760618 0.00073542157081 0.00073453829378 
0.00073365775116 0.00073277996638 0.00073190484379 0.00073103249149 0.00073016279558 0.0007292957948 0.00072843144801 0.00072756977735 0.00072671078509 
0.00072585437029 0.00072500058969 0.00072414944032 0.00072330086569 0.00072245489628 0.00072161148259 0.00072077061475 0.00071993229382 0.00071909648175 
0.00071826321725 0.00071743246978 0.00071660420126 0.00071577844951 0.00071495515207 0.00071413433104 0.00071331598314 0.00071250008834 0.00071168660959 
0.0007366811118 0.00073579419391 0.00073491003796 0.00073402860483 0.00073314995688 0.00073227397008 0.00073140074626 0.0007305302038 0.00072966233604 
0.0007287971978 0.00072793465801 0.00072707478053 0.00072621755138 0.00072536290866 0.0007245109321 0.00072366149953 0.00072281470012 0.00072197044702 
0.00072112874943 0.00072028959014 0.00071945298257 0.00071861890623 0.00071778734992 0.00071695826401 0.00071613168381 0.00071530758787 0.0007144859609 
0.00071366681064 0.00071285011577 0.00071203583846 0.00073705640304 0.00073616860379 0.00073528356327 0.00073440126304 0.00073352168257 0.00073264487659 
0.00073177082062 0.0007308994086 0.00073003070535 0.00072916468137 0.00072830132662 0.00072744058289 0.00072658249838 0.0007257270649 0.0007248741997 
0.00072402395361 0.00072317628376 0.00072233119488 0.00072148867191 0.00072064871138 0.00071981129489 0.00071897639702 0.00071814401352 0.0007173141347 
0.00071648674035 0.00071566183361 0.0007148394016 0.00071401944986 0.00071320192731 0.00071238687176 0.00073743347645 0.0007365448031 0.00073565887894 
0.00073477571241 0.00073389525492 0.00073301758349 0.00073214266355 0.00073127040059 0.0007304008561 0.00072953398075 0.00072866976179 0.00072780819176 
0.00072694928384 0.00072609298044 0.0007252392997 0.00072438819916 0.00072353968185 0.00072269379764 0.00072185043561 0.00072100964681 0.0007201714001 
0.00071933569479 0.00071850249716 0.00071767180677 0.00071684360342 0.00071601789578 0.00071519465622 0.0007143739036 0.00071355558947 0.00071273967336 
0.0007378123461 0.00073692280671 0.00073603599437 0.00073515195369 0.0007342706352 0.00073339207911 0.00073251630753 0.00073164322709 0.00073077279395 
0.00072990506624 0.00072903999612 0.00072817758168 0.00072731782702 0.00072646068676 0.00072560617431 0.00072475423593 0.00072390488925 0.00072305819699 
0.00072221401739 0.00072137239516 0.00072053333038 0.00071969679869 0.00071886279947 0.00071803129901 0.00071720228812 0.00071637577319 0.00071555170551 
0.00071473015039 0.00071391102842 0.00071309434976 0.00073819298305 0.00073730258478 0.00073641488292 0.00073552997624 0.00073464780969 0.00073376839032 
0.00073289174275 0.00073201779642 0.00073114654249 0.00073027794287 0.00072941202641 0.00072854879694 0.00072768818898 0.00072683020215 0.00072597481299 
0.00072512208024 0.00072427193724 0.00072342437633 0.00072257938303 0.00072173696213 0.00072089705879 0.00072005971257 0.0007192248903 0.00071839256423 
0.00071756275519 0.00071673542706 0.00071591058407 0.0007150882292 0.00071426830973 0.00071345083561 0.00073857544909 0.00073768414223 0.00073679559435 
0.00073590975895 0.00073502674798 0.000734146467 0.00073326894638 0.00073239414823 0.00073152204431 0.00073065260635 0.00072978585997 0.00072892176081 
0.00072806031415 0.00072720149503 0.00072634528956 0.00072549171754 0.00072464074235 0.00072379235903 0.00072294654741 0.00072210329896 0.00072126258285 
0.00072042440161 0.00071958876839 0.00071875564999 0.00071792503484 0.00071709691396 0.00071627129076 0.00071544811514 0.00071462740363 0.00071380912342 
0.0007389596161 0.00073806744627 0.00073717805334 0.00073629136114 0.00073540748644 0.00073452634491 0.00073364795716 0.00073277227373 0.00073189930769 
0.00073102906091 0.00073016146313 0.00072929653187 0.0007284342217 0.00072757457716 0.00072671755433 0.00072586313909 0.00072501131179 0.0007241621052 
0.00072331548417 0.00072247140207 0.00072162990248 0.00072079093008 0.00071995446527 0.00071912053933 0.00071828911906 0.00071746019298 0.0007166337664 
0.00071580980073 0.00071498828692 0.00071416921635 0.00073934560102 0.00073845251661 0.00073756221598 0.00073667467637 0.00073578993964 0.00073490793929 
0.00073402872549 0.00073315219995 0.0007322783923 0.0007314072846 0.00073053883194 0.00072967302555 0.00072880987981 0.00072794940283 0.00072709154895 
0.0007262363204 0.00072538368005 0.00072453364907 0.00072368621185 0.00072284133848 0.00072199899395 0.00072115921014 0.00072032196254 0.0007194872084 
0.00071865498607 0.0007178252569 0.00071699802567 0.00071617326488 0.00071535095599 0.00071453109027 0.00073973325739 0.00073883932764 0.00073794811074 
0.00073705972861 0.00073617414929 0.00073529131484 0.00073441122724 0.0007335338321 0.00073265918158 0.00073178720841 0.00073091789073 0.00073005129723 
0.00072918734053 0.00072832600417 0.00072746732062 0.00072661126257 0.00072575781323 0.00072490693496 0.00072405869317 0.00072321299472 0.00072236983717 
0.00072152925594 0.0007206911957 0.00071985565755 0.00071902261293 0.00071819207346 0.00071736405305 0.00071653848458 0.00071571538731 0.00071489474128 
0.00074012265156 0.00073922781747 0.00073833572987 0.000737446489 0.00073656003226 0.00073567635634 0.00073479542473 0.00073391722225 0.00073304170052 
0.00073216886689 0.00073129872472 0.00073043128326 0.00072956650283 0.00072870436464 0.00072784485238 0.00072698796871 0.00072613367357 0.00072528198923 
0.00072443291787 0.00072358640901 0.00072274246661 0.00072190104436 0.00072106217725 0.00072022583463 0.00071939199527 0.00071856064375 0.0007177318383 
0.00071690546747 0.00071608157114 0.00071526012925 0.00074051374325 0.00073961798096 0.00073872506691 0.00073783496885 0.00073694768321 0.00073606311485 
0.00073518136453 0.00073430229065 0.0007334258962 0.00073255223555 0.00073168126773 0.00073081297764 0.0007299473782 0.00072908440778 0.00072822407669 
0.00072736635943 0.00072651127211 0.00072565876809 0.00072480888062 0.00072396152844 0.00072311676468 0.00072227456212 0.00072143487011 0.00072059772341 
0.00071976308222 0.00071893098775 0.00071810133464 0.0007172741524 0.00071644946993 0.00071562722998 0.00074090648424 0.00074000987244 0.00073911611479 
0.00073822512696 0.00073733697604 0.00073645155485 0.00073556894845 0.00073468900602 0.00073381179642 0.00073293729577 0.00073206547738 0.00073119636601 
0.00073032991199 0.00072946614162 0.00072860498526 0.0007277464449 0.00072689053371 0.00072603721258 0.00072518649633 0.00072433837148 0.00072349279779 
0.00072264976473 0.00072180930331 0.00072097131968 0.00072013588471 0.0007193029863 0.00071847255152 0.00071764456006 0.00071681907062 0.00071599605294 
0.00074130086496 0.00074040338789 0.00073950876045 0.00073861691254 0.00073772791478 0.00073684166069 0.0007359581414 0.00073507737741 0.00073419934383 
0.00073332400471 0.00073245135189 0.0007315814103 0.00073071412675 0.000729849513 0.00072898754551 0.0007281281835 0.00072727145279 0.00072641731589 
0.00072556578726 0.00072471687169 0.00072387047773 0.00072302665548 0.00072218538 0.00072134662917 0.00072051034771 0.00071967665309 0.00071884542331 
0.00071801664991 0.00071719032958 0.00071636652382 0.00074169678144 0.00074079849778 0.00073990301465 0.00073901032668 0.00073812047684 0.00073723332678 
0.00073634898887 0.00073546738353 0.00073458849196 0.00073371233386 0.0007328388425 0.00073196805612 0.0007310999577 0.00073023450744 0.00072937171636 
0.00072851154602 0.00072765399947 0.00072679905524 0.0007259467147 0.00072509698705 0.0007242497944 0.00072340515233 0.00072256306877 0.00072172352752 
0.00072088646807 0.00072005197732 0.00071921989617 0.00071839034616 0.00071756327517 0.00071673866048 0.00074209431994 0.00074119517445 0.00074029883333 
0.00073940531339 0.00073851454889 0.0007376265994 0.00073674141446 0.00073585896555 0.00073497923561 0.00073410222064 0.00073322791538 0.00073235629961 
0.00073148736115 0.00073062109846 0.00072975747049 0.00072889651744 0.00072803814458 0.00072718238368 0.00072632923272 0.0007254786901 0.00072463069575 
0.00072378526186 0.00072294235569 0.00072210198042 0.00072126416447 0.0007204288448 0.00071959601658 0.00071876568703 0.00071793778839 0.00071711238306 
0.00074249339364 0.00074159338465 0.00074069620677 0.00073980180875 0.00073891019673 0.00073802140101 0.00073713536261 0.00073625207389 0.00073537150737 
0.00073449367121 0.00073361851382 0.00073274608855 0.0007318763324 0.00073100924722 0.00073014479973 0.00072928301042 0.00072842383581 0.0007275672554 
0.00072671329923 0.00072586195456 0.00072501315255 0.00072416687434 0.00072332317696 0.00072248201934 0.00072164344605 0.00072080730425 0.00071997366372 
0.00071914255069 0.0007183139025 0.00071748774224 0.00074289391604 0.00074199308729 0.00074109505694 0.00074019978922 0.00073930734199 0.00073841768861 
0.00073753081681 0.00073664669 0.00073576528842 0.00073488660677 0.00073401063349 0.00073313736423 0.00073226680244 0.00073139888838 0.00073053363392 
0.00072967101043 0.00072881101918 0.00072795364556 0.00072709886409 0.00072624668132 0.00072539707963 0.00072455003902 0.00072370555554 0.0007228635875 
0.00072202419105 0.00072118729737 0.00072035290355 0.00071952097028 0.00071869154265 0.00071786459167 0.00074329592578 0.00074239422614 0.00074149531096 
0.00074059922154 0.00073970594149 0.00073881543785 0.0007379277179 0.00073704275483 0.00073616052754 0.00073528102044 0.00073440421098 0.00073353011993 
0.00073265871224 0.00073178998855 0.00073092388985 0.00073006047712 0.00072919967601 0.00072834146108 0.00072748588685 0.00072663293382 0.00072578252133 
0.00072493466038 0.00072408937977 0.00072324663997 0.0007224064582 0.00072156877603 0.0007207335938 0.00071990087331 0.00071907066052 0.00071824289221 
0.00074014662816 0.00073926208486 0.00073838020602 0.00073750110267 0.00073662469444 0.00073575097112 0.0007348799661 0.00073401162731 0.00073314599829 
0.00073228300984 0.00073142267462 0.00073056495224 0.00072970987172 0.00072885738603 0.00072800749234 0.00072716019122 0.00072631546665 0.0007254732966 
0.00072463367718 0.00072379657987 0.0007229620324 0.0007221299624 0.00072130040582 0.0007204733502 0.00071964876522 0.00071882663683 0.00071800700589 
0.00071718981616 0.00071637503193 0.0007155626554 0.00074050682936 0.00073962134141 0.00073873859504 0.00073785859661 0.00073698125052 0.00073610664714 
0.00073523477544 0.00073436554809 0.00073349903805 0.00073263517083 0.00073177395108 0.00073091538173 0.0007300594149 0.0007292060693 0.00072835531466 
0.00072750715472 0.00072666156024 0.00072581855001 0.00072497806885 0.00072414015074 0.00072330474673 0.00072247184886 0.00072164147956 0.00072081359121 
0.00071998816524 0.00071916522425 0.00071834474554 0.0007175267361 0.00071671114888 0.00071589799756 0.00074086850724 0.0007399821083 0.00073909847519 
0.00073821758185 0.0007373393556 0.00073646385749 0.00073559109813 0.00073472098511 0.00073385359612 0.00073298885197 0.00073212675764 0.0007312673097 
0.00073041049794 0.00072955627181 0.00072870466217 0.00072785564666 0.00072700919912 0.00072616534092 0.00072532402183 0.00072448527325 0.00072364901116 
0.0007228152591 0.00072198402619 0.00072115532622 0.00072032908402 0.00071950531658 0.00071868401594 0.00071786518741 0.00071704878722 0.00071623482142 
0.00074123179033 0.00074034450295 0.00073945992201 0.0007385780873 0.00073769897622 0.00073682259435 0.00073594891924 0.00073507795849 0.00073420968608 
0.00073334406584 0.00073248109962 0.00073162079969 0.00073076312347 0.00072990804558 0.00072905556857 0.00072820569541 0.00072735840786 0.0007265136778 
0.00072567151057 0.00072483190488 0.00072399479975 0.00072316022915 0.0007223281702 0.00072149861116 0.00072067154961 0.00071984695725 0.0007190248345 
0.00071820519947 0.00071738798706 0.00071657320708 0.00074159660239 0.0007407083964 0.00073982293689 0.00073894021613 0.00073806022803 0.00073718295867 
0.00073630837034 0.00073543653803 0.0007345673747 0.00073370088064 0.00073283703889 0.00073197586058 0.00073111731253 0.00073026138624 0.00072940803269 
0.00072855731721 0.00072770916385 0.00072686358582 0.00072602060426 0.00072518012553 0.000724342202 0.00072350679582 0.00072267390421 0.00072184351539 
0.00072101562639 0.00072019020721 0.0007193672672 0.00071854679355 0.00071772876538 0.00071691317197 0.00074196298428 0.00074107389189 0.00074018749336 
0.00073930393347 0.00073842306465 0.00073754489508 0.00073666943884 0.00073579672546 0.00073492668824 0.0007340592952 0.00073319456105 0.0007323325105 
0.00073147308986 0.00073061629213 0.00072976212378 0.00072891055648 0.00072806156316 0.00072721516224 0.00072637130413 0.00072552997263 0.00072469120187 
0.00072385498254 0.00072302125888 0.00072219003796 0.00072136132629 0.00072053508656 0.0007197113211 0.00071889003026 0.00071807120551 0.00071725478369 
0.00074233100361 0.00074144095842 0.00074055371398 0.00073966925937 0.00073878750332 0.00073790845412 0.0007370321016 0.00073615849278 0.00073528757225 
0.00073441933351 0.00073355375994 0.00073269084719 0.0007318305545 0.00073097290932 0.0007301178524 0.0007292654315 0.00072841558624 0.00072756835735 
0.00072672364506 0.00072588148348 0.00072504186763 0.00072420478924 0.00072337025704 0.00072253821382 0.0007217086727 0.00072088162871 0.00072005704366 
0.00071923493479 0.00071841525598 0.00071759804439 0.00074270062166 0.00074180970301 0.00074092157977 0.00074003621524 0.00073915357075 0.00073827362288 
0.0007373964525 0.0007365219465 0.00073565013873 0.00073478102913 0.0007339145979 0.00073305080103 0.0007321896579 0.00073133116013 0.00073047527723 
0.00072962199437 0.00072877134485 0.00072792323834 0.00072707769268 0.0007262346485 0.00072539419716 0.00072455629001 0.00072372092634 0.00072288807699 
0.0007220577112 0.0007212298299 0.00072040440223 0.00071958148254 0.00071876102067 0.00071794299789 0.00074307193064 0.0007421801359 0.00074129111778 
0.00074040484674 0.00073952133019 0.00073864049733 0.00073776244714 0.00073688709546 0.00073601440131 0.00073514439062 0.00073427709581 0.00073341244604 
0.00073255044337 0.00073169108917 0.00073083435425 0.00072998025359 0.00072912871364 0.00072827976959 0.00072743338329 0.00072658956246 0.00072574827878 
0.00072490953054 0.0007240733245 0.00072323962171 0.00072240844952 0.00072157970688 0.00072075348293 0.00071992975818 0.00071910845894 0.00071828961907 
0.0007434449382 0.00074255225608 0.00074166234374 0.00074077518311 0.00073989078019 0.0007390090757 0.00073813012917 0.00073725390779 0.00073638036023 
0.00073550948073 0.00073464130168 0.00073377579022 0.00073291294644 0.00073205271966 0.00073119513381 0.0007303401712 0.00072948779495 0.00072863802805 
0.00072779080243 0.000726946128 0.00072610402355 0.00072526442121 0.00072442737938 0.00072359283129 0.00072276083269 0.00072193135219 0.00072110431022 
0.00072027974771 0.00071945764426 0.00071863798806 0.00074381964114 0.00074292606892 0.00074203527759 0.0007411472285 0.00074026192497 0.0007393793483 
0.00073849952905 0.00073762241981 0.00073674799222 0.0007358762783 0.00073500722112 0.00073414086675 0.00073327712904 0.00073241606512 0.00073155764169 
0.00073070183709 0.00072984861619 0.00072899797168 0.00072814993355 0.00072730442242 0.00072646148025 0.0007256210791 0.00072478317044 0.00072394782672 
0.00072311499933 0.0007222846513 0.00072145681845 0.00072063145091 0.00071980853579 0.00071898807335 0.00074419606759 0.00074330158695 0.00074240990489 
0.0007415209781 0.00074063475599 0.00073975134174 0.00073887064036 0.00073799266353 0.00073711738905 0.00073624482162 0.00073537490619 0.00073450766738 
0.0007336431083 0.00073278118748 0.00073192188351 0.00073106522882 0.0007302111543 0.00072935967647 0.0007285107816 0.00072766444855 0.00072682067253 
0.0007259794243 0.00072514073194 0.00072430454433 0.00072347088255 0.00072263972456 0.00072181105028 0.0007209848964 0.00072016117038 0.00071933989953 
0.00074457421813 0.00074367887057 0.000742786262 0.00074189645221 0.00074100935824 0.00074012503598 0.00073924347899 0.0007383646377 0.00073748849547 
0.0007366150565 0.00073574432598 0.00073487622135 0.00073401077303 0.0007331480311 0.00073228785764 0.00073143034847 0.00073057542972 0.00072972311442 
0.00072887338462 0.00072802620522 0.00072718160377 0.00072633953582 0.00072550001459 0.0007246630053 0.00072382852364 0.00072299654777 0.0007221670758 
0.00072134009533 0.00072051555771 0.00071969347934 0.00074495412928 0.0007440578556 0.00074316435917 0.00074227364755 0.00074138567537 0.00074050048454 
0.00073961807549 0.00073873834384 0.00073786134145 0.00073698705181 0.00073611544985 0.00073524651682 0.00073438024771 0.00073351659415 0.00073265559318 
0.00073179722045 0.00073094145279 0.00073008830204 0.00072923768684 0.00072838970732 0.0007275442713 0.0007267013972 0.0007258610516 0.00072502322504 
0.0007241879202 0.00072335512718 0.00072252484024 0.00072169702272 0.00072087170323 0.0007200487912 0.00074533573948 0.00074443857472 0.00074354418572 
0.00074265259067 0.0007417637263 0.00074087767687 0.00073999440065 0.00073911379987 0.0007382359256 0.00073736080079 0.00073648832076 0.00073561855299 
0.00073475141923 0.0007338869217 0.00073302505439 0.00073216583866 0.00073130924372 0.00073045521999 0.00072960380728 0.00072875498502 0.00072790872044 
0.00072706500951 0.0007262238516 0.00072538520454 0.00072454908542 0.00072371546377 0.00072288433947 0.00072205571119 0.00072122955589 0.0007204058902 
0.00074571907803 0.0007448210236 0.0007439257424 0.00074303323492 0.00074214354336 0.00074125659586 0.00074037244919 0.00073949100979 0.00073861228329 
0.00073773627013 0.00073686293207 0.00073599230376 0.00073512431718 0.00073425896521 0.00073339627353 0.00073253621045 0.00073167876201 0.00073082392948 
0.00072997166234 0.00072912200068 0.00072827491643 0.00072743038002 0.00072658838991 0.00072574894219 0.00072491196998 0.00072407754342 0.00072324563114 
0.00072241619265 0.00072158922958 0.00072076472807 0.00074610414813 0.00074520519325 0.00074430904602 0.00074341564927 0.00074252507626 0.00074163725857 
0.00074075223758 0.00073986993132 0.00073899036577 0.00073811347441 0.0007372392951 0.00073636778635 0.00073549894982 0.00073463278875 0.00073376923827 
0.00073290831311 0.00073205003495 0.00073119436725 0.00073034127967 0.00072949077651 0.0007286428391 0.00072779747862 0.00072695466554 0.00072611438814 
0.00072527663702 0.00072444139652 0.00072360867501 0.00072277842544 0.00072195064392 0.00072112535237 0.00074649094122 0.0007455911023 0.00074469404661 
0.00074379979604 0.00074290835503 0.0007420196652 0.00074113374497 0.00074025056633 0.00073937014857 0.00073849242491 0.00073761738303 0.00073674502273 
0.00073587534574 0.00073500832416 0.00073414391664 0.00073328216354 0.00073242306769 0.00073156651596 0.00073071260204 0.00072986129136 0.00072901253367 
0.00072816635016 0.00072732271664 0.00072648162134 0.00072564304417 0.00072480699067 0.00072397347073 0.00072314241627 0.00072231383358 0.00072148772847 
0.00074687945653 0.00074597871351 0.00074508077186 0.00074418568261 0.00074329332025 0.00074240376002 0.00074151697282 0.00074063296242 0.00073975165633 
0.00073887308941 0.00073799719503 0.00073712398394 0.00073625345128 0.00073538553338 0.00073452031723 0.00073365773259 0.00073279776523 0.00073194045294 
0.00073108567932 0.00073023353223 0.00072938397622 0.00072853695837 0.00072769250545 0.00072685059327 0.00072601121013 0.00072517433986 0.00072434000065 
0.00072350813551 0.00072267875602 0.00072185184782 0.00074726965925 0.00074636802962 0.00074546918654 0.00074457321844 0.0007436800333 0.00074278960414 
0.00074190195144 0.00074101707896 0.00074013486701 0.00073925544092 0.00073837868542 0.00073750462487 0.00073663321878 0.00073576450939 0.00073489845204 
0.00073403502743 0.00073317424229 0.0007323160856 0.00073146050812 0.00073060750904 0.00072975712488 0.00072890930541 0.00072806402156 0.00072722129357 
0.00072638109706 0.00072554343387 0.0007247082553 0.00072387557965 0.00072304540987 0.0007222176926 0.00074766154698 0.00074675895563 0.00074585927829 
0.00074496241813 0.00074406838088 0.00074317708334 0.00074228859345 0.00074140286364 0.00074051981121 0.00073963949392 0.00073876192218 0.00073788695723 
0.00073701473211 0.00073614517937 0.00073527828297 0.00073441402185 0.00073355240363 0.00073269343066 0.00073183701249 0.00073098321435 0.00073013197556 
0.00072928333889 0.0007284372593 0.00072759369533 0.00072675269105 0.00072591421848 0.00072507823148 0.00072424475033 0.0007234137713 0.00072258525826 
0.00074805507119 0.00074715162077 0.00074625104639 0.00074535331378 0.00074445839882 0.00074356625348 0.0007426769147 0.00074179030243 0.00074090639365 
0.00074002522371 0.00073914673928 0.00073827101902 0.00073739795232 0.00073652755612 0.00073565979675 0.00073479469965 0.00073393224886 0.00073307245073 
0.00073221520562 0.00073136058298 0.00073050851754 0.00072965906166 0.0007288121653 0.00072796780807 0.00072712597625 0.00072628669871 0.00072544991002 
0.00072461562898 0.00072378382658 0.00072295449072 0.00074845023845 0.00074754593673 0.00074664447112 0.00074574586741 0.00074485006879 0.00074395704802 
0.0007430668785 0.00074217939579 0.00074129464418 0.00074041258293 0.00073953327819 0.00073865671281 0.00073778280408 0.00073691156857 0.00073604299868 
0.0007351770713 0.00073431378946 0.00073345313317 0.00073259507763 0.00073173961927 0.00073088676136 0.00073003644988 0.00072918874034 0.00072834357977 
0.00072750095288 0.00072666084048 0.00072582324157 0.00072498814677 0.00072415556023 0.00072332544103 0.00074884698574 0.00074794184945 0.00074703952055 
0.00074614003179 0.0007452433649 0.00074434952161 0.0007434584521 0.00074257011319 0.00074168448129 0.00074080159706 0.0007399214457 0.00073904400253 
0.00073816929156 0.00073729721813 0.00073642781342 0.00073556105846 0.00073469693834 0.00073383548052 0.00073297659969 0.00073212033269 0.00073126662087 
0.00073041552141 0.00072956697319 0.00072872100138 0.0007278775521 0.00072703666706 0.00072619824249 0.00072536234319 0.00072452894273 0.00072369803787 
0.00074924535437 0.00074833934263 0.00074743614225 0.00074653579761 0.00074563827436 0.00074474354255 0.00074385160162 0.00074296239903 0.000742075943 
0.00074119221445 0.00074031121795 0.00073943293265 0.0007385573404 0.0007376844684 0.00073681422653 0.00073594664474 0.00073508169556 0.00073421937379 
0.00073335971071 0.00073250262382 0.00073164813293 0.00073079620668 0.00072994684416 0.00072910003019 0.0007282558076 0.00072741408697 0.00072657488022 
0.00072573816256 0.0007249039616 0.00072407225939 0.00074964526265 0.00074873838642 0.00074783431838 0.0007469331281 0.00074603474208 0.00074513914399 
0.00074424631344 0.00074335626638 0.00074246897524 0.00074158439528 0.00074070255493 0.0007398234291 0.00073894699913 0.00073807327985 0.00073720221846 
0.00073633380676 0.00073546803169 0.00073460488622 0.00073374440604 0.00073288650752 0.00073203119691 0.0007311784647 0.00073032829522 0.00072948069549 
0.00072863564435 0.00072779308903 0.00072695309387 0.00072611559333 0.00072528054413 0.00072444804637 0.00075004669865 0.00074913893936 0.0007482340606 
0.00074733195352 0.0007464327299 0.00074553623477 0.00074464256528 0.00074375166053 0.00074286351947 0.0007419781097 0.0007410954273 0.00074021546205 
0.00073933819676 0.00073846362172 0.00073759175235 0.0007367225131 0.00073585591603 0.0007349919553 0.00073413065249 0.00073327192619 0.00073241580102 
0.00073156226027 0.00073071128239 0.0007298628634 0.00072901701406 0.00072817364871 0.00072733284643 0.00072649452092 0.00072565873202 0.00072482541841 
0.00075044961989 0.00074954100746 0.00074863524107 0.00074773227181 0.00074683215178 0.00074593483919 0.0007450403065 0.00074414856217 0.00074325957399 
0.00074237330575 0.00074148980256 0.00074060899298 0.00073973089495 0.00073885548791 0.00073798277556 0.00073711273606 0.0007362453121 0.00073538051961 
0.00073451839911 0.00073365886108 0.0007328019227 0.00073194757114 0.00073109578075 0.00073024653419 0.00072939987317 0.00072855573426 0.00072771413662 
0.00072687503933 0.00072603843764 0.00072520427463 0.00075085396624 0.00074994449441 0.00074903786637 0.00074813402852 0.00074723307175 0.00074633489248 