# vtk DataFile Version 5.1
vtk output
ASCII
DATASET STRUCTURED_POINTS
DIMENSIONS 30 30 30
SPACING 0.01 0.01 0.01
ORIGIN 3.555 -0.145 0.855
POINT_DATA 27000
FIELD FieldData 1
potential 1 27000 double
0.37245683415 0.37245083253 0.37244489978 0.37243905461 0.37243332856 0.37242770957 0.37242216776 0.3724166792 0.37241142493 
0.37240623468 0.37240114383 0.37239617146 0.37239129238 0.37238656453 0.37238195914 0.37237747937 0.37237314767 0.37236897013 
0.37236494246 0.37236102682 0.37235729134 0.37235374565 0.37235028475 0.3723469658 0.37234381652 0.37234082666 0.37233797339 
0.3723353053 0.37233271654 0.37233037943 0.37319937678 0.37319339987 0.37318751272 0.37318175304 0.37317603072 0.37317045354 
0.37316490567 0.37315950263 0.37315429372 0.37314913024 0.37314409259 0.37313914792 0.37313433285 0.37312963003 0.37312504726 
0.37312063148 0.37311630119 0.37311215873 0.37310820057 0.37310432032 0.37310068562 0.37309710675 0.37309368007 0.3730904065 
0.37308727107 0.37308432627 0.37308149191 0.37307885269 0.37307636785 0.37307397128 0.37389020317 0.37388424875 0.3738784145 
0.37387269895 0.37386700536 0.37386146909 0.37385597332 0.37385068273 0.37384544877 0.37384032547 0.37383531441 0.37383042208 
0.37382566796 0.37382099286 0.37381647544 0.37381201981 0.37380776139 0.37380364 0.37379965215 0.37379587411 0.37379228815 
0.37378875594 0.37378536191 0.37378211806 0.37377902032 0.37377608554 0.37377329008 0.37377067972 0.37376822096 0.37376592323 
0.37452899256 0.37452307261 0.37451736054 0.37451165111 0.37450596171 0.37450043902 0.37449501324 0.37448976449 0.37448457065 
0.37447948712 0.37447450285 0.37446966179 0.37446496628 0.37446032743 0.37445584039 0.37445140949 0.37444718656 0.37444311281 
0.37443916049 0.37443547023 0.37443184847 0.37442833684 0.37442497023 0.37442177567 0.37441870236 0.37441580608 0.374413063 
0.37441045743 0.37440802641 0.37440575979 0.37511545875 0.37510963627 0.37510390032 0.37509825139 0.37509261569 0.37508710042 
0.37508171346 0.37507650609 0.37507135192 0.37506629405 0.37506137174 0.37505659619 0.37505191324 0.37504732074 0.37504282233 
0.37503848198 0.37503428847 0.37503022777 0.37502637519 0.37502263244 0.37501903081 0.37501559073 0.37501226173 0.37500907561 
0.37500604128 0.37500317522 0.37500046257 0.37499790351 0.37499548628 0.37499324406 0.37564933429 0.37564353336 0.37563785269 
0.37563216359 0.37562665732 0.37562119856 0.37561583532 0.37561066921 0.37560553318 0.3756005266 0.37559565091 0.37559089541 
0.3755862311 0.37558165226 0.37557722709 0.37557294498 0.37556876749 0.37556474547 0.37556092331 0.37555721321 0.37555364579 
0.37555019724 0.37554693382 0.37554378613 0.37554079224 0.3755379464 0.37553527234 0.37553272717 0.37553031663 0.37552811119 
0.37613039448 0.3761246334 0.37611892199 0.37611330417 0.37610783714 0.37610245374 0.37609717175 0.37609196346 0.37608687271 
0.37608192184 0.37607706657 0.3760723403 0.3760677165 0.37606317585 0.37605878123 0.37605453456 0.37605039052 0.3760464653 
0.37604262406 0.37603893682 0.3760353776 0.37603198153 0.37602871498 0.3760256492 0.37602268534 0.37601986958 0.3760171939 
0.37601470153 0.37601231205 0.37601013432 0.3765583305 0.37655259681 0.37654695251 0.37654137365 0.37653594514 0.37653059949 
0.37652539834 0.37652020238 0.37651516747 0.37651022249 0.37650540414 0.37650071804 0.37649609199 0.37649163033 0.37648727263 
0.37648305709 0.37647893243 0.37647504604 0.37647123644 0.37646759342 0.37646405975 0.37646070155 0.37645746596 0.37645438104 
0.37645148992 0.37644868194 0.37644605603 0.37644359098 0.37644122754 0.37643907445 0.37693298968 0.37692732602 0.37692176247 
0.37691618294 0.37691078219 0.37690548344 0.37690030755 0.37689517796 0.37689017711 0.37688526988 0.37688048957 0.37687578065 
0.37687123075 0.37686680501 0.37686248146 0.37685828262 0.3768542736 0.3768503623 0.37684659332 0.37684297806 0.37683948158 
0.37683611566 0.37683293433 0.37682987762 0.37682694945 0.37682423751 0.37682164086 0.37681920275 0.37681689197 0.3768147647 
0.37725423789 0.37724860896 0.37724309878 0.37723755712 0.37723219268 0.37722691647 0.37722180068 0.37721673929 0.37721173492 
0.37720687132 0.37720213244 0.37719745787 0.37719292747 0.37718853407 0.3771842634 0.3771801408 0.37717612283 0.3771722325 
0.37716849059 0.37716490733 0.37716144168 0.37715812013 0.37715493838 0.37715191108 0.37714903393 0.377146304 0.37714377903 
0.37714136585 0.37713910015 0.37713696844 0.37752191994 0.37751631351 0.37751079104 0.37750536393 0.37750000594 0.37749487579 
0.3774897004 0.37748467525 0.37747973919 0.37747487769 0.37747014443 0.37746553168 0.3774610475 0.37745668336 0.377452443 
0.37744836447 0.37744436523 0.3774405025 0.37743681293 0.37743323746 0.37742980229 0.37742648723 0.37742336477 0.37742035977 
0.37741752562 0.37741483065 0.37741230571 0.37740992511 0.37740769141 0.37740558818 0.37773591951 0.37773034843 0.37772484833 
0.37771949169 0.37771415984 0.37770905223 0.37770391133 0.37769891402 0.37769401909 0.37768919194 0.37768446814 0.37767993187 
0.37767546693 0.37767114441 0.37766698505 0.37766289986 0.37765890629 0.3776550587 0.3776514158 0.37764787015 0.37764444039 
0.37764117768 0.3776380616 0.37763510818 0.37763231082 0.37762962399 0.37762710858 0.37762471678 0.37762255825 0.37762049208 
0.37789609921 0.37789056263 0.37788509834 0.37787974661 0.37787445957 0.37786940491 0.37786428911 0.37785932614 0.37785447113 
0.37784970055 0.37784501677 0.37784048637 0.37783607494 0.377831768 0.37782764475 0.37782358132 0.37781961505 0.37781582772 
0.37781217492 0.37780864791 0.37780527144 0.3778020393 0.37779897284 0.37779603591 0.37779323685 0.37779059337 0.3777881049 
0.37778573815 0.37778360569 0.37778156454 0.37800240745 0.37799690438 0.37799145967 0.37798615635 0.3779810114 0.37797585449 
0.37797080581 0.37796587084 0.37796100862 0.37795630783 0.37795170014 0.37794716231 0.37794277787 0.37793857579 0.37793440934 
0.37793039263 0.37792646473 0.37792265784 0.37791903463 0.37791554979 0.3779122152 0.37790901331 0.37790595235 0.37790303744 
0.37790029299 0.37789767147 0.37789520959 0.3778928676 0.37789070969 0.37788872341 0.37805480047 0.37804932139 0.37804392092 
0.3780386381 0.37803351844 0.37802839119 0.37802338376 0.37801848465 0.37801366023 0.378008991 0.37800440985 0.37799994246 
0.37799560625 0.37799138074 0.37798726288 0.37798325639 0.37797937701 0.37797559359 0.37797198478 0.37796852773 0.37796520865 
0.37796204439 0.37795901051 0.37795612223 0.37795340385 0.37795081259 0.37794837323 0.37794605555 0.37794390954 0.37794188814 
0.37805324232 0.37804774744 0.3780424257 0.37803716537 0.37803208792 0.37802702742 0.37802198723 0.37801710794 0.37801235386 
0.37800771503 0.37800316353 0.37799872644 0.3779944195 0.37799021869 0.37798613648 0.37798215338 0.37797829044 0.37797455635 
0.37797101876 0.37796754443 0.37796425327 0.37796110297 0.37795810884 0.37795524687 0.37795255426 0.37794998791 0.37794755698 
0.37794526064 0.37794311778 0.37794116894 0.37799772198 0.37799227851 0.37798697248 0.37798175149 0.37797671045 0.37797168034 
0.37796666473 0.37796179649 0.37795710162 0.37795248352 0.37794796174 0.37794360561 0.37793931155 0.37793509489 0.37793100745 
0.37792709551 0.37792330005 0.37791957697 0.37791604331 0.37791261227 0.37790933139 0.37790620749 0.37790322631 0.37790038255 
0.377897693 0.37789517364 0.37789278569 0.37789048479 0.37788839721 0.37788647162 0.37788824284 0.37788287079 0.37787759548 
0.37787250851 0.37786739998 0.37786239948 0.37785744987 0.37785255944 0.37784788996 0.37784332129 0.37783885678 0.37783447846 
0.37783021303 0.37782605283 0.37782200382 0.37781810308 0.37781433504 0.37781068857 0.37780713056 0.37780375467 0.37780046752 
0.37779735284 0.37779439713 0.37779158586 0.377788921 0.37778643865 0.37778404694 0.37778179807 0.37777973613 0.37777785257 
0.37772492124 0.37771960468 0.37771435541 0.37770929994 0.37770421979 0.37769924791 0.37769427281 0.37768943542 0.37768477873 
0.37768030351 0.37767585199 0.37767150447 0.37766723554 0.37766311787 0.37765913145 0.3776552237 0.37765146313 0.37764784309 
0.37764435581 0.37764095881 0.37763771739 0.37763464439 0.37763169689 0.37762891018 0.37762626952 0.37762377674 0.37762142089 
0.37761921846 0.37761718597 0.37761531734 0.37750779127 0.37750252834 0.37749727597 0.37749225714 0.37748720453 0.37748226046 
0.37747732094 0.37747259034 0.37746791499 0.377463434 0.37745902607 0.37745467635 0.37745044443 0.37744635154 0.37744239222 
0.37743854431 0.37743479641 0.37743120535 0.37742773942 0.37742438948 0.37742114973 0.37741810133 0.37741519495 0.37741241554 
0.37740979936 0.37740733301 0.3774049691 0.37740281706 0.37740080709 0.37739895999 0.37723696145 0.37723166517 0.37722662014 
0.37722152418 0.37721650599 0.37721155011 0.3772066838 0.37720196375 0.37719738506 0.37719284811 0.37718841228 0.37718415061 
0.37717996374 0.37717588927 0.37717195641 0.37716814049 0.37716444422 0.37716087422 0.37715740414 0.37715410436 0.37715089183 
0.37714783887 0.37714495594 0.37714221654 0.37713960632 0.37713714049 0.37713482142 0.3771326801 0.37713072292 0.37712887994 
0.37691251573 0.37690728488 0.37690228093 0.37689720005 0.37689220011 0.37688727081 0.37688243298 0.3768777987 0.37687320051 
0.37686864796 0.37686427947 0.37686002177 0.37685588169 0.37685184108 0.37684793383 0.3768441429 0.37684046432 0.37683695057 
0.37683347265 0.37683019778 0.37682703228 0.37682397741 0.37682111767 0.3768184012 0.37681580761 0.37681336957 0.37681105285 
0.37680896292 0.37680700996 0.37680522641 0.3765346489 0.37652958635 0.3765245031 0.37651944756 0.37651442909 0.37650956287 
0.37650479804 0.37650014573 0.37649554614 0.37649107813 0.37648670278 0.3764824529 0.3764783552 0.37647433724 0.37647043964 
0.37646668754 0.37646304042 0.37645954984 0.37645609468 0.37645283612 0.3764497198 0.37644671496 0.37644382106 0.37644112656 
0.37643855455 0.37643612715 0.37643384711 0.37643179397 0.37642984148 0.37642806596 0.37610356187 0.37609848143 0.3760934078 
0.37608842966 0.37608343268 0.37607859092 0.37607386282 0.37606919517 0.37606464627 0.37606020252 0.37605588435 0.37605162738 
0.37604751626 0.37604356079 0.37603968678 0.37603595914 0.37603233424 0.37602886683 0.37602550068 0.37602220525 0.37601911128 
0.37601612215 0.37601327951 0.37601055931 0.376008031 0.37600561294 0.37600338655 0.37600132994 0.37599942249 0.37599764241 
0.37561940435 0.37561434779 0.37560929236 0.37560435092 0.37559936524 0.37559458546 0.37558983552 0.37558518819 0.3755806703 
0.37557625009 0.37557196173 0.3755677247 0.37556363676 0.37555968703 0.37555585261 0.37555214879 0.37554854768 0.37554510283 
0.37554175786 0.37553851717 0.37553541681 0.37553248363 0.37552966212 0.37552695736 0.37552441717 0.37552201886 0.375519815 
0.3755178186 0.37551587151 0.37551411198 0.37508249521 0.3750773404 0.37507228855 0.37506736031 0.37506247988 0.37505765887 
0.37505295818 0.37504833476 0.37504383207 0.37503944243 0.37503517218 0.37503099232 0.37502689786 0.37502294934 0.37501914214 
0.37501547942 0.37501189919 0.37500848079 0.37500515763 0.37500193378 0.37499888232 0.37499594273 0.37499311999 0.37499045862 
0.37498794552 0.37498556804 0.37498337076 0.37498136183 0.37497948848 0.37497773242 0.37449287997 0.37448774761 0.37448271784 
0.37447781 0.37447293319 0.37446816995 0.37446347287 0.37445887108 0.37445439065 0.3744500157 0.37444577579 0.37444161797 
0.37443757401 0.37443361822 0.37442981958 0.374426181 0.37442264013 0.37441923906 0.37441593719 0.37441273285 0.37440970263 
0.37440681043 0.37440401031 0.37440135095 0.37439885386 0.37439647789 0.37439433835 0.37439232284 0.37439042806 0.37438867994 
0.37385092443 0.37384582067 0.37384084187 0.37383584673 0.37383106506 0.37382632321 0.37382164555 0.37381706563 0.37381260688 
0.37380825612 0.37380403038 0.37379990202 0.37379588396 0.37379195036 0.3737881732 0.37378453285 0.37378103019 0.37377764885 
0.37377437051 0.37377118644 0.37376817596 0.37376526052 0.37376252148 0.37375990742 0.37375736636 0.37375505047 0.37375288104 
0.37375087924 0.3737490578 0.3737473506 0.37315697206 0.37315188149 0.37314684677 0.37314191768 0.37313712847 0.37313244561 
0.37312777747 0.3731232189 0.3731187812 0.37311445528 0.37311025024 0.37310613495 0.37310214291 0.37309825811 0.37309447513 
0.37309083289 0.37308735579 0.373084012 0.37308074305 0.37307755717 0.37307456702 0.37307169601 0.37306898369 0.37306636939 
0.37306388002 0.37306157943 0.37305944725 0.3730574361 0.37305561675 0.37305394572 0.37241130987 0.37240618239 0.37240115201 
0.3723962691 0.37239152004 0.3723868117 0.37238218574 0.37237764793 0.37237323543 0.37236892696 0.37236474264 0.37236064807 
0.37235666668 0.37235280898 0.37234906427 0.3723454177 0.372341963 0.37233861822 0.3723353769 0.37233223107 0.37232923786 
0.37232635993 0.37232366654 0.37232113743 0.37231870083 0.37231636707 0.37231425366 0.3723122605 0.37231046055 0.37230881063 
0.36922019943 0.36921427777 0.36920848248 0.36920271455 0.36919712999 0.36919165676 0.3691862068 0.36918096836 0.36917574378 
0.3691706493 0.36916567997 0.36916079157 0.36915606043 0.36915140245 0.36914689747 0.36914249406 0.36913827982 0.36913420897 
0.36913020292 0.36912636967 0.36912276248 0.36911923441 0.36911583609 0.36911257578 0.36910948026 0.36910653423 0.36910376279 
0.36910110206 0.3690986352 0.36909627794 0.36994753766 0.36994162776 0.36993589923 0.36993021546 0.36992465353 0.36991916894 
0.36991378696 0.36990858801 0.36990340081 0.36989834551 0.36989339947 0.36988857454 0.36988385757 0.36987924807 0.36987477951 
0.36987041275 0.36986620244 0.36986214894 0.36985820987 0.36985449177 0.3698508674 0.36984735415 0.36984400052 0.36984077176 
0.36983770433 0.36983479326 0.36983203627 0.36982940168 0.36982696392 0.36982466023 0.37062419046 0.37061838271 0.37061265559 
0.37060701541 0.3706015087 0.37059606156 0.37059071855 0.37058555922 0.37058040817 0.37057539114 0.37057048496 0.37056570192 
0.37056102925 0.37055645823 0.37055200965 0.37054767913 0.37054350388 0.37053945668 0.37053560967 0.37053189952 0.37052830114 
0.37052481742 0.37052147704 0.37051829408 0.37051525877 0.37051237825 0.37050964848 0.37050704004 0.3705046219 0.3705023556 
0.37124992967 0.37124417945 0.37123846404 0.37123289672 0.37122739702 0.37122197819 0.37121674267 0.37121154737 0.37120644152 
0.37120146316 0.37119659452 0.37119185795 0.37118721998 0.3711826971 0.37117827339 0.37117400109 0.37116982046 0.37116581313 
0.37116202635 0.37115832075 0.37115475463 0.37115130546 0.37114800135 0.37114484554 0.37114182917 0.37113897758 0.37113627589 
0.37113372253 0.37113131469 0.3711290744 0.3718244069 0.37181868172 0.37181308649 0.37180747672 0.37180204039 0.37179665999 
0.37179145649 0.37178627906 0.37178123124 0.37177629047 0.37177144666 0.37176674948 0.3717621316 0.37175766079 0.37175329824 
0.37174902332 0.37174488242 0.37174090995 0.37173712594 0.37173344916 0.37172995146 0.3717265335 0.37172325995 0.37172013402 
0.37171714746 0.37171432314 0.37171164277 0.37170910965 0.3717067277 0.37170451327 0.37234734448 0.37234166969 0.3723361221 
0.37233055622 0.37232516814 0.37231984246 0.37231463802 0.37230950588 0.37230449535 0.37229957539 0.37229477252 0.37229010704 
0.37228553973 0.37228109564 0.37227676621 0.37227252331 0.37226842892 0.37226454045 0.37226072605 0.37225710799 0.37225357709 
0.37225022761 0.37224698475 0.37224388677 0.37224092373 0.37223812901 0.37223548378 0.37223297631 0.37223062846 0.37222842179 
0.37281853233 0.37281292152 0.37280738545 0.37280185844 0.3727965038 0.37279124086 0.37278608885 0.37278095383 0.37277596649 
0.37277109862 0.37276633861 0.37276170965 0.37275719418 0.37275276723 0.37274842849 0.37274425731 0.37274021413 0.37273633707 
0.37273255316 0.37272894256 0.37272546809 0.37272210838 0.37271893519 0.37271586131 0.37271293346 0.37271017501 0.37270755698 
0.37270507931 0.37270274282 0.3727005622 0.37323770585 0.37323216377 0.37322663068 0.37322117563 0.37321585765 0.37321071127 
0.37320554533 0.37320042109 0.37319546837 0.37319063593 0.37318592804 0.37318133283 0.37317683515 0.37317241864 0.37316814434 
0.37316399255 0.37316005467 0.37315614966 0.37315240676 0.37314880782 0.37314536401 0.37314203623 0.37313885507 0.37313585807 
0.37313295909 0.37313022088 0.37312760765 0.37312515647 0.37312289143 0.3731207354 0.37360479745 0.37359923745 0.3735937403 
0.37358835918 0.37358303907 0.37357793047 0.37357279938 0.37356776177 0.37356280632 0.37355800363 0.37355333622 0.37354875901 
0.37354429512 0.37353991205 0.3735356694 0.3735316081 0.37352762989 0.37352376734 0.37352005599 0.3735165146 0.3735130688 
0.37350979458 0.37350663656 0.37350362513 0.37350080433 0.37349805476 0.37349549284 0.37349309148 0.37349081011 0.37348868583 
0.37391947997 0.37391396794 0.37390850706 0.37390316081 0.37389787616 0.37389278726 0.3738876939 0.37388270425 0.37387784415 
0.37387302808 0.37386837961 0.37386383587 0.37385936414 0.37385505486 0.37385084326 0.37384682926 0.37384285678 0.37383904206 
0.37383536143 0.37383184251 0.37382843652 0.37382517659 0.37382204957 0.37381904462 0.37381622239 0.37381359698 0.37381106083 
0.37380864268 0.3738064009 0.37380431802 0.37418169989 0.37417621431 0.37417080505 0.37416549272 0.37416028024 0.37415517441 
0.37415012922 0.37414518039 0.37414032529 0.37413559528 0.37413094162 0.37412638909 0.37412197559 0.37411770994 0.37411361004 
0.37410955943 0.37410561725 0.37410183762 0.37409817688 0.37409468693 0.37409130334 0.37408806191 0.37408495661 0.37408200237 
0.37407921643 0.37407653263 0.37407406864 0.37407168931 0.37406947244 0.37406741404 0.37439130107 0.37438584152 0.37438045811 
0.37437519577 0.3743700999 0.374364947 0.37435992813 0.37435501921 0.37435021721 0.37434554107 0.37434091353 0.37433637272 
0.37433201278 0.37432780276 0.37432367874 0.37431964772 0.37431576251 0.37431199215 0.37430834422 0.37430489352 0.37430154179 
0.37429830717 0.37429528139 0.3742923305 0.37428954724 0.37428690589 0.37428442118 0.3742821128 0.37427992052 0.37427788582 
0.37454820313 0.37454273278 0.37453741275 0.37453217898 0.37452710771 0.37452204078 0.37451703004 0.37451214967 0.37450737998 
0.37450273238 0.37449813646 0.37449365198 0.37448929925 0.37448513877 0.37448103034 0.37447702422 0.37447317271 0.37446942777 
0.3744658063 0.37446237382 0.37445906289 0.37445586052 0.37445281642 0.37444993229 0.37444717513 0.3744445601 0.37444207794 
0.37443981121 0.37443764873 0.37443563753 0.37465229092 0.37464689262 0.37464160407 0.37463637467 0.37463133646 0.37462633979 
0.37462132749 0.37461649997 0.37461176444 0.3746071518 0.37460258106 0.37459816905 0.37459388047 0.37458967366 0.37458561141 
0.37458161789 0.37457779712 0.37457407667 0.37457049744 0.37456705962 0.37456376369 0.37456061894 0.37455760132 0.37455474815 
0.37455201198 0.37454942276 0.37454696801 0.37454467362 0.37454258407 0.37454057589 0.374703593 0.37469822685 0.3746929543 
0.37468776043 0.37468276192 0.374677799 0.37467282031 0.37466802439 0.37466331667 0.37465869578 0.37465419872 0.37464986257 
0.37464558718 0.37464139202 0.37463733477 0.37463341599 0.37462958171 0.37462589161 0.37462236082 0.37461892996 0.37461566099 
0.3746125298 0.37460955111 0.37460672351 0.37460401675 0.37460144807 0.37459899382 0.3745967236 0.37459460789 0.37459270009 
0.37470204978 0.37469671491 0.37469146159 0.37468639643 0.37468134525 0.37467637757 0.37467149578 0.3746667007 0.37466204388 
0.37465742455 0.37465295666 0.37464864811 0.37464440123 0.37464021525 0.37463620603 0.37463231528 0.37462850266 0.37462486034 
0.3746213402 0.37461796349 0.37461469286 0.37461158743 0.37460862145 0.37460580924 0.37460312914 0.3746005919 0.3745981787 
0.37459593219 0.37459383944 0.37459187157 0.37464766272 0.37464232807 0.37463714737 0.37463210919 0.37462706922 0.37462213349 
0.3746172545 0.37461254009 0.37460784438 0.37460329768 0.37459888683 0.37459455647 0.37459033781 0.37458625215 0.3745822376 
0.37457834985 0.37457456842 0.37457095286 0.37456749839 0.37456410794 0.37456084299 0.37455776285 0.37455482156 0.37455202116 
0.37454939772 0.37454688423 0.37454449684 0.37454227155 0.37454018752 0.37453825691 0.3745403947 0.37453514818 0.37452999487 
0.37452496489 0.37451997596 0.3745150685 0.37451023222 0.37450548572 0.37450083776 0.37449636661 0.37449196867 0.37448766644 
0.37448347792 0.37447939632 0.37447542405 0.37447155492 0.37446781894 0.37446418891 0.3744607605 0.37445741117 0.37445417477 
0.37445111935 0.37444820244 0.37444542606 0.37444281352 0.3744403233 0.37443796737 0.37443577146 0.37443369828 0.37443179919 
0.37438039809 0.37437518139 0.37437014697 0.37436505229 0.37436007564 0.37435519573 0.37435038698 0.37434565016 0.37434111475 
0.37433663614 0.37433225503 0.3743279795 0.37432381524 0.3743197159 0.37431578417 0.37431198574 0.37430827186 0.3743046783 
0.37430125251 0.37429795239 0.37429476079 0.37429168453 0.37428879146 0.3742860386 0.37428342784 0.37428098263 0.37427863315 
0.37427645322 0.37427442459 0.37427254662 0.37416762395 0.37416251337 0.37415750337 0.37415246841 0.37414749954 0.37414265181 
0.3741378704 0.37413316037 0.37412862901 0.37412416621 0.37411980872 0.37411555904 0.37411139495 0.37410736516 0.37410346049 
0.37409969299 0.37409603041 0.374092429 0.37408904961 0.37408575103 0.37408258283 0.37407954611 0.37407666123 0.37407393137 
0.37407134331 0.37406889087 0.37406657071 0.37406442935 0.3740624275 0.37406059881 0.3739022697 0.37389731699 0.37389224311 
0.37388722627 0.37388229119 0.37387746386 0.37387266508 0.37386806806 0.37386354092 0.37385910165 0.37385477161 0.37385051404 
0.37384639482 0.37384239537 0.37383851582 0.3738347739 0.37383113561 0.37382758873 0.37382420259 0.37382095015 0.37381780841 
0.37381479853 0.37381192208 0.37380919834 0.37380663278 0.37380420136 0.3738019037 0.37379978386 0.37379779224 0.37379599445 
0.37358449079 0.37357951267 0.37357450179 0.3735695097 0.37356459388 0.37355979961 0.37355506461 0.37355045012 0.37354594858 
0.37354153413 0.37353720048 0.37353300368 0.37352890828 0.37352493544 0.37352107001 0.37351735253 0.3735137374 0.37351021369 
0.37350685102 0.37350362109 0.37350049991 0.37349751191 0.37349465725 0.37349197133 0.37348941707 0.37348696451 0.37348473147 
0.3734826253 0.3734806873 0.37347887969 0.37321435711 0.37320934666 0.37320441692 0.37319944873 0.37319456435 0.37318977635 
0.37318509359 0.37318048223 0.37317598948 0.37317159013 0.37316730533 0.37316313354 0.3731590619 0.37315511299 0.37315127799 
0.37314758565 0.37314399341 0.37314048672 0.37313717365 0.37313393835 0.37313086337 0.37312789901 0.37312506821 0.37312237392 
0.37311985108 0.37311740438 0.37311519385 0.37311312844 0.37311118909 0.37310940945 0.37279214826 0.37278706268 0.37278211344 
0.37277720606 0.3727723448 0.37276757344 0.37276291984 0.37275833215 0.3727538371 0.3727494874 0.37274522588 0.37274106736 
0.37273703096 0.3727331053 0.37272929303 0.37272560808 0.37272205343 0.37271857482 0.37271528509 0.37271209889 0.37270901121 
0.37270609293 0.37270325838 0.37270058516 0.37269806071 0.37269567563 0.37269346924 0.37269142475 0.37268951639 0.37268774119 
0.37231785661 0.37231279346 0.37230786577 0.37230294179 0.37229817435 0.37229339837 0.37228874903 0.37228416657 0.37227971996 
0.37227539468 0.37227115577 0.37226701983 0.37226300262 0.37225910287 0.37225532069 0.37225165009 0.37224811921 0.37224472485 
0.37224139219 0.37223822729 0.37223519499 0.37223227065 0.37222950811 0.37222677997 0.37222426426 0.3722219352 0.37221976033 
0.37221771208 0.37221582718 0.37221406561 0.37179178666 0.37178675241 0.37178184245 0.37177698053 0.37177215206 0.3717674637 
0.37176279072 0.3717582479 0.37175383032 0.37174952662 0.37174530963 0.37174119568 0.37173720055 0.37173330733 0.37172956335 
0.37172591539 0.37172240523 0.37171903205 0.37171572016 0.37171258037 0.37170956822 0.37170669031 0.37170392408 0.37170127218 
0.37169872007 0.37169642639 0.37169424339 0.37169223652 0.37169033502 0.3716885927 0.37121419511 0.37120918085 0.3712042553 
0.37119945071 0.37119461515 0.37118995129 0.37118533473 0.37118082336 0.37117640065 0.37117212561 0.37116792974 0.37116383683 
0.37115986378 0.37115599959 0.37115227017 0.37114864307 0.37114515471 0.37114180659 0.37113851413 0.37113538992 0.37113239791 
0.37112954031 0.37112679709 0.37112419008 0.37112163667 0.37111933816 0.37111717526 0.37111519474 0.37111333439 0.3711115946 
0.37058534274 0.37058038087 0.37057544317 0.37057065843 0.37056581592 0.37056117099 0.37055660072 0.37055211248 0.37054771168 
0.37054344975 0.37053927808 0.37053521526 0.37053125715 0.3705274132 0.37052372032 0.37052010506 0.37051663717 0.37051330443 
0.37051003139 0.37050692737 0.37050395502 0.37050111691 0.37049839223 0.37049580833 0.37049335566 0.37049098898 0.37048884653 
0.37048687168 0.3704850419 0.37048329727 0.36990553187 0.3699005657 0.36989565791 0.36989082307 0.36988609101 0.36988144558 
0.36987689366 0.36987243388 0.36986804337 0.36986380296 0.36985964543 0.36985561124 0.36985167806 0.3698478539 0.3698441556 
0.36984058931 0.36983711328 0.36983381908 0.36983056711 0.36982748247 0.36982452929 0.36982166791 0.36981897778 0.36981642487 
0.36981402026 0.36981167691 0.36980948517 0.36980752899 0.3698057234 0.36980403939 0.36917510154 0.36917012725 0.36916521263 
0.36916039669 0.36915568432 0.36915105891 0.36914650578 0.36914208631 0.36913771586 0.36913349582 0.36912936087 0.36912533897 
0.36912142854 0.36911763593 0.36911394736 0.36911037759 0.36910694454 0.36910367014 0.36910042665 0.36909734025 0.3690944057 
0.36909158693 0.36908893932 0.36908638644 0.36908395733 0.3690817138 0.36907951084 0.36907756337 0.36907575672 0.3690741088 
0.36603368354 0.36602796961 0.36602230191 0.36601669907 0.36601118063 0.36600577915 0.36600059527 0.36599538687 0.36599029698 
0.36598528211 0.36598038986 0.36597563555 0.36597100475 0.36596646633 0.36596202303 0.36595776229 0.365953601 0.36594957077 
0.36594567378 0.36594197524 0.36593836287 0.36593487501 0.36593153875 0.36592834736 0.36592530428 0.3659224117 0.36591968247 
0.36591710717 0.36591465139 0.3659123649 0.36674616221 0.36674048681 0.36673485663 0.36672929006 0.36672381719 0.36671845614 
0.3667133094 0.36670813715 0.3667030848 0.36669811098 0.3666932623 0.36668853871 0.36668393434 0.36667942389 0.36667502587 
0.36667076782 0.36666664875 0.36666267621 0.36665882365 0.36665512458 0.3666515531 0.36664810332 0.36664477964 0.36664164516 
0.36663863054 0.36663576577 0.3666330513 0.36663047772 0.36662807156 0.3666258223 0.36740904844 0.36740340955 0.3673978279 
0.36739226464 0.36738685207 0.36738154989 0.36737640506 0.36737126956 0.36736623468 0.36736131478 0.36735650164 0.3673518271 
0.36734724243 0.36734277673 0.36733841621 0.36733419247 0.36733007695 0.36732616872 0.36732236463 0.36731866507 0.36731512491 
0.36731172249 0.36730844526 0.36730530102 0.3673023147 0.36729947887 0.36729678955 0.36729425446 0.3672918531 0.3672896401 
0.36802202707 0.36801638695 0.36801082003 0.3680053163 0.36800001188 0.36799473791 0.36798959264 0.36798449376 0.36797948763 
0.36797460998 0.36796984038 0.36796517996 0.36796063037 0.36795620125 0.36795189035 0.36794768461 0.36794359866 0.36793963338 
0.36793595069 0.36793229468 0.36792879229 0.36792540286 0.36792215446 0.36791903999 0.36791608163 0.36791327316 0.36791061036 
0.36790808663 0.36790573253 0.36790348923 0.36858475483 0.36857919018 0.3685736165 0.36856817886 0.36856290648 0.3685576774 
0.36855257014 0.36854750707 0.36854253677 0.36853768564 0.36853295179 0.36852832121 0.3685238057 0.36851940902 0.36851514482 
0.36851096042 0.36850693225 0.36850303472 0.36849930648 0.3684956989 0.36849222691 0.36848886711 0.36848564772 0.36848256225 
0.36847963156 0.36847684771 0.36847421368 0.36847171344 0.3684693784 0.36846716625 0.3690970331 0.36909148655 0.36908597955 
0.36908067214 0.36907533069 0.36907020926 0.36906510606 0.36906003656 0.36905510076 0.3690502937 0.36904559986 0.36904100886 
0.36903651694 0.36903214644 0.36902790311 0.36902377331 0.36901980688 0.36901591568 0.36901216953 0.36900858862 0.36900518243 
0.36900185191 0.36899866121 0.36899560442 0.36899269964 0.36898994261 0.36898732115 0.3689848558 0.36898255124 0.3689803923 
0.36955857581 0.36955309505 0.36954766926 0.36954235046 0.36953706803 0.36953195894 0.36952689159 0.36952189024 0.36951695776 
0.36951217297 0.36950752496 0.36950296757 0.36949850826 0.36949417855 0.36948996857 0.36948585398 0.36948194194 0.36947806517 
0.36947435086 0.36947080002 0.36946738559 0.36946412171 0.36946095758 0.36945793751 0.36945505306 0.36945232243 0.36944972067 
0.36944729578 0.36944504288 0.36944288342 0.36996922627 0.36996378057 0.36995839807 0.36995310644 0.3699479015 0.36994281681 
0.36993777114 0.36993278967 0.36992787868 0.36992313509 0.3699185251 0.36991400076 0.36990957286 0.3699052755 0.36990107629 
0.36989707144 0.36989311966 0.36988932806 0.3698856104 0.36988209204 0.36987870297 0.36987542866 0.36987232598 0.36986933214 
0.36986648325 0.36986377405 0.36986122997 0.36985880126 0.36985653262 0.36985442597 0.37032877199 0.37032341412 0.37031801957 
0.37031275781 0.37030758768 0.3703025375 0.3702975379 0.37029259005 0.37028773023 0.3702829877 0.37027841041 0.37027391854 
0.37026955388 0.37026527162 0.37026108792 0.37025711754 0.37025319162 0.37024941067 0.37024574843 0.37024225105 0.37023889271 
0.370235655 0.37023254764 0.37022962285 0.37022680262 0.37022415008 0.37022156298 0.37021918187 0.3702169387 0.37021484505 
0.37063706465 0.37063169657 0.37062638352 0.37062115293 0.37061608871 0.37061100119 0.37060602442 0.37060109216 0.37059628403 
0.3705915971 0.37058701485 0.37058256988 0.37057822143 0.37057394751 0.3705698892 0.37056588962 0.37056200973 0.37055823894 
0.37055460733 0.37055115394 0.37054779245 0.37054459693 0.37054151865 0.37053860027 0.37053582379 0.37053314945 0.37053062582 
0.37052826886 0.37052604965 0.37052398527 0.37089395657 0.37088858462 0.37088330182 0.37087810371 0.37087307538 0.37086805768 
0.37086305555 0.37085817552 0.37085343342 0.37084879876 0.37084424116 0.37083979766 0.37083547975 0.37083127011 0.370827185 
0.37082321845 0.37081937498 0.37081563654 0.37081204615 0.37080860343 0.37080527658 0.37080210124 0.37079906897 0.37079611766 