# vtk DataFile Version 5.1
vtk output
ASCII
DATASET STRUCTURED_POINTS
DIMENSIONS 20 20 20
SPACING 2e-05 2e-05 2e-05
ORIGIN 3.69981 -0.00019 0.99981
POINT_DATA 8000
FIELD FieldData 1
potential 1 8000 double
0.0011072196728 0.0011072164379 0.001107213203 0.0011072099682 0.0011072067333 0.0011072034985 0.0011072002637 0.0011071970289 0.0011071937941 
0.0011071905594 0.0011071873247 0.0011071840899 0.0011071808553 0.0011071776206 0.0011071743859 0.0011071711513 0.0011071679167 0.001107164682 
0.0011071614475 0.0011071582129 0.0011072215908 0.0011072183559 0.001107215121 0.0011072118861 0.0011072086513 0.0011072054165 0.0011072021816 
0.0011071989468 0.0011071957121 0.0011071924773 0.0011071892426 0.0011071860078 0.0011071827731 0.0011071795384 0.0011071763038 0.0011071730691 
0.0011071698345 0.0011071665999 0.0011071633653 0.0011071601307 0.0011072235088 0.0011072202739 0.001107217039 0.0011072138041 0.0011072105693 
0.0011072073344 0.0011072040996 0.0011072008648 0.00110719763 0.0011071943952 0.0011071911605 0.0011071879257 0.001107184691 0.0011071814563 
0.0011071782216 0.001107174987 0.0011071717523 0.0011071685177 0.0011071652831 0.0011071620485 0.0011072254269 0.0011072221919 0.001107218957 
0.0011072157221 0.0011072124872 0.0011072092524 0.0011072060175 0.0011072027827 0.0011071995479 0.0011071963131 0.0011071930784 0.0011071898436 
0.0011071866089 0.0011071833742 0.0011071801395 0.0011071769048 0.0011071736702 0.0011071704355 0.0011071672009 0.0011071639663 0.0011072273449 
0.0011072241099 0.001107220875 0.0011072176401 0.0011072144052 0.0011072111704 0.0011072079355 0.0011072047007 0.0011072014659 0.0011071982311 
0.0011071949963 0.0011071917615 0.0011071885268 0.0011071852921 0.0011071820574 0.0011071788227 0.001107175588 0.0011071723534 0.0011071691187 
0.0011071658841 0.0011072292629 0.001107226028 0.001107222793 0.0011072195581 0.0011072163232 0.0011072130883 0.0011072098535 0.0011072066186 
0.0011072033838 0.001107200149 0.0011071969142 0.0011071936795 0.0011071904447 0.00110718721 0.0011071839752 0.0011071807406 0.0011071775059 
0.0011071742712 0.0011071710366 0.0011071678019 0.001107231181 0.001107227946 0.0011072247111 0.0011072214761 0.0011072182412 0.0011072150063 
0.0011072117715 0.0011072085366 0.0011072053018 0.001107202067 0.0011071988322 0.0011071955974 0.0011071923626 0.0011071891279 0.0011071858931 
0.0011071826584 0.0011071794237 0.0011071761891 0.0011071729544 0.0011071697198 0.001107233099 0.0011072298641 0.0011072266291 0.0011072233942 
0.0011072201593 0.0011072169243 0.0011072136895 0.0011072104546 0.0011072072197 0.0011072039849 0.0011072007501 0.0011071975153 0.0011071942805 
0.0011071910458 0.001107187811 0.0011071845763 0.0011071813416 0.0011071781069 0.0011071748723 0.0011071716376 0.0011072350171 0.0011072317821 
0.0011072285472 0.0011072253122 0.0011072220773 0.0011072188424 0.0011072156075 0.0011072123726 0.0011072091377 0.0011072059029 0.0011072026681 
0.0011071994333 0.0011071961985 0.0011071929637 0.001107189729 0.0011071864942 0.0011071832595 0.0011071800248 0.0011071767901 0.0011071735555 
0.0011072369352 0.0011072337002 0.0011072304652 0.0011072272303 0.0011072239953 0.0011072207604 0.0011072175255 0.0011072142906 0.0011072110557 
0.0011072078209 0.001107204586 0.0011072013512 0.0011071981164 0.0011071948816 0.0011071916469 0.0011071884121 0.0011071851774 0.0011071819427 
0.001107178708 0.0011071754733 0.0011072388533 0.0011072356183 0.0011072323833 0.0011072291483 0.0011072259134 0.0011072226784 0.0011072194435 
0.0011072162086 0.0011072129737 0.0011072097389 0.001107206504 0.0011072032692 0.0011072000344 0.0011071967996 0.0011071935648 0.0011071903301 
0.0011071870953 0.0011071838606 0.0011071806259 0.0011071773912 0.0011072407714 0.0011072375364 0.0011072343014 0.0011072310664 0.0011072278314 
0.0011072245965 0.0011072213615 0.0011072181266 0.0011072148917 0.0011072116568 0.001107208422 0.0011072051872 0.0011072019523 0.0011071987175 
0.0011071954827 0.001107192248 0.0011071890132 0.0011071857785 0.0011071825438 0.0011071793091 0.0011072426895 0.0011072394545 0.0011072362194 
0.0011072329844 0.0011072297495 0.0011072265145 0.0011072232796 0.0011072200446 0.0011072168097 0.0011072135749 0.00110721034 0.0011072071051 
0.0011072038703 0.0011072006355 0.0011071974007 0.0011071941659 0.0011071909312 0.0011071876964 0.0011071844617 0.001107181227 0.0011072446076 
0.0011072413726 0.0011072381375 0.0011072349025 0.0011072316675 0.0011072284326 0.0011072251976 0.0011072219627 0.0011072187278 0.0011072154929 
0.001107212258 0.0011072090231 0.0011072057883 0.0011072025535 0.0011071993186 0.0011071960839 0.0011071928491 0.0011071896143 0.0011071863796 
0.0011071831449 0.0011072465257 0.0011072432907 0.0011072400556 0.0011072368206 0.0011072335856 0.0011072303506 0.0011072271157 0.0011072238807 
0.0011072206458 0.0011072174109 0.001107214176 0.0011072109411 0.0011072077063 0.0011072044714 0.0011072012366 0.0011071980018 0.001107194767 
0.0011071915323 0.0011071882975 0.0011071850628 0.0011072484439 0.0011072452088 0.0011072419737 0.0011072387387 0.0011072355037 0.0011072322687 
0.0011072290337 0.0011072257988 0.0011072225638 0.0011072193289 0.001107216094 0.0011072128591 0.0011072096243 0.0011072063894 0.0011072031546 
0.0011071999198 0.001107196685 0.0011071934502 0.0011071902155 0.0011071869807 0.001107250362 0.0011072471269 0.0011072438919 0.0011072406568 
0.0011072374218 0.0011072341868 0.0011072309518 0.0011072277168 0.0011072244819 0.001107221247 0.001107218012 0.0011072147772 0.0011072115423 
0.0011072083074 0.0011072050726 0.0011072018378 0.0011071986029 0.0011071953682 0.0011071921334 0.0011071888986 0.0011072522802 0.0011072490451 
0.00110724581 0.0011072425749 0.0011072393399 0.0011072361049 0.0011072328699 0.0011072296349 0.0011072264 0.001107223165 0.0011072199301 
0.0011072166952 0.0011072134603 0.0011072102254 0.0011072069906 0.0011072037557 0.0011072005209 0.0011071972861 0.0011071940513 0.0011071908166 
0.0011072541983 0.0011072509632 0.0011072477281 0.0011072444931 0.001107241258 0.001107238023 0.001107234788 0.001107231553 0.001107228318 
0.0011072250831 0.0011072218481 0.0011072186132 0.0011072153783 0.0011072121434 0.0011072089086 0.0011072056737 0.0011072024389 0.0011071992041 
0.0011071959693 0.0011071927345 0.0011072561165 0.0011072528814 0.0011072496463 0.0011072464112 0.0011072431761 0.0011072399411 0.0011072367061 
0.0011072334711 0.0011072302361 0.0011072270011 0.0011072237662 0.0011072205313 0.0011072172963 0.0011072140615 0.0011072108266 0.0011072075917 
0.0011072043569 0.0011072011221 0.0011071978873 0.0011071946525 0.0011072408213 0.0011072375863 0.0011072343514 0.0011072311164 0.0011072278815 
0.0011072246467 0.0011072214118 0.0011072181769 0.0011072149421 0.0011072117073 0.0011072084725 0.0011072052377 0.001107202003 0.0011071987682 
0.0011071955335 0.0011071922988 0.0011071890641 0.0011071858295 0.0011071825948 0.0011071793602 0.0011072427393 0.0011072395043 0.0011072362694 
0.0011072330345 0.0011072297995 0.0011072265646 0.0011072233298 0.0011072200949 0.0011072168601 0.0011072136252 0.0011072103904 0.0011072071557 
0.0011072039209 0.0011072006861 0.0011071974514 0.0011071942167 0.001107190982 0.0011071877473 0.0011071845127 0.001107181278 0.0011072446574 
0.0011072414224 0.0011072381874 0.0011072349525 0.0011072317175 0.0011072284826 0.0011072252477 0.0011072220129 0.001107218778 0.0011072155432 
0.0011072123084 0.0011072090736 0.0011072058388 0.001107202604 0.0011071993693 0.0011071961346 0.0011071928999 0.0011071896652 0.0011071864305 
0.0011071831959 0.0011072465754 0.0011072433404 0.0011072401054 0.0011072368705 0.0011072336356 0.0011072304006 0.0011072271657 0.0011072239309 
0.001107220696 0.0011072174612 0.0011072142263 0.0011072109915 0.0011072077567 0.001107204522 0.0011072012872 0.0011071980525 0.0011071948177 
0.001107191583 0.0011071883484 0.0011071851137 0.0011072484935 0.0011072452585 0.0011072420235 0.0011072387885 0.0011072355536 0.0011072323187 
0.0011072290837 0.0011072258488 0.001107222614 0.0011072193791 0.0011072161443 0.0011072129095 0.0011072096747 0.0011072064399 0.0011072032051 
0.0011071999704 0.0011071967356 0.0011071935009 0.0011071902662 0.0011071870316 0.0011072504116 0.0011072471765 0.0011072439415 0.0011072407066 
0.0011072374716 0.0011072342367 0.0011072310017 0.0011072277668 0.001107224532 0.0011072212971 0.0011072180622 0.0011072148274 0.0011072115926 
0.0011072083578 0.001107205123 0.0011072018883 0.0011071986535 0.0011071954188 0.0011071921841 0.0011071889494 0.0011072523296 0.0011072490946 
0.0011072458596 0.0011072426246 0.0011072393897 0.0011072361547 0.0011072329198 0.0011072296848 0.00110722645 0.0011072232151 0.0011072199802 
0.0011072167454 0.0011072135105 0.0011072102757 0.001107207041 0.0011072038062 0.0011072005714 0.0011071973367 0.001107194102 0.0011071908673 
0.0011072542477 0.0011072510127 0.0011072477777 0.0011072445427 0.0011072413077 0.0011072380727 0.0011072348378 0.0011072316029 0.001107228368 
0.0011072251331 0.0011072218982 0.0011072186633 0.0011072154285 0.0011072121937 0.0011072089589 0.0011072057241 0.0011072024893 0.0011071992546 
0.0011071960199 0.0011071927852 0.0011072561658 0.0011072529308 0.0011072496958 0.0011072464608 0.0011072432258 0.0011072399908 0.0011072367558 
0.0011072335209 0.001107230286 0.0011072270511 0.0011072238162 0.0011072205813 0.0011072173465 0.0011072141116 0.0011072108768 0.001107207642 
0.0011072044073 0.0011072011725 0.0011071979378 0.0011071947031 0.001107258084 0.0011072548489 0.0011072516139 0.0011072483788 0.0011072451438 
0.0011072419088 0.0011072386739 0.0011072354389 0.001107232204 0.0011072289691 0.0011072257342 0.0011072224993 0.0011072192644 0.0011072160296 
0.0011072127948 0.00110720956 0.0011072063252 0.0011072030904 0.0011071998557 0.001107196621 0.0011072600021 0.001107256767 0.001107253532 
0.0011072502969 0.0011072470619 0.0011072438269 0.0011072405919 0.001107237357 0.001107234122 0.0011072308871 0.0011072276522 0.0011072244173 
0.0011072211824 0.0011072179476 0.0011072147127 0.0011072114779 0.0011072082431 0.0011072050084 0.0011072017736 0.0011071985389 0.0011072619202 
0.0011072586851 0.0011072554501 0.001107252215 0.00110724898 0.001107245745 0.00110724251 0.001107239275 0.0011072360401 0.0011072328051 
0.0011072295702 0.0011072263353 0.0011072231004 0.0011072198656 0.0011072166307 0.0011072133959 0.0011072101611 0.0011072069263 0.0011072036915 
0.0011072004568 0.0011072638383 0.0011072606033 0.0011072573682 0.0011072541331 0.0011072508981 0.0011072476631 0.0011072444281 0.0011072411931 
0.0011072379581 0.0011072347232 0.0011072314882 0.0011072282533 0.0011072250184 0.0011072217836 0.0011072185487 0.0011072153139 0.001107212079 
0.0011072088442 0.0011072056095 0.0011072023747 0.0011072657565 0.0011072625214 0.0011072592863 0.0011072560512 0.0011072528162 0.0011072495812 
0.0011072463461 0.0011072431111 0.0011072398762 0.0011072366412 0.0011072334063 0.0011072301713 0.0011072269364 0.0011072237016 0.0011072204667 
0.0011072172318 0.001107213997 0.0011072107622 0.0011072075274 0.0011072042926 0.0011072676746 0.0011072644395 0.0011072612044 0.0011072579694 
0.0011072547343 0.0011072514993 0.0011072482642 0.0011072450292 0.0011072417942 0.0011072385593 0.0011072353243 0.0011072320894 0.0011072288545 
0.0011072256196 0.0011072223847 0.0011072191498 0.001107215915 0.0011072126802 0.0011072094454 0.0011072062106 0.0011072695928 0.0011072663577 
0.0011072631226 0.0011072598875 0.0011072566524 0.0011072534174 0.0011072501823 0.0011072469473 0.0011072437123 0.0011072404773 0.0011072372424 
0.0011072340074 0.0011072307725 0.0011072275376 0.0011072243027 0.0011072210678 0.001107217833 0.0011072145981 0.0011072113633 0.0011072081285 
0.001107271511 0.0011072682759 0.0011072650407 0.0011072618056 0.0011072585705 0.0011072553355 0.0011072521004 0.0011072488654 0.0011072456304 
0.0011072423954 0.0011072391604 0.0011072359255 0.0011072326905 0.0011072294556 0.0011072262207 0.0011072229858 0.001107219751 0.0011072165161 
0.0011072132813 0.0011072100465 0.0011072734292 0.001107270194 0.0011072669589 0.0011072637238 0.0011072604887 0.0011072572536 0.0011072540186 
0.0011072507835 0.0011072475485 0.0011072443135 0.0011072410785 0.0011072378435 0.0011072346086 0.0011072313737 0.0011072281387 0.0011072249038 
0.001107221669 0.0011072184341 0.0011072151993 0.0011072119645 0.0011072753474 0.0011072721122 0.0011072688771 0.0011072656419 0.0011072624068 
0.0011072591717 0.0011072559367 0.0011072527016 0.0011072494666 0.0011072462316 0.0011072429966 0.0011072397616 0.0011072365266 0.0011072332917 
0.0011072300568 0.0011072268219 0.001107223587 0.0011072203521 0.0011072171173 0.0011072138824 0.0011072772656 0.0011072740304 0.0011072707952 
0.0011072675601 0.001107264325 0.0011072610899 0.0011072578548 0.0011072546197 0.0011072513847 0.0011072481497 0.0011072449147 0.0011072416797 
0.0011072384447 0.0011072352098 0.0011072319748 0.0011072287399 0.001107225505 0.0011072222701 0.0011072190353 0.0011072158004 0.0011072619697 
0.0011072587347 0.0011072554997 0.0011072522647 0.0011072490297 0.0011072457948 0.0011072425599 0.001107239325 0.0011072360901 0.0011072328552 
0.0011072296203 0.0011072263855 0.0011072231507 0.0011072199159 0.0011072166811 0.0011072134463 0.0011072102116 0.0011072069769 0.0011072037422 
0.0011072005075 0.0011072638878 0.0011072606527 0.0011072574177 0.0011072541827 0.0011072509478 0.0011072477128 0.0011072444779 0.001107241243 
0.001107238008 0.0011072347732 0.0011072315383 0.0011072283035 0.0011072250686 0.0011072218338 0.001107218599 0.0011072153643 0.0011072121295 
0.0011072088948 0.00110720566 0.0011072024253 0.0011072658059 0.0011072625708 0.0011072593358 0.0011072561008 0.0011072528658 0.0011072496308 
0.0011072463959 0.001107243161 0.001107239926 0.0011072366911 0.0011072334563 0.0011072302214 0.0011072269866 0.0011072237518 0.0011072205169 
0.0011072172822 0.0011072140474 0.0011072108126 0.0011072075779 0.0011072043432 0.0011072677239 0.0011072644889 0.0011072612539 0.0011072580188 
0.0011072547838 0.0011072515489 0.0011072483139 0.001107245079 0.001107241844 0.0011072386091 0.0011072353742 0.0011072321394 0.0011072289045 
0.0011072256697 0.0011072224349 0.0011072192001 0.0011072159653 0.0011072127305 0.0011072094958 0.0011072062611 0.001107269642 0.001107266407 
0.0011072631719 0.0011072599369 0.0011072567019 0.0011072534669 0.0011072502319 0.001107246997 0.0011072437621 0.0011072405271 0.0011072372922 
0.0011072340574 0.0011072308225 0.0011072275877 0.0011072243528 0.001107221118 0.0011072178832 0.0011072146485 0.0011072114137 0.001107208179 
0.0011072715602 0.0011072683251 0.00110726509 0.001107261855 0.00110725862 0.001107255385 0.00110725215 0.001107248915 0.0011072456801 
0.0011072424451 0.0011072392102 0.0011072359753 0.0011072327405 0.0011072295056 0.0011072262708 0.001107223036 0.0011072198012 0.0011072165664 
0.0011072133316 0.0011072100969 0.0011072734783 0.0011072702432 0.0011072670081 0.0011072637731 0.001107260538 0.001107257303 0.001107254068 
0.0011072508331 0.0011072475981 0.0011072443632 0.0011072411282 0.0011072378933 0.0011072346585 0.0011072314236 0.0011072281887 0.0011072249539 
0.0011072217191 0.0011072184843 0.0011072152495 0.0011072120148 0.0011072753964 0.0011072721613 0.0011072689262 0.0011072656912 0.0011072624561 
0.0011072592211 0.0011072559861 0.0011072527511 0.0011072495161 0.0011072462812 0.0011072430463 0.0011072398113 0.0011072365764 0.0011072333416 
0.0011072301067 0.0011072268719 0.001107223637 0.0011072204022 0.0011072171674 0.0011072139327 0.0011072773145 0.0011072740794 0.0011072708443 
0.0011072676093 0.0011072643742 0.0011072611392 0.0011072579042 0.0011072546692 0.0011072514342 0.0011072481992 0.0011072449643 0.0011072417294 
0.0011072384944 0.0011072352596 0.0011072320247 0.0011072287898 0.001107225555 0.0011072223202 0.0011072190854 0.0011072158506 0.0011072792327 
0.0011072759976 0.0011072727625 0.0011072695274 0.0011072662923 0.0011072630573 0.0011072598222 0.0011072565872 0.0011072533522 0.0011072501173 
0.0011072468823 0.0011072436474 0.0011072404125 0.0011072371776 0.0011072339427 0.0011072307078 0.001107227473 0.0011072242381 0.0011072210033 
0.0011072177685 0.0011072811508 0.0011072779157 0.0011072746806 0.0011072714455 0.0011072682104 0.0011072649754 0.0011072617403 0.0011072585053 
0.0011072552703 0.0011072520353 0.0011072488003 0.0011072455654 0.0011072423305 0.0011072390956 0.0011072358607 0.0011072326258 0.0011072293909 
0.0011072261561 0.0011072229213 0.0011072196865 0.001107283069 0.0011072798339 0.0011072765987 0.0011072733636 0.0011072701285 0.0011072668935 
0.0011072636584 0.0011072604234 0.0011072571884 0.0011072539534 0.0011072507184 0.0011072474834 0.0011072442485 0.0011072410136 0.0011072377787 
0.0011072345438 0.0011072313089 0.0011072280741 0.0011072248392 0.0011072216044 0.0011072849872 0.001107281752 0.0011072785169 0.0011072752818 
0.0011072720467 0.0011072688116 0.0011072655765 0.0011072623415 0.0011072591065 0.0011072558714 0.0011072526365 0.0011072494015 0.0011072461665 
0.0011072429316 0.0011072396967 0.0011072364618 0.0011072332269 0.001107229992 0.0011072267572 0.0011072235224 0.0011072869054 0.0011072836702 
0.001107280435 0.0011072771999 0.0011072739648 0.0011072707297 0.0011072674946 0.0011072642596 0.0011072610245 0.0011072577895 0.0011072545545 
0.0011072513195 0.0011072480846 0.0011072448496 0.0011072416147 0.0011072383798 0.0011072351449 0.00110723191 0.0011072286752 0.0011072254403 
0.0011072888235 0.0011072855884 0.0011072823532 0.0011072791181 0.001107275883 0.0011072726478 0.0011072694128 0.0011072661777 0.0011072629426 
0.0011072597076 0.0011072564726 0.0011072532376 0.0011072500026 0.0011072467677 0.0011072435327 0.0011072402978 0.0011072370629 0.001107233828 
0.0011072305932 0.0011072273583 0.0011072907417 0.0011072875066 0.0011072842714 0.0011072810362 0.0011072778011 0.001107274566 0.0011072713309 
0.0011072680958 0.0011072648608 0.0011072616257 0.0011072583907 0.0011072551557 0.0011072519207 0.0011072486857 0.0011072454508 0.0011072422158 
0.0011072389809 0.001107235746 0.0011072325112 0.0011072292763 0.00110729266 0.0011072894248 0.0011072861896 0.0011072829544 0.0011072797193 
0.0011072764841 0.001107273249 0.0011072700139 0.0011072667789 0.0011072635438 0.0011072603088 0.0011072570738 0.0011072538388 0.0011072506038 
0.0011072473688 0.0011072441339 0.001107240899 0.0011072376641 0.0011072344292 0.0011072311943 0.0011072945782 0.001107291343 0.0011072881078 
0.0011072848726 0.0011072816374 0.0011072784023 0.0011072751672 0.0011072719321 0.001107268697 0.0011072654619 0.0011072622269 0.0011072589919 
0.0011072557569 0.0011072525219 0.0011072492869 0.0011072460519 0.001107242817 0.0011072395821 0.0011072363472 0.0011072331123 0.0011072964964 
0.0011072932612 0.001107290026 0.0011072867908 0.0011072835556 0.0011072803205 0.0011072770853 0.0011072738502 0.0011072706151 0.0011072673801 
0.001107264145 0.00110726091 0.0011072576749 0.0011072544399 0.001107251205 0.00110724797 0.001107244735 0.0011072415001 0.0011072382652 
0.0011072350303 0.0011072984146 0.0011072951794 0.0011072919442 0.001107288709 0.0011072854738 0.0011072822387 0.0011072790035 0.0011072757684 
0.0011072725333 0.0011072692982 0.0011072660631 0.0011072628281 0.001107259593 0.001107256358 0.001107253123 0.0011072498881 0.0011072466531 
0.0011072434182 0.0011072401832 0.0011072369483 0.0011072831181 0.001107279883 0.001107276648 0.0011072734129 0.0011072701779 0.0011072669429 
0.0011072637079 0.0011072604729 0.001107257238 0.0011072540031 0.0011072507681 0.0011072475332 0.0011072442984 0.0011072410635 0.0011072378287 
0.0011072345938 0.001107231359 0.0011072281243 0.0011072248895 0.0011072216547 0.0011072850362 0.0011072818011 0.001107278566 0.001107275331 
0.001107272096 0.0011072688609 0.0011072656259 0.001107262391 0.001107259156 0.0011072559211 0.0011072526861 0.0011072494512 0.0011072462163 
0.0011072429815 0.0011072397466 0.0011072365118 0.001107233277 0.0011072300422 0.0011072268074 0.0011072235726 0.0011072869543 0.0011072837192 
0.0011072804841 0.0011072772491 0.001107274014 0.001107270779 0.001107267544 0.001107264309 0.001107261074 0.0011072578391 0.0011072546041 
0.0011072513692 0.0011072481343 0.0011072448994 0.0011072416646 0.0011072384297 0.0011072351949 0.0011072319601 0.0011072287253 0.0011072254905 
0.0011072888724 0.0011072856373 0.0011072824022 0.0011072791672 0.0011072759321 0.0011072726971 0.001107269462 0.001107266227 0.0011072629921 
0.0011072597571 0.0011072565221 0.0011072532872 0.0011072500523 0.0011072468174 0.0011072435825 0.0011072403477 0.0011072371128 0.001107233878 
0.0011072306432 0.0011072274084 0.0011072907906 0.0011072875555 0.0011072843204 0.0011072810853 0.0011072778502 0.0011072746151 0.0011072713801 
0.0011072681451 0.0011072649101 0.0011072616751 0.0011072584402 0.0011072552052 0.0011072519703 0.0011072487354 0.0011072455005 0.0011072422656 
0.0011072390308 0.001107235796 0.0011072325612 0.0011072293264 0.0011072927087 0.0011072894736 0.0011072862385 0.0011072830034 0.0011072797683 
0.0011072765332 0.0011072732982 0.0011072700632 0.0011072668282 0.0011072635932 0.0011072603582 0.0011072571232 0.0011072538883 0.0011072506534 
0.0011072474185 0.0011072441836 0.0011072409488 0.0011072377139 0.0011072344791 0.0011072312443 0.0011072946269 0.0011072913917 0.0011072881566 
0.0011072849215 0.0011072816864 0.0011072784513 0.0011072752163 0.0011072719812 0.0011072687462 0.0011072655112 0.0011072622762 0.0011072590413 
0.0011072558063 0.0011072525714 0.0011072493365 0.0011072461016 0.0011072428667 0.0011072396319 0.001107236397 0.0011072331622 0.001107296545 
0.0011072933099 0.0011072900747 0.0011072868396 0.0011072836045 0.0011072803694 0.0011072771344 0.0011072738993 0.0011072706643 0.0011072674293 
0.0011072641943 0.0011072609593 0.0011072577244 0.0011072544894 0.0011072512545 0.0011072480196 0.0011072447847 0.0011072415498 0.001107238315 
0.0011072350802 0.0011072984632 0.001107295228 0.0011072919929 0.0011072887578 0.0011072855226 0.0011072822875 0.0011072790525 0.0011072758174 
0.0011072725824 0.0011072693473 0.0011072661123 0.0011072628774 0.0011072596424 0.0011072564074 0.0011072531725 0.0011072499376 0.0011072467027 
0.0011072434678 0.001107240233 0.0011072369981 0.0011073003814 0.0011072971462 0.001107293911 0.0011072906759 0.0011072874408 0.0011072842057 
0.0011072809706 0.0011072777355 0.0011072745005 0.0011072712654 0.0011072680304 0.0011072647954 0.0011072615604 0.0011072583255 0.0011072550905 
0.0011072518556 0.0011072486207 0.0011072453858 0.0011072421509 0.0011072389161 0.0011073022996 0.0011072990644 0.0011072958292 0.0011072925941 
0.0011072893589 0.0011072861238 0.0011072828887 0.0011072796536 0.0011072764186 0.0011072731835 0.0011072699485 0.0011072667135 0.0011072634785 
0.0011072602435 0.0011072570086 0.0011072537736 0.0011072505387 0.0011072473038 0.0011072440689 0.0011072408341 0.0011073042178 0.0011073009826 
0.0011072977474 0.0011072945122 0.0011072912771 0.0011072880419 0.0011072848068 0.0011072815717 0.0011072783367 0.0011072751016 0.0011072718666 
0.0011072686315 0.0011072653965 0.0011072621616 0.0011072589266 0.0011072556916 0.0011072524567 0.0011072492218 0.0011072459869 0.001107242752 
0.001107306136 0.0011073029008 0.0011072996656 0.0011072964304 0.0011072931952 0.0011072899601 0.001107286725 0.0011072834899 0.0011072802548 
0.0011072770197 0.0011072737847 0.0011072705496 0.0011072673146 0.0011072640796 0.0011072608446 0.0011072576097 0.0011072543747 0.0011072511398 
0.0011072479049 0.00110724467 0.0011073080542 0.001107304819 0.0011073015838 0.0011072983486 0.0011072951134 0.0011072918782 0.0011072886431 
0.001107285408 0.0011072821729 0.0011072789378 0.0011072757028 0.0011072724677 0.0011072692327 0.0011072659977 0.0011072627627 0.0011072595277 
0.0011072562928 0.0011072530578 0.0011072498229 0.001107246588 0.0011073099724 0.0011073067372 0.001107303502 0.0011073002668 0.0011072970316 
0.0011072937964 0.0011072905613 0.0011072873261 0.001107284091 0.0011072808559 0.0011072776209 0.0011072743858 0.0011072711508 0.0011072679158 
0.0011072646808 0.0011072614458 0.0011072582108 0.0011072549759 0.0011072517409 0.001107248506 0.0011073118906 0.0011073086554 0.0011073054202 
0.001107302185 0.0011072989498 0.0011072957146 0.0011072924794 0.0011072892443 0.0011072860092 0.0011072827741 0.001107279539 0.0011072763039 
0.0011072730689 0.0011072698338 0.0011072665988 0.0011072633638 0.0011072601289 0.0011072568939 0.001107253659 0.0011072504241 0.0011073138089 
0.0011073105736 0.0011073073384 0.0011073041032 0.001107300868 0.0011072976328 0.0011072943976 0.0011072911625 0.0011072879273 0.0011072846922 
0.0011072814571 0.001107278222 0.001107274987 0.0011072717519 0.0011072685169 0.0011072652819 0.0011072620469 0.001107258812 0.001107255577 
0.0011072523421 0.0011073157271 0.0011073124919 0.0011073092566 0.0011073060214 0.0011073027862 0.001107299551 0.0011072963158 0.0011072930806 
0.0011072898455 0.0011072866104 0.0011072833753 0.0011072801402 0.0011072769051 0.00110727367 0.001107270435 0.0011072672 0.001107263965 
0.00110726073 0.0011072574951 0.0011072542601 0.0011073176454 0.0011073144101 0.0011073111749 0.0011073079396 0.0011073047044 0.0011073014692 
0.001107298234 0.0011072949988 0.0011072917637 0.0011072885285 0.0011072852934 0.0011072820583 0.0011072788232 0.0011072755882 0.0011072723531 
0.0011072691181 0.0011072658831 0.0011072626481 0.0011072594131 0.0011072561782 0.0011073195637 0.0011073163284 0.0011073130931 0.0011073098578 
0.0011073066226 0.0011073033874 0.0011073001522 0.001107296917 0.0011072936818 0.0011072904467 0.0011072872116 0.0011072839764 0.0011072807414 
0.0011072775063 0.0011072742712 0.0011072710362 0.0011072678012 0.0011072645662 0.0011072613312 0.0011072580962 0.0011073042665 0.0011073010313 
0.0011072977962 0.0011072945611 0.001107291326 0.001107288091 0.0011072848559 0.0011072816209 0.0011072783859 0.0011072751509 0.0011072719159 
0.001107268681 0.001107265446 0.0011072622111 0.0011072589762 0.0011072557413 0.0011072525064 0.0011072492716 0.0011072460368 0.001107242802 
0.0011073061846 0.0011073029495 0.0011072997143 0.0011072964792 0.0011072932441 0.0011072900091 0.001107286774 0.001107283539 0.0011072803039 
0.0011072770689 0.0011072738339 0.001107270599 0.001107267364 0.0011072641291 0.0011072608942 0.0011072576593 0.0011072544244 0.0011072511895 
0.0011072479547 0.0011072447199 0.0011073081028 0.0011073048676 0.0011073016325 0.0011072983973 0.0011072951622 0.0011072919271 0.0011072886921 
0.001107285457 0.001107282222 0.001107278987 0.001107275752 0.001107272517 0.001107269282 0.0011072660471 0.0011072628122 0.0011072595773 
0.0011072563424 0.0011072531075 0.0011072498727 0.0011072466378 0.0011073100209 0.0011073067858 0.0011073035506 0.0011073003155 0.0011072970803 
0.0011072938452 0.0011072906102 0.0011072873751 0.0011072841401 0.001107280905 0.00110727767 0.001107274435 0.0011072712001 0.0011072679651 
0.0011072647302 0.0011072614952 0.0011072582604 0.0011072550255 0.0011072517906 0.0011072485558 0.0011073119391 0.0011073087039 0.0011073054687 
0.0011073022336 0.0011072989985 0.0011072957634 0.0011072925283 0.0011072892932 0.0011072860581 0.0011072828231 0.0011072795881 0.0011072763531 
0.0011072731181 0.0011072698831 0.0011072666482 0.0011072634132 0.0011072601783 0.0011072569434 0.0011072537086 0.0011072504737 0.0011073138573 
0.0011073106221 0.0011073073869 0.0011073041517 0.0011073009166 0.0011072976815 0.0011072944464 0.0011072912113 0.0011072879762 0.0011072847412 
0.0011072815061 0.0011072782711 0.0011072750361 0.0011072718012 0.0011072685662 0.0011072653313 0.0011072620963 0.0011072588614 0.0011072556265 
0.0011072523917 0.0011073157755 0.0011073125402 0.0011073093051 0.0011073060699 0.0011073028347 0.0011072995996 0.0011072963645 0.0011072931294 
0.0011072898943 0.0011072866593 0.0011072834242 0.0011072801892 0.0011072769542 0.0011072737192 0.0011072704842 0.0011072672493 0.0011072640143 
0.0011072607794 0.0011072575445 0.0011072543096 0.0011073176936 0.0011073144584 0.0011073112232 0.001107307988 0.0011073047529 0.0011073015177 
0.0011072982826 0.0011072950475 0.0011072918124 0.0011072885773 0.0011072853423 0.0011072821073 0.0011072788722 0.0011072756372 0.0011072724023 
0.0011072691673 0.0011072659323 0.0011072626974 0.0011072594625 0.0011072562276 0.0011073196119 0.0011073163766 0.0011073131414 0.0011073099062 
0.001107306671 0.0011073034359 0.0011073002007 0.0011072969656 0.0011072937305 0.0011072904954 0.0011072872604 0.0011072840253 0.0011072807903 
0.0011072775553 0.0011072743203 0.0011072710853 0.0011072678504 0.0011072646154 0.0011072613805 0.0011072581456 0.0011073215301 0.0011073182948 
0.0011073150596 0.0011073118244 0.0011073085892 0.001107305354 0.0011073021189 0.0011072988838 0.0011072956486 0.0011072924136 0.0011072891785 
0.0011072859434 0.0011072827084 0.0011072794734 0.0011072762384 0.0011072730034 0.0011072697684 0.0011072665334 0.0011072632985 0.0011072600636 
0.0011073234483 0.001107320213 0.0011073169778 0.0011073137426 0.0011073105074 0.0011073072722 0.001107304037 0.0011073008019 0.0011072975668 
0.0011072943317 0.0011072910966 0.0011072878615 0.0011072846265 0.0011072813914 0.0011072781564 0.0011072749214 0.0011072716864 0.0011072684515 
0.0011072652165 0.0011072619816 0.0011073253665 0.0011073221313 0.001107318896 0.0011073156608 0.0011073124256 0.0011073091904 0.0011073059552 
0.0011073027201 0.0011072994849 0.0011072962498 0.0011072930147 0.0011072897796 0.0011072865446 0.0011072833095 0.0011072800745 0.0011072768395 
0.0011072736045 0.0011072703695 0.0011072671346 0.0011072638996 0.0011073272848 0.0011073240495 0.0011073208142 0.001107317579 0.0011073143438 
0.0011073111086 0.0011073078734 0.0011073046382 0.0011073014031 0.0011072981679 0.0011072949328 0.0011072916977 0.0011072884627 0.0011072852276 
0.0011072819926 0.0011072787575 0.0011072755225 0.0011072722876 0.0011072690526 0.0011072658176 0.001107329203 0.0011073259677 0.0011073227324 