# vtk DataFile Version 5.1
vtk output
ASCII
DATASET STRUCTURED_POINTS
DIMENSIONS 26 14 26
SPACING 0.08 0.08 0.08
ORIGIN 2.7 -0.52 0
POINT_DATA 9464
FIELD FieldData 1
potential 1 9464 double
0.030888604446 0.032172860148 0.033414804673 0.034580905808 0.035668498044 0.036693238328 0.037653851809 0.038519808269 0.039243532073 
0.039787722819 0.040155833778 0.040395173647 0.040564404939 0.040702389007 0.040809654908 0.040843311985 0.040746888967 0.040495121405 
0.040093713403 0.039557007611 0.038902569875 0.038137692485 0.037247820053 0.036218660035 0.035063227794 0.033819710836 0.032721298863 
0.033975404289 0.035191395643 0.036350546704 0.037442707574 0.038462947874 0.03940178643 0.040240998307 0.040957923756 0.041536549301 
0.04197725673 0.042296835513 0.042517924749 0.042656118736 0.042711251508 0.042667700955 0.042504967267 0.042210759422 0.041784378026 
0.041232053724 0.040562026772 0.039779567339 0.038885700485 0.037883596545 0.036786623339 0.035619515043 0.033543812566 0.034747935734 
0.035914700234 0.037030357276 0.038083490078 0.039064462557 0.039962525754 0.040764644574 0.041457657415 0.042032357401 0.042486878077 
0.042826507887 0.043059530479 0.043191817054 0.043223208467 0.043147754304 0.042957503822 0.042647248284 0.042216551424 0.04166896806 
0.041009959765 0.040245147414 0.03938018555 0.038423080235 0.037386638566 0.036289147692 0.033690979068 0.034832535749 0.03593676888 
0.036992169762 0.037988105871 0.038914385896 0.039760993767 0.040517575004 0.041174915772 0.041726196207 0.04216832691 0.042501886127 
0.042729108064 0.042851750002 0.042869546414 0.042780118078 0.042580544372 0.042269063654 0.041846409902 0.041315559507 0.040681178625 
0.039949090815 0.039126202245 0.038221373697 0.037246151551 0.036214919789 0.033348551643 0.034420907825 0.035456084169 0.036444044165 
0.03737528683 0.038240250874 0.039030040243 0.039736152667 0.040351061496 0.040868998062 0.041286435452 0.041601813491 0.041814867498 
0.041925557409 0.041933468533 0.041837680618 0.041637335836 0.041332481661 0.040924578375 0.040416655023 0.039813166162 0.03911973253 
0.038343336225 0.03749240545 0.036577156856 0.035609223018 0.032624710746 0.033625209115 0.034588890879 0.035507002028 0.036370934141 
0.037172459751 0.037903449225 0.038556718825 0.039125840077 0.039605641478 0.039992424475 0.040283837236 0.04047852771 0.040575754282 
0.040574967648 0.040475856245 0.040278479204 0.039983715912 0.039593454508 0.039110785388 0.038540001611 0.037886444719 0.037156643441 
0.036358265856 0.035500173687 0.034592093075 0.031521048642 0.032447574361 0.033338274562 0.034185238232 0.034980797203 0.035717717363 
0.036388851755 0.036987865978 0.037509147738 0.037947901478 0.038300616034 0.038564652183 0.038738283054 0.038820434096 0.038810544213 
0.038708549437 0.038514914606 0.038230838074 0.037858431831 0.037400804176 0.036861881264 0.036246748961 0.035561261816 0.034812354485 
0.03400765202 0.033155411358 0.030240118051 0.031099236758 0.031923141546 0.032705017096 0.033438064784 0.034115806064 0.034732203356 
0.035281443282 0.035758594332 0.036159512782 0.03648061467 0.036719440681 0.03687419675 0.036943672816 0.036927373016 0.036825262298 
0.036638026326 0.036367013376 0.036014390916 0.035582982976 0.035076631452 0.034499845774 0.033858057249 0.033157267071 0.032404154179 
0.031605823265 0.028916046557 0.029707839758 0.030465483936 0.031183008713 0.031854324304 0.032473649432 0.033035664838 0.033535377241 
0.033968253007 0.034330502205 0.034619079862 0.034831422934 0.034965838643 0.035021200554 0.034996989396 0.034893263504 0.034710746803 
0.034450846818 0.034115477832 0.033707513271 0.033230296869 0.0326880811 0.032085599065 0.031428214603 0.030721721235 0.029972356725 
0.027508955493 0.028235841753 0.028929766404 0.029585333439 0.030197335366 0.030760559115 0.031270145517 0.031721852715 0.032111700251 
0.032436133395 0.032692453535 0.032878322946 0.032992150949 0.033032843551 0.032999921311 0.032893532251 0.032714407719 0.032463751209 
0.032143539407 0.031756261637 0.031305157173 0.030793911194 0.030226785008 0.029608541201 0.028944209898 0.02823929254 0.026022784534 
0.02668723876 0.027320007844 0.027916201752 0.02847123033 0.028980610241 0.029439898879 0.029845352953 0.030193415822 0.030481044892 
0.030705621954 0.030865102168 0.030958066352 0.030983508188 0.030941064446 0.030830742769 0.030653247261 0.030409861167 0.030102279542 
0.029732913107 0.029304584108 0.028820590688 0.02828476466 0.027701265374 0.027074664655 0.026409642344 0.024466290895 0.025070669665 
0.02564463339 0.026183873892 0.026684264822 0.027141723924 0.027552571317 0.027913293675 0.028220736692 0.028472233682 0.028665492371 
0.028798652366 0.02887037028 0.028879788715 0.028826543565 0.028710739134 0.028533015639 0.028294564275 0.027996982978 0.027642333958 
0.027233207356 0.026772610622 0.026263883848 0.025710817349 0.025117328382 0.024487723008 0.022877156598 0.02342336883 0.023940442663 
0.024424651278 0.024872135352 0.025279399951 0.025643134498 0.025960190886 0.026227836732 0.026443651753 0.026605623853 0.026712088953 
0.026761836297 0.026754099641 0.026688574779 0.026565429996 0.026385259394 0.026149089398 0.0258583645 0.025514995069 0.025121275059 
0.024679907728 0.024193958553 0.023666685292 0.023101670736 0.022502722675 0.021202887736 0.021692263172 0.022153843863 0.022584183548 
0.022979932685 0.02333797629 0.023655306739 0.023929214152 0.024157181835 0.024337162613 0.024467267505 0.024546067605 0.024572567817 
0.024546065091 0.024466270942 0.024333361027 0.024147833052 0.023910670258 0.023623199857 0.023287213186 0.022904639462 0.02247801028 
0.022009985915 0.021503505496 0.020961794075 0.020388172922 0.031670081962 0.032986658325 0.03426246794 0.035466894371 0.036594620478 
0.037655635149 0.038646404947 0.039538774888 0.04029036025 0.040868679535 0.041276156725 0.041551820412 0.041744681741 0.0418873678 
0.041980363067 0.041988578319 0.041865850118 0.041590322669 0.041165824317 0.040605152994 0.03992393329 0.039128930949 0.038209669817 
0.037156382665 0.035981967363 0.0347214796 0.033230994531 0.03450562518 0.035742418979 0.036923127875 0.038036867306 0.039077377241 
0.04003449859 0.040890562698 0.041624228173 0.042220416933 0.04267879144 0.043013698211 0.043244873029 0.043385983062 0.043436933125 
0.043384167135 0.043209886802 0.042903309102 0.042463896808 0.041897590719 0.041212335884 0.040413652594 0.03950366531 0.038486652683 
0.037376090932 0.036195823456 0.0339078318 0.035125272996 0.036305316584 0.03743425541 0.038500428169 0.039493805889 0.040403421587 
0.041216347723 0.04191972135 0.042504453541 0.042968300825 0.043315668202 0.043553826859 0.043687982327 0.043717974426 0.043638488608 
0.043442447856 0.043125291772 0.042686854553 0.042130793122 0.041462584807 0.040688064228 0.039813261456 0.038846516513 0.037800672577 
0.036693702319 0.033967186495 0.035117640143 0.03623066509 0.037294724036 0.038299077404 0.039233394457 0.040087565822 0.040851233604 
0.041515219623 0.042072657796 0.042520258625 0.042858230902 0.04308841983 0.043212316344 0.043229644022 0.043138245867 0.042935522377 
0.042620009891 0.04219263197 0.041656481668 0.041016320468 0.040278098012 0.039448876169 0.038537633642 0.037555918506 0.036518006103 
0.033572264643 0.034650761957 0.035691973303 0.03668582844 0.037622771585 0.038493179672 0.03928810564 0.039999018145 0.040618366378 
0.041140322237 0.041561245294 0.041879403421 0.042094372422 0.04220599255 0.042213835754 0.04211707224 0.041914972306 0.041607725337 
0.041196921789 0.040685667201 0.040078496024 0.039381109149 0.038600562567 0.037745333259 0.036825637684 0.035853054853 0.032826020886 
0.033830974884 0.034799069279 0.035721466196 0.036589541681 0.037395027159 0.038129763421 0.038786536546 0.039358887664 0.039841600302 
0.040230907922 0.040524375973 0.040720574025 0.040818707971 0.040818219677 0.04071883169 0.040520665818 0.040224673941 0.039832814854 
0.039348278771 0.038775287028 0.038119357615 0.0373870119 0.036585943979 0.035725015791 0.034813930481 0.03180075467 0.032732828675 
0.033628815985 0.034480860168 0.035281202056 0.036022673429 0.036698165133 0.037301250057 0.037826333709 0.03826858675 0.038624465915 
0.038891292993 0.039067305099 0.039151404926 0.039143028855 0.03904213292 0.038849207473 0.038565501421 0.038193168156 0.03773534623 
0.037196007102 0.036580263618 0.035893995236 0.035144149871 0.034338355348 0.0334848594 0.030589898572 0.031451506717 0.032277794882 
0.033062057617 0.033797361357 0.034477253957 0.035095682936 0.035646819447 0.036125714046 0.036528201284 0.03685067499 0.037090649681 
0.037246310557 0.037316434104 0.037300519761 0.037198541693 0.037011200913 0.036739867549 0.036386732445 0.035954643671 0.035447463599 
0.034869720058 0.034226857466 0.033524885377 0.032770484086 0.03197075411 0.029268859171 0.030062462323 0.030821865641 0.031541089954 
0.03221403783 0.03283491868 0.033398404003 0.033899484849 0.034333620874 0.034697006757 0.034986525058 0.035199771687 0.035334868556 
0.035390739517 0.035366862943 0.035263301128 0.0350807868 0.034820739264 0.034485088008 0.034076719156 0.03359899015 0.033056164791 
0.03245298338 0.031794815035 0.0310874548 0.030337138313 0.027858674763 0.028587001548 0.02928231473 0.029939231702 0.030552532064 
0.031116997674 0.031627762745 0.032080577275 0.03247143778 0.032796826516 0.033053990186 0.033240598338 0.033355052619 0.033396254618 
0.033363724735 0.033257660659 0.033078651431 0.032828055677 0.032507808725 0.032120408596 0.031669101543 0.031157579801 0.03059010954 
0.029971455861 0.029306650875 0.028601194699 0.026368415632 0.027034099541 0.02766806785 0.028265427722 0.02882158467 0.029332050978 
0.029792414222 0.030198831036 0.030547822411 0.030836324334 0.03106170755 0.031221922335 0.031315544629 0.031341535469 0.031299620896 
0.031189720262 0.031012570098 0.030769456971 0.030462081294 0.030092857929 0.029664613684 0.029180651202 0.028644803965 0.028061235357 
0.027434515248 0.026769323706 0.024803023295 0.025408557913 0.025983664491 0.026524019707 0.027025499118 0.027484025648 0.027895893334 
0.028257608758 0.028566007404 0.028818418426 0.02901254772 0.029146527607 0.029219016625 0.029229154303 0.029176575823 0.02906138616 
0.028884226857 0.028646290742 0.028349178578 0.027994955529 0.027586214059 0.027125971667 0.026617545892 0.026064751603 0.025471499067 
0.024842093354 0.023157219376 0.023704662953 0.024222954471 0.024708350188 0.025157035584 0.025565468986 0.025930352878 0.026248537772 
0.026517288878 0.02673418431 0.026897209572 0.027004699028 0.02705544053 0.027048666932 0.026984073474 0.026861828399 0.026682547414 
0.026447194824 0.026157280102 0.025814693666 0.025421730971 0.024981095669 0.024495853468 0.023969263339 0.023404907594 0.022806593298 
0.02137078393 0.021861649101 0.022324714993 0.022756535291 0.023153760395 0.023513275165 0.023832068929 0.024107433492 0.024336850734 
0.024518271737 0.024649807262 0.024730027209 0.024757935284 0.024732828272 0.024654417615 0.024522878879 0.0243387105 0.024102896076 
0.023816763468 0.023482103952 0.023100848466 0.022675524006 0.022208802883 0.021703612737 0.021163182031 0.020590832373 0.033735730194 
0.035139303014 0.03650492024 0.037807246237 0.039035766858 0.040189348312 0.041259385928 0.042222224575 0.043045858479 0.043706502933 
0.044203656022 0.044560077243 0.044805855015 0.044961430821 0.045027248246 0.04498278793 0.044801007642 0.044467781529 0.043984872141 
0.043362191926 0.042611943707 0.04174082944 0.040746546791 0.039628171535 0.038398997123 0.037088046971 0.034613033811 0.035944033613 
0.037237631392 0.038476525662 0.039648122445 0.040743186252 0.041749940853 0.042651863726 0.043430447956 0.044072459383 0.044575780945 
0.04494915856 0.045205743541 0.045354885836 0.045396544767 0.045321722614 0.045118534012 0.044779794362 0.044305715769 0.043701782941 
0.042975509262 0.042133182786 0.041179507967 0.040121279149 0.03897231993 0.037754455638 0.034896396412 0.036151010284 0.037368014961 
0.038533765319 0.039635989447 0.040663670855 0.041605293749 0.042448144046 0.043180003434 0.043791987404 0.044280859589 0.044648830562 
0.044900717282 0.045040063512 0.045066697348 0.044976804131 0.044765422375 0.044429622177 0.043970036857 0.043390573405 0.042696941049 
0.041895537993 0.040993347244 0.039999541307 0.038927066811 0.037793137732 0.034714030938 0.035889601169 0.037027404677 0.038115832084 
0.039143819263 0.040100697913 0.040976106022 0.041759638737 0.042442175364 0.043016719997 0.043479420571 0.043829526377 0.044067877493 
0.044195297036 0.044211448341 0.044114742711 0.043903391449 0.043576722457 0.043136179172 0.042585184541 0.041928795099 0.041173304096 
0.040326187435 0.03939675913 0.038396571684 0.037339566089 0.034168624971 0.035264596216 0.036322920954 0.037333470608 0.038286536685 
0.039172330698 0.03998176256 0.040706257683 0.041338043789 0.041871268235 0.04230192058 0.042627824272 0.042848102558 0.042962300851 
0.042969948402 0.042870410759 0.042663369552 0.042349358938 0.041930306962 0.041409572242 0.040791899447 0.040083212917 0.0392907769 
0.038423214967 0.037490727139 0.036504756922 0.033338053139 0.034355518426 0.035335842243 0.036270125104 0.037149647334 0.037966041444 
0.038711064207 0.039377418898 0.039958544435 0.04044910824 0.040845155704 0.041144008247 0.041344048093 0.041444313041 0.041444233988 
0.041343615599 0.041142753838 0.040842798634 0.04044590579 0.039955428542 0.039375751014 0.038712507031 0.037972341155 0.037163013846 
0.036293374442 0.035373092517 0.032285580299 0.033226935267 0.03413197175 0.034992783588 0.035801560287 0.036551066848 0.037234131274 
0.037844269695 0.038375809818 0.038823837195 0.0391846933 0.039455578406 0.039634600621 0.039720643708 0.0397130787 0.039611917779 
0.039417717488 0.039131866555 0.038756621979 0.03829522729 0.037751749122 0.037131376608 0.036440066834 0.035684797503 0.034873201184 
0.034013497592 0.031070009775 0.03193846214 0.032771420545 0.033562118437 0.034303604533 0.034989370828 0.03561333801 0.036169623884 
0.036653231959 0.037059935351 0.037386058407 0.03762905904 0.037787032034 0.037858745109 0.037843674581 0.03774182002 0.037553925336 
0.037281422046 0.036926570155 0.036492276217 0.035982486026 0.035401729446 0.034755534837 0.034049919723 0.033291568177 0.032487568975 
0.029737950066 0.030536736371 0.031301204917 0.032025269058 0.032702885592 0.033328211307 0.033895888523 0.034400893091 0.034838575558 
0.035205223373 0.035497578273 0.035713220004 0.035850243007 0.035907544955 0.035884598142 0.035781476359 0.035598940519 0.035338433055 
0.035001936839 0.034592370591 0.034113132257 0.033568513374 0.032963279005 0.032302811669 0.031592910616 0.030839805272 0.028315537152 
0.029048026691 0.029747389633 0.030408186834 0.031025222561 0.031593290974 0.032107449079 0.03256345807 0.032957282051 0.033285381867 
0.033544953322 0.033733713215 0.03384997215 0.03389264352 0.033861243192 0.033755973109 0.033577439216 0.033327017875 0.033006668771 
0.032618913739 0.032167019103 0.03165469714 0.031086235921 0.030466373847 0.029800200371 0.029093165435 0.026815154504 0.0274844282 
0.028121868076 0.028722622548 0.029282014553 0.029795601721 0.030259002672 0.030668279305 0.031019970043 0.031310992862 0.031538704055 
0.031701039969 0.031796562552 0.031824240104 0.031783752093 0.03167506719 0.031498913972 0.031256588367 0.030949806078 0.030581012418 
0.030152990799 0.029669112928 0.029133200107 0.028549420962 0.027922345593 0.027256655569 0.025239462593 0.0258483489 0.026426752519 
0.026970310742 0.027474925493 0.027936506658 0.028351333614 0.028715906559 0.02902705361 0.02928209199 0.029478718124 0.02961505469 
0.029689770838 0.029701957356 0.029651288335 0.029537857482 0.029362309732 0.029125861465 0.028830072363 0.028477052296 0.028069400288 
0.027610133184 0.027102573319 0.026550536031 0.025957934552 0.025329070779 0.023578759779 0.024129714845 0.024651481796 0.025140297452 
0.025592372661 0.026004159252 0.026372296754 0.026693694534 0.026965582355 0.027185544119 0.027351554943 0.027461929044 0.027515497199 
0.027511442623 0.027449474513 0.027329760838 0.02715291808 0.0269199154 0.026632265294 0.026291861808 0.025901004495 0.025462421658 
0.024979107994 0.024454397048 0.023891909944 0.023295258327 0.021805063571 0.022300102415 0.022767332885 0.023203280665 0.023604623435 
0.023968232882 0.024291099133 0.024570509776 0.024803945594 0.024989352052 0.02512484598 0.02520897714 0.025240753925 0.025219477624 
0.02514485513 0.02501706139 0.024836594435 0.024604444922 0.024321943092 0.023990835787 0.023613124303 0.023191307282 0.022728056004 
0.022226332419 0.021689296442 0.021120302076 0.036541487044 0.038063357023 0.039548870627 0.040976239159 0.042330571665 0.043601591161 
0.044775881332 0.045833033788 0.046749308568 0.047506968979 0.048101868246 0.048543136608 0.048845113157 0.04901808266 0.049062512984 
0.048968830566 0.048724626228 0.048323441286 0.047767485554 0.047064917626 0.046226024259 0.045258894687 0.044168321449 0.042960756231 
0.041650681692 0.040262312573 0.036606988538 0.038017450071 0.039390454007 0.040709318949 0.041959727584 0.043129382878 0.0442047719 
0.045170264956 0.046009859946 0.046711682253 0.047271403373 0.047692053238 0.047980062622 0.048140417016 0.048173046476 0.048073190565 
0.047834712359 0.047454392232 0.046933817752 0.04627853918 0.045496085706 0.04459400004 0.043579713691 0.042462688837 0.041257224108 
0.039983158706 0.036369297933 0.037677820113 0.038948203806 0.040166736966 0.041320398163 0.042397047343 0.043384493037 0.044270066802 
0.045042175614 0.045691933487 0.046214819723 0.046610479788 0.046880870492 0.047027664304 0.047050597053 0.046947469966 0.046715686241 
0.046354299768 0.045865056283 0.0452524024 0.044522518337 0.043682615568 0.042740855524 0.041707414935 0.04059538507 0.039421107322 
0.035845728931 0.037058485273 0.038232878231 0.039357128971 0.040419820689 0.041409739814 0.042316248099 0.04312880874 0.043838298704 
0.044437438921 0.044921623253 0.045288905215 0.045538836339 0.045671403684 0.045686188413 0.045582235278 0.045358793052 0.045016194203 
0.044556613885 0.043983992107 0.043303844112 0.042522941281 0.04164934956 0.040692793366 0.039664846579 0.038579064953 0.035075420745 
0.036197541905 0.037281485675 0.038316965044 0.039294062933 0.040202751518 0.041033736039 0.04177829329 0.04242852078 0.042978286876 
0.043423152607 0.043760319655 0.043988310086 0.044106284251 0.044113699153 0.044010192447 0.043795925841 0.043471962352 0.04304065884 
0.04250578626 0.041872397049 0.041146744732 0.040336390094 0.039450141862 0.038498191758 0.037491823228 0.034100334009 0.035136595635 
0.03613525973 0.037087328447 0.037983942859 0.038816590414 0.03957690525 0.040257453143 0.040851546372 0.041353647347 0.041759532863 
0.042066207299 0.042271745524 0.042374994913 0.042375339094 0.042272711002 0.042067643425 0.041761547473 0.041356871023 0.040857219647 
0.0402672001 0.039592644629 0.03884032721 0.03801818945 0.037135013218 0.036200385872 0.032960120248 0.033915285293 0.034833754171 
0.035707539432 0.036528780658 0.037290085772 0.037984340867 0.038604759748 0.039145631658 0.039602082172 0.039970053005 0.040246676039 
0.040429885436 0.040518456202 0.04051174006 0.040409801384 0.040213326151 0.039923853829 0.039543855585 0.039076577054 0.038526425383 
0.037898617169 0.037199189994 0.036435210049 0.035614305836 0.03474465782 0.031691239586 0.032570041814 0.033413043461 0.034213425861 
0.034964206643 0.035658807218 0.036291026586 0.03685503319 0.037345672773 0.037758549889 0.03809013548 0.038337552507 0.038498897252 
0.038572873916 0.038558929231 0.038457112968 0.038268218801 0.037993824949 0.037636143035 0.037198323039 0.036684354345 0.036098835885 
0.035447357027 0.034735972662 0.033971363276 0.033160608329 0.030323439782 0.031130205983 0.031902411516 0.032633902916 0.033318709801 
0.033950837666 0.034524928522 0.035035883641 0.035479047956 0.035850643222 0.036147318723 0.036366604713 0.036506552375 0.036566041212 
0.036544480251 0.036442014493 0.036259469868 0.035998194301 0.035660383063 0.035248949979 0.034767364183 0.034219953349 0.033611521513 
0.032947472528 0.032233605183 0.031476153526 0.028876734526 0.029615660938 0.030321270831 0.030988140651 0.031610912906 0.032184552744 
0.032703965677 0.033164907234 0.03356330748 0.033895620685 0.034158920373 0.034350972428 0.03447001874 0.034514966773 0.034485326255 
0.034381291722 0.034203524882 0.033953372328 0.033632887272 0.033244599258 0.03279180955 0.032278260255 0.03170826502 0.031086547328 
0.030418236589 0.02970876323 0.02736231723 0.028037113961 0.028679961795 0.029285950761 0.029850404224 0.030368859439 0.030836918538 
0.031250630056 0.031606493759 0.031901423103 0.032132733417 0.032298361018 0.032396828201 0.032427088762 0.032388829905 0.032282037535 
0.032107435195 0.031866279086 0.031560492071 0.031192324246 0.030764680222 0.030280932662 0.029744913482 0.029160798537 0.028533157349 
0.027866673062 0.02578361527 0.0263976444 0.026981111787 0.027529645032 0.028039092457 0.028505393536 0.028924754697 0.029293718612 
0.02960909266 0.029868164439 0.030068620771 0.030208599528 0.030286682112 0.030302016353 0.030254236493 0.030143520451 0.029970428033 
0.029736212287 0.029442440887 0.029091250693 0.028685234679 0.028227422471 0.027721143068 0.027170181235 0.026578544485 0.025950439333 
0.024136912702 0.024693282003 0.025220338664 0.025714356969 0.026171560952 0.026588384047 0.026961464333 0.027287706438 0.027564314858 
0.027788889756 0.027959380403 0.02807409976 0.028131869048 0.028131869669 0.028073807323 0.027957868152 0.027784609229 0.027555073527 
0.027270742875 0.026933537504 0.026545785247 0.026110176401 0.025629650265 0.025107630157 0.024547640548 0.023953419775 0.022413985802 
0.022915211947 0.023388495622 0.023830508394 0.024237874697 0.024607461158 0.024936256841 0.025221555468 0.025460800663 0.025651968111 
0.02579316288 0.025882906445 0.025920231982 0.025904412579 0.025835182173 0.025712692855 0.025537450664 0.02531044594 0.025033010237 
0.0247069098 0.024334065326 0.023917106429 0.023458607374 0.022961554864 0.022429096232 0.021864606903 0.039635043247 0.041282395539 
0.042893165315 0.044446965905 0.045925986685 0.047314498606 0.04859578431 0.049750835297 0.050760242147 0.051608879165 0.052289518419 
0.052802615519 0.053152680934 0.053343566942 0.053375549748 0.053245115162 0.052948156015 0.052483737896 0.051855881425 0.05107264158 
0.050144171393 0.04908052889 0.047891301679 0.046587733847 0.045185678776 0.043706666263 0.038935169114 0.040433697574 0.041893951267 
0.04329936586 0.044634244141 0.0458839574 0.047033717245 0.048068107356 0.048972540149 0.049735601395 0.050350948804 0.050817167247 
0.05113570416 0.051308211244 0.051334459153 0.051212515569 0.050940355556 0.050517951882 0.049948556307 0.049238353308 0.048395443634 
0.047428771471 0.046348063296 0.045164861992 0.04389399463 0.042553910894 0.038155218416 0.039525626613 0.040856947045 0.042135263263 
0.043346900169 0.044478677182 0.045517747361 0.046451390584 0.047268213785 0.047959122907 0.048518289628 0.048943105724 0.04923309422 
0.049388282995 0.04940824253 0.04929205334 0.049039079515 0.048650137818 0.048128217453 0.047478506057 0.046707822209 0.045824326468 
0.044837291172 0.043757834631 0.042599199162 0.041377009075 0.037250928361 0.038507516544 0.039724897219 0.040890997134 0.041994089638 
0.04302244955 0.043965015824 0.044811238239 0.045551687251 0.04617877302 0.046687114395 0.047073561356 0.047336470186 0.047475006131 
0.047488652122 0.047376993467 0.047140255647 0.046779736113 0.046298419501 0.045700861162 0.044993147846 0.044182554831 0.043277813395 
0.042289007637 0.041227853125 0.040107459422 0.036214743303 0.037368254898 0.038482889204 0.039548147302 0.040553821523 0.041489757316 
0.042346313271 0.043114587814 0.043786524627 0.044355636526 0.044817019305 0.045167231923 0.045404172917 0.045526605327 0.045533910114 
0.045425976743 0.045203425349 0.044867886754 0.04442223495 0.043870638924 0.043218571735 0.042472675875 0.041640800871 0.040731968656 
0.039756391275 0.038725166344 0.035056027535 0.036115167132 0.037136092257 0.038109693166 0.039026946101 0.039879182 0.040657885426 
0.0413554523 0.041965099342 0.042480890961 0.042898442028 0.04321436496 0.043426417602 0.043533205198 0.043534078788 0.043429092099 
0.043219025131 0.042905602693 0.042491581723 0.041980864988 0.041378311629 0.040689994793 0.03992287374 0.039084984504 0.03818514103 
0.037232819846 0.033791212964 0.034763340532 0.035698219736 0.036587866538 0.037424287667 0.038199992611 0.038907743358 0.039540650143 
0.040092874061 0.040559372872 0.040935907562 0.041219404823 0.041407617383 0.041499204596 0.041493501414 0.041390584206 0.041191329177 
0.040897435168 0.040511559271 0.04003714156 0.03947875147 0.038841700034 0.03813229314 0.03735750884 0.036525013063 0.035642966674 
0.032438527817 0.033330135929 0.034185581088 0.034997924578 0.035760171396 0.036465586204 0.037107950998 0.037681415746 0.038180642697 
0.038601163305 0.038939297676 0.039192132068 0.039357587456 0.039434320119 0.039421766121 0.03931999376 0.039129886892 0.038853119661 
0.038491995159 0.038049861883 0.037530724129 0.036939312385 0.036281269568 0.035562713203 0.034790275707 0.033971073497 0.031014699135 
0.031831454661 0.032613330735 0.033354133277 0.03404786751 0.034688437516 0.035270496095 0.035788856975 0.036238858511 0.036616533132 
0.036918571491 0.03714239236 0.037285992422 0.037348190242 0.037328409407 0.037226802748 0.03704423611 0.03678212516 0.036442748019 
0.03602903692 0.035544580214 0.034993740451 0.034381363686 0.033712867715 0.032994096044 0.032231210226 0.029532339682 0.03027938009 
0.030992845635 0.031667298957 0.032297359455 0.032877936713 0.033403947114 0.033871071023 0.034275206009 0.034612767645 0.034880786587 
0.035076951978 0.035199501081 0.035247375549 0.035219979403 0.035117549761 0.034940786785 0.034691058221 0.034370400856 0.033981578065 
0.03352773439 0.033012713837 0.032440866683 0.031816867224 0.031145939126 0.030433406603 0.027999693924 0.028681504211 0.029331122816 
0.029943720906 0.030514581172 0.031039122746 0.031513071955 0.031932315901 0.03229344378 0.032593261293 0.032829103931 0.032998866194 
0.033101042986 0.033134631881 0.033099163784 0.032994774798 0.032822161693 0.032582594779 0.032277999942 0.031910680131 0.031483551577 
0.031000004285 0.030463876732 0.029879391818 0.029251032483 0.028583553398 0.02642092575 0.027041458254 0.027631267786 0.028186055811 
0.028701555614 0.029173705282 0.029598754768 0.029973193156 0.030293829647 0.030557926442 0.030763133541 0.030907633056 0.030989932276 
0.03100919726 0.030965051249 0.03085762365 0.030687629731 0.030456185905 0.03016493024 0.029815997982 0.029411998964 0.028955970671 
0.028451271488 0.027901617667 0.027311099974 0.026683847643 0.024797360699 0.025360302421 0.025893941037 0.026394326562 0.02685781879 
0.027280804977 0.027659943659 0.027992076751 0.02827445206 0.028504658332 0.028680572042 0.028800565076 0.02886340365 0.028868291424 
0.028814976687 0.028703558423 0.028534640463 0.028309247826 0.028028896183 0.027695481649 0.027311348685 0.026879122537 0.026401921625 
0.025883014723 0.025325964134 0.024734488153 0.023131012 0.02363955826 0.024120144759 0.024569300032 0.024983809518 0.025360410803 
0.025696201371 0.025988376971 0.026234449541 0.026432341062 0.026580149261 0.026676446425 0.02672019528 0.026710678987 0.026647643579 
0.026531237162 0.026361969731 0.026140815591 0.025869136776 0.025548576819 0.02518128715 0.024769689175 0.024316450782 0.023824516384 
0.02329707733 0.022737451851 0.042728894335 0.044491616431 0.04621619969 0.047882426802 0.049470758844 0.050962545973 0.052339115504 
0.053581752538 0.054672678235 0.055597393766 0.056346482263 0.056915410789 0.057303146677 0.05750985713 0.057535397032 0.057379165091 
0.057041310345 0.056524394854 0.055834244938 0.0549796988 0.053971657758 0.052822014473 0.051543389727 0.05014996343 0.048658764187 
0.04709011778 0.041376653286 0.04295992368 0.044503457299 0.045990458481 0.047404278561 0.048728799147 0.04994826549 0.051047136356 
0.052011326772 0.052829265894 0.053492997574 0.053998151247 0.05434289954 0.054526736603 0.054549139345 0.054409769586 0.054109093383 
0.053649371307 0.053035295531 0.052273996361 0.051374415535 0.050346787089 0.049202513403 0.047954658014 0.046618493957 0.045211680673 
0.040096446237 0.041528676554 0.04292051854 0.044257754405 0.045526194129 0.046711839089 0.047801348519 0.048781790808 0.049641699717 
0.050371581047 0.050964499879 0.051416160043 0.051724276135 0.051887615228 0.051905608293 0.05177812855 0.05150591061 0.051091165619 
0.050537969742 0.049852314172 0.049041761322 0.04811532783 0.047083228754 0.045957316631 0.044751007311 0.043479439247 0.038817956102 
0.040119691351 0.041381080023 0.042589840467 0.04373389418 0.04480114012 0.045780158444 0.046660199166 0.047431537439 0.048086245968 
0.048618219261 0.049023300587 0.049298877799 0.049443470525 0.049456361344 0.04933760339 0.049088131231 0.048710135538 0.048207271722 
0.04758474478 0.046849193649 0.046008465313 0.04507182153 0.044049691796 0.042953881471 0.041797200582 0.03750627473 0.038692889329 
0.039839705097 0.040936058261 0.041971498737 0.042935711674 0.043818684057 0.04461139281 0.045305661175 0.045894567342 0.046372686525 
0.046736106843 0.046982152189 0.047109221121 0.047116614722 0.047004425973 0.046773676932 0.046426505855 0.04596623025 0.045397522088 
0.044726144153 0.043959205174 0.043104822741 0.042172212041 0.041171606189 0.040113950599 0.036147381237 0.03723100244 0.038275740867 
0.039272274796 0.040211388709 0.041084301133 0.041882451373 0.042597943589 0.04322385068 0.043754012191 0.044183747668 0.044509299631 
0.044728154799 0.044838721363 0.044840275412 0.044732986117 0.044517856621 0.044196909929 0.043773210964 0.04325093384 0.042635229971 
0.041932383248 0.04114954141 0.040294852104 0.039377134331 0.038405779197 0.034739190657 0.035729743939 0.036682434964 0.037589203647 