# vtk DataFile Version 5.1
vtk output
ASCII
DATASET STRUCTURED_POINTS
DIMENSIONS 26 14 26
SPACING 0.08 0.08 0.08
ORIGIN 2.7 -0.52 0
POINT_DATA 9464
FIELD FieldData 1
potential 1 9464 double
0.0011867768539 0.0011588141033 0.0011318065771 0.0011057825656 0.0010807124794 0.0010565758926 0.0010333750505 0.001011136488 0.00098981947891 
0.00096945012932 0.00095003249944 0.00093156592069 0.00091404919717 0.00089748218077 0.00088186102988 0.00086717000562 0.00085339956909 0.00084053247267 
0.00082853473578 0.00081736278301 0.00080698160721 0.00079733395273 0.00078836102896 0.00077998420279 0.00077214885529 0.00076477934546 0.0012417604782 
0.0012115166953 0.0011823036539 0.0011541019957 0.0011269052656 0.0011007014917 0.0010754571496 0.0010511884855 0.0010278898414 0.0010055562589 
0.00098419327119 0.00096378293374 0.00094432749446 0.00092581835017 0.00090824544787 0.00089159792129 0.00087584391713 0.00086097125775 0.00084694715875 
0.00083374109182 0.00082130178154 0.00080958459333 0.00079853726406 0.00078810414308 0.00077821908357 0.00076884157141 0.0012777438721 0.0012457808239 
0.0012148889947 0.0011850661398 0.0011562616125 0.0011284675709 0.001101683286 0.0010758974945 0.001051098726 0.0010272874167 0.0010044473835 
0.00098256913448 0.00096164611629 0.00094166686396 0.00092262628411 0.00090448345805 0.00088722868624 0.00087083139993 0.00085527503256 0.00084052252596 
0.00082652476025 0.00081324478595 0.00080063389822 0.000788645483 0.0007772226073 0.00076633335577 0.0013120911507 0.0012788740664 0.0012467290964 
0.0012156644059 0.001185663425 0.0011566992842 0.0011287642877 0.0011018429746 0.0010759276628 0.0010510035704 0.001027059858 0.0010040803687 
0.00098205649071 0.00096097509509 0.00094081523811 0.00092155006895 0.00090316380287 0.00088562961379 0.00086890742309 0.0008529881701 0.00083781490334 
0.00082335699086 0.00080956808768 0.00079640886524 0.00078383650257 0.00077180212257 0.0013334012135 0.0012992503306 0.0012662165537 0.0012342762307 
0.0012034217348 0.0011736174183 0.0011448545945 0.001117122104 0.0010904008969 0.0010646737387 0.0010399320103 0.0010161565734 0.00099333736987 
0.00097144626053 0.00095047574256 0.00093039250189 0.0009111780895 0.0008928047554 0.00087524296237 0.00085846204299 0.0008424238347 0.00082709898326 
0.00081244612299 0.00079842650405 0.00078500399601 0.00077214134896 0.00133969868 0.0013049490773 0.0012713268707 0.0012388078655 0.0012073869913 
0.0011770233268 0.0011477145596 0.0011194366125 0.0010921733471 0.0010659110114 0.0010406310216 0.0010163196041 0.000992951505 0.0009705183562 
0.00094898710386 0.00092834070415 0.00090855374923 0.00088959858843 0.00087144666969 0.00085406921591 0.00083743519552 0.00082149695548 0.00080623688247 
0.00079161265557 0.00077759051712 0.00076413346592 0.0013256353366 0.0012904385221 0.0012563844585 0.0012234555071 0.0011916320226 0.0011608852335 
0.0011311956087 0.0011025449751 0.0010749159819 0.0010482972956 0.0010226588532 0.00099798445676 0.00097425807418 0.00095146528774 0.00092957022883 
0.00090855436993 0.00088839375215 0.00086905945409 0.00085052577959 0.00083276004043 0.00081573757149 0.00079941379804 0.00078375590338 0.00076874244968 
0.00075433758654 0.00074050152249 0.0013021598525 0.0012671412693 0.0012332523186 0.0012004754667 0.0011688024853 0.0011381909727 0.0011086304531 
0.0010801028601 0.0010525939971 0.0010260830606 0.0010005441129 0.00097596343291 0.00095232340934 0.0009296043718 0.00090777375856 0.00088681349418 
0.00086669646641 0.00084739663347 0.00082888938595 0.00081114109921 0.00079412672176 0.00077780505246 0.00076215042069 0.00074712999567 0.00073270106458 
0.00071886131363 0.0012766303035 0.0012418995372 0.0012082982014 0.0011758090772 0.0011444039783 0.001114059965 0.0010847630408 0.0010564977361 
0.0010292406382 0.0010029759504 0.00097767934081 0.0009533370581 0.00092993067029 0.00090742775776 0.00088581245006 0.00086505843476 0.00084514077329 
0.00082603605229 0.00080771223873 0.00079014063049 0.00077329102055 0.00075713839042 0.00074164230798 0.00072677094895 0.00071250287506 0.00069880313256 
0.0012450581504 0.0012108575588 0.001177773605 0.0011457974345 0.0011148846911 0.0010850347126 0.001056221814 0.0010284260851 0.0010016380187 
0.00097583105936 0.00095098861276 0.00092709026241 0.00090412321063 0.00088205264348 0.00086085910825 0.00084052454569 0.00082101982573 0.00080231824333 
0.00078438973954 0.0007672058411 0.00075073732818 0.00073495731213 0.00071982608907 0.00070531249383 0.00069139926856 0.00067805432634 0.0012076621588 
0.0011742311698 0.0011419082336 0.0011106675011 0.0010804876584 0.0010513531356 0.0010232439651 0.00099614859099 0.00097004935063 0.00094492348902 
0.00092075352512 0.00089752072654 0.00087521266871 0.00085379132189 0.00083324701105 0.00081355208931 0.0007946810869 0.00077660460323 0.00075929467186 
0.0007427238232 0.00072685686348 0.00071166994369 0.00069711829987 0.00068318780418 0.00066984314314 0.00065705916592 0.0011672429978 0.0011348381105 
0.0011035107279 0.0010732528417 0.0010440392066 0.0010158548692 0.00098868876127 0.00096252378128 0.00093734464307 0.00091312886883 0.00088986272194 
0.0008675316196 0.00084610590729 0.00082557347597 0.00080591047747 0.00078709011947 0.00076908852894 0.00075187730154 0.0007354260149 0.00071970323426 
0.0007046784878 0.00069031876532 0.0006765966043 0.00066347786508 0.00065093451735 0.00063894172192 0.0011400817302 0.0011089487275 0.0010788738401 
0.0010498539927 0.0010218568318 0.00099487502634 0.00096889957916 0.00094391445172 0.00091989902743 0.00089684218904 0.0008747260634 0.00085354096527 
0.00083325956516 0.00081386709953 0.0007953391268 0.0007776526341 0.00076078177317 0.00074469717208 0.00072936743623 0.00071476121711 0.00070084625705 
0.0006875817521 0.00067495344776 0.00066291164468 0.00065143270389 0.00064048927966 0.0011108097876 0.001081230046 0.0010526878906 0.0010251780412 
0.00099867259609 0.00097316872331 0.0009486537719 0.00092511769226 0.00090254307794 0.0008809191191 0.00086023835074 0.00084047510472 0.00082161926557 
0.0008036521868 0.0007865508325 0.00077029508017 0.0007548521539 0.0007401966378 0.0007262963259 0.0007131177634 0.00070061790832 0.00068877452018 
0.00067754879034 0.00066689698369 0.00065679293019 0.00064720842355 0.0012328519579 0.0012045221077 0.0011771536548 0.0011507745233 0.0011253547409 
0.0011008734696 0.0010773325273 0.0010547580069 0.0010331087508 0.0010124104271 0.00099266666376 0.00097387637734 0.0009560379646 0.00093915087298 
0.00092321086548 0.00090820182458 0.00089411383358 0.000880929287 0.00086861388173 0.00085712379511 0.00084642387524 0.00083645690045 0.00082716431094 
0.00081846791851 0.00081031367618 0.00080262652158 0.0013240237542 0.0012935175633 0.0012640471158 0.0012355927917 0.0012081478399 0.001181699991 
0.0011562153967 0.0011317099758 0.0011081777411 0.0010856134085 0.001064022171 0.0010433857912 0.0010237061983 0.0010049744915 0.00098718032943 
0.00097031257926 0.00095433913291 0.00093924758401 0.00092500496281 0.00091158061025 0.00089892320894 0.00088698818286 0.00087572344186 0.00086507361328 
0.00085497288908 0.000845381095 0.0013782395341 0.0013460708767 0.0013149775626 0.0012849571401 0.0012559587353 0.0012279742688 0.0012010027575 
0.001175032687 0.0011500523327 0.0011260618631 0.0011030448514 0.0010809915664 0.0010598952124 0.0010397440948 0.0010205329144 0.0010022205537 
0.00098479713617 0.00096823194188 0.00095250829226 0.00093758906123 0.00092342512026 0.00090997957389 0.00089720383911 0.00088505148175 0.00087346577531 
0.00086241501071 0.0014149236687 0.0013815365083 0.0013492249526 0.0013179969834 0.0012878358431 0.0012587144705 0.001230624967 0.0012035516713 
0.0011774866879 0.0011524150336 0.0011283256667 0.0011052022485 0.0010830359703 0.0010618135363 0.0010415138372 0.0010221098775 0.0010035857445 
0.00098591451002 0.00096905602753 0.00095300119235 0.00093769306221 0.00092310104224 0.0009091788777 0.00089588735237 0.00088318377787 0.00087101940534 
0.0014368107182 0.0014025153305 0.0013693400634 0.0013372611158 0.0013062706947 0.001276332999 0.0012474391739 0.0012195778844 0.0011927299141 
0.0011668778691 0.0011420129585 0.0011181158953 0.0010951764753 0.0010731664191 0.0010520780979 0.0010318780876 0.0010125478472 0.00099405955705 
0.00097638362959 0.0009594893778 0.00094333864181 0.00092790210454 0.00091313845652 0.00089900902757 0.00088547777155 0.00087250752109 0.0014440824617 
0.001409215548 0.0013754788197 0.0013428479525 0.0013113177314 0.0012808471105 0.0012514336246 0.0012230530602 0.0011956891444 0.0011693279801 
0.0011439508598 0.001119543887 0.0010960816855 0.0010735557793 0.0010519330199 0.001031196282 0.0010113200936 0.00099227675508 0.00097403768662 
0.00095657409735 0.00093985496983 0.00092383268045 0.00090848966355 0.00089378365489 0.00087968096132 0.00086614463873 0.001437220927 0.0014020764986 
0.0013680641351 0.0013351688607 0.0013033727059 0.0012726480307 0.0012429761084 0.0012143393621 0.0011867208827 0.0011601096729 0.0011344759474 
0.0011098037249 0.0010860771437 0.0010632819326 0.0010413823553 0.0010203600025 0.0010001910238 0.00098084660926 0.00096230116656 0.00094452212448 
0.00092748493049 0.00091114513588 0.00089547004541 0.00088043834743 0.00086601430582 0.00085215824572 0.001419767572 0.0013846478081 0.0013506595247 
0.0013177850746 0.0012860161056 0.0012553101125 0.0012256565033 0.0011970370977 0.0011694375893 0.0011428370579 0.0011172094869 0.0010925410493 
0.0010688140449 0.0010460087327 0.0010240924832 0.0010030471675 0.00098284563639 0.0009634618189 0.00094487108824 0.00092703982607 0.00090994299222 
0.00089353941104 0.00087780343959 0.00086270228239 0.0008481932655 0.00083427409474 0.0013950546038 0.0013602156184 0.0013265078269 0.0012939138897 
0.0012624055105 0.0012319596463 0.0012025621838 0.0011741975442 0.0011468422042 0.0011204802715 0.0010950873214 0.0010706495063 0.0010471483208 
0.001024551273 0.0010028424324 0.0009819954438 0.00096198533313 0.00094278866224 0.00092437339714 0.00090671084091 0.00088977080327 0.00087352823406 
0.00085794289642 0.0008429828395 0.00082862670228 0.00081483955297 0.0013633796219 0.0013290689524 0.0012958764967 0.0012637932772 0.0012327748393 
0.0012028203998 0.0011739041556 0.0011460061014 0.0011191166097 0.0010932090374 0.0010682666901 0.0010442690656 0.0010212032869 0.00099903447506 
0.00097774312639 0.00095731113144 0.00093770933614 0.00091891102335 0.00090088613683 0.00088360621672 0.00086704206657 0.0008511668303 0.00083594084482 
0.00082133298146 0.000807326005 0.00079388785431 0.0013249512436 0.0012914070149 0.0012589721987 0.0012276208339 0.0011973314875 0.0011680884618 
0.0011398716818 0.0011126694689 0.0010864640452 0.0010612325574 0.001036957426 0.0010136198239 0.0009912072446 0.00096968159745 0.00094903313876 
0.00092923418758 0.00091025924994 0.00089207892013 0.00087466524004 0.00085799076063 0.00084202033338 0.00082673014938 0.00081207549841 0.00079804229142 
0.00078459525575 0.00077170926386 0.001280506515 0.0012479781901 0.0012165325266 0.0011861573421 0.0011568272579 0.0011285271934 0.0011012459447 
0.0010749662781 0.0010496727791 0.00102534286 0.001001962664 0.00097951750605 0.00095797763999 0.00093733086867 0.00091755328882 0.0008986180632 
0.00088050129084 0.00086317456296 0.00084660747463 0.00083076863029 0.00081562760873 0.00080115146693 0.00078731280545 0.00077407755137 0.00076141776001 
0.00074930850982 0.0012289781509 0.001197715135 0.0011675110145 0.0011383625605 0.0011102372689 0.0010831276467 0.0010570243461 0.0010319117352 
0.0010077684925 0.0009845835326 0.00096233884511 0.00094102461025 0.00092061337922 0.00090109027957 0.00088243081218 0.00086461187641 0.00084760759385 
0.00083138858347 0.000815923472 0.00080118095569 0.00078712884852 0.00077372644086 0.00076095956561 0.0007487786188 0.00073716002551 0.00072607646942 
0.0011509207072 0.0011211935417 0.0010925042306 0.0010648472959 0.0010381946416 0.0010125432326 0.00098788021315 0.00096419532469 0.00094147096823 
0.00091969613146 0.00089886315748 0.00087894619397 0.00085993495831 0.00084181065256 0.00082455011189 0.00080813310377 0.00079252678834 0.00077770570542 
0.00076363765169 0.00075028921642 0.00073761744715 0.00072560021096 0.00071419883219 0.00070336969643 0.00069308671135 0.00068332168654 0.001346796241 
0.0013174698887 0.0012891232072 0.0012617830854 0.001235418467 0.0012100052113 0.0011855502962 0.0011620721636 0.0011395305433 0.0011179498418 
0.0010973333796 0.0010776760635 0.0010589779324 0.0010412363331 0.0010244458959 0.0010085894254 0.00099365593553 0.00097962681878 0.00096646688213 
0.00095413164104 0.00094258558214 0.00093177163653 0.00092163195078 0.00091208964107 0.00090309231312 0.00089456657271 0.0014344645444 0.0014032119942 
0.001373010123 0.001343838232 0.001315688821 0.001288548759 0.0012623832575 0.0012372072812 0.0012130138844 0.0011897968349 0.0011675603327 
0.001146285288 0.0011259727022 0.0011066140512 0.0010881944336 0.0010707056733 0.0010541136907 0.0010384053852 0.001023547402 0.0010095085921 
0.0009962375859 0.00098368999949 0.00097181426033 0.00096055581024 0.00094984982497 0.0009396571159 0.0014930859157 0.001460319883 0.0014286413554 
0.0013980473646 0.0013684838931 0.0013399490759 0.0013124342224 0.0012859299892 0.0012604232143 0.0012359135113 0.0012123837396 0.0011898234667 
0.0011682251869 0.001147576535 0.0011278716115 0.0011090687222 0.0010911574785 0.0010741067274 0.0010578994733 0.0010424984032 0.0010278543751 
0.0010139306606 0.0010006780459 0.00098805360268 0.00097599822871 0.00096448180861 0.0015313276799 0.0014974401505 0.0014646385404 0.0014329302911 
0.0014022980932 0.0013727143213 0.0013441704797 0.0013166503172 0.0012901453103 0.0012646398822 0.0012401221871 0.0012165759791 0.0011939912429 
0.0011723544027 0.0011516438637 0.0011318322077 0.0011129031504 0.0010948294684 0.0010775708211 0.0010611166534 0.0010454140362 0.0010304285065 
0.001016115439 0.0010024358415 0.00098934751932 0.00097680206332 0.0015536407149 0.0015189138865 0.0014853160629 0.0014528230017 0.0014214264178 
0.0013910900562 0.001361804566 0.0013335580918 0.0013063309252 0.0012801085767 0.0012548716206 0.0012306104572 0.0012073110753 0.0011849447822 
0.0011635035775 0.001142953714 0.0011232763805 0.0011044435543 0.0010864255011 0.0010691914782 0.001052703335 0.0010369318648 0.0010218359229 
0.0010073770726 0.00099351951394 0.00098022632042 0.0015619494828 0.0015267061568 0.0014926008307 0.0014596087877 0.0014277243754 0.0013969061703 
0.0013671512444 0.0013384349717 0.0013107406714 0.0012840540065 0.0012583558941 0.0012336320632 0.0012098567657 0.0011870211962 0.0011650919153 
0.0011440515468 0.0011238744183 0.0011045326752 0.0010859976444 0.0010682404828 0.0010512302028 0.0010349192549 0.0010192902005 0.0010043009281 
0.00098991791982 0.00097610438478 0.0015577733878 0.0015222938212 0.0014879531153 0.0014547359091 0.0014226238632 0.0013915889565 0.0013616120842 
0.0013326753088 0.0013047613409 0.0012778588049 0.001251937596 0.0012269814127 0.0012029740744 0.0011799010315 0.0011577263165 0.0011364313213 
0.0011159920287 0.001096379522 0.0010775669211 0.0010595252506 0.0010422263608 0.0010256270814 0.0010096948031 0.00099440833614 0.00097973204945 
0.00096562639727 0.0015430177453 0.001507571112 0.00147326189 0.0014400720882 0.001407992979 0.001376981744 0.0013470274393 0.00131811154 
0.0012902194079 0.0012633297699 0.0012374163699 0.0012124650614 0.0011884578745 0.0011653748534 0.0011431831627 0.0011218645097 0.0011013916305 
0.0010817383628 0.0010628800229 0.0010447830063 0.0010274223008 0.0010107568012 0.00099476094085 0.00097940202356 0.00096463748531 0.00095046508461 
0.0015193428285 0.0014841773946 0.0014501485935 0.0014172386164 0.0013854188399 0.0013546659149 0.0013249699241 0.0012963030578 0.0012686499283 
0.0012419949816 0.001216311797 0.0011915862416 0.0011677995922 0.0011449191428 0.0011229287854 0.0011018009884 0.0010815138232 0.0010620406273 
0.001043350414 0.0010254145015 0.0010082027487 0.00099169016991 0.00097583662842 0.0009606102752 0.00094598981811 0.00093194039007 0.0014874225483 
0.0014527834431 0.0014192672957 0.001386864762 0.001355531098 0.0013252651623 0.0012960408019 0.0012678377311 0.0012406459664 0.0012144386069 
0.0011891986624 0.0011649053783 0.0011415456434 0.0011190843881 0.0010975019592 0.0010767800996 0.0010568895856 0.001037803665 0.0010194922906 
0.0010019270426 0.00098507879387 0.00096892078464 0.0009534134725 0.0009385258368 0.00092424070931 0.00091052610602 0.0014471802473 0.0014132994107 
0.001380532101 0.001348852027 0.0013182374042 0.0012886721583 0.0012601358981 0.0012326165842 0.0012060960991 0.0011805513015 0.0011559643234 
0.0011323160592 0.0011095937636 0.0010877591686 0.0010668023303 0.00104669547 0.0010274130252 0.0010089255775 0.00099120519574 0.0009742244932 
0.00095794845665 0.00094235339636 0.00092739476194 0.00091305857961 0.00089930969896 0.00088612306369 0.0013975193828 0.0013646372996 0.0013328413225 
0.0013021188607 0.0012724441442 0.0012438017214 0.00121617999 0.001189561331 0.0011639299541 0.0011392629532 0.0011155461212 0.0010927644771 
0.00107088801 0.0010499042688 0.0010297891944 0.001010515824 0.00099206018082 0.00097439384942 0.0009574864825 0.00094130680537 0.00092582455053 
0.00091100697691 0.00089682687435 0.00088325037071 0.00087024967232 0.0008577999409 0.0013344705133 0.0013028240813 0.0012722396954 0.0012427117544 
0.0012142092448 0.0011867235614 0.0011602448884 0.0011347571297 0.0011102385692 0.001086676641 0.0010640560237 0.0010423634323 0.0010215721072 
0.0010016668956 0.00098262306781 0.00096441735759 0.00094702378881 0.00093041297071 0.00091455360864 0.00089941454606 0.00088496382137 0.00087116101555 
0.0008579922301 0.00084540815492 0.00083338541893 0.00082189681222 0.0012488441318 0.0012186854117 0.0011895657109 0.0011614790519 0.0011343966529 
0.001108314904 0.0010832204963 0.0010591025146 0.0010359428184 0.0010137298265 0.00099245534662 0.00097209301605 0.00095263209476 0.00093405337644 
0.00091633335668 0.00089945152151 0.00088337488779 0.0008680779106 0.00085352844068 0.00083969324213 0.00082652966973 0.00081401594804 0.00080211383393 
0.0007907801119 0.00077998896917 0.00076971232426 0.0014987536435 0.0014679960046 0.001438247103 0.0014095322681 0.0013818194336 0.0013550807737 
0.0013293232654 0.0013045627728 0.0012807570997 0.0012579286909 0.0012360789229 0.001215200859 0.0011952927051 0.0011763500144 0.0011583656776 
0.001141320863 0.0011252031796 0.0011099919552 0.0010956514968 0.0010821357135 0.0010694092046 0.001057415105 0.0010460967522 0.0010353793216 
0.0010252129644 0.0010155268448 0.0015727818827 0.0015403915235 0.0015090753841 0.001478811603 0.0014495913374 0.0014214001093 0.0013942016516 
0.0013680094261 0.0013428149742 0.0013186105663 0.0012953986142 0.0012731593345 0.0012518916179 0.0012315857821 0.0012122256719 0.0011938078762 
0.0011762792162 0.0011596436177 0.0011438609703 0.0011288996335 0.001114708157 0.0011012425188 0.0010884519972 0.0010762833245 0.0010646732119 
0.0010535840049 0.0016262682045 0.0015925617477 0.0015599634616 0.001528466195 0.0014980171497 0.0014686151395 0.0014402474373 0.0014129044536 
0.0013865718652 0.0013612480204 0.0013369146415 0.0013135601793 0.0012911759984 0.0012697486697 0.0012492713487 0.0012297014383 0.0012110277563 
0.001193218488 0.0011762561671 0.0011601032187 0.0011447105129 0.0011300409299 0.0011160479012 0.0011026872649 0.0010899015764 0.0010776623781 
0.0016621803035 0.0016274894221 0.0015939011683 0.0015614221158 0.0015300340686 0.0014997084969 0.0014704359447 0.0014421992136 0.0014149887699 
0.0013887880835 0.001363584362 0.001339360475 0.0013161055068 0.0012938050921 0.0012724368635 0.0012519727353 0.0012323958393 0.0012136784948 
0.0011957800689 0.001178689837 0.0011623549034 0.0011467399704 0.0011318040179 0.0011175053918 0.0011038035806 0.0010906507664 0.001683241458 
0.0016478099143 0.0016135217985 0.0015803511365 0.0015482919018 0.0015173040513 0.00148737845 0.001458502401 0.0014306554009 0.0014038221679 
0.00137798255 0.0013531261449 0.0013292382785 0.0013062895934 0.0012842714944 0.0012631497184 0.0012429050265 0.0012235090771 0.0012049319085 
0.0011871417869 0.0011701033133 0.0011537847327 0.001138146077 0.0011231492829 0.0011087590479 0.0010949385115 0.00169126457 0.0016553886228 
0.0016206634849 0.0015870636345 0.0015545828016 0.001523178669 0.001492847838 0.0014635649192 0.0014353125712 0.0014080757424 0.0013818347428 
0.0013565746951 0.0013322692498 0.0013089090692 0.0012864602464 0.0012649050023 0.0012442173442 0.0012243691716 0.0012053316651 0.0011870747355 
0.0011695709428 0.0011527693621 0.0011366531957 0.001121182766 0.0011063236184 0.0010920370216 0.001687695881 0.001651633719 0.0016167224986 
0.0015829435237 0.0015502805668 0.0015187040868 0.0014881943668 0.0014587328873 0.0014303017436 0.0014028905895 0.0013764638831 0.0013510097296 
0.0013265097941 0.0013029490789 0.0012802912473 0.0012585173739 0.0012376031763 0.0012175195709 0.0011982395542 0.0011797341064 0.001161975129 
0.0011449195676 0.0011285349547 0.0011128004974 0.0010976761374 0.0010831351443 0.0016738146287 0.0016378137679 0.0016029601 0.0015692355068 
0.0015366302134 0.0015051010365 0.0014746364592 0.0014452173953 0.0014168303511 0.0013894484242 0.0013630500257 0.0013376188041 0.0013131363512 
0.0012895823636 0.0012669236721 0.0012451425727 0.0012242080265 0.0012040993708 0.0011847878899 0.0011662410307 0.001148433826 0.0011313263006 
0.0011148899586 0.0010990953141 0.001083898963 0.0010692987467 0.0016506101558 0.0016149032822 0.0015803419229 0.0015469117493 0.0015145714137 
0.0014833085984 0.0014531107457 0.0014239475111 0.0013958037013 0.0013686632343 0.0013424992213 0.0013172972075 0.0012930379763 0.0012696885227 
0.0012472322948 0.0012256420355 0.0012048951542 0.0011849650487 0.0011658207213 0.0011474335147 0.0011297733667 0.0011128153952 0.0010965196247 
0.0010808543704 0.0010657984506 0.0010513171027 0.0016185188638 0.0015833392567 0.0015492911003 0.0015163636119 0.0014845118606 0.0014537341236 
0.00142400344 0.0013952997938 0.0013676119023 0.0013409126901 0.0013151846895 0.0012904067396 0.0012665653525 0.001243625153 0.0012215650362 
0.0012003701475 0.0011800075146 0.0011604515446 0.0011416722067 0.001123641147 0.001106330508 0.0010897102145 0.0010737443903 0.0010584010326 
0.0010436630811 0.0010294986789 0.0015772922986 0.001542861834 0.0015095495281 0.0014773320394 0.0014461858571 0.001416094299 0.0013870364669 
0.0013589997209 0.0013319654584 0.0013059100186 0.0012808150919 0.0012566611291 0.0012334350054 0.0012110981747 0.0011896403757 0.0011690336801 
0.0011492524219 0.0011302671697 0.0011120511573 0.0010945737539 0.0010778035172 0.001061715943 0.0010462664166 0.0010314414755 0.0010172060623 
0.0010035352416 0.0015257101346 0.0014922524915 0.0014598870834 0.0014286004238 0.0013983661162 0.0013691682019 0.0013409944452 0.0013138266144 
0.0012876483246 0.0012624361693 0.0012381753892 0.0012148505406 0.001192431202 0.0011709043154 0.001150246229 0.0011304291553 0.0011114292267 
0.0010932180335 0.0010757654252 0.0010590400687 0.00104301222 0.0010276493825 0.0010129246569 0.00099880450225 0.00098526137868 0.00097227059772 
0.0014611235751 0.0014288576533 0.0013976607236 0.0013675220171 0.0013384127001 0.0013103227444 0.0012832416036 0.0012571523054 0.0012320329839 
0.0012078699231 0.0011846473261 0.0011623513513 0.0011409546968 0.0011204418723 0.0011007877435 0.0010819688444 0.0010639602525 0.0010467290973 
0.0010302477556 0.0010144841733 0.00099940677944 0.00098497564776 0.0009711773326 0.00095796302147 0.00094530970169 0.0009331903767 0.0013797337558 
0.0013488862334 0.001319082061 0.0012903129811 0.001262549374 0.0012357867483 0.0012100109152 0.0011852100657 0.0011613642793 0.0011384625147 
0.001116497477 0.0010954384286 0.0010752755154 0.001055988966 0.0010375548274 0.0010199522343 0.0010031480796 0.000987116787 0.00097182639708 
0.00095724405156 0.00094332768715 0.00093005617952 0.00091739205355 0.00090529281157 0.0008937331824 0.00088268538025 0.0016717635783 0.0016392881343 
0.001607859061 0.0015774997527 0.0015481760935 0.0015198575582 0.0014925500962 0.0014662657057 0.0014409601952 0.0014166534935 0.0013933444813 
0.0013710238644 0.001349687508 0.001329328689 0.0013099381128 0.0012914949291 0.0012739848037 0.0012573853427 0.0012416594265 0.0012267600747 
0.001212651601 0.0011992778335 0.0011865837481 0.0011744971578 0.0011629713785 0.0011519387362 0.0017309575634 0.0016971318917 0.0016644114437 
0.0016327728733 0.0016022056095 0.0015726934541 0.0015441981846 0.0015167313508 0.0014902825134 0.0014648419935 0.0014404101494 0.0014169654643 
0.0013945049277 0.0013730170866 0.0013524841888 0.0013329012604 0.0013142137749 0.001296424472 0.0012794923751 0.0012633855727 0.0012480518867 
0.0012334485973 0.0012195258848 0.0012062321513 0.0011935060551 0.0011813118815 0.0017757563551 0.0017408284046 0.001707030004 0.001674359062 
0.0016427598291 0.0016122285102 0.0015827542663 0.0015543225137 0.0015269185369 0.0015005390136 0.0014751641719 0.0014507809974 0.0014273793724 
0.0014049444802 0.0013834682562 0.0013629069178 0.0013432491924 0.0013244598857 0.0013065234782 0.0012894012878 0.0012730442572 0.0012574156887 
0.0012424698154 0.0012281635362 0.0012144406632 0.0012012739324 0.00180658996 0.001770830568 0.0017361962773 0.0017026929189 0.0016702998842 
0.0016389886779 0.0016087481563 0.0015795598632 0.0015514129204 0.0015242895323 0.0014981750607 0.0014730527937 0.0014489093939 0.0014257295103 
0.0014034899432 0.0013821617406 0.0013617272853 0.0013421583196 0.0013234138571 0.0013054837029 0.0012883128618 0.001271868561 0.0012561095107 
0.0012409948511 0.0012264848428 0.0012125324355 0.0018246266054 0.0017882427383 0.001753021924 0.0017189369342 0.0016859809647 0.0016541129029 
0.0016233225349 0.0015935960366 0.001564911411 0.0015372536082 0.0015106002171 0.0014849401928 0.001460257981 0.0014365233423 0.0014137268956 
0.0013918337018 0.001370823965 0.0013506688057 0.0013313383662 0.0013128004388 0.0012950186619 0.0012779648788 0.001261596146 0.0012458760002 
0.0012307701122 0.001216240742 0.0018309851268 0.0017942425906 0.0017586680589 0.0017242351605 0.0016909357227 0.0016587294337 0.0016276090532 
0.0015975492347 0.0015685317488 0.0015405405836 0.0015135601142 0.0014875600157 0.0014625277691 0.0014384484485 0.0014152875252 0.0013930266873 
0.0013716395333 0.0013510976075 0.001331370986 0.0013124323387 0.0012942513989 0.0012767784035 0.0012599968142 0.0012438672749 0.0012283556904 
0.001213422185 0.0018267066154 0.0017898386707 0.0017541369527 0.0017195820085 0.0016861567333 0.0016538307728 0.0016225835841 0.0015923958633 
0.0015632488765 0.0015351314228 0.0015080073601 0.0014818640107 0.0014566823796 0.0014324478366 0.0014091206509 0.001386684377 0.0013651134133 
0.0013443774654 0.0013244523438 0.0013053059968 0.0012869113888 0.0012692256225 0.0012522164183 0.0012358642742 0.0012201262925 0.0012049790597 
0.0018126603753 0.0017758935286 0.0017402871697 0.0017058306908 0.0016724899137 0.0016402447838 0.0016090744556 0.0015789597745 0.0015498862569 
0.0015218263159 0.0014947577524 0.0014686635435 0.0014435246921 0.0014193203897 0.0013960171383 0.0013735959927 0.001352028023 0.0013312900342 
0.0013113539862 0.0012921873486 0.0012737652137 0.001256047747 0.0012390077278 0.0012226126038 0.00120682236 0.0011916341734 0.0017894835503 
0.0017530314973 0.0017177373019 0.001683585836 0.001650534866 0.0016185719664 0.0015876832184 0.0015578377582 0.0015290232609 0.0015012126198 
0.0014743893975 0.0014485322162 0.0014236247271 0.0013996321462 0.0013765376058 0.0013543135852 0.0013329372407 0.0013123818407 0.0012926163747 
0.0012736122177 0.0012553404213 0.0012377743345 0.0012208738616 0.0012046098883 0.0011889602577 0.0011738904331 0.001757448857 0.0017215293252 
0.0016867523307 0.0016531063191 0.0016205450133 0.0015890680322 0.0015586455411 0.0015292575857 0.0015008921485 0.0014735214766 0.0014471277969 
0.0014216890729 0.0013971914263 0.0013735990772 0.0013508906215 0.0013290506256 0.0013080466767 0.0012878524432 0.0012684381375 0.0012497765795 
0.0012318367903 0.0012145922048 0.0011980060734 0.0011820467456 0.0011666969921 0.0011519256203 0.0017163735602 0.0016811925783 0.0016471396473 
0.0016141896284 0.0015823214581 0.0015515144471 0.0015217480435 0.0014930089709 0.0014652789169 0.0014385299613 0.0014127473726 0.0013879091335 
0.0013640018656 0.0013409858474 0.001318852851 0.001297572312 0.0012771192532 0.0012574642353 0.0012385805527 0.0012204377535 0.0012030046603 
0.001186257504 0.0011701506192 0.0011546721884 0.0011397869601 0.0011254701669 0.0016655218055 0.0016312852656 0.0015981475796 0.0015661010615 
0.0015351099304 0.001505163059 0.0014762457676 0.0014483390215 0.0014214256584 0.001395481625 0.0013704914441 0.0013464380367 0.001323293581 
0.0013010414103 0.001279658585 0.0012591171446 0.0012393930917 0.001220458048 0.001202282027 0.0011848339857 0.0011680845332 0.0011520016216 
0.0011365587658 0.001121722898 0.0011074667426 0.0010937659098 0.0016036709001 0.0015705764522 0.0015385582306 0.0015076046434 0.001477685878 
0.0014487910239 0.0014209085742 0.0013940206401 0.0013681044364 0.0013431456615 0.0013191275743 0.0012960356411 0.0012738419475 0.0012525304302 
0.0012320756376 0.0012124538569 0.001193640054 0.0011756014965 0.0011583107808 0.0011417362678 0.001125844681 0.0011106080955 0.0010959932112 
0.0010819678542 0.0010685041238 0.0010555778033 0.001529697154 0.0014979435788 0.0014672388854 0.0014375737525 0.001408917514 0.0013812645759 
0.0013545997904 0.0013289098316 0.0013041742134 0.0012803807151 0.0012575210626 0.0012355635325 0.0012144979699 0.0011943035029 0.0011749565563 
0.0011564338536 0.001138704328 0.0011217417941 0.0011055146596 0.0010899906656 0.0010751285992 0.0010609082526 0.0010472932118 0.001034241974 
0.0010217300485 0.0010097301429 0.0018570517818 0.0018226613221 0.0017893622247 0.0017571725195 0.0017260591157 0.0016959876552 0.0016669613686 