# vtk DataFile Version 5.1
vtk output
ASCII
DATASET STRUCTURED_POINTS
DIMENSIONS 60 20 20
SPACING 0.05 0.05 0.05
ORIGIN -0.475 -0.475 0.525
POINT_DATA 24000
FIELD FieldData 1
potential 1 24000 double
0.0019783986994 0.0019488431621 0.0019199616876 0.0018917512789 0.0019657741624 0.001934709547 0.0019043541154 0.0018746921988 0.0018457095799 
0.001817392907 0.0017897272266 0.0017626979725 0.0017362913429 0.0017104925535 0.001685287805 0.0016606624464 0.0016365997468 0.0016130819406 
0.0015900933372 0.0015676155926 0.0015456336037 0.0015241324125 0.0015030963609 0.001482508882 0.0014623543461 0.0014426140901 0.001423270205 
0.0014043044888 0.0013857040115 0.0013674550147 0.0013495522161 0.001331990347 0.001314768021 0.0012978847587 0.0012654928189 0.0012491190434 
0.0012330800248 0.0012173700064 0.0012019825915 0.0011869118682 0.0011721517609 0.0011576951763 0.0011435353184 0.0011296633248 0.0011160697614 
0.0011027460577 0.00108968261 0.001076871289 0.0010643038004 0.0010519718117 0.0010398658683 0.0010279768418 0.0010162939147 0.0010048064914 
0.0009935046489 0.00098238202185 0.000971432058 0.00096065405992 0.00095004783722 0.00093961600539 0.0019987851828 0.0019685973288 0.0019391232853 
0.0019103605441 0.0019837670422 0.0019521993572 0.001921358469 0.0018912287638 0.0018617933594 0.0018330388458 0.0018049488974 0.0017775083485 
0.0017507029583 0.0017245176872 0.0016989384855 0.0016739479158 0.001649530685 0.001625668845 0.0016023443663 0.0015795407054 0.0015572416942 
0.001535433577 0.0015141000782 0.0014932262496 0.0014727954737 0.0014527902781 0.0014331922139 0.0014139843375 0.0013951535211 0.0013766869505 
0.0013585773634 0.0013408216049 0.0013234165026 0.0013063608533 0.001272434424 0.0012558842019 0.0012396739849 0.0012237964078 0.0012082453677 
0.001193015009 0.0011780983171 0.0011634887975 0.0011491778006 0.0011351574054 0.0011214180393 0.0011079502577 0.0010947452457 0.0010817944209 
0.0010690904275 0.0010566244753 0.0010443883714 0.0010323723152 0.0010205663776 0.0010089600787 0.00099754378354 0.00098631106072 0.00097525668886 
0.00096437782272 0.00095367627889 0.00094315304851 0.0020188165777 0.0019879787428 0.0019578970923 0.0019285677874 0.002001429291 0.0019693608937 
0.0019380386725 0.0019074434871 0.0018775585711 0.0018483678744 0.0018198556263 0.0017920054105 0.0017648021057 0.0017382303599 0.001712274561 
0.0016869182034 0.00166214385 0.0016379347766 0.0016142726292 0.0015911409287 0.0015685249657 0.0015464082996 0.0015247772412 0.0015036155105 
0.0014829074388 0.0014626365715 0.0014427850926 0.0014233361019 0.0014042764549 0.0013855948485 0.0013672825446 0.0013493362556 0.0013317530864 
0.0013145301481 0.001279100207 0.0012623780751 0.0012459997226 0.0012299581189 0.0012142470048 0.0011988591386 0.0011837881242 0.0011690267193 
0.0011545660817 0.0011403977801 0.0011265129576 0.0011129017291 0.0010995559414 0.001086467461 0.001073627988 0.0010610298527 0.0010486640257 
0.0010365222192 0.0010245945115 0.0010128711283 0.0010013424765 0.00099000228084 0.00097884566773 0.00096787038762 0.00095707686353 0.00094646623517 
0.0020387718872 0.0020072609807 0.0019765484074 0.0019466334883 0.0020190388545 0.0019864684015 0.0019546623152 0.0019235996883 0.0018932640173 
0.0018636343855 0.0018346963984 0.0018064332614 0.0017788275806 0.0017518633691 0.0017255261394 0.0016997985987 0.0016746631195 0.0016501013041 
0.0016260966674 0.0016026330315 0.0015796949946 0.0015572659881 0.0015353329829 0.0015138809207 0.0014928932662 0.0014723537197 0.0014522462224 
0.0014325551422 0.0014132655455 0.0013943678082 0.0013758539812 0.0013577191149 0.0013399582178 0.0013225701319 0.0012856717753 0.0012687788727 
0.0012522328934 0.0012360280558 0.0012201567189 0.0012046114436 0.0011893849051 0.0011744704444 0.0011598595071 0.0011455430271 0.0011315113386 
0.001117756406 0.0011042691812 0.001091042035 0.0010780663333 0.0010653353048 0.0010528406451 0.0010405730414 0.0010285233396 0.001016682869 
0.001005042914 0.00099359616117 0.00098233869273 0.0009712684882 0.00096038507688 0.00094968862578 0.0020681881885 0.0020373329336 0.0020076097083 
0.0019790354931 0.0020635227614 0.0020306282245 0.0019984246085 0.001966899899 0.0019360397941 0.0019058308253 0.0018762649693 0.0018473293884 
0.0018190144946 0.001791308962 0.0017642046889 0.001737689648 0.0017117534905 0.0016863843962 0.0016615721031 0.0016373069811 0.0016135802572 
0.0015903818874 0.0015677027077 0.0015455353848 0.001523869817 0.0015026951091 0.0014820021986 0.0014617811131 0.0014420242258 0.0014227258077 
0.0014038838153 0.0013854980602 0.001367567873 0.0013500950323 0.0012731155598 0.0012560759604 0.0012394134099 0.0012231212569 0.0012071912519 
0.0011916164538 0.0011763890395 0.0011615022969 0.0011469475066 0.0011327166119 0.0011188000114 0.0011051895535 0.0010918778297 0.0010788563717 
0.0010661176301 0.0010536534968 0.0010414573107 0.0010295196068 0.0010178316837 0.0010063856372 0.00099517273827 0.00098418718849 0.00097342432374 
0.00096288162487 0.00095255883788 0.00094245521424 0.002091204076 0.0020595176917 0.0020289242932 0.001999432857 0.0020782540246 0.0020448749021 
0.0020122137183 0.0019802551753 0.0019489817777 0.0019183801736 0.0018884379951 0.0018591431096 0.0018304828947 0.0018024451603 0.0017750191987 
0.0017481941274 0.0017219568773 0.001696296603 0.0016712012623 0.0016466603882 0.001622664147 0.0015992026337 0.0015762668413 0.0015538468274 
0.0015319324291 0.0015105134725 0.0014895796824 0.0014691216253 0.0014491310492 0.001429602534 0.0014105319702 0.001391917753 0.0013737590243 
0.0013560549696 0.0012829074593 0.0012656537655 0.001248783176 0.0012322876643 0.0012161594841 0.0012003907564 0.0011849732473 0.0011698997202 
0.0011551625509 0.0011407522888 0.0011266603506 0.0011128783984 0.0010993995732 0.0010862145912 0.0010733164922 0.001060697673 0.0010483506159 
0.0010362666268 0.0010244377826 0.0010128554414 0.0010015130945 0.00099040386478 0.00097952387487 0.0009688700637 0.00095844164691 0.00094823780149 
0.002114703395 0.0020821584734 0.0020506722761 0.0020202454886 0.0020935809828 0.0020597022723 0.0020265684779 0.001994158913 0.0019624571309 
0.0019314478145 0.0019011146925 0.0018714453148 0.0018424250246 0.0018140404295 0.0017862800881 0.001759131015 0.0017325803038 0.001706616071 
0.0016812261552 0.0016563991895 0.0016321241826 0.0016083907739 0.0015851886 0.0015625070245 0.001540336485 0.001518664808 0.0014974826846 
0.0014767801581 0.0014565491009 0.0014367833299 0.0014174771743 0.0013986276836 0.0013802330815 0.0013622917213 0.0012930178352 0.0012755470255 
0.0012584653555 0.0012417636281 0.0012254344524 0.0012094686308 0.0011938585381 0.0011785960835 0.0011636733629 0.0011490813159 0.0011348123014 
0.0011208577649 0.001107209598 0.0010938599644 0.0010808017156 0.0010680269989 0.001055527867 0.0010432967058 0.0010313254753 0.0010196062215 
0.0010081323745 0.00099689819057 0.00098589937105 0.00097513226581 0.00096459558413 0.00095428859113 0.0021388830154 0.0021054548037 0.0020730529931 
0.0020416717172 0.0021096356769 0.0020752400739 0.0020416144202 0.0020087376996 0.0019765895508 0.0019451535897 0.001914413203 0.0018843525181 
0.0018549559202 0.0018262095881 0.0017980996407 0.0017706125845 0.0017437350342 0.0017174547031 0.0016917580914 0.001666633169 0.0016420685674 
0.0016180524893 0.0015945747772 0.0015716228796 0.0015491872311 0.001527255039 0.0015058167468 0.0014848619983 0.0014643820857 0.0014443707731 
0.0014248203035 0.0014057278913 0.0013870894832 0.0013689023882 0.0013035339103 0.0012858406609 0.0012685427916 0.0012516311235 0.0012350958485 
0.0012189293901 0.0012031230628 0.0011876679406 0.0011725565673 0.0011577805614 0.0011433319108 0.0011292018934 0.0011153826691 0.0011018665369 
0.0010886458438 0.0010757134317 0.0010630609367 0.0010506811821 0.0010385658133 0.001026708027 0.0010151010024 0.0010037390691 0.00099261835149 
0.0009817344891 0.00097108681776 0.00096067297964 0.0021638900451 0.0021295544008 0.0020962166325 0.00206386657 0.0021265070901 0.0020915765381 
0.0020574400273 0.0020240762308 0.0019914626926 0.0019595816644 0.0019284154078 0.001897944754 0.0018681544029 0.0018390302713 0.0018105553263 
0.0017827163613 0.001755498565 0.0017288881431 0.0017028723155 0.0016774385321 0.0016525728441 0.0016282643937 0.0016045000105 0.0015812691174 
0.0015585585347 0.0015363576 0.0015146546569 0.0014934398291 0.0014727028167 0.0014524366688 0.0014326340401 0.0014132888524 0.0013943986552 
0.0013759569674 0.0013145140802 0.0012965929632 0.0012790733337 0.0012619452159 0.001245199716 0.0012288266025 0.0012128193513 0.0011971680164 
0.0011818652256 0.0011669017344 0.0011522697503 0.001137961456 0.0011239689969 0.0011102838595 0.0010968991933 0.0010838065847 0.001070999135 
0.0010584683946 0.0010462070836 0.0010342085503 0.0010224660019 0.0010109735308 0.0009997272641 0.00098872340602 0.00097795940177 0.0009674345398 
0.0021898301926 0.0021545660182 0.0021202749938 0.0020869409818 0.0021442519815 0.002108765247 0.0020740985366 0.0020402271953 0.0020071293809 
0.0019747833115 0.0019431713576 0.0019122732604 0.0018820724486 0.0018525520403 0.001823696188 0.0017954891629 0.0017679156064 0.0017409632126 
0.0017146161764 0.0016888605928 0.0016636839682 0.0016390713074 0.0016150116129 0.0015914916606 0.0015684987454 0.0015460208315 0.0015240452139 
0.001502561172 0.0014815586589 0.0014610290379 0.0014409636898 0.0014213577763 0.0014022053444 0.0013835008435 0.0013259949594 0.0013078394831 
0.0012900916898 0.0012727412549 0.0012557788716 0.0012391949551 0.0012229811226 0.0012071285983 0.0011916292491 0.0011764740288 0.0011616563991 
0.0011471670918 0.0011329982886 0.0011191418111 0.0011055900944 0.0010923361361 0.0010793709968 0.0010666879663 0.0010542790933 0.0010421377212 
0.0010302562504 0.001018630395 0.0010072547685 0.00099612577323 0.00098524140924 0.00097459965856 0.0022167760992 0.0021805606458 0.0021453018622 
0.0021109729325 0.0021628953371 0.002126832283 0.0020916142195 0.0020572157376 0.0020236125981 0.0019907829092 0.0019587063005 0.0019273621275 
0.0018967320886 0.0018667992835 0.0018375461466 0.0018089560103 0.0017810139371 0.0017537042755 0.0017270137849 0.0017009255205 0.0016754254999 
0.0016504998382 0.0016261354508 0.0016023169159 0.0015790327955 0.0015562678857 0.0015340116893 0.0015122513322 0.0014909742382 0.0014701722418 
0.0014498359362 0.001429959361 0.0014105354012 0.0013915589941 0.0013379939768 0.0013195972513 0.0013016142809 0.0012840353345 0.0012668497051 
0.001250049012 0.0012336237232 0.0012175649664 0.0012018648692 0.001186514849 0.0011715069148 0.0011568334636 0.0011424856471 0.0011284548364 
0.0011147347709 0.0011013164632 0.0010881919654 0.0010753542547 0.0010627947269 0.0010505076735 0.001038485375 0.0010267220162 0.0010152132307 
0.0010039547651 0.00099294496755 0.00098218112463 0.0022447561603 0.002207581201 0.0021713386011 0.0021360065358 0.0021824356493 0.0021457762909 
0.0021099878591 0.0020750415563 0.0020409132955 0.0020075800554 0.0019750202824 0.0019432114405 0.0019121357669 0.0018817738145 0.0018521068504 
0.0018231181292 0.0017947942942 0.0017671158561 0.0017400677208 0.0017136344512 0.0016878012801 0.0016625528153 0.0016378736688 0.0016137492903 
0.001590165135 0.0015671064952 0.0015445605453 0.0015225150895 0.0015009550262 0.0014798721969 0.0014592560371 0.0014390999112 0.0014193957636 
0.0014001395745 0.001350511764 0.0013318665349 0.0013136419656 0.0012958280692 0.0012784129979 0.0012613894069 0.0012447472705 0.0012284771671 
0.0012125714864 0.0011970231162 0.0011818219347 0.0011669603185 0.0011524300082 0.0011382230809 0.0011243317117 0.0011107470749 0.001097461463 
0.0010844664432 0.0010717547519 0.0010593187239 0.001047152496 0.0010352479125 0.0010236019702 0.0010122096315 0.001001069086 0.00099017812097 
0.002273773048 0.0022356226742 0.0021983955242 0.0021620517483 0.0022028424717 0.0021655696209 0.0021291898352 0.0020936764556 0.0020590048117 
0.0020251498598 0.0019920884996 0.0019597984833 0.0019282595875 0.0018974516576 0.0018673567808 0.0018379577073 0.0018092351715 0.0017811751667 
0.0017537584313 0.0017269700003 0.0017007928449 0.0016752115216 0.00165020947 0.001625770072 0.0016018785198 0.0015785190953 0.0015556755989 
0.0015333362428 0.0015114863002 0.0014901147457 0.001469210532 0.0014487664351 0.0014287747277 0.001409229684 0.001363529598 0.0013446297462 
0.0013261568514 0.0013081012371 0.0012904518736 0.0012731997616 0.0012563350569 0.0012398496052 0.0012237351904 0.0012079826352 0.0011925847622 
0.0011775318614 0.0011628168506 0.0011484306855 0.0011343656503 0.0011206127481 0.0011071634843 0.0010940097064 0.0010811435285 0.0010685561871 
0.0010562420534 0.001044193734 0.0010324064713 0.00102087599 0.0010095998586 0.00099857712064 0.0023037873244 0.0022646521501 0.002226430156 
0.002189081093 0.0022240486927 0.0021861445436 0.0021491583586 0.0021130600733 0.0020778266555 0.0020434332417 0.0020098542496 0.0019770674372 
0.0019450506428 0.0019137835224 0.0018832459263 0.0018534209855 0.001824290973 0.0017958361223 0.0017680398608 0.001740886078 0.0017143559327 
0.0016884325987 0.0016630983603 0.0016383368393 0.0016141296958 0.0015904612822 0.0015673156351 0.0015446759162 0.0015225276134 0.0015008600844 
0.001479659987 0.001458919959 0.0014386338936 0.0014187954632 0.0013770083829 0.0013578472291 0.0013391212764 0.0013208183392 0.0013029292234 
0.0012854440536 0.0012683526874 0.0012516470129 0.001235318918 0.0012193603835 0.0012037615176 0.001188515077 0.001173612625 0.0011590452838 
0.0011448038253 0.0011308803585 0.0011172658068 0.0011039507277 0.0010909273053 0.001078187662 0.001065722934 0.0010535268446 0.0010415948424 
0.0010299215911 0.001018505633 0.0010073465179 0.0023347011855 0.0022945757277 0.0022553576663 0.0022170023973 0.0022459427437 0.0022073924657 
0.0021697833334 0.0021330879198 0.0020972790759 0.002062333423 0.0020282225521 0.0019949259864 0.0019624181202 0.0019306777833 0.0018996868707 
0.0018694249837 0.0018398732333 0.001811014336 0.0017828305067 0.0017553024817 0.0017284102118 0.001702137001 0.0016764639266 0.0016513715558 
0.0016268431605 0.001602860464 0.0015794051068 0.0015564594299 0.0015340077032 0.0015120362384 0.0014905347567 0.0014694938155 0.0014489078472 
0.0014287703368 0.0013908803825 0.0013714532421 0.0013524691574 0.0013339150943 0.0013157829429 0.0012980604256 0.0012807388388 0.0012638100579 
0.001247265434 0.0012310959098 0.0012152944323 0.0011998526915 0.0011847608234 0.0011700094694 0.0011555906674 0.0011414947649 0.0011277121266 
0.0011142346521 0.001101052723 0.0010881574789 0.0010755402385 0.0010631938094 0.0010511130753 0.0010392939079 0.0010277348579 0.0010164356787 
0.0023663519408 0.0023252369789 0.0022850273137 0.0022456742393 0.0022683566024 0.0022291494065 0.0021909066854 0.0021536022123 0.0021172091013 
0.0020816981525 0.0020470477226 0.0020132292186 0.0019802211555 0.0019480001682 0.0019165448576 0.0018858372891 0.0018558573937 0.001826586725 
0.0017980064676 0.0017700959002 0.0017428353033 0.0017162065497 0.0016901876454 0.0016647600588 0.0016399046794 0.0016156014871 0.0015918306913 
0.0015685746305 0.0015458143932 0.0015235363178 0.0015017283896 0.0014803840605 0.0014594949198 0.0014390561923 0.0014050426837 0.0013853484473 
0.001366102798 0.0013472961063 0.0013289167879 0.0013109553562 0.0012934017637 0.0012762474199 0.001259483889 0.0012431036013 0.001227098532 
0.0012114588924 0.0011961757475 0.0011812397885 0.0011666423862 0.0011523726018 0.0011384213788 0.0011247794799 0.0011114371431 0.0010983844727 
0.0010856130293 0.0010731140165 0.0010608825396 0.0010489149849 0.0010372109598 0.0010257688567 0.0023985062652 0.0023564079789 0.002315217825 
0.0022748837518 0.0022910604598 0.0022511919869 0.0022123108057 0.0021743911245 0.0021374057751 0.0021013284086 0.0020661295461 0.0020317847545 
0.001998269931 0.0019655613194 0.0019336370666 0.0019024778535 0.0018720642086 0.0018423775656 0.0018133955285 0.0017850990598 0.0017574649547 
0.00173047504 0.0017041068135 0.0016783396875 0.0016531528132 0.0016285252464 0.001604435893 0.0015808644184 0.0015577940744 0.0015352075283 
0.0015130935705 0.0014914445964 0.0014702541541 0.0014495152054 0.0014193569642 0.0013993952986 0.001379889497 0.0013608288484 0.0013422032975 
0.0013240020613 0.0013062158863 0.0012888359281 0.0012718541172 0.0012552623497 0.0012390530352 0.0012232159255 0.0012077419458 0.0011926210064 
0.0011778437152 0.0011634000618 0.0011492795346 0.0011354725122 0.0011219683283 0.0011087569997 0.0010958293908 0.0010831773131 0.0010707944171 
0.0010586783635 0.0010468281673 0.0010352438806 0.0024308636042 0.0023877930908 0.0023456396158 0.0023043506546 0.0023137636479 0.002273234675 
0.002233716737 0.0021951827327 0.0021576054463 0.0021209586925 0.0020852126205 0.0020503403451 0.0020163186694 0.0019831220735 0.0019507281677 
0.0019191169455 0.0018882691487 0.0018581631647 0.0018287780897 0.0018000929567 0.0017720851875 0.0017447322941 0.0017180125342 0.0016919025411 
0.0016663821407 0.0016414278184 0.001617018476 0.0015931329133 0.0015697519335 0.0015468579478 0.0015244415146 0.0015024920186 0.0014810027822 
0.001459969172 0.0014336466579 0.0014134192612 0.0013936562093 0.0013743448734 0.0013554751982 0.0013370374193 0.0013190216601 0.0013014181696 
0.0012842202383 0.0012674197737 0.0012510075521 0.0012349740353 0.0012193102187 0.0012040056042 0.0011890496063 0.0011744319554 0.0011601422113 
0.0011461696041 0.0011325037358 0.0011191336885 0.0011060504692 0.0010932455637 0.0010807123765 0.0010684494342 0.0010564545225 0.0010447291832 
0.0024630655185 0.0024190426511 0.002375954931 0.0023337419685 0.0023361301985 0.0022949475056 0.002254801059 0.0022156615838 0.0021774995283 
0.0021402887312 0.0021040011372 0.0020686080427 0.0020340829254 0.0020004022183 0.0019675430418 0.0019354847187 0.0019042064254 0.0018736849401 
0.0018438995064 0.0018148270881 0.0017864454199 0.0017587304312 0.0017316590028 0.0017052082973 0.0016793546085 0.0016540757789 0.0016293472842 
0.0016051497416 0.0015814617765 0.0015582662934 0.0015355523369 0.0015133096252 0.0014915302741 0.0014702102095 0.0014477055346 0.001427219608 
0.0014072047464 0.0013876493377 0.0013685419425 0.0013498719594 0.0013316315195 0.001313810619 0.0012964019333 0.0012793968118 0.0012627857822 
0.0012465601202 0.0012307092532 0.0012152224623 0.0012000898857 0.0011852999902 0.0011708419729 0.0011567052765 0.0011428789305 0.0011293522365 
0.0011161157928 0.0011031598756 0.001090479556 0.0010780720852 0.0010659365293 0.0010540732366 0.0024947351879 0.002449790046 0.0024058025089 
0.0023627064753 0.002357809271 0.0023159900843 0.0022752295479 0.0022354972478 0.0021967647689 0.002159003313 0.002122185603 0.0020862814738 
0.002051263931 0.002017109811 0.0019837956598 0.001951298312 0.0019195967548 0.0018886674401 0.0018584879741 0.0018290336833 0.0018002824863 
0.0017722101186 0.0017447907727 0.0017180018012 0.0016918189346 0.0016662190628 0.0016411780263 0.0016166747124 0.0015926867086 0.0015691991858 
0.0015461974544 0.0015236717716 0.0015016159052 0.0014800232339 0.0014613194743 0.0014405854115 0.0014203274732 0.0014005367945 0.0013812002163 
0.0013623078728 0.0013438511896 0.0013258207357 0.0013082083762 0.0012910056482 0.0012742025978 0.0012577895684 0.0012417558952 0.0012260918032 
0.0012107864686 0.0011958271397 0.0011812042668 0.0011669061836 0.001152922722 0.0011392417866 0.00112585526 0.0011127533017 0.0010999309438 
0.0010873846468 0.0010751137354 0.0010631202718 0.0021503802212 0.002118268792 0.0020868913399 0.0020562441201 0.0021311345018 0.0020976691313 
0.0020649610773 0.0020329917906 0.0020017439141 0.001971201629 0.0019413485792 0.0019121685287 0.0018836459003 0.001855765862 0.0018285131724 
0.0018018713497 0.0017758243104 0.0017503561531 0.0017254492064 0.0017010880194 0.001677255743 0.0016539372802 0.0016311162785 0.0016087776495 
0.0015869046714 0.0015654808817 0.0015444890412 0.0015239152833 0.001503744923 0.0014839660848 0.0014645710107 0.0014455523344 0.001426905584 
0.0014086262373 0.0013750800064 0.0013573711653 0.0013400189978 0.0013230168354 0.0013063573434 0.0012900333828 0.0012740387765 0.0012583656863 
0.0012430060867 0.0012279520037 0.0012131948727 0.001198725631 0.0011845359355 0.0011706167575 0.0011569606272 0.0011435577137 0.001130400567 
0.0011174791061 0.0011047849745 0.00109230787 0.0010800410381 0.0010679769601 0.0010561104319 0.0010444387755 0.001032960632 0.0010216759281 
0.0021736635137 0.0021408578659 0.0021088272631 0.0020775655594 0.0021518114032 0.0021177779421 0.0020845220723 0.0020520229666 0.0020202629921 
0.0019892240596 0.0019588900149 0.0019292444836 0.0019002701512 0.0018719516218 0.001844273946 0.0018172191786 0.0017907717465 0.0017649138817 
0.0017396293319 0.0017149009201 0.0016907129444 0.0016670507557 0.0016438961263 0.0016212355092 0.0015990522458 0.001577329865 0.0015560515686 
0.0015352028137 0.0015147706925 0.0014947423504 0.0014751088226 0.001455864784 0.0014370034526 0.0014185213549 0.0013834211232 0.001365506996 
0.0013479547392 0.0013307570313 0.0013139075097 0.0012973976982 0.0012812210006 0.0012653700075 0.0012498358778 0.0012346109518 0.0012196860763 
0.0012050523496 0.0011907010773 0.0011766244708 0.0011628136262 0.0011492596853 0.0011359551024 0.0011228903695 0.0011100566875 0.0010974447719 
0.0010850474288 0.0010728575546 0.0010608700234 0.0010490817114 0.0010374916334 0.0010260990186 0.0021967337965 0.0021632143113 0.0021305110163 
0.0020986212137 0.0021722844243 0.0021376842236 0.0021038802311 0.0020708517285 0.0020385790835 0.0020070438259 0.0019762281021 0.0019461149518 
0.0019166874817 0.0018879290189 0.0018598234531 0.0018323531003 0.0018055019668 0.0017792513715 0.0017535857867 0.0017284878028 0.0017039420356 
0.0016799319821 0.0016564425062 0.0016334575274 0.0016109620489 0.0015889404143 0.0015673747127 0.0015462514615 0.0015255575684 0.0015052800523 
0.0014854112549 0.0014659432497 0.0014468709279 0.0014281888593 0.0013915638178 0.0013734462818 0.0013556959571 0.001338305391 0.0013212667609 
0.0013045724777 0.0012882152512 0.0012721870554 0.0012564791188 0.0012410838037 0.0012259910671 0.0012111932531 0.0011966812644 0.0011824470231 
0.0011684819488 0.0011547778169 0.0011413261 0.0011281185921 0.0011151468917 0.0011024012622 0.0010898749527 0.0010775611958 0.0010654544743 
0.0010535523254 0.0010418530436 0.0010303557289 0.0022197872651 0.0021855292692 0.0021521304693 0.0021195900001 0.0021927576435 0.0021575863411 
0.0021232309017 0.0020896687943 0.0020568796605 0.0020248435989 0.0019935421736 0.0019629565189 0.0019330705079 0.001903866724 0.0018753275196 
0.0018474363993 0.0018201751883 0.0017935272995 0.001767475863 0.0017420034107 0.0017170944658 0.001692732639 0.0016689039485 0.0016455918266 
0.0016227810013 0.0016004555628 0.0015786001969 0.0015572000863 0.0015362427689 0.0015157155969 0.0014956102568 0.0014759197689 0.0014566364419 
0.0014377556595 0.0013996387839 0.0013813180523 0.0013633701591 0.0013457861808 0.001328558158 0.0013116786141 0.0012951399644 0.0012789335072 
0.0012630512764 0.001247483727 0.0012322228762 0.0012172603258 0.0012025864459 0.0011881940679 0.001174073899 0.0011602191526 0.0011466207492 
0.0011332705309 0.0011201597586 0.0011072806214 0.0010946256288 0.0010821884397 0.0010699637535 0.0010579487581 0.0010461416299 0.0010345414103 
0.0022525016833 0.0022190945071 0.002186911061 0.0021559674378 0.0022387845694 0.0022031837774 0.0021683377422 0.0021342288881 0.0021008414042 
0.0020681607158 0.0020361750769 0.0020048711399 0.0019742350018 0.001944257034 0.001914925394 0.0018862284221 0.0018581546864 0.0018306915929 
0.0018038289574 0.0017775561721 0.0017518613493 0.0017267351968 0.0017021686463 0.001678150847 0.0016546713097 0.0016317203926 0.0016092876364 
0.0015873646494 0.0015659428348 0.0015450157166 0.0015245787767 0.0015046288989 0.0014851633755 0.0014661808689 0.0013887792977 0.0013703074119 
0.0013522370261 0.0013345603438 0.0013172685994 0.0013003523723 0.0012838046753 0.0012676166727 0.001251780433 0.0012362863928 0.0012211253651 
0.0012062889729 0.0011917691168 0.0011775563323 0.0011636433292 0.0011500211272 0.0011366819489 0.0011236168698 0.0011108173683 0.0010982752918 
0.0010859836295 0.0010739351558 0.0010621251558 0.0010505497389 0.0010392064117 0.0010280929254 0.0022783591357 0.0022440260667 0.0022108753101 
0.0021789157753 0.0022563098293 0.0022201551501 0.0021847824195 0.0021501724787 0.0021163075242 0.002083171151 0.0020507490781 0.0020190262344 
0.0019879894813 0.0019576257953 0.0019279219447 0.0018988657133 0.0018704433121 0.0018426428088 0.0018154522854 0.001788860911 0.0017628564135 
0.0017374286272 0.0017125656486 0.0016882579331 0.0016644946486 0.0016412645554 0.0016185569696 0.0015963634582 0.0015746749878 0.0015534830635 
0.0015327837277 0.0015125725783 0.0014928451519 0.0014735988863 0.0013999269218 0.0013812103627 0.0013629027349 0.0013449949299 0.0013274777386 
0.0013103424538 0.0012935805183 0.0012771835496 0.0012611428987 0.0012454486148 0.0012300923939 0.0012150656909 0.0012003601626 0.0011859668881 
0.0011718783848 0.0011580852438 0.0011445800819 0.0011313544641 0.0011183998741 0.001105708312 0.0010932730307 0.0010810871978 0.0010691454899 
0.0010574445841 0.0010459813983 0.0010347534677 0.0023045874322 0.0022693017917 0.0022351635988 0.0022021720039 0.0022743239981 0.0022376015447 
0.0022016890883 0.0021665646339 0.002132208197 0.0020986026686 0.0020657307951 0.0020335765569 0.002002124915 0.0019713619656 0.0019412729726 
0.001911844348 0.0018830627956 0.0018549142734 0.0018273867122 0.0018004666752 0.001774143095 0.0017484030884 0.0017232357716 0.0016986309703 
0.0016745751574 0.0016510586614 0.0016280695807 0.0016055986545 0.0015836360916 0.0015621743304 0.0015412066397 0.0015207274485 0.001500732282 
0.001481217316 0.0014113197937 0.0013923568692 0.0013738103922 0.0013556697481 0.0013379257488 0.0013205687169 0.0013035909049 0.0012869829883 
0.0012707354366 0.0012548402913 0.0012392881436 0.0012240701413 0.0012091782472 0.0011946037005 0.0011803379971 0.0011663731877 0.0011527019629 
0.0011393145284 0.0011262040547 0.0011133621758 0.0011007820338 0.0010884576972 0.0010763833358 0.0010645551837 0.0010529702305 0.0010416256217 
0.0023313626364 0.0022951006988 0.0022599538805 0.0022259154744 0.0022929393194 0.0022556339303 0.0022191658207 0.0021835111799 0.0021486475902 
0.002114556917 0.0020812206512 0.0020486210833 0.0020167403095 0.001985563804 0.001955076477 0.0019252627836 0.0018961092793 0.0018676005862 
0.0018397238067 0.0018124648378 0.0017858122649 0.0017597517314 0.0017342717322 0.0017093604051 0.0016850049472 0.0016611939436 0.0016379157114 
0.0016151602097 0.0015929171229 0.0015711776062 0.0015499344951 0.0015291809194 0.0015089117658 0.0014891215895 0.0014230325285 0.0014038201581 
0.001385030965 0.0013666546451 0.0013486811161 0.0013310998181 0.0013139031586 0.0012970812977 0.0012806253757 0.0012645268034 0.0012487763638 
0.0012333652921 0.0012182853241 0.0012035278759 0.0011890846586 0.0011749471877 0.0011611079129 0.0011475582834 0.0011342902253 0.0011212966428 
0.0011085704867 0.0010961054716 0.0010838963698 0.0010719390205 0.0010602297297 0.0010487659612 0.002358819356 0.0023215600603 0.0022853869565 
0.002250288092 0.0023122337112 0.0022743296056 0.0022372894419 0.0022010875312 0.0021657005365 0.00213110881 0.002097291126 0.0020642288179 
0.002031903609 0.0020003003526 0.0019694006103 0.0019391890516 0.0019096505036 0.0018807698662 0.0018525324583 0.0018249255765 0.0017979322639 
0.0017715422694 0.0017457397218 0.0017205129146 0.0016958499595 0.0016717362656 0.0016481614661 0.0016251136633 0.0016025823443 0.0015805575302 
0.0015590312698 0.001537996446 0.001517446578 0.0014973746312 0.0014351174032 0.0014156514331 0.0013966160796 0.0013779994128 0.0013597916315 
0.0013419828525 0.0013245640525 0.0013075257216 0.0012908586608 0.0012745540408 0.0012586031761 0.0012429969353 0.0012277271927 0.0012127850835 
0.0011981626802 0.0011838507779 0.0011698420413 0.0011561284129 0.0011427016243 0.0011295545236 0.0011166802249 0.0011040724953 0.0010917258811 
0.0010796358335 0.0010677993061 0.0010562134624 0.0023870575784 0.0023487815827 0.0023115681408 0.0022753976168 0.0023322578392 0.0022937377682 
0.0022561075627 0.0022193409252 0.002183412923 0.0021483024581 0.0021139873896 0.0020804471199 0.0020476630401 0.0020156164988 0.0019842902527 
0.0019536673428 0.0019237316247 0.0018944662477 0.0018658570948 0.0018378896563 0.0018105465656 0.0017838160716 0.0017576828636 0.0017321329322 
0.0017071534303 0.0016827293773 0.0016588499686 0.0016355029831 0.001612675498 0.0015903579949 0.0015685416569 0.0015472177977 0.0015263795682 
0.0015060186039 0.0014476077508 0.0014278834079 0.0014085964782 0.001389735273 0.0013712894354 0.0013532490709 0.0013356047303 0.0013183461324 
0.0013014649817 0.0012849516168 0.0012687971609 0.0012529933582 0.0012375320413 0.0012224027608 0.0012075990313 0.0011931115938 0.0011789318105 
0.0011650526363 0.0011514649217 0.0011381624538 0.0011251381553 0.0011123849016 0.0010998978016 0.0010876723671 0.0010757048163 0.0010639925359 
0.0024161457118 0.0023768333071 0.0023385672307 0.0023013172596 0.0023530315648 0.0023138775808 0.0022756402387 0.0022382922855 0.0022018065697 
0.0021661609181 0.0021313323469 0.0020972968683 0.0020640374638 0.002031533373 0.0019997653292 0.0019687177054 0.0019383709359 0.0019087099212 
0.0018797178002 0.0018513791409 0.0018236765821 0.00179659628 0.0017701234256 0.0017442415647 0.001718936941 0.0016941954845 0.001670004666 
0.0016463501422 0.0016232191434 0.001600602249 0.0015784875962 0.0015568672111 0.001535733209 0.0015150766145 0.001460518761 0.0014405310854 
0.0014209881855 0.0014018781107 0.0013831890567 0.0013649126917 0.0013470380044 0.0013295556926 0.001312456492 0.0012957311265 0.0012793710931 
0.001263367796 0.0012477117136 0.0012323941491 0.0012174068275 0.0012027415933 0.0011883895808 0.0011743426417 0.0011605926075 0.0011471329251 