# vtk DataFile Version 5.1
vtk output
ASCII
DATASET STRUCTURED_POINTS
DIMENSIONS 30 30 30
SPACING 0.01 0.01 0.01
ORIGIN 1.555 -0.145 0.855
POINT_DATA 27000
FIELD FieldData 1
potential 1 27000 double
0.0011015265024 0.0010997453821 0.0010979695927 0.0010961991842 0.0010944341209 0.0010926742484 0.0010909197293 0.0010891703724 0.0010874263282 
0.0010856874588 0.0010839537129 0.0010822251676 0.0010805017972 0.0010787835153 0.0010770703753 0.0010753622736 0.0010736592342 0.0010719612399 
0.0010702683493 0.0010685804904 0.0010668976215 0.001065219757 0.0010635467688 0.0010618786936 0.001060215564 0.0010585573235 0.0010569040257 
0.0010552555269 0.0010536118766 0.0010519729373 0.0011006949763 0.0010989156994 0.0010971418427 0.0010953733865 0.0010936101273 0.0010918522271 
0.0010900994971 0.0010883519909 0.0010866097387 0.0010848726691 0.0010831407121 0.0010814139624 0.0010796923445 0.0010779758916 0.0010762644644 
0.0010745581073 0.0010728568275 0.0010711605863 0.0010694694051 0.0010677832521 0.0010661020453 0.0010644259224 0.0010627545975 0.0010610882219 
0.0010594267735 0.0010577702233 0.0010561185302 0.00105447167 0.0010528296412 0.0010511923404 0.0010998652801 0.0010980879318 0.0010963159516 
0.0010945493422 0.0010927881107 0.0010910319939 0.001089281134 0.0010875354643 0.0010857949575 0.0010840597096 0.0010823295639 0.0010806045982 
0.0010788848001 0.0010771701287 0.0010754604956 0.0010737558536 0.0010720563143 0.0010703618305 0.001068672373 0.0010669879729 0.0010653085395 
0.0010636339975 0.0010619643887 0.0010602997131 0.0010586399112 0.0010569849827 0.0010553349569 0.0010536897612 0.0010520493188 0.0010504137492 
0.0010990375213 0.0010972620587 0.0010954920467 0.0010937273898 0.0010919678959 0.0010902136868 0.0010884646807 0.0010867208174 0.0010849821945 
0.0010832487024 0.0010815203857 0.0010797972124 0.0010780792192 0.001076366272 0.0010746584143 0.0010729556118 0.0010712578149 0.0010695651177 
0.0010678773592 0.0010661947267 0.0010645169135 0.0010628440641 0.001061176151 0.0010595131942 0.0010578551006 0.0010562018159 0.0010545534233 
0.001052909852 0.0010512710761 0.0010496371527 0.0010982117415 0.0010964382662 0.0010946701126 0.0010929072524 0.001091149659 0.001089397279 
0.0010876501378 0.0010859081218 0.0010841713343 0.0010824396679 0.0010807132069 0.0010789918089 0.0010772755797 0.0010755644476 0.0010738583475 
0.001072157314 0.0010704613236 0.0010687703513 0.0010670843266 0.0010654034321 0.0010637273612 0.0010620562275 0.0010603900133 0.0010587287224 
0.0010570723125 0.0010554207031 0.0010537740033 0.0010521320694 0.0010504949402 0.0010488626534 0.0010973879861 0.0010956164197 0.0010938502501 
0.0010920892702 0.0010903335255 0.0010885829838 0.0010868376344 0.0010850974941 0.0010833625642 0.0010816327501 0.0010799081297 0.0010781886076 
0.0010764740905 0.0010747646943 0.0010730604157 0.0010713611532 0.0010696669263 0.001067977744 0.0010662935047 0.0010646142655 0.0010629399012 
0.0010612704839 0.0010596060097 0.0010579463949 0.0010562916481 0.001054641773 0.0010529967124 0.0010513564399 0.0010497209819 0.0010480903394 
0.0010965663476 0.0010947967645 0.0010930324828 0.0010912733527 0.0010895194316 0.0010877707869 0.0010860273278 0.0010842890223 0.001082555914 
0.0010808279242 0.0010791050927 0.0010773874422 0.0010756747858 0.0010739671436 0.0010722646084 0.0010705671636 0.0010688746946 0.0010671872496 
0.0010655048058 0.0010638272578 0.001062154656 0.0010604869596 0.0010588241739 0.0010571662575 0.0010555132065 0.0010538648993 0.0010522215852 
0.0010505830539 0.0010489492565 0.0010473202451 0.0010957468467 0.0010939792783 0.0010922167946 0.0010904595814 0.0010887075821 0.0010869607861 
0.0010852191507 0.0010834827494 0.0010817514898 0.0010800253565 0.0010783043484 0.0010765884664 0.0010748776081 0.0010731718599 0.0010714710763 
0.0010697753542 0.001068084653 0.0010663990462 0.001064718326 0.0010630425177 0.0010613716448 0.001059705677 0.0010580445805 0.00105638837 
0.0010547369896 0.0010530904266 0.0010514487071 0.0010498119029 0.0010481797541 0.0010465524106 0.0010949296544 0.0010931639 0.0010914033584 
0.0010896480568 0.0010878979307 0.0010861530327 0.0010844132579 0.001082678702 0.0010809492609 0.0010792249846 0.0010775058006 0.0010757917024 
0.0010740827108 0.0010723787383 0.001070679815 0.001068985829 0.001067296876 0.001065613064 0.0010639340337 0.0010622600257 0.0010605908903 
0.0010589266473 0.0010572672664 0.0010556127686 0.001053963051 0.0010523182262 0.0010506781903 0.0010490430108 0.0010474125915 0.0010457868985 
0.0010941146599 0.0010923508164 0.0010905921906 0.0010888387833 0.0010870905626 0.001085347528 0.001083609637 0.0010818769416 0.0010801493479 
0.0010784269129 0.0010767095544 0.001074997259 0.0010732901087 0.0010715879578 0.0010698908264 0.0010681986539 0.0010665115743 0.0010648294193 
0.0010631521244 0.0010614797446 0.0010598124337 0.0010581499329 0.0010564923128 0.0010548394204 0.0010531915092 0.0010515483482 0.0010499100269 
0.0010482764864 0.0010466477261 0.0010450238016 0.0010933020015 0.0010915400417 0.0010897833373 0.0010880318225 0.001086285514 0.0010845443738 
0.0010828083496 0.0010810774837 0.0010793517549 0.0010776311537 0.0010759156135 0.0010742051731 0.0010724997741 0.0010707994622 0.0010691041519 
0.0010674138001 0.0010657285305 0.00106404805 0.0010623725815 0.001060702005 0.0010590363608 0.0010573755968 0.0010557196372 0.001054068578 
0.0010524223057 0.0010507808793 0.0010491442233 0.0010475123677 0.0010458852818 0.0010442629977 0.0010924916326 0.0010907315998 0.0010889768004 
0.0010872271867 0.0010854827812 0.0010837435187 0.0010820093799 0.0010802803767 0.0010785565096 0.001076837756 0.0010751240686 0.0010734154414 
0.0010717118185 0.0010700133083 0.0010683197746 0.0010666313314 0.0010649478161 0.0010632691832 0.0010615954235 0.0010599265925 0.0010582627151 
0.0010566036344 0.0010549494332 0.0010533001279 0.0010516555796 0.0010500158251 0.0010483808273 0.0010467506693 0.0010451252199 0.0010435046216 
0.0010916836062 0.0010899255127 0.0010881726262 0.0010864249346 0.0010846824223 0.0010829450611 0.0010812128 0.0010794856568 0.0010777636012 
0.0010760466568 0.0010743348593 0.0010726280639 0.0010709263163 0.0010692295732 0.0010675378733 0.0010658512562 0.0010641695065 0.0010624926359 
0.0010608206934 0.0010591535979 0.0010574914081 0.0010558340991 0.0010541816729 0.0010525340935 0.0010508912249 0.0010492532133 0.0010476199211 
0.001045991451 0.0010443676885 0.0010427487681 0.001090877971 0.0010891218076 0.001087370804 0.0010856250321 0.0010838844117 0.0010821489564 
0.0010804185711 0.0010786933142 0.0010769731705 0.0010752580481 0.0010735480841 0.0010718431324 0.0010701432132 0.0010684482894 0.0010667584743 
0.0010650735553 0.0010633935593 0.0010617184693 0.001060048343 0.0010583830641 0.0010567225799 0.0010550670338 0.0010534163564 0.0010517705133 
0.0010501294013 0.0010484931091 0.0010468614875 0.0010452347271 0.0010436126504 0.0010419954106 0.0010900746991 0.0010883204658 0.00108657142 
0.0010848275599 0.0010830888408 0.0010813552789 0.001079626764 0.0010779034174 0.0010761851257 0.0010744718567 0.0010727637436 0.0010710606308 
0.0010693625228 0.001067669433 0.0010659813855 0.0010642982829 0.0010626200925 0.0010609468107 0.0010592784498 0.0010576148763 0.0010559562278 
0.0010543024426 0.0010526535454 0.0010510094149 0.0010493700195 0.0010477354456 0.0010461055971 0.0010444804993 0.0010428600944 0.0010412444913 
0.0010892738857 0.0010875215809 0.0010857744705 0.0010840325082 0.0010822956948 0.0010805640389 0.0010788374192 0.0010771159313 0.0010753994846 
0.0010736881374 0.0010719818366 0.0010702805662 0.0010685843042 0.0010668931109 0.0010652067915 0.0010635254455 0.0010618491088 0.0010601776057 
0.0010585109111 0.0010568492559 0.0010551923752 0.0010535403147 0.0010518931565 0.0010502507552 0.0010486131183 0.0010469802605 0.0010453521241 
0.0010437287603 0.0010421100926 0.0010404961844 0.0010884753782 0.0010867250205 0.0010849798954 0.0010832398492 0.0010815049723 0.0010797751981 
0.0010780504731 0.0010763308624 0.0010746162753 0.0010729068073 0.0010712023732 0.0010695029368 0.0010678085244 0.0010661191589 0.0010644346572 
0.0010627550834 0.0010610805773 0.0010594107908 0.001057745957 0.0010560860761 0.0010544309504 0.0010527806697 0.0010511352533 0.0010494946 
0.0010478586775 0.0010462275994 0.0010446011855 0.0010429795294 0.0010413626186 0.0010397503121 0.0010876793469 0.0010859309654 0.0010841877004 
0.0010824496508 0.0010807166886 0.001078988789 0.0010772659656 0.001075548209 0.001073835535 0.0010721279498 0.001070425364 0.0010687277614 
0.0010670352663 0.0010653476249 0.0010636649145 0.0010619871759 0.0010603143731 0.0010586464835 0.0010569834374 0.0010553253025 0.0010536720226 
0.0010520235305 0.0010503798715 0.0010487409314 0.0010471067528 0.0010454773759 0.0010438527005 0.0010422327622 0.0010406174565 0.001039006879 
0.0010868857913 0.0010851393228 0.0010833979889 0.001081661805 0.0010799307334 0.0010782048106 0.0010764838908 0.0010747680199 0.0010730572177 
0.0010713515101 0.0010696507733 0.0010679550432 0.001066264356 0.001064578569 0.0010628976787 0.0010612216778 0.0010595507328 0.0010578846561 
0.0010562234081 0.0010545670756 0.0010529155449 0.0010512688219 0.001049626898 0.0010479897272 0.001046357306 0.0010447296351 0.0010431065929 
0.0010414883886 0.0010398748963 0.0010382659926 0.0010860945885 0.0010843500635 0.0010826106955 0.0010808764145 0.0010791472724 0.0010774231811 
0.0010757042131 0.0010739902413 0.0010722813573 0.0010705774801 0.0010688786056 0.0010671847285 0.0010654959062 0.0010638119051 0.0010621327877 
0.0010604587204 0.0010587895385 0.0010571252815 0.0010554658574 0.0010538112861 0.0010521615011 0.0010505165721 0.0010488764145 0.0010472409971 
0.0010456103013 0.0010439842599 0.0010423630534 0.0010407465518 0.0010391347821 0.0010375276277 0.0010853057756 0.0010835632034 0.0010818257011 
0.001080093415 0.0010783661537 0.0010766440168 0.0010749268526 0.0010732148112 0.0010715078581 0.0010698058653 0.0010681088663 0.0010664169253 
0.0010647298633 0.0010630476207 0.0010613704168 0.0010596981371 0.0010580307769 0.0010563683151 0.0010547107068 0.0010530579203 0.0010514099574 
0.0010497667728 0.0010481283824 0.001046494622 0.0010448656811 0.0010432414804 0.001041622002 0.0010400072198 0.0010383971331 0.0010367916771 
0.0010845193317 0.0010827786904 0.0010810431417 0.0010793127477 0.0010775874496 0.0010758672107 0.0010741519416 0.0010724418161 0.0010707366918 
0.0010690366318 0.0010673414936 0.001065651406 0.0010639661168 0.0010622858125 0.0010606104383 0.0010589399685 0.0010572744245 0.001055613727 
0.0010539579405 0.0010523069758 0.0010506607927 0.0010490192921 0.0010473826662 0.0010457507693 0.0010441235577 0.0010425011246 0.001040883361 
0.0010392703451 0.0010376619505 0.0010360581555 0.0010837351984 0.0010819964854 0.0010802629309 0.0010785344369 0.0010768110836 0.0010750927529 
0.0010733793926 0.0010716711416 0.0010699678997 0.0010682696655 0.0010665764986 0.0010648881769 0.001063204795 0.0010615263554 0.0010598528116 
0.0010581841711 0.0010565204428 0.0010548615524 0.0010532075598 0.001051558402 0.0010499138938 0.0010482742859 0.0010466394011 0.0010450092648 
0.0010433838518 0.0010417631114 0.0010401471214 0.0010385358407 0.0010369291738 0.0010353271209 0.0010829533615 0.0010812165976 0.0010794849561 
0.0010777584261 0.0010760369521 0.0010743205266 0.0010726091451 0.0010709027905 0.0010692014416 0.0010675050873 0.0010658136953 0.0010641272446 
0.0010624457675 0.0010607692108 0.0010590975213 0.0010574307057 0.0010557687937 0.0010541117059 0.0010524593935 0.0010508120451 0.00104916944 
0.0010475316042 0.001045898495 0.0010442701443 0.0010426465108 0.0010410275477 0.0010394133031 0.0010378037652 0.0010361988297 0.0010345985002 
0.0010821737717 0.0010804389803 0.001078709284 0.0010769847182 0.0010752651557 0.0010735506085 0.0010718411544 0.0010701367009 0.0010684372446 
0.0010667426908 0.0010650532654 0.0010633686776 0.0010616890305 0.00106001429 0.0010583445056 0.0010566795602 0.0010550193743 0.0010533641035 
0.0010517136797 0.0010500681485 0.001048427349 0.0010467913014 0.0010451599596 0.0010435333267 0.0010419114827 0.0010402942807 0.0010386818719 
0.0010370740466 0.0010354708327 0.0010338722282 0.0010813964109 0.001079663593 0.00107793583 0.0010762131756 0.001074495599 0.0010727829575 
0.0010710754168 0.0010693727824 0.0010676752224 0.0010659826387 0.0010642950919 0.0010626123862 0.0010609345866 0.0010592616986 0.0010575936166 
0.0010559304814 0.0010542722762 0.0010526188583 0.0010509702262 0.0010493265337 0.0010476875212 0.0010460532653 0.001044423677 0.0010427988631 
0.0010411787482 0.001039563339 0.0010379526532 0.0010363465735 0.0010347450951 0.0010331482788 0.0010806212187 0.0010788903237 0.0010771645644 
0.001075443848 0.0010737281135 0.0010720174684 0.0010703117424 0.0010686111488 0.0010669154865 0.0010652248743 0.0010635391267 0.0010618581832 
0.0010601822577 0.001058511222 0.0010568450725 0.0010551837839 0.0010535273472 0.0010518757443 0.0010502289606 0.0010485870461 0.0010469499479 
0.0010453174346 0.0010436896654 0.0010420666311 0.001040448295 0.001038834613 0.0010372257148 0.001035621386 0.0010340216534 0.0010324265674 
0.0010798482087 0.0010781192455 0.0010763954384 0.0010746766624 0.0010729628618 0.001071254066 0.0010695503527 0.0010678516325 0.0010661578657 
0.0010644690598 0.001062785188 0.0010611062279 0.0010594321694 0.0010577630102 0.0010560987079 0.0010544392717 0.0010527846827 0.0010511348822 
0.0010494899286 0.001047849747 0.0010462144413 0.0010445837531 0.001042957826 0.0010413365788 0.0010397200267 0.0010381081264 0.0010365009797 
0.0010348984545 0.0010333004713 0.0010317070632 0.0010790772199 0.0010773502428 0.0010756283708 0.0010739115436 0.0010721995961 0.001070492795 
0.0010687909491 0.0010670940877 0.0010654022235 0.0010637153977 0.0010620333953 0.0010603563103 0.0010586841366 0.0010570168628 0.0010553544156 
0.0010536968332 0.0010520440665 0.0010503961216 0.0010487529782 0.0010471146024 0.0010454810758 0.0010438522015 0.001042228078 0.0010406086195 
0.0010389939333 0.0010373838604 0.0010357783977 0.0010341776026 0.0010325813493 0.0010309897047 0.0010783081481 0.0010765831497 0.0010748632109 
0.0010731481761 0.0010714382461 0.0010697333577 0.0010680334742 0.0010663385662 0.0010646487635 0.0010629637928 0.0010612836788 0.0010596084747 
0.001057938176 0.0010562727486 0.00105461218 0.0010529564292 0.0010513055128 0.0010496594249 0.0010480180877 0.0010463815602 0.0010447497539 
0.0010431227223 0.0010415004343 0.0010398826917 0.0010382697431 0.001036661452 0.001035057802 0.0010334587613 0.0010318642918 0.0010302743885 
0.0011143653469 0.0011125621906 0.0011107644553 0.0011089722045 0.0011071852778 0.0011054037395 0.0011036274478 0.0011018566334 0.0011000909816 
0.0010983304951 0.0010965753514 0.001094825492 0.0010930808103 0.0010913413284 0.0010896069804 0.0010878778367 0.0010861537921 0.0010844347859 
0.0010827209985 0.0010810122766 0.0010793085791 0.0010776099667 0.001075916383 0.0010742277161 0.0010725440621 0.0010708654075 0.0010691916293 
0.0010675227897 0.0010658587943 0.0010641996874 0.0011135230893 0.0011117218932 0.0011099261407 0.0011081357358 0.0011063508364 0.0011045711525 
0.001102796875 0.0011010277718 0.0010992639114 0.0010975053659 0.0010957520525 0.0010940039828 0.001092261115 0.0010905234663 0.001088790962 
0.0010870635074 0.0010853412645 0.0010836240495 0.0010819119927 0.001080205 0.0010785030862 0.0010768061479 0.0010751143334 0.0010734273875 
0.0010717454325 0.0010700684489 0.0010683963522 0.0010667291624 0.0010650668449 0.0010634093995 0.0011126826568 0.0011108833917 0.0011090896193 
0.0011073011291 0.0011055180641 0.0011037403821 0.0011019679001 0.0011002007297 0.0010984387664 0.0010966820121 0.0010949305551 0.0010931843203 
0.0010914432501 0.0010897073901 0.0010879767075 0.0010862511071 0.001084530565 0.0010828151675 0.001081104897 0.0010793996103 0.0010776994219 
0.0010760042947 0.0010743140689 0.0010726288932 0.0010709486517 0.0010692733396 0.0010676029505 0.001065937384 0.0010642767886 0.0010626210963 
0.0011118440486 0.0011100467914 0.001108254881 0.0011064683482 0.0011046871781 0.0011029113541 0.0011011407863 0.0010993754635 0.0010976153609 
0.0010958604979 0.0010941108571 0.0010923664592 0.0010906272217 0.0010888932006 0.0010871642964 0.0010854404845 0.0010837218037 0.0010820081244 
0.0010802996357 0.0010785961343 0.0010768977599 0.0010752043069 0.0010735158094 0.0010718323048 0.0010701538039 0.0010684801946 0.0010668114109 
0.001065147616 0.0010634887056 0.0010618346451 0.0011110073528 0.0011092120416 0.0011074220441 0.001105637492 0.0011038582624 0.0011020842735 
0.0011003155744 0.0010985521488 0.0010967938795 0.0010950409818 0.0010932931798 0.0010915506219 0.001089813178 0.00108808099 0.0010863538733 
0.0010846318585 0.0010829149469 0.0010812031479 0.0010794964322 0.0010777946712 0.0010760980388 0.0010744062697 0.0010727195517 0.0010710377764 
0.0010693609391 0.001067689088 0.0010660219624 0.0010643598758 0.0010627026718 0.0010610502505 0.001110172674 0.001108379287 0.0011065912778 
0.0011048086583 0.0011030312444 0.0011012591668 0.0010994923589 0.0010977308047 0.0010959744503 0.0010942233845 0.0010924775095 0.0010907367442 
0.0010890011824 0.0010872707448 0.0010855454267 0.001083825264 0.0010821101524 0.0010804001192 0.0010786951761 0.0010769952842 0.0010753003408 
0.001073610358 0.0010719253579 0.0010702453102 0.0010685701697 0.0010668999081 0.0010652346291 0.0010635741882 0.0010619186332 0.0010602679075 
0.0011093399668 0.0011075485548 0.0011057624633 0.0011039817952 0.0011022062932 0.0011004361222 0.0010986711814 0.0010969115207 0.0010951570479 
0.001093407822 0.0010916638586 0.0010899249897 0.0010881912082 0.0010864626589 0.0010847391496 0.0010830207248 0.0010813074364 0.0010795991933 
0.0010778960251 0.0010761979379 0.0010745047604 0.00107281653 0.0010711332494 0.0010694549365 0.0010677814856 0.0010661129246 0.0010644493365 
0.0010627906584 0.001061136819 0.0010594877765 0.0011085093393 0.0011067198764 0.0011049358293 0.0011031570067 0.0011013834321 0.0010996151622 
0.0010978521525 0.0010960943513 0.001094341734 0.0010925943798 0.0010908522045 0.00108911528 0.0010873834209 0.0010856565736 0.0010839349681 
0.0010822183853 0.0010805068572 0.0010788004166 0.0010770991014 0.0010754027312 0.0010737113065 0.0010720248591 0.0010703432568 0.0010686666839 
0.0010669949639 0.0010653281687 0.0010636662933 0.0010620093285 0.0010603572552 0.001058709903 0.001107680852 0.0011058934055 0.0011041112639 
0.0011023343525 0.0011005627453 0.0010987963506 0.0010970352543 0.0010952793236 0.0010935286507 0.001091783165 0.0010900428474 0.001088307713 
0.0010865776749 0.0010848527687 0.0010831329209 0.0010814181683 0.0010797084546 0.0010780038302 0.0010763042905 0.0010746096917 0.0010729199967 
0.0010712353171 0.0010695555666 0.0010678806257 0.0010662107463 0.0010645456801 0.0010628855561 0.0010612302266 0.0010595797966 0.0010579341914 
0.0011068545526 0.001105069095 0.0011032888513 0.0011015139122 0.0010997442134 0.0010979797596 0.0010962205407 0.0010944665011 0.0010927177212 
0.0010909741136 0.0010892356645 0.0010875023606 0.0010857742136 0.0010840511309 0.0010823331378 0.0010806201894 0.001078912235 0.0010772095126 
0.0010755116897 0.0010738188744 0.0010721309321 0.0010704480289 0.0010687700163 0.001067096968 0.0010654287474 0.0010637654128 0.0010621070117 
0.0010604533943 0.0010588046137 0.0010571607049 0.0011060305303 0.0011042469602 0.0011024686671 0.0011006956433 0.0010989278772 0.0010971653776 
0.0010954080507 0.0010936559186 0.001091909025 0.0010901672988 0.0010884307292 0.0010866992282 0.001084972984 0.0010832517147 0.0010815355457 
0.0010798244542 0.0010781183508 0.00107641741 0.0010747213747 0.0010730303487 0.0010713442661 0.0010696630676 0.0010679868125 0.0010663154873 
0.0010646490522 0.0010629874636 0.0010613307123 0.0010596788314 0.0010580317662 0.0010563895598 0.0011052086548 0.001103427057 0.0011016507224 
0.0010998796561 0.0010981138277 0.0010963532331 0.0010945978242 0.0010928475879 0.0010911025477 0.0010893627139 0.0010876280158 0.0010858984113 
0.0010841739352 0.0010824546095 0.0010807402784 0.0010790310363 0.0010773268644 0.0010756276196 0.0010739334034 0.0010722441624 0.0010705597589 
0.0010688803932 0.001067205931 0.0010655363688 0.0010638716414 0.0010622118132 0.0010605568148 0.001058906619 0.0010572613283 0.0010556207512 
0.0011043890733 0.001102609441 0.0011008350243 0.0010990659025 0.0010973020302 0.00109554334 0.001093789849 0.0010920415354 0.0010902984179 
0.0010885604638 0.0010868276476 0.0010850999118 0.0010833772868 0.0010816598102 0.0010799473359 0.0010782398654 0.0010765375497 0.0010748401456 
0.0010731477125 0.0010714601911 0.0010697776483 0.0010681000524 0.0010664273559 0.0010647595838 0.0010630966825 0.0010614385675 0.0010597852642 
0.0010581368082 0.0010564932294 0.0010548543114 0.0011035717768 0.0011017940726 0.0011000216493 0.0010982544746 0.0010964925399 0.0010947358074 
0.0010929842273 0.0010912378134 0.0010894965854 0.001087760528 0.0010860295407 0.001084303723 0.0010825829663 0.0010808672853 0.0010791567167 
0.0010774511853 0.0010757505971 0.0010740549995 0.0010723643739 0.0010706786831 0.0010689979373 0.0010673221123 0.0010656511805 0.0010639851687 
0.00106232403 0.001060667656 0.0010590161538 0.0010573693979 0.0010557275172 0.0010540903202 0.0011027567715 0.0011009810523 0.0010992105899 
0.0010974453763 0.0010956853674 0.0010939305478 0.00109218095 0.001090436431 0.0010886971161 0.0010869629261 0.0010852338172 0.0010835098735 
0.0010817910042 0.0010800771666 0.0010783684413 0.0010766647497 0.0010749659699 0.0010732722151 0.001071583329 0.0010698995318 0.0010682205659 
0.0010665465344 0.0010648773856 0.0010632131258 0.0010615537566 0.001059899143 0.0010582493944 0.0010566044066 0.0010549642872 0.0010533288042 
0.0011019440632 0.0011001703044 0.0010984018648 0.0010966385945 0.0010948805328 0.0010931276642 0.0010913799796 0.0010896373844 0.0010878999703 
0.0010861676447 0.0010844404451 0.0010827183981 0.0010810013773 0.0010792893984 0.0010775825385 0.0010758806661 0.0010741837199 0.0010724917248 
0.0010708047306 0.0010691227032 0.0010674455824 0.0010657733458 0.0010641059756 0.0010624435178 0.0010607858736 0.0010591330624 0.0010574850608 
0.0010558418049 0.0010542034119 0.0010525696334 0.0011011337174 0.0010993619333 0.0010975954103 0.001095834155 0.0010940780512 0.0010923271126 
0.0010905813476 0.0010888406776 0.0010871051595 0.0010853747346 0.0010836494412 0.0010819292476 0.0010802141084 0.0010785039986 0.001076798986 
0.001075098944 0.0010734037555 0.0010717136797 0.0010700285055 0.0010683482884 0.0010666729963 0.0010650025353 0.0010633369913 0.0010616762982 
0.001060020423 0.0010583693297 0.0010567231018 0.0010550815862 0.0010534448281 0.0010518128075 0.001100325682 0.0010985558858 0.0010967913155 
0.0010950319624 0.0010932778314 0.0010915288542 0.0010897850189 0.0010880462728 0.0010863126357 0.0010845841563 0.001082860798 0.0010811424828 
0.0010794291914 0.0010777210423 0.0010760178037 0.0010743195264 0.0010726262569 0.0010709380119 0.0010692546617 0.0010675762842 0.0010659027773 
0.0010642341555 0.0010625703583 0.001060911452 0.0010592573387 0.0010576080117 0.0010559635167 0.001054323749 0.0010526887638 0.0010510584778 
0.0010995198892 0.0010977521678 0.0010959895633 0.001094232171 0.0010924799378 0.0010907329034 0.0010889910473 0.0010872542306 0.0010855225327 
0.0010837959389 0.0010820744692 0.0010803580131 0.0010786466157 0.0010769403265 0.0010752388421 0.0010735424855 0.0010718511134 0.001070164704 
0.0010684831686 0.0010668066291 0.0010651349287 0.0010634680818 0.0010618061461 0.0010601489782 0.0010584966318 0.0010568489972 0.0010552062653 
0.001053568369 0.0010519351122 0.0010503065461 0.0010987165298 0.0010969507673 0.0010951901395 0.001093434685 0.0010916844215 0.0010899393218 
0.0010881993565 0.00108646454 0.0010847347344 0.001083010064 0.0010812904908 0.0010795759472 0.0010778664105 0.0010761619164 0.001074462387 
0.0010727678414 0.0010710783222 0.0010693937411 0.0010677141008 0.0010660393148 0.0010643694254 0.0010627043833 0.001061044244 0.0010593887792 
0.0010577382384 0.0010560924536 0.0010544514823 0.0010528153414 0.0010511838326 0.0010495570282 0.0010979154001 0.0010961515701 0.0010943929916 
0.00109263949 0.0010908912075 0.0010891480596 0.0010874100262 0.0010856770435 0.0010839492073 0.0010822265013 0.0010805088175 0.001078796167 
0.0010770885389 0.0010753858749 0.0010736882342 0.0010719955656 0.0010703078322 0.0010686251204 0.001066947312 0.0010652743729 0.001063606308 
0.0010619430726 0.0010602846088 0.0010586310675 0.0010569822765 0.001055338272 0.0010536990684 0.001052064673 0.0010504349184 0.0010488098913 
0.001097116574 0.0010953547325 0.0010935980351 0.001091846588 0.0010901002546 0.0010883590512 0.0010866229879 0.0010848919282 0.0010831660198 
0.0010814451793 0.0010797294572 0.0010780186067 0.0010763129467 0.001074612162 0.0010729163965 0.0010712255849 0.0010695397127 0.0010678588495 
0.0010661828509 0.0010645117231 0.0010628453941 0.0010611840286 0.0010595274398 0.0010578756801 0.0010562286671 0.001054586436 0.0010529490258 
0.0010513163147 0.0010496882891 0.0010480650227 0.0010963199955 0.0010945601015 0.0010928054045 0.0010910559469 0.0010893115719 0.0010875723204 
0.0010858381791 0.0010841090539 0.001082385088 0.0010806661713 0.0010789522286 0.00107724346 0.0010755396318 0.0010738407492 0.0010721468379 
0.0010704578652 0.0010687738611 0.0010670947994 0.0010654205829 0.001063751283 0.0010620868776 0.0010604273014 0.0010587725182 0.001057122512 
0.001055477384 0.0010538369169 0.0010522013167 0.0010505703948 0.0010489441269 0.0010473226153 0.0010955255911 0.001093767712 0.0010920150104 
0.0010902674565 0.0010885251232 0.0010867878102 0.001085055565 0.0010833284237 0.0010816063618 0.0010798892805 0.001078177334 0.0010764704833 
0.0010747684919 0.0010730715063 0.001071379519 0.0010696924393 0.0010680101901 0.0010663329796 0.0010646607029 0.0010629932499 0.0010613306601 
0.0010596728934 0.0010580199082 0.0010563717335 0.0010547283204 0.0010530896991 0.0010514559107 0.0010498267619 0.0010482022726 0.0010465824816 
0.0010947333749 0.0010929774765 0.0010912267582 0.0010894811991 0.0010877407625 0.0010860054855 0.0010842751747 0.0010825499134 0.0010808297834 
0.0010791147078 0.0010774046743 0.0010756996968 0.0010739996258 0.0010723045227 0.0010706143201 0.0010689291361 0.0010672488445 0.00106557347 
0.0010639030397 0.0010622374121 0.0010605766746 0.001058920759 0.0010572695787 0.0010556231917 0.0010539816037 0.001052344776 0.0010507127426 
0.0010490853674 0.0010474626678 0.0010458446571 0.0010939433175 0.0010921894024 0.0010904406648 0.0010886971027 0.0010869586193 0.0010852253014 
0.0010834968573 0.0010817736175 0.0010800554213 0.0010783422712 0.0010766342386 0.0010749310643 0.0010732328391 0.0010715396278 0.0010698513844 
0.0010681680404 0.0010664896541 0.0010648161867 0.0010631475664 0.0010614838288 0.0010598248898 0.0010581707837 0.0010565214268 0.0010548768679 
0.0010532370857 0.0010516020821 0.0010499718128 0.0010483462211 0.0010467253006 0.0010451090249 0.0010931553202 0.0010914034319 0.0010896566833 
0.0010879151022 0.0010861785899 0.0010844470394 0.0010827207591 0.0010809994585 0.001079283178 0.0010775718668 0.0010758657841 0.0010741645232 
0.0010724682542 0.0010707769521 0.0010690905723 0.0010674091301 0.0010657325923 0.0010640609437 0.0010623942107 0.0010607323648 0.0010590752697 
0.0010574229482 0.0010557754579 0.001054132719 0.0010524947337 0.0010508615346 0.0010492330312 0.0010476092546 0.0010459900859 0.0010443755961 
0.001092369417 0.0010906195107 0.0010888747538 0.0010871351565 0.0010854005536 0.0010836710236 0.001081946655 0.0010802272949 0.0010785129361 
0.0010768036435 0.001075099426 0.0010734000915 0.0010717057378 0.0010700163431 0.0010683318684 0.001066652295 0.0010649776296 0.0010633078185 
0.0010616429388 0.0010599828689 0.0010583276777 0.0010566772657 0.001055031605 0.0010533906952 0.0010517545369 0.001050123139 0.0010484964012 
0.0010468744146 0.0010452570273 0.0010436443615 0.0010915854395 0.001089837533 0.0010880947745 0.0010863570747 0.0010846244767 0.001082896939 
0.0010811745071 0.0010794572309 0.0010777448146 0.0010760374552 0.0010743351367 0.0010726377406 0.0010709452983 0.0010692577957 0.0010675751857 
0.0010658974928 0.0010642246998 0.001062556814 0.0010608937373 0.0010592355283 0.0010575821476 0.0010559335183 0.0010542897492 0.0010526507022 
0.0010510163351 0.0010493867217 0.001047761852 0.001046141593 0.0010445260358 0.0010429150739 0.0010908034319 0.0010890573683 0.0010873166018 
0.0010855809552 0.0010838503767 0.0010821248255 0.0010804043754 0.0010786889239 0.0010769785297 0.0010752731745 0.0010735727125 0.0010718772359 
0.0010701867067 0.0010685011122 0.001066820426 0.0010651446354 0.0010634737095 0.0010618076651 0.0010601464805 0.0010584900901 0.0010568385677 
0.0010551917948 0.0010535498161 0.001051912579 0.0010502801913 0.0010486524427 0.0010470293184 0.0010454108415 0.0010437970707 0.0010421879632 
0.0011271969751 0.0011253718905 0.0011235522499 0.0011217380982 0.001119929443 0.0011181261364 0.0011163282654 0.0011145357504 0.0011127485464 
0.0011109666917 0.0011091900899 0.0011074188664 0.0011056529255 0.0011038922462 0.0011021367487 0.0011003865087 0.0010986414276 0.0010969015953 
0.0010951668088 0.0010934372174 0.0010917127669 0.0010899934173 0.0010882791693 0.0010865699503 0.0010848658395 0.0010831666722 0.0010814725023 
0.0010797832809 0.0010780990024 0.0010764197955 0.0011263440507 0.0011245209543 0.001122703276 0.0011208911014 0.0011190843162 0.0011172830131 
0.0011154869808 0.0011136964466 0.0011119111249 0.0011101310631 0.0011083563658 0.0011065870135 0.001104822879 0.001103064068 0.001101310412 
0.0010995620006 0.0010978187708 0.0010960807038 0.001094347732 0.0010926198897 0.0010908972209 0.0010891796214 0.0010874670797 0.0010857596836 
0.0010840572748 0.0010823598291 0.0010806673771 0.0010789798525 0.0010772972766 0.0010756197572 0.0011254928271 0.0011236717029 0.0011218559862 