# vtk DataFile Version 5.1
vtk output
ASCII
DATASET STRUCTURED_POINTS
DIMENSIONS 20 20 40
SPACING 0.05 0.05 0.05
ORIGIN 3.225 -0.475 0.525
POINT_DATA 16000
FIELD FieldData 1
potential 1 16000 double
0.029027925441 0.029407596141 0.029755490299 0.030069778411 0.030354387253 0.030596526166 0.030800644056 0.030965634022 0.03109044716 
0.031174404296 0.031216981565 0.031217914778 0.0311771095 0.031094706949 0.030971133008 0.030806996265 0.030603140063 0.030360697628 
0.030080981291 0.029765523972 0.027258142348 0.027600576341 0.027914271804 0.028197608132 0.028454094992 0.028672000478 0.028855658665 
0.029004072224 0.029116387707 0.029191954414 0.029230303203 0.029231158985 0.029194462226 0.029120341922 0.029009149889 0.028861404717 
0.028677893368 0.028459577034 0.028207629855 0.027923404894 0.025619141525 0.02592846205 0.026211734768 0.026467536299 0.02669877867 
0.02689510426 0.027060561473 0.027194239956 0.027295387508 0.027363446008 0.027397970714 0.027398739082 0.027365665408 0.027298877338 
0.027198670586 0.027065519408 0.026900092436 0.026703245156 0.026476005952 0.026219609395 0.024101246788 0.024381058986 0.024637245043 
0.024868546964 0.025077078849 0.025254158999 0.025403360624 0.025523893164 0.025615087174 0.02567642571 0.025707519348 0.025708177448 
0.02567831653 0.025618036961 0.025527586393 0.025407417907 0.025258103226 0.025080396329 0.024875213731 0.024643616503 0.022696163237 
0.022949670954 0.023181711021 0.02339118318 0.023579213166 0.02373912265 0.023873840757 0.023982647021 0.024064965341 0.024120288862 
0.024148317245 0.024148847082 0.024121825822 0.024067326924 0.023985601078 0.023877003564 0.023742056187 0.023581421445 0.0233959066 
0.023186452674 0.021396337215 0.021626368693 0.021836882615 0.022026902613 0.022196397016 0.022340999689 0.022462784953 0.022561125282 
0.022635488285 0.022685465044 0.022710754528 0.022711183409 0.022686699264 0.022637372231 0.022563413717 0.022465143006 0.022343020808 
0.02219763183 0.022029697489 0.021840020287 0.020194625548 0.020403704732 0.020595003931 0.020767667213 0.020920287736 0.021051235967 
0.021161503186 0.021250515444 0.021317809553 0.021363022951 0.021385880703 0.021386233184 0.021364021285 0.021319326668 0.021252316993 
0.021163277275 0.021052623471 0.020920865738 0.020768627882 0.020596628349 0.01908400942 0.019274364091 0.019448502486 0.019605665051 
0.019742975317 0.019861749219 0.019961744844 0.020042454556 0.02010345807 0.02014443855 0.020165149699 0.020165445657 0.020145291122 
0.020104744747 0.020043964111 0.019963199754 0.019862808557 0.019743241744 0.019605046613 0.019448859825 0.018057768153 0.018231364357 
0.01839015321 0.018533469257 0.018656819624 0.018764744931 0.018855582828 0.01892889531 0.018984318995 0.019021542462 0.019040356912 
0.019040641582 0.019022358619 0.018985553317 0.018930367091 0.018857019049 0.018765820162 0.018657173257 0.018531558701 0.018389521675 
0.017109385008 0.017267969923 0.01741302469 0.017543955556 0.017654545887 0.017752791684 0.017835488299 0.017902221972 0.017952675716 
0.01798657191 0.018003742305 0.018004051919 0.017987470048 0.017954044504 0.017903889948 0.017837215485 0.01775426983 0.017655410934 
0.017541064233 0.017411711192 0.016232639907 0.016377773891 0.016510522621 0.016630371156 0.016729256213 0.016818876729 0.016894307784 
0.016955193012 0.017001244121 0.017032217073 0.017047946721 0.017048321896 0.017033312285 0.017002948837 0.016957344829 0.016896660984 
0.016821139837 0.0167310811 0.01662685114 0.016508882889 0.01556687522 0.015710353426 0.015842604445 0.015963121106 0.016099107884 
0.016187077442 0.016261002664 0.016320636897 0.016365796847 0.016396343501 0.016412200414 0.016413322061 0.01639973592 0.016371514374 
0.016328788791 0.016271748175 0.016200624142 0.016115700264 0.016017317018 0.015905863742 0.014813838998 0.014945422022 0.015066614847 
0.01517695652 0.015295354183 0.015376457384 0.015444625078 0.01549962949 0.015541322161 0.015569582918 0.015584341422 0.015585568037 
0.015573287095 0.015547568768 0.015508534076 0.015456333948 0.015391184707 0.015313344253 0.015223109203 0.015120830438 0.014115776008 
0.014236599162 0.014347783596 0.01444891637 0.014551988605 0.014626871836 0.01468980921 0.014740624309 0.014779165446 0.014805345225 
0.014819098452 0.014820403367 0.014809285451 0.014785808011 0.014750073864 0.014702232993 0.014642464758 0.014570997726 0.014488100055 
0.014394077614 0.013467862083 0.013578942847 0.013681058099 0.013773839173 0.013863640872 0.01393287344 0.013991060201 0.014038048909 
0.014073730926 0.014098007001 0.014110829899 0.014112185761 0.01410210521 0.01408063169 0.014047865188 0.014003941622 0.013949013797 
0.01388329417 0.013807013365 0.013720442205 0.012865449256 0.012967690179 0.013061588574 0.01314679791 0.01322517456 0.013289252786 
0.013343118909 0.013386627562 0.013419688178 0.013442211564 0.013454176504 0.013455561707 0.013446388543 0.01342671275 0.013396615005 
0.013356216646 0.013305663174 0.013245123796 0.01317480638 0.013094967505 0.012304028884 0.012398238319 0.012484667379 0.012563003205 
0.012631613115 0.012690989133 0.012740904182 0.01278123111 0.012811889099 0.012832810576 0.012843965808 0.012845347871 0.012836982947 
0.012818912927 0.012791222122 0.01275400199 0.012707379218 0.012651521139 0.012586612096 0.012512854342 0.011779164327 0.011866071408 
0.011945705792 0.012017778257 0.012078124342 0.012133191327 0.01217948591 0.012216896107 0.012245343583 0.012264784879 0.012275185363 
0.012276547316 0.012268891162 0.012252259392 0.012226725917 0.012192367083 0.012149308983 0.012097684293 0.012037654585 0.011969412387 
0.011286558172 0.01136680572 0.011440252649 0.011506625396 0.011560028139 0.011611149281 0.011654109764 0.011688834093 0.011715249497 
0.011733313705 0.011743006249 0.011744327313 0.011737295411 0.011721948515 0.01169834875 0.011666581767 0.011626740311 0.011578950217 
0.011523351954 0.011460116079 0.010822137657 0.010896300155 0.010964087408 0.011025260215 0.011072898399 0.011120373836 0.011160273095 
0.011192519898 0.011217053204 0.011233839681 0.011242863638 0.011244128716 0.011237642497 0.011223443419 0.011201592004 0.011172156494 
0.011135228962 0.011090917088 0.011039346101 0.010980664162 0.030952538014 0.031351735661 0.031717464913 0.032047782024 0.032346181071 
0.032600471938 0.032814738545 0.032987766179 0.033118579523 0.033206432574 0.03325081228 0.033251397928 0.033208159139 0.033121274761 
0.032991162477 0.032818502332 0.03260422625 0.032349473288 0.032055624777 0.031724287806 0.029100883363 0.029461541017 0.029791846464 
0.030090106118 0.030359385187 0.030588611707 0.030781727913 0.030937675031 0.031055578971 0.031134773251 0.031174779158 0.031175345033 
0.031136396036 0.031058109913 0.030940853032 0.030785227306 0.030592027904 0.03036225038 0.030097163805 0.029798160028 0.027386410989 
0.027712722402 0.028011498901 0.028281232276 0.028524370744 0.02873125426 0.02890552275 0.029046236654 0.029152624402 0.029224073097 
0.029260175338 0.029260683195 0.029225543391 0.02915489743 0.029049075407 0.028908578469 0.028734140097 0.028526650986 0.028287185908 
0.028016989399 0.025798030135 0.026093715175 0.026364370095 0.026608678164 0.026828262673 0.027015215581 0.027172671111 0.02729978909 
0.027395887069 0.027460421027 0.027493024714 0.02749346403 0.027461699046 0.027397852172 0.02730220499 0.027175216082 0.027017514406 
0.026829885399 0.026613288575 0.026368817558 0.024326206911 0.024594538822 0.024840092456 0.025061714933 0.025260029609 0.025429188835 
0.025571628772 0.025686626494 0.025773527618 0.025831880986 0.025861343659 0.025861725117 0.025832966376 0.025775177513 0.025688619612 
0.025573683484 0.025430926236 0.025261045451 0.02506488302 0.024843403596 0.022962483761 0.023206360612 0.023429497424 0.023630848197 
0.023809897106 0.023963157135 0.024092188773 0.024196320568 0.024275025015 0.024327852561 0.024354517707 0.024354846345 0.024328789713 
0.024276427013 0.024197993573 0.024093833271 0.02396444354 0.023810434371 0.023632544656 0.023431638264 0.021699003036 0.021921004151 
0.022124076035 0.022307309447 0.022468873195 0.022607927545 0.022724975276 0.0228194333 0.022890815718 0.022938730002 0.022962914004 
0.022963202735 0.022939562498 0.022892065968 0.022820914425 0.022726409396 0.02260898778 0.02246919205 0.02230767238 0.022125182933 
0.020528468489 0.020730862422 0.020915976247 0.021082999198 0.021228656442 0.021355017307 0.021461374432 0.02154718782 0.021612042635 
0.021655577244 0.021677554792 0.02167783725 0.021656383586 0.021613266777 0.021548649537 0.021462805565 0.021356120577 0.021229063606 
0.021082217031 0.020916239707 0.019443958368 0.019628774144 0.019797785282 0.019950285675 0.020081432925 0.020196460055 0.020293261434 
0.020371369913 0.020430398261 0.020470040106 0.020490083366 0.020490388635 0.020470921237 0.020431746159 0.020373012995 0.02029494963 
0.020197902458 0.020082279391 0.019948600614 0.019797435189 0.018438891358 0.018607919263 0.018762496296 0.018901985497 0.019019857928 
0.019124747279 0.019213023442 0.019284255797 0.01933810071 0.01937429504 0.019392630215 0.019392991333 0.019375349897 0.019339740247 
0.019286305395 0.019215248791 0.019126865549 0.019021527308 0.018899672932 0.018761820157 0.017507041319 0.017661891099 0.017803503651 
0.01793130174 0.01803701694 0.018132843744 0.018213510359 0.018278621458 0.018327864901 0.018360997298 0.01837784738 0.018378299204 
0.018362322801 0.018329957877 0.01828131547 0.018216578688 0.018136010262 0.018039921806 0.017928712847 0.017802835482 0.016791327309 
0.016943257827 0.017083144248 0.017210432329 0.017351430211 0.017444381289 0.017522381307 0.017585161475 0.017632521757 0.017664322105 
0.017680465163 0.017680916315 0.017665702717 0.017634897425 0.017588641633 0.017527131254 0.017450618123 0.017359407768 0.017253863303 
0.017134402784 0.015986123433 0.016125561609 0.016253840197 0.01637047013 0.016493810566 0.016579531146 0.016651458963 0.016709381846 
0.016753108177 0.016782521918 0.016797536455 0.016798129812 0.016784318287 0.016756178234 0.016713840536 0.016657469794 0.016587291157 
0.016503587574 0.01640667409 0.016296919255 0.015237482263 0.015365598937 0.015483359757 0.015590324117 0.015698251293 0.01577741081 
0.015843833851 0.015897333296 0.015937763125 0.015964999518 0.01597897513 0.015979680968 0.01596712528 0.015941380949 0.015902560203 
0.015850818949 0.015786357013 0.015709423402 0.015620297531 0.015519308983 0.014540570458 0.014658417123 0.014766636109 0.014864830529 
0.014959371859 0.015032556281 0.015093979383 0.015143459872 0.015180875938 0.015206120538 0.015219143717 0.015219928527 0.01520849059 
0.015184899959 0.015149249488 0.015101680829 0.015042380194 0.014971549233 0.014889460911 0.014796394929 0.013890778698 0.013999296309 
0.014098849803 0.014189082304 0.014272061537 0.014339806374 0.014396660648 0.01444247352 0.014477135267 0.014500558688 0.014512696329 
0.014513533492 0.014503092701 0.014481435042 0.014448637932 0.014404839856 0.014350191177 0.014284888329 0.014209167685 0.014123271754 
0.013283682346 0.013383711676 0.013475387648 0.013558376266 0.013631452664 0.013694218387 0.013746897967 0.013789361524 0.013821495604 
0.013843241149 0.013854552087 0.013855418526 0.013845862352 0.013825935937 0.013795716466 0.013755318444 0.013704882325 0.013644583729 
0.013574623652 0.013495229433 0.012715044726 0.012807349976 0.012891849346 0.012968244299 0.013032881535 0.013091094829 0.013139947256 
0.013179327748 0.013209148165 0.013229341023 0.013239876803 0.013240748362 0.013231973284 0.013213601424 0.013185703337 0.01314838456 
0.013101763324 0.013045998465 0.012981268658 0.01290777698 0.012180831861 0.012266083035 0.012344037591 0.012414418951 0.012471943818 
0.01252596434 0.012571301361 0.012607848627 0.012635527377 0.012654286313 0.0126640944 0.012664953225 0.012656872959 0.012639897053 
0.012614095471 0.012579557442 0.012536395893 0.012484744172 0.012424765673 0.012356640463 0.011677273035 0.011756078549 0.011828055448 
0.011892950823 0.011944519451 0.011994679442 0.012036770944 0.012070705215 0.012096408698 0.012113834944 0.012122959298 0.01212377861 
0.012116313496 0.012100596373 0.012076689262 0.012044673033 0.012004645295 0.011956733698 0.011901079962 0.01183784496 0.032758527937 
0.033174551182 0.033555627012 0.033899740779 0.034209960438 0.03447470614 0.034697680173 0.034877669428 0.035013671034 0.035104907948 
0.035150839919 0.035151181753 0.03510589034 0.035015181355 0.034879497785 0.034699568504 0.034476329204 0.034210983549 0.033904972287 
0.033559947829 0.030835300597 0.031211799216 0.031556558601 0.031867808536 0.032148175322 0.032387239667 0.032588563965 0.032751067914 
0.032873852868 0.032956221319 0.032997706533 0.032998045861 0.032957183623 0.032875315907 0.032752834625 0.032590368328 0.032388756112 
0.032149062747 0.031872540003 0.031560647482 0.029053736983 0.029394969914 0.029707338508 0.029989291458 0.030242813235 0.030458963221 
0.030640962282 0.030787857011 0.0308988392 0.030973294669 0.031010794609 0.031011107309 0.03097418551 0.03090019933 0.030789473351 
0.030642581412 0.030460256953 0.030243428953 0.029993219833 0.02971092271 0.027401987169 0.027711704354 0.027995144544 0.028250944027 
0.028480260272 0.02867593989 0.028840678687 0.028973625228 0.029074064372 0.029141455563 0.02917538801 0.029175673906 0.029142262793 
0.02907528769 0.028975067557 0.02884208642 0.028676984301 0.028480592498 0.028253905531 0.027998048966 0.025869777065 0.026151299372 
0.026408879972 0.026641292485 0.026848727944 0.027026123304 0.027175434512 0.027295906605 0.027386910196 0.027447962333 0.027478714663 
0.027478972384 0.02744870332 0.027388015154 0.027297182429 0.027176632079 0.027026944315 0.026848842537 0.026643198055 0.026411020213 
0.024448027098 0.024704300871 0.024938713675 0.025150199593 0.025337803073 0.025498800188 0.025634305567 0.025743625094 0.025826200081 
0.025881602355 0.025909511638 0.025909757564 0.02588230562 0.025827245752 0.025744827345 0.025635424165 0.025499537828 0.025337821032 
0.025151038303 0.024940079587 0.023128419606 0.023362039174 0.023575698855 0.023768438988 0.023938024446 0.024084356484 0.024207510122 
0.024306861442 0.024381909693 0.024432265004 0.024457641244 0.024457891263 0.024432975445 0.024382981548 0.024308113799 0.024208710376 
0.024085211349 0.023938191629 0.023768326602 0.023576409171 0.021903367448 0.022116652261 0.022311680454 0.022487616044 0.022640795825 
0.022774013213 0.022886107935 0.02297654391 0.023044864757 0.023090712429 0.023113847908 0.023114123322 0.023091505026 0.023046067545 
0.022977995834 0.022887574895 0.022775203251 0.022641386025 0.022486722603 0.0223118975 0.020765775921 0.020960785282 0.021139086189 
0.021299933567 0.021438141203 0.021559605827 0.021661817897 0.021744279021 0.021806587718 0.021848425884 0.021869576163 0.021869903384 
0.021849380288 0.021808059319 0.021746104993 0.021663775683 0.021561417193 0.021439478606 0.021298477043 0.021139028347 0.019708986478 
0.019887562917 0.020050824463 0.020198113073 0.020322626132 0.020433567418 0.020526929501 0.02060226807 0.02065921283 0.020697488489 
0.020716894984 0.020717304762 0.020698686711 0.020661101062 0.020604677236 0.020529641945 0.020436309363 0.020325065013 0.020196370199 
0.020050765417 0.018726771558 0.018890536292 0.019040253886 0.019175340703 0.019287304377 0.019388828354 0.01947427813 0.019543255434 
0.019595424894 0.01963053982 0.019648414985 0.019648941399 0.019632081748 0.019597886411 0.019546474485 0.019478038211 0.019392846514 
0.01929124853 0.019173650774 0.019040531075 0.017965639119 0.01812530355 0.018272141378 0.018405592027 0.018550700386 0.018648186642 
0.018729873451 0.018795501535 0.018844841842 0.018877743492 0.018894108276 0.018893902225 0.018877136292 0.01884391081 0.018794365664 
0.018728702865 0.018647192286 0.018550162478 0.018437992965 0.018311117155 0.017112528037 0.017259172738 0.017393935584 0.017516303246 
0.017643769949 0.017733707053 0.017809072989 0.017869627801 0.017915192802 0.017945623172 0.017960833101 0.017960795297 0.017945532221 
0.017915120361 0.017869690535 0.017809430612 0.017734578344 0.017645421341 0.017542306409 0.01742561449 0.016317377525 0.01645220583 
0.016576008781 0.016688320156 0.016800355345 0.016883431454 0.016953053211 0.017009006102 0.017051129122 0.017079300838 0.017093454871 
0.017093553562 0.017079630766 0.017051753989 0.017010037856 0.016954652624 0.016885811769 0.016803774828 0.016708846852 0.0166013708 
0.015575384686 0.01569948208 0.015813328666 0.01591650538 0.016015109744 0.016091937998 0.016156324371 0.016208081942 0.016247069275 
0.016273177325 0.016286350657 0.016286563202 0.016273839137 0.016248243452 0.016209878831 0.016158898048 0.016095493572 0.01601989607 
0.01593237896 0.015833244022 0.014882003702 0.014996341467 0.015101132617 0.015196001789 0.015282987235 0.015354106326 0.015413712727 
0.015461640731 0.015497761172 0.015521979323 0.015534242781 0.015534536341 0.015522884564 0.015499341294 0.015464007642 0.015417009934 
0.015358523552 0.015288761715 0.015207958449 0.015116395897 0.014232914745 0.014338362786 0.014434911013 0.014522213264 0.014599202335 
0.014665112209 0.01472034497 0.01476476272 0.014798251914 0.014820728709 0.014832149681 0.014832500383 0.014821800452 0.014800108519 
0.014767504629 0.014724115903 0.014670093012 0.014605619883 0.014530914227 0.014446226211 0.013624032529 0.013721375806 0.013810409031 
0.013890816451 0.013959272346 0.014020396738 0.014071622274 0.01411281435 0.014143880747 0.014164751586 0.01417538151 0.014175765566 
0.014165917274 0.014145889106 0.014115758394 0.014075637214 0.014025662546 0.013965993539 0.013896829853 0.013818393129 0.013051512471 
0.013141453803 0.013223627797 0.013297747934 0.013358962692 0.013415686047 0.013463221776 0.013501451493 0.013530290247 0.01354966692 
0.013559557924 0.013559948661 0.013550858768 0.013532337678 0.01350444521 0.013467286278 0.013420982169 0.013365686239 0.013301564374 
0.013228820521 0.012511792021 0.012594968592 0.012670877923 0.012739255115 0.012794372055 0.01284704352 0.012891180476 0.012926674677 
0.012953447127 0.012971443499 0.012980634849 0.012981015541 0.012972601275 0.012955429306 0.012929565734 0.012895100927 0.012852139259 
0.012800818216 0.012741295662 0.012673747613 0.03444214271 0.034872332147 0.035266313633 0.035622010741 0.035942135736 0.036215632501 
0.03644593125 0.036631767121 0.036772115825 0.036866183783 0.036913439316 0.036913596368 0.036866620086 0.036772726519 0.036632399974 
0.036446382345 0.03621565186 0.035941446436 0.035625221057 0.035268683916 0.032458202326 0.032848219574 0.033205287417 0.033527587932 
0.033817353941 0.034064773654 0.034273079833 0.034441159027 0.03456809179 0.034653178178 0.034695930648 0.034696095585 0.034653636196 
0.034568749391 0.034441855659 0.034273598925 0.034064856861 0.033816714457 0.033530467909 0.033207611421 0.030618647915 0.030972739567 
0.031296823331 0.031589290042 0.031851716189 0.032075824126 0.032264479647 0.032416682443 0.032531624376 0.03260867593 0.03264741038 
0.032647568767 0.032609143269 0.032532289332 0.032417388946 0.032265012763 0.032075917701 0.031851075188 0.031591624184 0.031298891281 
0.028911347883 0.029233276861 0.029527843005 0.029793617395 0.030031359687 0.030234606206 0.03040567705 0.030543699532 0.030647909044 
0.030717761814 0.030752881791 0.03075304707 0.030718224667 0.030648570009 0.030544399261 0.030406218944 0.030234711077 0.030030721072 
0.029795261875 0.029529510038 0.02732566988 0.027618768119 0.027886905167 0.028128772039 0.028344171725 0.028528731529 0.028684054079 
0.028809341969 0.028903942375 0.028967360734 0.028999256121 0.028999430979 0.0289678493 0.028904639569 0.028810088752 0.028684635573 
0.028528888561 0.028343593769 0.028129650174 0.027888094211 0.025852181627 0.026119388529 0.026363777153 0.026584206281 0.026779332882 
0.026947147883 0.02708835716 0.027202252274 0.027288260629 0.027345926464 0.027374944228 0.027375132121 0.027346465048 0.027289046637 
0.027203130284 0.027089103858 0.026947505924 0.026778992027 0.02658436302 0.026364531424 0.024482282637 0.024726237496 0.024949301174 
0.025150487858 0.025327182499 0.025479980402 0.025608546806 0.025712246907 0.025790554298 0.025843075523 0.025869527464 0.025869747438 
0.025843708704 0.025791506125 0.025713358021 0.025609604326 0.025480721322 0.025327294747 0.025150021221 0.024949716727 0.023208204691 
0.023431235801 0.023635141686 0.023819034233 0.023978920541 0.024118257248 0.024235489861 0.02433005042 0.024401465867 0.024449386642 
0.024473557889 0.024473833876 0.024450185623 0.024402684267 0.024331531325 0.024237030071 0.024119593195 0.023979742222 0.023818091468 
0.023635362263 0.022022734594 0.022226926639 0.022413579922 0.022581922915 0.022726461565 0.022853718953 0.022960784049 0.023047155018 
0.023112412903 0.023156230803 0.023178380277 0.023178733482 0.023157257837 0.023114018321 0.02304918449 0.022963027316 0.022855913144 
0.022728292713 0.022580718232 0.022413827251 0.020919169377 0.021106372078 0.021277485416 0.021431819978 0.021562318351 0.021678735201 
0.021776690677 0.021855733477 0.021915483172 0.021955644515 0.021976013593 0.021976473842 0.021956989533 0.021917615038 0.021858503313 
0.021779887532 0.021682087687 0.021565509581 0.021430639828 0.021278035155 0.019891260722 0.020063124612 0.020220213436 0.020361913036 
0.020479545691 0.020586240607 0.020676033491 0.020748514803 0.020803345731 0.020840260147 0.020859069592 0.020859662298 0.020842013444 
0.020806164163 0.020752242058 0.020680452446 0.02059108129 0.020484485517 0.020361092466 0.020221395779 0.019089179107 0.019255833204 
0.019408954376 0.019547950157 0.019696285019 0.01979785888 0.019882870331 0.019951032022 0.020002126109 0.020035981845 0.020052499228 
0.020051637571 0.020033422016 0.019997937838 0.019945339849 0.019875846825 0.019789736772 0.019687351646 0.019569088967 0.019435400197 
0.018192349426 0.018345539931 0.018486183124 0.018613746885 0.018744535099 0.018838287694 0.018916757359 0.018979686561 0.019026877187 
0.019058190977 0.019073535596 0.019072876737 0.01905623763 0.019023699888 0.018975400159 0.018911533981 0.018832354296 0.018738170018 
0.018629327227 0.018506237634 0.0173546785 0.01749563746 0.01762494077 0.017742113153 0.017857532388 0.017944169583 0.018016682506 
0.018074846448 0.018118489217 0.018147480627 0.018161742953 0.018161254812 0.018146033078 0.018116152672 0.018071736895 0.018012963332 
0.017940058469 0.017853293199 0.017752986787 0.017639500786 0.016571422419 0.016701249633 0.016820242298 0.016927960424 0.017029985847 
0.017110129656 0.017177210971 0.017231028547 0.017271427772 0.017298296812 0.017311566556 0.017311212508 0.017297259642 0.017269777751 
0.01722887962 0.017174714837 0.017107494181 0.017027457761 0.016934891085 0.016830124081 0.015838103299 0.015957791327 0.016067391292 
0.016166507216 0.016256910367 0.016331129944 0.016393248739 0.016443091161 0.016480520701 0.01650544154 0.0165177879 0.016517545249 
0.016504731771 0.016479414767 0.016441690031 0.016391708675 0.016329642549 0.016255713883 0.016170178536 0.016073331188 0.015150508602 
0.015260959581 0.015361998759 0.015453266279 0.015533653305 0.015602443083 0.015660019249 0.015706218196 0.01574092262 0.015764043421 
0.01577553211 0.015775371795 0.015763581851 0.015740216721 0.015705375315 0.01565917848 0.015601797038 0.015533417458 0.015454274588 
0.015364632433 0.014504674932 0.014606689249 0.014699917732 0.014784033365 0.01485583134 0.014919637823 0.014973036783 0.015015891373 
0.015048090564 0.015069555148 0.015080240682 0.015080137841 0.015069260225 0.015047666367 0.015015432659 0.014972677613 0.014919544708 
0.01485621812 0.014782893471 0.014699814641 0.013896896507 0.013991205836 0.014077302838 0.014154885622 0.014219368477 0.014278594524 
0.014328156048 0.014367928628 0.014397812568 0.01441774504 0.014427677146 0.014427608546 0.014417548352 0.014397548859 0.014367682966 
0.014328055392 0.014278794221 0.014220062189 0.014152047047 0.014074956079 0.013323777237 0.013411035141 0.013490605271 0.0135622176 
0.013620512069 0.013675514167 0.013721536306 0.01375846487 0.013786213672 0.013804718511 0.013813946614 0.013813888228 0.013804558564 
0.013786001139 0.013758285713 0.01372150223 0.013675770268 0.013621233102 0.013558057641 0.013486436448 0.03600170906 0.036443494874 
0.036848009101 0.037213155444 0.037541284959 0.037821900056 0.038058137097 0.038248712268 0.038392587024 0.0384889644 0.038537298598 
0.038537313111 0.03848897799 0.038392517364 0.038248442037 0.038057497198 0.037820690213 0.03753928159 0.037214757855 0.036848832865 
0.033967967297 0.034369229078 0.034736523945 0.035067992539 0.035365498355 0.035619832299 0.03583391144 0.036006600459 0.036136963452 
0.036224296111 0.03626811048 0.036268153092 0.036224379986 0.0361370151 0.036006482565 0.035833463893 0.03561883841 0.035363710651 
0.035069411661 0.034737452679 0.032079792237 0.032444739125 0.032778692648 0.033080002047 0.033349877734 0.033580668754 0.033774904081 
0.033931570414 0.034049850011 0.034129081122 0.034168839819 0.034168894139 0.034129214288 0.034049990922 0.033931595345 0.033774623476 
0.033579857605 0.033348280731 0.033081065346 0.032779553574 0.030325096387 0.030657455846 0.030961499144 0.031235773948 0.031480654334 
0.031690360139 0.031866805188 0.032009110869 0.032116532618 0.03218849877 0.032224624631 0.032224705217 0.032188706875 0.032116783702 
0.032009272546 0.031866692052 0.031689743128 0.031479292684 0.031236378231 0.030962190756 0.028693187044 0.028996264232 0.029273456377 
0.029523462722 0.029745682907 0.029936425823 0.030096913732 0.030226340929 0.030324030216 0.03038950044 0.030422384469 0.030422494022 
0.03038979979 0.030324439058 0.030226701304 0.030097052701 0.029936104029 0.029744630965 0.029523551469 0.029273917608 0.027174441913 
0.027451183563 0.027704228078 0.027932425956 0.028134058593 0.02830779974 0.028453958739 0.028571830281 0.02866081535 0.02872045511 
0.02875043804 0.028750589469 0.028720874463 0.028661418605 0.028572479087 0.02845446103 0.028307905912 0.028133502008 0.027932059272 
0.027704510027 0.025760230429 0.026013259348 0.0262445787 0.026453169184 0.026636049969 0.026794510882 0.026927817096 0.027035320514 
0.027116485033 0.027170904118 0.027198299175 0.027198505175 0.027171494827 0.027117365993 0.027036354465 0.026928810979 0.026795219546 
0.026636187539 0.026452430954 0.026244778582 0.024442682269 0.024674334029 0.024886075951 0.025077003399 0.025242779713 0.025387516327 
0.025509271106 0.02560746848 0.025681624643 0.025731375534 0.02575646526 0.025756747194 0.025732189615 0.025682881929 0.025609024953 
0.025510935306 0.025389039816 0.025243866854 0.025076059598 0.024886352024 0.023214539524 0.023426900914 0.023620983233 0.023795991688 
0.023946133303 0.024078532704 0.024189914516 0.024279759798 0.024347637632 0.024393210979 0.02441625647 0.024416637871 0.024394323094 
0.024349388381 0.024282007626 0.024192461979 0.024081124612 0.023948470468 0.023795063209 0.023621555178 0.022069096278 0.022264023142 
0.022442164305 0.022602802917 0.022738631779 0.022859943655 0.022962008897 0.0230443579 0.02310661105 0.023148460748 0.023169700882 
0.023170207151 0.023149952389 0.023108994733 0.023047486966 0.022965676774 0.022863894014 0.022742558756 0.022602169516 0.022443308992 
0.021000115405 0.021179272645 0.021342995383 0.021490645389 0.021613359926 0.021724702994 0.021818402356 0.021894036378 0.021951255841 
0.021989788968 0.022009443105 0.022010106412 0.021991749054 0.021954418374 0.02189824975 0.021823459296 0.021730337214 0.021619253147 
0.021490652858 0.021345049009 0.020161460562 0.020334374547 0.020493103334 0.020637038412 0.020787750872 0.020892962258 0.020980916915 
0.021051324551 0.021103946237 0.021138609171 0.02115520848 0.021153702499 0.021134117115 0.021096545474 0.021041140737 0.020968135586 
0.020877817139 0.020770542723 0.020646717685 0.020506817638 0.019225024957 0.01938410961 0.019530031003 0.019662242676 0.019795584591 
0.019892754887 0.01997398557 0.020039017799 0.020087644026 0.020119711655 0.02013512336 0.02013384736 0.020115912464 0.020081399943 
0.020030447125 0.019963266487 0.019880112955 0.019781305514 0.019667216092 0.019538262005 0.018348739129 0.018495236186 0.018629506022 
0.01875104726 0.018869157579 0.01895899694 0.019034099439 0.019094231601 0.019139214841 0.01916890764 0.019183231626 0.019182153871 
0.019165700102 0.019133951665 0.019087036517 0.019025132759 0.018948477581 0.018857358389 0.018752102147 0.018633091805 0.017527923856 
0.01766295596 0.017786609948 0.017898431358 0.018003240929 0.018086391072 0.01815589856 0.01821156076 0.018253208743 0.018280726531 
0.018294043537 0.018293132285 0.018278017176 0.018248770334 0.018205504484 0.018148391312 0.018077637056 0.017993497104 0.017896272387 
0.017786299815 0.016758186855 0.016882761229 0.01699673845 0.017099701618 0.017192958423 0.017269987803 0.017334376281 0.01738594181 
0.0174245365 0.017450057584 0.017462440889 0.017461665983 0.017447754934 0.017420769089 0.017380818532 0.017328052695 0.017262660651 
0.017184867234 0.017094945476 0.016993200554 0.016035405259 0.016150439124 0.016255584683 0.016350468592 0.016433740157 0.016505156526 
0.016564851313 0.016612659774 0.01664845194 0.016672133765 0.016683648098 0.016682980711 0.016670149285 0.01664521583 0.016608273589 
0.01655945793 0.016498937772 0.016426925434 0.016343654984 0.016249406233 0.015355728933 0.015462043158 0.015559124622 0.015646631229 
0.015721314532 0.015787579779 0.015842964193 0.015887319341 0.015920529783 0.015942512484 0.015953218562 0.015952630118 0.015940770831 
0.015917693093 0.015883481007 0.0158382607 0.015782180933 0.015715430127 0.015638228005 0.015550819811 0.014715576798 0.014813915559 
0.014903623588 0.014984386276 0.015051729321 0.015113252935 0.015164669223 0.015205842828 0.015236672636 0.015257081891 0.015267028475 
0.015266498564 0.015255511915 0.015234115182 0.01520238735 0.015160438105 0.015108405081 0.01504645752 0.014974790568 0.014893632006 