# vtk DataFile Version 5.1
vtk output
ASCII
DATASET STRUCTURED_POINTS
DIMENSIONS 30 30 30
SPACING 0.01 0.01 0.01
ORIGIN 1.555 -0.145 0.855
POINT_DATA 27000
FIELD FieldData 1
potential 1 27000 double
0.0010244113002 0.0010228812548 0.0010213560829 0.0010198358233 0.0010183204564 0.0010168098493 0.0010153041481 0.0010138031844 0.0010123070941 
0.0010108157879 0.0010093292081 0.0010078474262 0.001006370429 0.0010048981521 0.0010034306386 0.0010019678082 0.001000509691 0.00099905628463 
0.0009976076385 0.00099616369711 0.0009947244331 0.00099328987349 0.00099185990647 0.00099043457165 0.0009890139126 0.00098759788059 0.00098618653167 
0.00098477975865 0.00098337760887 0.00098197997877 0.0010250683546 0.0010235360837 0.0010220087725 0.0010204864161 0.0010189688355 0.0010174561891 
0.0010159483029 0.0010144452284 0.0010129470138 0.0010114535918 0.0010099649098 0.0010084810516 0.0010070019559 0.0010055276636 0.001004058059 
0.0010025931797 0.0010011330499 0.00099967763587 0.00099822696327 0.00099678100724 0.0009953397101 0.00099390320318 0.00099247123432 0.00099104395174 
0.00098962133858 0.00098820337544 0.00098679004862 0.00098538133557 0.00098397724496 0.00098257770482 0.0010257275328 0.0010241930917 0.0010226635894 
0.0010211390391 0.0010196194388 0.0010181045767 0.0010165945643 0.0010150893747 0.0010135889768 0.0010120934529 0.0010106026827 0.0010091167319 
0.001007635593 0.00100615924 0.0010046876043 0.0010032206461 0.0010017584683 0.0010003010431 0.00099884834852 0.00099740041251 0.0009959571799 
0.00099451857533 0.00099308464051 0.00099165539717 0.0009902307986 0.00098881084302 0.00098739557415 0.00098598493506 0.00098457887475 0.0009831774876 
0.001026388911 0.0010248522621 0.001023320627 0.0010217939707 0.0010202720961 0.0010187551137 0.0010172429791 0.001015735623 0.0010142331507 
0.0010127354754 0.0010112426175 0.0010097545716 0.0010082713696 0.0010067929002 0.0010053192034 0.0010038502651 0.0010023860457 0.0010009266302 
0.00099947188164 0.00099802198279 0.0009965766549 0.00099513604052 0.00099370012713 0.00099226893277 0.00099084238651 0.00098942045095 0.00098800320376 
0.00098659060446 0.00098518261645 0.00098377930826 0.0010270525133 0.0010255137304 0.0010239798934 0.0010224509748 0.0010209269493 0.0010194077933 
0.0010178935207 0.0010163840425 0.0010148794493 0.0010133796551 0.0010118847408 0.0010103945714 0.0010089092622 0.0010074287473 0.0010059529736 
0.0010044819859 0.0010030157646 0.0010015542953 0.0010000975218 0.00099864561486 0.00099719830473 0.00099575569688 0.00099431779226 0.00099288459366 
0.00099145607087 0.00099003217116 0.00098861299174 0.00098719842619 0.00098578849392 0.00098438324918 0.0010277183632 0.0010261773776 0.0010246414293 
0.0010231103137 0.0010215841034 0.0010200627661 0.001018546288 0.001017034697 0.001015527998 0.0010140261118 0.0010125291079 0.001011036903 
0.0010095494331 0.0010080667954 0.0010065889963 0.0010051159541 0.0010036476866 0.0010021842136 0.0010007254582 0.00099927145822 0.00099782212036 
0.00099637751702 0.00099493764575 0.00099350244744 0.0009920719339 0.00099064611046 0.00098922495316 0.00098780842071 0.00098639656093 0.0009849893783 
0.001028386533 0.0010268434094 0.0010253052415 0.0010237719163 0.0010222434851 0.0010207200072 0.001019201408 0.0010176876634 0.0010161788125 
0.0010146748006 0.0010131756575 0.0010116814156 0.0010101919033 0.0010087071561 0.0010072272558 0.0010057521878 0.001004281868 0.0010028163405 
0.0010013555938 0.00099989952941 0.00099844821006 0.00099700160191 0.00099555971853 0.00099412252969 0.00099269003869 0.00099126215388 0.00098983908395 
0.00098842067453 0.0009870068685 0.00098559772918 0.0010290570245 0.0010275117753 0.0010259713272 0.0010244358361 0.0010229052609 0.0010213795928 
0.0010198588045 0.0010183429628 0.0010168319871 0.0010153258707 0.0010138246146 0.0010123282265 0.0010108366173 0.0010093498721 0.001007867857 
0.0010063906888 0.0010049183153 0.0010034508187 0.0010019880111 0.0010005299185 0.00099907657716 0.00099762796681 0.0009961840627 0.0009947448823 
0.00099331039796 0.0009918805852 0.0009904554754 0.00098903514074 0.00098761936988 0.00098620829771 0.0010297299805 0.0010281824308 0.0010266398074 
0.0010251021386 0.0010235693733 0.0010220415601 0.0010205186072 0.0010190006074 0.0010174874734 0.0010159792472 0.0010144758723 0.0010129773446 
0.0010114836956 0.00100999484 0.0010085108209 0.0010070315357 0.0010055570878 0.0010040875716 0.0010026226646 0.0010011625902 0.0009997072313 
0.00099825660561 0.00099681071071 0.00099536953771 0.00099393302862 0.00099250127086 0.00099107418927 0.00098965184981 0.00098823417335 0.00098682114598 
0.001030405289 0.001028855511 0.0010273106873 0.0010257708218 0.0010242358894 0.0010227058898 0.001021180788 0.0010196606392 0.0010181453643 
0.0010166350099 0.0010151295125 0.0010136288613 0.0010121331341 0.0010106422117 0.0010091561119 0.0010076747867 0.0010061983634 0.0010047266904 
0.0010032597231 0.0010017975219 0.0010003402142 0.00099888758326 0.00099743969708 0.00099599644257 0.00099455802366 0.00099312425263 0.00099169522335 
0.0009902708821 0.00098885123759 0.00098743634145 0.0010310830539 0.0010295310253 0.001027984001 0.001026441926 0.0010249048249 0.0010233726641 
0.0010218453976 0.0010203230635 0.0010188056552 0.0010172931608 0.0010157855254 0.0010142827875 0.0010127849054 0.00101129192 0.0010098037592 
0.0010083203903 0.0010068419401 0.0010053681234 0.0010038991681 0.0010024349694 0.0010009755669 0.00099952091845 0.00099807097455 0.00099662580641 
0.00099518533209 0.00099374960594 0.00099231857034 0.0009908922589 0.00098947065034 0.00098805378271 0.0010317632212 0.0010302089726 0.0010286597304 
0.0010271154591 0.0010255761726 0.0010240418263 0.0010225124012 0.0010209879143 0.0010194683597 0.0010179537309 0.0010164439802 0.0010149391185 
0.0010134390998 0.0010119440127 0.0010104537458 0.0010089684092 0.0010074878559 0.0010060120508 0.0010045409981 0.0010030747493 0.0010016133253 
0.0010001566149 0.00099870467527 0.00099725753107 0.00099581506531 0.00099437732268 0.00099294427538 0.00099151599782 0.0009900923858 0.00098867356578 
0.0010324458335 0.0010308893688 0.0010293379101 0.0010277914476 0.0010262499715 0.0010247134576 0.0010231818572 0.0010216552029 0.0010201334639 
0.0010186166547 0.0010171048265 0.0010155978476 0.0010140957609 0.0010125985344 0.0010111062085 0.0010096188193 0.0010081361776 0.0010066582967 
0.0010051852362 0.0010037169228 0.001002253423 0.0010007946986 0.00099934077621 0.00099789162341 0.00099644712759 0.00099500742003 0.00099357239014 
0.00099214213093 0.00099071655125 0.00098929577008 0.0010331309114 0.0010315722194 0.0010300185169 0.0010284698598 0.0010269261805 0.0010253874966 
0.0010238537249 0.0010223249133 0.0010208010644 0.0010192820878 0.0010177681199 0.0010162590273 0.0010147548344 0.0010132555097 0.001011761166 
0.001010271603 0.0010087868555 0.0010073069169 0.0010058318383 0.0010043615266 0.0010028959455 0.0010014352116 0.0009999792757 0.00099852811135 
0.00099708163886 0.00099563994102 0.00099420289611 0.00099277066974 0.00099134311209 0.00098992036491 0.0010338184279 0.001032257504 0.001030701609 
0.0010291507437 0.0010276048664 0.001026063997 0.0010245280365 0.0010229970988 0.0010214710849 0.0010199499568 0.0010184338599 0.0010169226462 
0.001015416324 0.0010139149061 0.0010124184276 0.0010109267942 0.0010094399823 0.0010079579992 0.0010064808547 0.0010050084495 0.0010035408857 
0.0010020781308 0.0010006202069 0.0009991670117 0.00099771852056 0.00099627482489 0.00099483584007 0.00099340159685 0.00099197204979 0.00099054729479 
0.001034508446 0.001032945285 0.0010313871796 0.0010298340862 0.0010282860086 0.0010267429554 0.0010252048284 0.0010236717082 0.0010221435134 
0.0010206203064 0.0010191020321 0.0010175886938 0.0010160802659 0.0010145768145 0.0010130781574 0.0010115843914 0.0010100955547 0.001008611493 
0.0010071322008 0.0010056578603 0.0010041882625 0.001002723445 0.0010012634893 0.00099980826974 0.00099835779751 0.00099691209513 0.00099547111186 
0.0009940349067 0.00099260341064 0.00099117668722 0.0010352008251 0.0010336354394 0.0010320751547 0.0010305198472 0.0010289695911 0.0010274243352 
0.001025884032 0.0010243487394 0.0010228183771 0.0010212930354 0.0010197726415 0.001018257161 0.001016746628 0.0010152410691 0.0010137403129 
0.0010122444227 0.0010107535329 0.0010092673443 0.0010077860467 0.0010063096519 0.0010048379973 0.001003371163 0.0010019091727 0.0010004519379 
0.00099899943769 0.00099755177348 0.00099610880247 0.00099467060204 0.0009932371706 0.00099180839842 0.0010358956979 0.0010343281093 0.0010327655415 
0.0010312080772 0.0010296556234 0.0010281081531 0.0010265656741 0.0010250281811 0.0010234956961 0.0010219682213 0.0010204456785 0.0010189280574 
0.0010174154793 0.0010159077054 0.0010144048168 0.0010129068571 0.0010114138065 0.0010099256224 0.0010084422603 0.0010069637819 0.0010054901474 
0.0010040212987 0.0010025572742 0.001001097988 0.00099964347958 0.00099819378942 0.00099674883187 0.00099530864686 0.00099387315522 0.00099244242819 
0.0010365930617 0.0010350232054 0.0010334584029 0.0010318986794 0.0010303439996 0.0010287943939 0.0010272497387 0.0010257100715 0.0010241754179 
0.0010226457967 0.0010211211035 0.0010196013718 0.0010180866388 0.0010165767742 0.0010150717749 0.001013571663 0.0010120765607 0.001010586312 
0.001009100887 0.0010076203645 0.0010061446553 0.0010046737677 0.001003207693 0.0010017464001 0.0010002898894 0.00099883816484 0.00099739113802 
0.00099594897322 0.00099451157255 0.00099307885158 0.0010372927863 0.0010357206845 0.0010341536859 0.0010325917228 0.0010310348478 0.0010294829812 
0.0010279361814 0.0010263943481 0.0010248575603 0.0010233257502 0.0010217989121 0.0010202770446 0.0010187602068 0.0010172481776 0.001015741043 
0.0010142389198 0.0010127416808 0.0010112493704 0.0010097619039 0.0010082793017 0.001006801513 0.0010053286007 0.001003860494 0.0010023971726 
0.0010009386212 0.00099948480347 0.00099803585246 0.00099659167178 0.00099515229937 0.00099371762832 0.0010379948988 0.0010364205587 0.0010348512604 
0.00103328714 0.0010317280221 0.0010301739987 0.0010286249264 0.001027080951 0.0010255420336 0.0010240080738 0.0010224790974 0.0010209551685 
0.0010194361197 0.0010179219127 0.0010164127308 0.0010149084814 0.0010134091642 0.0010119147576 0.0010104252347 0.0010089405666 0.0010074607599 
0.0010059857754 0.0010045156326 0.0010030502057 0.0010015896378 0.0010001338767 0.00099868291487 0.00099723672847 0.0009957953265 0.0009943586575 
0.0010386993742 0.0010371227702 0.0010355512516 0.0010339848719 0.0010324235805 0.0010308673381 0.0010293160689 0.0010277699364 0.0010262288048 
0.0010246927305 0.0010231615996 0.0010216355247 0.0010201142891 0.0010185980377 0.0010170867385 0.0010155803742 0.0010140789638 0.0010125824391 
0.0010110908587 0.0010096041469 0.0010081222793 0.0010066451774 0.0010051729904 0.0010037056085 0.0010022429918 0.0010007852351 0.00099933225052 
0.00099788409225 0.00099644066856 0.0009950019719 0.0010394061439 0.0010378272748 0.0010362535652 0.0010346849335 0.0010331214443 0.0010315629936 
0.0010300095341 0.0010284611955 0.0010269178873 0.0010253796093 0.0010238464254 0.0010223181267 0.0010207947918 0.0010192764381 0.001017763019 
0.0010162545519 0.0010147510442 0.0010132524292 0.0010117587667 0.0010102699986 0.0010087859801 0.0010073069076 0.0010058326516 0.0010043632352 
0.0010028986341 0.0010014388156 0.00099998384065 0.00099853367947 0.00099708826342 0.00099564759283 0.0010401151861 0.001038534064 0.0010369580905 
0.0010353872556 0.0010338215077 0.001032260841 0.0010307052552 0.0010291547302 0.0010276092501 0.0010260688069 0.0010245333899 0.0010230029462 
0.0010214775153 0.0010199570735 0.0010184415577 0.0010169309758 0.0010154253646 0.0010139246503 0.0010124288067 0.0010109379771 0.0010094519878 
0.0010079708549 0.0010064945541 0.0010050231118 0.0010035565034 0.0010020946782 0.0010006376898 0.00099918552678 0.00099773811275 0.00099629545087 
0.0010408264527 0.0010392430939 0.0010376648795 0.0010360918381 0.0010345238581 0.0010329609457 0.0010314031777 0.001029850466 0.0010283028098 
0.0010267601388 0.0010252226337 0.0010236900369 0.0010221624558 0.001020639853 0.0010191222692 0.0010176096189 0.0010161018293 0.0010145990257 
0.0010131011588 0.0010116082724 0.0010101202274 0.0010086370433 0.0010071586793 0.0010056851606 0.0010042165365 0.001002752692 0.0010012937575 
0.0009998395658 0.00099839013914 0.0009969454826 0.0010415399091 0.0010399543133 0.0010383738451 0.0010367985499 0.001035228396 0.0010336632612 
0.0010321032954 0.0010305483329 0.0010289984997 0.0010274537225 0.0010259140598 0.0010243793296 0.0010228495947 0.0010213248576 0.0010198050452 
0.001018290258 0.0010167804876 0.0010152756248 0.0010137756552 0.0010122807254 0.001010790605 0.0010093053651 0.0010078249393 0.0010063494093 
0.0010048787147 0.0010034128724 0.0010019518966 0.0010004956949 0.00099904426295 0.000997597658 0.0010422554956 0.001040667614 0.0010390849491 
0.0010375074192 0.001035934964 0.001034367684 0.0010328054398 0.0010312483971 0.0010296963842 0.0010281495169 0.0010266076164 0.0010250706446 
0.0010235387782 0.0010220119109 0.0010204900385 0.0010189731439 0.0010174612169 0.0010159542472 0.0010144522192 0.0010129551869 0.0010114631044 
0.0010099757685 0.0010084933152 0.0010070157433 0.0010055430238 0.0010040751184 0.0010026121492 0.0010011539369 0.00099970050337 0.00099825191016 
0.0010429732148 0.0010413830551 0.0010397981451 0.0010382183794 0.0010366437003 0.0010350741552 0.0010335097802 0.0010319505145 0.0010303963135 
0.0010288472096 0.0010273031376 0.0010257641014 0.0010242300934 0.0010227011089 0.0010211771127 0.0010196581128 0.0010181440945 0.0010166350051 
0.0010151309012 0.0010136317177 0.0010121375528 0.0010106481751 0.001009163723 0.0010076841108 0.0010062093641 0.0010047394471 0.0010032744441 
0.0010018142691 0.001000358832 0.0009989081765 0.0010436929201 0.0010421005145 0.0010405133414 0.0010389313397 0.0010373543743 0.0010357826597 
0.0010342160458 0.0010326545383 0.001031098162 0.0010295469502 0.0010280007024 0.0010264595138 0.0010249233753 0.0010233922763 0.0010218661569 
0.0010203450484 0.0010188289093 0.0010173177478 0.0010158115418 0.0010143102801 0.0010128140162 0.0010113225874 0.0010098360767 0.0010083544206 
0.0010068777262 0.0010054058274 0.0010039387394 0.0010024765122 0.0010010190502 0.00099956640885 0.0010444145003 0.0010428198509 0.0010412304079 
0.0010396460534 0.0010380669181 0.0010364929702 0.0010349241778 0.0010333605096 0.0010318020849 0.0010302486587 0.0010287002464 0.0010271569037 
0.0010256186226 0.001024085374 0.001022557147 0.0010210339077 0.0010195156699 0.0010180024286 0.0010164941222 0.0010149907983 0.0010134923874 
0.0010119989288 0.0010105104086 0.0010090266475 0.0010075478564 0.0010060739278 0.0010046048622 0.0010031406225 0.0010016811777 0.0010002265235 
0.0010350994964 0.0010335560896 0.00103201761 0.0010304841113 0.0010289554632 0.0010274317302 0.0010259127798 0.0010243988335 0.0010228896177 
0.0010213851388 0.0010198855605 0.0010183908364 0.0010169008766 0.001015415709 0.0010139352843 0.0010124596676 0.0010109887764 0.0010095225605 
0.0010080611867 0.0010066045329 0.001005152567 0.0010037053445 0.0010022628408 0.0010008249486 0.00099939176674 0.00099796329112 0.00099653942593 
0.00099512023443 0.00099370564422 0.00099229570521 0.001035764708 0.0010342191149 0.0010326784875 0.0010311427408 0.0010296120217 0.0010280860886 
0.0010265651041 0.0010250488729 0.0010235374683 0.0010220309539 0.0010205292583 0.0010190323955 0.0010175403409 0.0010160531119 0.0010145706557 
0.0010130928898 0.0010116199647 0.0010101517239 0.0010086882932 0.001007229597 0.001005775648 0.0010043263753 0.0010028819125 0.0010014420356 
0.0010000068694 0.00099857640574 0.00099715057344 0.00099572940306 0.00099431287923 0.00099290099688 0.0010364320425 0.0010348842209 0.0010333414309 
0.0010318034974 0.0010302705445 0.001028742527 0.0010272193108 0.0010257009889 0.0010241874743 0.001022678779 0.0010211749777 0.001019676015 
0.0010181818459 0.0010166925084 0.0010152079907 0.0010137282128 0.0010122531593 0.0010107829132 0.0010093174633 0.0010078566934 0.0010064007129 
0.0010049494998 0.00100350291 0.0010020610882 0.001000623941 0.00099919147585 0.00099776369078 0.00099634051862 0.00099492207817 0.00099350832595 
0.0010371014632 0.0010355514919 0.0010340064391 0.0010324663471 0.0010309311877 0.0010294009775 0.0010278756208 0.0010263551209 0.0010248394634 
0.0010233286662 0.0010218227239 0.0010203216507 0.0010188253867 0.0010173339832 0.001015847363 0.0010143655041 0.0010128884557 0.0010114161054 
0.0010099486233 0.0010084858484 0.001007027907 0.0010055746163 0.0010041260185 0.001002682153 0.0010012430415 0.00099980859482 0.00099837876776 
0.00099695369591 0.00099553330493 0.00099411757305 0.0010377730652 0.001036220874 0.0010346735935 0.001033131345 0.0010315940381 0.0010300615878 
0.0010285340531 0.0010270114152 0.0010254935777 0.0010239807407 0.0010224726574 0.0010209694716 0.0010194710763 0.0010179775931 0.0010164888693 
0.0010150049345 0.0010135258025 0.0010120514815 0.0010105819615 0.0010091171292 0.0010076571509 0.0010062017835 0.0010047512142 0.0010033053553 
0.0010018642075 0.0010004278166 0.0009989959752 0.00099756895057 0.00099614662184 0.00099472890518 0.0010384469165 0.0010368924802 0.0010353430277 
0.0010337985913 0.0010322590036 0.001030724385 0.0010291946749 0.0010276698684 0.0010261499217 0.0010246349189 0.0010231247739 0.0010216194234 
0.0010201189598 0.0010186233206 0.0010171324933 0.0010156465251 0.0010141653273 0.0010126889349 0.0010112173612 0.0010097505833 0.001008288508 
0.0010068311534 0.001005378555 0.0010039306889 0.0010024875184 0.0010010490433 0.00099961533607 0.00099818630189 0.00099676197455 0.00099534231597 
0.001039122959 0.0010375663082 0.0010360146354 0.0010344680175 0.0010329262254 0.0010313894188 0.0010298575094 0.0010283305464 0.0010268084577 
0.0010252912888 0.0010237790648 0.0010222716411 0.0010207690099 0.001019271318 0.0010177783934 0.0010162902853 0.0010148070398 0.0010133285859 
0.001011854955 0.0010103861605 0.0010089220485 0.0010074626739 0.0010060080387 0.0010045581636 0.0010031129738 0.0010016724878 0.001000236786 
0.00099880581918 0.00099737954432 0.00099595792558 0.0010398012749 0.0010382423987 0.0010366885968 0.0010351396895 0.0010335957062 0.0010320567045 
0.0010305226468 0.0010289934942 0.0010274692222 0.0010259499108 0.0010244354881 0.0010229260259 0.0010214213608 0.0010199214415 0.0010184264964 
0.0010169363304 0.001015450977 0.0010139704647 0.0010124948444 0.0010110239412 0.0010095577845 0.0010080964015 0.0010066396919 0.0010051878052 
0.0010037406117 0.0010022981629 0.001000860473 0.00099942754603 0.00099799935757 0.00099657577718 0.0010404819122 0.0010389208609 0.0010373647959 
0.0010358136566 0.0010342675126 0.0010327262845 0.0010311900552 0.0010296587153 0.0010281323412 0.0010266108782 0.001025094314 0.0010235826663 
0.0010220758596 0.0010205739336 0.0010190768293 0.0010175845841 0.0010160971564 0.0010146145916 0.0010131369015 0.0010116639478 0.0010101957198 
0.00100873231 0.0010072736532 0.001005819665 0.0010043705516 0.0010029261063 0.0010014864564 0.0010000514756 0.00099862126511 0.00099719576124 
0.001041164901 0.0010396016356 0.0010380432987 0.0010364899734 0.001034941609 0.0010333982126 0.0010318597756 0.0010303262578 0.0010287977277 
0.0010272741154 0.0010257554122 0.0010242416072 0.0010227327221 0.0010212286729 0.0010197294931 0.0010182351432 0.001016745591 0.0010152610476 
0.0010137812187 0.0010123062107 0.0010108359178 0.00100937048 0.0010079097927 0.0010064539032 0.0010050027075 0.0010035562603 0.0010021146166 
0.0010006776478 0.00099924541059 0.00099781793772 0.001041850299 0.0010402847294 0.0010387241576 0.0010371685956 0.0010356180265 0.0010340724627 
0.0010325318247 0.0010309961389 0.0010294654421 0.0010279396772 0.0010264188351 0.0010249028469 0.0010233918866 0.001021885707 0.001020384417 
0.0010188880023 0.0010173963908 0.0010159097533 0.0010144278467 0.0010129507836 0.0010114785136 0.0010100109893 0.0010085482591 0.0010070903186 
0.0010056371429 0.0010041887017 0.0010027449958 0.0010013060574 0.00099987184283 0.00099844239607 0.0010425379808 0.0010409701732 0.0010394073794 
0.0010378496075 0.0010362968286 0.0010347490518 0.0010332062347 0.0010316683594 0.0010301354662 0.0010286075491 0.0010270845619 0.0010255664663 
0.0010240533 0.0010225450878 0.0010210416926 0.0010195432007 0.0010180496108 0.0010165607873 0.0010150768338 0.0010135977012 0.0010121232959 
0.0010106537718 0.0010091890312 0.0010077290712 0.0010062738468 0.0010048234143 0.0010033777228 0.0010019367548 0.0010005006026 0.00099906911552 
0.0010432280639 0.0010416580092 0.0010400929519 0.001038532955 0.0010369779875 0.001035427984 0.0010338829781 0.0010323429383 0.0010308078861 
0.0010292778072 0.0010277526745 0.0010262324407 0.00102471714 0.0010232068086 0.0010217013164 0.0010202006777 0.0010187050303 0.0010172141508 
0.0010157281035 0.0010142468557 0.0010127704512 0.0010112988705 0.0010098320873 0.0010083701236 0.0010069129418 0.001005460469 0.0010040127422 
0.0010025697876 0.001001131641 0.00099969812856 0.0010439205334 0.0010423481915 0.0010407809222 0.0010392186978 0.0010376615142 0.0010361093366 
0.0010345621296 0.0010330198926 0.0010314826632 0.0010299504273 0.0010284230962 0.0010269007649 0.0010253833381 0.0010238708308 0.001022363287 
0.0010208606414 0.001019362807 0.0010178698346 0.0010163817161 0.0010148984259 0.0010134199707 0.0010119463355 0.0010104775007 0.0010090135014 
0.0010075543019 0.0010060998057 0.0010046501208 0.0010032051418 0.0010017649835 0.0010003294912 0.0010446153692 0.0010430407889 0.001041471279 
0.0010399068358 0.0010383474184 0.0010367930199 0.0010352436637 0.001033699234 0.0010321598371 0.0010306254114 0.0010290959204 0.0010275714443 
0.0010260519014 0.0010245372606 0.0010230275981 0.0010215228488 0.0010200228973 0.0010185278605 0.0010170376113 0.0010155523243 0.0010140717937 
0.0010125961148 0.0010111252461 0.0010096591982 0.0010081979756 0.0010067414705 0.0010052897854 0.0010038428302 0.0010024007033 0.0010009632195 
0.0010453125816 0.0010437357356 0.0010421640291 0.0010405973432 0.0010390357076 0.0010374791111 0.0010359275484 0.0010343809385 0.0010328393651 
0.0010313027447 0.0010297711109 0.0010282445033 0.001026722807 0.0010252060382 0.0010236942742 0.0010221873932 0.0010206853436 0.0010191881726 
0.0010176958997 0.00101620851 0.001014725958 0.0010132482292 0.0010117753137 0.0010103072554 0.0010088439723 0.0010073854781 0.0010059317766 
0.0010044828111 0.0010030386827 0.0010015991934 0.0010460122013 0.0010444330972 0.001042859109 0.0010412902346 0.0010397263811 0.0010381675703 
0.0010366138003 0.0010350650044 0.0010335212395 0.0010319824507 0.0010304486754 0.0010289198907 0.0010273960626 0.0010258771695 0.0010243632797 
0.0010228542735 0.0010213500676 0.0010198508726 0.0010183565175 0.0010168670537 0.0010153824615 0.0010139026589 0.0010124277263 0.0010109576188 
0.0010094923039 0.0010080317584 0.0010065760598 0.0010051250771 0.0010036788717 0.0010022374136 0.0010467141771 0.0010451328218 0.001043556566 
0.001041985409 0.0010404193528 0.0010388583447 0.0010373023705 0.0010357513857 0.0010342054081 0.001032664487 0.0010311285939 0.001029597655 
0.0010280716549 0.001026550718 0.0010250346265 0.0010235234433 0.0010220171923 0.0010205159025 0.001019019463 0.0010175279418 0.0010160412627 
0.0010145594379 0.0010130824214 0.001011610276 0.0010101429188 0.0010086803476 0.0010072226105 0.0010057696278 0.0010043214356 0.0010028779836 
0.0010474184364 0.0010458348993 0.0010442563926 0.0010426829983 0.0010411146722 0.0010395514475 0.001037993302 0.0010364401274 0.0010348919861 
0.0010333488746 0.0010318108083 0.0010302776891 0.0010287495655 0.0010272264865 0.0010257081799 0.0010241949279 0.0010226866182 0.001021183232 
0.0010196846945 0.0010181911176 0.0010167023657 0.0010152184572 0.0010137394482 0.0010122652142 0.0010107958116 0.0010093311582 0.0010078714022 
0.0010064164973 0.0010049662885 0.0010035208318 0.0010481251391 0.00104653932 0.0010449585628 0.0010433829038 0.0010418123619 0.0010402469088 
0.0010386865216 0.0010371312077 0.0010355808582 0.0010340355827 0.0010324953465 0.0010309600929 0.0010294298015 0.0010279045286 0.0010263841683 
0.0010248687582 0.0010233583476 0.0010218528523 0.0010203522796 0.0010188565609 0.0010173657328 0.0010158797603 0.0010143986946 0.0010129223515 
0.0010114509326 0.0010099843022 0.0010085225188 0.0010070656001 0.0010056133885 0.0010041659397 0.0010488340929 0.0010472459606 0.0010456630153 
0.0010440851051 0.0010425123505 0.0010409446786 0.0010393820742 0.0010378244807 0.001036271988 0.0010347245751 0.0010331821604 0.0010316447482 
0.0010301123493 0.0010285848743 0.0010270624061 0.0010255448968 0.001024032317 0.0010225247432 0.0010210220767 0.0010195242928 0.0010180313977 
0.0010165433569 0.001015060137 0.0010135818455 0.00101210835 0.0010106396885 0.0010091758791 0.0010077169367 0.0010062627089 0.0010048132809 
0.0010495453569 0.0010479549573 0.0010463696665 0.0010447895854 0.0010432145875 0.001041644688 0.0010400799016 0.0010385200976 0.0010369654191 
0.0010354157866 0.0010338712452 0.0010323315994 0.0010307971091 0.0010292674932 0.0010277428977 0.001026223262 0.0010247085763 0.0010231989072 
0.0010216941179 0.0010201942332 0.0010186991991 0.0010172091401 0.0010157239081 0.0010142435526 0.0010127680108 0.0010112973068 0.001009831485 
0.0010083704449 0.0010069141807 0.0010054627593 0.0010502588663 0.0010486661585 0.0010470786297 0.0010454963157 0.0010439190792 0.0010423469538 
0.0010407799299 0.0010392179221 0.0010376610682 0.0010361092601 0.0010345624504 0.0010330207964 0.00103148409 0.0010299523512 0.0010284256024 
0.0010269038238 0.0010253870325 0.0010238752142 0.0010223682958 0.001020866315 0.0010193692769 0.0010178771258 0.0010163898296 0.0010149073763 
0.0010134298618 0.0010119571095 0.0010104892835 0.0010090262392 0.0010075679571 0.0010061145286 0.001050974546 0.0010493795885 0.0010477898092 
0.0010462051845 0.0010446257789 0.0010430514126 0.0010414821257 0.0010399179564 0.0010383588818 0.0010368048266 0.0010352559046 0.0010337121053 
0.0010321731974 0.0010306393276 0.001029110481 0.0010275865924 0.0010260676043 0.0010245536778 0.001023044733 0.0010215406771 0.0010200415432 
0.0010185473054 0.0010170579337 0.0010155734518 0.0010140938282 0.0010126190775 0.0010111492442 0.0010096841751 0.0010082238875 0.0010067684189 
0.0010516923963 0.0010500951546 0.0010485031119 0.0010469162543 0.001045334544 0.0010437580184 0.0010421865015 0.0010406200868 0.0010390588159 
0.0010375026355 0.0010359515365 0.0010344055374 0.0010328644943 0.0010313284723 0.0010297974276 0.0010282714274 0.0010267503916 0.0010252343343 
0.0010237232875 0.0010222171278 0.001020715935 0.0010192196516 0.0010177281994 0.0010162416485 0.0010147599897 0.0010132831979 0.0010118113065 
0.0010103442072 0.001008881917 0.0010074244487 0.0010524123859 0.0010508128564 0.0010492185458 0.0010476294521 0.0010460454877 0.0010444667308 
0.0010428929317 0.0010413243612 0.0010397608917 0.0010382025234 0.0010366493269 0.0010351010589 0.0010335578258 0.0010320196556 0.0010304865221 
0.0010289583651 0.001027435247 0.0010259171204 0.0010244039359 0.0010228957252 0.0010213924129 0.0010198940383 0.0010184005323 0.0010169119242 
0.0010154282153 0.0010139494008 0.0010124754549 0.0010110063292 0.0010095420225 0.0010080825152 0.0010531344137 0.0010515326332 0.0010499360569 
0.0010483447098 0.0010467585023 0.0010451773497 0.0010436015055 0.0010420307214 0.0010404650326 0.001038904408 0.001037349059 0.0010357986237 
0.0010342532608 0.0010327129528 0.0010311776594 0.001029647395 0.0010281221312 0.0010266018564 0.0010250866014 0.0010235763313 0.0010220709472 
0.0010205704548 0.0010190749103 0.0010175842481 0.0010160984711 0.0010146176149 0.0010131416085 0.0010116704774 0.0010102041269 0.0010087426157 
0.0010538584968 0.0010522544199 0.0010506555769 0.0010490619776 0.0010474734805 0.0010458901354 0.0010443120304 0.0010427390399 0.0010411711351 
0.0010396083847 0.0010380508014 0.0010364982052 0.0010349506922 0.0010334082377 0.0010318708156 0.0010303384072 0.0010288110197 0.0010272886046 
0.0010257712356 0.0010242588154 0.0010227513996 0.0010212488868 0.0010197512734 0.0010182585581 0.0010167707444 0.0010152878391 0.00101380976 
0.0010123365975 0.001010868221 0.0010094047454 0.0010545844943 0.0010529781355 0.0010513770274 0.0010497811072 0.001048190389 0.0010466048277 
0.001045024477 0.0010434493717 0.0010418792642 0.0010403143206 0.0010387545294 0.001037199782 0.0010356501085 0.0010341054969 0.001032565911 
0.0010310313651 0.0010295018486 0.0010279773642 0.001026457845 0.0010249433243 0.0010234337826 0.0010219291419 0.0010204295172 0.0010189347686 
0.00101744488 0.0010159599093 0.0010144798614 0.001013004603 0.0010115342375 0.001010068671 0.0010553124146 0.0010537036529 0.0010521002728 
0.0010505021387 0.0010489091974 0.0010473214117 0.0010457388555 0.0010441614267 0.0010425891842 0.0010410221128 0.0010394600714 0.00103790315 
0.0010363513138 0.0010348045515 0.0010332628413 0.0010317261724 0.0010301945189 0.0010286679008 0.0010271462869 0.0010256296361 0.0010241180099 
0.001022611302 0.0010211095549 0.0010196127288 0.0010181209293 0.0010166339534 0.0010151518047 0.0010136745064 0.0010122021014 0.0010107345709 
0.0010457806661 0.0010442239932 0.0010426722398 0.0010411254574 0.0010395836516 0.0010380466933 0.0010365146816 0.0010349875316 0.0010334652389 
0.0010319478117 0.0010304351855 0.0010289274712 0.0010274245973 0.0010259265452 0.0010244332588 0.0010229448039 0.0010214611091 0.0010199822501 
0.0010185080642 0.0010170386888 0.0010155740818 0.0010141142187 0.0010126591054 0.0010112086895 0.0010097630494 0.0010083220483 0.0010068857423 
0.0010054540965 0.0010040271228 0.001002604925 0.0010464540806 0.001044895189 0.0010433412172 0.0010417922394 0.0010402481743 0.0010387091047 
0.0010371748341 0.0010356455991 0.0010341211316 0.0010326014843 0.0010310867485 0.0010295769202 0.001028071892 0.001026571757 0.0010250763822 