# vtk DataFile Version 5.1
vtk output
ASCII
DATASET STRUCTURED_POINTS
DIMENSIONS 26 14 26
SPACING 0.08 0.08 0.08
ORIGIN 2.7 -0.52 0
POINT_DATA 9464
FIELD FieldData 1
potential 1 9464 double
0.0023006640596 0.002243744022 0.0021892654692 0.0021369812901 0.0020867331756 0.0020383886576 0.0019918696894 0.0019471879549 0.001904273705 
0.0018631679258 0.0018239447337 0.0017865985112 0.0017511304181 0.0017175119848 0.0016856934855 0.0016556129046 0.0016272040902 0.0016004028692 
0.0015751469058 0.001551370543 0.0015289629657 0.0015078393117 0.0014878829324 0.0014689570465 0.0014509167189 0.0014335993841 0.0024627005564 
0.0024008615038 0.0023416149816 0.0022847527145 0.0022301404926 0.002177651399 0.0021272075629 0.0020787904276 0.0020322787585 0.0019877233337 
0.0019451110342 0.0019044173558 0.0018656237431 0.0018286925934 0.0017935713542 0.001760201105 0.0017285151805 0.0016984453677 0.0016699348927 
0.0016428779532 0.0016171963239 0.0015927984704 0.0015695728438 0.0015474068592 0.0015261771715 0.0015057507309 0.0025755584424 0.0025100333155 
0.0024471782379 0.0023868492492 0.0023289141781 0.0022732536576 0.0022198235199 0.0021684649523 0.0021191837048 0.0020719378147 0.0020266830549 
0.0019833887719 0.001942014737 0.0019025135644 0.0018648284314 0.0018288964305 0.0017946505209 0.0017620189423 0.0017309424209 0.0017013129587 
0.00167305433 0.0016460741109 0.0016202736779 0.0015955534103 0.0015717932574 0.0015489220095 0.0026543631009 0.0025861238682 0.002520629859 
0.0024577483745 0.0023973545675 0.0023393439158 0.0022836496004 0.0022301354543 0.0021787676299 0.0021294950458 0.0020822549382 0.0020370027398 
0.0019936865668 0.0019522475199 0.001912625042 0.001874752216 0.0018385587964 0.0018039873965 0.0017709285923 0.0017393243038 0.0017090768198 
0.0016801036034 0.0016523134707 0.0016255979158 0.0015998980493 0.0015751088979 0.0026941721426 0.0026240617668 0.0025567368678 0.0024920733549 
0.002429968018 0.002370296067 0.002313023937 0.0022579827584 0.00220514425 0.0021544283934 0.0021057777402 0.0020591326086 0.0020144291858 
0.0019716032629 0.001930587618 0.0018913118761 0.0018537192673 0.0018177014473 0.0017831960472 0.0017501256771 0.00171840462 0.0016879426756 
0.0016586582601 0.001630451139 0.0016032698886 0.0015770191038 0.0026927729508 0.0026214843169 0.0025530022278 0.0024872111662 0.0024239938286 
0.0023632833418 0.0023049863551 0.0022489666136 0.0021951677694 0.0021435173781 0.0020939470454 0.0020463867016 0.0020007668421 0.0019570172218 
0.0019150650658 0.001874836836 0.0018362719472 0.0017992607297 0.001763743232 0.0017296308482 0.0016968493878 0.0016653083795 0.0016349152091 
0.0016056206259 0.0015773335484 0.0015499687664 0.0026296483389 0.002557302846 0.002487814279 0.0024210647328 0.0023569674493 0.0022954002026 
0.0022362933573 0.0021795068456 0.0021249737489 0.0020726173887 0.0020223619186 0.0019741284561 0.0019278425042 0.0018834278738 0.0018408068775 
0.0017999169349 0.0017606464224 0.0017229308345 0.0016866926968 0.00165184209 0.0016183051367 0.0015859928004 0.0015548151117 0.0015247265565 
0.0014956393718 0.0014674751225 0.0025471944044 0.0024757954181 0.0024071912386 0.002341312121 0.0022780306856 0.002217280266 0.0021589208232 
0.0021028822143 0.002049084418 0.0019974444176 0.0019478808007 0.0019003154542 0.0018546676143 0.0018108599289 0.0017688113481 0.0017284561025 
0.0016896808522 0.0016524234549 0.0016165920107 0.0015821085489 0.0015488954755 0.0015168497284 0.0014859304056 0.0014560465365 0.0014271191689 
0.0013991104087 0.0024731665441 0.0024027318882 0.0023350990771 0.002270147618 0.0022077837518 0.0021479443559 0.0020904759865 0.0020353218486 
0.0019823971421 0.0019316150172 0.0018828925441 0.001836147446 0.0017912976408 0.0017482588106 0.0017069644279 0.0016672978688 0.0016291897427 
0.0015925596346 0.001557313279 0.0015233702819 0.0014906326254 0.001459056873 0.0014285420053 0.0013990065247 0.0013704123636 0.0013426850536 
0.0023900800012 0.002321156523 0.0022549817472 0.0021914625173 0.0021305046317 0.0020720506471 0.0020159481553 0.0019621403477 0.0019105409833 
0.0018610613684 0.0018136169794 0.0017681228798 0.0017244942873 0.0016826593821 0.0016425010772 0.0016039468404 0.001566913457 0.0015313012675 
0.0014970271084 0.0014640046062 0.0014321322389 0.0014013650436 0.0013716015522 0.0013427620567 0.0013148057736 0.0012876645226 0.0022952656393 
0.0022283727927 0.0021641970307 0.0021026421984 0.0020436447081 0.0019870608732 0.0019328308768 0.0018808673711 0.0018310828551 0.0017833891725 
0.0017376996183 0.0016939275315 0.0016519856975 0.0016118001451 0.0015732479898 0.0015362612545 0.001500734446 0.001466580849 0.0014337076332 
0.0014020070191 0.0013714239877 0.0013418600928 0.00131321608 0.0012854490524 0.0012584812502 0.0012322579205 0.0021903150364 0.0021260334378 
0.0020644258364 0.0020053963627 0.0019488745411 0.0018947357427 0.0018429161703 0.0017933269287 0.0017458821994 0.0017004929909 0.001657071239 
0.0016155299302 0.0015757941162 0.0015377400266 0.0015012961595 0.001466352531 0.001432820634 0.0014006012376 0.0013695784297 0.0013396897496 
0.0013108229003 0.0012828786846 0.0012557922393 0.001229479311 0.0012038748949 0.0011789268422 0.0020927978001 0.0020317443613 0.0019733144066 
0.0019174068305 0.0018639626839 0.0018128624577 0.0017640384977 0.0017174045133 0.0016728742665 0.0016303591458 0.0015897726819 0.0015510391939 
0.0015140357593 0.0014786828935 0.0014448899325 0.0014125418512 0.0013815442505 0.0013517733897 0.0013231587167 0.0012955759357 0.0012689222197 
0.0012430866679 0.0012180083367 0.0011935875716 0.0011697618477 0.0011464786351 0.0019833877625 0.0019262571316 0.0018716876808 0.0018195911799 
0.0017699055029 0.001722516813 0.0016773567196 0.0016343418941 0.0015933838963 0.0015543986898 0.0015172968564 0.0014820030185 0.0014483913796 
0.0014163883124 0.0013858767315 0.0013567585538 0.0013289226337 0.0013022392089 0.0012766259817 0.0012519478903 0.0012280763505 0.0012049269372 
0.0011823891701 0.0011603687212 0.0011387993534 0.0011176299277 0.0023499546404 0.0022923882185 0.0022372856074 0.0021844017456 0.0021335794845 
0.0020846864635 0.0020376436272 0.0019924605724 0.00194906494 0.001907494477 0.0018678202108 0.0018300340462 0.0017941355835 0.0017600957229 
0.0017278647271 0.0016973807346 0.001668577579 0.0016413907294 0.0016157572596 0.0015916108617 0.0015688401799 0.0015473600384 0.0015270537983 
0.0015077850675 0.0014894096073 0.0014717656773 0.0025304888832 0.0024681446976 0.0024084089947 0.002351074608 0.0022960080145 0.0022430821535 
0.0021922187151 0.0021433978178 0.0020964967739 0.0020515644307 0.0020085858645 0.0019675350536 0.0019283923621 0.0018911195619 0.0018556638136 
0.0018219660499 0.0017899594661 0.0017595755989 0.0017307573528 0.0017033985929 0.0016774208393 0.0016527324372 0.0016292219219 0.0016067769734 
0.0015852746711 0.0015645824252 0.0026522823542 0.0025863463005 0.0025230923958 0.002462377245 0.0024040690011 0.0023480482633 0.0022942703724 
0.0022425759472 0.0021929696706 0.0021454084503 0.0020998469516 0.0020562535374 0.0020145872224 0.0019748000958 0.0019368349981 0.0019006288126 
0.0018661143098 0.0018332195462 0.0018018850444 0.0017720026385 0.0017434959808 0.0017162726181 0.0016902340095 0.0016652807169 0.0016412929432 
0.0016181997432 0.0027314375015 0.0026628549213 0.0025970271592 0.0025338218036 0.0024731141319 0.0024147995453 0.0023588108623 0.0023050116083 
0.0022533672131 0.0022038258823 0.0021563241359 0.0021108167624 0.0020672513296 0.0020255685344 0.0019857075176 0.001947601157 0.0019111790387 
0.0018763836206 0.0018431053656 0.0018112860929 0.0017808280432 0.0017516486871 0.0017236569062 0.0016967443227 0.0016708521956 0.0016458757117 
0.0027718261214 0.0027014283374 0.0026338239911 0.0025688890975 0.0025065204643 0.0024465932151 0.0023890734987 0.0023337922784 0.0022807207673 
0.0022297784803 0.0021809074949 0.002134047682 0.0020891348539 0.0020461044899 0.0020048891495 0.0019654182661 0.0019276349295 0.0018914307036 
0.0018567431427 0.0018234948047 0.0017915999677 0.001760968451 0.0017315187316 0.0017031506594 0.0016758129029 0.0016494101599 0.0027741754967 
0.0027026771641 0.0026339926873 0.0025680065822 0.0025046015164 0.0024437105254 0.0023852400529 0.0023290537558 0.0022750949351 0.0022232908421 
0.0021735727716 0.0021258703628 0.0020801138541 0.002036232794 0.0019941542582 0.0019538045769 0.0019151230902 0.0018780000829 0.0018423755741 
0.0018081609707 0.0017752821031 0.0017436485541 0.0017131677755 0.0016837905921 0.0016554260193 0.0016279889104 0.0027397323889 0.0026678245692 
0.0025987282814 0.0025323365532 0.0024685696177 0.0024073101134 0.0023484918698 0.0022919775916 0.002237702325 0.0021855909904 0.00213556903 
0.002087558629 0.0020414861921 0.0019972763312 0.0019548520491 0.0019141514199 0.0018750634125 0.0018375240704 0.0018014564362 0.001766771084 
0.0017333945949 0.0017012385973 0.0016702127889 0.001640272933 0.0016113311732 0.0015833094625 0.0026815220063 0.0026099440611 0.0025411650603 
0.0024751151971 0.0024116670326 0.0023507537662 0.0022922353691 0.0022360415121 0.0021820920368 0.0021303037808 0.0020805951906 0.0020328880232 
0.001987101408 0.0019431579009 0.0019009763996 0.0018604911037 0.0018215886756 0.0017842069965 0.0017482542152 0.0017136524178 0.0016803240798 
0.0016481662222 0.0016171380112 0.0015871485428 0.0015581189163 0.0015300112435 0.0026115430826 0.0025408936984 0.0024730502494 0.0024078921741 
0.0023453256256 0.0022852873387 0.0022276239084 0.0021722783696 0.0021191658249 0.0020681993033 0.00201929579 0.0019723729161 0.0019273485404 
0.0018841383061 0.001842675667 0.0018028440199 0.0017645740122 0.0017277852913 0.001692383675 0.0016582888792 0.0016254029845 0.0015936826561 
0.0015630269741 0.0015333545189 0.0015046273518 0.0014767707187 0.0025295760569 0.0024604264541 0.0023940292618 0.0023302912378 0.002269118105 
0.0022104522769 0.0021541413939 0.0021001289892 0.0020483272878 0.0019986489863 0.0019510090174 0.0019053224039 0.0018615043445 0.0018194830243 
0.0017791413941 0.001740406986 0.0017031966715 0.0016674109291 0.0016329667329 0.0015997778642 0.0015677429687 0.0015368172355 0.0015068993368 
0.0014779096734 0.0014498075073 0.0014225246713 0.0024343313594 0.0023671992466 0.0023027908431 0.0022410000749 0.0021817730544 0.0021249628704 
0.0020705095731 0.002018325732 0.001968323858 0.0019204156905 0.0018745145186 0.0018305336779 0.0017883859774 0.0017479974943 0.0017092454357 
0.0016720619382 0.0016363416789 0.0016019981331 0.0015689386911 0.0015370558195 0.0015062947441 0.0014765572576 0.0014477443202 0.0014198131761 
0.0013926861602 0.0013663085302 0.0023253675471 0.002260821808 0.0021989557515 0.0021396708288 0.0020828964284 0.0020285079711 0.0019764415385 
0.0019266081864 0.0018789220586 0.0018332941425 0.001789636374 0.0017478617643 0.0017078954225 0.0016696136787 0.0016329451648 0.0015977800978 
0.0015640302019 0.0015315965335 0.0015003635157 0.0014702690473 0.00144120121 0.0014130611759 0.001385784388 0.0013592868413 0.0013335036689 
0.001308382741 0.0022002291631 0.0021388752743 0.0020801478894 0.0020239458099 0.0019702099559 0.0019188208529 0.0018697107302 0.0018227932491 
0.0017779821391 0.001735188778 0.0016943267074 0.0016553202947 0.0016180467097 0.001582426606 0.0015483695116 0.0015157606782 0.0014845060334 
0.0014544822522 0.0014256192601 0.001397793304 0.0013709021284 0.0013448354028 0.0013195326718 0.0012948946769 0.0012708591144 0.0012473734849 
0.0020348999778 0.0019773982392 0.0019224611203 0.0018700002786 0.0018199534362 0.0017722067577 0.0017266917199 0.0016833249246 0.0016420178849 
0.001602686535 0.0015652414677 0.0015296073546 0.0014956585078 0.0014633214628 0.0014324793971 0.0014030345639 0.0013748762715 0.0013478753267 
0.001321950119 0.0012969663877 0.0012727964306 0.0012493566983 0.0012265375325 0.0012042452443 0.0011824139622 0.0011609925885 0.0024810109624 
0.0024215824552 0.0023646806058 0.0023100661942 0.0022575854223 0.0022071063169 0.0021585470496 0.002111911383 0.0020671050244 0.0020242006557 
0.0019832166564 0.0019441526476 0.0019070038014 0.0018717391453 0.0018383087896 0.001806651208 0.0017767001474 0.001748390069 0.0017216564102 
0.0016964310683 0.0016726012145 0.0016500808626 0.0016287535036 0.0016084839673 0.0015891301077 0.0015705326476 0.002649068723 0.002585264813 
0.0025240896846 0.0024653775758 0.0024089839981 0.0023547820371 0.0023026916125 0.0022526892599 0.0022046481792 0.0021586118017 0.002114560013 
0.0020724624922 0.0020322964986 0.0019940219686 0.0019575857562 0.0019229265951 0.0018899789742 0.0018586731296 0.0018289510564 0.001800705692 
0.0017738595033 0.0017483156062 0.001723967754 0.0017007027973 0.0016783990851 0.0016569254009 0.0027672164038 0.0027000725614 0.0026356460259 
0.002573795008 0.0025143885812 0.002457307244 0.0024025049172 0.0023498206135 0.0022992559512 0.0022507646025 0.002204298055 0.0021598218426 
0.0021172927881 0.0020766614436 0.0020378696464 0.0020008536495 0.0019655456576 0.0019318731911 0.0018997761875 0.0018691460086 0.0018399059721 
0.001811963563 0.0017852205028 0.001759577907 0.0017349167359 0.0017111670095 0.0028440084342 0.0027744083339 0.0027075911191 0.0026434251898 
0.0025817861697 0.0025225692287 0.0024657061247 0.0024110595112 0.002358592721 0.0023082519009 0.0022599715001 0.0022137044595 0.0021693966862 
0.0021269877578 0.0020864159003 0.0020476133816 0.0020105092864 0.0019750456163 0.0019411125051 0.0019086514852 0.0018775646665 0.001847769551 
0.0018191752234 0.001791673691 0.0017652065852 0.0017396697773 0.0028843666542 0.0028130996683 0.0027446493439 0.002678891986 0.0026157244378 
0.0025550215598 0.0024967486542 0.0024407362063 0.0023869547353 0.002335320034 0.0022857751595 0.0022382578881 0.0021927029331 0.0021490448531 
0.0021072155589 0.0020671439158 0.0020287725927 0.0019919928799 0.0019567421025 0.0019229426648 0.0018905088312 0.0018593505258 0.0018293862674 
0.0018005162912 0.0017726894913 0.0017458108665 0.002891374292 0.0028191412178 0.0027497412291 0.0026830596781 0.0026189788396 0.0025574314386 
0.002498323271 0.0024415177054 0.0023869569716 0.0023345673916 0.0022842793102 0.002236021473 0.0021897233213 0.0021453137528 0.0021027193574 
0.0020618660298 0.002022692841 0.001985089893 0.0019489970695 0.0019143257659 0.0018810018245 0.0018489349368 0.0018180326971 0.0017882460995 
0.0017594843887 0.001731662551 0.0028688028019 0.0027962662088 0.0027265576725 0.002659570085 0.0025952234158 0.0025333999042 0.0024740331986 
0.0024169854562 0.0023621910443 0.0023095742209 0.0022590597652 0.0022105692448 0.0021640285008 0.0021193617163 0.0020764914895 0.0020353556688 
0.0019958430672 0.0019578896011 0.0019214183249 0.0018863398589 0.0018525808647 0.0018200530932 0.001788666434 0.0017583767586 0.0017290963496 
0.0017007472445 0.0028228527607 0.0027506410349 0.0026812421643 0.0026145860326 0.0025505452641 0.0024890523567 0.0024299673786 0.0023732194199 
0.0023187278911 0.0022664091753 0.0022161812775 0.002167965466 0.0021216807744 0.0020772492204 0.0020345896022 0.0019936360052 0.001954274902 
0.0019164447351 0.0018800532576 0.0018450228728 0.0018112762388 0.0017787105999 0.0017472853021 0.0017169096171 0.0016875047776 0.0016590328926 
0.0027591277428 0.0026878232632 0.0026193370818 0.0025535484281 0.0024903631887 0.0024297176711 0.0023714585855 0.0023155284579 0.0022618423556 
0.0022103121841 0.0021608554393 0.002113389224 0.0020678312193 0.0020240969508 0.0019821198136 0.0019417832618 0.0019030233433 0.0018657440073 
0.0018298671901 0.0017953076336 0.0017619677041 0.0017298043231 0.0016987169798 0.0016686243991 0.0016394886228 0.0016112350974 0.0026796999141 
0.0026098752724 0.0025428141145 0.0024784229129 0.0024166071936 0.0023573089343 0.0023003759215 0.0022457512599 0.0021933469492 0.0021430755433 
0.0020948516337 0.0020485902929 0.0020042066061 0.0019616287714 0.0019207398388 0.0018814675905 0.0018437290275 0.0018074251305 0.0017724732441 
0.0017387876018 0.0017062673367 0.0016748680797 0.0016444889114 0.0016150505492 0.001586512385 0.0015588062893 0.0025843639984 0.0025165231825 
0.0024514160151 0.0023889361611 0.0023290293323 0.0022715487896 0.0022164341872 0.0021635979164 0.0021129523048 0.0020644090241 0.0020178812675 
0.0019732823943 0.001930525209 0.0018895359672 0.0018501921443 0.0018124262104 0.0017761333409 0.0017412275661 0.0017076169199 0.0016751946626 
0.0016439065383 0.0016136551831 0.0015843421097 0.0015559250405 0.0015283265482 0.0015014919196 0.0024712083465 0.0024058936779 0.0023432677546 
0.0022832318121 0.0022257148394 0.0021705924104 0.0021178002518 0.0020672492769 0.0020188535229 0.0019725239188 0.0019281724038 0.0018857120643 
0.0018450681824 0.0018061173844 0.0017687886971 0.0017329729626 0.0016985824752 0.0016655192365 0.0016336686098 0.0016029695367 0.0015733111961 
0.0015445958283 0.001516759758 0.0014897196963 0.0014634111733 0.0014377821134 0.0023347826464 0.0022725560117 0.0022129645329 0.0021559067494 
0.0021013232045 0.0020490945431 0.0019991526601 0.0019514110878 0.001905783471 0.0018621811673 0.0018205177618 0.0017807177738 0.0017426586544 
0.0017062614712 0.0016714363222 0.0016380695566 0.0016060672183 0.0015753080381 0.0015457230493 0.0015171900705 0.0014896084964 0.001462869637 
0.001436914437 0.0014116447724 0.0013869989743 0.0013629246334 0.0021632992773 0.0021047450869 0.0020487646176 0.0019952694909 0.0019441963317 
0.0018954319308 0.001848907339 0.0018045389358 0.0017622381347 0.0017219208223 0.0016834976604 0.0016468934998 0.0016119830048 0.0015786932182 
0.0015469081166 0.0015165309601 0.0014874524008 0.0014595449178 0.0014327289018 0.0014068724118 0.0013818502864 0.0013575814818 0.0013339586867 
0.0013108900338 0.001288310697 0.001266169708 0.0026696668181 0.0026073575535 0.0025476683986 0.0024903688538 0.0024353102157 0.0023823612563 
0.0023314362003 0.0022825302685 0.0022355387363 0.0021905209391 0.0021474826806 0.0021064133552 0.0020673014644 0.0020301129707 0.0019947973915 
0.0019612933893 0.0019295344258 0.0018994534472 0.0018709836202 0.0018440540587 0.0018185501464 0.0017943848311 0.0017714420856 0.0017495888905 
0.0017286865503 0.0017085797979 0.0028144214237 0.0027482923681 0.0026848625081 0.0026239714946 0.0025654753736 0.0025092496317 0.0024552499258 
0.0024033301475 0.0023534747329 0.0023056798004 0.00225991755 0.0022161511404 0.0021743530592 0.0021344803117 0.0020964781952 0.0020602846542 
0.0020258333187 0.0019930533202 0.0019618852976 0.0019322208451 0.001903981462 0.0018770699476 0.0018513806232 0.0018268017348 0.0018032137202 
0.001780487609 0.0029198934826 0.0028508169093 0.002784508409 0.0027208352349 0.0026596656113 0.0026008798605 0.0025444296956 0.0024901517461 
0.0024380429342 0.0023880519998 0.0023401255728 0.0022942248392 0.0022503032069 0.0022083087827 0.0021681817616 0.0021298573366 0.002093266776 
0.0020583367454 0.002025006284 0.0019931660588 0.0019627393343 0.0019336316535 0.0019057484813 0.0018789894233 0.0018532373611 0.0018284235938 
0.0029897668728 0.0029185156553 0.002850091974 0.0027843654275 0.0027212121289 0.0026605268557 0.0026022396804 0.0025462119568 0.0024924037414 
0.002440757994 0.0023912059523 0.0023436976182 0.0022981764537 0.002254580088 0.0022128453231 0.0021729034288 0.0021346826714 0.0020981243201 
0.0020631179966 0.0020296047985 0.0019974866589 0.0019666811637 0.0019370977502 0.0019086290665 0.0018812176787 0.001854759611 0.0030274072514 
0.0029547022743 0.002884851401 0.0028177335581 0.0027532380551 0.0026912468556 0.0026317213803 0.0025744913978 0.002519525075 0.0024667360847 
0.0024160652989 0.0023674484375 0.0023208184694 0.0022761084819 0.0022332493982 0.0021921689746 0.0021528093874 0.0021150614186 0.0020788620291 
0.0020441333853 0.0020107897435 0.0019787411305 0.0019479063796 0.001918186119 0.0018895298473 0.001861842589 0.0030358079418 0.0029622998201 
0.002891656286 0.0028237626148 0.0027585009945 0.0026958032791 0.0026355745638 0.0025776776615 0.0025220530857 0.0024686256855 0.002417324298 
0.0023680762479 0.0023208096221 0.0022754525212 0.0022319305013 0.0021901688354 0.0021501061547 0.0021116322639 0.0020746868277 0.0020391812268 
0.0020050413265 0.0019721769988 0.0019404955475 0.0019099498157 0.0018804478469 0.0018519053734 0.0030181955274 0.0029444950285 0.0028736495326 
0.0028055516961 0.0027401210602 0.0026772696067 0.0026168395279 0.0025587832928 0.0025030037972 0.0024494242537 0.0023979683947 0.0023485568137 
0.0023011144599 0.0022555648382 0.0022118297655 0.0021698471611 0.0021295051419 0.0020907396448 0.0020534736784 0.0020176179735 0.0019830993322 
0.0019498297162 0.0019177193315 0.0018867245297 0.0018567446993 0.0018277396698 0.0029782545823 0.0029049327142 0.0028344469857 0.0027667269094 
0.0027016447462 0.0026391326143 0.0025790503775 0.0025213248839 0.0024658767907 0.0024126209908 0.0023614747309 0.0023123587841 0.0022651914301 
0.0022198943192 0.0021763859316 0.0021346001612 0.0020944234629 0.0020557942909 0.0020186206375 0.0019828251141 0.0019483306673 0.0019150348913 
0.0018828974166 0.0018518277927 0.0018217474632 0.0017926185281 0.0029191809596 0.0028467803105 0.0027772184043 0.002710374122 0.0026461529077 
0.0025844903621 0.0025252333897 0.0024683236832 0.0024136757971 0.0023612011829 0.0023108167883 0.0022624393333 0.002215986166 0.0021713727263 
0.0021285320087 0.0020873481682 0.0020477566448 0.0020096624453 0.0019729873011 0.0019376466482 0.0019035433035 0.001870634652 0.0018388206312 
0.0018080203294 0.0017781958882 0.0017492729022 0.0028426862864 0.0027717523758 0.0027036001506 0.0026381356137 0.0025752639652 0.0025149264658 
0.0024569711497 0.0024013403249 0.0023479459095 0.0022966998502 0.0022475165611 0.0022003109149 0.0021549979043 0.0021115057453 0.0020697176628 
0.0020295617114 0.0019909553426 0.0019538001215 0.0019180140395 0.0018835120403 0.0018501940241 0.0018180163135 0.0017868786291 0.0017567021855 
0.0017274465722 0.0016990437177 0.0027488862145 0.0026798933652 0.0026136503908 0.0025500505997 0.002489039003 0.0024304691535 0.0023742804824 
0.0023203838239 0.0022686925274 0.0022191176506 0.0021715722289 0.0021259697171 0.002082222918 0.0020402583522 0.0019999539232 0.0019612426279 
0.0019240204327 0.0018882022426 0.0018536971032 0.001820399398 0.0017882559832 0.0017571705755 0.001727045659 0.0016978395801 0.0016694753399 
0.0016418982671 0.0026362236071 0.0025696742398 0.002505828251 0.0024445872221 0.0023858774336 0.0023295767902 0.0022756197589 0.0022239170315 
0.0021743824822 0.0021269261806 0.0020814624002 0.0020379020339 0.0019961714201 0.0019561476645 0.0019177604249 0.0018809014833 0.0018454842078 
0.0018114119175 0.0017785715082 0.0017469035475 0.0017162989202 0.0016866615216 0.0016579290314 0.0016300192642 0.001602868303 0.0015764243219 
0.0025012235203 0.0024376223859 0.0023766698839 0.0023182641552 0.0022623454185 0.0022087937591 0.0021575413432 0.0021085012574 0.0020615870363 
0.0020167100308 0.0019737839187 0.0019327334864 0.0018934366555 0.0018558151729 0.0018197800578 0.0017852189673 0.0017520394684 0.0017201222001 
0.0016894003655 0.0016597542247 0.0016310857153 0.0016032886654 0.0015763061489 0.0015500417702 0.0015244348249 0.0014994333809 0.0023388743839 
0.0022787197707 0.0022211516688 0.0021660961851 0.002113444763 0.0020631289662 0.0020150644834 0.001969167505 0.0019253493588 0.0018835259259 
0.0018436080479 0.0018055209283 0.0017691398566 0.0017343927394 0.0017011648759 0.0016693611596 0.0016388743929 0.0016095796953 0.0015814005805 
0.0015542086906 0.0015278827517 0.0015023455109 0.0014774931919 0.0014532366593 0.0014295126569 0.0014062704306 0.0028976129067 0.0028316477318 
0.0027684158537 0.0027076970153 0.0026493485863 0.0025932403584 0.0025392820422 0.0024874619903 0.0024376541222 0.0023899117755 0.0023442223826 
0.0023005638495 0.0022589163284 0.0022192416065 0.0021814878348 0.0021455933264 0.002111490882 0.0020791115608 0.0020483858367 0.0020192399759 
0.0019915572472 0.0019652497911 0.001940202626 0.0019162858274 0.0018933646579 0.0018712911926 0.0030163995487 0.0029472460881 0.0028808803518 
0.0028171475705 0.0027559071008 0.0026970345837 0.002640481966 0.0025860983485 0.0025338593558 0.0024837517288 0.0024357384032 0.0023897745851 
0.0023458267916 0.0023038481667 0.0022637817592 0.0022255642449 0.00218912799 0.0021544006937 0.0021213213615 0.0020897804485 0.0020596972355 
0.0020309755415 0.0020035102324 0.001977191521 0.0019519026647 0.0019275177043 0.0031051324736 0.0030334937156 0.0029646948706 0.0028986043244 
0.0028350935764 0.0027740421221 0.0027153987952 0.0026589974605 0.0026048291769 0.0025528366001 0.002502960304 0.0024551561634 0.0024093731236 
0.002365556129 0.0023236431424 0.0022835678345 0.0022452602796 0.0022086459161 0.002173662694 0.0021402004669 0.0021081819847 0.0020775129278 
0.002048099429 0.0020198424107 0.0019926264412 0.0019663844931 0.0031646879943 0.0030912191226 0.0030206356107 0.0029528097247 0.0028876176673 
0.0028249536477 0.0027647455245 0.0027068531077 0.0026512378454 0.0025978219467 0.0025465493291 0.002497360673 0.0024501962714 0.0024049912477 
0.0023616804599 0.0023201938335 0.0022804585237 0.0022424148312 0.0022059517248 0.0021710100651 0.0021374907296 0.002105312351 0.0020743845872 
0.0020446009615 0.0020159050442 0.0019881939177 0.0031967582548 0.0031220925037 0.0030503315816 0.0029813534796 0.0029150474413 0.002851294798 
0.0027900551469 0.002731157401 0.0026745666634 0.0026201938906 0.0025679771467 0.0025178494704 0.0024697416391 0.0024235847252 0.0023793082331 
0.0023368388567 0.0022961176605 0.0022570346637 0.0022195271642 0.0021835162426 0.0021489159776 0.0021156371902 0.0020835989809 0.0020527026391 
0.0020228977608 0.0019940905538 0.0032033917467 0.0031281165849 0.0030557430111 0.0029861718484 0.0029192691775 0.0028549713956 0.0027931821781 
0.0027337638103 0.0026766545367 0.0026217772931 0.0025690584407 0.0025184249913 0.0024698018423 0.002423116171 0.00237829254 0.0023352552657 
0.0022939423836 0.0022542433894 0.0022160973942 0.0021794160319 0.0021441251193 0.0021101347809 0.0020773526045 0.0020457319289 0.0020151811602 
0.0019856164033 0.0031868658566 0.0031115331406 0.0030390918399 0.0029694346849 0.0029024796467 0.0028381384669 0.0027762532612 0.0027167748003 
0.0026596047322 0.002604664849 0.0025518776487 0.0025011623039 0.0024524425466 0.0024056409368 0.0023606791214 0.0023174936371 0.0022759726152 
0.0022360518023 0.0021976541421 0.0021606905145 0.0021250875145 0.00209074259 0.0020576131265 0.0020256081821 0.0019946434921 0.0019646789539 
0.0031495453766 0.0030746736819 0.0030026699277 0.002933463094 0.0028669247354 0.0028029865081 0.0027415079454 0.0026824145707 0.0026256262132 
0.0025710567792 0.0025186225765 0.0024682435235 0.0024198370984 0.0023733243911 0.0023286234536 0.0022856679162 0.0022443442034 0.0022045906341 
0.0021663159311 0.0021294425047 0.0020938939615 0.0020595682079 0.002026425295 0.0019943751368 0.001963339457 0.0019332803394 0.0030934585024 
0.0030195454521 0.0029484991666 0.0028801980151 0.0028145468258 0.0027514801268 0.0026908453986 0.0026325829 0.0025766065973 0.002522827472 
0.0024711613224 0.002421524782 0.0023738346582 0.002328006119 0.0022839720277 0.0022416164829 0.0022008755795 0.0021616543174 0.0021238748895 
0.0020874535187 0.0020522935626 0.0020183530029 0.0019855323577 0.0019537511866 0.0019229717878 0.0018931198398 0.0030198672213 0.0029474190602 
0.0028777775049 0.0028108479455 0.0027465350273 0.0026847791305 0.0026254286656 0.0025684248204 0.0025136791601 0.002461103176 0.0024106109052 
0.0023621169519 0.0023155358808 0.0022707968244 0.0022277823049 0.0021864208272 0.0021466311814 0.0021083148743 0.0020713910103 0.0020357754454 
0.0020013690659 0.0019681290773 0.0019359560209 0.0019047717475 0.0018745360881 0.0018451813088 0.0029290947287 0.0028585458036 0.002790768901 
0.0027256568456 0.0026631536891 0.0026031134003 0.002545474597 0.0024901475234 0.0024370454053 0.0023860789779 0.0023371611255 0.0022902052489 
0.0022451243999 0.0022018451865 0.0021602462582 0.0021202612322 0.002081787104 0.0020447399042 0.002009030026 0.0019745531454 0.0019412576793 
0.001909048668 0.0018778298298 0.0018475602869 0.0018181635812 0.0017895850877 0.0028204403628 0.0027522464372 0.0026867754229 0.0026239286887 
0.0025636316594 0.0025057629659 0.002450255259 0.0023970199956 0.002345970492 0.0022970163071 0.0022500729601 0.0022050503007 0.0021618754518 
0.0021204261551 0.002080632893 0.0020423886777 0.0020056082853 0.0019701966648 0.0019360427369 0.0019030891102 0.0018712288238 0.0018403678547 
0.0018104455658 0.001781381094 0.0017531114388 0.0017255847008 0.0026924696393 0.0026270808012 0.0025643480426 0.0025041844051 0.0024465242023 
0.0023912478727 0.0023382869133 0.0022875541947 0.002238963134 0.0021924251023 0.0021478539265 0.0021051747707 0.0020642662004 0.0020250508713 
0.0019874410174 0.0019513260109 0.0019166153846 0.0018831922251 0.001850992488 0.0018198995061 0.0017898183886 0.0017606497652 0.0017323282685 
0.0017047706682 0.0016779129409 0.0016517057492 0.0025437751908 0.0024816026028 0.0024220321756 0.0023649892326 0.002310365526 0.0022580919169 
0.0022080840138 0.002160257287 0.0021145235604 0.0020707985951 0.0020289935375 0.0019890339252 0.0019507965075 0.0019142099367 0.0018791610389 
0.0018455572884 0.0018132941266 0.0017822500359 0.0017523524917 0.0017234775661 0.001695508775 0.001668373456 0.0016419720899 0.001616218806 
0.0015910522209 0.0015664218455 0.00315207036 0.0030819017686 0.0030145907947 0.0029499275153 0.0028877754902 0.00282800544 0.002770522537 
0.0027153046461 0.0026622137579 0.0026112870091 0.0025624967404 0.0025158081913 0.0024711925626 0.0024286064989 0.0023879964014 0.0023492975904 
0.0023124434846 0.0022773623652 0.0022439819527 0.0022122257588 0.0021819752052 0.0021531420712 0.0021256130704 0.0020992621811 0.0020739601849 
0.0020495652964 0.0032457987796 0.0031730797729 0.0031032494559 0.0030361586246 0.0029716699857 0.0029096592252 0.0028500741494 0.0027927589818 