# vtk DataFile Version 5.1
vtk output
ASCII
DATASET STRUCTURED_POINTS
DIMENSIONS 20 20 40
SPACING 0.05 0.05 0.05
ORIGIN 3.225 -0.475 0.525
POINT_DATA 16000
FIELD FieldData 1
potential 1 16000 double
0.00092650458177 0.00091692280093 0.0009075362756 0.00089832526532 0.00088927212117 0.00088035568124 0.00087155895661 0.00086287025593 0.00085427946072 
0.00084578151327 0.0008373761782 0.0008290689443 0.00082086783995 0.00081278289321 0.00080482581426 0.00079700612323 0.00078933308414 0.00078181152736 
0.00077444368797 0.00078158406104 0.00091929232886 0.00090982877316 0.00090055279772 0.00089144611574 0.000882489085 0.00087366305509 0.00086495187816 
0.0008563447157 0.00084783248166 0.00083941190002 0.00083108412292 0.00082285554429 0.00081473414637 0.00080673107263 0.0007988568225 0.00079112278816 
0.00078353703574 0.00077610313437 0.00076882404796 0.00077731163985 0.00091170756943 0.00090236759128 0.000893207963 0.00088421036274 0.00087535839486 
0.0008666313045 0.00085801597059 0.00084950133824 0.00084108003929 0.00083274913847 0.00082451054186 0.0008163715104 0.00080834054796 0.00080042764286 
0.00079264576949 0.00078500224797 0.0007775067216 0.00077016186288 0.0007629691267 0.00077280540436 0.00090391315015 0.00089469822843 0.00088565848248 
0.00087677557559 0.00086803502742 0.00085941547272 0.00085090412442 0.000842492752 0.000834173216 0.00082594343215 0.00081780537976 0.00080976620564 
0.00080183517375 0.0007940206277 0.00078633670549 0.00077878782043 0.0007713828549 0.0007641250033 0.00075701833043 0.00076820283758 0.00090573868031 
0.00089642956946 0.00088725869494 0.00087821245151 0.00086927768686 0.00086044213151 0.00085169605494 0.00084303380076 0.00083445457765 0.00082595927302 
0.00081755502021 0.00080925068083 0.00080105916572 0.00079299394064 0.00078506956962 0.00077729497675 0.00076968285336 0.00076224057531 0.00075497537351 
0.00075835647236 0.00089919523456 0.00088999167901 0.00088092535279 0.00087198279267 0.00086315164396 0.00085441984536 0.00084577842217 0.00083722161861 
0.00082874920848 0.00082036305357 0.00081206671283 0.00080386927144 0.0007957836003 0.00078782135069 0.0007799948017 0.00077231514814 0.00076479181475 
0.0007574335804 0.00075024652215 0.00075296439258 0.00089291907236 0.00088381612725 0.00087485086647 0.00086600963064 0.00085728027714 0.00084865152737 
0.00084011569515 0.00083166672198 0.00082330226893 0.00081502459191 0.00080683653461 0.00079874783788 0.00079076661296 0.00078290583217 0.00077517552749 
0.00076758562145 0.00076014635449 0.00075286588007 0.00074575114946 0.0007478019362 0.00088701163181 0.0008780035208 0.0008691342203 0.00086039162373 
0.00085176167153 0.00084323473196 0.00083480349472 0.00082646009922 0.00081820335562 0.00081003292395 0.00080195241602 0.00079396941953 0.00078609052592 
0.00077832693443 0.0007706884977 0.00076318379238 0.00075582271022 0.00074861472751 0.00074156569683 0.00074294543175 0.00088154450324 0.00087262611258 
0.00086384837783 0.00085519811212 0.00084666474217 0.00083823746246 0.00082990772093 0.00082166838392 0.00081351666391 0.00080545178938 0.0007974763185 
0.00078959457392 0.00078181323754 0.0007741410002 0.00076658852837 0.00075916294795 0.00075187555299 0.00074473364235 0.00073774566486 0.00073845091288 
0.00087656090837 0.00086772583732 0.00085903468633 0.00085047457771 0.00084203456067 0.00083370261186 0.00082547201255 0.00081733410866 0.00080928417372 
0.00080132124299 0.00079344525297 0.00078565910902 0.00077796930393 0.00077038391815 0.00076291035162 0.00075555920889 0.00074833792751 0.00074125724099 
0.00073432493659 0.00073435257014 0.0008720823786 0.00086332511889 0.00085471494561 0.0008462405821 0.00083789047544 0.00082965346926 0.00082151830705 
0.00081347636314 0.00080552565414 0.00079765937439 0.00078987721611 0.00078218095564 0.00077457601945 0.00076706926088 0.00075966933354 0.00075238549021 
0.00074522579867 0.00073820192613 0.00073132064175 0.00073066782519 0.00086810701128 0.00085942291947 0.00085089135077 0.00084249875796 0.00083423517044 
0.00082608689209 0.00081804308784 0.00081009650198 0.00080223796173 0.00079446312666 0.00078676811359 0.00077915589285 0.00077162946319 0.00076419562421 
0.00075686372881 0.00074964127364 0.00074253827693 0.0007355661485 0.00072873288672 0.00072739548701 0.00086461501713 0.00085599942834 0.00084754049036 
0.00083922683602 0.0008310463716 0.00082298345887 0.00081502873071 0.0008071707085 0.00079939926549 0.00079170995515 0.00078409748152 0.0007765623627 
0.00076910819137 0.00076174229825 0.0007544714592 0.0007473051876 0.00074025483618 0.00073332996089 0.00072654056 0.00072451675803 0.00086156438175 
0.00085301324763 0.00084462439225 0.00083638613196 0.00082828268781 0.00082030396625 0.00081243306918 0.00080465822885 0.00079696849603 0.00078935853369 
0.00078182146833 0.00077435747394 0.00076697064851 0.00075966548182 0.00075245171838 0.0007453374969 0.00073833578857 0.0007314543127 0.00072470489659 
0.00072199257095 0.00085889249523 0.00085040323565 0.00084208138547 0.0008339128449 0.00082588648851 0.00081798490352 0.00081019218519 0.00080249490032 
0.00079488087006 0.00078734359073 0.00077987514779 0.00077247669578 0.00076514949106 0.00075790128461 0.00075073928409 0.00074367424967 0.00073671723524 
0.00072987770309 0.00072316631904 0.00071976319414 0.00085651379259 0.00084808369118 0.00083982669875 0.00083172680101 0.00082377069604 0.00081594080002 
0.00080822004427 0.00080059316531 0.00079304755805 0.00078557502636 0.00077817073726 0.00077083019865 0.00076355766889 0.00075636104715 0.00074924781814 
0.00074222876555 0.00073531408293 0.00072851494123 0.00072183999756 0.00071774767303 0.00085431715752 0.00084594787845 0.0008377524358 0.00082971781715 
0.0008218271481 0.00081406303098 0.00080640688244 0.00079884340703 0.00079135841644 0.00078394447588 0.00077659421831 0.00076930607822 0.00076208366857 
0.00075493475518 0.00074786697659 0.00074089156437 0.00073401858798 0.00072725992601 0.00072062273915 0.00071584324439 0.00085217209539 0.00084386334372 
0.00083572982916 0.0008277564499 0.00081992633875 0.00081222094564 0.00080462220089 0.00079711482281 0.00078968290298 0.00078231829221 0.00077501654869 
0.00076777475657 0.00076059765952 0.0007534921817 0.00074646811642 0.0007395358975 0.00073270551416 0.00072598891083 0.00071939295969 0.00071393033643 
0.00084992924962 0.000841684425 0.00083361198758 0.00082569731648 0.0008179232291 0.00081027126428 0.00080272297872 0.00079526366711 0.0007878769025 
0.00078055592499 0.00077329524649 0.0007660953982 0.00075895965334 0.00075189534745 0.00074491379749 0.00073802543897 0.00073124068839 0.00072456893057 
0.00071801858825 0.00071187983794 0.0008474371549 0.00083925875011 0.0008312482074 0.00082339120966 0.00081567032891 0.00080806738138 0.00080056589906 
0.00079314632426 0.0007857995095 0.00077851603959 0.00077129257717 0.00076413043719 0.00075703348407 0.00075001022704 0.00074307193351 0.0007362291661 
0.00072949186597 0.0007228698518 0.00071637218977 0.00070956504592 0.0010067187422 0.00099622702363 0.00098594574281 0.00097585986597 0.00096595054185 
0.00095620159475 0.00094659818774 0.00093713034181 0.00092778870143 0.00091856774562 0.00090946523444 0.00090048334334 0.00089162594422 0.00088289844964 
0.00087430707836 0.00086586011066 0.00085756105269 0.00084941275817 0.0008414166792 0.00084797928893 0.00099941828302 0.00098904766778 0.00097888182882 
0.00096890467991 0.00095909919269 0.00094944887253 0.00093993996835 0.00093056264542 0.00092130920212 0.00091217443245 0.0009031573797 0.00089426089523 
0.00088548838822 0.0008768468155 0.00086834150019 0.00085998010457 0.00085176756043 0.00084370594783 0.00083579475214 0.00084370391043 0.00099183612384 
0.00098159103511 0.00097154489856 0.00096168205933 0.00095198622414 0.00094244087255 0.00093303386892 0.00092375600667 0.00091459920719 0.00090555953822 
0.00089663622056 0.0008878327915 0.00087915342101 0.00087060317122 0.00086219066989 0.00085391949198 0.00084579625 0.00083782187282 0.00082999633147 
0.0008392539075 0.00098408951127 0.00097397178037 0.00096404851376 0.000954304993 0.00094472347451 0.00093528985045 0.00092599115219 0.00091682002933 
0.0009077680352 0.00089883178243 0.00089001086468 0.00088130772854 0.00087272713482 0.00086427557257 0.00085596010691 0.00084778237496 0.00083974912189 
0.00083186104734 0.00082412164422 0.0008347303164 0.00098582258237 0.00097563593883 0.00096560651177 0.00095572273297 0.00094597352543 0.00093634824597 
0.00092683775564 0.00091743968431 0.00090815040665 0.00089897014788 0.00088990350798 0.00088095669386 0.0008721362696 0.00086345363391 0.00085491918744 
0.00084653872826 0.00083832203518 0.0008302749945 0.00082240374332 0.00082519972518 0.00097928780938 0.00096921052029 0.00095928940586 0.00094951287461 
0.00093987042671 0.00093035142905 0.00092094814642 0.00091165559844 0.00090247217327 0.0008934000564 0.00088443914875 0.00087559576373 0.0008668789069 
0.00085829635646 0.0008498593169 0.00084157335274 0.00083344633018 0.00082548522871 0.00081769617144 0.00081983239891 0.00097295902313 0.00096298723145 
0.00095317153948 0.00094350036517 0.00093396303502 0.00092454925757 0.00091525389006 0.00090606804155 0.00089699202384 0.00088802597131 0.00087917062356 
0.00087043228922 0.00086181781371 0.00085333566199 0.00084499303759 0.0008367976768 0.00082875722563 0.00082087769459 0.00081316482799 0.00081463903228 
0.00096691895535 0.0009570482677 0.00094733466083 0.000937765692 0.0009283323017 0.00091902230505 0.00090983130531 0.00090075145839 0.00089178238335 
0.00088292063927 0.00087417125362 0.00086553677792 0.00085702234251 0.00084863620586 0.00084038577601 0.00083227686339 0.00082431808296 0.00081651528493 
0.00080887449507 0.00080968404105 0.000961228621 0.00095145433735 0.00094183795264 0.00093236771477 0.00092303358636 0.00091382663411 0.00090473884864 
0.00089576286381 0.00088689731415 0.000878141477 0.00086949443926 0.00086095981936 0.00085254210857 0.00084424767194 0.00083608485667 0.00082805845791 
0.00082017775077 0.00081244649787 0.00080487327324 0.00080501523842 0.00095592613194 0.00094624341913 0.00093672073976 0.00092734567619 0.00091810957354 
0.00090900124753 0.00090001341166 0.00089113954781 0.00088237675895 0.00087372118873 0.00086517297237 0.00085673377984 0.00084840891261 0.00084020251958 
0.00083212170513 0.00082417398023 0.0008163647425 0.00080870138294 0.0008011908719 0.00080066281488 0.00095103229761 0.00094143645017 0.00093200212991 
0.00092271918388 0.00091357768488 0.00090456692085 0.00089567569809 0.00088690068831 0.00087823605756 0.00086967730912 0.00086122343369 0.00085287554668 
0.00084463701555 0.00083651311684 0.00082851108725 0.00082063543613 0.00081289396155 0.00080529433106 0.00079784271071 0.0007966422145 0.00094654540469 
0.00093703266902 0.0009276846491 0.00091849002563 0.00090943946218 0.00090051989312 0.00089172451575 0.00088304407729 0.00087447369054 0.00086600760667 
0.0008576422086 0.00084938112136 0.00084122474671 0.00083317834128 0.00082524905762 0.00081744187617 0.00080976432062 0.00080222423777 0.00079482844093 
0.00079295233546 0.00094244989422 0.00093301592193 0.00092374934957 0.00091464022039 0.00090567626606 0.00089684732598 0.00088814246929 0.00087955240961 
0.00087107150453 0.00086269239951 0.00085441253538 0.00084623228665 0.00083815289996 0.00083018023147 0.00082231807924 0.00081457444118 0.00080695758487 
0.00079947316183 0.00079212974197 0.00078957628553 0.0009387083062 0.00092934995233 0.00092016215908 0.00091113387712 0.00090225432609 0.00089351181854 
0.00088489378245 0.00087638935203 0.00086799218172 0.0008596961653 0.00085149606922 0.00084339115999 0.00083538478432 0.00082747973896 0.0008196820799 
0.00081199878216 0.00080443833991 0.00079700668446 0.00078971242902 0.00078648113708 0.0009352663134 0.00092598118274 0.00091686875203 0.00090791933345 
0.00089912100209 0.00089046006718 0.00088192381591 0.0008735005069 0.00086518281049 0.00085696358321 0.00084883757383 0.00084080409197 0.00083286464991 
0.00082502332728 0.00081728595735 0.0008096600633 0.00080215391371 0.00079477294707 0.00078752675901 0.00078361588895 0.00093205151389 0.00092283724644 
0.00091379923284 0.00090492604729 0.00089620437167 0.00088762080443 0.00087916126156 0.00087081363594 0.00086257007407 0.00085442104484 0.00084636553227 
0.00083839765252 0.00083052057575 0.00082273938019 0.000815059773 0.00080748898559 0.00080003439663 0.00079270328426 0.00078550355338 0.00078091424423 
0.00092897306295 0.00091983102869 0.00091086550379 0.00090206511554 0.00089341660042 0.00088490562971 0.00087651758799 0.00086824054229 0.00086006469623 
0.00085198289568 0.00084398958019 0.0008360827679 0.00082826478267 0.00082054062178 0.00081291580338 0.00080539791873 0.00079799434156 0.00079071344204 
0.00078356140431 0.00077829571319 0.00092592832865 0.0009168579395 0.00090796446431 0.00089923518908 0.00089065647262 0.00088221351068 0.0008738921114 
0.00086568031655 0.00085756765272 0.00084954509917 0.00084161037306 0.00083376050886 0.00082599801148 0.00081832764786 0.00081075599089 0.00080329068547 
0.00079593903727 0.00078870883898 0.00078160592238 0.00077566710852 0.00092280368949 0.00091380768398 0.00090498582895 0.00089632592714 0.00088781427777 
0.00087943568676 0.00087117714801 0.00086302451456 0.0008549689405 0.00084700253619 0.00083912106757 0.00083132510873 0.00082361570542 0.00081599735255 
0.00080847842522 0.00080106576198 0.0007937676171 0.00078659026612 0.00077954002884 0.00077293338363 0.00091948775355 0.00091056794905 0.00090181847427 
0.00089322799092 0.00088478169265 0.00087646468493 0.0008682655994 0.0008601682707 0.0008521659796 0.00084425162284 0.00083642128943 0.00082867597821 
0.00082101749434 0.00081345092652 0.00080598624941 0.00079862762602 0.00079138413999 0.00078426294349 0.00077727046424 0.00077000080201 0.0010870891653 
0.0010756994521 0.001064536212 0.0010535847762 0.0010428288968 0.0010322540608 0.0010218491638 0.0010116027391 0.0010015074816 0.00099155657506 
0.00098174692918 0.00097207740688 0.00096254984825 0.00095316598276 0.00094392938287 0.00093484320473 0.00092591066067 0.00091713133995 0.00090850587852 
0.00091448348311 0.001079608167 0.0010683433231 0.0010573002432 0.0010464638187 0.0010358185604 0.0010253507201 0.0010150471459 0.0010049001824 
0.00099490100503 0.00098504406154 0.00097532659635 0.00096574891111 0.00095631169778 0.00094701786158 0.00093786971686 0.00092887185953 0.00092002662896 
0.00091133437033 0.00090279341355 0.00091011769404 0.0010719154613 0.0010607794999 0.0010498599826 0.0010391437014 0.001028613272 0.0010182564981 
0.0010080615402 0.00099801976495 0.00098812288297 0.00097836685212 0.00096874797823 0.00095926801902 0.00094992679318 0.00094072642847 0.00093167328164 
0.00092276740348 0.00091401149213 0.00090540675027 0.00089695114142 0.00090562621828 0.0010640965516 0.0010530915133 0.0010422988594 0.0010317052862 
0.0010212947139 0.0010110542807 0.0010009723331 0.00099104175689 0.00098125397997 0.00097160442582 0.00096209064146 0.00095271281373 0.00094347230294 
0.00093437262773 0.00092541649746 0.00091660445467 0.00090793914528 0.00089942234101 0.00089105350229 0.00090108203062 0.0010656297018 0.0010545809635 
0.0010437075741 0.001032999555 0.0010224456182 0.0010120373237 0.0010017673909 0.00099163309238 0.00098163065883 0.00097175925354 0.00096202133232 
0.00095242015813 0.0009429620441 0.00093365224572 0.00092449957795 0.00091550718467 0.00090668290432 0.00089803090179 0.00088955625369 0.00089176048291 
0.0010590025724 0.0010480681289 0.001037307537 0.0010267096922 0.0010162667849 0.0010059685778 0.00099580800577 0.00098578225034 0.00097588796094 
0.00096612435808 0.00095649266494 0.00094699576292 0.00093764013332 0.0009284305973 0.00091937549161 0.00091047884371 0.00090174583456 0.00089318210188 
0.00088479278116 0.00088634148378 0.0010525391074 0.0010417152959 0.0010310646701 0.0010205768972 0.0010102433314 0.001000054893 0.00099000384751 
0.0009800854414 0.00097029860325 0.00096064231898 0.00095111586002 0.00094172365276 0.00093246997385 0.00092336106418 0.00091440156716 0.00090559703101 
0.00089695325753 0.00088847443032 0.0008801650318 0.00088105649587 0.0010463049088 0.0010355882904 0.0010250455401 0.0010146647418 0.0010044387732 
0.00099435612874 0.00098441319843 0.00097460231933 0.00096492312202 0.00095537139011 0.00094595074627 0.00093666222387 0.00092750909839 0.0009184966059 
0.00090963064551 0.00090091500155 0.00089235657976 0.00088395880515 0.00087572650246 0.00087595935353 0.0010403509784 0.0010297374926 0.0010192978629 
0.0010090212921 0.00099889955099 0.00098892277826 0.00097908606371 0.00096938040907 0.00095980543616 0.00095035992261 0.0009410420622 0.00093185332046 
0.00092279793795 0.00091387903158 0.00090510334905 0.00089647347275 0.0008879973012 0.00087967664519 0.00087151705183 0.00087108834433 0.0010347089839 
0.0010241947623 0.0010138554436 0.0010036798027 0.00099366002521 0.00098378627107 0.00097405167545 0.00096445029299 0.00095497963443 0.0009456357051 
0.00093641732281 0.00092732643162 0.00091836475254 0.00090953623408 0.00090084660588 0.00089229938588 0.00088389931411 0.00087565216361 0.00086756209596 
0.00086647044377 0.0010293969203 0.0010189777572 0.0010087349587 0.00099865732727 0.00098873781244 0.00097896476308 0.00096932978625 0.0009598301739 
0.00095045892464 0.00094121333161 0.00093209137189 0.00092309337102 0.00091422142875 0.00090547975071 0.00089687207399 0.00088840244583 0.0008800764352 
0.00087189916022 0.00086387485504 0.0008621182675 0.001024414824 0.0010140880184 0.0010039384172 0.00099395587935 0.00098413261939 0.00097445496298 
0.00096491914003 0.00095551621188 0.00094624240868 0.00093709170377 0.00092806127474 0.0009191529659 0.00091036730883 0.00090170826269 0.00089317797398 
0.00088478279727 0.00087652706326 0.00086841603809 0.00086045497557 0.00085803159371 0.0010197485516 0.0010095103192 0.00099945090192 0.00098956031889 
0.00097982792152 0.00097024666938 0.0009608053317 0.00095149583843 0.00094231431589 0.00093325369419 0.00092431251642 0.00091548953732 0.00090678565799 
0.00089820454118 0.00088974871151 0.00088142445032 0.00087323588618 0.00086518810924 0.0008572873848 0.00085419563346 0.0010153671561 0.0010052148927 
0.00099524269972 0.00098544017466 0.00097579873975 0.00096630805929 0.00095695758607 0.00094773787991 0.00093864425134 0.00092967083345 0.00092081369215 
0.00091207131067 0.0009034461514 0.00089493925894 0.00088655441291 0.00087829715015 0.00087017339891 0.00086218648153 0.0008543431667 0.00085058282252 
0.0010112251182 0.0010011562793 0.00099126871407 0.00098155227619 0.00097199852884 0.00096259502786 0.00095333135129 0.00094419754789 0.00093518814442 
0.00092629703387 0.00091751951366 0.00090885489267 0.00090030298475 0.00089186655309 0.0008835497265 0.00087535744789 0.00086729603777 0.00085936831629 
0.0008515815998 0.00084715168975 0.001007262143 0.00099727500563 0.00098747080078 0.00097783899477 0.00096836887328 0.0009590492835 0.00094986864249 
0.00094081633436 0.00093188710913 0.00092307338262 0.00091437240639 0.00090578016902 0.00089729819289 0.00088892984121 0.0008806786832 0.00087254969737 
0.00086454825464 0.00085667877467 0.00084894719622 0.00084384948631 0.0010034054503 0.00099350082921 0.00098377914366 0.00097422887811 0.0009648405731 
0.00095560050955 0.00094649849929 0.0009375250582 0.00092867055201 0.0009199310483 0.0009113009929 0.00090277810905 0.00089436344663 0.0008860607381 
0.000877872909 0.00086980521538 0.00086186327436 0.00085405186625 0.000846376367 0.00084061107798 0.00099957476579 0.00098975323363 0.00098011283369 
0.00097064288999 0.00096133344256 0.00095217024537 0.00094314390574 0.00093424348765 0.00092546244554 0.00091679143447 0.00090822933607 0.00089977270936 
0.0008914228158 0.0008831828865 0.00087505694783 0.00086705032106 0.00085916774562 0.00085141569235 0.00084379649455 0.00083736696066 0.00099568572005 
0.00098594697571 0.00097638800642 0.00096699763696 0.00095776481706 0.00094867631233 0.00093972295528 0.00093089289278 0.0009221789884 0.00091357481724 
0.00090507725593 0.00089668432873 0.00088839753262 0.00088021903809 0.00087215465797 0.00086420893446 0.00085638733983 0.00084869484062 0.00084113510859 
0.0008340451805 0.00099165258876 0.0009819993546 0.00097252231378 0.00096321097732 0.00095405402428 0.00094504027512 0.00093615579159 0.00092739300854 
0.00091874465676 0.0009102044592 0.00090176896206 0.00089343877891 0.00088521311683 0.00087709625893 0.00086909465696 0.00086121075071 0.00085345093422 
0.00084582082899 0.00083832325468 0.00083057648763 0.0011675032538 0.0011552263333 0.0011431911718 0.0011313844992 0.0011197914457 0.0011083983803 
0.0010971962065 0.0010861743277 0.0010753247349 0.0010646407084 0.0010541179922 0.0010437536082 0.0010335471603 0.0010234990244 0.0010136080063 
0.0010038767196 0.00099430527233 0.00098489252789 0.00097563826315 0.00098102089269 0.0011597755606 0.0011476287176 0.0011357192951 0.0011240344268 
0.0011125579134 0.0011012785074 0.0010901859711 0.0010792705454 0.0010685242184 0.001057941463 0.001047517465 0.0010372509065 0.0010271402651 
0.0010171856779 0.0010073876188 0.00099774773908 0.0009882661007 0.0009789415666 0.00096977198944 0.0009765036833 0.0011518912028 0.0011398771373 
0.001128096056 0.0011165366309 0.0011051808324 0.0010940194118 0.0010830406636 0.0010722368804 0.0010615989527 0.0010511221985 0.0010408019786 
0.0010306376349 0.0010206268687 0.0010107699479 0.001001068565 0.00099152296331 0.00098213270727 0.00097289655122 0.0009638140793 0.00097189919664 
0.0011439115802 0.0011320326731 0.0011203833302 0.0011089512748 0.0010977206684 0.0010866806812 0.0010758202432 0.0010651322549 0.0010546078402 
0.0010442415466 0.0010340301619 0.0010239711923 0.0010140639271 0.0010043092459 0.00099470769972 0.00098525752299 0.00097595959693 0.00096681465079 
0.00095781908063 0.00096726142432 0.0011451650769 0.0011332685 0.0011215629289 0.0011100406968 0.0010986913638 0.0010875073137 0.0010764824605 
0.0010656137045 0.0010548969092 0.0010443314749 0.0010339179017 0.0010236560282 0.0010135523882 0.0010036092992 0.00099383197078 0.00098422427739 
0.00097478998056 0.00096553255815 0.00095645650855 0.00095806188964 0.0011383676192 0.0011265900534 0.0011150023458 0.0011035959449 0.0010923615381 
0.0010812916397 0.0010703795851 0.0010596225174 0.00104901683 0.0010385609736 0.0010282539808 0.0010180997219 0.0010080991775 0.00099825876723 
0.00098858161664 0.00097907109743 0.00096973097525 0.0009605642112 0.0009515760661 0.0009525303075 0.0011317040313 0.0011200423528 0.0011085702911 
0.0010972783374 0.0010861579208 0.0010752014674 0.0010644014293 0.0010537549834 0.0010432594215 0.0010329127381 0.0010227134173 0.0010126643238 
0.0010027682664 0.00099302881587 0.00098344937728 0.00097403369042 0.00096478517142 0.00095570724709 0.00094680312009 0.00094710485864 0.0011252254725 
0.0011136783353 0.0011023186324 0.0010911390346 0.0010801303414 0.0010692843457 0.0010585954104 0.0010480594921 0.001037672394 0.0010274328288 
0.001017340746 0.0010073968596 0.00099760292905 0.00098796310983 0.00097847854418 0.00096915455192 0.00095999581331 0.00095100274034 0.00094217983686 
0.00094182878048 0.0011189737196 0.0011075355917 0.0010962861329 0.0010852155904 0.0010743165778 0.0010635802196 0.0010530006703 0.0010425731278 
0.0010322934498 0.0010221610807 0.0010121736296 0.0010023313647 0.00099263735941 0.00098309311012 0.00097370237498 0.00096446836207 0.00095539501779 
0.00094648396492 0.0009377394633 0.00093673318088 0.0011129745327 0.0011016430715 0.0010905005443 0.0010795357471 0.0010687448244 0.0010581159534 
0.0010476430699 0.0010373215747 0.0010271484235 0.0010171206676 0.0010072350638 0.00099749278615 0.00098789483144 0.00097844411584 0.00096914327121 
0.0009599956419 0.00095100394237 0.00094217199747 0.00093350240509 0.00093184016419 0.0011072419791 0.0010960147674 0.0010849754736 0.0010741160575 
0.0010634299384 0.001052905131 0.0010425367 0.0010323201733 0.0010222500994 0.0010123221236 0.001002535981 0.00099289000217 0.00098338574471 
0.00097402518422 0.00096481127206 0.00095574637042 0.00094683410451 0.00093807775821 0.0009294806127 0.00092716068816 0.0011017788214 0.0010906512497 
0.0010797133633 0.0010689556373 0.0010583708884 0.0010479475257 0.0010376817353 0.0010275659665 0.0010175960869 0.0010077665684 0.00099807633413 
0.00098852315513 0.00097910910651 0.00096983619462 0.00096070501368 0.00095172010917 0.00094288445395 0.00093420062798 0.00092567341996 0.00092269465692 
0.0010965711207 0.0010855413647 0.0010747016257 0.001064042688 0.0010535555007 0.0010432331081 0.001033066446 0.0010230480519 0.0010131747675 
0.0010034401432 0.00099384223298 0.00098437941604 0.00097505293116 0.000965862773 0.00095681155226 0.00094790378549 0.00093914169333 0.00093052844524 
0.0009220685404 0.00091842981081 0.0010915943784 0.0010806596953 0.0010699154505 0.0010593513604 0.0010489624221 0.0010387358672 0.0010286651543 
0.0010187417299 0.0010089616188 0.00099931828203 0.00098980909707 0.00098043351589 0.00097118976434 0.00096208040182 0.00095310687352 0.00094427289414 
0.00093558257654 0.00092703745003 0.00091864279288 0.00091434389128 0.0010868103467 0.0010759691756 0.0010653182112 0.0010548485672 0.0010445535241 
0.0010344205692 0.0010244424794 0.0010146104829 0.001004919593 0.00099536443502 0.00098594195697 0.00097664841591 0.00096748501953 0.00095845303926 
0.00094955422402 0.00094079284846 0.00093217163177 0.00092369329688 0.00091536226493 0.00091040356577 0.0010821711054 0.0010714214943 0.0010608628664 
0.001050486369 0.0010402819567 0.0010302398431 0.0010203512465 0.0010106072722 0.0010010024069 0.00099153272422 0.00098219153948 0.00097297791811 
0.00096389203181 0.00095493528392 0.00094610954506 0.00093741834316 0.00092886523638 0.00092045294214 0.00091218466774 0.00090656694773 0.0010776184839 
0.0010669611522 0.0010564940918 0.0010462078444 0.0010360925816 0.0010261381259 0.0010163359862 0.0010066780289 0.00099715700093 0.00098776669757 
0.00097850523645 0.00096936881193 0.00096035787407 0.00095147389814 0.00094271961619 0.00093409756138 0.00092561158232 0.00091726405646 0.00090905956526 
0.00090278323937 0.0010730905462 0.0010625255392 0.0010521489866 0.0010419517733 0.0010319241157 0.0010220554248 0.0010123378076 0.0010027615679 
0.00099332050229 0.00098400846858 0.00097482318656 0.00096576155019 0.00095682375207 0.00094801119962 0.00093932678593 0.00093077310096 0.00092235346364 
0.00091407296198 0.00090593135595 0.00089899871759 0.0010685224549 0.0010580496547 0.0010477636019 0.0010376546601 0.0010277132314 0.0010179284005 
0.0010082936506 0.00099879600821 0.00098943259557 0.00098019673844 0.00097108577978 0.00096209689912 0.00095323083541 0.00094448836492 0.00093587327511 
0.00092738846692 0.00091903626074 0.00091082153957 0.00090274557014 0.00089515982373 0.0010638502719 0.0010534716561 0.0010432763712 0.0010332557382 
0.0010233996805 0.0010136994309 0.0010041426194 0.00099472352519 0.00098543590902 0.00097627441747 0.00096723604994 0.00095831877282 0.00094952317549 
0.0009408507559 0.00093230604489 0.00092388983154 0.00091560645668 0.00090745980157 0.00089945113807 0.00089121473666 0.0012478724233 0.0012347184119 
0.0012218223178 0.0012091701383 0.0011967474131 0.0011845438319 0.001172550095 0.0011607558057 0.0011491532665 0.0011377354724 0.0011264974994 
0.001115434642 0.0011045446729 0.0010938268545 0.0010832772867 0.0010728971324 0.0010626847515 0.0010526374945 0.0010427541325 0.0010475315443 
0.0012398519778 0.0012268334786 0.0012140686031 0.001201543708 0.001189244987 0.0011771617666 0.0011652841381 0.001153603767 0.0011421116186 
0.0011308013927 0.0011196685471 0.0011087091618 0.0010979204199 0.0010873003384 0.0010768481369 0.0010665628504 0.0010564432178 0.001046486544 
0.0010366893962 0.0010428192213 0.0012317163841 0.0012188357431 0.0012062039482 0.0011938106535 0.0011816386654 0.0011696792032 0.0011579223067 
0.0011463592446 0.001134981261 0.0011237823662 0.0011127586901 0.0011019060646 0.0010912208119 0.0010807033211 0.0010703514176 0.0010601630769 
0.0010501369327 0.0010402716867 0.0010305637025 0.0010380506441 0.0012235112446 0.0012107704694 0.0011982755418 0.0011860154809 0.0011739734555 
0.0011621409711 0.0011505077401 0.0011390654617 0.0011278058491 0.0011167222176 0.0011058110186 0.0010950683002 0.0010844913414 0.0010740784757 
0.001063828108 0.0010537377811 0.0010438071358 0.0010340355187 0.0010244173396 0.0010332642211 0.0012244262298 0.0012116934165 0.0011991668765 
0.001186840271 0.0011747042613 0.0011627509144 0.0011509756283 0.0011393750029 0.0011279448088 0.0011166835188 0.0011055912032 0.0010946662632 
0.0010839128238 0.001073333115 0.0010629277514 0.0010527016507 0.0010426562956 0.0010327936633 0.0010231171076 0.0010241164566 0.0012173983954 
0.0012047899685 0.0011923866141 0.001180181386 0.001168164993 0.0011563301454 0.0011446719339 0.0011331878725 0.0011218717031 0.0011107229178 
0.0010997404667 0.0010889253375 0.0010782785749 0.0010678035797 0.0010575013387 0.0010473751607 0.0010374268003 0.001027658548 0.0010180728889 
0.0010184259913 0.0012104831497 0.0011979965642 0.0011857143633 0.0011736285159 0.0011617314366 0.0011500141208 0.0011384719882 0.001127101342 
0.0011158991698 0.0011048618083 0.0010939898947 0.0010832833957 0.0010727432386 0.0010623721 0.0010521703484 0.0010421418927 0.0010322885053 
0.0010226126054 0.0010131157002 0.0010128209437 0.0012037214226 0.0011913543201 0.0011791909303 0.0011672223906 0.0011554411815 0.0011438403127 
0.0011324129208 0.0011211559444 0.0011100644637 0.001099139061 0.0010883767763 0.0010777770726 0.001067341725 0.0010570726324 0.0010469697746 
0.0010370365314 0.00102727674 0.0010176896028 0.0010082785116 0.0010073365807 0.0011971434165 0.0011848932309 0.0011728458146 0.0011609927324 
0.0011493266148 0.0011378383088 0.0011265243414 0.00111538021 0.0011044005393 0.0010935842581 0.0010829293284 0.0010724349638 0.001062101842 
0.0010519316881 0.0010419263645 0.0010320874762 0.0010224163129 0.0010129159793 0.0010035877725 0.0010019974324 0.001190772401 0.001178636322 