# vtk DataFile Version 5.1
vtk output
ASCII
DATASET STRUCTURED_POINTS
DIMENSIONS 30 30 30
SPACING 0.01 0.01 0.01
ORIGIN 1.555 -0.145 0.855
POINT_DATA 27000
FIELD FieldData 1
potential 1 27000 double
0.015338414376 0.015261019185 0.015184057554 0.01510752246 0.015031415452 0.014955731239 0.014880469552 0.014805629296 0.014731195057 
0.014657189981 0.014583604542 0.014510433365 0.014437674719 0.014365328839 0.01429339229 0.014221864554 0.014150741988 0.014080025644 
0.014009711307 0.013939799986 0.01387028829 0.013801168077 0.013732449568 0.013664125587 0.013596194288 0.013528653126 0.013461501919 
0.013394738253 0.013328360235 0.013262365837 0.015263528958 0.015186806819 0.015110507775 0.015034631215 0.014959172965 0.014884132749 
0.014809509461 0.014735287352 0.014661490795 0.014588108268 0.014515136001 0.014442572655 0.014370416314 0.014298665518 0.014227319343 
0.014156377262 0.014085833266 0.014015690641 0.013945943894 0.013876594428 0.013807632946 0.013739069662 0.013670897247 0.013603113931 
0.0135357183 0.013468708014 0.013402081964 0.013335838467 0.013269975419 0.013204491027 0.015189028059 0.015112970592 0.015037327947 
0.014962101756 0.014887288323 0.014812888215 0.01473888438 0.014665301015 0.014592127376 0.014519359395 0.014446996178 0.014375034987 
0.014303475925 0.014232316723 0.014161555989 0.014091192366 0.01402122334 0.013951649725 0.013882467098 0.013813669852 0.013745267143 
0.013677250816 0.013609620422 0.013542374062 0.013475509861 0.01340902716 0.013342921397 0.013277194011 0.013211841893 0.013146864021 
0.015114909978 0.015039510628 0.014964521635 0.014889940821 0.014815767109 0.014741985087 0.014668619012 0.014595658795 0.014523101148 
0.014450943181 0.014379184705 0.014307821877 0.014236855106 0.014166283107 0.014096103542 0.014026315252 0.013956916356 0.013887907379 
0.013819278097 0.013751040514 0.013683186303 0.013615713526 0.013548620692 0.013481906985 0.013415570401 0.013349610066 0.013284021941 
0.013218807038 0.013153962539 0.013089487222 0.015041171995 0.014966425247 0.014892082566 0.014818141293 0.014744587911 0.014671445823 
0.014598704995 0.014526361466 0.014454413781 0.014382860246 0.014311700372 0.014240932068 0.014170554059 0.014100564287 0.014030961382 
0.013961744349 0.013892910766 0.013824456192 0.013756388263 0.013688699644 0.013621389745 0.013554456042 0.013487897439 0.013421712175 
0.013355899257 0.013290457588 0.013225383927 0.013160676842 0.013096336209 0.013032360321 0.014967814973 0.014893715624 0.014820013865 
0.014746693431 0.01467378358 0.014601264941 0.014529141339 0.014457409291 0.014386067495 0.014315114473 0.01424454839 0.014174368011 
0.014104572498 0.014035160288 0.013966130224 0.01389748068 0.013829202508 0.013761309887 0.013693792736 0.013626649179 0.013559878923 
0.013493480684 0.013427451934 0.013361791722 0.013296498275 0.013231571332 0.013167007577 0.013102805147 0.013038964729 0.012975484205 
0.014894840254 0.014821382184 0.014748302037 0.014675627131 0.014603337609 0.014531439827 0.014459928948 0.014388803426 0.014318062395 
0.014247704533 0.014177728074 0.014108131773 0.014038915047 0.013970075605 0.013901613046 0.013833518102 0.013765803484 0.013698462322 
0.013631492682 0.013564890549 0.013498656094 0.013432788684 0.013367285443 0.01330214605 0.013237368683 0.013172952324 0.013108894565 
0.013045193188 0.012981849132 0.012918860433 0.014822248209 0.014749412113 0.014676976475 0.014604923803 0.014533256084 0.014461971222 
0.014391067974 0.014320543866 0.014250398431 0.014180631189 0.014111239883 0.014042222605 0.013973579808 0.01390530876 0.01383740249 
0.013769871977 0.01370270985 0.013635915356 0.013569486561 0.013503421848 0.013437719965 0.013372379372 0.013307398908 0.013242776299 
0.013178511232 0.013114601397 0.013051045452 0.012987842565 0.012924990887 0.01286248932 0.014750024854 0.0146778347 0.014606021869 
0.014534590647 0.014463536414 0.014392860276 0.014322559022 0.014252631694 0.014183077317 0.014113895694 0.014045084413 0.013976642031 
0.013908568121 0.013840854251 0.01377351323 0.013706535975 0.013639922274 0.013573670554 0.013507779025 0.013442246571 0.01337707233 
0.013312254004 0.013247791153 0.013183681822 0.013119925276 0.013056518234 0.012993460749 0.012930751475 0.012868389394 0.012806372057 
0.014678200496 0.014606633185 0.014535443011 0.014464626035 0.014394180766 0.014324105904 0.01425440169 0.014185067291 0.014116098924 
0.014047498008 0.013979262027 0.013911389357 0.013843873439 0.01377672609 0.013709938366 0.013643510778 0.01357744036 0.01351172749 
0.013446369146 0.013381365231 0.013316714518 0.013252414741 0.013188465657 0.013124864774 0.013061611973 0.012998704625 0.012936142041 
0.012873923768 0.012812046455 0.012750508702 0.01460675802 0.01453581366 0.014465237699 0.014395029453 0.01432518777 0.014255710311 
0.014186598313 0.014117849747 0.014049463006 0.013981438303 0.01391377243 0.01384645876 0.013779509836 0.013712917236 0.01364667908 
0.013580795856 0.01351526497 0.01345008627 0.013385257552 0.013320777597 0.01325664582 0.01319286108 0.013129421702 0.013066325601 
0.013003573102 0.012941161195 0.012879089613 0.012817357269 0.012755961521 0.012694900792 0.014535701748 0.014465372301 0.014395405898 
0.014325801652 0.014256557971 0.014187674134 0.014119148273 0.014050981567 0.013983170971 0.013915716827 0.013848609692 0.013781864011 
0.013715470474 0.013649428326 0.013583735301 0.013518392138 0.013453396204 0.013388747649 0.01332444389 0.013260484099 0.013196867583 
0.013133593306 0.013070659032 0.013008064396 0.012945808094 0.012883887765 0.012822303225 0.012761053349 0.012700135414 0.012639549519 
0.014465029656 0.0143953098 0.014325947406 0.014256941644 0.014188291239 0.014119994992 0.014052051499 0.013984461458 0.013917222576 
0.013850327565 0.01378378853 0.013717598834 0.013651755941 0.013586259797 0.013521107559 0.013456299472 0.013391834441 0.013327711524 
0.01326392875 0.013200485138 0.013137379482 0.013074611076 0.013012178861 0.012950081357 0.012888317417 0.012826884906 0.012765784279 
0.012705012491 0.012644568786 0.012584452661 0.014394741474 0.01432562595 0.01425686243 0.014188449954 0.01412038765 0.014052674373 
0.0139853079 0.013918282436 0.013851610441 0.013785284052 0.013719301686 0.013653662702 0.01358836629 0.013523411139 0.013458795786 
0.01339451849 0.013330579791 0.013266978052 0.013203712189 0.013140780461 0.013078182208 0.01301591577 0.012953981365 0.012892376893 
0.012831101475 0.012770153301 0.01270953175 0.012649234903 0.012589261836 0.012529611795 0.014324837038 0.014256320848 0.014188150512 
0.014120326391 0.014052846845 0.013985711438 0.013918910413 0.013852458962 0.013786348931 0.013720579437 0.013655148793 0.013590056625 
0.013525301404 0.013460882927 0.013396799661 0.013333049298 0.013269632577 0.013206548081 0.013143794168 0.013081370243 0.013019274757 
0.012957507283 0.012896065813 0.012834951048 0.012774160199 0.012713692874 0.012653546483 0.01259372072 0.012534214674 0.012475026069 
0.014255316143 0.014187393402 0.014119811803 0.014052570821 0.013985669081 0.01391909833 0.013852873173 0.013786983447 0.013721430427 
0.013656212669 0.013591329613 0.013526779517 0.013462561561 0.01339867501 0.013335118936 0.01327189107 0.013208992279 0.013146420727 
0.013084175264 0.013022254856 0.012960658303 0.01289938481 0.012838433109 0.012777803374 0.012717493818 0.012657502888 0.012597828327 
0.012538469117 0.012479426298 0.012420697645 0.014186178855 0.0141188442 0.014051845485 0.013985182461 0.01391884548 0.01385285018 
0.013787188067 0.013721856631 0.01365685513 0.013592184744 0.013527844193 0.013463831568 0.01340014615 0.01333678734 0.013273754189 
0.013211045015 0.013148659685 0.013086596139 0.013024854779 0.012963433817 0.012902332401 0.012841549441 0.012781083741 0.012720934653 
0.012661103073 0.012601583432 0.012542376458 0.012483482071 0.012424898853 0.012366625564 0.014117424033 0.014050672612 0.013984251887 
0.013918153334 0.013852392158 0.013786959703 0.013721854944 0.013657076265 0.013592622379 0.013528494503 0.013464691853 0.01340121212 
0.013338055266 0.013275219544 0.013212704895 0.013150509438 0.013088633574 0.013027074177 0.012965832208 0.012904906693 0.012844296456 
0.012783999798 0.012724016222 0.012664345182 0.012604985406 0.012545934237 0.012487192398 0.01242875816 0.012370631156 0.012312809725 
0.014049051547 0.013982877534 0.0139170218 0.01385149958 0.013786301122 0.013721425796 0.013656873937 0.013592643488 0.013528732068 
0.013465142266 0.013401872618 0.013338921364 0.013276287752 0.013213970932 0.01315196992 0.013090284319 0.013028913295 0.012967854006 
0.012907107861 0.012846673566 0.012786550139 0.012726735842 0.012667230504 0.012608032175 0.012549142515 0.01249055669 0.012432275717 
0.012374297834 0.012316622874 0.012259249757 0.013981059166 0.013915450727 0.013850170705 0.01378521111 0.013720570616 0.013656248579 
0.013592244536 0.01352855651 0.013465182921 0.013402127051 0.013339385961 0.013276958503 0.013214843765 0.013153041677 0.013091550122 
0.013030369935 0.012969499282 0.012908936655 0.012848682097 0.012788734683 0.01272909349 0.012669756576 0.012610724807 0.01255199855 
0.012493573409 0.012435449098 0.012377624541 0.012320099625 0.012262873396 0.012205944541 0.013913438729 0.013848407277 0.01378369059 
0.013719288754 0.013655200569 0.013591426404 0.013527964907 0.013464815437 0.01340197673 0.013339448405 0.013277231127 0.013215322743 
0.013153722645 0.013092429906 0.013031444446 0.012970765134 0.01291039086 0.012850320006 0.012790552938 0.012731087779 0.012671925375 
0.012613063765 0.01255450185 0.01249624139 0.012438276959 0.012380610114 0.012323240259 0.012266164477 0.012209383124 0.012152895733 
0.013846207379 0.01378173771 0.013717579721 0.013653729782 0.013590190245 0.013526958648 0.013464035541 0.013401419529 0.0133391097 
0.013277105346 0.013215407338 0.01315401388 0.013092924059 0.013032137212 0.012971652434 0.012911469581 0.01285158757 0.012792004631 
0.012732720114 0.012673734529 0.012615046706 0.012556655545 0.012498561738 0.012440761795 0.012383255239 0.012326042045 0.01226912139 
0.012212491053 0.012156151894 0.012100102396 0.013779354159 0.013715442167 0.013651835573 0.013588535031 0.013525538471 0.013462845987 
0.013400456361 0.013338367098 0.013276582429 0.013215097305 0.013153914359 0.013093031026 0.013032447049 0.012972161043 0.012912172751 
0.012852482124 0.012793087266 0.012733988187 0.012675184135 0.012616673743 0.012558456438 0.012500531785 0.012442901099 0.012385558601 
0.012328506174 0.012271743047 0.012215268332 0.012159080295 0.012103178212 0.01204756312 0.013712879096 0.013649519111 0.013586460184 
0.013523701835 0.013461244062 0.013399084559 0.013337224033 0.013275659975 0.013214394686 0.013153425159 0.013092751144 0.01303237288 
0.012972289498 0.012912501304 0.01285300496 0.01279380239 0.012734892683 0.012676272089 0.012617942807 0.012559903331 0.012502153495 
0.012444693372 0.012387519331 0.012330631254 0.012274028932 0.012217712098 0.012161679025 0.012105930162 0.012050462904 0.011995277699 
0.013646780162 0.013583967782 0.013521451568 0.013459231158 0.013397305926 0.013335674993 0.013274338325 0.01321329366 0.013152543251 
0.013092084373 0.013031915795 0.012972039567 0.012912453001 0.012853156618 0.012794149474 0.01273543121 0.012676999976 0.012618855137 
0.012560997366 0.012503425169 0.012446137195 0.012389134912 0.012332415363 0.01227597803 0.01221982221 0.012163948843 0.012108354568 
0.012053040011 0.011998003977 0.011943245629 0.013581056517 0.013518786397 0.013456807921 0.013395120361 0.013333723546 0.013272616063 
0.013211797321 0.013151269118 0.013091028485 0.013031075797 0.012971409035 0.012912027691 0.012852933851 0.012794126761 0.012735603791 
0.012677365559 0.012619409997 0.012561735826 0.012504345058 0.012447235632 0.012390408584 0.012333859323 0.012277590547 0.012221599628 
0.012165886534 0.01211045108 0.012055291956 0.012000408477 0.011945799682 0.01189146485 0.013515706432 0.013453973937 0.013392528094 
0.01333136836 0.013270494984 0.013209906887 0.013149602623 0.013089583752 0.013029849439 0.012970397526 0.01291122726 0.012852339307 
0.012793734705 0.012735411291 0.012677367389 0.012619604223 0.012562119203 0.012504913022 0.012447985271 0.012391334516 0.012334962411 
0.012278864607 0.012223042832 0.012167494891 0.012112220833 0.012057220022 0.012002492007 0.011948035877 0.01189385119 0.011839936335 
0.013450728718 0.013389528151 0.013328610412 0.013267974302 0.013207619556 0.013147545802 0.013087751377 0.013028237271 0.012969003291 
0.012910049269 0.012851372947 0.012792971527 0.012734850276 0.01267700689 0.012619439197 0.012562147581 0.01250512946 0.012448386336 
0.012391917301 0.012335724125 0.012279801427 0.012224149974 0.012168770387 0.0121136616 0.012058822947 0.012004254145 0.011949953709 
0.011895921152 0.011842155578 0.011788657302 0.013386121864 0.01332544923 0.013265053971 0.013204936241 0.013145095681 0.013085531165 
0.013026241611 0.012967229186 0.012908491637 0.012850028826 0.012791840139 0.012733923438 0.012676281743 0.012618913063 0.012561817039 
0.012504992116 0.012448437837 0.012392153471 0.012336139742 0.012280397395 0.012224921701 0.012169714036 0.012114773776 0.012060100137 
0.012005693109 0.011951552183 0.011897676036 0.011844063241 0.011790715277 0.011737629686 0.013321884572 0.013261734378 0.013201857084 
0.013142253048 0.013082921192 0.013023861205 0.012965073352 0.01290655675 0.012848311141 0.012790336012 0.012732630082 0.012675193509 
0.012618026986 0.012561129427 0.012504500557 0.012448138039 0.012392042917 0.012336213511 0.012280652951 0.01222535555 0.012170323078 
0.01211555497 0.012061050446 0.012006808685 0.011952829317 0.011899112617 0.011845655804 0.011792460302 0.011739525138 0.01168684994 
0.015482558979 0.015404567524 0.015327006924 0.015249877849 0.01517317465 0.015096898232 0.015021048144 0.01494560776 0.014870599293 
0.014796013995 0.014721847432 0.014648097733 0.014574763446 0.014501843208 0.01442933442 0.014357235679 0.014285547018 0.014214265815 
0.014143389693 0.014072916476 0.014002844605 0.013933168233 0.013863895736 0.013795019962 0.013726538162 0.013658451223 0.013590755198 
0.013523448795 0.013456529781 0.013389997296 0.015407130138 0.015329810705 0.015252916763 0.015176447139 0.015100398749 0.015024770993 
0.014949547734 0.01487475211 0.014800376609 0.014726414906 0.014652865502 0.014579726978 0.014506998318 0.014434676903 0.014362762568 
0.014291251329 0.014220145396 0.014149439121 0.01407913442 0.01400922682 0.013939710215 0.013870593961 0.0138018708 0.013733539156 
0.013665596829 0.013598042671 0.013530874849 0.013464091625 0.013397690804 0.013331671378 0.015332084647 0.015255433471 0.01517920089 
0.015103384465 0.015027983824 0.014952983795 0.014878409948 0.014804244534 0.014730493458 0.014657149909 0.01458421148 0.014511679281 
0.014439551235 0.014367825176 0.014296499652 0.014225571724 0.014155043671 0.014084910092 0.014015171672 0.013945820032 0.013876864934 
0.013808299252 0.013740121346 0.01367232957 0.013604923004 0.013537897435 0.013471254104 0.013404990142 0.013339103859 0.013273593863 
0.015257418133 0.01518142815 0.015105850821 0.015030683854 0.014955912178 0.014881563154 0.014807618206 0.014734080338 0.01466094755 
0.014588217091 0.014515886283 0.014443956488 0.014372425003 0.014301289235 0.014230548237 0.014160199689 0.01409024516 0.014020679143 
0.013951497373 0.013882708777 0.013814305057 0.0137462858 0.013678649063 0.013611393245 0.013544517413 0.013478017614 0.013411894943 
0.013346146327 0.013280770868 0.013215767387 0.015183132496 0.015107799808 0.015032871687 0.014958334636 0.014884215267 0.01481049522 
0.014737178909 0.01466426136 0.014591742313 0.014519620417 0.0144478923 0.014376558445 0.014305617479 0.014235067055 0.014164907057 
0.014095133202 0.014025747681 0.013956739985 0.01388812229 0.013819886179 0.013752030334 0.013684553033 0.013617453388 0.013550729512 
0.013484380526 0.013418403505 0.013352796588 0.013287559842 0.013222691238 0.013158189646 0.015109229568 0.01503454711 0.014960249528 
0.014886365685 0.01481287698 0.014739786296 0.014667090697 0.014594788342 0.014522878162 0.014451359738 0.014380229441 0.014309487688 
0.014239132952 0.014169163586 0.014099578374 0.014030374234 0.013961546579 0.013893106046 0.013825041781 0.013757354119 0.013690042165 
0.01362310302 0.013556536085 0.013490340104 0.013424514062 0.013359054941 0.013293960922 0.013229232258 0.013164867436 0.01310086342 
0.015035709916 0.014961658288 0.014888014856 0.01481476132 0.014741902834 0.01466943377 0.01459735387 0.014525661547 0.014454355968 
0.014383435837 0.014312898595 0.014242744546 0.014172971219 0.014103578274 0.014034563851 0.013965919952 0.013897657791 0.013829770554 
0.013762255626 0.013695112391 0.013628340104 0.013561936263 0.013495898588 0.013430226247 0.013364918962 0.013299973812 0.013235389862 
0.013171164515 0.013107298938 0.013043789693 0.0149625594 0.014889162146 0.014816150183 0.014743526952 0.014671290324 0.014599438723 
0.014527969253 0.014456881924 0.014386175756 0.01431584914 0.014245900236 0.014176328839 0.014107132729 0.014038311474 0.013969857043 
0.013901780461 0.013834074041 0.013766736785 0.013699767811 0.013633164656 0.013566926925 0.013501051902 0.013435539201 0.013370387603 
0.01330559523 0.013241160203 0.013177082056 0.013113357221 0.013049987575 0.012986969261 0.014889806788 0.014817044344 0.014744661165 
0.01467266148 0.014601040931 0.01452979998 0.014458936273 0.014388449609 0.014318337879 0.014248600156 0.014179234692 0.014110241228 
0.01404161757 0.013973356941 0.013905470822 0.013837950527 0.013770795709 0.013704004939 0.01363757683 0.013571509573 0.013505802145 
0.013440453708 0.01337546192 0.013310825564 0.01324654455 0.013182615561 0.013119038358 0.013055812268 0.012992933066 0.012930401849 
0.014817439732 0.014745303296 0.014673545343 0.014602163443 0.014531155211 0.014460520563 0.014390257294 0.014320365023 0.014250843127 
0.014181689067 0.014112903244 0.01404447581 0.013976420613 0.013908728801 0.013841399951 0.013774431821 0.013707824053 0.013641574873 
0.01357568319 0.013510147689 0.013444966972 0.013380140281 0.013315665277 0.013251541206 0.013187767541 0.013124340777 0.013061261147 
0.012998527717 0.0129361368 0.01287408956 0.014745454087 0.014673944018 0.014602804095 0.014532034779 0.014461633384 0.014391598995 
0.014321931669 0.014252629021 0.014183691875 0.014115117004 0.014046898023 0.013979046728 0.01391155445 0.013844420631 0.013777644611 
0.013711224147 0.01364515928 0.013579447209 0.013514087937 0.013449079549 0.013384421787 0.013320112738 0.013256150548 0.01319253442 
0.013129263747 0.013066336152 0.013003750403 0.012941505726 0.012879599544 0.012818032352 0.014673855579 0.014602963953 0.014532437202 
0.014462274574 0.014392474992 0.014323036476 0.014253959445 0.014185241956 0.014116884346 0.014048876425 0.013981233694 0.013913946552 
0.013847012923 0.013780432525 0.013714205064 0.013648327841 0.013582801109 0.013517622335 0.013452791274 0.013388306507 0.013324166803 
0.013260370843 0.013196917952 0.013133805856 0.013071034443 0.013008601503 0.012946506522 0.012884747051 0.012823322477 0.012762230394 
0.014602641797 0.01453236306 0.014462443732 0.014392883186 0.014323679907 0.014254832356 0.014186341375 0.014118204167 0.01405041394 
0.013982982526 0.013915903882 0.013849175638 0.013782796369 0.013716764558 0.013651080962 0.013585743031 0.013520750189 0.013456100321 
0.013391793325 0.013327827611 0.013264202154 0.013200915703 0.013137967512 0.013075356096 0.013013079476 0.012951137394 0.012889528588 
0.012828250863 0.012767303716 0.012706684571 0.014531811818 0.014462140972 0.014392824059 0.014323860237 0.014255247945 0.01418698761 
0.014119076564 0.014051506969 0.013984294129 0.013917428159 0.013850908926 0.013784735363 0.0137189053 0.013653418003 0.013588273297 
0.013523469516 0.013459006188 0.013394881226 0.013331094088 0.01326764338 0.013204528044 0.013141747545 0.013079299611 0.013017184443 
0.012955399771 0.012893944946 0.012832817897 0.012772018206 0.01271154445 0.012651395563 0.014461366564 0.014392297773 0.014323578175 
0.014255206074 0.014187180314 0.014119500587 0.014052157525 0.013985166113 0.013918517836 0.01385221259 0.013786248322 0.013720624742 
0.013655339619 0.013590392539 0.013525781823 0.013461507846 0.013397570033 0.013333965444 0.01327069343 0.013207753802 0.01314514469 
0.01308286498 0.013020914595 0.012959291499 0.012897994539 0.012837022861 0.012776374454 0.012716049044 0.012656044151 0.01259636083 
0.014391305705 0.014322833784 0.014254705596 0.014186919752 0.014119475462 0.014052363664 0.013985599343 0.013919173415 0.013853085705 
0.013787335558 0.013721921679 0.013656843375 0.013592098724 0.013527687015 0.013463607241 0.013399858725 0.01333644137 0.013273352782 
0.01321059218 0.013148158939 0.013086051645 0.013024269429 0.012962811883 0.01290167744 0.012840864856 0.012780371782 0.012720198292 
0.012660342457 0.01260080479 0.012541583347 0.014321627686 0.014253748127 0.014186206526 0.014119001579 0.014052125376 0.013985592602 
0.013919394518 0.01385352873 0.0137879966 0.01372279705 0.013657928836 0.013593391388 0.013529182503 0.013465301705 0.013401747338 
0.013338520622 0.013275619848 0.013213043119 0.01315078958 0.013088859218 0.013027249509 0.012965960785 0.012904991399 0.012844342687 
0.012784009568 0.012723991141 0.012664288596 0.012604900431 0.012545825306 0.01248706218 0.014252333581 0.014185040045 0.014118071538 
0.014051443111 0.013985146055 0.013919179468 0.01385354187 0.013788232194 0.013723250797 0.013658597168 0.013594269942 0.013530268318 
0.013466590559 0.01340323602 0.013340203935 0.013277494849 0.013215104992 0.013153035826 0.013091285541 0.013029853172 0.012968737747 
0.012907938742 0.012847454265 0.012787285683 0.012727427747 0.012667881763 0.012608647138 0.012549722161 0.012491105935 0.012432797461 
0.014183421604 0.014116701751 0.01405031733 0.013984259597 0.013918528573 0.013853123009 0.013788041451 0.013723282135 0.013658847562 
0.013594735179 0.013530944076 0.013467473999 0.013404323272 0.013341490121 0.013278975716 0.013216779164 0.013154897233 0.01309333144 
0.013032079827 0.01297114144 0.012910515794 0.012850201764 0.01279019727 0.012730506259 0.012671121217 0.012612042992 0.012553271475 
0.012494806096 0.01243664524 0.012378787861 0.014114882496 0.014048747437 0.013982934544 0.013917443518 0.013852272915 0.013787423411 
0.013722892381 0.013658680254 0.013594786256 0.013531210504 0.013467951174 0.013405008057 0.013342379406 0.013280063953 0.013218062533 
0.013156374146 0.013094996254 0.013033929083 0.012973172255 0.012912724063 0.01285258327 0.012792750603 0.012733225521 0.012674005302 
0.012615088691 0.012556474932 0.012498164144 0.012440153852 0.012382444587 0.012325034769 0.014046733533 0.013981169558 0.013915921979 
0.013850992106 0.013786378237 0.013722079301 0.013658094906 0.01359442425 0.013531066944 0.013468022672 0.013405290432 0.013342869514 
0.013280758714 0.013218956453 0.013157463589 0.013096278927 0.013035400775 0.01297482861 0.01291456231 0.012854599585 0.012794941103 
0.01273558579 0.012676534515 0.01261778243 0.012559330365 0.012501177055 0.012443321803 0.012385763994 0.012328502872 0.012271537047 
0.013978964269 0.013913966205 0.013849280311 0.013784906339 0.013720843594 0.013657091524 0.013593647475 0.013530512982 0.01346768781 
0.013405170998 0.013342961436 0.013281058412 0.013219459565 0.013158166679 0.01309717793 0.013036492846 0.012976110057 0.012916028069 
0.012856248083 0.012796768309 0.012737587629 0.012678706345 0.012620123341 0.012561835627 0.012503844391 0.012446148216 0.012388745814 
0.012331636644 0.01227481952 0.012218294477 0.013911572804 0.013847135276 0.013783006526 0.013719183613 0.013655667079 0.013592456432 
0.013529549645 0.013466948331 0.013404650536 0.013342654656 0.013280962788 0.01321957327 0.01315848367 0.013097695303 0.013037205987 
0.012977015222 0.012917123249 0.012857528737 0.012798230708 0.012739228861 0.012680522509 0.012622111546 0.012563993131 0.012506166629 
0.012448632456 0.01239138914 0.012334435281 0.012277771445 0.012221395533 0.012165306761 0.013844560819 0.013780678741 0.013717099856 
0.013653823707 0.013590848923 0.013528174666 0.013465799926 0.013403725912 0.013341950622 0.01328047374 0.013219294976 0.013158414392 
0.013097828947 0.013037540501 0.012977545598 0.012917846503 0.012858441104 0.012799329271 0.012740509554 0.012681981658 0.012623745684 
0.012565799138 0.012508142136 0.012450773086 0.012393692575 0.012336898029 0.012280390517 0.012224167344 0.012168228278 0.012112573072 
0.013777925822 0.013714594652 0.0136515612 0.013588825516 0.013526387409 0.013464244973 0.013402397821 0.013340846328 0.01327958908 
0.013218625541 0.013157955578 0.013097578333 0.013037492601 0.012977699859 0.012918198603 0.012858986436 0.012800063019 0.012741429366 
0.012683084033 0.012625024964 0.012567255968 0.012509771089 0.01245257078 0.012395654974 0.012339023669 0.012282674566 0.012226608197 
0.012170822569 0.012115317456 0.012060092448 0.013711666597 0.013648881081 0.013586388745 0.013524189126 0.013462281933 0.013400666112 
0.013339341969 0.013278308293 0.013217564408 0.013157109217 0.013096943665 0.013037066406 0.012977477184 0.012918175184 0.012859160859 
0.012800431329 0.012741986363 0.01268382752 0.012625952269 0.012568360608 0.012511051697 0.012454024672 0.012397277812 0.012340811801 
0.012284625917 0.01222871844 0.012173089742 0.012117738069 0.012062663082 0.012007864391 0.013645781646 0.013583536719 0.013521580362 
0.013459912059 0.013398531485 0.013337436837 0.013276630997 0.013216110504 0.013155875637 0.013095924882 0.013036258481 0.012976877704 
0.012917779534 0.0128589645 0.012800433503 0.012742182 0.012684211606 0.012626522449 0.012569113252 0.012511984964 0.012455132653 
0.012398559201 0.012342262115 0.012286241423 0.012230497397 0.012175027979 0.012119833357 0.012064912473 0.012010264367 0.011955887348 
0.01358026943 0.013518560436 0.013457135054 0.013395992829 0.013335133881 0.01327455723 0.013214263527 0.013154251765 0.013094521039 
0.013035070667 0.012975899018 0.012917010348 0.012858399145 0.012800066894 0.012742013824 0.012684236598 0.012626736369 0.012569513426 
0.012512567347 0.012455895716 0.012399497517 0.012343374185 0.012287523585 0.012231944818 0.012176639021 0.01212160357 0.012066839258 
0.01201234428 0.011958119283 0.011904162695 0.013515128817 0.013453949959 0.013393051229 0.013332430823 0.013272088973 0.013212024516 
0.013152238962 0.013092730992 0.013033499772 0.012974544459 0.012915864966 0.012857462109 0.012799333712 0.012741480944 0.012683901375 
0.012626594667 0.012569560409 0.012512799138 0.012456311821 0.012400093095 0.012344144822 0.012288467473 0.012233058974 0.012177918925 
0.012123047685 0.012068442968 0.012014104621 0.011960033361 0.011906227878 0.011852686589 0.013450358616 0.013389705675 0.013329327479 
0.013269223017 0.013209393596 0.013149838188 0.013090556597 0.013031547768 0.012972811571 0.01291434597 0.01285615375 0.012798232926 
0.012740583404 0.012683204212 0.012626094702 0.012569253637 0.012512681532 0.012456379586 0.01240034459 0.012344576299 0.012289074779 
0.01223383901 0.012178868597 0.012124163185 0.012069722659 0.012015544358 0.011961630102 0.011907979195 0.011854588833 0.011801459869 
0.015625898129 0.015547312575 0.015469161146 0.015391440556 0.015314151473 0.015237291203 0.015160856819 0.015084834755 0.015009248507 
0.014934086042 0.014859345213 0.014785023082 0.01471111932 0.014637631778 0.014564556506 0.014491895655 0.014419645547 0.014347804211 
0.014276370566 0.014205342641 0.014134713524 0.014064492215 0.013994671562 0.013925248951 0.013856225111 0.013787595981 0.013719360436 
0.01365151618 0.013584062554 0.013516997324 0.015549927474 0.015472018213 0.015394536691 0.015317479583 0.015240847767 0.015164637234 
0.01508883342 0.015013462335 0.014938510702 0.014863974376 0.014789854933 0.014716147514 0.01464285274 0.014569967567 0.014497489431 
0.014425419131 0.014353754091 0.014282493188 0.014211633991 0.014141169518 0.014071109186 0.014001445804 0.013932177685 0.013863303135 
0.013794820199 0.013726727675 0.013659023627 0.013591705818 0.01352477331 0.013458224736 0.015474337994 0.015397100382 0.01532028249 
0.015243883504 0.015167901846 0.015092323706 0.015017171544 0.014942435415 0.014868111372 0.014794196609 0.014720693099 0.014647595521 
0.014574905051 0.014502618384 0.014430732937 0.014359249902 0.014288165811 0.014217480618 0.014147185291 0.014077290909 0.014007789715 
0.013938680089 0.013869960394 0.013801628984 0.013733683949 0.01366612416 0.013598947644 0.013532152408 0.01346573734 0.013399701237 
0.015399129767 0.015322556265 0.015246397559 0.01517065183 0.015095303567 0.01502037665 0.014945861342 0.014871753886 0.014798052268 
0.01472475412 0.014651860366 0.014579367878 0.014507275785 0.014435583187 0.014364286048 0.014293386594 0.014222878797 0.014152758511 
0.014083035103 0.014013700659 0.013944754386 0.013876194361 0.013808018994 0.01374022674 0.013672816605 0.013605784627 0.013539131556 
0.013472855328 0.013406953972 0.013341426595 0.015324303214 0.015248389193 0.015172884439 0.015097772418 0.015023077092 0.014948788297 
0.014874901852 0.01480141817 0.014728334074 0.014655647973 0.014583359631 0.014511467237 0.014439969324 0.014368864979 0.014298151139 
0.014227828764 0.014157887212 0.014088341121 0.014019179425 0.013950401059 0.013882005489 0.013813990592 0.013746355462 0.013679098226 
0.013612218053 0.013545710942 0.013479577794 0.013413816453 0.013348425677 0.013283402745 0.015249860302 0.015174601403 0.01509972929 
0.015025273216 0.014951214783 0.01487755619 0.014804294485 0.014731428769 0.01465895727 0.01458687781 0.014515190743 0.014443893845 
0.014372985736 0.014302465478 0.014232329849 0.01416257496 0.01409320764 0.014024221965 0.013955617419 0.013887391087 0.013819543129 
0.013752069912 0.013684970928 0.013618244748 0.013551890247 0.013485904065 0.013420287066 0.01335503679 0.013290152174 0.013225630575 