# vtk DataFile Version 5.1
vtk output
ASCII
DATASET STRUCTURED_POINTS
DIMENSIONS 30 30 30
SPACING 0.01 0.01 0.01
ORIGIN 1.555 -0.145 0.855
POINT_DATA 27000
FIELD FieldData 1
potential 1 27000 double
0.0029883551224 0.0029957586125 0.0030031873946 0.0030106414193 0.0030181208599 0.0030256251899 0.0030331552163 0.0030407103636 0.0030482909911 
0.0030558971191 0.0030635286875 0.0030711859163 0.0030788689256 0.0030865774405 0.0030943117738 0.0031020717832 0.0031098575423 0.0031176691791 
0.0031255070498 0.003133370896 0.0031412609023 0.0031491770667 0.0031571190984 0.0031650872101 0.0031730817191 0.0031811024875 0.0031891497632 
0.0031972233633 0.0032053234477 0.0032134498304 0.0029849974056 0.0029923839179 0.0029997956677 0.0030072329119 0.0030146949818 0.003022182554 
0.0030296950543 0.0030372328466 0.0030447962144 0.0030523849991 0.0030599990255 0.0030676388098 0.0030753042512 0.0030829954391 0.0030907120019 
0.0030984543386 0.0031062225498 0.0031140165445 0.0031218366321 0.0031296827449 0.0031375547457 0.0031454533367 0.003153377403 0.0031613277711 
0.0031693044175 0.0031773073391 0.0031853365633 0.003193392186 0.0032014742609 0.0032095826558 0.0029816483834 0.0029890180706 0.0029964127833 
0.0030038328792 0.0030112783546 0.0030187485427 0.0030262439725 0.0030337645995 0.0030413104272 0.0030488818939 0.0030564786766 0.0030641009547 
0.003071749029 0.0030794227708 0.0030871219559 0.0030948465812 0.0031025971926 0.0031103736837 0.0031181760444 0.0031260045514 0.0031338591129 
0.0031417394443 0.0031496459048 0.0031575785109 0.003165537262 0.0031735221461 0.0031815335946 0.0031895713463 0.0031976353783 0.0032057260402 
0.0029783082301 0.0029856609606 0.0029930390063 0.0030004423886 0.0030078704003 0.0030153236428 0.0030228020179 0.0030303053841 0.0030378342094 
0.0030453882051 0.0030529677699 0.0030605727687 0.0030682034567 0.0030758595538 0.0030835413117 0.0030912487496 0.0030989817755 0.0031067408931 
0.0031145255595 0.0031223366035 0.0031301731781 0.0031380357259 0.0031459244282 0.0031538394863 0.0031617805327 0.0031697475695 0.0031777411259 
0.003185761034 0.0031938071915 0.0032018799869 0.0029749770848 0.0029823131683 0.0029896743231 0.0029970605258 0.0030044716164 0.0030119077833 
0.0030193691516 0.0030268554349 0.0030343671241 0.0030419040715 0.0030494663656 0.003057054056 0.0030646672932 0.0030723061966 0.003079970503 
0.0030876605195 0.0030953762908 0.0031031178179 0.0031108849652 0.0031186784777 0.0031264975146 0.0031343424606 0.0031422135104 0.0031501107017 
0.0031580341701 0.003165983478 0.0031739593491 0.003181961434 0.0031899897731 0.0031980447322 0.0029716549885 0.0029789743299 0.0029863190111 
0.0029936882133 0.0030010823835 0.0030085015298 0.0030159457216 0.0030234150797 0.0030309097504 0.0030384296207 0.0030459748798 0.0030535455107 
0.0030611413429 0.0030687626981 0.0030764098462 0.0030840825107 0.0030917808705 0.003099505145 0.0031072550064 0.0031150307524 0.0031228321165 
0.003130659577 0.003138513114 0.0031463926519 0.0031542982955 0.0031622301864 0.0031701883583 0.0031781726504 0.0031861832928 0.0031942204822 
0.0029683421868 0.0029756451107 0.0029829729166 0.0029903252382 0.0029977024722 0.0030051048005 0.0030125321433 0.0030199844632 0.0030274621292 
0.0030349649084 0.0030424930287 0.0030500466618 0.0030576254021 0.0030652295507 0.0030728592102 0.0030805147364 0.0030881957618 0.003095902589 
0.0031036352646 0.0031113933496 0.0031191774711 0.0031269873641 0.0031348233322 0.0031426853032 0.003150573378 0.0031584872841 0.0031664280089 
0.0031743949329 0.0031823879009 0.0031904073498 0.0029650386935 0.0029723253442 0.0029796361605 0.0029869718164 0.0029943323534 0.0030017178337 
0.0030091281603 0.0030165637789 0.0030240244526 0.0030315103234 0.0030390214059 0.0030465578512 0.0030541194458 0.0030617067144 0.0030693191953 
0.003076957232 0.0030846209875 0.0030923108261 0.003100026012 0.0031077667235 0.003115533399 0.0031233259485 0.0031311443223 0.003138988801 
0.0031468593491 0.0031547558584 0.003162678632 0.0031706281888 0.0031786035055 0.0031866053348 0.0029617450455 0.0029690148273 0.0029763091219 
0.002983628184 0.0029909719599 0.0029983407169 0.0030057342873 0.0030131530059 0.003020596737 0.0030280656875 0.0030355597805 0.0030430791259 
0.003050623838 0.0030581938663 0.0030657894386 0.0030734102282 0.0030810566992 0.003088729395 0.0030964270506 0.0031041506801 0.0031119000473 
0.0031196752338 0.0031274761822 0.0031353032372 0.0031431561974 0.0031510353366 0.0031589405924 0.0031668723673 0.0031748303943 0.0031828146182 
0.002958460788 0.002965714067 0.0029729918252 0.0029802942906 0.0029876214597 0.0029949734876 0.0030023503652 0.0030097523038 0.0030171792018 
0.0030246312842 0.0030321084502 0.003039610768 0.0030471385701 0.0030546916217 0.0030622701189 0.0030698739061 0.003077503613 0.0030851587428 
0.0030928390632 0.0031005451431 0.0031082774417 0.0031160353534 0.0031238191504 0.003131628498 0.0031394643221 0.0031473259048 0.0031552137693 
0.0031631278665 0.003171068332 0.0031790353776 0.0029551864359 0.0029624230799 0.0029696843823 0.0029769703032 0.0029842809658 0.0029916163857 
0.0029989765284 0.0030063616963 0.0030137718564 0.0030212071016 0.0030286673501 0.0030361528664 0.0030436636052 0.0030511997552 0.0030587612889 
0.00306634811 0.0030739609219 0.0030815984905 0.0030892619788 0.0030969510086 0.0031046658171 0.0031124064779 0.003120172842 0.0031279652215 
0.0031357833644 0.0031436277536 0.0031514981517 0.0031593948275 0.0031673178415 0.0031752672241 0.0029519216489 0.002959141938 0.0029663867927 
0.002973656219 0.0029809504211 0.0029882692316 0.0029956127873 0.0030029812767 0.0030103747573 0.0030177932566 0.003025236747 0.0030327053975 
0.0030401991489 0.0030477183421 0.0030552628022 0.0030628331376 0.003070428686 0.0030780494961 0.0030856956683 0.003093367545 0.0031010652648 
0.0031087886624 0.0031165377853 0.0031243130393 0.0031321139444 0.0031399408729 0.0031477938112 0.0031556731554 0.0031635785772 0.0031715106782 
0.0029486666555 0.0029558706558 0.0029630991482 0.0029703522049 0.0029776299103 0.0029849322736 0.0029922592643 0.0029996111339 0.0030069878485 
0.0030143894784 0.0030218164421 0.0030292683207 0.0030367453971 0.0030442476644 0.0030517752866 0.0030593287396 0.0030669072806 0.003074511034 
0.0030821403594 0.0030897950514 0.0030974755361 0.0031051817801 0.0031129139397 0.0031206719963 0.0031284555345 0.0031362653554 0.0031441009668 
0.0031519629986 0.0031598510958 0.0031677658454 0.0029454215539 0.0029526093062 0.0029598214002 0.0029670581557 0.0029743194177 0.0029816053981 
0.0029889158458 0.0029962512018 0.0030036114419 0.003010996406 0.0030184066697 0.0030258418563 0.0030333021961 0.0030407876787 0.0030482987638 
0.0030558349766 0.003063396434 0.0030709832512 0.0030785957813 0.0030862336759 0.0030938969101 0.003101586107 0.0031093011507 0.0031170421371 
0.003124808645 0.0031326012819 0.0031404195384 0.003148264344 0.0031561351742 0.0031640326248 0.0029421862551 0.0029493578119 0.0029565537591 
0.0029637742218 0.0029710191378 0.0029782887319 0.002985582706 0.0029929016578 0.0030002453449 0.0030076137407 0.0030150074046 0.0030224259533 
0.0030298695349 0.0030373383103 0.0030448325689 0.0030523519712 0.0030598965841 0.0030674665933 0.0030750621595 0.0030826829938 0.0030903293975 
0.0030980016037 0.0031056997381 0.0031134235309 0.0031211729162 0.0031289484156 0.0031367497736 0.0031445772164 0.0031524307154 0.0031603106966 
0.0029389609811 0.0029461164 0.0029532962173 0.0029605003643 0.0029677290152 0.00297498229 0.0029822599515 0.0029895624041 0.0029968894966 
0.0030042415757 0.0030116186218 0.0030190205783 0.0030264475507 0.0030338999665 0.0030413771661 0.0030488795521 0.0030564076556 0.0030639608135 
0.0030715391973 0.0030791434971 0.0030867730626 0.0030944281857 0.0031021092865 0.0031098160039 0.0031175484457 0.0031253068494 0.0031330910997 
0.0031409015422 0.0031487379632 0.0031566007626 0.00293574527 0.0029428846668 0.0029500485542 0.0029572365212 0.0029644490241 0.0029716859761 
0.0029789473318 0.0029862334093 0.0029935440601 0.0030008797597 0.0030082402828 0.0030156256925 0.003023036145 0.0030304719445 0.0030379324849 
0.0030454181207 0.00305292952 0.0030604657561 0.0030680274867 0.0030756149415 0.0030832276051 0.003090865917 0.0030985300083 0.0031062197745 
0.0031139351199 0.0031216766875 0.0031294438897 0.003137237246 0.0031450567162 0.0031529021155 0.0029325397064 0.0029396631528 0.0029468107222 
0.0029539828194 0.0029611791803 0.0029683998632 0.0029756449651 0.0029829146254 0.0029902090607 0.002997528401 0.0030048724539 0.0030122413499 
0.0030196356076 0.0030270544486 0.0030344982478 0.0030419673645 0.0030494618766 0.0030569816045 0.003064526585 0.0030720971096 0.0030796932292 
0.0030873147835 0.0030949620065 0.0031026347047 0.003110333143 0.0031180576049 0.0031258078983 0.0031335842219 0.0031413863954 0.0031492148611 
0.0029293441756 0.0029364515503 0.0029435830699 0.0029507389192 0.0029579191076 0.0029651238898 0.0029723528143 0.0029796062212 0.0029868843436 
0.0029941873602 0.0030015150067 0.0030088675076 0.0030162452225 0.0030236476088 0.0030310748572 0.0030385272319 0.0030460051294 0.0030535082817 
0.0030610366081 0.0030685904475 0.0030761697412 0.0030837745067 0.0030914048335 0.0030990607741 0.0031067423104 0.003114449785 0.0031221829019 
0.0031299422885 0.0031377277084 0.0031455390958 0.0029261583048 0.0029332497736 0.0029403654053 0.0029475051824 0.0029546693608 0.0029618577755 
0.0029690707606 0.0029763079926 0.002983569983 0.0029908565947 0.0029981679107 0.003005504037 0.0030128653639 0.0030202511251 0.0030276618248 
0.0030350979301 0.0030425591862 0.00305004574 0.0030575574887 0.0030650945818 0.0030726570205 0.0030802451693 0.0030878587291 0.0030954978562 
0.0031031625526 0.0031108528404 0.003118569318 0.0031263117352 0.0031340802579 0.0031418747386 0.0029229821346 0.00293005785 0.0029371573967 
0.0029442814074 0.0029514294697 0.0029586019274 0.0029657984294 0.0029730196831 0.002980265682 0.0029875360881 0.0029948311494 0.0030021512883 
0.0030094959044 0.0030168651026 0.0030242595265 0.0030316790422 0.0030391237841 0.0030465937381 0.0030540889883 0.0030616094472 0.0030691553735 
0.0030767266345 0.0030843235394 0.0030919456647 0.0030995935699 0.0031072673524 0.0031149669154 0.0031226923595 0.0031304439568 0.0031382214863 
0.0029198157157 0.0029268755718 0.0029339593204 0.0029410673669 0.0029481995585 0.0029553559894 0.0029625364286 0.0029697416386 0.0029769712861 
0.0029842257471 0.0029915045362 0.0029988083939 0.0030061365502 0.0030134895705 0.0030208676332 0.0030282706623 0.0030356989316 0.0030431522788 
0.0030506310132 0.0030581349855 0.0030656642834 0.0030732186922 0.0030807988993 0.0030884045648 0.0030960356662 0.0031036927224 0.0031113755126 
0.0031190841555 0.0031268187737 0.0031345793398 0.0029166588014 0.0029237028099 0.0029307709717 0.0029378630845 0.0029449794203 0.0029521198922 
0.0029592843506 0.0029664734731 0.0029736870168 0.00298092514 0.002988188131 0.0029954755075 0.0030027874336 0.0030101242671 0.0030174859747 
0.0030248726268 0.0030322844682 0.0030397213193 0.00304718353 0.0030546709986 0.0030621834696 0.0030697215692 0.0030772850141 0.0030848740544 
0.0030924886538 0.0031001287951 0.0031077948928 0.0031154868124 0.0031232045764 0.0031309483199 0.0029135113745 0.0029205396768 0.0029275919746 
0.0029346684017 0.0029417688046 0.002948893257 0.0029560420149 0.0029632151397 0.0029704126578 0.0029776346938 0.0029848813839 0.0029921524701 
0.0029994483764 0.0030067690399 0.0030141144658 0.0030214848023 0.0030288802391 0.0030363006538 0.0030437460594 0.0030512171067 0.0030587133321 
0.0030662348518 0.0030737817171 0.0030813541778 0.0030889522604 0.0030965757635 0.0031042251566 0.0031119003584 0.0031196013673 0.0031273283282 
0.0029103732362 0.0029173859547 0.0029244225718 0.0029314833292 0.0029385678774 0.0029456764105 0.0029528092889 0.002959966471 0.0029671480006 
0.0029743538356 0.0029815846392 0.0029888395566 0.0029961192011 0.0030034235775 0.0030107529762 0.0030181071169 0.0030254859881 0.0030328900268 
0.0030403192724 0.0030477738592 0.0030552536727 0.0030627586788 0.0030702889922 0.0030778447479 0.0030854262681 0.0030930331559 0.003100666102 
0.0031083246395 0.003116008896 0.0031237190668 0.0029072443848 0.0029142415413 0.0029212624609 0.0029283074116 0.0029353764152 0.0029424690948 
0.0029495861294 0.0029567272479 0.0029638928391 0.0029710828531 0.0029782976264 0.0029855365109 0.0029928000017 0.0030000882172 0.0030074010106 
0.0030147388144 0.0030221018685 0.0030294896621 0.0030369024675 0.0030443407931 0.0030518041452 0.0030592927004 0.0030668064798 0.0030743457912 
0.0030819106165 0.0030895010609 0.0030971172863 0.0031047591799 0.0031124267627 0.0031201204712 0.0029041245753 0.0029111061113 0.0029181116175 
0.0029251408619 0.0029321938231 0.0029392710329 0.0029463721244 0.0029534976429 0.0029606473391 0.0029678217481 0.0029750202041 0.0029822427748 
0.0029894902455 0.002996762321 0.0030040591607 0.0030113807994 0.0030187273981 0.0030260989186 0.0030334955406 0.0030409174911 0.003048364687 
0.0030558367366 0.0030633341256 0.0030708569589 0.0030784052894 0.0030859790591 0.0030935788485 0.0031012041458 0.0031088551124 0.0031165321756 
0.002901013902 0.0029079798409 0.0029149697924 0.0029219834344 0.0029290207361 0.0029360820626 0.0029431676144 0.0029502772253 0.0029574110528 
0.0029645693535 0.0029717518022 0.002978958716 0.0029861901606 0.0029934462365 0.003000726938 0.003008032459 0.0030153628688 0.0030227181229 
0.003030098438 0.0030375038729 0.003044934807 0.0030523905706 0.0030598716557 0.0030673780698 0.0030749099515 0.0030824672501 0.0030900505002 
0.003097659413 0.0031052938028 0.0031129540535 0.002897911844 0.0029048624264 0.0029118367988 0.0029188348992 0.0029258564217 0.0029329022132 
0.0029399719345 0.002947065668 0.0029541836379 0.0029613262932 0.0029684927884 0.0029756837654 0.0029828992583 0.0029901393819 0.0029974040202 
0.0030046934528 0.0030120076555 0.0030193467867 0.003026710879 0.0030341000472 0.0030415145005 0.0030489540024 0.0030564188331 0.0030639088607 
0.0030714245707 0.0030789655053 0.0030865320338 0.0030941243798 0.0031017421868 0.0031093859028 0.0028948181538 0.0029017533197 0.0029087121807 
0.0029156944371 0.0029227005381 0.0029297306554 0.0029367847741 0.0029438629408 0.0029509657268 0.0029580923118 0.00296524295 0.0029724180284 
0.0029796175851 0.0029868416628 0.0029940903516 0.0030013636522 0.0030086617742 0.0030159848347 0.0030233327211 0.0030307057302 0.0030381037196 
0.0030455269514 0.003052975578 0.0030604490302 0.0030679482566 0.0030754728146 0.0030830229983 0.003090598788 0.0030982002759 0.0031058273899 
0.003021334487 0.0030288157801 0.0030363224142 0.0030438548309 0.0030514125734 0.003058996052 0.0030666047978 0.0030742396487 0.0030818998784 
0.0030895855521 0.0030972972189 0.0031050350058 0.0031127986387 0.0031205881671 0.0031284036067 0.0031362452864 0.0031441129887 0.0031520065144 
0.0031599266698 0.0031678731474 0.0031758458345 0.0031838451018 0.0031918708304 0.0031999226759 0.0032080012133 0.0032161064209 0.0032242381184 
0.0032323965495 0.0032405816561 0.0032487935953 0.0030179409438 0.0030254050749 0.003032894729 0.0030404097056 0.0030479506101 0.0030555165968 
0.0030631083881 0.0030707254521 0.0030783678969 0.0030860363765 0.0030937304796 0.0031014505339 0.0031091964757 0.0031169684697 0.0031247663934 
0.0031325899922 0.003140439966 0.0031483157872 0.003156217954 0.0031641464657 0.0031721013729 0.0031800824541 0.0031880904337 0.0031961242938 
0.0032041847764 0.003212271877 0.0032203854767 0.0032285257408 0.0032366927366 0.0032448865188 0.0030145559023 0.0030220029745 0.0030294756603 
0.0030369734544 0.0030444969249 0.0030520460064 0.0030596202246 0.0030672200468 0.0030748452972 0.0030824961037 0.0030901728343 0.0030978752993 
0.0031056035867 0.0031133579142 0.0031211382518 0.003128944366 0.0031367763218 0.0031446345475 0.0031525190404 0.003160429531 0.0031683665438 
0.0031763300287 0.0031843194712 0.0031923356973 0.0032003782215 0.0032084472636 0.0032165428772 0.0032246649703 0.0032328139899 0.0032409898981 
0.0030111793097 0.003018609626 0.0030260651269 0.0030335459889 0.0030410521687 0.0030485839408 0.0030561410134 0.0030637235102 0.0030713313996 
0.0030789649456 0.0030866241323 0.0030943092043 0.0031020199167 0.0031097567529 0.003117519374 0.0031253078565 0.0031331224314 0.0031409627862 
0.0031488295721 0.0031567223826 0.0031646418614 0.0031725872602 0.0031805588435 0.0031885569366 0.0031965817434 0.0032046328434 0.003212710228 
0.0032208145929 0.0032289456136 0.0032371033531 0.0030078116022 0.0030152249843 0.0030226634236 0.0030301273687 0.0030376166552 0.0030451310396 
0.0030526708704 0.0030602361818 0.0030678267273 0.0030754431785 0.0030830850592 0.0030907527275 0.0030984459292 0.0031061652614 0.0031139102745 
0.0031216811744 0.0031294780754 0.003137301118 0.0031451502698 0.0031530253191 0.0031609269748 0.0031688543893 0.0031768083465 0.0031847886431 
0.0031927953494 0.0032008288088 0.0032088881927 0.0032169746645 0.0032250878319 0.0032332274747 0.0030044528936 0.0030118493511 0.0030192709477 
0.0030267180872 0.0030341899994 0.0030416873514 0.0030492100289 0.0030567581112 0.0030643315694 0.0030719307405 0.0030795554254 0.0030872056544 
0.0030948816532 0.0031025832536 0.0031103107795 0.0031180643563 0.003125843709 0.0031336491201 0.0031414807704 0.003149338471 0.003157222206 
0.0031651319694 0.0031730681491 0.0031810306705 0.0031890195305 0.0031970347832 0.0032050767605 0.0032131452325 0.0032212404211 0.0032293621814 
0.0030011030889 0.0030084827634 0.0030158875518 0.0030233177421 0.0030307727044 0.0030382530232 0.0030457585722 0.0030532895634 0.0030608458689 
0.003068427766 0.0030760353617 0.0030836684043 0.0030913269771 0.0030990115064 0.0031067215304 0.0031144573689 0.003122219377 0.003130007278 
0.0031378213277 0.0031456616255 0.0031535276771 0.0031614198961 0.0031693382815 0.003177283098 0.0031852541597 0.0031932514866 0.0032012756106 
0.0032093265129 0.0032174039723 0.0032255078762 0.0029977624036 0.0030051253449 0.0030125136765 0.003019926714 0.0030273647865 0.0030348281343 
0.0030423167543 0.0030498306385 0.0030573697848 0.0030649345515 0.0030725248184 0.0030801408447 0.0030877823555 0.003095449207 0.0031031422231 
0.0031108607508 0.0031186051847 0.0031263756561 0.0031341725072 0.0031419949819 0.0031498435004 0.0031577182365 0.0031656187923 0.0031735459677 
0.003181499359 0.0031894791002 0.0031974854972 0.0032055185965 0.0032135785709 0.003221664685 0.0029944310409 0.0030017775275 0.0030091489312 
0.0030165451269 0.0030239664592 0.0030314128251 0.0030388845325 0.0030463813527 0.0030539036404 0.0030614513225 0.0030690244581 0.0030766231441 
0.0030842473608 0.0030918972505 0.0030995728553 0.0031072741889 0.0031150012009 0.0031227543798 0.0031305337316 0.0031383387076 0.0031461696447 
0.0031540268717 0.0031619102394 0.0031698194935 0.0031777555349 0.0031857176458 0.0031937065047 0.0032017216412 0.0032097636443 0.0032178322745 
0.0029911090767 0.0029984390939 0.0030057936115 0.0030131731562 0.0030205776682 0.0030280072378 0.0030354620371 0.0030429419063 0.0030504472413 
0.0030579779139 0.0030655339969 0.0030731155461 0.0030807226596 0.0030883553729 0.0030960137333 0.0031036978514 0.0031114075197 0.0031191436577 
0.0031269053335 0.0031346929782 0.0031425063591 0.0031503461535 0.0031582120481 0.0031661042149 0.0031740223838 0.0031819669166 0.0031899381698 
0.0031979356667 0.0032059597807 0.0032140106947 0.0029877968016 0.0029951099721 0.0030024478855 0.0030098106924 0.0030171984911 0.0030246114006 
0.0030320493199 0.0030395123462 0.0030470007652 0.0030545144883 0.0030620535837 0.0030696178972 0.0030772081244 0.0030848236132 0.0030924647961 
0.0031001318022 0.0031078243404 0.0031155431618 0.0031232875176 0.0031310578281 0.0031388541167 0.003146676381 0.0031545247192 0.0031623993285 
0.0031703001919 0.0031782272286 0.0031861806661 0.0031941606198 0.0032021671566 0.0032102004501 0.0029844937304 0.002991790391 0.0029991117555 
0.0030064579921 0.0030138291438 0.0030212253182 0.0030286464785 0.0030360926848 0.0030435641497 0.0030510609883 0.0030585831584 0.0030661306134 
0.0030737036077 0.0030813022424 0.0030889263297 0.0030965762251 0.0031042519976 0.0031119533031 0.0031196803964 0.0031274334233 0.0031352121539 
0.0031430171456 0.0031508482543 0.0031587054677 0.0031665887472 0.0031744984144 0.0031824343973 0.0031903967246 0.0031983858279 0.0032064014113 
0.002981200266 0.0029884804768 0.0029957852403 0.0030031149224 0.0030104695396 0.0030178489962 0.0030252534655 0.0030326829442 0.0030401377035 
0.0030476177052 0.0030551230061 0.003062653543 0.0030702095587 0.0030777911925 0.0030853982743 0.0030930308751 0.0031006896857 0.0031083738222 
0.0031160838104 0.0031238194019 0.0031315810267 0.0031393687187 0.0031471824443 0.0031550224454 0.0031628886216 0.0031707807592 0.0031786991402 
0.0031866440687 0.003194615656 0.0032026135038 0.0029779164564 0.0029851801014 0.0029924685159 0.0029997817017 0.0030071197748 0.0030144826941 
0.0030218705369 0.0030292832793 0.0030367212975 0.003044184539 0.003051672829 0.0030591866843 0.0030667258224 0.0030742904004 0.0030818806254 
0.0030894965976 0.0030971379693 0.0031048049675 0.0031124977537 0.0031202164091 0.0031279608162 0.0031357312131 0.0031435276632 0.0031513503607 
0.0031591992271 0.0031670739965 0.0031749752574 0.0031829026157 0.0031908566684 0.003198837094 0.0029746421345 0.0029818895123 0.0029891615427 
0.0029964583443 0.0030037798594 0.0030111262223 0.0030184975976 0.00302589368 0.0030333150379 0.003040761529 0.0030482330439 0.0030557300942 
0.0030632524432 0.0030708001116 0.0030783733911 0.0030859724048 0.0030935966567 0.0031012467375 0.0031089223075 0.0031166240158 0.0031243513246 
0.0031321045127 0.0031398837617 0.0031476891317 0.0031555208088 0.003163378303 0.0031712622685 0.003179172417 0.003187109167 0.0031950721534 
0.0029713773586 0.0029786084161 0.0029858643748 0.0029931447483 0.0030004498422 0.0030077797788 0.0030151345964 0.0030225141576 0.0030299188515 
0.0030373485074 0.0030448034802 0.0030522838302 0.0030597893395 0.0030673201765 0.0030748767957 0.0030824586752 0.0030900659838 0.0030976989592 
0.0031053576636 0.0031130421563 0.0031207525679 0.0031284887063 0.0031362507364 0.0031440390299 0.0031518533104 0.0031596937443 0.00316756043 
0.0031754532663 0.0031833727262 0.0031913182542 0.002968122383 0.0029753372189 0.0029825767037 0.0029898409793 0.0029971297138 0.003004443231 
0.0030117815635 0.0030191446283 0.0030265327354 0.0030339457913 0.0030413841339 0.0030488477348 0.0030563365453 0.0030638506348 0.003071390414 
0.0030789553416 0.0030865456016 0.0030941619061 0.0031018036508 0.0031094711457 0.0031171645724 0.0031248836149 0.0031326287154 0.0031403997883 
0.0031481969113 0.0031560199902 0.0031638695653 0.0031717451519 0.0031796470917 0.0031875754619 0.0029648769919 0.0029720757233 0.0029792988978 
0.0029865466728 0.0029938192709 0.0030011164689 0.0030084383886 0.0030157849981 0.0030231564866 0.0030305531361 0.0030379749763 0.0030454219425 
0.0030528940096 0.003060391754 0.0030679144412 0.0030754623974 0.0030830359801 0.0030906354095 0.0030982602491 0.0031059108693 0.0031135872011 
0.0031212894092 0.0031290173461 0.0031367713589 0.0031445513374 0.0031523572995 0.0031601895952 0.0031680480058 0.0031759328456 0.0031838439765 
0.0029616409758 0.0029688238379 0.002976030856 0.0029832624178 0.0029905185442 0.0029977994359 0.0030051051843 0.0030124354101 0.0030197905047 
0.0030271706184 0.0030345759241 0.0030420062065 0.0030494616761 0.003056942721 0.0030644484291 0.0030719798943 0.0030795367867 0.0030871193972 
0.0030947273318 0.0031023611328 0.0031100205233 0.0031177056549 0.0031254168731 0.0031331537667 0.00314091661 0.0031487053021 0.0031565204936 
0.0031643621121 0.003172229682 0.003180123597 0.0029584148393 0.0029655815763 0.0029727725143 0.0029799878432 0.002987227829 0.0029944924038 
0.0030017816686 0.0030090957935 0.0030164344364 0.0030237981731 0.0030311869637 0.00303860075 0.0030460396208 0.0030535039011 0.0030609931329 
0.0030685077858 0.00307604796 0.0030836137252 0.0030912050652 0.003098821877 0.0031064643932 0.003114132616 0.0031218268926 0.0031295466005 
0.0031372925711 0.0031450643629 0.0031528624841 0.0031606869483 0.0031685374863 0.0031764142904 0.0029551980048 0.0029623486162 0.0029695236977 
0.0029767228809 0.0029839467688 0.0029911951608 0.0029984681578 0.0030057656101 0.0030130880973 0.0030204356505 0.0030278079726 0.0030352052822 
0.0030426278393 0.0030500752356 0.0030575479858 0.0030650460435 0.0030725694136 0.0030801184764 0.0030876930592 0.0030952931631 0.0031029188686 
0.0031105702243 0.0031182472546 0.0031259504183 0.0031336793472 0.0031414342095 0.0031492152739 0.0031570226923 0.0031648560746 0.0031727159225 
0.0029519906709 0.0029591253373 0.0029662841282 0.0029734675381 0.0029806752843 0.0029879075136 0.0029951643794 0.0030024455679 0.0030097517685 
0.0030170827888 0.0030244389689 0.003031819628 0.003039225878 0.0030466567656 0.0030541129821 0.0030615944335 0.0030691012019 0.0030766335918 
0.003084191373 0.0030917746876 0.003099383439 0.0031070182022 0.0031146785248 0.0031223647751 0.0031300767474 0.0031378146634 0.0031455788457 
0.0031533690267 0.0031611853301 0.0031690280986 0.0029487926636 0.0029559112913 0.0029630542236 0.002970221668 0.0029774133576 0.0029846294848 
0.0029918701551 0.0029991351494 0.00300642515 0.0030137398994 0.0030210793875 0.0030284442374 0.0030358338427 0.0030432482998 0.0030506879884 
0.0030581528284 0.0030656430553 0.0030731587344 0.0030806996465 0.003088266299 0.0030958585659 0.0031034764776 0.0031111199989 0.0031187892411 
0.003126484688 0.0031342056913 0.0031419530207 0.0031497263596 0.0031575256331 0.0031653514041 0.0029456037468 0.0029527066016 0.0029598336737 
0.0029669849829 0.0029741608898 0.0029813609094 0.0029885852912 0.0029958343197 0.0030031080733 0.0030104064146 0.0030177297959 0.0030250783536 
0.003032451311 0.0030398494423 0.003047272866 0.0030547212878 0.0030621947224 0.0030696938303 0.0030772183701 0.0030847683978 0.0030923439476 
0.0030999451325 0.0031075718789 0.0031152244199 0.0031229027945 0.0031306071303 0.0031383376991 0.0031460941375 0.0031538765689 0.0031616852536 
0.0029424239909 0.00294951102 0.0029566222175 0.0029637577083 0.0029709174537 0.0029781016899 0.0029853099709 0.0029925427949 0.0029998004051 
0.0030070827214 0.0030143898648 0.0030217220735 0.0030290787945 0.0030364605316 0.0030438672219 0.0030512993339 0.0030587565127 0.0030662390537 
0.0030737470208 0.0030812803807 0.0030888393773 0.0030964239814 0.0031040340136 0.0031116698006 0.0031193314471 0.0031270189927 0.0031347326287 
0.0031424721974 0.003150237847 0.0031580296967 0.0029392532711 0.0029463244895 0.002953419873 0.0029605395767 0.0029676833647 0.0029748516417 
0.0029820437498 0.0029892606912 0.0029965022031 0.0030037683762 0.0030110596679 0.003018375194 0.0030257155736 0.0030330809942 0.0030404715135 
0.003047887085 0.0030553279206 0.0030627941742 0.0030702855567 0.003077802396 0.0030853447453 0.003092912698 0.0031005060943 0.0031081252222 
0.003115770154 0.0031234409334 0.0031311378141 0.0031388605808 0.0031466094008 0.0031543842687 0.0029360913281 0.0029431468994 0.0029502265241 
0.002957330422 0.0029644583493 0.0029716102021 0.0029787869173 0.0029859878453 0.0029932132179 0.0030004630791 0.0030077383193 0.0030150376639 
0.0030223619332 0.0030297111419 0.0030370852704 0.0030444845249 0.0030519089416 0.0030593585954 0.0030668335894 0.0030743340969 0.0030818599524 
0.0030894111632 0.0030969880603 0.0031045905467 0.003112218782 0.003119872872 0.0031275528941 0.0031352590197 0.0031429909878 0.0031507490693 
0.0029329382188 0.0029399780878 0.002947042 0.0029541301128 0.0029612421267 0.0029683781908 0.00297553888 0.0029827238574 0.0029899331661 
0.002997167183 0.0030044261568 0.003011709384 0.0030190174969 0.0030263505108 0.0030337084322 0.0030410913216 0.0030484993667 0.0030559325523 
0.0030633911517 0.0030708750217 0.0030783844616 0.0030859193864 0.003093479723 0.0031010656308 0.0031086772641 0.0031163147243 0.0031239779236 
0.0031316673229 0.0031393825354 0.003147123996 0.0029297934366 0.002936817679 0.0029438659485 0.0029509381773 0.0029580344463 0.0029651547731 
0.0029722995293 0.002979468935 0.0029866622809 0.0029938802852 0.0030011230748 0.003008390316 0.0030156822915 0.0030229990878 0.0030303406882 
0.0030377072999 0.0030450990267 0.0030525160022 0.0030599581259 0.0030674255549 0.0030749184287 0.0030824366632 0.0030899806453 0.0030975501447 
0.0031051450539 0.0031127658767 0.0031204126228 0.0031280851423 0.0031357837883 0.0031435082646 0.0029266571162 0.0029336654729 0.0029406980875 
0.0029477547556 0.002954835395 0.0029619399968 0.002969068969 0.0029762221415 0.0029833997764 0.0029906020871 0.0029978285656 0.0030050797458 
0.0030123556201 0.0030196562792 0.0030269817846 0.0030343322267 0.0030417076302 0.0030491082119 0.003056534039 0.0030639850174 0.0030714614729 
0.0030789632922 0.0030864906707 0.0030940435822 0.0031016224087 0.0031092268221 0.003116856766 0.0031245125944 0.0031321945 0.0031399025654 
0.0030542800681 0.0030618391738 0.003069423713 0.0030770341297 0.0030846705153 0.0030923325854 0.0031000204962 0.0031077342837 0.0031154739853 
0.0031232397146 0.0031310312192 0.0031388491961 0.0031466934116 0.0031545639173 0.0031624604634 0.0031703835134 0.0031783327944 0.0031863087128 
0.0031943107378 0.0032023395663 0.0032103950771 0.0032184772382 0.0032265862515 0.003234721847 0.0032428844322 0.0032510736951 0.0032592898816 
0.0032675329517 0.003275803025 0.0032841004797 0.0030508507376 0.0030583925577 0.0030659598341 0.0030735529617 0.0030811717383 0.0030888165377 
0.0030964867933 0.003104183277 0.0031119053375 0.0031196531379 0.0031274271263 0.0031352273249 0.0031430536125 0.0031509063935 0.0031587851153 
0.0031666902912 0.0031746218006 0.0031825796133 0.0031905637534 0.0031985743831 0.0032066118815 0.0032146759116 0.0032227665744 0.0032308843449 