# vtk DataFile Version 5.1
vtk output
ASCII
DATASET STRUCTURED_POINTS
DIMENSIONS 20 20 40
SPACING 0.05 0.05 0.05
ORIGIN 3.225 -0.475 0.525
POINT_DATA 16000
FIELD FieldData 1
potential 1 16000 double
0.00045342336494 0.00045082202899 0.00044825904483 0.00044573377013 0.00042947257595 0.00042682950936 0.00042422049604 0.00042164481951 0.00041910108574 
0.00041658839273 0.00041410589524 0.00041165248757 0.0004092267936 0.0004068275452 0.00040445334604 0.00040210354953 0.00039977682178 0.000397472387 
0.00039518965681 0.00039292811716 0.0004555017311 0.00045290816916 0.00045035491023 0.00044784092679 0.00043042383383 0.00042776657164 0.00042514315619 
0.00042255279371 0.00041999444845 0.00041746714722 0.00041496982026 0.0004125013024 0.00041006042198 0.0004076457379 0.00040525656339 0.00040289162458 
0.00040054978898 0.0003982304749 0.00039593312173 0.00039365733396 0.00045747577594 0.00045489162752 0.00045234922845 0.00044984752513 0.00043128177418 
0.00042861043917 0.00042597286407 0.00042336796792 0.00042079492943 0.00041825296263 0.00041574062419 0.00041325695335 0.0004108008198 0.00040837128228 
0.00040596709161 0.00040358722567 0.00040123079958 0.00039889706771 0.00039658558311 0.00039429624489 0.00045940900911 0.00045683480297 0.00045430394094 
0.00045181537279 0.00043210884078 0.00042942305203 0.00042677069981 0.00042415101188 0.00042156298599 0.00041900577489 0.00041647791654 0.00041397902355 
0.00041150773537 0.00040906290922 0.00040664349618 0.00040424878649 0.00040187780755 0.00039952988289 0.0003972046303 0.00039490190652 0.00046136201775 
0.00045879787805 0.00045627858216 0.00045380319062 0.00043296453796 0.00043026331479 0.00042759555366 0.00042496021956 0.00042235648866 0.00041978300515 
0.0004172394597 0.00041472456531 0.00041223740956 0.00040977690534 0.00040734212587 0.00040493227792 0.00040254658588 0.00040018432518 0.00039784513969 
0.00039552897073 0.00046338680714 0.00046083215213 0.0004583241663 0.00045586132645 0.00043390014528 0.00043118252563 0.00042849800372 0.00042584572825 
0.00042322502025 0.00042063491381 0.00041807456693 0.00041554294446 0.00041303918171 0.00041056231978 0.00040811168713 0.00040568612378 0.00040328515307 
0.00040090814997 0.00039855481796 0.00039622473473 0.00046552422322 0.00046297853554 0.00046048060195 0.00045802974228 0.00043495650343 0.00043222082656 
0.0004295181283 0.00042684782692 0.00042420889572 0.00042160083982 0.00041902249466 0.00041647316248 0.00041395186676 0.00041145801408 0.00040899053425 
0.00040654866318 0.00040413192842 0.00040173964543 0.00039937136403 0.00039702665097 0.00046780402679 0.00046526582105 0.0004627770942 0.00046033687921 
0.00043616342972 0.00043340807951 0.00043068572504 0.00042799570629 0.00042533713093 0.00042270961656 0.00042011220601 0.00041754397736 0.0004150041843 
0.00041249216122 0.00041000716984 0.00040754822002 0.00040511477384 0.00040270631886 0.00040032226092 0.0003979622329 0.00047024534912 0.00046771320061 
0.00046523221055 0.00046280131118 0.00043754142758 0.00043476458701 0.00043202063354 0.00042930909735 0.00042662952717 0.00042398110975 0.0004213631631 
0.00041877483491 0.0004162155386 0.0004136843665 0.00041118067766 0.00040870371832 0.00040625264077 0.00040382704817 0.00040142629896 0.00039904990737 
0.00047285890633 0.00047033152671 0.00046785698904 0.00046543435189 0.00043910280562 0.00043630243803 0.00043353518252 0.00043080054712 0.00042809819943 
0.00042542730554 0.00042278756226 0.00042017787442 0.00041759771254 0.00041504637332 0.00041252294844 0.00041002697846 0.00040755735119 0.00040511346486 
0.00040269489021 0.00040030102976 0.00047564849926 0.00047312474942 0.00047065533847 0.00046823985552 0.00044085315109 0.00043802741798 0.00043523492263 
0.00043247547054 0.00042974879483 0.00042705407736 0.00042439097678 0.00042175874417 0.00041915656377 0.00041658375182 0.00041403959079 0.00041152325573 
0.00040903405779 0.00040657099584 0.00040413357926 0.0004017212348 0.00048032426965 0.00047578546164 0.00047121881629 0.00046662515548 0.00044299587424 
0.00044011642817 0.0004372742214 0.00043446900062 0.00043170017816 0.0004289678444 0.00042627119219 0.00042360943889 0.00042098171489 0.00041838724152 
0.00041582513599 0.00041329448679 0.00041079425038 0.0004083234802 0.00040588152648 0.00040346705703 0.00048112172811 0.00047660180768 0.00047205554275 
0.00046748371496 0.00044528335095 0.00044237149389 0.00043949760189 0.0004366609013 0.00043386206313 0.00043110031269 0.00042837519666 0.00042568591141 
0.00042303172972 0.00042041169737 0.00041782502278 0.00041527051936 0.00041274705766 0.00041025408379 0.00040778987617 0.00040535394166 0.00048209447673 
0.00047759068216 0.00047306189148 0.00046850902762 0.00044773543014 0.000444790268 0.00044188321893 0.00043901488417 0.00043618478528 0.00043339277745 
0.00043063832316 0.00042792071519 0.00042523929802 0.00042259301531 0.0004199808222 0.00041740174635 0.00041485481839 0.00041233837167 0.00040985151765 
0.00040739345325 0.00048321868901 0.00047872837958 0.0004742144603 0.00046967786264 0.00045032995756 0.00044735067236 0.00044441045374 0.00044150924729 
0.00043864736556 0.00043582438799 0.00043303997819 0.00043029338772 0.00042758405725 0.00042491075887 0.00042227249974 0.00041966827545 0.00041709690619 
0.00041455668995 0.00041204679672 0.00040956597506 0.00048445952203 0.00047998054189 0.00047547949233 0.00047095718677 0.00045303429731 0.00045002101058 
0.00044704718325 0.00044411296819 0.00044121884941 0.00043836441692 0.00043554960619 0.00043277372054 0.0004300358927 0.00042733508147 0.00042467030074 
0.00042204070396 0.00041944445713 0.0004168801783 0.00041434635024 0.00041184215621 0.00048576981669 0.0004813013407 0.00047681132742 0.00047230162304 
0.00045580440732 0.00045275715295 0.00044974991139 0.00044678287623 0.00044385653143 0.00044097074313 0.00043812533381 0.00043531977032 0.00043255329113 
0.00042982489284 0.00042713382101 0.00042447815998 0.00042185658122 0.00041926758514 0.00041670992878 0.00041418200543 0.00048709299192 0.00048263170531 
0.00047815256583 0.00047365412114 0.00045858425564 0.00045550362481 0.00045246353197 0.00044946431242 0.00044650622723 0.00044358959006 0.00044071398324 
0.00043787914402 0.00043508425684 0.00043232852477 0.00042961080937 0.00042692894467 0.00042428198985 0.00042166838566 0.00041908642081 0.00041653474038 
0.00048836065197 0.00048390690912 0.00047943719085 0.00047494914507 0.00046130903271 0.00045819644328 0.00045512450064 0.00045209412134 0.00044910550676 
0.00044615883652 0.00044325394212 0.00044039060718 0.000437568127 0.00043478535 0.00043204068071 0.00042933323545 0.00042666111429 0.00042402293885 
0.00042141694986 0.00041884178084 0.00048950305367 0.0004850565731 0.00048059435562 0.00047611808361 0.00046391108513 0.00046076806878 0.00045766628733 
0.00045460633798 0.00045158866612 0.0004486134312 0.00044568062799 0.00044279017099 0.00043994090898 0.00043713142266 0.00043436103111 0.00043162823458 
0.00042893163173 0.00042626942909 0.00042363997352 0.00042104161211 0.00049353723207 0.00049064981631 0.00048780247291 0.00048499386515 0.00046881210025 
0.00046590454858 0.00046303350268 0.00046019797362 0.00045739703002 0.0004546297795 0.00045189537471 0.00044919245039 0.0004465201617 0.00044387743696 
0.00044126287855 0.00043867591113 0.00043611546918 0.00043358077076 0.0004310711161 0.00042858593669 0.00049591465346 0.00049303172748 0.00049019055325 
0.00048738984111 0.00047005007598 0.00046712531992 0.00046423696603 0.00046138426272 0.00045856610613 0.00045578163378 0.0004530298469 0.00045030973529 
0.00044761994503 0.00044495992984 0.000442328424 0.00043972443393 0.00043714712186 0.00043459562498 0.00043206955035 0.00042956835074 0.00049821467809 
0.0004953372725 0.00049250338022 0.00048971155838 0.00047122047952 0.00046827853301 0.00046537295217 0.00046250290419 0.00045966755125 0.00045686571467 
0.00045409661192 0.00045135893254 0.00044865206454 0.00044597479945 0.00044332625762 0.0004407052927 0.00043811126642 0.00043554345668 0.00043300129733 
0.0004304842884 0.0005004822113 0.00049761113875 0.00049478510162 0.00049200293906 0.00047236768572 0.00046940822646 0.00046648515942 0.00046359749515 
0.00046074445896 0.00045792498563 0.00045513807595 0.00045238301804 0.00044965854438 0.00044696392498 0.00044429816808 0.00044166029951 0.00043904961903 
0.00043646546469 0.0004339073613 0.00043137478356 0.0005027620136 0.00049989747227 0.00049707961881 0.00049430741607 0.0004735361 0.00047055853587 
0.00046761726036 0.00046471140958 0.00046183986168 0.00045900220774 0.00045619723238 0.00045342416547 0.00045068186654 0.00044796937996 0.00044528611552 
0.0004426310142 0.00044000345812 0.00043740279331 0.00043482860566 0.00043228036032 0.00050509432567 0.00050223606234 0.00049942647656 0.00049666367654 
0.00047476575959 0.0004717691252 0.00046880872779 0.00046588349898 0.00046299321357 0.0004601364236 0.00045731247885 0.0004545205616 0.00045175979982 
0.0004490290791 0.00044632776644 0.00044365503021 0.00044101027299 0.00043839275293 0.00043580202953 0.00043323775922 0.00050751227181 0.00050466006511 
0.0005018577313 0.00049910425952 0.00047608997515 0.00047307291735 0.00047009219222 0.00046714695719 0.0004642364991 0.00046135969396 0.00045851601322 
0.00045570444796 0.00045292425176 0.00045017460257 0.00044745474813 0.00044476372184 0.00044210112514 0.0004394661871 0.00043685852916 0.00043427760461 
0.00051004121026 0.00050719401484 0.00050439848865 0.00050165344191 0.00047753448565 0.00047449588106 0.00047149366461 0.00046852682628 0.00046559497325 
0.00046269714496 0.00045983256265 0.00045700043237 0.00045420000408 0.00045143060972 0.00044869125887 0.0004459812861 0.00044330022015 0.00044064723537 
0.00043802189799 0.00043542366764 0.00051269845373 0.00050985529207 0.00050706559776 0.00050432828712 0.000479117942 0.00047605624601 0.00047303093062 
0.0004700413317 0.00046708669544 0.00046416652892 0.00046127999985 0.00045842633329 0.00045560468328 0.00045281450557 0.00045005500596 0.00044732521042 
0.00044462475863 0.00044195283289 0.00043930906208 0.00043669262374 0.0005154940999 0.00051265402768 0.00050986946128 0.00050713922156 0.00048085186643 
0.00047776552261 0.00047471573336 0.00047170180906 0.00046872318047 0.00046577947597 0.00046286975293 0.00045999336497 0.00045714965868 0.00045433766339 
0.0004515569114 0.00044880647347 0.00044608567274 0.00044339403436 0.0004407307564 0.0004380953528 0.0005184318593 0.00051559421501 0.00051281394433 
0.00051008968918 0.00048274181946 0.00047962918976 0.00047655348638 0.00047351395121 0.00047051004658 0.00046754138292 0.00046460737964 0.00046170710813 
0.0004588400926 0.00045600544016 0.00045320247773 0.00045043039976 0.00044768859424 0.00044497610535 0.00044229245217 0.00043963710217 0.00052270994212 
0.00051792056388 0.00051311142349 0.00050828247095 0.00048496137376 0.00048179457792 0.00047866849588 0.00047558256319 0.00047253604862 0.00046952905234 
0.00046656071386 0.00046363016141 0.00046073670449 0.00045787942304 0.0004550574761 0.00045226991576 0.00044951583176 0.00044679423514 0.00044410431073 
0.00044144567702 0.00052362123306 0.00051884999185 0.00051406026571 0.00050925244047 0.00048732066987 0.00048412133986 0.00048096305907 0.00047784551811 
0.00047476865156 0.00047173184873 0.00046873432787 0.00046577565012 0.00046285479574 0.00045997095885 0.00045712335618 0.00045431078083 0.00045153234082 
0.0004487871004 0.00044607432535 0.00044339254388 0.00052467301757 0.00051991708644 0.0005151440509 0.00051035447406 0.00048981168028 0.00048657906024 
0.00048338773631 0.00048023823812 0.0004771300708 0.00047406266425 0.00047103540584 0.00046804795229 0.00046509908641 0.00046218814328 0.00045931418076 
0.00045647606054 0.0004536727164 0.00045090357105 0.00044816679117 0.00044546190066 0.00052584324081 0.00052110013236 0.00051634137693 0.00051156769732 
0.00049241408198 0.00048914731558 0.0004859231577 0.00048274105024 0.0004796010251 0.000476502493 0.00047344508281 0.00047042822206 0.00046745093451 
0.00046451245961 0.0004616116637 0.00045874749577 0.00045591926027 0.00045312490914 0.00045036415665 0.00044763550883 0.00052710187005 0.00052236948544 
0.00051762294718 0.00051286305521 0.00049509935866 0.00049179903481 0.00048854139634 0.00048532654994 0.00048215437988 0.00047902465037 0.00047593682471 
0.00047289025543 0.00046988422819 0.00046691787636 0.0004639898819 0.0004610997087 0.0004582453616 0.00045542619406 0.00045264098089 0.00044988800152 
0.00052840953714 0.00052368718102 0.00051895126878 0.00051420344436 0.0004978320188 0.00049449782875 0.00049120698097 0.00048795958624 0.00048475541457 
0.00048159441242 0.00047847609864 0.00047539991783 0.00047236504154 0.00046937057178 0.00046641562158 0.0004634987657 0.00046061879821 0.00045777421974 
0.00045496405436 0.00045218677609 0.00052972307018 0.00052500735104 0.00052028169715 0.00051554458203 0.00050056794675 0.00049720070486 0.00049387722184 
0.00049059767926 0.00048736209664 0.00048417018698 0.00048102166782 0.00047791607092 0.00047485245582 0.00047183034046 0.00046884814162 0.00046590484901 
0.00046299881104 0.00046012901334 0.00045729404862 0.00045449245341 0.00053099127337 0.00052628217742 0.0005215648185 0.00051683754806 0.00050325941282 
0.00049985981911 0.00049650464176 0.00049319387611 0.00048992756217 0.00048670559385 0.00048352763477 0.0004803932771 0.00047730185905 0.00047425231696 
0.00047124314113 0.00046827339959 0.00046534176277 0.00046244684229 0.00045958723078 0.00045676144214 0.00053216377321 0.00052746083682 0.00052275020687 
0.0005180333443 0.00050585785937 0.00050242730264 0.00049904154296 0.00049570087371 0.00049240513483 0.00048915421717 0.00048594788964 0.00048278586331 
0.00047966730088 0.00047659058316 0.00047355515511 0.00047055976044 0.00046760284782 0.00046468326645 0.00046179941562 0.00045894986876 0.0005337294215 
0.00053055548336 0.00052742328215 0.00052433147965 0.00050822342637 0.00050505187248 0.0005019192283 0.00049882460703 0.00049576723384 0.0004927462398 
0.00048976058859 0.00048680927678 0.0004838913842 0.00048100594956 0.00047815164871 0.00047532827968 0.0004725345363 0.00046976962063 0.00046703296182 
0.0004643240584 0.00053636314836 0.00053319064703 0.00053006165264 0.00052697476296 0.00050970767229 0.00050651618062 0.00050336373208 0.00050024948882 
0.00049717259862 0.00049413204999 0.00049112696142 0.00048815631892 0.00048521889714 0.00048231437004 0.00047944133607 0.00047659902583 0.00047378663076 
0.00047100338519 0.00046824868587 0.00046552196583 0.00053894117066 0.00053577113795 0.00053264626882 0.0005295652253 0.00051114480448 0.00050793340724 
0.00050476110332 0.00050162724123 0.0004985306722 0.00049547050848 0.00049244582536 0.00048945551768 0.00048649907991 0.00048357539 0.00048068332462 
0.00047782228266 0.00047499134039 0.0004721897971 0.00046941714744 0.00046667294882 0.00054149591608 0.00053832890388 0.00053520881708 0.0005321344543 
0.00051256726487 0.00050933575817 0.00050614338273 0.00050298940516 0.00049987288181 0.00049679283758 0.00049374817327 0.00049073846284 0.00048776243375 
0.00048481934051 0.00048190819605 0.00047902826125 0.00047617869557 0.00047335890449 0.00047056838677 0.00046780653396 0.00054406028402 0.00054089666526 
0.00053778189855 0.00053471445181 0.00051400819215 0.00051075599323 0.00050754309269 0.00050436849683 0.00050123124756 0.00049813080191 0.00049506614136 
0.00049203631516 0.0004890404051 0.00048607758631 0.00048314699678 0.00048024789412 0.00047737958784 0.00047454139095 0.00047173274974 0.00046895319102 
0.00054666512867 0.0005435051006 0.0005403955528 0.00053733481084 0.00051549847522 0.00051222484376 0.00050899053345 0.00050579447577 0.00050263618958 
0.000499514755 0.00049642916508 0.000493378659 0.00049036236174 0.00048737931022 0.00048442887538 0.00048151031467 0.00047862278338 0.00047576580131 
0.00047293873473 0.00047014119915 0.00054933670536 0.00054617995663 0.00054307521389 0.00054002138205 0.00051706484245 0.00051376856536 0.00051051194651 
0.00050729385897 0.00050411357621 0.00050097025369 0.00049786294906 0.00049479107106 0.00049175368305 0.00048874993006 0.00048577903511 0.00048284041415 
0.00047993323283 0.00047705698878 0.00047421103175 0.00047139500142 0.00055209592444 0.0005489416648 0.00054584157435 0.00054279412351 0.00051872857834 
0.00051540904577 0.00051212892445 0.00050888764351 0.00050568438855 0.00050251813579 0.00049938838614 0.00049629428992 0.00049323500723 0.00049020975264 
0.00048721782724 0.00048425844924 0.00048133095598 0.00047843480485 0.0004755694453 0.0004727342227 0.00055495722161 0.0005518051496 0.00054870899886 
0.00054566746428 0.00052050596166 0.00051716166226 0.00051385708464 0.00051059138883 0.00050736393335 0.00050417389681 0.00050102068944 0.00049790345254 
0.00049482150358 0.0004917739506 0.00048876014602 0.00048577932982 0.00048283084471 0.0004799142175 0.00047702862748 0.00047417356994 0.00055792931716 
0.00055477906084 0.00055168644248 0.00054865046218 0.00052240703459 0.00051903676894 0.00051570641919 0.0005124152508 0.00050916246032 0.00050594760827 
0.00050276999061 0.0004996286711 0.0004965229988 0.00049345238953 0.00049041589051 0.00048741280397 0.0004844425851 0.00048150459049 0.00047859806309 
0.00047572237756 0.00056101611826 0.00055786677874 0.00055477707149 0.00055174603386 0.00052443664085 0.00052103921639 0.0005176819516 0.00051436410698 
0.00051108499743 0.00050784420327 0.0005046410593 0.00050147479424 0.00049834458156 0.00049524988334 0.00049218990448 0.00048916381365 0.00048617089647 
0.00048321070643 0.00048028240372 0.00047738537366 0.00056495993474 0.00055992299209 0.00055487346385 0.00054981176744 0.00052674007001 0.00052328727606 
0.0005198784507 0.00051651322446 0.00051319080986 0.00050991039348 0.00050667187019 0.00050347420115 0.00050031638827 0.00049719789885 0.00049411763733 
0.00049107474669 0.00048806829232 0.00048509749339 0.00048216144514 0.00047925963627 0.00056599832487 0.00056097812522 0.00055594695972 0.00055090510214 
0.00052918367179 0.00052569775528 0.0005222564086 0.00051885884671 0.00051550520128 0.00051219454861 0.00050892619122 0.00050569940468 0.00050251340217 
0.00049936736756 0.0004962602751 0.00049319126654 0.00049015942971 0.00048716364903 0.00048420358623 0.00048127750554 0.00056714939474 0.00056214327155 
0.00055712784826 0.00055210334812 0.00053173318724 0.0005282136132 0.00052473894679 0.00052130921609 0.00051792368638 0.0005145818744 0.00051128327034 
0.00050802685393 0.00050481213151 0.00050163810167 0.00049850374551 0.00049540817202 0.0004923503727 0.0004893296727 0.00048634440351 0.00048339408667 
0.00056839397807 0.00056339972324 0.00055839767348 0.00055338816854 0.00053437107204 0.00053081725052 0.00052730940205 0.00052384678473 0.00052042912442 
0.00051705586633 0.0005137265403 0.00051044029183 0.00050719642539 0.00050399401601 0.00050083203313 0.00049770947169 0.00049462569526 0.000491578959 
0.00048856872638 0.00048559364121 0.00056970700593 0.00056472262765 0.00055973190736 0.0005547353642 0.00053707357376 0.00053348583593 0.00052994435926 
0.00052644884293 0.00052299896373 0.0005195941406 0.00051623386767 0.00051291750464 0.00050964436952 0.00050641333246 0.00050322355146 0.00050007408806 
0.00049696344493 0.00049389094667 0.00049085517921 0.00048785499731 0.000571056678 0.00056608139453 0.00056110030473 0.00055611489491 0.00053981192221 
0.00053619032483 0.00053261538692 0.00052908706341 0.00052560498655 0.00052216869786 0.00051877769773 0.00051543127357 0.00051212867773 0.00050886902309 
0.00050565151678 0.00050247453172 0.00049933762955 0.00049623882628 0.00049317734599 0.00049015209722 0.00057240990817 0.00056744129045 0.00056246837469 
0.00055749268632 0.00054255255421 0.00053889744637 0.0005352896303 0.00053172882232 0.00052821489126 0.00052474746176 0.00052132592414 0.00051794970928 
0.00051461793511 0.00051133006518 0.0005080845588 0.00050488063697 0.00050171681864 0.00049859194829 0.00049550492389 0.00049245456213 0.00057372816655 
0.0005687639376 0.0005637992252 0.00055883216855 0.00054525937822 0.00054157147138 0.00053793146262 0.0005343390577 0.00053079407314 0.00052729593165 
0.00052384447902 0.00052043881981 0.00051707861008 0.0005137628401 0.0005104896681 0.00050725856927 0.00050406825069 0.00050091760509 0.00049780520034 
0.00049472983513 0.00057497476945 0.00057001532365 0.00056505587806 0.00056009780856 0.00054789753521 0.00054417782071 0.00054050661402 0.00053688350031 
0.00053330820912 0.0005297804649 0.00052629978102 0.00052286586619 0.00051947772338 0.00051613389643 0.00051283377091 0.00050957623001 0.00050635997317 
0.00050318373924 0.0005000463356 0.00049694633987 0.0005739636869 0.0005705031833 0.00056708639268 0.00056371157628 0.00054767169702 0.00054423646619 
0.00054084288354 0.00053749001279 0.00053417705578 0.00053090303186 0.00052766707162 0.00052446826432 0.0005213056728 0.00051817815757 0.00051508527383 
0.00051202594507 0.00050899933157 0.00050600470663 0.00050304139457 0.0005001088723 0.00057682320645 0.00057336151822 0.00056994522249 0.00056657275682 
0.00054937305575 0.00054591562575 0.00054249997808 0.00053912527802 0.00053579058404 0.00053249503349 0.00052923766571 0.00052601758157 0.00052283364971 
0.00051968543991 0.00051657181448 0.00051349197707 0.00051044510916 0.00050743049067 0.0005044474892 0.00050149555318 0.00057964449026 0.00057618238869 
0.00057276754751 0.00056939823499 0.00055104388662 0.00054756417406 0.00054412644505 0.00054072973669 0.00053737324973 0.00053405601777 0.0005307771319 
0.00052753538326 0.00052433052437 0.00052116132126 0.00051802691553 0.00051492654512 0.0005118593898 0.00050882483857 0.00050582217188 0.00050285096021 
0.00058245098848 0.00057898917604 0.00057557632647 0.00057221089744 0.00055270792398 0.00054920566977 0.00054574554542 0.00054232666377 0.00053894804474 
0.00053560863108 0.00053230792717 0.00052904481812 0.00052581855064 0.00052262814576 0.00051947279498 0.00051635172511 0.00051326423231 0.00051020959695 
0.00050718719476 0.00050419666574 0.00058526722071 0.00058180601317 0.00057839567668 0.00057503444357 0.00055439012333 0.00055086484039 0.00054738187525 
0.00054394025269 0.00054053883539 0.00053717722987 0.00053385433494 0.00053056932154 0.0005273212156 0.0005241093043 0.00052093275671 0.00051779073565 
0.00051468264042 0.0005116077577 0.0005085654971 0.0005055554384 0.00058811647379 0.00058465599785 0.00058124844418 0.00057789155096 0.00055611406094 
0.00055256518813 0.00054905879054 0.0005455935898 0.00054216923924 0.00053878464574 0.00053543906974 0.00053213151069 0.00052886117574 0.0005256273391 
0.0005224291602 0.00051926583784 0.00051613680198 0.00051304134151 0.00050997893508 0.0005069490231 0.00059101905505 0.00058755956092 0.00058415431421 
0.00058080202008 0.00055790095675 0.00055432747546 0.00055079678937 0.00054730779905 0.0005438594893 0.00054045131317 0.00053708230733 0.00053375162029 
0.00053045851145 0.00052720217415 0.00052398184979 0.00052079676956 0.00051764634953 0.00051452989116 0.00051144679918 0.00050839661897 0.00059399183686 
0.00059053267672 0.00058713004136 0.00058378183083 0.00055976809054 0.0005561695149 0.00055261367577 0.00054909973129 0.00054562674592 0.00054219406151 
0.00053880092365 0.00053544640265 0.00053212991692 0.00052885042856 0.0005256073091 0.00052239989961 0.00051922751002 0.00051608951166 0.00051298524766 
0.00050991426994 0.00059704658007 0.00059358770971 0.00059018707304 0.00058684318898 0.00056172899088 0.0005581041963 0.00055452218634 0.00055098230175 
0.00054748382682 0.00054402584497 0.00054060764646 0.00053722859894 0.00053388784737 0.00053058455827 0.00052731802597 0.00052408765456 0.00052089270757 
0.00051773249429 0.00051460642464 0.0005115140185 0.00060019042541 0.00059673154369 0.00059333283978 0.00058999300042 0.00056379217799 0.00056014003531 
0.00055653094986 0.00055296424879 0.00054943922057 0.00054595504444 0.00054251102367 0.00053910658353 0.0005357408108 0.00053241295129 0.00052912236268 
0.00052586827075 0.0005226500351 0.00051946698759 0.00051631851875 0.00051320397678 0.00060342645855 0.00059996700027 0.00059656995495 0.00059323371405 
0.00056596174031 0.00056228131464 0.00055864418713 0.0005550496638 0.00055149713687 0.00054798591278 0.00054451527751 0.00054108448343 0.00053769295929 
0.00053433981041 0.00053102432394 0.00052774577539 0.0005245035589 0.0005212970031 0.00051812539109 0.00051498800627 0.0006070962779 0.00060181408102 
0.00059652683519 0.00059123466099 0.00056835541364 0.00056461794009 0.00056092786966 0.00055728448385 0.00055368717988 0.00055013495649 0.0005466276836 
0.00054316418205 0.00053974368017 0.00053636528976 0.00053302814769 0.00052973132944 0.00052647403403 0.00052325539332 0.00052007451134 0.00051693081838 
0.00060827312202 0.00060300622876 0.00059773584134 0.00059246222531 0.00057089455827 0.00056712316235 0.00056339981844 0.00055972372584 0.00055609403876 
0.00055251075292 0.00054897273077 0.00054547927328 0.00054202948479 0.00053862249541 0.00053525744061 0.00053193335792 0.00052864938584 0.00052540469288 
0.00052219852238 0.0005190294116 0.00060954083286 0.00060428678051 0.00059903079604 0.00059377326179 0.00057351974143 0.00056971407696 0.00056595671275 
0.00056224752147 0.00055858569042 0.00055497056797 0.00055140139178 0.00054787755556 0.00054439810438 0.00054096215079 0.00053756881444 0.00053421712509 
0.00053090618078 0.00052763530348 0.00052440287809 0.00052120847309 0.00061088336989 0.00060563986453 0.00060039613197 0.00059515234379 0.00057621633053 
0.00057237575489 0.00056858465771 0.00056484210539 0.000561147526 0.00055750036409 0.00055389990842 0.00055034533674 0.00054683588027 0.0005433707126 
0.00053994888818 0.00053656926931 0.0005332313518 0.00052993343496 0.00052667487975 0.00052345456501 0.00061228016421 0.00060704520989 0.00060181161992 
0.00059657965847 0.00057896463306 0.00057508978232 0.00057126463384 0.00056748856509 0.00056376118387 0.00056008190736 0.00055644993713 0.00055286462606 
0.00054932506507 0.00054583050588 0.00054237988293 0.00053897256581 0.00053560685915 0.00053228215374 0.00052899725615 0.00052575097925 0.00061370582786 
0.00060847880351 0.00060325360672 0.00059803153066 0.00058174241878 0.00057783302691 0.00057397397598 0.00057016460699 0.00056640452953 0.00056269306946 
0.00055902970371 0.00055541365359 0.00055184408997 0.00054832007224 0.00054484104774 0.0005414052213 0.0005380123848 0.00053466051124 0.00053134891636 
0.00052807658377 0.00061513526084 0.00060991353761 0.00060469523973 0.00059948162173 0.00058452345012 0.00058057990007 0.00057668717114 0.0005728448804 
0.00056905242842 0.00056530924911 0.00056161468109 0.00055796813177 0.00055436864147 0.00055081571893 0.00054730770712 0.0005438442609 0.00054042346436 
0.00053704468284 0.00053370661758 0.00053040827916 0.0006165390461 0.00061132042048 0.000606108881 0.00060090244207 0.00058728091768 0.00058330384089 
0.00057937816552 0.00057550338759 0.00057167897729 0.00056790456588 0.00056417925943 0.00056050259257 0.00055687381425 0.00055329182186 0.00054975565569 
0.00054626402239 0.00054281594796 0.00053941034615 0.00053604604434 0.0005327218319 0.00061789064493 0.00061267512165 0.00060746706621 0.00060226779381 
0.00058998915473 0.00058597930722 0.00058202142948 0.00057811495977 0.000574259445 0.00057045427973 0.00056669893689 0.00056299293191 0.00055933528971 
0.00055572460267 0.00055216030515 0.00054864119815 0.00054516620614 0.00054173414425 0.00053834379635 0.00053499400706 0.0006142119105 0.00061046542944 
0.00060676451331 0.00060310748434 0.00058712922025 0.00058343115663 0.00057977741912 0.00057616711336 0.00057259936691 0.00056907324177 0.00056558789179 
0.00056214250805 0.0005587361135 0.00055536761665 0.00055203663172 0.00054874210088 0.00054548329395 0.00054225946325 0.00053906994626 0.0005359140674 
0.00061727506845 0.00061352484413 0.00060982208587 0.00060616488436 0.00058902685787 0.00058530445833 0.00058162658704 0.00057799241889 0.00057440098598 
0.00057085143805 0.00056734285283 0.0005638743865 0.00056044489919 0.00055705405419 0.00055370067787 0.00055038408143 0.00054710343679 0.00054385797309 
0.00054064720851 0.00053747039734 0.0006203139724 0.00061656086528 0.00061285701381 0.00060920048886 0.00059090708153 0.00058716019451 0.00058345808559 
0.00057979987639 0.00057618462463 0.00057261149127 0.00056907948407 0.00056558761001 0.00056213535301 0.00055872177656 0.00055534596159 0.00055200717079 
0.0005487045977 0.00054543758412 0.00054220554082 0.00053900783931 0.00062334571449 0.00061959029022 0.00061588582396 0.0006122307319 0.00059278740869 
0.00058901579987 0.00058528920331 0.00058160671401 0.00057796738981 0.00057437010677 0.00057081442076 0.0005672993218 0.000563823903 0.00056038740185 
0.00055698892564 0.00055362772355 0.00055030313084 0.00054701443421 0.00054376103584 0.00054054231986 0.00062638832808 0.00062263093956 0.00061892655789 
0.00061527317011 0.00059468658222 0.00059088985993 0.00058713830797 0.00058343112695 0.00057976705873 0.00057614576381 0.00057256607397 0.00056902715422 
0.00056552823822 0.00056206849755 0.00055864705882 0.00055526329099 0.00055191639069 0.00054860573658 0.00054533079183 0.00054209090831 0.00062945936448 
0.00062570038393 0.00062199627072 0.00061834496733 0.00059662278977 0.00059280046797 0.00058902327155 0.00058529081095 0.00058160199388 0.00057795586381 
0.00057435167576 0.00057078858921 0.00056726565051 0.00056378223896 0.00056033755524 0.00055693080569 0.0005535612848 0.00055022840958 0.00054693156287 
0.00054367010773 0.00063257458386 0.00062881416399 0.00062511023885 0.00062146135539 0.00059861259713 0.00059476376371 0.00059096071923 0.00058720238697 
0.00058348788663 0.00057981638712 0.00057618718735 0.00057259929264 0.0005690519006 0.00056554436688 0.00056207590695 0.00055864575107 0.00055525317948 
0.00055189764689 0.00054857850696 0.00054529514883 0.00063574700262 0.00063198479442 0.00062828137917 0.00062463465749 0.00060066977564 0.00059679402263 