# vtk DataFile Version 5.1
vtk output
ASCII
DATASET STRUCTURED_POINTS
DIMENSIONS 20 20 40
SPACING 0.05 0.05 0.05
ORIGIN 3.225 -0.475 0.525
POINT_DATA 16000
FIELD FieldData 1
potential 1 16000 double
0.0024684229727 0.0025074394828 0.0025474163914 0.0025883410886 0.002691498449 0.0027353237157 0.0027799462155 0.0028253939818 0.00287169496 
0.0029189211874 0.0029671173433 0.0030163581743 0.0030667202565 0.003118273776 0.0031710648073 0.0032251386378 0.0032810952825 0.0033380450495 
0.0033960827945 0.0034554418178 0.0024889033981 0.0025284468608 0.0025689606537 0.0026104411401 0.0027166142009 0.0027611428077 0.0028065071588 
0.002852734893 0.0028998643549 0.0029479407786 0.0029970359145 0.0030472173064 0.0030985601568 0.0031511393214 0.0032050112047 0.0032606931631 
0.0033173652995 0.0033755574363 0.0034349173241 0.0034956481125 0.0025087877175 0.0025488325218 0.0025898545085 0.0026318562308 0.0027411485301 
0.0027863542407 0.002832436762 0.0028794227298 0.0029273552482 0.002976273991 0.0030262567901 0.003077366853 0.0031296869726 0.0031832928181 
0.0032387031997 0.0032951338412 0.0033531454973 0.0034123839273 0.0034730677049 0.0035351909602 0.002528518147 0.0025690428122 0.00261056555 
0.0026530615564 0.0027655603859 0.0028114209974 0.0028582079542 0.0029059430667 0.0029546694862 0.003004429922 0.0030552952123 0.0031073458898 
0.0031606420463 0.003215721731 0.0032717652942 0.003329358864 0.0033885802864 0.0034491002793 0.0035111334649 0.0035746760293 0.0025485334392 
0.0025895376235 0.0026315313985 0.0026745170159 0.0027902865045 0.0028367992284 0.0028842857987 0.0029327723634 0.0029822876456 0.0030328981138 
0.003084663336 0.0031376564491 0.0031923784324 0.003248075265 0.0033053217348 0.0033642555029 0.0034244718897 0.003486298433 0.003549714668 
0.0036147125604 0.0025691966403 0.0026106819734 0.0026531605539 0.0026966325606 0.002815728132 0.0028628914706 0.0029110797407 0.0029603221306 
0.0030106500746 0.0030621284776 0.0031148110921 0.0031691792432 0.0032245150012 0.0032813919765 0.0033397005955 0.003399813513 0.0034613385903 
0.00352451527 0.00358935657 0.0036558497109 0.0025908348111 0.0026328078216 0.0026757755368 0.002719752788 0.0028421960999 0.0028900252994 
0.0029389370214 0.0029889606902 0.0030401309531 0.0030924989124 0.0031461284087 0.003201498898 0.0032579125039 0.0033159159789 0.0033754146386 
0.0034367811566 0.0034996298641 0.0035642053374 0.00363051212 0.0036985594708 0.0026136673735 0.0026561571156 0.0026996445305 0.0027441418886 
0.0028699355638 0.0029184574323 0.002968118087 0.0030189576827 0.0030709927766 0.0031242867312 0.0031792917651 0.0032353330075 0.0032929426573 
0.0033520390617 0.0034129905208 0.0034754505694 0.0035396767395 0.0036056998472 0.0036735399276 0.0037429499782 0.0026378763475 0.002680906247 
0.0027249438555 0.0027699933134 0.002899108483 0.0029483525944 0.0029988000306 0.0030504827566 0.0031034260215 0.0031580519614 0.0032137337875 
0.003270869285 0.0033296510144 0.003389972208 0.0034522183618 0.0035160443292 0.0035816999241 0.0036492367718 0.0037186730833 0.003789744727 
0.0026635664019 0.0027071789344 0.0027518017114 0.0027974409082 0.0029298044667 0.002979817355 0.0030310957793 0.0030836544539 0.0031375528467 
0.0031931898044 0.0032499506762 0.0033083275543 0.0033682357988 0.0034300549456 0.0034934387978 0.0035586782706 0.00362583749 0.003694957666 
0.0037657980975 0.0038388678088 0.0026908121768 0.002735046873 0.0027802943115 0.0028265628291 0.0029620670757 0.0030128893704 0.0030650275488 
0.0031185183642 0.0031737425699 0.0032301024609 0.0032879959235 0.0033475686368 0.0034087460277 0.0034718857918 0.0035366818851 0.0036034195762 
0.0036721413511 0.0037429102395 0.0038154863645 0.0038903837901 0.0027196409712 0.0027645355936 0.0028104479747 0.0028573900233 0.0029958767176 
0.0030475389258 0.0031005860526 0.0031553576515 0.0032113074056 0.0032687761687 0.0033279254222 0.00338865838 0.0034511493862 0.0035156731216 
0.0035819418864 0.0036502313844 0.0037205955359 0.0037928320924 0.0038674686287 0.003944281985 0.0027500224817 0.0027956130649 0.0028422352685 
0.0028898947851 0.0030311287898 0.0030836835241 0.0031376855124 0.0031934617577 0.0032504901965 0.0033091086844 0.0033694760283 0.0034314968901 
0.0034955431199 0.0035613309949 0.0036291304376 0.0036990370377 0.003771107719 0.0038451424935 0.0039216815752 0.0040004834276 0.0027827208568 
0.0028278516902 0.0028741349374 0.0029216173573 0.0030630463861 0.0031180074613 0.0031748695618 0.0032333258269 0.003293517003 0.0033555363704 
0.0034192443632 0.003484776588 0.0035523814746 0.0036217638207 0.0036931440498 0.0037665926872 0.0038423181308 0.003920044187 0.0039999412562 
0.0040821399915 0.002812590867 0.0028587500509 0.0029061210448 0.0029546780173 0.0031041239222 0.0031603654077 0.0032182352079 0.0032778318514 
0.0033391656757 0.0034023482191 0.0034672550688 0.0035340124008 0.0036028943709 0.0036736003271 0.0037463740325 0.0038212906984 0.0038985692439 
0.0039779351245 0.0040597020729 0.0041436519135 0.0028433523398 0.0028905212338 0.0029389470553 0.0029886643027 0.0031456321163 0.0032031927929 
0.003262255087 0.0033230466897 0.0033856843893 0.0034500138817 0.0035161827969 0.0035844023228 0.0036544663599 0.0037265767005 0.0038008253729 
0.0038774467098 0.0039563463695 0.0040374344733 0.0041209125046 0.0042067614128 0.0028745704906 0.0029227868672 0.0029722881372 0.0030231125402 
0.0031876602936 0.0032462230578 0.0033065282451 0.0033685729914 0.0034324781206 0.0034980988745 0.0035655823173 0.0036351676842 0.0037066510431 
0.003780237088 0.0038564286088 0.0039344228324 0.0040149048333 0.0040977714919 0.0041831125733 0.0042709638392 0.0029058184522 0.0029550425697 
0.0030055918048 0.0030575100279 0.0032291285141 0.0032889670807 0.0033505498954 0.0034139712802 0.0034791003687 0.0035460556351 0.0036149239974 
0.0036859449058 0.0037588896993 0.0038343990752 0.0039117385776 0.003991503887 0.0040737103198 0.0041584321567 0.0042457079492 0.0043355909694 
0.0029365042451 0.0029867148127 0.0030382735523 0.0030912549136 0.003269742271 0.0033308682824 0.0033937494202 0.0034584829337 0.0035249565365 
0.0035932894274 0.0036635757298 0.0037360620529 0.0038109053123 0.0038878068711 0.0039666216804 0.0040480915696 0.0041321108952 0.0042187039964 
0.0043079374117 0.0043998734947 0.0029660698249 0.0030172159863 0.0030697746755 0.0031237796207 0.003308935295 0.0033713505969 0.0034356251974 
0.0035016076867 0.0035694368532 0.0036391734512 0.0037110349803 0.0037852507771 0.0038614657157 0.0039395601411 0.0040202714232 0.004103509162 
0.0041893208753 0.004277797995 0.0043689913987 0.0044629737145 0.0026812114487 0.0027233376791 0.0027664750264 0.0028106342257 0.0029191175743 
0.0029664826144 0.003014748371 0.0030639522997 0.0031141256965 0.0031653238254 0.0032176003814 0.003271008367 0.0033256224559 0.0033814906068 
0.0034386664397 0.0034971917323 0.0035575823704 0.0036192531388 0.0036819278429 0.0037460774498 0.0027050935455 0.0027478277333 0.0027915883454 
0.0028363869381 0.0029480311067 0.002996193206 0.0030453007001 0.0030953850916 0.0031464800177 0.0031986465065 0.0032519329664 0.0033064008751 
0.003362108884 0.0034191344084 0.0034775183773 0.0035377803298 0.0035991032131 0.003662024212 0.0037262048789 0.0037918627465 0.0027285567523 
0.0027718827029 0.0028162439027 0.0028616602561 0.0029765877653 0.0030255283811 0.0030754606572 0.0031264096988 0.0031784251551 0.003231544662 
0.0032858390823 0.0033413636072 0.0033981771855 0.0034563625186 0.0035164201739 0.0035775727052 0.0036404146793 0.0037044840714 0.0037701305809 
0.0038373220036 0.0027519258295 0.0027958285536 0.0028407847192 0.0028868010708 0.0030051095374 0.0030548180004 0.0031055662182 0.0031573820037 
0.0032103090394 0.0032643915516 0.0033196916576 0.0033762785147 0.003434211716 0.0034940076342 0.0035548431237 0.0036172992631 0.0036814570235 
0.0037469925804 0.0038141335353 0.0038828915613 0.0027755289241 0.002820007671 0.002865544938 0.0029121524382 0.0030339249893 0.0030844008189 
0.0031359637716 0.0031886447081 0.0032424882651 0.0032975430942 0.0033538645821 0.0034115348509 0.0034710209499 0.003531573528 0.0035937561994 
0.0036574486982 0.0037229962559 0.0037899877066 0.003858658441 0.00392902182 0.0027996557004 0.0028447154337 0.0028908392983 0.0029380440822 
0.0030633374483 0.0031145831649 0.0031669663235 0.0032205267676 0.0032752985366 0.0033313366795 0.0033887093321 0.003447481749 0.0035081115815 
0.0035699823858 0.0036333670426 0.0036986326179 0.0037653872608 0.0038338761853 0.0039041211116 0.0039761291086 0.0028245697929 0.0028702145303 
0.0029169367914 0.0029647457708 0.0030935964532 0.0031456226153 0.0031988437918 0.0032532995663 0.0033090244473 0.0033660821418 0.003424530146 
0.0034848101466 0.0035462544184 0.0036093851375 0.0036740982667 0.0037407582815 0.0038089819752 0.003879015907 0.0039508772593 0.0040245885625 
0.002850463135 0.0028967169584 0.002944054077 0.0029924902611 0.0031249010279 0.0031777276431 0.0032318113124 0.003287186449 0.0033438982617 
0.0034019883869 0.003461917429 0.0035230023144 0.00358577172 0.0036501185859 0.0037164378278 0.0037843102562 0.003854051175 0.0039256760116 
0.0039992199273 0.0040746912112 0.0028774933716 0.0029243819388 0.0029723606165 0.0030214456846 0.0031573878416 0.0032110448052 0.0032660138129 
0.0033223482635 0.0033800625264 0.0034395943816 0.003500312461 0.0035626068639 0.0036266601441 0.0036923609455 0.0037600820104 0.0038294748983 
0.0039007837349 0.0039740676379 0.0040493492948 0.0041263893898 0.0029057646525 0.0029533149951 0.0030019670281 0.0030517288263 0.0031911330052 
0.0032456495853 0.0033015458127 0.0033588570286 0.003417632703 0.0034782779726 0.0035401793672 0.0036038237478 0.003669118101 0.0037362223104 
0.0038054221555 0.0038763581921 0.0039493052456 0.0040243093519 0.0041011422308 0.0041803075281 0.0029353338708 0.0029835813135 0.0030329359533 
0.0030834079219 0.0032261633785 0.003281578216 0.0033384277676 0.0033967614282 0.0034569565492 0.0035184271803 0.0035815648913 0.0036465131906 
0.0037131862025 0.0037819518696 0.0038524669284 0.0039250174576 0.0039996589055 0.0040764435212 0.0041551410156 0.0042362834356 0.0029662187738 
0.0030151953257 0.003065286168 0.0031165034061 0.003262454754 0.0033187862579 0.0033766328041 0.0034363312736 0.0034973467609 0.0035600234482 
0.0036245191298 0.0036907303819 0.0037588289956 0.0038290933238 0.0039011907148 0.0039754216854 0.0040518266503 0.0041302090049 0.004211100607 
0.004294282981 0.0029983824349 0.0030481200315 0.0030989793336 0.0031509732373 0.0032998992601 0.003357197771 0.0034160725628 0.0034768604268 
0.0035390445377 0.0036029619562 0.0036687766173 0.0037363830346 0.0038061432317 0.0038777696236 0.003951523847 0.004027485406 0.0041057179764 
0.0041860188126 0.0042689288521 0.0043542274586 0.0030309016261 0.0030801552592 0.0031306511349 0.0031824540118 0.0033371627878 0.003396326327 
0.0034575811869 0.0035206365276 0.0035856261152 0.0036526511956 0.0037215701556 0.0037925014173 0.0038656832903 0.0039408151305 0.004018104375 
0.004097610901 0.0041791235497 0.004263595577 0.0043499736683 0.0044388096198 0.003061997236 0.0031123275209 0.0031639582224 0.003216871868 
0.0033796142791 0.003440152358 0.0035025190037 0.0035668186557 0.0036330615309 0.0037013673414 0.0037715960356 0.0038438702746 0.0039184556077 
0.0039950346265 0.0040738406173 0.0041549314213 0.0042385253038 0.0043243492103 0.0044127145972 0.0045034152684 0.0030937747527 0.0031451813465 
0.003197882295 0.0032520073786 0.0034222618241 0.0034842121936 0.003547871624 0.003613465264 0.0036811175937 0.0037506785641 0.0038222816061 
0.0038959719329 0.003972017705 0.0040501143643 0.0041305079144 0.0042134188954 0.0042985993121 0.0043863865097 0.0044765946707 0.0045693071759 
0.0031258643007 0.0031783345127 0.0032321817586 0.0032874608213 0.0034652706915 0.0035283217106 0.0035933128763 0.0036602620032 0.0037292864794 
0.0038002425429 0.0038732702172 0.0039485955678 0.0040260018444 0.0041056825063 0.0041881235086 0.0042725155132 0.0043595347264 0.0044490776879 
0.0045412484967 0.0046360624904 0.0031579549325 0.0032114761552 0.0032664159391 0.0033228209206 0.0035076966015 0.0035721115814 0.003638479738 
0.0037068957287 0.0037772432478 0.0038496388827 0.0039241448699 0.0040009852157 0.0040799717632 0.0041616777972 0.0042453426676 0.0043316322965 
0.0044204666779 0.0045119795712 0.0046061844739 0.0047031542356 0.0031895939691 0.0032441481015 0.0033001494725 0.0033576680118 0.0035493783512 
0.0036151751717 0.0036829364615 0.0037527635358 0.0038245480097 0.0038984104324 0.0039744346306 0.0040528538306 0.0041338145818 0.004217000583 
0.0043022660766 0.0043903328803 0.0044810952648 0.0045745810499 0.0046708559858 0.0047699935093 0.0032203733627 0.0032759198885 0.0033329689133 
0.0033915733678 0.0035899184028 0.0036571022387 0.0037262679767 0.0037975247865 0.0038707679707 0.0039461251027 0.0040238148294 0.004104055135 
0.0041864768589 0.0042709555922 0.0043582338344 0.0044481492806 0.004540820238 0.0046362977845 0.0047346623084 0.0048359851064 0.0028937208837 
0.0029389680214 0.002985286713 0.003032689841 0.003146514666 0.0031974183982 0.0032493197738 0.0033022564099 0.0033562668814 0.0034113979729 
0.0034677000482 0.0035252254757 0.0035840319402 0.003644170822 0.0037056923806 0.0037686284667 0.0038335106533 0.0038997544487 0.0039670966754 
0.0040360106297 0.0029206892919 0.0029666225579 0.0030136368062 0.0030617606689 0.0031788917673 0.0032306838359 0.0032835189911 0.003337430663 
0.0033924580878 0.0034486615262 0.00350608012 0.0035647683606 0.0036247887665 0.0036861941726 0.00374904115 0.0038138428196 0.0038797800329 
0.0039474015714 0.0040163743596 0.0040869333602 0.0029473854346 0.0029939946378 0.0030416991555 0.0030905294357 0.0032110934274 0.0032637615518 
0.0033175185397 0.0033723993902 0.0034284505293 0.0034857134396 0.0035442493095 0.003604110814 0.0036653517867 0.0037280466934 0.0037926894797 
0.003858516855 0.0039258316994 0.0039949944095 0.0040655676017 0.0041377945133 0.0029740559712 0.0030213277607 0.0030697161958 0.0031192373132 
0.0032433504503 0.0032968899415 0.0033515632205 0.0034074157833 0.003464487153 0.0035228224995 0.0035824816245 0.0036435269496 0.0037060090842 
0.0037704375747 0.0038359899918 0.0039032435583 0.0039722840267 0.0040427834589 0.0041149880954 0.0041889189039 0.0030009406852 0.0030488759709 
0.0030979405693 0.0031481548944 0.0032759062061 0.0033303131554 0.0033859095425 0.0034427357459 0.0035008383547 0.0035602577996 0.0036210552157 
0.0036833025551 0.0037470436189 0.0038127762009 0.0038798088087 0.0039484304716 0.0040189918409 0.0040910891245 0.0041649652799 0.0042406428827 
0.0030282673933 0.0030768762733 0.0031266199327 0.0031775285174 0.0033089826964 0.0033642688925 0.0034207942955 0.003478605005 0.0035377496314 
0.0035982683415 0.0036602331492 0.0037236998195 0.0037891248903 0.003855800496 0.0039242519867 0.0039946084201 0.0040664863813 0.0041402213334 
0.0042158102388 0.0042932816822 0.0030562444448 0.0031055338539 0.0031559713402 0.0032075794691 0.0033427825471 0.0033989543113 0.0034564228812 
0.0035152401857 0.0035754428113 0.0036370944799 0.0037002449292 0.0037653420741 0.0038317041562 0.0038998465646 0.0039696680296 0.0040415235859 
0.0041150361956 0.0041904509028 0.0042678037682 0.0043471133307 0.0030850488208 0.0031350268787 0.0031861689861 0.0032384964698 0.0033774586179 
0.0034345328215 0.0034929677954 0.0035528087723 0.003614105591 0.0036769029958 0.0037416378874 0.003807655828 0.0038754566388 0.0039449416001 
0.0040164941068 0.0040896939331 0.0041648573048 0.0042420063325 0.004321172041 0.004402383784 0.0031147962111 0.0031654900284 0.0032173620002 
0.0032704278524 0.0034131219454 0.0034711209922 0.0035305407087 0.0035914423778 0.0036538492024 0.00371782486 0.0037838184393 0.0038511533446 
0.003920358393 0.0039913146278 0.0040643937138 0.0041392381487 0.0042161083353 0.0042950381179 0.0043760804752 0.0044590081563 0.0031455823634 
0.0031970172344 0.0032496396825 0.0033034682054 0.0034498297346 0.0035087791155 0.003569223363 0.0036312012005 0.0036947513108 0.0037603044409 
0.003827232829 0.0038960236305 0.0039665842763 0.004039060632 0.0041137328347 0.0041902559802 0.0042688767225 0.0043496645923 0.0044323939381 
0.0045175880323 0.0031774502697 0.0032296568544 0.0032830594627 0.0033376792392 0.003487596634 0.0035475314222 0.0036090163748 0.0036721002959 
0.003737170699 0.0038036462485 0.0038719100341 0.0039421129976 0.0040141586465 0.0040884101294 0.0041645184292 0.0042427675507 0.0043232191753 
0.0044059073852 0.0044906345719 0.0045779309714 0.0032104185851 0.0032634211764 0.0033176292862 0.003373071348 0.0035263879895 0.0035873320505 
0.0036498839586 0.0037144254569 0.00378040406 0.0038481821753 0.003917905037 0.0039894729354 0.0040630487446 0.0041389079045 0.004216716908 
0.0042967595992 0.0043790903718 0.0044635073432 0.0045505521155 0.0046400139862 0.0032444454112 0.003298272451 0.0033533150866 0.0034096044928 
0.0035661210293 0.0036280856137 0.0036917546906 0.0037574647104 0.0038247068376 0.0038938136939 0.0039649543039 0.0040380143122 0.0041131658107 
0.0041906819265 0.0042702583097 0.0043521452867 0.0044364190792 0.0045228732722 0.0046120569419 0.0047037612149 0.003276938837 0.0033302628386 
0.0033849182609 0.0034409669404 0.0036087618145 0.0036720842449 0.0037376817475 0.003805269306 0.0038749777694 0.00394691798 0.0040209405699 
0.0040971506651 0.0041757902208 0.0042565370739 0.0043396039244 0.0044250428757 0.0045126373076 0.0046033351513 0.0046960935613 0.0047914706392 
0.0033094790073 0.0033639316787 0.003419757137 0.0034769923292 0.0036528240589 0.0037173708968 0.0037844324804 0.0038533726098 0.0039244485051 
0.0039977725766 0.0040732151842 0.0041508918392 0.0042310379524 0.0043133586842 0.004398064326 0.004485207573 0.0045749989404 0.0046671691148 
0.0047620351688 0.0048593997671 0.0033425583353 0.0033981285081 0.0034550908131 0.0035135725425 0.0036969299866 0.0037632256009 0.0038314324292 
0.0039017696706 0.0039743537732 0.0040490473267 0.0041259749828 0.0042051725968 0.0042869037035 0.0043708526895 0.0044572592811 0.0045463345385 
0.004637831341 0.0047321105635 0.0048289066332 0.0049284042616 0.0033758673423 0.003432553218 0.0034907067525 0.0035503943736 0.0037412857014 
0.0038087958783 0.0038784288112 0.0039502176465 0.0040242782593 0.004100470728 0.0041789293776 0.0042598703961 0.0043430701141 0.0044287126806 
0.0045172739441 0.0046077941759 0.0047013902123 0.0047975017002 0.0048964209345 0.0049981330383 0.0034091716692 0.0034669651306 0.0035262633329 
0.0035871298886 0.0037850731491 0.0038540337008 0.0039251449654 0.0039984187745 0.0040739840999 0.004151720917 0.0042317593565 0.0043143193194 
0.0043992032769 0.0044869746205 0.0045768733824 0.0046695532457 0.004764916593 0.0048631260074 0.0049641922279 0.0050681772859 0.0034421453931 
0.00350101307 0.0035614295323 0.0036234666575 0.0038282176779 0.0038986617186 0.0039712639407 0.0040461300274 0.0041231562906 0.0042024540914 
0.0042841119248 0.0043683281816 0.0044553122171 0.0045446668228 0.0046362680995 0.0047308255296 0.0048282449429 0.0049285413103 0.0050317920978 
0.005138083434 0.0034744685069 0.0035343946079 0.0035959052291 0.0036590880126 0.0038704492776 0.0039423800886 0.0040164846621 0.0040928845498 
0.0041714658612 0.0042523620464 0.0043356571237 0.0044219455796 0.004510470426 0.0046012243332 0.0046949424547 0.0047914583486 0.0048909103619 
0.0049933256398 0.0050987978153 0.0052074136989 0.0031056698428 0.0031540331657 0.003203528897 0.0032541759826 0.0033733324622 0.0034277621797 
0.0034832771623 0.0035399173031 0.0035977225367 0.0036567426239 0.0037170173454 0.0037786029491 0.0038415485235 0.003905901682 0.0039717206778 
0.0040390296885 0.004108359806 0.0041788634749 0.0042511163785 0.0043247525133 0.0031354923687 0.0031846158206 0.0032348865544 0.0032863256198 
0.0034089241069 0.0034643288331 0.0035208655276 0.0035785703977 0.0036374853399 0.0036976719891 0.0037591627213 0.0038220141954 0.0038862799269 
0.0039520118289 0.0040192645616 0.0040885498086 0.0041590546924 0.0042313296031 0.0043050550161 0.0043804667179 0.0031651666901 0.0032150414582 
0.0032660758538 0.0033183068206 0.0034444862577 0.0035008591083 0.0035584089387 0.0036171789046 0.0036772117726 0.0037385648145 0.0038012773211 
0.0038654055941 0.0039310050436 0.0039981341701 0.0040673000645 0.0041376510151 0.0042097367936 0.004283679512 0.0043591300588 0.0044363414671 
0.00319487207 0.0032454919872 0.003297292386 0.0033503019406 0.0034801834023 0.0035375201734 0.0035960864415 0.0036559261708 0.00371708649 
0.0037796080249 0.0038435543393 0.0039089748619 0.0039759283208 0.0040449099256 0.0041151172378 0.0041870879733 0.0042609398118 0.0043363478774 
0.0044135609681 0.0044926067405 0.0032247933077 0.003276158751 0.0033287275704 0.0033825129366 0.0035162004988 0.0035745016462 0.0036340865805 
0.0036950015428 0.0037572943582 0.0038210016857 0.0038861963058 0.0039529361232 0.0040212626422 0.0040916677407 0.0041634636535 0.0042369378777 
0.0043124444779 0.0043895802882 0.0044685933945 0.0045495194931 0.0032551047316 0.0033072263869 0.0033605587182 0.0034151301107 0.0035526943705 
0.0036119715584 0.0036725854197 0.0037345872534 0.0037980259699 0.0038629437952 0.0039294111625 0.0039974836786 0.0040676081853 0.0041390782044 
0.0042124169879 0.0042877487976 0.004364698418 0.0044436009332 0.0045244625723 0.0046073178158 0.0032859704989 0.0033388563015 0.0033929680559 
0.003448330353 0.0035898255051 0.0036500850757 0.0037117388197 0.0037748436747 0.0038394482219 0.0039056037897 0.0039733643442 0.0040431717566 
0.0041143503437 0.0041874078164 0.0042622371056 0.0043391950144 0.0044179060072 0.004498620961 0.0045813764853 0.0046662096419 0.0033175390267 
0.0033711983152 0.0034260943212 0.0034822705669 0.0036277058405 0.0036889632492 0.0037516810409 0.0038159119159 0.0038817071265 0.0039491166516 
0.0040185599133 0.004089402476 0.0041620452928 0.0042366449723 0.0043130943622 0.0043917504538 0.0044722389482 0.0045548169904 0.0046395176895 
0.0047263917751 0.0033499022559 0.0034043602256 0.0034600678957 0.0035170643249 0.0036664223957 0.003728695845 0.003792494732 0.0038578809537 
0.0039248859171 0.0039935717326 0.0040643777741 0.0041366505407 0.0042108860798 0.0042869862193 0.0043653275084 0.0044455015781 0.0045278216806 
0.0046123111206 0.0046990216633 0.0047877418464 0.0033831439408 0.0034384130898 0.0034949540969 0.0035527942301 0.0037060161537 0.0037693272721 
0.0038342317099 0.0039007907571 0.003969035325 0.0040393949959 0.0041112415136 0.0041850724477 0.0042607740867 0.0043385030154 0.0044185385512 
0.0045005276756 0.0045847213136 0.0046711876807 0.0047599677069 0.0048508414998 0.0034172940015 0.0034734058488 0.0035307981979 0.0035895107705 
0.0037464922628 0.0038108645986 0.0038769049134 0.003944658822 0.0040145076841 0.0040858869918 0.0041591683734 0.0042345100327 0.0043118071713 
0.0043914211007 0.0044730024345 0.0045568335894 0.0046429785347 0.0047314702397 0.0048221244104 0.0049154682041 0.0034523681775 0.0035093444712 
0.0035676151832 0.0036272177223 0.0037878078135 0.0038532714649 0.0039204621369 0.0039894540488 0.004060600085 0.0041333749295 0.0042082129102 
0.004285016464 0.0043639494833 0.0044452817078 0.0045286709013 0.0046144070159 0.0047025464294 0.0047928885384 0.004885981794 0.0049816191516 
0.0034883279311 0.0035461937173 0.0036053654083 0.0036658851925 0.0038298877739 0.0038964527064 0.0039648310202 0.0040353775355 0.0041075744293 
0.0041817675673 0.0042581168426 0.0043365097192 0.0044171224919 0.0045002128598 0.0045854713832 0.0046731690864 0.0047633617499 0.0048558571552 
0.0049512059707 0.0050492097313 0.0035209355308 0.0035782766827 0.0036370313072 0.0036972642765 0.0038779109435 0.003945315268 0.0040152031287 
0.0040872562319 0.0041616118523 0.0042383754427 0.0043174001457 0.0043987823881 0.0044827665739 0.0045690122071 0.0046577441181 0.0047489938108 
0.0048425551532 0.0049393705743 0.005038409662 0.0051402197897 0.0035550986266 0.0036136152868 0.0036735973868 0.0037350754454 0.0039237380244 
0.003992510929 0.00406395465 0.004137466098 0.0042133007815 0.0042915572827 0.0043721139107 0.0044550748832 0.0045406754674 0.0046286150531 
0.004719099032 0.004812173857 0.0049080511904 0.0050064606259 0.0051077487934 0.0052116332702 0.0035896989317 0.003649389638 0.0037105581097 
0.0037733448427 0.0039695345514 0.0040401454927 0.0041128463395 0.0041878592085 0.0042652184573 0.0043450356132 0.0044271850441 0.0045117793562 
0.0045990736401 0.0046887576016 0.0047810562224 0.0048761790451 0.0049738810402 0.0050745124694 0.0051778232796 0.0052840164016 0.0036245211518 
0.0036853321296 0.0037477580967 0.0038118061091 0.0040155228588 0.0040874471645 0.0041616761689 0.0042382410442 0.0043172628136 0.0043986014074 
0.0044823928036 0.0045686747357 0.0046577082944 0.0047491943537 0.0048437579025 0.0049404443184 0.0050403541279 0.0051429481255 0.0052485026506 
0.0053570288135 0.0036592956949 0.0037213067092 0.0037849195203 0.0038502032647 0.0040609596476 0.0041344359132 0.0042102379458 0.0042883914646 
0.0043690236022 0.0044520063584 0.0045374768973 0.0046256466691 0.0047163163486 0.0048100363021 0.0049059001762 0.0050050053578 0.005106804747 
0.0052116182991 0.0053194433088 0.0054303640277 0.0036938574733 0.0037570030462 0.0038218025031 0.0038883120421 0.0041058522275 0.0041809089796 
0.0042583035995 0.0043381524651 0.0044203417793 0.0045050017443 0.0045921875697 0.0046821189329 0.0047749922046 0.004870380931 0.0049682356007 
0.0050692079474 0.0051731440538 0.0052801706179 0.0053903235234 0.0055036759518 0.0037279427456 0.0037922078199 0.0038581511112 0.0039258748809 
0.0041500056904 0.0042266548932 0.0043056521845 0.0043871348317 0.0044709857483 0.0045573415884 0.004646277868 0.0047383843793 0.0048329077572 
0.0049300710448 0.005029892031 0.0051329159156 0.0052390468362 0.0053483105777 0.0054608058445 0.0055766301286 0.0033168256306 0.0033682912952 
0.0034209487853 0.0034748180335 0.0035992792806 0.0036572149943 0.0037163138179 0.0037766195267 0.0038381746972 0.0039010278509 0.0039652277087 
0.0040308139225 0.0040978398921 0.0041663530438 0.0042364095285 0.004308038236 0.004381755644 0.0044567539501 0.0045335814135 0.0046118917782 
0.0033493273613 0.0034016199779 0.0034551268529 0.0035098669612 0.0036378983565 0.003696887418 0.003757089077 0.0038185474365 0.0038813080655 
0.0039454159035 0.0040109169616 0.0040778699727 0.0041463181566 0.0042163147674 0.0042879132312 0.0043616133035 0.0044366366282 0.0045135617686 
0.004591926379 0.0046721328612 0.0033817809381 0.0034348981843 0.0034892448827 0.0035448510749 0.0036766008663 0.0037366424512 0.0037979484872 
0.0038605624986 0.0039245269884 0.0039899012255 0.0040567234434 0.0041250531237 0.0041949393888 0.0042664353875 0.0043400528668 0.0044149438821 
0.004491655478 0.0045703160249 0.0046505812787 0.0047327097828 0.0034143153434 0.0034682571433 0.0035234423326 0.0035799110756 0.0037155133413 
0.0037766068998 0.0038390169389 0.0039027900585 0.0039679716123 0.004034619027 0.0041027767849 0.0041725008237 0.0042438466554 0.0043168782853 
0.0043920793576 0.0044687053855 0.0045473401614 0.0046275523035 0.0047097005735 0.0047937908648 0.0034470721608 0.0035018392528 0.0035578737048 
0.003615198115 0.003754763311 0.0038169147699 0.0038804334987 0.0039453775672 0.0040117946102 0.0040797252626 0.0041492346147 0.0042203729403 
0.0042932096154 0.004368211276 0.0044446804469 0.0045229277932 0.0046032945843 0.0046853908961 0.0047694692152 0.0048555684585 0.0034801946425 
0.0035357879976 0.0035926705757 0.0036508662418 0.0037944745921 0.0038576874298 0.003922332458 0.0039884582233 0.0040561183079 0.0041253541857 
0.0041962362983 0.0042688281907 0.0043435604245 0.004419732665 0.0044978674287 0.0045778447235 0.0046600232258 0.0047440103868 0.0048300640389 
0.00491822056 0.0035138017552 0.0035702393308 0.0036279758358 0.0036870509387 0.0038347546263 0.0038990433612 0.0039648220023 0.0040321448829 
0.0041010678998 0.004171636324 0.00424392309 0.0043183506579 0.0043942446977 0.0044721172533 0.0045518580485 0.0046338221147 0.0047176386726 
0.0048035645516 0.0048916398454 0.0049819084708 0.0035480126197 0.0036053024683 0.0036639078939 0.0037238707124 0.0038756984146 0.0039410730129 
0.0040080034982 0.0040765433373 0.0041467509861 0.0042186823622 0.0042923763989 0.0043683138006 0.0044457817127 0.0045253074797 0.0046067818364 
0.0046905613906 0.004776276287 0.0048641878305 0.0049543325763 0.0050467688291 0.0035829056291 0.0036410665544 0.0037005587792 0.0037614294354 
0.0039173627843 0.0039838407794 0.0040519410532 0.0041217210248 0.0041932446994 0.00426654356 0.0043420698451 0.0044191725507 0.0044983359069 
0.0045794718497 0.0046629460678 0.0047483632533 0.0048360268198 0.00492597478 0.0050182551526 0.005112669553 0.0036185452857 0.0036775937927 
0.003737995783 0.0037997883566 0.0039597742204 0.0040273743992 0.004096665623 0.0041677176978 0.0042405659266 0.004315627772 0.0043922958986 
0.0044709651562 0.0045517883784 0.0046346625379 0.0047199406894 0.0048072856722 0.0048969494834 0.0049889850267 0.0050834585595 0.0051801545327 
0.0036549607741 0.0037149218252 0.0037762483288 0.0038389853999 0.0040029290864 0.004071669185 0.0041421816574 0.0042145141327 0.0042890523888 
0.0043652370746 0.0044434252381 0.0045237953102 0.0046062270252 0.0046908826504 0.0047780272273 0.004867331459 0.0049590447209 0.0050532404082 
0.0051497079385 0.0052489975717 0.0036921617871 0.0037530521538 0.0038153287865 0.0038790306481 0.0040467816103 0.0041166907854 0.0041884357719 
0.0042620884788 0.0043380130106 0.004415674437 0.0044954347459 0.0045774496539 0.0046616155913 0.0047482970296 0.0048371588024 0.0049284656307 
0.005022296337 0.005118698161 0.0052174789501 0.0053191875289 0.0037301121361 0.0037919574236 0.0038552030718 0.0039198907134 0.0040912560846 
0.0041623498532 0.0042353599298 0.0043106482026 0.0043877017734 0.0044668766994 0.0045483198526 0.0046319389716 0.004717880477 0.0048064204653 
0.0048972526789 0.004990633006 0.0050866284743 0.0051850502418 0.0052864500232 0.0053906421834 0.0037629532603 0.0038242518013 0.0038870417941 