# vtk DataFile Version 5.1
vtk output
ASCII
DATASET STRUCTURED_POINTS
DIMENSIONS 30 30 30
SPACING 0.01 0.01 0.01
ORIGIN 1.555 -0.145 0.855
POINT_DATA 27000
FIELD FieldData 1
potential 1 27000 double
0.0010443521329 0.0010427540831 0.0010411605388 0.0010395715609 0.0010379871281 0.0010364071005 0.0010348316432 0.0010332605735 0.0010316940598 
0.0010301319943 0.0010285743206 0.0010270211272 0.001025472402 0.0010239280816 0.0010223882169 0.0010208527211 0.0010193216367 0.0010177949638 
0.0010162727616 0.0010147549749 0.0010132415717 0.0010117325928 0.0010102279137 0.0010087275846 0.0010072316566 0.0010057400794 0.0010042529219 
0.0010027700621 0.0010012915603 0.00099981729965 0.0010450402066 0.0010434406298 0.001041845662 0.0010402552954 0.0010386693385 0.0010370879755 
0.001035511018 0.0010339385271 0.0010323705641 0.0010308070567 0.0010292479532 0.0010276933529 0.0010261431907 0.0010245975211 0.0010230562206 
0.0010215193317 0.0010199868887 0.0010184588602 0.0010169352771 0.0010154161171 0.0010139013201 0.001012391035 0.0010108849887 0.0010093833477 
0.0010078860983 0.001006393223 0.0010049047115 0.0010034205377 0.0010019407173 0.0010004651721 0.001045730667 0.0010441296331 0.0010425331788 
0.001040941317 0.0010393540542 0.0010377711594 0.0010361927625 0.0010346188412 0.0010330493663 0.0010314844348 0.0010299239148 0.0010283678901 
0.0010268163545 0.0010252692859 0.0010237266139 0.0010221882979 0.0010206544563 0.0010191250657 0.0010176001072 0.0010160796152 0.0010145635299 
0.0010130517742 0.0010115443968 0.00101004143 0.0010085428236 0.0010070485819 0.0010055587539 0.001004073282 0.0010025921112 0.0010011153525 
0.0010464236104 0.0010448210793 0.0010432231993 0.0010416299396 0.001040041086 0.0010384567654 0.0010368769362 0.0010353015261 0.0010337306597 
0.0010321642493 0.0010306023125 0.0010290448589 0.0010274919265 0.0010259433972 0.0010243993205 0.0010228596854 0.0010213244546 0.0010197937259 
0.0010182673542 0.001016745548 0.0010152279948 0.0010137148653 0.0010122061464 0.0010107018619 0.0010092019409 0.0010077063442 0.0010062151602 
0.0010047283488 0.0010032458749 0.0010017678174 0.0010471190634 0.0010455151184 0.0010439157404 0.0010423209046 0.0010407305969 0.0010391447917 
0.0010375635109 0.0010359866631 0.0010344143542 0.0010328464913 0.0010312831834 0.0010297242657 0.0010281698869 0.0010266199736 0.0010250744747 
0.001023533444 0.0010219968644 0.0010204647278 0.001018936974 0.0010174138018 0.0010158949088 0.0010143804222 0.0010128703451 0.0010113646869 
0.0010098634142 0.0010083664802 0.0010068739921 0.0010053858343 0.0010039020371 0.0010024226622 0.0010478170596 0.0010462116199 0.0010446108428 
0.0010430145093 0.0010414227089 0.001039835409 0.0010382526001 0.0010366743231 0.0010351005885 0.001033531311 0.0010319665826 0.0010304063057 
0.0010288504161 0.0010272990339 0.0010257521694 0.001024209736 0.0010226717602 0.0010211382675 0.001019609181 0.0010180845459 0.0010165642623 
0.0010150484143 0.0010135370066 0.0010120299762 0.0010105273417 0.0010090291129 0.0010075352665 0.0010060457621 0.0010045606599 0.0010030799652 
0.0010485176833 0.0010469108206 0.001045308525 0.0010437106782 0.0010421173409 0.0010405285923 0.0010389443516 0.0010373646001 0.0010357893841 
0.0010342186526 0.0010326524454 0.0010310908081 0.0010295335461 0.0010279807049 0.0010264323906 0.0010248885866 0.0010233492049 0.0010218143012 
0.0010202838681 0.0010187578043 0.0010172361766 0.0010157189591 0.0010142061679 0.0010126977753 0.0010111937898 0.0010096941136 0.0010081989832 
0.0010067082321 0.0010052218022 0.0010037397646 0.0010492209403 0.0010476126672 0.0010460087838 0.0010444094714 0.0010428146885 0.0010412244315 
0.0010396386818 0.0010380575169 0.0010364808545 0.0010349086912 0.0010333410381 0.0010317779108 0.0010302192117 0.0010286650409 0.0010271152554 
0.0010255699977 0.0010240292086 0.0010224929879 0.0010209611316 0.0010194336766 0.001017910662 0.0010163920736 0.00101487789 0.001013368133 
0.0010118627767 0.001010361802 0.0010088652461 0.0010073731904 0.0010058854103 0.0010044020572 0.0010499269934 0.0010483171148 0.0010467117599 
0.0010451109668 0.0010435146842 0.0010419229745 0.0010403357382 0.0010387530925 0.001037174942 0.0010356013426 0.0010340322364 0.0010324676243 
0.0010309075535 0.0010293519263 0.001027800799 0.0010262540615 0.001024711842 0.0010231742471 0.0010216409235 0.0010201121275 0.0010185877281 
0.0010170677541 0.0010155522115 0.001014041088 0.0010125343256 0.0010110320313 0.0010095341227 0.0010080406763 0.0010065516102 0.0010050669145 
0.0010506357232 0.001049024318 0.0010474174631 0.0010458151673 0.0010442174102 0.0010426241973 0.0010410354946 0.0010394513769 0.0010378717581 
0.0010362966995 0.0010347261351 0.0010331600592 0.0010315985706 0.0010300415331 0.001028488975 0.0010269408502 0.001025397306 0.0010238581807 
0.0010223234337 0.0010207931321 0.0010192674275 0.0010177460785 0.0010162291698 0.0010147165794 0.0010132085401 0.0010117048488 0.0010102056143 
0.0010087107792 0.0010072203581 0.0010057344159 0.0010513472459 0.0010497342918 0.0010481259353 0.001046522121 0.0010449228858 0.0010433281986 
0.0010417380141 0.0010401523793 0.0010385713 0.0010369947677 0.001035422727 0.0010338552282 0.0010322922292 0.0010307337875 0.0010291798209 
0.0010276303024 0.0010260853792 0.001024544739 0.0010230086435 0.0010214769821 0.0010199498056 0.001018427067 0.0010169087189 0.0010153948482 
0.0010138853691 0.001012380343 0.0010108797137 0.0010093835224 0.0010078917492 0.0010064044471 0.0010520615088 0.0010504470366 0.0010488371584 
0.0010472318415 0.0010456311075 0.0010440349173 0.0010424432538 0.0010408561429 0.0010392735855 0.0010376955852 0.0010361220933 0.0010345531271 
0.0010329886423 0.0010314287496 0.0010298733229 0.001028322492 0.0010267761032 0.0010252341218 0.0010236965569 0.0010221634753 0.0010206349057 
0.0010191107242 0.0010175910086 0.0010160757858 0.0010145649339 0.0010130585058 0.0010115564755 0.0010100589313 0.001008565762 0.0010070771141 
0.0010527785617 0.0010511625755 0.0010495511759 0.0010479443602 0.0010463421244 0.0010447444493 0.0010431512873 0.0010415626805 0.001039978603 
0.0010383990831 0.0010368241794 0.0010352537528 0.0010336878581 0.001032126466 0.0010305696332 0.0010290173971 0.0010274695562 0.001025926133 
0.0010243871996 0.0010228526799 0.0010213226559 0.0010197970875 0.0010182760131 0.0010167594011 0.0010152471334 0.0010137393572 0.0010122359583 
0.0010107370422 0.0010092425139 0.0010077525117 0.001053498431 0.0010518809169 0.0010502679648 0.0010486596448 0.00104705589 0.0010454567267 
0.0010438620706 0.0010422719795 0.0010406864665 0.0010391054356 0.0010375290502 0.0010359571662 0.0010343898174 0.0010328269753 0.0010312687783 
0.0010297149982 0.0010281656863 0.0010266208406 0.001025080524 0.0010235446405 0.0010220131548 0.0010204862033 0.0010189637368 0.0010174457289 
0.0010159321018 0.0010144229491 0.0010129181434 0.0010114178707 0.00100992197 0.0010084306064 0.0010542210903 0.0010526020421 0.0010509875937 
0.0010493777537 0.0010477724843 0.0010461718145 0.0010445756427 0.0010429841017 0.0010413970877 0.0010398145651 0.0010382367089 0.0010366633578 
0.001035094528 0.0010335302406 0.0010319705416 0.0010304153354 0.0010288645976 0.001027318343 0.0010257765894 0.0010242392317 0.0010227063956 
0.0010211780454 0.0010196542133 0.0010181347898 0.0010166197547 0.0010151092153 0.0010136030828 0.0010121013969 0.0010106041114 0.0010091113401 
0.0010549466147 0.0010533260251 0.0010517100588 0.0010500986761 0.0010484918875 0.001046889713 0.0010452920476 0.0010436989912 0.0010421104587 
0.0010405265283 0.0010389471422 0.0010373723188 0.0010358020332 0.0010342363653 0.0010326751192 0.0010311184147 0.0010295662908 0.0010280185871 
0.0010264753022 0.0010249366513 0.0010234024034 0.0010218726052 0.0010203473574 0.0010188265231 0.001017310122 0.0010157981841 0.0010142906588 
0.0010127876177 0.0010112889898 0.0010097948515 0.0010556748485 0.0010540527302 0.0010524352796 0.0010508223679 0.0010492140856 0.0010476103822 
0.0010460112124 0.0010444166504 0.0010428266122 0.0010412412063 0.0010396603613 0.0010380840422 0.0010365122995 0.0010349451673 0.0010333824615 
0.0010318242603 0.0010302707234 0.0010287215136 0.0010271768581 0.0010256367759 0.0010241010894 0.001022569895 0.0010210432263 0.0010195209893 
0.0010180031688 0.0010164898805 0.0010149809743 0.0010134765392 0.001011976584 0.0010104809852 0.0010564059413 0.0010547823208 0.0010531632699 
0.0010515488923 0.0010499390911 0.0010483338441 0.00104673317 0.0010451370696 0.0010435455747 0.0010419586959 0.0010403763537 0.0010387985416 
0.0010372254076 0.0010356566886 0.0010340924845 0.0010325328498 0.0010309777708 0.0010294272051 0.0010278811095 0.0010263395621 0.0010248025219 
0.0010232699317 0.0010217418413 0.0010202181596 0.0010186989389 0.0010171842292 0.0010156739397 0.0010141681227 0.0010126666959 0.0010111697401 
0.0010571398992 0.0010555147001 0.0010538941022 0.0010522781423 0.0010506667899 0.0010490600866 0.0010474579056 0.0010458602947 0.0010442672899 
0.001042678921 0.0010410950786 0.0010395158083 0.0010379411565 0.0010363709899 0.0010348053098 0.0010332441465 0.0010316876517 0.0010301356476 
0.0010285881111 0.001027045141 0.0010255066384 0.001023972623 0.0010224430915 0.0010209180137 0.0010193973986 0.0010178812538 0.0010163694873 
0.0010148622915 0.0010133595626 0.0010118612058 0.0010578765764 0.0010562498214 0.001054627719 0.0010530101975 0.0010513973274 0.0010497890272 
0.0010481853717 0.0010465862585 0.0010449917816 0.0010434018729 0.0010418165348 0.0010402357742 0.0010386596641 0.0010370879631 0.0010355207767 
0.0010339582445 0.0010324002289 0.0010308467922 0.0010292978396 0.0010277534049 0.0010262134347 0.0010246780072 0.0010231470528 0.0010216205525 
0.0010200984965 0.0010185808496 0.0010170677682 0.0010155591499 0.001014055046 0.0010125553372 0.0010586160103 0.0010569877034 0.001055363974 
0.0010537449844 0.0010521305411 0.0010505207612 0.00104891549 0.0010473148985 0.001045718951 0.0010441275453 0.0010425407181 0.0010409585481 
0.0010393808568 0.0010378076049 0.0010362390125 0.0010346749797 0.0010331155135 0.0010315605998 0.0010300102105 0.0010284643249 0.0010269229534 
0.0010253860623 0.0010238536775 0.0010223256657 0.0010208021962 0.0010192832123 0.0010177687169 0.0010162586895 0.0010147531401 0.0010132520213 
0.0010593581713 0.0010577282854 0.0010561030197 0.0010544824405 0.001052866504 0.0010512551693 0.0010496483633 0.0010480462775 0.001046448766 
0.0010448558991 0.0010432675635 0.0010416838882 0.001040104639 0.00103852999 0.0010369599071 0.0010353943846 0.0010338334482 0.0010322770292 
0.0010307252041 0.0010291778905 0.0010276350679 0.0010260966574 0.0010245628327 0.001023033478 0.0010215085558 0.0010199881771 0.0010184722502 
0.0010169608481 0.0010154538638 0.001013951299 0.0010601029875 0.0010584715209 0.0010568447489 0.0010552225895 0.0010536051285 0.0010519922507 
0.0010503839159 0.0010487802764 0.0010471812401 0.001045586814 0.0010439970818 0.0010424118106 0.0010408311044 0.0010392549865 0.0010376834107 
0.0010361164101 0.0010345539972 0.0010329961054 0.0010314428121 0.0010298940557 0.0010283496777 0.0010268099119 0.001025274618 0.0010237438283 
0.0010222175228 0.0010206956725 0.0010191783508 0.0010176655353 0.0010161571483 0.001014653198 0.0010608504369 0.0010592174006 0.0010575890408 
0.0010559653543 0.0010543462951 0.0010527318676 0.0010511220746 0.0010495169032 0.0010479163457 0.0010463204003 0.0010447290638 0.0010431422884 
0.0010415601232 0.0010399825534 0.0010384095123 0.001036841016 0.0010352771178 0.0010337177406 0.0010321628659 0.0010306126576 0.0010290669275 
0.0010275257034 0.0010259889649 0.0010244567476 0.0010229290315 0.0010214057692 0.0010198870242 0.0010183727951 0.0010168629958 0.0010153576377 
0.0010616004708 0.0010599658814 0.0010583359567 0.0010567107386 0.0010550901126 0.0010534740939 0.0010518627801 0.001050256075 0.0010486539897 
0.0010470564513 0.0010454636765 0.0010438753835 0.0010422916997 0.0010407125911 0.001039138111 0.0010375681734 0.0010360027032 0.0010344418508 
0.0010328855667 0.0010313339148 0.001029786733 0.00102824406 0.0010267058533 0.0010251721501 0.0010236430136 0.0010221183226 0.0010205982298 
0.0010190825514 0.0010175713219 0.0010160645506 0.0010623530509 0.0010607169075 0.0010590854027 0.0010574585985 0.0010558364684 0.001054218886 
0.0010526060301 0.0010509977156 0.0010493940999 0.0010477951068 0.0010462008124 0.0010446110218 0.0010430258113 0.0010414451933 0.0010398690936 
0.001038297635 0.0010367308114 0.0010351685168 0.001033610736 0.0010320576489 0.0010305089925 0.0010289648625 0.0010274251876 0.001025890071 
0.0010243594493 0.0010228333513 0.0010213118001 0.001019794695 0.0010182820405 0.0010167739046 0.0010631081159 0.0010614703596 0.0010598373366 
0.001058208967 0.0010565851902 0.001054966128 0.0010533516324 0.0010517419056 0.0010501367547 0.001048536321 0.0010469404153 0.0010453490027 
0.001043762289 0.0010421801649 0.001040602633 0.0010390296834 0.0010374613099 0.0010358975144 0.0010343382834 0.0010327836891 0.0010312336902 
0.0010296880547 0.0010281469497 0.0010266103821 0.0010250783253 0.0010235507447 0.0010220277859 0.0010205092511 0.0010189951739 0.0010174856273 
0.0010638656703 0.0010622263103 0.0010605917134 0.0010589617733 0.0010573364336 0.0010557157558 0.0010540997911 0.0010524884844 0.0010508817871 
0.0010492797463 0.0010476823023 0.0010460894649 0.0010445012352 0.001042917617 0.0010413385795 0.0010397641395 0.0010381942891 0.0010366289754 
0.0010350682763 0.0010335121199 0.0010319606302 0.001030413549 0.0010288710465 0.0010273330274 0.0010257995309 0.001024270525 0.0010227461104 
0.0010212261971 0.0010197106929 0.0010181996497 0.0010646255548 0.0010629846223 0.0010613484299 0.0010597169173 0.0010580899413 0.0010564677545 
0.0010548501966 0.001053237284 0.0010516290563 0.0010500255522 0.0010484265629 0.0010468322004 0.0010452424657 0.0010436573546 0.0010420768097 
0.0010405008738 0.0010389295089 0.0010373627329 0.0010358005289 0.0010342428928 0.0010326898979 0.0010311413583 0.0010295973816 0.0010280579049 
0.0010265230569 0.0010249926592 0.0010234667292 0.0010219453338 0.0010204283753 0.0010189159203 0.0010653876435 0.001063745144 0.0010621073445 
0.0010604741245 0.0010588456446 0.0010572218745 0.0010556027889 0.001053988362 0.0010523787379 0.001050773652 0.0010491731277 0.0010475772365 
0.0010459859807 0.0010443993359 0.0010428172987 0.0010412398403 0.0010396669839 0.0010380987327 0.0010365350254 0.0010349759256 0.0010334213634 
0.0010318713927 0.0010303259997 0.0010287849952 0.0010272486216 0.0010257167714 0.0010241894476 0.0010226666159 0.0010211482468 0.0010196343478 
0.0010566557457 0.001055036864 0.0010534225811 0.0010518129582 0.0010502078572 0.001048607353 0.0010470113044 0.0010454199715 0.0010438330429 
0.0010422505335 0.0010406726361 0.0010390993002 0.00103753043 0.0010359660648 0.001034406152 0.0010328507685 0.0010312998267 0.0010297532773 
0.0010282113102 0.0010266737903 0.001025140687 0.0010236120661 0.0010220879057 0.0010205680898 0.00101905273 0.0010175418283 0.0010160352771 
0.0010145331539 0.0010130353754 0.001011542005 0.0010573547653 0.0010557344032 0.0010541186724 0.001052507483 0.0010509010067 0.00104929898 
0.0010477015899 0.0010461086202 0.0010445201695 0.0010429362999 0.001041356945 0.0010397821232 0.0010382118123 0.0010366460369 0.001035084743 
0.0010335278436 0.0010319755111 0.0010304275755 0.0010288841848 0.0010273452526 0.0010258107997 0.0010242807515 0.0010227552595 0.0010212340815 
0.0010197173577 0.0010182050841 0.001016697182 0.0010151936907 0.0010136945948 0.0010121998916 0.0010580561696 0.0010564342728 0.0010548170776 
0.0010532043921 0.0010515963606 0.0010499929378 0.0010483939831 0.0010467996053 0.0010452097112 0.0010436243188 0.0010420435188 0.0010404672547 
0.0010388954802 0.0010373282422 0.0010357655343 0.0010342072723 0.0010326534433 0.0010311041444 0.0010295593696 0.0010280189907 0.0010264831329 
0.0010249517787 0.0010234247714 0.001021902273 0.0010203841879 0.0010188705259 0.0010173612892 0.0010158564038 0.0010143560087 0.0010128600576 
0.001058759916 0.0010571365769 0.0010555178017 0.0010539036492 0.0010522940936 0.0010506891568 0.0010490887388 0.0010474928486 0.0010459014779 
0.0010443146507 0.0010427323676 0.001041154648 0.001039581432 0.0010380127803 0.0010364486133 0.0010348889105 0.0010333337325 0.0010317829582 
0.0010302367865 0.0010286950363 0.0010271578529 0.0010256250388 0.0010240966458 0.0010225727202 0.0010210532898 0.0010195382625 0.0010180275896 
0.0010165214245 0.0010150196908 0.0010135223666 0.0010594661134 0.0010578412517 0.0010562209391 0.0010546053236 0.0010529943073 0.0010513878024 
0.0010497858796 0.0010481885243 0.0010465956333 0.001045007445 0.0010434236725 0.0010418444952 0.0010402697962 0.0010386997148 0.0010371340864 
0.0010355729489 0.0010340163234 0.001032464224 0.0010309166473 0.0010293734657 0.0010278348722 0.0010263005985 0.0010247708601 0.0010232455616 
0.0010217247088 0.0010202083554 0.0010186962751 0.0010171887715 0.0010156857122 0.0010141870072 0.0010601748461 0.0010585484322 0.0010569266474 
0.0010553095278 0.001053696903 0.0010520889091 0.0010504854842 0.0010488866292 0.0010472922997 0.0010457025993 0.0010441174377 0.0010425367405 
0.0010409606271 0.0010393890316 0.0010378219405 0.001036259415 0.001034701362 0.0010331478233 0.0010315988195 0.0010300543354 0.0010285142623 
0.0010269786308 0.0010254474816 0.0010239207942 0.0010223985304 0.0010208806954 0.0010193673757 0.0010178584682 0.001016354013 0.0010148539757 
0.0010608860482 0.0010592581172 0.0010576348012 0.0010560161945 0.0010544020426 0.0010527925375 0.0010511875818 0.0010495872399 0.0010479914352 
0.0010464002256 0.0010448136497 0.0010432315414 0.0010416538984 0.0010400809 0.001038512354 0.0010369483232 0.0010353888601 0.0010338338931 
0.0010322834624 0.0010307375904 0.0010291961066 0.0010276590762 0.0010261265083 0.0010245984291 0.0010230747586 0.001021555526 0.0010200408218 
0.0010185305937 0.0010170248001 0.0010155234082 0.0010615998184 0.0010599703585 0.0010583456135 0.0010567253932 0.0010551097322 0.0010534987069 
0.0010518922794 0.0010502904115 0.0010486930828 0.0010471003906 0.0010455122592 0.0010439287802 0.0010423497655 0.0010407751659 0.0010392052503 
0.0010376398018 0.001036078863 0.0010345224703 0.0010329706872 0.001031423326 0.0010298804194 0.0010283420032 0.0010268079736 0.0010252784986 
0.0010237534382 0.0010222328583 0.0010207167754 0.0010192051996 0.001017698104 0.0010161953549 0.001062316214 0.0010606852797 0.0010590589573 
0.0010574371862 0.0010558200521 0.0010542074687 0.0010525995417 0.0010509961512 0.0010493973913 0.0010478032055 0.0010462135868 0.0010446285651 
0.0010430480531 0.0010414721074 0.001039900661 0.0010383337698 0.0010367713913 0.0010352135787 0.0010336603532 0.0010321115674 0.0010305672076 
0.0010290273852 0.0010274920327 0.0010259610607 0.0010244347049 0.0010229127389 0.0010213953078 0.0010198822763 0.001018373759 0.0010168696924 
0.0010630352732 0.0010614028187 0.0010597749084 0.0010581516391 0.0010565329609 0.0010549188896 0.0010533094189 0.0010517045156 0.001050104262 
0.0010485085847 0.0010469174809 0.0010453309452 0.0010437490118 0.0010421715816 0.0010405987058 0.0010390303411 0.0010374664637 0.0010359073144 
0.0010343525673 0.001032802349 0.0010312565437 0.0010297153126 0.0010281785436 0.0010266462984 0.001025118464 0.0010235951051 0.0010220762869 
0.0010205618719 0.0010190519259 0.0010175464929 0.0010637570624 0.0010621229894 0.0010604935297 0.0010588687043 0.0010572484995 0.0010556329379 
0.0010540219331 0.0010524155275 0.0010508137672 0.0010492165941 0.0010476240053 0.0010460359287 0.0010444525705 0.0010428736508 0.0010412993017 
0.0010397295117 0.0010381642083 0.00103660359 0.001035047388 0.0010334957371 0.0010319485822 0.0010304058741 0.0010288676774 0.001027333989 
0.0010258047866 0.0010242800429 0.0010227597608 0.0010212439828 0.0010197326615 0.0010182258542 0.0010644814459 0.0010628458273 0.0010612148337 
0.0010595884811 0.0010579667432 0.0010563496382 0.0010547371253 0.0010531291905 0.0010515258898 0.0010499272213 0.0010483331379 0.0010467436045 
0.0010451586697 0.0010435783727 0.0010420025553 0.0010404313252 0.0010388646879 0.0010373024943 0.0010357448735 0.0010341917717 0.0010326430874 
0.0010310990024 0.0010295594094 0.0010280243129 0.0010264936669 0.001024967539 0.0010234458771 0.0010219286661 0.0010204160154 0.0010189077545 
0.00106520856 0.0010635713841 0.0010619388087 0.0010603109112 0.0010586876639 0.0010570689997 0.0010554549649 0.0010538455323 0.0010522407302 
0.0010506405526 0.0010490449745 0.0010474539491 0.0010458675215 0.0010442857442 0.0010427084669 0.001041135717 0.0010395676542 0.0010380040368 
0.0010364449379 0.0010348903335 0.0010333402748 0.0010317947446 0.0010302537205 0.0010287172311 0.0010271852405 0.0010256576735 0.0010241345757 
0.0010226159787 0.0010211019313 0.0010195922371 0.001065938389 0.0010642996112 0.0010626655109 0.0010610360648 0.0010594112757 0.0010577911127 
0.0010561755402 0.0010545645706 0.0010529582465 0.0010513565653 0.0010497594324 0.0010481669594 0.0010465790474 0.0010449957201 0.0010434170375 
0.0010418429226 0.0010402732886 0.0010387082014 0.0010371476553 0.0010355916262 0.0010340401326 0.001032493161 0.0010309506925 0.0010294127738 
0.0010278793713 0.0010263503819 0.0010248259304 0.0010233059057 0.0010217904414 0.0010202793621 0.0010666709172 0.0010650305897 0.0010633949313 
0.0010617639452 0.0010601375942 0.0010585158761 0.0010568988275 0.0010552863231 0.0010536784895 0.001052075264 0.0010504766176 0.0010488826432 
0.0010472932573 0.0010457084311 0.001044128262 0.0010425526725 0.0010409815456 0.0010394150182 0.0010378529526 0.0010362955554 0.0010347425956 
0.0010331941925 0.0010316503001 0.0010301109375 0.0010285761135 0.0010270457176 0.0010255198658 0.0010239984636 0.0010224816287 0.0010209691506 
0.0010674061596 0.0010657642516 0.0010641270809 0.0010624945277 0.0010608666307 0.001059243384 0.00105762479 0.0010560107643 0.0010544014097 
0.0010527966394 0.0010511964937 0.0010496010319 0.0010480101284 0.0010464238087 0.0010448421652 0.001043265074 0.0010416924731 0.0010401244256 
0.0010385609626 0.0010370020744 0.0010354477095 0.0010338978656 0.0010323525332 0.0010308117672 0.0010292754819 0.001027743698 0.0010262164263 
0.0010246936079 0.0010231753627 0.0010216614694 0.0010681441505 0.0010665006692 0.0010648618948 0.0010632278323 0.0010615983894 0.001059973593 
0.0010583534523 0.0010567378979 0.0010551270027 0.0010535207126 0.0010519190734 0.0010503220704 0.0010487296726 0.0010471418619 0.0010455587215 
0.0010439801302 0.0010424059872 0.0010408365434 0.0010392716144 0.0010377112651 0.001036155475 0.001034604161 0.0010330574195 0.0010315152057 
0.0010299774882 0.0010284442487 0.0010269155764 0.0010253913316 0.0010238715903 0.0010223563191 0.0010688848375 0.0010672397889 0.0010655994248 
0.0010639637498 0.0010623327723 0.0010607064458 0.0010590847606 0.001057467674 0.0010558552136 0.0010542474432 0.0010526443375 0.0010510458175 
0.0010494518777 0.0010478626649 0.001046277941 0.0010446977874 0.001043122229 0.0010415513078 0.0010399849089 0.0010384231158 0.0010368658457 
0.0010353131193 0.0010337648923 0.0010322212414 0.0010306820788 0.0010291474084 0.0010276172893 0.0010260916391 0.0010245704991 0.0010230538212 
0.0010696281406 0.0010679816058 0.0010663396668 0.0010647024275 0.001063069844 0.001061441964 0.0010598187684 0.0010582001466 0.0010565861756 
0.0010549768575 0.0010533722179 0.0010517721519 0.0010501767261 0.0010485860003 0.0010469996746 0.0010454180758 0.001043841088 0.0010422686864 
0.0010407008011 0.0010391375651 0.0010375788286 0.00103602462 0.0010344750086 0.0010329298609 0.001031389248 0.0010298530826 0.001028321536 
0.0010267945633 0.0010252719942 0.001023753896 0.0010703742491 0.0010687261101 0.001067082596 0.0010654437595 0.0010638096278 0.0010621801804 
0.0010605553976 0.0010589352952 0.0010573197606 0.0010557089234 0.0010541027535 0.0010525011941 0.0010509042272 0.0010493119266 0.0010477241833 
0.0010461410417 0.0010445625719 0.0010429886749 0.0010414193726 0.0010398545925 0.0010382943837 0.001036738713 0.0010351876438 0.0010336409762 
0.0010320989429 0.0010305613994 0.001029028414 0.0010275000167 0.0010259760288 0.0010244565226 0.0010711229446 0.0010694731631 0.001067828146 
0.0010661877272 0.0010645520503 0.0010629210438 0.0010612946978 0.0010596729592 0.001058055933 0.0010564436041 0.0010548358925 0.0010532328084 
0.0010516343695 0.001050040486 0.001048451259 0.0010468666406 0.0010452866052 0.001043711249 0.0010421404618 0.0010405742243 0.001039012553 
0.001037455414 0.0010359027757 0.0010343547667 0.0010328112433 0.0010312722582 0.0010297378344 0.0010282079972 0.0010266825772 0.0010251616751 
0.0010718742996 0.0010702229286 0.0010685762256 0.0010669343135 0.0010652970552 0.0010636644786 0.0010620366095 0.0010604133079 0.0010587947418 
0.0010571808307 0.0010555716318 0.0010539669361 0.0010523670431 0.0010507716432 0.0010491809102 0.0010475947822 0.0010460132553 0.0010444364163 
0.0010428641096 0.0010412963736 0.0010397331557 0.0010381746017 0.0010366205535 0.0010350710714 0.0010335260935 0.0010319856522 0.0010304498044 
0.00102891844 0.0010273915608 0.0010258692474 0.0010726282436 0.001070975236 0.0010693269679 0.0010676834914 0.0010660446554 0.0010644105093 
0.0010627810505 0.0010611561924 0.0010595360968 0.0010579206502 0.0010563098062 0.0010547037527 0.0010531022612 0.001051505366 0.0010499130938 
0.0010483254362 0.0010467424167 0.0010451640276 0.001043590198 0.0010420209654 0.0010404563525 0.0010388963004 0.001037340781 0.0010357897869 
0.0010342434316 0.0010327015259 0.0010311642609 0.0010296314756 0.0010281031575 0.0010265794138 0.0010733846958 0.0010717301158 0.0010700802677 
0.001068435135 0.0010667948003 0.0010651590666 0.0010635279897 0.0010619016207 0.0010602799413 0.0010586628749 0.0010570505607 0.0010554429943 
0.0010538399233 0.0010522415188 0.0010506477691 0.0010490586163 0.0010474739996 0.0010458941087 0.0010443188654 0.0010427481605 0.0010411820471 
0.0010396204996 0.0010380634942 0.0010365110637 0.0010349631783 0.0010334198628 0.001031881174 0.0010303469428 0.0010288171966 0.0010272919835 
0.0010741436588 0.0010724874656 0.0010708360223 0.0010691893211 0.0010675473296 0.0010659101006 0.0010642774409 0.0010626494647 0.0010610262285 
0.0010594076815 0.001057793821 0.0010561846758 0.001054580095 0.0010529801568 0.0010513848215 0.0010497941674 0.0010482081203 0.0010466266999 
0.0010450499559 0.0010434777445 0.00104191017 0.0010403471732 0.0010387886736 0.0010372347586 0.0010356854243 0.0010341406491 0.0010326004788 
0.0010310647936 0.0010295336203 0.0010280069811 0.0010749051021 0.0010732472912 0.0010715942455 0.001069945971 0.0010683023801 0.0010666635712 
0.0010650292665 0.0010633997841 0.0010617749868 0.0010601548853 0.001058539566 0.0010569287657 0.0010553226108 0.0010537211416 0.0010521243365 
0.001050532133 0.0010489446159 0.0010473617325 0.0010457834423 0.0010442097866 0.0010426406794 0.0010410761788 0.0010395162152 0.0010379608271 
0.0010364100246 0.0010348638114 0.0010333221581 0.0010317850211 0.0010302524044 0.0010287242939 0.0010756689133 0.0010740095255 0.0010723548785 
0.00107070501 0.0010690598303 0.0010674192513 0.0010657835718 0.0010641525156 0.001062526133 0.001060904398 0.0010592875568 0.0010576752127 
0.0010560675503 0.0010544645595 0.0010528662033 0.0010512725056 0.0010496834408 0.0010480990066 0.0010465192487 0.0010449441306 0.0010433735443 
0.0010418075093 0.0010402460962 0.0010386892378 0.001037136944 0.0010355892662 0.0010340461247 0.0010325075569 0.001030973463 0.001029443918 
0.001076435117 0.0010747740974 0.0010731178462 0.0010714663847 0.0010698195605 0.0010681774443 0.0010665401401 0.0010649075185 0.0010632795523 
0.0010616563296 0.0010600378724 0.0010584239901 0.0010568147963 0.0010552102725 0.0010536103982 0.0010520151607 0.0010504245759 0.001048838595 
0.0010472573151 0.0010456806298 0.0010441086131 0.0010425411498 0.0010409782509 0.001039419921 0.0010378661708 0.0010363170175 0.0010347723715 
0.0010332323422 0.0010316967895 0.0010301658525 0.0010772035592 0.0010755409235 0.0010738830681 0.0010722299312 0.0010705815419 0.0010689378571 
0.0010672989455 0.001065664858 0.0010640353211 0.0010624105328 0.0010607904888 0.0010591750761 0.0010575643372 0.0010559582674 0.0010543568348 
0.001052760063 0.0010511679483 0.0010495805018 0.0010479976567 0.0010464194609 0.0010448458993 0.0010432768866 0.0010417125664 0.0010401527837 
0.0010385975342 0.0010370468836 0.0010355008486 0.0010339592818 0.0010324223102 0.0010308898365 0.0010779742515 0.0010763098575 0.0010746503893 
0.0010729956994 0.0010713457384 0.0010697004744 0.0010680600002 0.0010664242081 0.0010647931774 0.001063166895 0.0010615452145 0.0010599282452 
0.001058315957 0.001056708346 0.0010551053962 0.0010535071041 0.0010519134494 0.0010503244629 0.0010487401151 0.0010471603715 0.0010455853113 
0.0010440148153 0.0010424489428 0.0010408876575 0.0010393310893 0.0010377790089 0.0010362314334 0.0010346883917 0.0010331499426 0.0010316160703 
0.0010689524163 0.00106731281 0.0010656778167 0.0010640474945 0.0010624218558 0.0010608007572 0.0010591843295 0.0010575724689 0.0010559651795 
0.0010543624765 0.0010527642933 0.001051170757 0.0010495817922 0.0010479973824 0.0010464174722 0.001044842137 0.0010432713029 0.0010417050589 
0.0010401432257 0.0010385859599 0.0010370332204 0.0010354849818 0.0010339412534 0.0010324019835 0.0010308672641 0.00102933694 0.0010278110793 
0.0010262896457 0.0010247726561 0.0010232602327 0.001069662445 0.0010680213108 0.0010663847803 0.0010647529403 0.0010631257069 0.001061503179 
0.001059885138 0.0010582718659 0.0010566630546 0.0010550587746 0.0010534591323 0.0010518641291 0.0010502736466 0.0010486877937 0.00104710643 
0.0010455296493 0.0010439574034 0.0010423896885 0.0010408264417 0.0010392677175 0.0010377135688 0.001036163904 0.0010346187274 0.0010330781351 
0.0010315419849 0.0010300102689 0.0010284830283 0.0010269602162 0.0010254418557 0.0010239280681 0.0010703747053 0.0010687320185 0.0010670939424 