# vtk DataFile Version 5.1
vtk output
ASCII
DATASET POLYDATA
POINTS 2505 double
58.611110687 -9.4444446564 1.258879255e-14 57.569446564 -9.4444446564 1.2347858264e-14 58.611110687 -12.222222328 1.258879255e-14 
58.611110687 -12.222222328 1.258879255e-14 57.569446564 -9.4444446564 1.2347858264e-14 55.833335876 -12.222222328 1.1946300237e-14 
55.833335876 -12.222222328 1.1946300237e-14 57.569446564 -9.4444446564 1.2347858264e-14 56.597221375 -9.4444446564 1.2122985028e-14 
55.833335876 -12.222222328 1.1946300237e-14 56.597221375 -9.4444446564 1.2122985028e-14 55.833335876 -9.4444446564 1.1946300237e-14 
56.597221375 -9.4444446564 1.2122985028e-14 57.569446564 -9.4444446564 1.2347858264e-14 56.597221375 -1.6319445372 1.2122985028e-14 
56.597221375 -1.6319445372 1.2122985028e-14 57.569446564 -9.4444446564 1.2347858264e-14 57.569446564 -1.6319445372 1.2347858264e-14 
56.597221375 -1.6319445372 1.2122985028e-14 57.569446564 -1.6319445372 1.2347858264e-14 55.416667938 -0.72916668653 1.1849925993e-14 
55.416667938 -0.72916668653 1.1849925993e-14 57.569446564 -1.6319445372 1.2347858264e-14 58.611110687 -1.6319445372 1.258879255e-14 
55.416667938 -0.72916668653 1.1849925993e-14 58.611110687 -1.6319445372 1.258879255e-14 55.416667938 0.72916668653 1.1849925993e-14 
55.416667938 0.72916668653 1.1849925993e-14 58.611110687 -1.6319445372 1.258879255e-14 58.611110687 1.840277791 1.258879255e-14 
55.416667938 0.72916668653 1.1849925993e-14 58.611110687 1.840277791 1.258879255e-14 -59.444450378 1.840277791 -1.4717161213e-14 
-59.444450378 1.840277791 -1.4717161213e-14 -59.444450378 0.72916668653 -1.4717161213e-14 55.416667938 0.72916668653 1.1849925993e-14 
-59.444450378 -0.72916668653 -1.4717161213e-14 -59.444450378 -1.6319445372 -1.4717161213e-14 55.416667938 -0.72916668653 1.1849925993e-14 
55.416667938 -0.72916668653 1.1849925993e-14 -59.444450378 -1.6319445372 -1.4717161213e-14 56.597221375 -1.6319445372 1.2122985028e-14 
4.5535728997 -1.12893709 8.5420290281e-17 -27.445438739 -1.3804408136 -7.3158704613e-15 -34.01389122 -0.72916668653 -8.835136967e-15 
-8.5803378094 1.3482428786 -2.9524201581e-15 -34.012394094 1.5942603348 -8.8347906855e-15 -34.01389122 0.72916668653 -8.835136967e-15 
4.5555496216 -1.6319445372 8.5877501067e-17 24.597221375 -1.6319445372 4.7214656706e-15 40.597221375 -1.6319445372 8.4222253491e-15 
-5.3888893127 1.840277791 -2.2142461635e-15 26.611110687 1.840277791 5.1872731935e-15 42.611110687 1.840277791 8.888032872e-15 
4.5525553693 1.221201599 8.5184938051e-17 -27.445947505 1.530739695 -7.3159881374e-15 29.984611654 0.97518414276 5.9675554655e-15 
17.268583512 1.0981928709 3.0263702018e-15 42.700639796 0.85217541465 8.9087407292e-15 -8.5833320618 -0.72916668653 -2.9531127211e-15 
23.416667938 -0.72916668653 4.4484066359e-15 -46.729170799 -1.1805556118 -1.177614909e-14 -8.5833320618 0.72916668653 -2.9531127211e-15 
23.416667938 0.88393935508 4.4484066359e-15 -46.729170799 1.1837197968 -1.177614909e-14 -21.299573111 1.1397114793 -5.8943472297e-15 
4.5535728997 -1.12893709 8.5420290281e-17 -27.444450378 -1.5061907333 -7.3156418559e-15 29.985120419 -0.92905188828 5.9676731416e-15 
14.576385498 -1.3410569849 2.4036715858e-15 -11.443956183 -1.4433118893 -3.6147678712e-15 -3.4427205865 -1.4118685827 -1.7641022417e-15 
0.55987506345 -1.3961391569 -8.3831195475e-16 7.4166679382 -0.72916668653 7.4764695742e-16 -11.44593292 -1.2546889518 -3.6152250855e-15 
2.6111106873 1.840277791 -3.6386632427e-16 10.611110687 1.840277791 1.486513515e-15 7.4166679382 0.72916668653 7.4764695742e-16 
23.416667938 0.72916668653 4.4484066359e-15 23.418165064 1.0387047826 4.4487529174e-15 -0.58333206177 -0.72916668653 -1.1027328818e-15 
23.417656299 -0.9806704101 4.4486352413e-15 3.4166679382 -0.72916668653 -1.775429622e-16 -3.4461800101 -1.1918130209 -1.7649023976e-15 
5.4166679382 -0.72916668653 2.8505199761e-16 4.4166679382 -0.72916668653 5.3754517704e-17 3.9166679382 -1.1237235406 -6.1894222249e-17 
4.9166679382 -0.7812645684 1.6940325766e-16 13.985614599 -1.0548037501 2.2670277658e-15 9.2695937496 -1.09187042 1.176224028e-15 
6.9115833246 -1.110403755 6.3082215916e-16 -27.445438739 -1.3804408136 -7.3158704613e-15 -27.444450378 -1.6319445372 -7.3156418559e-15 
4.2360370403 -1.0143527261 1.1975046229e-17 4.6546025281 -0.87101121939 1.0878818872e-16 4.6111106873 1.840277791 9.8728635539e-17 
10.91056944 1.1596972349 1.5557775699e-15 -3.4470703492 1.298586123 -1.7651083308e-15 17.269346659 -1.0289944892 3.0265467159e-15 
6.6111106873 1.840277791 5.6132359535e-16 14.576385498 -1.6319445372 2.4036715858e-15 -11.446696068 1.375970647 -3.6154015997e-15 
2.5536346723 -1.1446560728 -3.7716038169e-16 9.5659675598 -1.6319445372 1.2447745435e-15 -6.5945647121 1.0290930602 -2.493115845e-15 
3.9166679382 -0.72916668653 -6.1894222249e-17 4.1666679382 -0.77061883744 -4.0698522728e-18 3.6666679382 -0.92644511355 -1.1971859223e-16 
0.55369644483 -1.1603750555 -8.3974105367e-16 2.5536346723 -1.1446560728 -3.7716038169e-16 8.0905885371 -1.1011370875 9.035230936e-16 
6.4166679382 -0.72916668653 5.1634947751e-16 -0.58071209099 1.2708583546 -1.1021268892e-15 7.5010859309 -1.1057704213 7.6717262638e-16 
5.7325781122 -1.1196704225 3.5812122472e-16 5.9166679382 -0.72916668653 4.0070073756e-16 5.6666679382 -0.84995595199 3.4287636759e-16 
6.1666679382 -1.0856641016 4.5852510754e-16 6.1666679382 -0.81975697446 4.5852510754e-16 5.9399169933 -0.97877001029 4.0607818541e-16 
6.539680118 -1.0813382398 5.4480188469e-16 6.7478921699 -0.81104094546 5.9296080758e-16 7.0883073636 -0.81933685501 6.7169798401e-16 
5.1430755059 -1.1243037563 2.217707575e-16 5.4372525895 -1.0489286981 2.8981317558e-16 4.848079966 -1.0955459812 1.5353903252e-16 
5.1771270357 -0.85559492401 2.2964679052e-16 -0.58333206177 0.72916668653 -1.1027328818e-15 15.416667938 -0.72916668653 2.5980267967e-15 
11.416667938 -0.72916668653 1.672836877e-15 9.4166679382 -0.72916668653 1.2102419172e-15 1.4166679382 -0.72916668653 -6.4013792201e-16 
0.41666793823 -0.72916668653 -8.7143540192e-16 -1.4462417826 -1.1760940382 -1.3023217256e-15 0.91666793823 -0.80765421987 -7.5578666197e-16 
1.5536655586 -1.1525155641 -6.0845071768e-16 2.0536501154 -1.1485858184 -4.9280554969e-16 -0.44627266889 -1.1682345468 -1.0710313897e-15 
-4.5833320618 -0.72916668653 -2.0279228014e-15 2.4166679382 -0.72916668653 -4.0884044211e-16 2.9166679382 -0.79466123833 -2.9319170215e-16 
1.9166679382 -0.72916668653 -5.2448918206e-16 -2.5833320618 -0.72916668653 -1.5653278416e-15 -11.44593292 -1.2546889518 -3.6152250855e-15 
-11.444450378 -1.6319445372 -3.6148821774e-15 -3.4461800101 -1.1918130209 -1.7649023976e-15 -3.4444503784 -1.6319445372 -1.7645023382e-15 
0.55369644483 -1.1603750555 -8.3974105367e-16 0.55554962158 -1.6319445372 -8.3931241855e-16 7.4189136275 1.1934738306 7.4816637968e-16 
3.4166679382 0.98067227292 -1.775429622e-16 15.415545015 0.9226379534 2.5977670673e-15 -3.5821930246 1.014523285 -1.7963618651e-15 
55.138893127 -0.45138889551 1.1805757178e-14 -60.416667938 0.45138889551 -1.3853694803e-14 -61.111114502 -0.45138889551 -1.4034395729e-14 
-61.111114502 -0.45138889551 -1.4034395729e-14 -60.416667938 0.45138889551 -1.3853694803e-14 -60.416667938 27.083335876 -1.3076701911e-14 
-61.111114502 -0.45138889551 -1.4034395729e-14 -60.416667938 27.083335876 -1.3076701911e-14 -61.111114502 29.861114502 -1.3150021797e-14 
-61.111114502 29.861114502 -1.3150021797e-14 -60.416667938 27.083335876 -1.3076701911e-14 -58.333332062 29.861114502 -1.2532573898e-14 
-58.333332062 29.861114502 -1.2532573898e-14 -60.416667938 27.083335876 -1.3076701911e-14 -58.333332062 27.083335876 -1.2613616198e-14 
55.138893127 -0.45138889551 1.1805757178e-14 55.138893127 0.45138889551 1.1832095917e-14 -60.416667938 0.45138889551 -1.3853694803e-14 
50.138889313 -27.083335876 1.0661321645e-14 49.097225189 -27.083335876 1.0480621565e-14 50.138889313 -29.861114502 1.0661321645e-14 
50.138889313 -29.861114502 1.0661321645e-14 49.097225189 -27.083335876 1.0480621565e-14 48.402778625 -27.083335876 1.0360154184e-14 
50.138889313 -29.861114502 1.0661321645e-14 48.402778625 -27.083335876 1.0360154184e-14 47.361114502 -29.861114502 1.0179454104e-14 
47.361114502 -29.861114502 1.0179454104e-14 48.402778625 -27.083335876 1.0360154184e-14 47.361114502 -27.083335876 1.0179454104e-14 
48.402778625 -27.083335876 1.0360154184e-14 49.097225189 -27.083335876 1.0480621565e-14 48.402778625 -10.277778625 1.0360154184e-14 
48.402778625 -10.277778625 1.0360154184e-14 49.097225189 -27.083335876 1.0480621565e-14 49.097225189 -9.5833339691 1.0480621565e-14 
48.402778625 -10.277778625 1.0360154184e-14 49.097225189 -9.5833339691 1.0480621565e-14 6.4583334923 -9.5833339691 3.0839464228e-15 
6.4583334923 -3.2986111641 3.0839464228e-15 5.7638888359 -3.2986111641 2.9634793721e-15 6.4583334923 -9.5833339691 3.0839464228e-15 
6.4583334923 -9.5833339691 3.0839464228e-15 5.7638888359 -3.2986111641 2.9634793721e-15 5.7638888359 -10.277778625 2.9634793721e-15 
6.4583334923 -9.5833339691 3.0839464228e-15 5.7638888359 -10.277778625 2.9634793721e-15 48.402778625 -10.277778625 1.0360154184e-14 
7.5000004768 -3.2986111641 3.2646469988e-15 7.5000004768 -1.9097223282 3.2646469988e-15 6.4583334923 -3.2986111641 3.0839464228e-15 
6.4583334923 -3.2986111641 3.0839464228e-15 7.5000004768 -1.9097223282 3.2646469988e-15 4.7222223282 -1.9097223282 2.7827788787e-15 
6.4583334923 -3.2986111641 3.0839464228e-15 4.7222223282 -1.9097223282 2.7827788787e-15 5.7638888359 -3.2986111641 2.9634793721e-15 
5.7638888359 -3.2986111641 2.9634793721e-15 4.7222223282 -1.9097223282 2.7827788787e-15 4.7222223282 -3.2986111641 2.7827788787e-15 
33.097225189 -9.5833339691 7.7050615644e-15 21.763888836 -10.277778625 5.7390393731e-15 48.76692758 -19.090157317 1.0423324013e-14 
6.2032040754 -7.2744132367 3.039688485e-15 5.6774646619 -2.6739161427 2.9484871545e-15 5.8737176458 -4.2925616822 2.9825316503e-15 
[...]
CELL_DATA 1709
FIELD FieldData 4
electrode_index 1 1709 int
0 0 0 0 0 0 0 0 0 
0 0 0 0 0 0 0 0 0 
0 0 0 0 0 0 0 0 0 
0 0 0 0 0 0 0 0 0 
0 0 0 0 0 0 0 0 0 
0 0 0 0 0 0 0 0 0 
0 0 0 0 0 0 0 0 0 
0 0 0 0 0 0 0 0 0 
0 0 0 0 0 0 0 0 0 
0 0 0 0 0 0 0 0 0 
0 0 0 0 0 0 0 0 0 
0 0 0 0 0 0 0 0 0 
0 0 0 0 0 0 0 0 0 
0 0 0 0 0 0 0 0 0 
0 0 0 0 0 0 0 0 0 
0 0 0 0 0 0 0 0 0 
0 0 0 0 0 0 0 0 0 
0 0 0 1 1 1 1 1 1 
2 2 2 2 2 2 2 2 2 
2 2 2 2 2 2 2 2 2 
2 2 2 2 2 2 2 2 2 
2 2 2 2 2 2 2 2 2 
2 2 2 2 2 2 2 2 2 
2 2 2 2 2 2 2 2 2 
2 2 2 2 2 2 2 2 2 
2 2 2 2 2 2 2 2 2 
2 2 2 2 2 2 2 2 2 
2 2 2 2 2 2 2 2 2 
2 2 2 2 2 2 2 2 2 
2 2 2 2 2 2 2 2 2 
2 2 2 2 2 2 2 2 2 
2 2 2 2 2 2 2 2 2 
2 2 2 2 2 2 2 2 2 
2 2 2 2 2 2 2 2 2 
2 2 2 2 2 2 2 2 2 
2 2 2 2 2 2 2 2 2 
2 2 2 2 2 2 2 2 2 
2 2 2 2 2 2 2 2 2 
2 2 2 2 2 2 2 2 2 
2 2 2 2 2 2 2 2 2 
2 2 2 2 2 2 2 2 2 
2 2 2 2 2 2 2 2 2 
2 2 2 2 2 2 2 2 2 
2 2 2 2 2 2 2 2 2 
2 2 2 2 2 2 2 2 2 
2 2 2 2 2 2 2 2 2 
2 2 2 2 2 2 2 2 2 
2 2 2 2 2 2 2 2 2 
2 2 2 2 2 2 2 2 2 
2 2 2 2 2 2 2 2 2 
2 2 2 2 2 2 2 2 2 
2 2 2 2 2 2 2 2 2 
2 2 2 2 2 2 2 2 2 
2 2 2 2 2 2 2 2 2 
2 2 2 2 2 2 2 2 2 
2 2 2 2 2 2 2 2 2 
2 2 2 2 2 2 2 2 2 
2 2 2 2 2 2 2 2 2 
2 2 2 2 2 2 2 2 2 
2 2 2 2 2 2 2 2 2 
2 2 2 2 2 2 2 2 2 
2 2 2 2 2 2 2 2 2 
2 2 2 2 2 2 2 2 2 
2 2 2 2 2 2 2 2 2 
2 2 2 2 2 2 2 2 2 
2 2 2 2 2 2 2 2 2 
2 2 2 2 2 2 2 2 2 
2 2 2 2 2 2 2 2 2 
2 2 2 2 2 2 2 2 2 
2 2 2 2 2 2 2 2 2 
2 2 2 2 2 2 2 2 2 
2 2 2 2 2 2 2 2 2 
2 2 2 2 2 2 2 2 2 
2 2 2 2 2 2 2 2 2 
2 2 2 2 2 2 2 2 2 
2 2 2 2 2 2 2 2 2 
2 2 2 2 2 2 2 2 2 
2 2 2 2 2 2 2 2 2 
2 2 2 2 2 2 2 2 2 
2 2 2 2 2 2 2 2 2 
2 2 2 2 2 2 2 2 2 
2 2 2 2 2 2 2 2 2 
2 2 2 2 2 2 2 2 2 
2 2 2 2 2 2 2 2 2 
2 2 2 2 2 2 2 2 2 
2 2 2 2 2 2 2 2 2 
2 2 2 2 2 2 2 2 2 
2 2 2 2 2 2 2 2 2 
2 2 2 2 2 2 2 2 2 
2 2 2 2 2 2 2 2 2 
2 2 2 2 2 2 2 2 2 
2 2 2 2 2 2 2 2 2 
2 2 2 2 2 2 2 2 2 
2 2 2 2 2 2 2 2 2 
2 2 2 2 2 2 2 2 2 
2 2 2 2 2 2 2 2 2 
2 2 2 2 2 2 2 2 2 
2 2 2 2 2 2 2 2 2 
2 2 2 2 2 2 2 2 2 
2 2 2 2 2 2 2 2 2 
2 2 2 2 2 2 2 2 2 
2 2 2 2 2 2 2 2 2 
2 2 2 2 2 2 2 2 2 
2 2 2 2 2 2 2 2 2 
2 2 2 2 2 2 2 2 2 
2 2 2 2 2 2 2 2 2 
2 2 2 2 2 2 2 2 2 
2 2 2 2 2 2 3 3 3 
3 3 3 3 3 3 3 3 3 
3 3 3 3 4 4 4 4 4 
4 4 4 4 4 4 4 4 4 
5 5 5 5 5 5 5 5 5 
5 5 5 5 5 6 6 6 6 
6 6 6 6 6 6 6 6 6 
6 7 7 7 7 7 7 7 7 
7 7 7 7 7 7 7 7 8 
8 8 8 8 8 8 8 8 8 
8 8 8 8 8 8 8 8 8 
9 9 9 9 9 9 9 9 9 
9 9 9 9 9 9 9 10 10 
10 10 10 10 10 10 10 10 10 
10 10 10 10 10 11 11 11 11 
11 11 11 11 11 11 11 11 11 
11 11 11 12 12 12 12 12 12 
12 12 12 12 12 12 12 12 12 
12 13 13 13 13 13 13 13 13 
13 13 13 13 13 13 13 13 14 
14 14 14 14 14 14 14 14 14 
14 14 14 14 14 14 14 14 14 
14 14 14 14 14 14 14 14 14 
14 14 14 14 14 14 14 14 14 
14 14 14 14 14 14 14 14 14 
14 14 14 14 14 14 14 14 14 
14 14 14 14 14 14 14 14 14 
14 14 14 14 14 14 14 14 14 
14 14 14 14 14 14 14 14 14 
14 14 14 14 14 14 14 14 14 
14 14 14 14 14 14 14 14 14 
14 14 14 14 14 14 14 14 14 
14 14 14 14 14 14 14 14 14 
14 14 14 14 14 14 14 14 14 
14 14 14 14 14 14 14 14 14 
14 14 14 14 14 14 14 14 14 
14 14 14 14 14 14 14 14 14 
14 14 14 14 14 14 14 14 14 
14 14 14 14 14 14 14 14 14 
14 14 14 14 14 14 14 14 14 
14 14 14 14 14 14 14 14 14 
14 14 14 14 14 14 14 14 14 
14 14 14 14 14 14 14 14 14 
14 14 14 14 14 14 14 14 14 
14 14 14 14 14 14 14 14 14 
14 14 14 14 14 14 14 14 14 
14 14 14 14 14 14 14 14 14 
14 14 14 14 14 14 14 14 14 
14 14 14 14 14 14 14 14 14 
14 14 14 14 14 14 14 14 14 
14 15 15 15 15 15 15 15 15 
15 15 15 15 15 15 15 15 15 
15 15 15 15 15 15 15 15 15 
15 15 15 15 15 15 15 15 15 
15 15 15 15 15 15 15 15 15 
15 15 15 15 16 16 16 16 16 
16 16 16 16 16 16 16 16 16 
16 16 16 16 16 16 16 16 16 
16 16 16 16 16 16 16 16 16 
16 16 16 16 16 16 16 16 16 
16 16 16 16 16 16 16 16 16 
16 16 16 16 16 16 16 16 16 
16 16 16 16 16 16 16 16 16 
16 16 16 16 16 16 16 16 16 
16 16 16 16 16 16 16 16 16 
16 16 16 16 16 16 16 16 16 
16 16 16 16 16 16 16 16 16 
16 16 16 16 16 16 16 16 16 
16 16 16 16 16 16 16 16 16 
16 17 17 17 17 17 17 17 17 
17 17 17 17 17 17 17 17 17 
17 17 17 17 17 17 17 17 17 
17 17 17 17 17 17 17 17 17 
17 17 17 17 18 18 18 18 18 
18 18 18 18 18 18 18 18 18 
18 18 18 18 18 18 18 18 18 
18 18 18 18 19 19 19 19 19 
19 19 19 19 19 19 19 19 19 
19 19 20 20 20 20 20 20 20 
20 20 20 20 20 20 20 21 21 
21 21 21 21 21 21 21 21 21 
21 21 21 22 22 22 22 22 22 
22 22 22 22 22 22 22 22 
area 1 1709 double
1.4467556719 3.8580204234 1.3503127113 1.0609520401 3.7977547033 3.7977547033 0.43885168332 0.47019564926 2.3292812346 
5.5459077196 6.2768623818 6.7847195624 5.7395363843 7.222222805 8.2811326083 0.055627135347 5.7395363843 5.6230296573 
5.6230296573 3.9367756803 0.92889668975 5.5002940616 7.0640441685 5.4992306004 0.50300744713 1.989160375 9.9984248707 
2.1667666721 6.9207491861 8.8888888359 2.4010700274 8.3661277257 5.2927925569 5.9366793612 6.2768623818 2.0120297885 
4.0240595771 5.7797698811 2.154361366 2.4763626967 5.2201918201 4.2162680984 3.0210317364 4.1830638629 2.0120608611 
5.623141191 4.1996716284 1.2601387681 1.0060304305 1.0060304305 0.75453059128 0.75453059128 0.44015190885 0.44015190885 
0.6191775731 0.6151502312 0.049593298551 0.92529266877 0.049319606753 0.37197040101 0.049319606753 1.0060148943 4.0240595771 
0.61907619203 1.5477701349 2.4763626967 0.037849993344 0.21953393015 0.010219137487 0.037495483807 0.026048940932 0.65127412706 
0.21313335239 0.030197316364 1.509092256 2.0120608611 0.031904485328 0.035661930489 0.036293750079 0.029263189137 0.72873410499 
1.849487276 0.23580538031 0.97457692882 0.6191775731 1.5477701349 1.0830538674 0.46623280473 1.3611611122 0.61907619203 
1.141426394 0.39167444031 2.0915319314 2.0313526379 1.0060223455 1.0060223455 0.042714014188 0.010363037726 0.049319606753 
0.44692735166 0.22006575812 0.057506425727 0.13706509586 0.11120000994 0.053288110547 1.8567506472 0.46623280473 0.065636901682 
0.038240672287 0.032604533611 0.039599281012 0.032604533611 0.018035531779 0.053288110547 0.02264757198 0.030147346174 0.027056301454 
0.030147346174 0.049593298551 0.0062252965244 0.050274840903 0.040937129461 0.085382937349 0.0167096725 0.038103373268 0.038727048988 
0.021535386323 0.0091597980756 0.040123576652 0.025367272548 0.043477810748 1.141426394 0.81260281154 1.4826667993 0.81546673959 
0.36270373351 0.10413826054 0.10242457749 0.11121352204 0.21613601244 0.17492858502 0.03924376667 0.10583721939 0.10512069696 
0.46264633439 0.099387059126 0.15516902822 0.032747275898 0.10485478297 0.45585049897 0.88041258502 1.5090922561 0.47188277637 
0.88041258503 0.23452573367 0.47188277637 52.473962547 9.2472320331 10.525206911 3.8580323443 2.8935229337 52.16049708 
1.4467561686 0.96450941062 1.4769004405 1.4467561686 0.76437362182 0.69444656372 0.82491258997 0.020781036373 0.029817131901 
0.06972071099 0.040869137388 0.013224459231 0.021383109024 0.023459254101 0.45280578472 0.046554899354 1.0241520324 0.017392592491 
0.023077404042 0.025511737018 0.015472312954 0.0094015119943 0.019817790975 0.039043438837 0.014723752337 0.020845015585 0.029687391765 
0.0025241488823 0.017469243003 0.015929719822 0.010745302689 0.01848502716 0.019214747141 0.023059792221 0.015556159705 0.024132595903 
0.006613129403 0.020000643524 0.03072713108 0.015074142295 0.024837142467 0.019242978062 0.0041030371394 0.017725389515 0.01721281585 
0.012772678887 0.009304317185 0.030608545564 0.018083225974 0.0078796037067 0.021232674251 0.01293341939 0.0085615233834 0.016726959221 
0.018487893852 0.016726959221 0.020281424901 0.020909654103 0.031404773376 0.020598151958 0.03981769723 0.018315791658 0.009334510899 
0.023261400443 0.011199788694 0.33043848852 0.013186510266 0.51870323285 0.057840474942 0.45415937038 0.027221990586 0.077353400949 
0.024377092679 0.026523909451 0.030806980234 0.027872212293 0.01443667583 0.012906369922 0.049420760326 0.016594509912 0.033481841857 
0.033966353408 0.037259891087 0.012927134562 0.0374981413 0.04480773447 0.091172503752 0.024746152819 0.068654750874 0.014430154859 
0.014469622858 0.037482679091 0.024942630082 0.010852268794 0.01570621907 0.048865111268 0.02042654455 0.033481841857 0.034515036351 
0.53722237526 0.013276243004 0.02907289701 0.069062387725 0.19222969483 0.078651096104 0.026523909451 0.024305582047 0.049579679303 
0.054561498167 0.037518776163 0.060879540327 0.13244129409 0.038166886393 0.077210426174 0.033336295109 0.063368232294 0.064159973828 
0.047951323763 0.029960826267 0.027027081547 0.027027081547 0.044419124551 0.064524318833 0.031859949249 0.030573520603 0.018544569202 
0.014664991799 0.013773923299 0.0025322954661 0.016941989426 0.035736755455 0.010882683345 0.020206969479 0.013279159119 0.0086962608354 
0.022659397993 0.025756105584 0.039688578911 0.0094181282635 0.0082492317824 0.021864327419 0.012164355213 0.005588605233 0.0049474259752 
0.0038928853839 0.0074854875949 0.0020833332284 0.012371455684 0.0046067032004 0.0064493096612 0.016156822863 0.0073875195537 0.0061998305862 
0.0076344024269 0.0191512421 0.0062227519369 0.0074854875949 0.021811931086 0.012220902838 0.0079943489053 0.0081143601971 0.0037441708384 
0.0097859683597 0.0062227519369 0.021223901802 0.0070318630637 0.02246389009 0.022717450883 0.024881994888 0.009728163695 0.013519836993 
0.013936858468 0.055070531131 0.021752193228 0.014630893473 0.023950941921 0.017488560622 0.0050701289997 0.0077986309378 0.0036540183907 
0.0094013493651 0.010377110074 0.10252186118 0.054924668851 0.09083383493 0.098463791696 0.099475537669 0.11739021036 0.068576387901 
0.089315512247 0.032668366794 0.055102126897 0.069874596581 0.026520394773 0.1066009013 0.118491427 0.10984535074 0.048932634656 
0.14419547411 0.089997377042 0.20540685613 0.13715279018 0.18216140851 0.18551750395 0.24752673323 0.26488258818 0.26448322608 
0.28620036714 0.35240226744 0.13244129409 0.2649188893 0.21182160372 0.13268964899 0.14161593137 0.2564530156 0.014569963734 
0.0072126606211 0.014184422734 0.010477506981 0.01430465529 0.0054809537586 0.027688442372 0.0080760774363 0.028248048098 0.026330263016 
0.040560406581 0.039828444078 0.043945042236 0.010169856341 0.028233571913 0.028596556733 0.021289286605 0.020098129315 0.028495374893 
0.038476245871 0.016229493672 0.013737644989 0.022281708206 0.018273536928 0.0097511397643 0.023517003721 0.025924353775 0.02046152742 
0.0077784134754 0.029623188234 0.016229493672 0.013578109442 0.091038654398 0.38445941527 0.46500570582 0.12524762202 0.26537934556 
0.28620037994 0.031032992327 0.11540947429 0.031032992327 0.12416371321 0.24752677761 0.47965454824 0.3397580838 0.53335207527 
0.41130817879 0.49185446934 0.028023156236 0.02277209955 0.01377025268 0.01377025268 0.0069270312903 0.0069270312903 0.0085294781027 
0.01016217348 0.0062227519369 0.0086496094104 0.0062227519369 0.0091732973086 0.0076161540351 0.00076717416763 0.0024951625316 0.0013310407161 
0.0024951625316 0.0090951757696 0.0074450883393 0.0046431755459 0.0099878737164 0.0094414209243 0.016198495262 0.022809889173 0.016737800677 
0.015395247161 0.0083082010955 0.0028494092235 0.0071988674616 0.0059658922975 0.0079402500079 0.0090370490898 0.0036678166176 0.0028489425167 
0.0041409996212 0.0039108689664 0.003380139095 0.0061742562911 0.010768435336 0.0056360332537 0.0072375786108 0.00075596976238 0.0060772932463 
0.0062096012425 0.0057234127712 0.0041419198715 0.0052417745253 0.0070877704253 0.0039062496424 0.0046067032004 0.0031249996281 0.0039062496424 
0.0040407170912 0.0056542057518 0.0013020832141 0.0013020832141 0.0094547836065 0.0049141732192 0.0063073593302 0.013631156629 0.020121009799 
0.010428256484 0.011128307824 0.0083082010955 0.014254280591 0.0090854600338 0.0078048335028 0.0076293959244 0.0086262994818 0.0057810042087 
0.0057810042087 0.023465230332 0.015154974913 0.011312142687 0.012559201319 0.013987961171 0.0081839267684 0.012997065332 0.015004770293 
0.019436596325 0.011674597086 0.014874978145 0.015115210565 0.013429191964 0.0143128294 0.011374190341 0.019830476152 0.014188900309 
0.011167237966 0.0082361072173 0.011243855234 0.018603219237 0.031481343703 0.031773828238 0.023385393108 0.016604773694 0.0091671385924 
0.0096986264624 0.014370861544 0.0070993329467 0.0092772627336 0.0092772627336 0.008319568913 0.006852952165 0.010030451255 0.0081238913284 
0.0052354595903 0.017203504241 0.029687391765 0.029632395691 0.017383441476 0.02783168239 0.018382433282 0.018833360301 0.027724210066 
0.018463861832 0.012063010055 0.003703009074 0.019642841319 0.021695920599 0.014723752337 0.014933056961 0.0021833428051 0.030259068589 
0.014940610657 0.015232415896 0.021025778507 0.029580144818 0.015498464672 0.012585323305 0.0086361324436 0.018612148058 0.027353660135 
0.025636405004 0.010236661559 0.020046688991 0.022630327094 0.020374067297 0.011777559933 0.01223517131 0.0078041602589 0.017443711811 
0.015951111676 0.015732594015 0.016940392558 0.0084425370239 0.025406099236 0.01981965045 0.021065847465 0.0084297705208 0.0063667196045 
0.022309145282 0.013519743362 0.011764141681 0.013420614291 0.012909611888 0.018739695767 0.23180403685 0.13253208173 0.010315185995 
0.01296722069 0.011286293928 0.009836089342 0.0091985513837 0.0058253935618 0.016987659269 0.0085171335268 0.0084385852032 0.0086432096018 
0.0071574983524 0.0095484453737 0.011247833096 0.0063792145685 0.0079798863702 0.0077058770197 0.0063337951378 0.0079352683024 0.0043651429045 
0.0070793189306 0.018195586435 0.010751438144 0.0092810505953 0.0086971766714 0.0094522943526 0.0065795018967 0.0048209221691 0.0099391803985 
0.00740762701 0.0090680557943 0.0054809537586 0.0085598119015 0.01430465529 0.014505275816 0.008069310198 0.014787244241 0.015952042126 
0.01110880831 0.016987659269 0.0092191976326 0.0070526328632 0.0087789049617 0.023327311177 0.027336467048 0.020264022262 0.015345867894 
0.025757375428 0.013224459231 0.17611650579 0.23264267608 0.049794902769 0.11599728928 0.016673515139 0.01833581279 0.015232415896 
0.027823845583 0.00049978277586 0.003288327237 0.026343239065 0.019766013508 0.016332918693 0.013164853935 0.0066142952244 0.0066730987376 
0.0094181282635 0.0047862267196 0.021432609654 0.014430154859 0.011257686896 0.025987811228 0.091038654398 0.10763465867 0.018564351478 
0.017787970649 0.016332277275 0.011506545142 0.0044112420051 0.017428655793 0.010864362325 0.0098151286438 0.010629912994 0.014258111749 
0.012728500032 0.011449576792 0.023817450807 0.025936009717 0.011335928603 0.016232966336 0.018349783777 0.02000559348 0.024132595903 
0.024930471939 0.015830350397 0.015226710923 0.018358054469 0.028827416204 0.0094014118405 0.020909654103 0.0029703905536 0.018083225974 
0.01293341939 0.022357184861 0.021902156495 0.012554495539 0.0013712572328 0.035658403282 0.0048937704084 0.027376091429 0.043923704253 
0.031495166381 0.026501348381 0.034570072964 0.016594509912 0.014469622858 0.030806980234 0.034063792596 0.020046688991 0.014935462266 
0.013020835698 0.019187287715 0.029720327525 0.026296000395 0.025134603956 0.041318789559 0.010169856341 0.015345867894 0.011306923649 
0.01570621907 0.011283825548 0.025917319721 0.0027148937036 0.019022074785 0.031573402801 0.021024797681 0.020770995958 0.027044157174 
0.018362102856 0.013029262252 0.015365676415 0.0079345433326 0.0079345433326 0.016710470231 0.012753359059 0.013271828274 0.016822561387 
0.013210035638 0.013029262252 0.013210035638 0.0021628329077 0.011391019161 0.028827416204 0.014817072111 0.017882513371 0.017928012183 
0.029817131901 0.024305582047 0.012394080566 0.027044157174 0.020486165573 0.026118014008 0.012665273472 0.0088360203351 0.013020835698 
0.0084985013233 0.013927366795 0.16541588951 0.1698790307 0.038476245871 0.017527672829 0.0079062886786 0.0090422346222 0.00048426715152 
0.016940765952 0.020112457397 0.016941989426 0.036011134047 0.029361304775 0.012001492916 0.010491608125 0.0164266823 0.013009207628 
0.010666085906 0.011764141681 0.018505702182 0.018610982264 0.034152636435 0.023990446265 0.02698679006 0.035976090549 0.036770118575 
0.026773646808 0.015521309165 0.029800914409 0.031495166381 0.023917210194 0.046671543117 0.030353600041 0.048004317575 0.031723091997 
0.027027081547 0.027027081547 0.069937094569 0.03530968867 0.030315753745 0.040893584686 0.035410245821 0.044941724668 0.046132501909 
0.042664248879 0.030934629629 0.035589073967 0.031402505095 0.067198193768 0.027104912526 0.047681331383 0.032607683926 0.029816219507 
0.071211460487 0.043680754515 0.032607683926 0.028656267346 0.095917539883 0.10953203296 0.13166228604 0.098587659443 0.02186735019 
0.036818537694 0.040305504509 0.033147944002 0.037380889043 0.071906454888 0.040732001201 0.066756129548 0.11655754162 0.08286263456 
0.06483666447 0.034886793524 0.024305582047 0.035976090549 0.024305582047 0.026523909451 0.024305582047 0.037518776163 0.032272928855 
0.037518776163 0.036901531838 0.037518776163 0.06424726519 0.063492284287 0.076455163004 0.084676774817 0.0034842146169 0.0098053674956 
0.0078174483309 0.0094013493651 0.0059935278793 0.0056837557211 0.0034425631701 0.0059935278793 0.011312142687 0.013103829531 0.012909611888 
0.0056837557211 0.0082097359419 0.0077986309378 0.0036540183907 0.05670054351 0.064518774093 0.11014615741 0.0066232026834 0.096658152876 
0.10549426566 0.071689457111 0.06155203154 0.026552486007 0.058760677672 0.061298467828 0.069874596581 0.026520394773 0.11320144618 
0.037224574635 0.030111780813 0.1134473621 0.054969722847 0.0035663938435 0.0034425631701 0.0068434748933 0.0035663938435 0.0050718145004 
0.0043032039626 0.0043032039626 0.071689457111 0.065087218462 0.045874705125 0.11525815903 0.096786693288 0.067456178176 0.055102126897 
0.064219714953 0.011089067145 0.032222377899 0.089515597719 0.0042807151235 0.070657528172 0.054969722847 0.099257892663 0.1399724348 
0.74605530809 0.31810550512 1.0241520324 0.19868916698 0.040541636637 0.046494020466 0.049148827008 0.051436636847 0.052600035454 
0.068479161892 0.10538125762 0.047887589649 0.17434217189 0.58704960231 0.61389836582 0.11655754162 0.80163361636 0.76437362182 
0.69444656372 0.14607907255 0.35761065175 0.56020083879 0.28323191351 0.16095274832 0.15202646595 0.25051240116 0.22967420965 
0.3040529479 0.22967416848 0.26537934556 0.4381569423 0.41130817879 0.2118216417 0.12524762202 0.26834781199 0.19396907375 
1.0059473381 1.3751739694 0.04490189898 0.26834780239 0.70451186332 0.33043848852 0.66031346044 1.2290028946 0.97865040165 
0.049781122865 0.10763465867 0.016618649569 0.12416371321 0.074509574359 0.033096711846 0.024853159224 0.041387904404 0.033119397559 
0.033155709253 0.13229610951 0.049794902769 0.041387904404 0.033110323523 0.033110323523 0.016557430581 0.016557430581 0.049645068702 
0.028943743845 0.016618649569 0.028888218656 0.026902137862 0.026902137862 0.082605631752 0.049781122865 0.082685168636 0.074509574359 
0.033155709253 0.66059521873 0.79600059868 0.26488258818 0.13244129409 0.099399061297 1.4467588177 3.858024397 0.96450676153 
1.4467588177 2.7006190647 2.9417450928 5.1504509405 5.3168423971 5.5579684252 5.1504509405 0.24112627646 0.96450609925 
0.4822532152 0.2411266076 5.5555419922 5.5555419922 0.72337961583 1.9290128608 0.48225329798 0.72337994697 7.1252917471 
7.3664184375 7.2820241952 0.81983101221 1.0609577026 7.2820241952 1.4467601423 3.8580257216 0.96450676153 1.4467588177 
0.72337994697 0.48225329798 1.9290128608 0.72337961583 6.498362617 6.7394893074 7.8607276891 1.4467641159 1.6878914686 
7.8607283514 1.4467574932 3.8580230725 0.96450941062 1.4467561686 1.4467614668 3.8580270461 0.96450676153 1.4467588177 
2.0736892724 2.3148159628 8.6805586186 5.8714314711 6.1125580787 8.6805585358 0.24112664899 0.96450643039 0.48225313241 
0.24112664899 0.7233797814 0.48225313241 0.9268302285 0.7233797814 5.2445025563 5.4856285016 9.5003632888 2.7006116473 
2.9417370131 9.5003627093 1.4467614668 3.8580270461 0.96450411243 1.4467614668 0.94190067511 0.060281791598 0.30671307436 
0.48225304963 0.92683015089 0.7233797814 4.6175728488 4.8586987527 4.5235232426 3.3275390554 3.5686644213 4.5235227045 