# vtk DataFile Version 5.1
vtk output
ASCII
DATASET STRUCTURED_POINTS
DIMENSIONS 60 20 20
SPACING 0.05 0.05 0.05
ORIGIN 2.225 -0.475 0.525
POINT_DATA 24000
FIELD FieldData 1
potential 1 24000 double
0.0022122884863 0.0022466235481 0.0022819012263 0.0023181667453 0.0023554709939 0.0023938700539 0.0024334229485 0.0024741893274 0.0025162287445 
0.0025596041333 0.0027441994872 0.0027891065992 0.0028353998273 0.0028830908347 0.0029321892744 0.0029827107264 0.003034667214 0.0030880729852 
0.0031429421084 0.0031992979958 0.0032571646054 0.0033165697198 0.003377543977 0.003440110557 0.0035043017511 0.0035701483705 0.0036376854385 
0.0037069643759 0.0037780507929 0.0038510255575 0.0039259899908 0.0040030610382 0.0040823655986 0.0041640391454 0.0042482249733 0.0043350715261 
0.004424735936 0.0045173779431 0.0046131729896 0.004701971709 0.0048011220944 0.0049042623625 0.0050113899748 0.0051225003572 0.0052376025725 
0.0053567188773 0.0054798790768 0.0056071298666 0.0057385265469 0.0058741419783 0.0060140250639 0.0061582672181 0.0063069528377 0.0064601958253 
0.0066181371886 0.0067809597618 0.0069488778187 0.0071221544632 0.0073010858111 0.007485993321 0.0021789453628 0.0022123979761 0.0022467709847 
0.0022821053407 0.0023184540058 0.0023558707288 0.0023944120244 0.002434135485 0.0024751011578 0.0025173688097 0.0027180789668 0.0027623859887 
0.0028080627912 0.0028551157784 0.0029035496373 0.0029533742886 0.0030045969332 0.0030572312684 0.0031112852444 0.0031667796633 0.0032237362373 
0.0032821803636 0.0033421375446 0.0034036354624 0.0034666981567 0.0035313560583 0.0035976440494 0.0036656087726 0.0037353156773 0.0038068431667 
0.0038802869548 0.0039557637489 0.0040333960475 0.0041133161553 0.0041956603228 0.0042805797261 0.004368223645 0.0044587529235 0.0045523352658 
0.004637405898 0.0047343610852 0.0048352788827 0.0049401336933 0.0050489032595 0.0051615774843 0.0052781538929 0.0053986491094 0.0055230877061 
0.0056515106177 0.0057839591838 0.0059204939021 0.0060611611654 0.0062060343269 0.0063552107681 0.0065088122807 0.0066670031098 0.0068299778781 
0.0069979771231 0.0071712738827 0.0073501713637 0.0021449780444 0.0021775347013 0.0022109887935 0.0022453821787 0.0022807633746 0.0023171854614 
0.0023547033615 0.0023933725276 0.0024332508175 0.0024743965694 0.0026910556333 0.0027347844527 0.0027798604558 0.0028262872262 0.0028740667783 
0.0029232001261 0.0029736940425 0.0030255550907 0.0030787952889 0.0031334268292 0.003189468817 0.0032469449389 0.0033058774641 0.0033662904959 
0.0034282099115 0.0034916627034 0.0035566832867 0.003623317038 0.0036916238031 0.0037616836392 0.0038335882439 0.0039074486443 0.0039833838376 
0.0040615211815 0.0041419943771 0.0042249489166 0.0043105312074 0.0043989008389 0.0044902206487 0.0045709159 0.0046657609405 0.0047645424558 
0.0048672071477 0.0049737174446 0.0050840392914 0.0051981571572 0.0053160651336 0.0054377686965 0.0055632878742 0.0056926473231 0.0058258895945 
0.0059630448571 0.0061041733857 0.006249350244 0.0063986802223 0.0065523056315 0.0067104064753 0.0068731984437 0.0070409295885 0.0072138835275 
0.0021107381426 0.0021423904897 0.0021749179151 0.002208362928 0.0022427703481 0.0022781899891 0.0023146773523 0.0023522846363 0.0023910678371 
0.0024310804717 0.0026635145356 0.0027066914246 0.0027511926886 0.0027970149126 0.0028441569313 0.0028926187531 0.0029423998563 0.0029935029248 
0.003045937327 0.0030997153816 0.0031548505119 0.0032113612319 0.0032692712032 0.0033286008584 0.0033893753829 0.0034516178526 0.0035153667517 
0.003580663465 0.0036475649988 0.003716147799 0.0037865059475 0.0038587372866 0.0039329591914 0.0040092971829 0.0040878786623 0.0041688429029 
0.0042523319181 0.0043385034178 0.0044275156683 0.004503104578 0.0045959538595 0.0046927084353 0.0047932986403 0.004897661114 0.0050057439663 
0.0051175125858 0.0052329390362 0.0053520132435 0.0054747336875 0.0056011102215 0.0057311616833 0.0058649068026 0.006002385853 0.0061436632553 
0.006288823762 0.0064379877279 0.0065913163373 0.0067490081566 0.0069112749658 0.0070783830965 0.0021727441745 0.0022017413026 0.0022308304804 
0.0022599947105 0.0022892210411 0.0023184951247 0.002347809955 0.0023771560055 0.002406519487 0.0024358938266 0.0026431581117 0.0026850188285 
0.00272804796 0.0027722889593 0.0028177841522 0.0028645720303 0.0029126867572 0.0029621599158 0.0030130236888 0.0030653081818 0.0031190458894 
0.0031742593517 0.0032309729537 0.0032892116107 0.0033489903954 0.0034103245485 0.0034732365534 0.003537746498 0.0036038867627 0.0036716978453 
0.0037412327839 0.0038125481084 0.0038857061861 0.0039607764056 0.0040378285566 0.0041169286752 0.0041981563819 0.0042815869331 0.0043673005899 
0.0044619745298 0.0045508026231 0.004642802305 0.0047380933472 0.0048367819811 0.0049389649534 0.0050447412969 0.0051541995201 0.005267427399 
0.0053844965507 0.0055054783647 0.0056304356047 0.0057594170633 0.0058924626589 0.0060296304315 0.0061709701049 0.0063165517599 0.0064664638204 
0.0066208061229 0.0067796850446 0.0069432144602 0.0021515576377 0.0021799501109 0.0022084446405 0.0022370235991 0.0022656730997 0.0022943808954 
0.0023231353029 0.0023519302105 0.0023807502413 0.00240958707 0.0026171022147 0.0026584148871 0.0027008452676 0.0027444361826 0.0027892288269 
0.0028352624975 0.0028825699988 0.0029311836738 0.0029811357865 0.0030324585073 0.0030851779722 0.0031393252182 0.0031949211075 0.0032519909362 
0.0033105534692 0.0033706288086 0.0034322367402 0.0034954050833 0.0035601637077 0.0036265553911 0.003694632493 0.0037644493004 0.0038360678291 
0.0039095511573 0.0039849713188 0.0040623929178 0.004141893465 0.0042235473997 0.0043074364598 0.0044002812559 0.0044873703826 0.0045774418764 
0.0046706108264 0.0047669813607 0.0048666522567 0.0049697203068 0.0050762756539 0.0051863979223 0.0053001657002 0.0054176477744 0.0055389064755 
0.0056640004965 0.0057929663356 0.0059258654662 0.0060627566257 0.0062037075049 0.0063488048194 0.0064981459007 0.0066518314504 0.0068099734633 
0.0021313190768 0.0021591423233 0.0021870759998 0.0022151028602 0.0022432088542 0.0022713823488 0.0022996123629 0.0023278870746 0.0023561969828 
0.0023845318317 0.0025916106935 0.0026323764719 0.0026742121077 0.0027171618482 0.0027612634292 0.0028065562412 0.0028530733444 0.0029008478555 
0.0029499121683 0.0030002957668 0.0030520269882 0.0031051361052 0.0031596492489 0.0032155855388 0.0032729691847 0.003331822828 0.0033921683942 
0.0034540336933 0.0035174551314 0.0035824730435 0.0036491355335 0.0037174974632 0.0037876196624 0.0038595644256 0.0039333960289 0.0040091876781 
0.0040870064722 0.0041669307163 0.0042490422372 0.0043395512969 0.0044249355167 0.0045131214721 0.004604224101 0.0046983448894 0.0047955810913 
0.0048960304546 0.0049997774351 0.005106901486 0.005217485848 0.0053315982256 0.0054492965049 0.0055706402832 0.0056956894739 0.0058244874797 
0.005957100582 0.0060936028688 0.0062340771078 0.0063786104092 0.0065273073255 0.0066802719943 0.0021121772378 0.0021394646445 0.0021668714697 
0.0021943793286 0.0022219770429 0.002249649796 0.0022773869973 0.0023051764333 0.0023330089037 0.0023608751034 0.002566886342 0.0026071089741 
0.0026483586151 0.002690677143 0.0027341009507 0.0027786708522 0.002824418949 0.0028713779739 0.0029195794704 0.0029690535143 0.0030198301799 
0.003071935104 0.0031253975954 0.0031802407054 0.0032364887631 0.0032941617313 0.0033532910654 0.0034138997096 0.0034760271374 0.0035397135429 
0.0036050061987 0.0036719603969 0.0037406327159 0.0038110834297 0.0038833755502 0.0039575792783 0.0040337673701 0.0041120115423 0.0041923922855 
0.0042801848285 0.0043639023077 0.0044502515065 0.0045393468316 0.0046312894177 0.0047261734741 0.0048240941349 0.0049251368098 0.0050293823744 
0.00513690313 0.0052477753335 0.0053620592771 0.0054798125515 0.0056010931286 0.0057259654057 0.0058544783048 0.0059867130091 0.0061227478523 
0.0062626720853 0.0064065826278 0.0065545785236 0.0020942235314 0.002121009822 0.0021479230019 0.002174946735 0.0022020670583 0.0022292727202 
0.0022565488521 0.0022838872569 0.0023112756057 0.002338707 0.0025430676807 0.0025827549933 0.0026234265631 0.0026651269014 0.0027078899895 
0.0027517559826 0.002796756511 0.0028429248085 0.0028902920387 0.0029388896938 0.0029887443637 0.0030398847614 0.0030923352718 0.0031461261368 
0.0032012783638 0.0032578191408 0.0033157737295 0.0033751724597 0.0034360511655 0.0034984525375 0.0035624208509 0.0036280113781 0.0036952783054 
0.0037642793891 0.0038350795087 0.0039077445666 0.003982347556 0.0040589592227 0.004137660428 0.0042224670624 0.0043045569756 0.0043891202044 
0.0044762722964 0.0045661074027 0.0046587240266 0.0047542130142 0.0048526564496 0.0049541364927 0.0050587246684 0.0051664893228 0.0052775028107 
0.0053918195564 0.0055094960596 0.0056306078982 0.005755195084 0.0058833426904 0.006015128133 0.0061506323382 0.0062899521319 0.0064331839309 
0.0020775046025 0.0021038246886 0.0021302781192 0.0021568487757 0.0021835244921 0.0022102928014 0.0022371413688 0.0022640594227 0.0022910375731 
0.0023180682189 0.0025202466125 0.0025594032677 0.0025995083925 0.0026406011172 0.0026827200737 0.0027259007547 0.002770176424 0.0028155808525 
0.0028621447265 0.0029098964833 0.0029588640756 0.0030090764142 0.003060560183 0.0031133387303 0.0031674412068 0.0032228924487 0.0032797203341 
0.0033379533949 0.0033976303604 0.0034587905657 0.0035214790305 0.0035857498142 0.0036516537983 0.0037192511702 0.003788602116 0.0038597745181 
0.0039328407365 0.0040078671238 0.0040849370816 0.004166593022 0.004247090305 0.0043299187737 0.0044151845983 0.0045029859756 0.004593418096 
0.0046865678891 0.0047825174236 0.0048813459377 0.0049831258842 0.0050879254169 0.0051958104753 0.0053068441545 0.0054210822537 0.0055385874974 
0.0056594272864 0.0057836633378 0.0059113778601 0.0060426512568 0.0061775742595 0.0063162339115 0.0020620316098 0.0020879174422 0.0021139433407 
0.0021400930525 0.00216635579 0.002192717428 0.0022191684538 0.0022456986496 0.0022722986418 0.0022989594824 0.0024984679413 0.002537101038 
0.0025766485245 0.0026171490252 0.0026586390556 0.0027011553392 0.0027447299423 0.0027893960019 0.0028351840286 0.0028821231649 0.0029302381046 
0.0029795615255 0.0030301158626 0.0030819272429 0.0031350218675 0.0031894265453 0.0032451715515 0.0033022863589 0.0033608039738 0.0034207668317 
0.0034822172717 0.0035452111917 0.0036097945864 0.003676030697 0.0037439788486 0.0038137045738 0.0038852759171 0.0039587656165 0.004034250448 
0.0041126760891 0.0041916214758 0.0042727594413 0.0043561998157 0.0044420366103 0.004530363219 0.004621266741 0.0047148253513 0.0048111129895 
0.0049102094897 0.0050121750893 0.0051170731408 0.0052249689623 0.0053359197384 0.0054499906731 0.0055672438218 0.0056877383838 0.0058115568111 
0.0059387743125 0.006069484876 0.0062037652636 0.0020477843234 0.0020732675223 0.0020988966123 0.0021246556191 0.0021505343545 0.0021765194437 
0.0022026036389 0.0022287760019 0.0022550276581 0.0022813509093 0.0024777451988 0.0025158600925 0.0025548596791 0.0025947795346 0.0026356565472 
0.002677527745 0.0027204244501 0.0027643785089 0.0028094179801 0.0028555737101 0.0029028731987 0.0029513422148 0.0030010067412 0.0030518912764 
0.0031040209137 0.0031574240806 0.0032121268603 0.0032681632833 0.0033255657018 0.0033843727106 0.0034446271488 0.0035063828083 0.0035696889892 
0.0036346053737 0.0037011912793 0.0037695116385 0.0038396344314 0.0039116293557 0.0039855737653 0.0040607737108 0.0041381964563 0.0042176904668 
0.0042993631663 0.0043833025957 0.0044696034848 0.0045583424811 0.0046496070007 0.0047434669782 0.0048399948407 0.0049392508957 0.0050413008925 
0.0051461999816 0.0052540155006 0.0053647998495 0.0054786188638 0.0055955430365 0.0057156322293 0.0058389687566 0.0059656399834 0.0060957233613 
0.0020347142216 0.0020598252155 0.0020850869507 0.0021104846854 0.0021360063369 0.0021616438015 0.0021873881587 0.0022132306713 0.0022391639776 
0.002265179394 0.0024580529142 0.0024956585288 0.0025341178827 0.0025734691909 0.0026137495402 0.0026549936104 0.0026972325275 0.0027404979131 
0.0027848167856 0.0028302204744 0.0028767335061 0.002924384112 0.0029731956485 0.003023191552 0.0030743974972 0.0031268385762 0.0031805427504 
0.0032355407439 0.0032918644375 0.003349555357 0.0034086547451 0.0034692090042 0.0035312759587 0.003594910908 0.0036601743095 0.0037271288112 
0.0037958416 0.0038663839929 0.0039388298631 0.0040108770209 0.0040868100262 0.0041647021557 0.0042446554238 0.0043267601473 0.0044111045327 
0.0044977653202 0.004586829204 0.00467835882 0.0047724297836 0.004869097562 0.0049684255488 0.0050704697469 0.0051752874963 0.0052829361078 
0.0053934771377 0.0055069699582 0.0056234967996 0.0057431148332 0.0058659105938 0.0059919764569 0.0020227420333 0.0020475079547 0.0020724292292 
0.002097491078 0.0021226823745 0.0021479985944 0.0021734299721 0.0021989698096 0.0022246112782 0.0022503480447 0.0024393329474 0.0024764327734 
0.0025143628527 0.0025531567069 0.0025928530572 0.0026334868749 0.002675087108 0.0027176850536 0.0027613093229 0.0028059880095 0.0028517464257 
0.0028986090651 0.00294660094 0.0029957426485 0.0030460600065 0.0030975772125 0.0031503213 0.0032043187119 0.003259602142 0.0033162114643 
0.0033741877561 0.0034335792225 0.0034944424478 0.0035568317673 0.0036208091675 0.0036864356883 0.0037537782634 0.0038229048012 0.0038938895188 
0.0039629224655 0.0040373900319 0.004113715696 0.0041919977942 0.0042723219425 0.0043547764727 0.0044394384789 0.004526383267 0.0046156821132 
0.0047073962187 0.0048015882998 0.0048983108854 0.0049976219698 0.0050995760253 0.0052042285741 0.0053116328688 0.0054218501795 0.0055349472262 
0.0056510047613 0.0057700888906 0.0058922927294 0.0020117468123 0.0020361934411 0.0020607971764 0.0020855465865 0.0021104336538 0.0021354523686 
0.0021605940746 0.002185857269 0.0022112322961 0.0022367145238 0.0024214793964 0.0024580795077 0.0024954836454 0.0025337309861 0.0025728565749 
0.0026128934379 0.0026538706265 0.0026958221143 0.0027387745515 0.0027827527492 0.0028277809554 0.0028738845344 0.0029210854558 0.0029694049695 
0.0030188664664 0.0030694931726 0.0031213089374 0.0031743403735 0.0032286152993 0.0032841747159 0.003341061016 0.0033993217159 0.0034590141991 
0.0035201905535 0.0035829161218 0.0036472484339 0.0037132525237 0.003780997012 0.0038505578239 0.0039167590113 0.0039897865413 0.0040645763827 
0.0041412266798 0.0042198192778 0.004300444127 0.00438317576 0.0044680822049 0.0045552310185 0.0046446845212 0.0047364987279 0.0048307285013 
0.0049274226174 0.0050266353154 0.0051284148682 0.0052328155018 0.0053398875318 0.005449701298 0.0055623372306 0.005677859025 0.0057963579025 
0.0020015623541 0.0020257107482 0.0020500193494 0.0020744782013 0.0020990824564 0.0021238231674 0.0021486991981 0.002173706203 0.0021988382914 
0.0022240890085 0.0024043329997 0.0024404328626 0.0024773189261 0.0025150259177 0.002553588454 0.0025930397483 0.0026334111096 0.0026747334262 
0.0027170302268 0.002760326804 0.0028046478684 0.0028500169931 0.0028964510204 0.0029439740628 0.0029926065274 0.0030423699111 0.0030932847266 
0.003145376473 0.0031986725431 0.0032532103967 0.0033090345371 0.0033661949601 0.0034247422401 0.0034847356799 0.0035462376166 0.0036093044359 
0.0036740005798 0.0037403940469 0.0038085550606 0.0038721571735 0.00394375662 0.0040170360637 0.0040920857669 0.0041689938811 0.0042478422084 
0.0043286997664 0.0044116338617 0.0044967106146 0.0045839871397 0.0046735131285 0.0047653419675 0.0048595245699 0.0049561041392 0.0050551256193 
0.0051566374666 0.0052606906745 0.005367348822 0.0054766869852 0.005588789229 0.0057037215102 0.0019919689807 0.0020158373503 0.002039868876 
0.0020640566404 0.0020883944327 0.0021128791647 0.0021375076323 0.0021622772124 0.0021871853326 0.0022122246373 0.0023876733966 0.0024232740855 
0.0024596426731 0.0024968134526 0.0025348199405 0.0025736950792 0.0026134696077 0.0026541732476 0.0026958290839 0.0027384605962 0.0027820907627 
0.0028267398313 0.0028724280358 0.0029191737199 0.0029669984314 0.0030159157631 0.0030659507477 0.0031171240037 0.0031694633529 0.0032230042989 
0.0032777917792 0.0033338724636 0.0033913009377 0.0034501363968 0.0035104357621 0.0035722625486 0.0036356742395 0.0037007373357 0.0037675231411 
0.0038287840253 0.0038989657856 0.0039707493266 0.0040442262346 0.0041194813557 0.0041965929229 0.0042756271664 0.0043566450956 0.0044397130301 
0.0045248793384 0.0046121977848 0.004701711124 0.0047934678427 0.0048875029012 0.0049838634437 0.0050825906143 0.0051837338611 0.0052873528922 
0.0053935234192 0.0055023131619 0.0056138151156 0.0019826995754 0.002006300411 0.0020300690177 0.0020540010481 0.002078087939 0.0021023304332 
0.0021267263221 0.0021512741404 0.0021759712023 0.0022008137134 0.0023712220665 0.0024063203095 0.0024421711018 0.0024788058402 0.0025162588292 
0.0025545611543 0.0025937452909 0.0026338356635 0.0026748574693 0.0027168328379 0.0027597809442 0.0028037220331 0.0028486746753 0.0028946550282 
0.0029416795756 0.0029897677649 0.0030389350924 0.0030892055023 0.0031406039575 0.0031931651208 0.0032469325004 0.0033019535151 0.0033582811389 
0.0034159754551 0.0034750921059 0.0035356914139 0.0035978358145 0.0036615848251 0.0037270109066 0.0037862146898 0.0038549779628 0.0039252743568 
0.0039971939565 0.0040708188238 0.0041462204035 0.004223465874 0.0043026135372 0.0043837200775 0.0044668339813 0.004552002122 0.0046392662743 
0.0047286639983 0.0048202368303 0.0049140179204 0.0050100504663 0.0051083758964 0.0052090604248 0.005312164611 0.0054177625145 0.0055259344755 
0.0019734502052 0.0019967914045 0.0020203074465 0.0020439912691 0.0020678389439 0.0020918485302 0.0021160219846 0.0021403587535 0.0021648557842 
0.0021895105581 0.0023546562564 0.0023892461446 0.002424571436 0.0024606671253 0.0024975646678 0.0025352954737 0.0025738878531 0.0026133660947 
0.0026537552804 0.0026950749504 0.0027373437401 0.0027805794294 0.0028247978746 0.0028700145795 0.0029162458481 0.0029635071543 0.0030118155021 
0.0030611906533 0.0031116551448 0.0031632472109 0.0032160055172 0.0032699776926 0.0033252159176 0.0033817776581 0.0034397234168 0.0034991068881 
0.0035599902445 0.0036224344863 0.0036865082661 0.0037438970005 0.0038112815942 0.0038800916581 0.0039504594016 0.0040224644201 0.004096174029 
0.0041716534321 0.0042489574286 0.0043281363852 0.0044092345546 0.0044922962022 0.0045773581157 0.0046644565937 0.0047536234424 0.0048448951045 
0.0049383047407 0.005033893385 0.0051317233504 0.0052318524541 0.0053343510036 0.0054392988755 0.0019639010095 0.0019869881643 0.0020102555209 
0.002033697285 0.0020573100801 0.0020810956878 0.0021050521336 0.0021291829443 0.002153485023 0.0021779561751 0.0023376358822 0.0023717051329 
0.0024064975549 0.0024420466709 0.0024783818026 0.0025155338255 0.0025535288992 0.0025923910744 0.0026321409065 0.002672798389 0.0027143819497 
0.0027569075561 0.0028003862739 0.0028448360706 0.0028902696527 0.0029367033378 0.002984147471 0.0030326268565 0.0030821614076 0.0031327858601 
0.0031845378719 0.003237465279 0.0032916205205 0.0033470549022 0.0034038299868 0.0034619996612 0.0035216222656 0.0035827606703 0.003645479913 
0.003701404991 0.003767289635 0.00383465122 0.0039034613518 0.0039738455609 0.0040458703388 0.0041195908983 0.0041950620267 0.0042723313519 
0.004351440668 0.004432421633 0.0045153153118 0.0046001513534 0.0046869599853 0.0047757664961 0.0048666114861 0.0049595283038 0.0050545704222 
0.0051517971379 0.0052512763013 0.0053530812142 0.0024105526622 0.0024474436508 0.0024853232708 0.0025242322223 0.0025642186132 0.0026053330692 
0.002647628796 0.0026911623613 0.0027359903789 0.0027821718448 0.0029808829399 0.0030296380288 0.0030798651901 0.00313157852 0.0031847883291 
0.0032395109688 0.0032957655347 0.0033535726776 0.0034129488361 0.0034739226695 0.00353652193 0.0036007807706 0.0036667310291 0.0037344101318 
0.0038038557639 0.0038751139996 0.003948230992 0.0040232721531 0.0041003073847 0.0041794277671 0.0042607290815 0.0043443299307 0.0044303535627 
0.004518934029 0.0046102124704 0.0047043409826 0.004801475295 0.0049017806159 0.0050054328413 0.00510683841 0.0052132841449 0.005324064702 
0.0054391775319 0.0055586245887 0.0056824181874 0.0058105796839 0.00594314405 0.0060801598592 0.0062216896187 0.0063678071809 0.0065185826438 
0.0066741164228 0.0068345184324 0.0069999189925 0.0071704786011 0.0073463924698 0.0075278825786 0.0077152043453 0.0079086547431 0.0081085464313 
0.0023768248878 0.002412819079 0.0024497758197 0.00248773484 0.0025267437385 0.0025668511212 0.0026081106587 0.0026505760384 0.0026943016638 
0.0027393467028 0.0029537500413 0.0030018668501 0.0030514345924 0.0031024653873 0.0031549671265 0.0032089487476 0.0032644263867 0.0033214134285 
0.0033799311779 0.0034399977603 0.0035016414633 0.003564888761 0.0036297710697 0.0036963258978 0.0037645860516 0.0038345945165 0.0039063966387 
0.0039800545092 0.0040556357332 0.0041332256176 0.0042129224015 0.0042948371758 0.004379090349 0.0044658149272 0.0045551470931 0.0046472340771 
0.0047422308132 0.0048403003382 0.0049416154078 0.0050392861769 0.0051433367562 0.0052516991912 0.0053643429962 0.0054812531362 0.0056024213614 
0.0057278459729 0.005857548335 0.0059915528838 0.0061298993943 0.0062726382959 0.0064198421676 0.0065715712177 0.0067279221463 0.0068890032355 
0.0070549620697 0.0072259643113 0.0074022117976 0.0075839428985 0.0077714266776 0.0079649542726 0.0023426311452 0.0023777180749 0.002413740754 
0.0024507412037 0.0024887629021 0.0025278539233 0.0025680664789 0.0026094522807 0.0026520651153 0.0026959613323 0.0029258675993 0.0029733661839 
0.0030222967827 0.0030726628154 0.0031244690757 0.0031777224037 0.003232431869 0.0032886083785 0.0033462680355 0.0034054312223 0.0034661175575 
0.0035283521004 0.0035921655009 0.0036575876578 0.0037246532791 0.0037934030626 0.0038638794236 0.0039361415948 0.0040102549348 0.0040863009733 
0.0041643762761 0.0042445871872 0.0043270498512 0.0044118939277 0.0044992522174 0.0045892665071 0.0046820897457 0.0047778811619 0.0048768089309 
0.0049700728431 0.0050718260802 0.0051778637782 0.0052881375653 0.0054026034231 0.0055212370839 0.0056440183766 0.005770944871 0.0059020246812 
0.0060372769713 0.0061767343932 0.0063204432113 0.0064684496658 0.0066208358105 0.0067776860703 0.0069391274212 0.007105304525 0.0072763991822 
0.0074526292573 0.0076342332275 0.0078214850185 0.0023082250711 0.0023423970283 0.0023774801259 0.0024135145122 0.002450543285 0.0024886118985 
0.0025277695924 0.0025680691596 0.002609560446 0.0026523000022 0.0028975081264 0.0029444175987 0.0029927357015 0.0030424613144 0.0030935946395 
0.0031461388718 0.0032000981575 0.0032554802471 0.0033122985112 0.003370566301 0.0034303066216 0.0034915363082 0.0035542849943 0.0036185802924 
0.0036844535008 0.0037519418659 0.0038210902762 0.0038919530398 0.0039645940395 0.0040390902816 0.0041155357422 0.0041940326556 0.0042746924353 
0.004357637356 0.0044430019052 0.0045309198104 0.0046215426683 0.0047150220902 0.0048115244609 0.0048996060977 0.004999181678 0.0051030144638 
0.0052110344791 0.0053231781577 0.0054393960666 0.0055596530894 0.0056839216263 0.0058121935808 0.0059444643293 0.0060807515097 0.0062210775919 
0.0063654804093 0.006514007019 0.0066667390046 0.0068237744648 0.0069852414902 0.0071512979409 0.0073221397079 0.0074979835773 0.0076790705509 
0.0023659901683 0.0023973492297 0.0024288506779 0.0024604768714 0.0024922119938 0.0025240413512 0.0025559532616 0.0025879373642 0.0026199818993 
0.0026520758018 0.0028770909292 0.0029227026188 0.0029695544061 0.0030176960765 0.0030671715739 0.0031180236917 0.0031702903669 0.003224009281 
0.003279215541 0.0033359448591 0.0033942279228 0.0034541020435 0.0035155885126 0.0035787193055 0.0036435214655 0.0037100173125 0.0037782381654 
0.003848217192 0.0039199892681 0.0039936013911 0.0040691059195 0.0041465616502 0.0042260296429 0.0043075774256 0.0043912783025 0.0044772033122 
0.0045654297072 0.0046560388885 0.0047491129375 0.0048512335867 0.0049479198021 0.0050479574137 0.0051514712348 0.0052585794091 0.0053693915593 
0.005484014573 0.005602548337 0.0057250836976 0.0058517167116 0.0059825209896 0.0061175777034 0.0062569621652 0.0064007263831 0.0065489556483 
0.0067017226582 0.0068591102947 0.0070212176753 0.0071881501036 0.007360024725 0.0075369552683 0.0023443392619 0.0023750843212 0.0024059778968 
0.0024370037865 0.002468145789 0.0024993896026 0.0025307232303 0.0025621364645 0.002593616913 0.0026251537245 0.0028500560556 0.0028950787926 
0.0029412925278 0.0029887444066 0.0030374792381 0.0030875366905 0.0031389555701 0.0031917734422 0.003246026179 0.0033017475651 0.0033589711312 
0.0034177294586 0.0034780521513 0.0035399647128 0.0036034978355 0.0036686785472 0.0037355343349 0.0038041031958 0.0038744203207 0.0039465309359 
0.0040204896381 0.0040963524073 0.0041741799496 0.004254038295 0.0043359990427 0.0044201325883 0.0045065146587 0.0045952270679 0.0046863515706 
0.0047863899951 0.0048812125715 0.0049791941717 0.0050804557374 0.0051851122501 0.0052932734815 0.005405045891 0.0055205222877 0.0056398020235 
0.0057629690933 0.0058901050051 0.0060212853323 0.0061565839049 0.006296074027 0.0064398166537 0.0065878973424 0.006740396141 0.0068974083991 
0.0070590397459 0.0072253999843 0.0073966019519 0.0023234969922 0.0023536598516 0.0023839776938 0.0024144344558 0.0024450144404 0.0024757037039 
0.0025064914386 0.0025373647808 0.0025683123708 0.002599325975 0.0028234308201 0.0028678645187 0.0029134417194 0.0029602100274 0.0030082108516 
0.0030574841288 0.0031080709767 0.0031600055198 0.003213323207 0.0032680596741 0.0033242479272 0.0033819161377 0.0034410987936 0.003501828439 
0.0035641248663 0.0036280229172 0.0036935511403 0.0037607460145 0.0038296466264 0.003900296328 0.0039727495479 0.004047060268 0.0041232890078 
0.0042015023482 0.0042817645918 0.004364149748 0.004448734251 0.0045355942801 0.0046248135897 0.0047222794567 0.0048152674914 0.0049112295101 
0.0050102873756 0.0051125560363 0.0052181392725 0.005327139343 0.0054396549912 0.0055557773099 0.0056755874801 0.0057991735448 0.0059266143618 
0.0060579718626 0.0061933282073 0.0063327457974 0.0064763057237 0.0066240922159 0.006776197036 0.0069327197611 0.0070937669684 0.0072594493929 
0.0023035895594 0.0023332015831 0.0023629756562 0.00239289505 0.0024229447577 0.0024531116871 0.0024833843843 0.0025137489918 0.0025441967874 
0.0025747174854 0.0027973948495 0.0028412423044 0.0028861886753 0.0029322803053 0.0029795577413 0.0030280617818 0.0030778311435 0.0031289006105 
0.0031813055473 0.0032350812183 0.0032902597439 0.0033468725547 0.0034049487734 0.0034645222029 0.0035256220331 0.003588273247 0.0036525137666 
0.003718375435 0.003785898935 0.0038551293509 0.0039261183357 0.0039989195114 0.0040735922814 0.0041502025754 0.0042288111349 0.0043094927781 
0.0043923219347 0.0044773761971 0.0045647363146 0.0046592649344 0.004750449089 0.0048444348088 0.004941342476 0.0050412844214 0.005144362088 
0.0052506769832 0.0053603255365 0.0054733938748 0.0055899702038 0.0057101326114 0.0058339625013 0.0059615256515 0.0060928955619 0.0062281566244 
0.0063673666627 0.006510617405 0.0066579978552 0.0068096035851 0.0069655403503 0.0071259096944 0.0022846997776 0.0023137932645 0.0023430551117 
0.0023724673657 0.0024020180669 0.0024316949299 0.002461483161 0.0024913718736 0.0025213504965 0.0025514115758 0.0027720804015 0.0028153440418 
0.0028596660113 0.0029050902965 0.0029516577857 0.0029994075423 0.0030483773452 0.0030986036865 0.0031501205337 0.0032029629574 0.0032571608951 
0.0033127481401 0.003369752903 0.0034282087792 0.0034881441671 0.0035495915586 0.0036125810623 0.0036771511986 0.003743339904 0.0038111928886 
0.0038807579453 0.0039520918632 0.0040252539239 0.0041003019129 0.0041773025426 0.0042563235912 0.0043374433527 0.0044207347303 0.0045062815514 
0.0045976216972 0.0046870322359 0.0047790863108 0.004873898861 0.004971577448 0.0050722265763 0.0051759431928 0.0052828221603 0.0053929467532 
0.0055064053188 0.0056232693623 0.0057436247368 0.0058675390426 0.0059950836712 0.0061263386137 0.0062613699111 0.0064002611634 0.0065431012371 
0.0066899788374 0.0068409987393 0.0069962654457 0.0022668744707 0.0022954805206 0.0023242605823 0.0023531980595 0.0023822804866 0.0024114956385 
0.0024408296778 0.0024702726906 0.0024998149426 0.0025294461301 0.0027475766108 0.0027902601399 0.0028339652458 0.0028787335696 0.0029246035766 
0.0029716152731 0.0030198054342 0.0030692092516 0.0031198626036 0.0031717989247 0.0032250466726 0.0032796407659 0.0033356102566 0.0033929842562 
0.0034517951332 0.0035120737475 0.0035738573983 0.0036371766293 0.0037020703756 0.003768586611 0.0038367710889 0.0039066798657 0.0039783695787 
0.0040518982042 0.0041273319462 0.0042047394135 0.0042841914743 0.0043657675001 0.004449544361 0.0045375437951 0.0046252158963 0.0047153803515 
0.0048081512912 0.004903633269 0.0050019273513 0.0051031332293 0.0052073373013 0.0053146242443 0.0054250790251 0.0055387776594 0.0056557931374 
0.0057761998417 0.0059000694335 0.0060274764254 0.0061584963829 0.0062931996426 0.0064316747259 0.0065740144866 0.0067203097937 0.0068706656478 
0.00225012478 0.0022782738246 0.0023066032595 0.0023350956884 0.0023637387381 0.0023925220132 0.0024214319787 0.0024504593686 0.002479593534 
0.0025088282105 0.0027239334568 0.0027660424194 0.0028091368928 0.0028532576704 0.0028984446358 0.0029447340165 0.0029921635682 0.0030407683875 
0.0030905837216 0.0031416408124 0.003193969284 0.0032476023267 0.0033025697581 0.0033589011107 0.0034166256386 0.0034757769769 0.0035363893846 
0.0035984992369 0.0036621380205 0.003727358062 0.0037942022003 0.0038627246446 0.0039329834347 0.0040050340885 0.0040789437614 0.0041547762151 
0.0042326074125 0.0043125083096 0.0043945612349 0.0044791577919 0.0045651191855 0.0046534370995 0.0047442183174 0.0048375666359 0.0049335818082 
0.0050323588746 0.005133984376 0.0052385379891 0.0053461049752 0.0054567571847 0.0055705693902 0.0056876084437 0.0058079502128 0.0059316661548 