# vtk DataFile Version 5.1
vtk output
ASCII
DATASET STRUCTURED_POINTS
DIMENSIONS 20 20 20
SPACING 2e-05 2e-05 2e-05
ORIGIN 3.69981 -0.00019 0.99981
POINT_DATA 8000
FIELD FieldData 1
potential 1 8000 double
0.0211896248 0.021189795992 0.021189967185 0.021190138379 0.021190309574 0.021190480769 0.021190651965 0.021190823163 0.021190994361 
0.021191165559 0.021191336759 0.021191507959 0.021191679161 0.021191850363 0.021192021566 0.021192192769 0.021192363974 0.021192535179 
0.021192706386 0.021192877593 0.021189878266 0.021190049462 0.021190220658 0.021190391856 0.021190563054 0.021190734253 0.021190905453 
0.021191076653 0.021191247855 0.021191419057 0.021191590261 0.021191761465 0.021191932669 0.021192103875 0.021192275082 0.021192446289 
0.021192617497 0.021192788706 0.021192959916 0.021193131126 0.021190131736 0.021190302935 0.021190474135 0.021190645336 0.021190816538 
0.021190987741 0.021191158944 0.021191330148 0.021191501353 0.021191672559 0.021191843766 0.021192014974 0.021192186182 0.021192357391 
0.021192528601 0.021192699812 0.021192871024 0.021193042236 0.02119321345 0.021193384664 0.02119038521 0.021190556412 0.021190727616 
0.021190898821 0.021191070026 0.021191241232 0.021191412439 0.021191583647 0.021191754856 0.021191926065 0.021192097275 0.021192268486 
0.021192439698 0.021192610911 0.021192782125 0.021192953339 0.021193124554 0.02119329577 0.021193466987 0.021193638205 0.021190638687 
0.021190809894 0.021190981101 0.021191152309 0.021191323518 0.021191494728 0.021191665938 0.021191837149 0.021192008362 0.021192179575 
0.021192350789 0.021192522003 0.021192693219 0.021192864435 0.021193035652 0.02119320687 0.021193378089 0.021193549308 0.021193720529 
0.02119389175 0.021190892169 0.021191063379 0.021191234589 0.021191405801 0.021191577014 0.021191748227 0.021191919441 0.021192090656 
0.021192261872 0.021192433088 0.021192604306 0.021192775524 0.021192946743 0.021193117963 0.021193289183 0.021193460405 0.021193631627 
0.02119380285 0.021193974074 0.021194145299 0.021191145654 0.021191316868 0.021191488082 0.021191659297 0.021191830513 0.02119200173 
0.021192172948 0.021192344166 0.021192515385 0.021192686605 0.021192857826 0.021193029048 0.021193200271 0.021193371494 0.021193542718 
0.021193713943 0.021193885169 0.021194056396 0.021194227624 0.021194398852 0.021191399143 0.02119157036 0.021191741578 0.021191912797 
0.021192084017 0.021192255237 0.021192426458 0.02119259768 0.021192768903 0.021192940127 0.021193111351 0.021193282576 0.021193453803 
0.02119362503 0.021193796257 0.021193967486 0.021194138715 0.021194309946 0.021194481177 0.021194652409 0.021191652636 0.021191823857 
0.021191995078 0.021192166301 0.021192337524 0.021192508748 0.021192679973 0.021192851198 0.021193022424 0.021193193652 0.02119336488 
0.021193536109 0.021193707338 0.021193878569 0.0211940498 0.021194221032 0.021194392265 0.021194563499 0.021194734734 0.021194905969 
0.021191906133 0.021192077357 0.021192248582 0.021192419808 0.021192591035 0.021192762262 0.021192933491 0.02119310472 0.02119327595 
0.021193447181 0.021193618412 0.021193789645 0.021193960878 0.021194132112 0.021194303347 0.021194474583 0.021194645819 0.021194817056 
0.021194988295 0.021195159534 0.021192159634 0.021192330862 0.02119250209 0.02119267332 0.02119284455 0.021193015781 0.021193187013 
0.021193358246 0.021193529479 0.021193700713 0.021193871949 0.021194043184 0.021194214421 0.021194385659 0.021194556897 0.021194728137 
0.021194899377 0.021195070618 0.021195241859 0.021195413102 0.021192413139 0.02119258437 0.021192755602 0.021192926835 0.021193098069 
0.021193269303 0.021193440539 0.021193611775 0.021193783012 0.02119395425 0.021194125489 0.021194296728 0.021194467969 0.02119463921 
0.021194810452 0.021194981695 0.021195152938 0.021195324183 0.021195495428 0.021195666674 0.021192666647 0.021192837882 0.021193009118 
0.021193180354 0.021193351592 0.02119352283 0.021193694069 0.021193865308 0.021194036549 0.02119420779 0.021194379033 0.021194550276 
0.02119472152 0.021194892764 0.02119506401 0.021195235256 0.021195406504 0.021195577752 0.021195749 0.02119592025 0.02119292016 
0.021193091398 0.021193262637 0.021193433877 0.021193605118 0.02119377636 0.021193947602 0.021194118846 0.02119429009 0.021194461335 
0.021194632581 0.021194803827 0.021194975075 0.021195146323 0.021195317572 0.021195488822 0.021195660073 0.021195831324 0.021196002577 
0.02119617383 0.021193173676 0.021193344918 0.02119351616 0.021193687404 0.021193858648 0.021194029894 0.02119420114 0.021194372387 
0.021194543634 0.021194714883 0.021194886132 0.021195057382 0.021195228633 0.021195399885 0.021195571138 0.021195742391 0.021195913646 
0.021196084901 0.021196256157 0.021196427414 0.021193427196 0.021193598441 0.021193769688 0.021193940935 0.021194112183 0.021194283432 
0.021194454681 0.021194625932 0.021194797183 0.021194968435 0.021195139688 0.021195310942 0.021195482196 0.021195653452 0.021195824708 
0.021195995965 0.021196167223 0.021196338481 0.021196509741 0.021196681001 0.02119368072 0.021193851969 0.021194023219 0.021194194469 
0.021194365721 0.021194536973 0.021194708226 0.02119487948 0.021195050735 0.021195221991 0.021195393247 0.021195564505 0.021195735763 
0.021195907022 0.021196078281 0.021196249542 0.021196420803 0.021196592066 0.021196763329 0.021196934593 0.021193934247 0.0211941055 
0.021194276754 0.021194448008 0.021194619263 0.021194790519 0.021194961775 0.021195133033 0.021195304291 0.021195475551 0.021195646811 
0.021195818071 0.021195989333 0.021196160596 0.021196331859 0.021196503123 0.021196674388 0.021196845654 0.02119701692 0.021197188188 
0.021194187779 0.021194359035 0.021194530292 0.02119470155 0.021194872809 0.021195044068 0.021195215328 0.021195386589 0.021195557851 
0.021195729114 0.021195900378 0.021196071642 0.021196242907 0.021196414173 0.02119658544 0.021196756708 0.021196927976 0.021197099246 
0.021197270516 0.021197441787 0.021194441315 0.021194612574 0.021194783835 0.021194955096 0.021195126358 0.021195297621 0.021195468885 
0.02119564015 0.021195811415 0.021195982682 0.021196153949 0.021196325217 0.021196496485 0.021196667755 0.021196839025 0.021197010297 
0.021197181569 0.021197352842 0.021197524115 0.02119769539 0.021189943308 0.021190114502 0.021190285697 0.021190456893 0.02119062809 
0.021190799287 0.021190970486 0.021191141685 0.021191312885 0.021191484085 0.021191655287 0.021191826489 0.021191997693 0.021192168897 
0.021192340101 0.021192511307 0.021192682514 0.021192853721 0.021193024929 0.021193196138 0.021190196777 0.021190367975 0.021190539173 
0.021190710373 0.021190881573 0.021191052774 0.021191223976 0.021191395178 0.021191566382 0.021191737586 0.021191908791 0.021192079997 
0.021192251204 0.021192422412 0.02119259362 0.021192764829 0.021192936039 0.02119310725 0.021193278462 0.021193449674 0.02119045025 
0.021190621451 0.021190792653 0.021190963856 0.02119113506 0.021191306264 0.02119147747 0.021191648676 0.021191819883 0.021191991091 
0.0211921623 0.021192333509 0.021192504719 0.02119267593 0.021192847142 0.021193018355 0.021193189569 0.021193360783 0.021193531998 
0.021193703215 0.021190703726 0.021190874931 0.021191046137 0.021191217343 0.021191388551 0.021191559759 0.021191730968 0.021191902177 
0.021192073388 0.021192244599 0.021192415812 0.021192587025 0.021192758239 0.021192929453 0.021193100669 0.021193271885 0.021193443102 
0.02119361432 0.021193785539 0.021193956759 0.021190957207 0.021191128415 0.021191299624 0.021191470834 0.021191642045 0.021191813257 
0.021191984469 0.021192155683 0.021192326897 0.021192498112 0.021192669328 0.021192840544 0.021193011762 0.02119318298 0.021193354199 
0.021193525419 0.021193696639 0.021193867861 0.021194039083 0.021194210307 0.021191210691 0.021191381903 0.021191553116 0.021191724329 
0.021191895544 0.021192066759 0.021192237975 0.021192409192 0.02119258041 0.021192751628 0.021192922847 0.021193094067 0.021193265288 
0.02119343651 0.021193607733 0.021193778956 0.021193950181 0.021194121406 0.021194292632 0.021194463858 0.021191464179 0.021191635395 
0.021191806611 0.021191977828 0.021192149046 0.021192320265 0.021192491484 0.021192662705 0.021192833926 0.021193005148 0.021193176371 
0.021193347595 0.021193518819 0.021193690045 0.021193861271 0.021194032498 0.021194203726 0.021194374954 0.021194546184 0.021194717414 
0.021191717671 0.02119188889 0.02119206011 0.021192231331 0.021192402552 0.021192573775 0.021192744998 0.021192916222 0.021193087446 
0.021193258672 0.021193429899 0.021193601126 0.021193772354 0.021193943583 0.021194114812 0.021194286043 0.021194457274 0.021194628507 
0.02119479974 0.021194970973 0.021191971167 0.02119214239 0.021192313613 0.021192484837 0.021192656062 0.021192827288 0.021192998515 
0.021193169742 0.021193340971 0.0211935122 0.02119368343 0.021193854661 0.021194025892 0.021194197125 0.021194368358 0.021194539592 
0.021194710827 0.021194882063 0.021195053299 0.021195224537 0.021192224667 0.021192395893 0.02119256712 0.021192738348 0.021192909576 
0.021193080806 0.021193252036 0.021193423267 0.021193594499 0.021193765732 0.021193936965 0.021194108199 0.021194279435 0.021194450671 
0.021194621907 0.021194793145 0.021194964384 0.021195135623 0.021195306863 0.021195478104 0.02119247817 0.0211926494 0.021192820631 
0.021192991862 0.021193163094 0.021193334327 0.021193505561 0.021193676795 0.021193848031 0.021194019267 0.021194190504 0.021194361742 
0.021194532981 0.02119470422 0.021194875461 0.021195046702 0.021195217944 0.021195389187 0.02119556043 0.021195731675 0.021192731678 
0.021192902911 0.021193074145 0.02119324538 0.021193416616 0.021193587852 0.021193759089 0.021193930328 0.021194101567 0.021194272806 
0.021194444047 0.021194615289 0.021194786531 0.021194957774 0.021195129018 0.021195300263 0.021195471508 0.021195642755 0.021195814002 
0.02119598525 0.021192985189 0.021193156426 0.021193327663 0.021193498902 0.021193670141 0.021193841381 0.021194012622 0.021194183864 
0.021194355106 0.02119452635 0.021194697594 0.021194868839 0.021195040085 0.021195211331 0.021195382579 0.021195553827 0.021195725076 
0.021195896326 0.021196067577 0.021196238829 0.021193238704 0.021193409944 0.021193581186 0.021193752428 0.02119392367 0.021194094914 
0.021194266158 0.021194437404 0.02119460865 0.021194779897 0.021194951144 0.021195122393 0.021195293642 0.021195464893 0.021195636144 
0.021195807396 0.021195978648 0.021196149902 0.021196321156 0.021196492411 0.021193492223 0.021193663467 0.021193834712 0.021194005957 
0.021194177204 0.021194348451 0.021194519699 0.021194690948 0.021194862197 0.021195033448 0.021195204699 0.021195375951 0.021195547204 
0.021195718458 0.021195889712 0.021196060968 0.021196232224 0.021196403481 0.021196574739 0.021196745998 0.021193745746 0.021193916993 
0.021194088242 0.021194259491 0.021194430741 0.021194601991 0.021194773243 0.021194944495 0.021195115748 0.021195287002 0.021195458257 
0.021195629513 0.021195800769 0.021195972027 0.021196143285 0.021196314544 0.021196485804 0.021196657064 0.021196828326 0.021196999588 
0.021193999273 0.021194170524 0.021194341775 0.021194513028 0.021194684281 0.021194855536 0.021195026791 0.021195198047 0.021195369304 
0.021195540561 0.02119571182 0.021195883079 0.021196054339 0.0211962256 0.021196396861 0.021196568124 0.021196739387 0.021196910651 
0.021197081916 0.021197253182 0.021194252803 0.021194424058 0.021194595313 0.021194766569 0.021194937826 0.021195109084 0.021195280343 
0.021195451602 0.021195622863 0.021195794124 0.021195965386 0.021196136648 0.021196307912 0.021196479176 0.021196650442 0.021196821708 
0.021196992975 0.021197164242 0.021197335511 0.02119750678 0.021194506338 0.021194677596 0.021194848855 0.021195020114 0.021195191375 
0.021195362636 0.021195533898 0.021195705161 0.021195876425 0.02119604769 0.021196218956 0.021196390222 0.021196561489 0.021196732757 
0.021196904026 0.021197075295 0.021197246566 0.021197417837 0.021197589109 0.021197760382 0.021194759876 0.021194931137 0.0211951024 
0.021195273663 0.021195444927 0.021195616192 0.021195787458 0.021195958725 0.021196129992 0.02119630126 0.021196472529 0.021196643799 
0.02119681507 0.021196986341 0.021197157614 0.021197328887 0.021197500161 0.021197671436 0.021197842711 0.021198013988 0.021190261812 
0.021190433008 0.021190604205 0.021190775403 0.021190946602 0.021191117801 0.021191289001 0.021191460202 0.021191631404 0.021191802607 
0.02119197381 0.021192145015 0.02119231622 0.021192487426 0.021192658632 0.02119282984 0.021193001048 0.021193172258 0.021193343468 
0.021193514679 0.021190515284 0.021190686484 0.021190857684 0.021191028885 0.021191200087 0.02119137129 0.021191542494 0.021191713699 
0.021191884904 0.02119205611 0.021192227317 0.021192398525 0.021192569734 0.021192740943 0.021192912154 0.021193083365 0.021193254577 
0.02119342579 0.021193597003 0.021193768218 0.021190768759 0.021190939963 0.021191111167 0.021191282371 0.021191453577 0.021191624784 
0.021191795991 0.021191967199 0.021192138408 0.021192309618 0.021192480828 0.02119265204 0.021192823252 0.021192994465 0.021193165679 
0.021193336894 0.021193508109 0.021193679326 0.021193850543 0.021194021761 0.021191022239 0.021191193445 0.021191364653 0.021191535861 
0.021191707071 0.021191878281 0.021192049492 0.021192220703 0.021192391916 0.021192563129 0.021192734343 0.021192905558 0.021193076774 
0.021193247991 0.021193419208 0.021193590426 0.021193761645 0.021193932865 0.021194104086 0.021194275308 0.021191275722 0.021191446932 
0.021191618143 0.021191789355 0.021191960568 0.021192131782 0.021192302996 0.021192474211 0.021192645427 0.021192816644 0.021192987862 
0.02119315908 0.0211933303 0.02119350152 0.021193672741 0.021193843963 0.021194015185 0.021194186409 0.021194357633 0.021194528858 
0.021191529209 0.021191700423 0.021191871637 0.021192042853 0.021192214069 0.021192385286 0.021192556504 0.021192727723 0.021192898943 
0.021193070163 0.021193241384 0.021193412607 0.021193583829 0.021193755053 0.021193926278 0.021194097503 0.021194268729 0.021194439956 
0.021194611184 0.021194782413 0.0211917827 0.021191953917 0.021192125135 0.021192296355 0.021192467574 0.021192638795 0.021192810017 
0.021192981239 0.021193152462 0.021193323686 0.021193494911 0.021193666137 0.021193837363 0.02119400859 0.021194179818 0.021194351047 
0.021194522277 0.021194693508 0.021194864739 0.021195035971 0.021192036195 0.021192207416 0.021192378637 0.02119254986 0.021192721083 
0.021192892308 0.021193063533 0.021193234759 0.021193405985 0.021193577213 0.021193748441 0.02119391967 0.0211940909 0.021194262131 
0.021194433363 0.021194604595 0.021194775829 0.021194947063 0.021195118298 0.021195289533 0.021192289693 0.021192460918 0.021192632143 
0.021192803369 0.021192974596 0.021193145824 0.021193317053 0.021193488282 0.021193659512 0.021193830743 0.021194001975 0.021194173208 
0.021194344442 0.021194515676 0.021194686911 0.021194858147 0.021195029384 0.021195200622 0.02119537186 0.0211955431 0.021192543196 
0.021192714424 0.021192885653 0.021193056882 0.021193228113 0.021193399344 0.021193570576 0.021193741809 0.021193913043 0.021194084278 
0.021194255513 0.02119442675 0.021194597987 0.021194769225 0.021194940463 0.021195111703 0.021195282943 0.021195454185 0.021195625427 
0.02119579667 0.021192796702 0.021192967934 0.021193139166 0.021193310399 0.021193481633 0.021193652868 0.021193824104 0.021193995341 
0.021194166578 0.021194337816 0.021194509055 0.021194680295 0.021194851536 0.021195022777 0.021195194019 0.021195365263 0.021195536507 
0.021195707751 0.021195878997 0.021196050243 0.021193050212 0.021193221447 0.021193392683 0.02119356392 0.021193735158 0.021193906396 
0.021194077635 0.021194248876 0.021194420116 0.021194591358 0.021194762601 0.021194933844 0.021195105088 0.021195276333 0.021195447579 
0.021195618826 0.021195790074 0.021195961322 0.021196132571 0.021196303821 0.021193303726 0.021193474965 0.021193646204 0.021193817445 
0.021193988686 0.021194159928 0.021194331171 0.021194502414 0.021194673659 0.021194844904 0.02119501615 0.021195187397 0.021195358645 
0.021195529894 0.021195701143 0.021195872393 0.021196043644 0.021196214896 0.021196386149 0.021196557403 0.021193557244 0.021193728486 
0.021193899729 0.021194070973 0.021194242218 0.021194413464 0.02119458471 0.021194755957 0.021194927205 0.021195098454 0.021195269704 
0.021195440954 0.021195612206 0.021195783458 0.021195954711 0.021196125964 0.021196297219 0.021196468475 0.021196639731 0.021196810988 
0.021193810766 0.021193982012 0.021194153258 0.021194324506 0.021194495754 0.021194667003 0.021194838253 0.021195009504 0.021195180755 
0.021195352008 0.021195523261 0.021195694515 0.02119586577 0.021196037026 0.021196208282 0.02119637954 0.021196550798 0.021196722057 
0.021196893316 0.021197064577 0.021194064291 0.021194235541 0.021194406791 0.021194578042 0.021194749294 0.021194920546 0.0211950918 
0.021195263054 0.021195434309 0.021195605565 0.021195776822 0.02119594808 0.021196119338 0.021196290597 0.021196461857 0.021196633118 
0.02119680438 0.021196975643 0.021197146906 0.02119731817 0.021194317821 0.021194489074 0.021194660328 0.021194831582 0.021195002837 
0.021195174094 0.021195345351 0.021195516609 0.021195687867 0.021195859127 0.021196030387 0.021196201648 0.02119637291 0.021196544173 
0.021196715437 0.021196886701 0.021197057966 0.021197229233 0.021197400499 0.021197571767 0.021194571354 0.021194742611 0.021194913868 
0.021195085126 0.021195256385 0.021195427645 0.021195598905 0.021195770167 0.021195941429 0.021196112692 0.021196283956 0.021196455221 
0.021196626486 0.021196797753 0.02119696902 0.021197140288 0.021197311557 0.021197482826 0.021197654097 0.021197825368 0.021194824891 
0.021194996151 0.021195167412 0.021195338674 0.021195509936 0.0211956812 0.021195852464 0.021196023729 0.021196194995 0.021196366261 
0.021196537529 0.021196708797 0.021196880066 0.021197051336 0.021197222607 0.021197393878 0.021197565151 0.021197736424 0.021197907698 
0.021198078973 0.021195078432 0.021195249696 0.02119542096 0.021195592225 0.021195763492 0.021195934758 0.021196106026 0.021196277295 
0.021196448564 0.021196619834 0.021196791105 0.021196962377 0.02119713365 0.021197304923 0.021197476197 0.021197647472 0.021197818748 
0.021197990025 0.021198161303 0.021198332581 0.021190580312 0.02119075151 0.021190922708 0.021191093908 0.021191265109 0.02119143631 
0.021191607512 0.021191778715 0.021191949919 0.021192121123 0.021192292329 0.021192463535 0.021192634742 0.02119280595 0.021192977159 
0.021193148368 0.021193319579 0.02119349079 0.021193662002 0.021193833215 0.021190833786 0.021191004988 0.02119117619 0.021191347393 
0.021191518597 0.021191689802 0.021191861008 0.021192032214 0.021192203422 0.02119237463 0.021192545839 0.021192717049 0.021192888259 
0.021193059471 0.021193230683 0.021193401896 0.02119357311 0.021193744325 0.02119391554 0.021194086757 0.021191087264 0.021191258469 
0.021191429675 0.021191600882 0.02119177209 0.021191943298 0.021192114507 0.021192285717 0.021192456928 0.02119262814 0.021192799353 
0.021192970566 0.02119314178 0.021193312995 0.021193484211 0.021193655428 0.021193826645 0.021193997863 0.021194169082 0.021194340302 
0.021191340746 0.021191511955 0.021191683165 0.021191854375 0.021192025586 0.021192196798 0.021192368011 0.021192539224 0.021192710439 
0.021192881654 0.02119305287 0.021193224087 0.021193395305 0.021193566523 0.021193737743 0.021193908963 0.021194080184 0.021194251406 
0.021194422628 0.021194593852 0.021191594232 0.021191765445 0.021191936658 0.021192107871 0.021192279086 0.021192450302 0.021192621518 
0.021192792735 0.021192963953 0.021193135172 0.021193306392 0.021193477612 0.021193648833 0.021193820055 0.021193991278 0.021194162502 
0.021194333727 0.021194504952 0.021194676178 0.021194847405 0.021191847722 0.021192018938 0.021192190154 0.021192361372 0.02119253259 
0.021192703809 0.021192875029 0.02119304625 0.021193217471 0.021193388694 0.021193559917 0.021193731141 0.021193902366 0.021194073591 
0.021194244818 0.021194416045 0.021194587273 0.021194758502 0.021194929732 0.021195100963 0.021192101216 0.021192272435 0.021192443655 
0.021192614876 0.021192786098 0.021192957321 0.021193128544 0.021193299768 0.021193470993 0.021193642219 0.021193813446 0.021193984674 
0.021194155902 0.021194327131 0.021194498361 0.021194669592 0.021194840824 0.021195012056 0.02119518329 0.021195354524 0.021192354713 
0.021192525936 0.02119269716 0.021192868384 0.02119303961 0.021193210836 0.021193382063 0.021193553291 0.021193724519 0.021193895749 
0.021194066979 0.02119423821 0.021194409442 0.021194580675 0.021194751909 0.021194923143 0.021195094378 0.021195265614 0.021195436851 
0.021195608089 0.021192608215 0.021192779441 0.021192950668 0.021193121896 0.021193293125 0.021193464355 0.021193635586 0.021193806817 
0.021193978049 0.021194149282 0.021194320516 0.021194491751 0.021194662986 0.021194834223 0.02119500546 0.021195176698 0.021195347936 
0.021195519176 0.021195690416 0.021195861658 0.02119286172 0.02119303295 0.021193204181 0.021193375412 0.021193546645 0.021193717878 
0.021193889112 0.021194060347 0.021194231583 0.021194402819 0.021194574057 0.021194745295 0.021194916534 0.021195087774 0.021195259015 
0.021195430256 0.021195601498 0.021195772742 0.021195943986 0.02119611523 0.021193115229 0.021193286462 0.021193457697 0.021193628932 
0.021193800168 0.021193971405 0.021194142643 0.021194313881 0.02119448512 0.02119465636 0.021194827601 0.021194998843 0.021195170086 
0.021195341329 0.021195512573 0.021195683819 0.021195855064 0.021196026311 0.021196197559 0.021196368807 0.021193368742 0.021193539979 
0.021193711217 0.021193882456 0.021194053695 0.021194224936 0.021194396177 0.021194567419 0.021194738662 0.021194909905 0.02119508115 
0.021195252395 0.021195423641 0.021195594888 0.021195766136 0.021195937385 0.021196108634 0.021196279884 0.021196451136 0.021196622387 
0.021193622259 0.021193793499 0.021193964741 0.021194135983 0.021194307226 0.02119447847 0.021194649715 0.02119482096 0.021194992207 
0.021195163454 0.021195334702 0.021195505951 0.021195677201 0.021195848451 0.021196019703 0.021196190955 0.021196362208 0.021196533462 
0.021196704716 0.021196875972 0.021193875779 0.021194047024 0.021194218269 0.021194389514 0.021194560761 0.021194732009 0.021194903257 
0.021195074506 0.021195245756 0.021195417007 0.021195588258 0.021195759511 0.021195930764 0.021196102018 0.021196273273 0.021196444529 
0.021196615785 0.021196787043 0.021196958301 0.02119712956 0.021194129304 0.021194300552 0.0211944718 0.02119464305 0.0211948143 
0.021194985551 0.021195156803 0.021195328055 0.021195499309 0.021195670563 0.021195841818 0.021196013074 0.021196184331 0.021196355589 
0.021196526847 0.021196698107 0.021196869367 0.021197040628 0.021197211889 0.021197383152 0.021194382832 0.021194554083 0.021194725336 
0.021194896589 0.021195067842 0.021195239097 0.021195410352 0.021195581609 0.021195752866 0.021195924124 0.021196095382 0.021196266642 
0.021196437902 0.021196609163 0.021196780425 0.021196951688 0.021197122952 0.021197294216 0.021197465482 0.021197636748 0.021194636364 
0.021194807619 0.021194978875 0.021195150131 0.021195321389 0.021195492647 0.021195663906 0.021195835166 0.021196006426 0.021196177688 
0.02119634895 0.021196520213 0.021196691477 0.021196862742 0.021197034007 0.021197205274 0.021197376541 0.021197547809 0.021197719078 
0.021197890347 0.0211948899 0.021195061159 0.021195232418 0.021195403678 0.021195574939 0.021195746201 0.021195917463 0.021196088727 
0.021196259991 0.021196431256 0.021196602522 0.021196773788 0.021196945056 0.021197116324 0.021197287593 0.021197458863 0.021197630134 
0.021197801405 0.021197972678 0.021198143951 0.02119514344 0.021195314702 0.021195485965 0.021195657229 0.021195828493 0.021195999758 
0.021196171024 0.021196342291 0.021196513559 0.021196684828 0.021196856097 0.021197027367 0.021197198638 0.02119736991 0.021197541183 
0.021197712456 0.021197883731 0.021198055006 0.021198226282 0.021198397558 0.021195396984 0.02119556825 0.021195739516 0.021195910783 
0.021196082051 0.02119625332 0.02119642459 0.02119659586 0.021196767131 0.021196938403 0.021197109676 0.02119728095 0.021197452225 
0.0211976235 0.021197794776 0.021197966053 0.021198137331 0.02119830861 0.021198479889 0.02119865117 0.021190898806 0.021191070006 
0.021191241207 0.021191412409 0.021191583611 0.021191754814 0.021191926018 0.021192097223 0.021192268429 0.021192439635 0.021192610843 
0.021192782051 0.02119295326 0.02119312447 0.02119329568 0.021193466892 0.021193638104 0.021193809317 0.021193980531 0.021194151746 
0.021191152283 0.021191323487 0.021191494691 0.021191665896 0.021191837102 0.021192008309 0.021192179517 0.021192350725 0.021192521934 
0.021192693145 0.021192864355 0.021193035567 0.02119320678 0.021193377993 0.021193549207 0.021193720422 0.021193891638 0.021194062855 
0.021194234072 0.021194405291 0.021191405764 0.021191576971 0.021191748179 0.021191919388 0.021192090598 0.021192261808 0.021192433019 
0.021192604231 0.021192775444 0.021192946658 0.021193117872 0.021193289087 0.021193460303 0.02119363152 0.021193802738 0.021193973957 
0.021194145176 0.021194316396 0.021194487617 0.021194658839 0.021191659249 0.02119183046 0.021192001671 0.021192172884 0.021192344097 
0.021192515311 0.021192686525 0.021192857741 0.021193028957 0.021193200174 0.021193371392 0.021193542611 0.021193713831 0.021193885051 
0.021194056273 0.021194227495 0.021194398718 0.021194569942 0.021194741166 0.021194912392 0.021191912738 0.021192083952 0.021192255167 
0.021192426383 0.0211925976 0.021192768817 0.021192940035 0.021193111254 0.021193282474 0.021193453695 0.021193624917 0.021193796139 
0.021193967362 0.021194138586 0.021194309811 0.021194481037 0.021194652263 0.021194823491 0.021194994719 0.021195165948 0.021192166231 
0.021192337448 0.021192508667 0.021192679886 0.021192851106 0.021193022327 0.021193193549 0.021193364772 0.021193535995 0.02119370722 
0.021193878445 0.021194049671 0.021194220897 0.021194392125 0.021194563353 0.021194734583 0.021194905813 0.021195077044 0.021195248275 
0.021195419508 0.021192419727 0.021192590948 0.02119276217 0.021192933393 0.021193104617 0.021193275842 0.021193447067 0.021193618293 
0.02119378952 0.021193960748 0.021194131977 0.021194303206 0.021194474436 0.021194645668 0.0211948169 0.021194988132 0.021195159366 
0.0211953306 0.021195501836 0.021195673072 0.021192673227 0.021192844452 0.021193015678 0.021193186904 0.021193358131 0.02119352936 
0.021193700588 0.021193871818 0.021194043049 0.02119421428 0.021194385512 0.021194556746 0.021194727979 0.021194899214 0.02119507045 
0.021195241686 0.021195412923 0.021195584161 0.0211957554 0.02119592664 0.021192926731 0.02119309796 0.021193269189 0.021193440419 
0.02119361165 0.021193782881 0.021193954114 0.021194125347 0.021194296581 0.021194467816 0.021194639052 0.021194810289 0.021194981526 
0.021195152764 0.021195324003 0.021195495243 0.021195666484 0.021195837726 0.021196008968 0.021196180211 0.021193180239 0.021193351471 
0.021193522704 0.021193693938 0.021193865172 0.021194036407 0.021194207643 0.02119437888 0.021194550118 0.021194721356 0.021194892596 
0.021195063836 0.021195235077 0.021195406319 0.021195577561 0.021195748805 0.021195920049 0.021196091294 0.02119626254 0.021196433787 
0.021193433751 0.021193604987 0.021193776223 0.02119394746 0.021194118698 0.021194289937 0.021194461176 0.021194632417 0.021194803658 
0.0211949749 0.021195146143 0.021195317387 0.021195488631 0.021195659877 0.021195831123 0.02119600237 0.021196173618 0.021196344866 
0.021196516116 0.021196687366 0.021193687267 0.021193858506 0.021194029746 0.021194200986 0.021194372228 0.02119454347 0.021194714713 
0.021194885957 0.021195057202 0.021195228448 0.021195399694 0.021195570941 0.02119574219 0.021195913438 0.021196084688 0.021196255939 
0.02119642719 0.021196598442 0.021196769695 0.021196940949 0.021193940786 0.021194112029 0.021194283272 0.021194454517 0.021194625762 
0.021194797008 0.021194968254 0.021195139502 0.02119531075 0.021195481999 0.021195653249 0.0211958245 0.021195995752 0.021196167004 
0.021196338258 0.021196509512 0.021196680767 0.021196852022 0.021197023279 0.021197194536 0.02119419431 0.021194365556 0.021194536803 
0.021194708051 0.021194879299 0.021195050549 0.021195221799 0.02119539305 0.021195564302 0.021195735555 0.021195906808 0.021196078063 
0.021196249318 0.021196420574 0.021196591831 0.021196763088 0.021196934347 0.021197105606 0.021197276866 0.021197448127 0.021194447837 
0.021194619087 0.021194790337 0.021194961589 0.021195132841 0.021195304094 0.021195475348 0.021195646602 0.021195817858 0.021195989114 
0.021196160371 0.021196331629 0.021196502888 0.021196674147 0.021196845408 0.021197016669 0.021197187931 0.021197359194 0.021197530457 
0.021197701722 0.021194701368 0.021194872622 0.021195043876 0.02119521513 0.021195386386 0.021195557643 0.0211957289 0.021195900158 
0.021196071417 0.021196242677 0.021196413938 0.021196585199 0.021196756461 0.021196927725 0.021197098989 0.021197270253 0.021197441519 
0.021197612785 0.021197784053 0.021197955321 0.021194954903 0.02119512616 0.021195297418 0.021195468676 0.021195639935 0.021195811195 
0.021195982456 0.021196153718 0.021196324981 0.021196496244 0.021196667508 0.021196838773 0.021197010039 0.021197181306 0.021197352573 
0.021197523842 0.021197695111 0.021197866381 0.021198037651 0.021198208923 0.021195208442 0.021195379702 0.021195550964 0.021195722226 
0.021195893488 0.021196064752 0.021196236016 0.021196407282 0.021196578548 0.021196749815 0.021196921083 0.021197092351 0.021197263621 
0.021197434891 0.021197606162 0.021197777434 0.021197948706 0.02119811998 0.021198291254 0.021198462529 0.021195461985 0.021195633249 
0.021195804513 0.021195975779 0.021196147045 0.021196318312 0.02119648958 0.021196660849 0.021196832119 0.021197003389 0.021197174661 
0.021197345933 0.021197517206 0.02119768848 0.021197859754 0.02119803103 0.021198202306 0.021198373583 0.021198544861 0.02119871614 