# vtk DataFile Version 5.1
vtk output
ASCII
DATASET STRUCTURED_POINTS
DIMENSIONS 20 20 40
SPACING 0.05 0.05 0.05
ORIGIN 3.225 -0.475 0.525
POINT_DATA 16000
FIELD FieldData 1
potential 1 16000 double
0.00051135723756 0.00050848506843 0.00050565366698 0.00050285501171 0.00050008211831 0.00049732683525 0.00049458259208 0.00049184625001 0.00048911505189 
0.00048638938934 0.00048367180588 0.00048096789538 0.00047828439775 0.00047562885563 0.00047300970205 0.00047043459429 0.00046790969417 0.00046544023204 
0.00046302937316 0.00045886669072 0.00051189749316 0.00050901022374 0.00050616106838 0.00050334301203 0.0005005481382 0.00049776961238 0.00049500121691 
0.00049224012761 0.00048948409261 0.00048673448275 0.00048399468547 0.00048127065051 0.00047856900207 0.00047589804817 0.0004732657152 0.00047067995823 
0.00046814751763 0.00046567231075 0.00046325800032 0.00045893879651 0.00051226934072 0.00050936727374 0.00050650156348 0.00050366494861 0.00050085089474 
0.00049805161644 0.00049526272599 0.00049248085331 0.00048970491405 0.0004869361954 0.00048417843697 0.00048143822231 0.00047872225145 0.00047603867806 
0.00047339600122 0.00047080064744 0.00046825993252 0.00046577794202 0.00046335738179 0.00045888131671 0.00051255672121 0.00050963935892 0.00050675740783 
0.00050390357081 0.0005010723548 0.0004982556273 0.00049544896844 0.00049265058703 0.000489859003 0.00048707583414 0.00048430475682 0.0004815521729 
0.00047882554545 0.00047613195312 0.00047348024163 0.00047087596288 0.00046832591878 0.00046583433454 0.00046340542039 0.000458771664 0.00051369490615 
0.00051078782813 0.00050791458329 0.00050506792738 0.00050224111189 0.00049942818151 0.00049662401366 0.00049382602643 0.00049103421042 0.00048824948209 
0.00048547606351 0.0004827187336 0.00047998483786 0.00047728147279 0.00047461643483 0.00047199498362 0.00046942355848 0.00046690646299 0.00046444793255 
0.00045991180256 0.00051395405054 0.00051103125137 0.00050814319398 0.00050528244814 0.00050244278662 0.00049961819382 0.00049680393926 0.00049399720675 
0.00049119838242 0.00048840879872 0.00048563064179 0.00048286926982 0.00048013109473 0.00047742291606 0.00047475125558 0.00047212241125 0.00046954144904 
0.00046701359615 0.00046454226525 0.00046013784107 0.00051436212351 0.00051142267858 0.00050851949787 0.00050564515321 0.00050279324552 0.00049995814624 
0.00049713568073 0.00049432276788 0.0004915189124 0.00048872535508 0.00048594411263 0.00048318006419 0.00048043812989 0.00047772528296 0.00047504686964 
0.00047240868784 0.00046981663763 0.00046727535481 0.00046478893219 0.00046051464077 0.00051497346685 0.00051201619531 0.0005090969754 0.00050620907205 
0.00050334542469 0.00050050070321 0.00049767125012 0.00049485295698 0.00049204537827 0.00048924871834 0.00048646471608 0.00048369788367 0.00048095201131 
0.00047823314766 0.00047554683125 0.00047289821651 0.00047029279578 0.00046773607657 0.00046523218754 0.00046108662486 0.00051582709011 0.00051285100352 
0.0005099151723 0.00050701275276 0.00050413755584 0.00050128397436 0.00049844753996 0.00049562454925 0.00049281337236 0.00049001397317 0.00048722750509 
0.00048445680585 0.00048170567404 0.00047897896942 0.00047628292658 0.00047362172562 0.00047100165897 0.00046842746375 0.0004659045511 0.00046188681558 
0.00051694763348 0.00051395129665 0.00051099818195 0.00050808152862 0.00050519497867 0.00050233223138 0.00049948928192 0.00049666175195 0.00049384694009 
0.00049104414366 0.00048825375804 0.00048547773345 0.00048271944247 0.00047998401561 0.00047727557952 0.00047460040695 0.00047196321915 0.00046937021518 
0.00046682677373 0.00046293619852 0.00051834810007 0.00051533030237 0.00051235886693 0.00050942741827 0.0005065294098 0.00050365851084 0.00050080905267 
0.00049797587716 0.00049515731934 0.00049235015426 0.0004895543643 0.000486771142 0.00048400386085 0.00048125664588 0.00047853456212 0.00047584312771 
0.00047318753247 0.00047057484626 0.00046800956798 0.00046424572404 0.00052002846898 0.00051698867112 0.00051399906268 0.00051105240429 0.00050814281756 
0.00050526274971 0.0005024059741 0.00049956790894 0.00049674372231 0.00049393105873 0.00049112768163 0.00048833580365 0.00048555733039 0.00048279658302 
0.00048005892515 0.00047734959756 0.00047467448957 0.00047204066773 0.0004694537054 0.00046581513477 0.00052197871898 0.00051891583328 0.00051590672579 
0.00051294500666 0.00051002356838 0.00050713398343 0.00050426994907 0.0005014251814 0.00049859401436 0.00049577377662 0.00049296185461 0.00049015885099 
0.00048736739283 0.00048459157127 0.00048183629895 0.00047910743083 0.00047641197893 0.00047375613126 0.00047114638835 0.00046763337685 0.00052417579653 
0.00052108918588 0.00051806055074 0.00051508318526 0.00051214842138 0.00050924936629 0.00050637681439 0.00050352371145 0.00050068379006 0.00049785410548 
0.00049503095836 0.00049221495239 0.00048940855951 0.00048661553753 0.00048384179263 0.00048109254317 0.00047837593702 0.00047569722043 0.00047306393588 
0.00046967627576 0.00052658415919 0.00052347369903 0.00052042504138 0.00051743051534 0.00051448268564 0.0005115718008 0.00050868865294 0.00050582504828 
0.00050297427294 0.00050013250504 0.00049729537035 0.00049446407205 0.00049164032281 0.00048882902013 0.00048603499635 0.000483265181 0.00048052644599 
0.00047782562892 0.00047516898726 0.00047190634886 0.00052915417336 0.00052601963926 0.00052295058639 0.0005199385356 0.00051697503718 0.00051404989677 
0.00051115336958 0.00050827612198 0.00050541113537 0.00050255355126 0.000499700916 0.00049685161724 0.00049400853057 0.0004911770491 0.0004883623589 
0.00048557144135 0.00048281065352 0.00048008747635 0.00047740805423 0.00047427204404 0.00053182110426 0.00052866342127 0.00052557280148 0.00052254176245 
0.00051956029863 0.00051661814468 0.00051370439466 0.00051081000704 0.00050792680469 0.00050505032067 0.00050217740876 0.00049930746867 0.00049644336458 
0.00049359060897 0.00049075422249 0.00048794155232 0.0004851594643 0.0004824156002 0.00047971506225 0.00047670693925 0.00053450696265 0.00053132652667 
0.00052821453054 0.00052516246973 0.00052216024739 0.00051919685979 0.00051626187489 0.00051334599013 0.00051044029055 0.00050754035447 0.0005046442167 
0.00050175060969 0.00049886331717 0.00049598723161 0.00049312894477 0.00049029531869 0.00048749293272 0.00048472991152 0.00048201131794 0.00047913460872 
0.00053712367817 0.00053392181568 0.00053078766282 0.00052771271653 0.00052468666561 0.00052169870707 0.00051873809859 0.00051579580384 0.00051286310728 
0.00050993616448 0.00050701229428 0.000504092633 0.00050118015225 0.00049827963722 0.00049539919991 0.00049254541653 0.0004897253949 0.00048694570357 
0.00048421202046 0.0004814706935 0.00053958019888 0.00053635799491 0.00053320142707 0.00053010227271 0.00052705008875 0.00052403423012 0.00052104481666 
0.00051807146144 0.0005151080704 0.00051214994304 0.00050919586156 0.00050624746237 0.00050330797183 0.00050038339187 0.00049748107255 0.00049460838812 
0.00049177209438 0.00048897871341 0.00048623445853 0.00048363288109 0.00055284857847 0.00054973319441 0.00054666176398 0.00054362845221 0.00054062657311 
0.00053765035457 0.00053469451445 0.00053175684555 0.00052883498159 0.00052592905814 0.00052304055285 0.00052017336975 0.00051733214447 0.00051452212653 
0.0005117492602 0.0005090200194 0.00050633844229 0.0005037086795 0.00050113361934 0.00049684664632 0.00055368970673 0.00055055684699 0.00054746618718 
0.00054441224359 0.00054138855536 0.00053838966434 0.00053541067411 0.00053244923067 0.00052950410593 0.00052657533302 0.00052366533388 0.00052077823511 
0.00051791836524 0.00051509195399 0.00051230438072 0.00050956180575 0.00050686949508 0.00050423064863 0.00050164760148 0.00049720379884 0.00055440924184 
0.00055125884869 0.00054814971559 0.00054507613851 0.00054203213701 0.00053901206363 0.00053601230846 0.00053303022132 0.00053006465474 0.00052711627878 
0.00052418745135 0.00052128287585 0.00051840712203 0.00051556579956 0.00051276537859 0.00051001043878 0.00050730687026 0.00050465798789 0.00050206588476 
0.00049746536366 0.00055506780067 0.00055189959132 0.00054877207087 0.00054567993342 0.00054261676274 0.00053957785062 0.00053655896669 0.00053355883603 
0.00053057581783 0.00052761097839 0.0005246666853 0.00052174686459 0.00051885718393 0.0005160030663 0.00051319055059 0.00051042359837 0.00050770810247 
0.00050504707005 0.0005024446508 0.00049768811109 0.00055653507965 0.00055337479457 0.00055025374404 0.00054716602218 0.00054410615072 0.00054106918295 
0.00053805043102 0.00053504888836 0.00053206322926 0.00052909396997 0.00052614399873 0.00052321665751 0.00052031640712 0.00051744910789 0.00051462042206 
0.00051183413174 0.00050909527385 0.0005064074789 0.00050377431584 0.00049913998913 0.0005571507271 0.00055397243501 0.00055083428803 0.00054773018145 
0.00054465499205 0.00054160362886 0.00053857209819 0.00053555812656 0.00053256119269 0.00052958287374 0.00052662359371 0.0005236872615 0.00052077829869 
0.00051790177781 0.00051506346656 0.00051226696376 0.00050951657834 0.00050681675337 0.00050417075291 0.00049966234942 0.00055788316005 0.00055468626506 
0.00055153081064 0.00054841076292 0.00054532067227 0.0005422556755 0.00053921273248 0.00053618802811 0.00053318186442 0.00053019462633 0.00052722724749 
0.00052428304431 0.00052136603857 0.00051848100483 0.00051563215386 0.00051282420401 0.00051006158829 0.00050734778762 0.00050468664857 0.00050030345656 
0.00055877665586 0.00055556036575 0.00055238715391 0.0005492508821 0.00054614675834 0.00054306860513 0.00054001434343 0.00053698007379 0.00053396556088 
0.00053096982773 0.00052799501293 0.00052504339615 0.0005221179339 0.00051922327243 0.00051636374433 0.00051354304324 0.00051076632572 0.00050803700995 
0.00050535925659 0.00050110041728 0.0005598641392 0.00055662748728 0.00055343574236 0.0005502830771 0.00054716394813 0.00054407386213 0.00054100880751 
0.0005379652376 0.00053494217394 0.00053193937081 0.00052895686181 0.00052599691518 0.00052306226536 0.00052015663186 0.00051728511354 0.00051445076999 
0.00051165867078 0.00050891229283 0.00050621641468 0.00050208120772 0.00056116686347 0.00055790898713 0.00055469844492 0.00055152883248 0.00054839558966 
0.00054529293423 0.00054221696491 0.00053916437386 0.00053613325311 0.00053312206745 0.00053013115727 0.00052716190418 0.00052421700754 0.00052129990353 
0.00051841436242 0.0005155650904 0.00051275597688 0.00050999130261 0.00050727587114 0.00050326382975 0.00056269657838 0.00055941628638 0.00055618570692 
0.00055299927941 0.0005498515912 0.00054673708054 0.00054364995297 0.00054058776832 0.00053754776598 0.00053452770838 0.00053152730841 0.00052854752123 
0.00052559068511 0.00052266010891 0.00051975999535 0.00051689394855 0.00051406648136 0.00051128268829 0.0005085467178 0.00050465743093 0.00056445290649 
0.00056114993489 0.00055789953469 0.00055469558221 0.00055153294984 0.00054840492064 0.00054530697463 0.0005422345439 0.00053918483966 0.00053615510561 
0.00053314340568 0.00053015205709 0.0005271819217 0.00052423645741 0.00052131980286 0.00051843595711 0.00051558947021 0.00051278548331 0.0005100287071 
0.00050626111748 0.00056642715954 0.00056310058813 0.00055982919489 0.00055660760052 0.00055342924468 0.00055028813827 0.00054717822987 0.00054409451718 
0.00054103383173 0.00053799225544 0.00053496874474 0.00053196404588 0.00052897908554 0.00052601757849 0.0005230828267 0.00052017969735 0.00051731354305 
0.00051448860178 0.00051171024902 0.00050806427687 0.00056859839167 0.00056524778177 0.00056195519422 0.00055871487495 0.0005555204483 0.00055236524401 
0.00054924246284 0.00054614598486 0.00054307214858 0.00054001795779 0.00053698071655 0.00053396044255 0.00053095933805 0.00052798010779 0.00052502680395 
0.00052210384948 0.00051921701895 0.00051637046891 0.00051356993399 0.00051004635561 0.00057093547417 0.00056756056366 0.00056424623468 0.00056098677532 
0.0005577753813 0.00055460447715 0.00055146701131 0.00054835621491 0.00054526785889 0.00054219842804 0.00053914522373 0.00053610793571 0.00053308894404 
0.00053009064263 0.00052711737062 0.00052417419141 0.00052126649818 0.00051839840449 0.00051557625874 0.000512174697 0.00057339625043 0.00056999695169 
0.00056666072882 0.00056338136407 0.00056015135711 0.00055696312676 0.00055380862326 0.00055068111055 0.00054757593371 0.00054448842479 0.00054141780345 
0.00053836189022 0.00053532292865 0.00053230455668 0.00052931114616 0.00052634732349 0.00052341832637 0.00052052911436 0.00051768559625 0.00051440715316 
0.0005759280576 0.00057250502936 0.00056914645347 0.00056584573016 0.0005625955579 0.00055938767713 0.00055621378205 0.00055306719219 0.0005499422159 
0.0005468349878 0.00054374336639 0.00054066650324 0.00053760651456 0.00053456720191 0.00053155258474 0.00052856769461 0.00052561804391 0.00052270903683 
0.00051984532439 0.00051669162864 0.00057846955735 0.00057502309358 0.00057164197641 0.00056831930395 0.00056504717214 0.00056181706155 0.00055862112893 
0.00055545236043 0.0005523049769 0.00054917439022 0.00054605977542 0.00054296016273 0.00053987764194 0.00053681594109 0.0005337797947 0.0005307744422 
0.00052780508443 0.00052487705055 0.00052199529103 0.00051896837364 0.00058095431797 0.00057748552866 0.00057408162251 0.00057073568906 0.00056743982651 
0.00056418526651 0.00056096476707 0.0005577703919 0.00055459729036 0.00055144144861 0.00054830084201 0.00054517672236 0.00054207055502 0.00053898576533 
0.00053592803046 0.00053290268654 0.00052991516333 0.00052697038479 0.00052407280256 0.00052117594123 0.00058331559553 0.00057982551235 0.00057639879077 
0.00057302918529 0.00056970804902 0.00056642719941 0.00056317965852 0.00055995745819 0.00055675603967 0.00055357214597 0.00055040418732 0.00054725360501 
0.00054412240465 0.00054101448137 0.00053793635057 0.00053489206851 0.00053188752012 0.00052892783049 0.00052601776961 0.00052325331512 0.00059446499031 
0.00059111218206 0.00058780687105 0.00058454353199 0.00058131680524 0.00057812234454 0.00057495663649 0.0005718167989 0.00056870186674 0.00056561100491 
0.00056254541904 0.00055950724487 0.00055650024282 0.00055352779355 0.00055059474698 0.00054770461989 0.00054486186717 0.00054206895789 0.00053932849234 
0.00053491556379 0.00059555703852 0.00059218456649 0.00058885827988 0.00058557329699 0.00058232453273 0.00057910772509 0.00057591863907 0.00057275589761 
0.00056961795592 0.0005665046273 0.00056341743508 0.00056035919215 0.00055733304532 0.00055434306817 0.00055139325107 0.00054848828968 0.0005456322319 
0.00054282752978 0.00054007605781 0.00053550628288 0.00059656359069 0.0005931712337 0.00058982444591 0.00058651890782 0.00058324862536 0.00058000999599 
0.00057679977686 0.000573615753 0.00057045659086 0.00056732323203 0.00056421630193 0.00056113974916 0.00055809599175 0.00055508912175 0.00055212452295 
0.00054920512666 0.00054633517966 0.0005435179063 0.00054075462842 0.00053602923775 0.00059752891296 0.00059411656357 0.00059074948092 0.00058742333733 
0.00058413276646 0.00058087383154 0.00057764325356 0.00057443983065 0.00057126196858 0.00056811016802 0.00056498575053 0.0005618916977 0.00055883187254 
0.00055581007164 0.00055283076886 0.00054989697341 0.00054701275356 0.00054418166973 0.00054140582329 0.00053652571192 0.00059926539493 0.00059585845027 
0.00059249584719 0.00058917256637 0.00058588341802 0.000582624461 0.00057939221104 0.00057618550975 0.0005730029962 0.00056984467761 0.00056671229228 
0.00056360800245 0.00056053547773 0.00055749809342 0.00055450061103 0.00055154546523 0.00054863674572 0.00054577737452 0.00054297025954 0.00053823727124 
0.00060018254639 0.00059675578461 0.00059337403975 0.00059003163085 0.00058672508167 0.00058344959965 0.0005802016338 0.00057698005591 0.00057378339992 
0.00057061220641 0.00056746722937 0.00056435068428 0.00056126583858 0.00055821614307 0.00055520613003 0.00055223860559 0.00054931650617 0.00054644363154 
0.00054362278976 0.0005390100487 0.00060119406268 0.00059774677665 0.00059434554702 0.00059098511912 0.00058766149761 0.00058437017738 0.00058110756204 
0.00057787145305 0.00057466180209 0.00057147832187 0.00056832133059 0.00056519319123 0.00056209668267 0.00055903543128 0.00055601244243 0.00055303132722 
0.00055009563217 0.00054720790589 0.00054437135172 0.00053987812522 0.00060233501195 0.00059886662419 0.00059544576841 0.00059206709746 0.00058872663707 
0.00058541884872 0.00058214224351 0.00057889308065 0.00057567123225 0.0005724753996 0.00056930711619 0.00056616781818 0.00056305957336 0.00055998565903 
0.00055694949096 0.00055395394599 0.00055100324921 0.00054809955542 0.00054524639945 0.00054087247889 0.00060363263424 0.00060014241162 0.00059670124304 
0.00059330397759 0.0005899461609 0.00058662326724 0.00058333281686 0.00058007053124 0.00057683618435 0.00057362930699 0.00057044951462 0.0005672980843 
0.00056417755144 0.00056109022675 0.00055804025386 0.00055502959731 0.00055206276518 0.00054914205932 0.00054627076442 0.00054201550507 0.00060510450946 
0.00060159177068 0.00059813003755 0.00059471369685 0.00059133894692 0.00058800061941 0.00058469550911 0.00058142068448 0.00057817453408 0.0005749556046 
0.00057176365014 0.00056860011232 0.00056546622074 0.00056236496054 0.00055929979637 0.00055627308169 0.0005532884662 0.00055034950655 0.00054745932833 
0.00054332261596 0.00060676012674 0.00060322415474 0.00059974104899 0.00059630557287 0.00059291387107 0.00058956034154 0.00058624058824 0.00058295281979 
0.00057969371706 0.00057646219895 0.00057325752477 0.00057008030567 0.00056693225341 0.00056381611664 0.0005607345194 0.00055769045165 0.00055468767232 
0.00055172963637 0.00054881949634 0.00054480091818 0.00060859997951 0.00060504013428 0.00060153547286 0.00059808046902 0.00059467113718 0.00059130090386 
0.00058796681961 0.00058466478831 0.00058139291676 0.00057814809258 0.00057492922807 0.0005717377451 0.00056857458294 0.00056544218972 0.00056234296157 
0.0005592808298 0.00055625888692 0.00055328078581 0.00055035052365 0.00054644988925 0.00061061534084 0.00060703128637 0.00060350443624 0.00060002946647 
0.00059660120851 0.00059321514072 0.00058986576635 0.00058654880799 0.00058326222258 0.00058000241848 0.00057676918111 0.00057356229166 0.00057038265323 
0.00056723268966 0.00056411514486 0.00056103397064 0.000557992156 0.00055499363424 0.00055204269966 0.00054825960452 0.00061278890551 0.00060918028008 
0.00060563071795 0.00060213491187 0.00059868808442 0.00059528453108 0.00059191883925 0.00058858590909 0.00058528328176 0.00058200800965 0.0005787585551 
0.0005755343317 0.00057233725628 0.0005691690419 0.0005660322631 0.00056293088814 0.00055986903672 0.00055684975844 0.00055387738419 0.00055021264647 
0.00061509423486 0.00061146063204 0.00060788808576 0.0006043709972 0.00060090469856 0.00059748260947 0.00059409922735 0.00059074903386 0.00058742906345 
0.00058413652785 0.00058086914396 0.000577626806 0.00057441068572 0.00057122247945 0.0005680658368 0.00056494415864 0.00056186203204 0.00055882177784 
0.00055582860796 0.00055228216686 0.00061749646495 0.00061383786349 0.00061024204018 0.00060670337044 0.0006032161812 0.00059977441117 0.00059637180811 
0.00059300238236 0.00058966351162 0.00058635165625 0.00058306515072 0.00057980292183 0.00057656632116 0.00057335799979 0.00057018106005 0.00056703898784 
0.0005639359903 0.00056087514687 0.00055786135189 0.00055443432726 0.00061995315071 0.00061627019009 0.00061265107803 0.00060908963558 0.00060558087793 
0.00060211745192 0.0005986935206 0.00059530399154 0.00059194390814 0.00058861095937 0.00058530322865 0.00058201973804 0.00057876189836 0.00057553274173 
0.00057233485522 0.00056917196448 0.00056604839966 0.00056296791437 0.00055993439113 0.00055662750372 0.000622416902 0.00061871000465 0.00061506726532 
0.00061148281525 0.00060795110638 0.00060446452172 0.00060101789272 0.00059760525393 0.00059422289382 0.00059086653818 0.00058753595634 0.00058422997761 
0.00058094987193 0.00057769868104 0.00057447948099 0.00057129625629 0.00056815279374 0.00056505365704 0.00056200162693 0.0005588166885 0.00062483788199 
0.00062110728633 0.0006174410089 0.0006138328809 0.00061027697363 0.00060676602954 0.00060329496705 0.00059985748188 0.00059644991683 0.00059306917552 
0.00058971394578 0.00058638402829 0.00058308111672 0.00057980730543 0.00057656678159 0.00057336357101 0.00057020154482 0.00056708481112 0.00056401639444 
0.00056095568793 0.00062716617748 0.00062341313084 0.00061972336477 0.000616091096 0.00061251018301 0.00060897434766 0.0006054767187 0.0006020127252 
0.00059857876063 0.00059517171145 0.00059179038292 0.0005884361566 0.00058510906821 0.00058181299895 0.00057855218046 0.00057532977926 0.00057215011252 
0.00056901744697 0.00056593450187 0.00056299958995 0.00063615370675 0.00063256819995 0.00062903326437 0.00062554423491 0.0006220966689 0.00061868667404 
0.00061531233401 0.00061197073213 0.00060866096722 0.00060538222377 0.00060213517526 0.00059892106169 0.00059574253787 0.00059260235018 0.00058950324256 
0.00058644826533 0.00058344060999 0.00058048213052 0.00057757544423 0.00057303413165 0.00063746025401 0.00063385317279 0.00063029588297 0.00062678428872 
0.00062331374774 0.00061988086903 0.00061648318421 0.00061311844166 0.00060978541772 0.00060648432007 0.00060321536321 0.00059998068838 0.00059678238173 
0.00059362331638 0.0005905062867 0.00058743490829 0.00058441190096 0.0005814393256 0.0005785187928 0.00057382150898 0.00063870922016 0.00063508022784 
0.00063150062972 0.00062796719517 0.00062447399318 0.00062101885106 0.00061759880491 0.00061421231274 0.00061085757035 0.00060753533602 0.00060424570977 
0.00060099157405 0.00059777430462 0.00059459702339 0.00059146309521 0.00058837541234 0.00058533680889 0.00058234923475 0.00057941490746 0.00057456317652 
0.00063993316501 0.0006362820959 0.00063268058099 0.00062912491739 0.00062561006802 0.0006221333012 0.00061869177001 0.00061528441854 0.00061190950446 
0.00060856715947 0.00060525856916 0.00060198520129 0.00059875002284 0.00059555554661 0.00059240523003 0.00058930100112 0.00058624609898 0.00058324368222 
0.00058029436355 0.00057528965123 0.00064189331648 0.00063824566055 0.00063464622044 0.0006310912937 0.00062757627096 0.00062409780751 0.00062065298673 
0.00061724069682 0.00061385944096 0.00061050926343 0.0006071907524 0.0006039049872 0.0006006552477 0.00059744356431 0.00059427311638 0.00059114628437 
0.00058806555073 0.00058503338654 0.0005820523238 0.00057722002589 0.00064306910331 0.00063939958339 0.00063577907737 0.00063220356499 0.00062866885821 
0.00062517167474 0.00062170880623 0.00061827919206 0.00061488129969 0.00061151531612 0.00060818117966 0.00060488087461 0.00060161590967 0.00059838970263 
0.00059520471559 0.00059206335199 0.00058896793391 0.00058592056589 0.00058292452231 0.00057820607232 0.00064432326334 0.00064063127307 0.00063698954223 
0.00063339377409 0.0006298399866 0.00062632446935 0.00062284403944 0.00061939744192 0.00061598379383 0.00061260258477 0.00060925360806 0.00060593856837 
0.00060265956147 0.00059941876523 0.00059621872337 0.00059306219447 0.00058995124335 0.00058688834723 0.00058387597442 0.00057927103706 0.00064568313937 
0.00064196885866 0.00063830539997 0.00063468936182 0.00063111624553 0.00062758228475 0.00062408483652 0.00062062233905 0.00061719291206 0.00061379650939 
0.0006104331426 0.00060710398188 0.00060381047599 0.0006005552091 0.00059733944227 0.00059416669611 0.00059103996496 0.00058796029758 0.00058493071388 
0.00058043963704 0.00064717091506 0.00064343304644 0.0006397478444 0.00063611093011 0.00063251844372 0.00062896650592 0.0006254525907 0.00062197393663 
0.00061852925656 0.00061511824262 0.0006117403026 0.00060839614966 0.00060508779954 0.00060181660721 0.00059858553841 0.00059539653094 0.00059225244441 
0.00058915520401 0.00058610751837 0.00058172989519 0.00064880075907 0.00064503904899 0.00064133162684 0.00063767323327 0.00063406189372 0.00063049202656 
0.00062696077358 0.00062346614988 0.00062000631588 0.00061658046431 0.00061318745391 0.00060982837297 0.00060650416842 0.0006032170367 0.00059996928501 
0.00059676296459 0.00059360066317 0.00059048499098 0.00058741825173 0.00058315419946 0.00065057998361 0.00064679419414 0.00064306374557 0.00063938471394 
0.00063575391032 0.00063216554751 0.00062861714192 0.00062510644713 0.0006216309891 0.00061818889851 0.00061478054008 0.00061140543722 0.00060806515524 
0.00060476120996 0.00060149596025 0.0005982714823 0.00059509051258 0.00059195544924 0.00058886914761 0.00058471841346 0.00065250972864 0.00064869865928 
0.0006449453897 0.00064124487718 0.00063759371123 0.00063398660367 0.00063042076899 0.00062689316501 0.00062340149254 0.00061994333025 0.00061651870332 
0.000613126736 0.00060976934499 0.00060644795138 0.00060316416878 0.0005999209199 0.00059672058182 0.00059356554189 0.0005904592465 0.00058642186201 
0.0006545817913 0.00065074569058 0.00064696883205 0.00064324639495 0.00063957428879 0.00063594848029 0.00063236459785 0.00062881894794 0.00062531006328 
0.00062183490172 0.00061839296635 0.00061498381992 0.00061160860541 0.00060826835249 0.00060496529923 0.00060170257732 0.00059848218902 0.00059530700314 
0.00059218031828 0.00058825600751 0.00065678200504 0.00065292041884 0.00064911942811 0.00064537428017 0.00064168170269 0.00063803572327 0.00063443289876 
0.00063086886142 0.00062734176012 0.00062384840324 0.00062038799572 0.00061696050287 0.00061356612732 0.00061020679443 0.00060688405055 0.00060360086867 
0.00060036037188 0.00059716460828 0.00059401699359 0.00059020655529 0.00065908834041 0.00065520109952 0.00065137586723 0.0006476079335 0.00064389370009 
0.00064022707951 0.00063660422445 0.000633020662 0.00062947367881 0.00062596135177 0.00062248192518 0.00061903449967 0.0006156202072 0.00061224046848 
0.00060889716176 0.00060559375091 0.00060233266321 0.00059911619074 0.00059594776889 0.00059225170177 0.00066147279949 0.00065755979149 0.00065371016416 
0.00064991931798 0.00064618229248 0.00064249410185 0.00063885007094 0.00063524559023 0.00063167781323 0.00062814514376 0.00062464480514 0.00062117659577 
0.00061774149381 0.00061434105045 0.00061097726394 0.00060765302344 0.00060437137131 0.0006011346995 0.00059794586513 0.00059436449147 0.00066390165467 
0.00065996346018 0.00065608943232 0.00065227477946 0.00064851441769 0.00064480329797 0.00064113672993 0.0006375105952 0.00063392122663 0.00063036585286 
0.00062684399402 0.00062335412046 0.00061989727959 0.00061647528946 0.00061309080103 0.00060974578671 0.00060644353309 0.00060318655861 0.00059997830847 
0.00059651254804 0.0006663385085 0.0006623752373 0.00065847662958 0.0006546377758 0.00065085363606 0.00064711874821 0.00064342874502 0.00063977891914 
0.00063616618748 0.00063258756223 0.00062904250048 0.00062553002112 0.00062205105157 0.00061860730013 0.0006152012307 0.00061183546107 0.00060851295456 
0.00060523751639 0.00060201004778 0.00059866081 0.00066874508687 0.00066475728646 0.00066083422293 0.00065697077378 0.0006531620601 0.0006494023526 
0.00064568800556 0.00064201308603 0.00063837567745 0.00063477282225 0.00063120384644 0.0006276678021 0.00062416606576 0.00062069996122 0.00061727259628 
0.00061388651626 0.00061054471872 0.00060725065143 0.00060400613481 0.00060077532187 0.00067108475651 0.00066707335886 0.00066312586885 0.00065923777261 
0.00065540386935 0.00065161940732 0.00064787861177 0.00064417813639 0.00064051508862 0.00063688698456 0.00063329297132 0.00062973279732 0.00062620758001 
0.00062271931957 0.0006192713008 0.00061586568263 0.00061250563354 0.0006091944471 0.00060593396323 0.00060282248674 0.0006778740562 0.00067406007674 
0.00067029969943 0.0006665887301 0.00066292300736 0.00065930022795 0.00065571861676 0.0006521754475 0.000648670009 0.00064520157973 0.00064177046938 
0.00063837707549 0.00063502317289 0.00063171117716 0.00062844233974 0.00062521918894 0.00062204410263 0.00061891826163 0.0006158438617 0.00061117193084 
0.00067936848412 0.00067553101778 0.00067174685622 0.00066801198837 0.00066432270361 0.00066067628295 0.00065707044742 0.00065350399369 0.00064997515681 
0.00064648373259 0.00064303023758 0.00063961553467 0.00063624109475 0.00063290890931 0.00062962098868 0.00062637992389 0.00062318772371 0.00062004594233 
0.0006169555367 0.00061212891889 0.00068082680091 0.00067696565183 0.00067315733934 0.00066939936974 0.000665686364 0.00066201674166 0.00065838800564 
0.00065479872938 0.00065124722239 0.00064773351207 0.00064425859314 0.00064082311505 0.00063742839486 0.00063407690621 0.00063077055664 0.00062751152996 
0.00062430184246 0.00062114351487 0.00061803733875 0.00061305792535 0.00068227333994 0.00067838815791 0.00067455628449 0.000670774785 0.00066703852366 
0.00066334590988 0.00065969461 0.00065608308822 0.00065251008923 0.00064897511438 0.00064547927097 0.00064202362203 0.00063860954733 0.00063523902619 
0.00063191425948 0.0006286369007 0.00062540944136 0.0006222346174 0.0006191121723 0.00061398098143 0.00068442238955 0.00068053856467 0.000676706639 
0.0006729237686 0.00066918605058 0.00066548998744 0.00066183363102 0.00065821575086 0.0006546348622 0.00065109056 0.00064758331301 0.00064411358006 
0.00064068335458 0.00063729443564 0.0006339481264 0.00063064713154 0.00062739288748 0.00062418708276 0.00062103175655 0.0006160983869 0.00068582331357 
0.00068191574777 0.00067806101731 0.0006742559217 0.0006704965622 0.00066677971602 0.00066310327771 0.00065946630367 0.00065586652245 0.00065230391784 
0.00064877900869 0.00064529203528 0.00064184490336 0.00063843912641 0.00063507654315 0.00063175921492 0.0006284886451 0.00062526643994 0.00062209490045 
0.00061726918487 0.00068729107521 0.00068335944299 0.00067948165218 0.00067565433915 0.00067187385972 0.00066813658462 0.00066444042014 0.00066078385188 
0.00065716595521 0.00065358563723 0.00065004339837 0.00064653971972 0.00064307586955 0.00063965362468 0.00063627403971 0.00063293983243 0.00062965235242 
0.00062641356071 0.00062322513545 0.0006185066108 0.00068884737668 0.00068489135935 0.00068099041084 0.0006771406734 0.00067333867394 0.00066958137025 