# vtk DataFile Version 5.1
vtk output
ASCII
DATASET STRUCTURED_POINTS
DIMENSIONS 30 30 30
SPACING 0.01 0.01 0.01
ORIGIN 3.555 -0.145 0.855
POINT_DATA 27000
FIELD FieldData 1
potential 1 27000 double
0.018448220283 0.018377969797 0.018307814136 0.018237756884 0.018167803036 0.018097953705 0.018028212479 0.017958581143 0.017889063041 
0.017819661957 0.017750379589 0.01768121872 0.01761218146 0.017543271598 0.017474491481 0.017405842783 0.017337328391 0.017268952161 
0.017200713181 0.017132616486 0.01706466355 0.016996857869 0.016929199851 0.016861693104 0.016794338831 0.016727139735 0.016660098077 
0.016593216031 0.016526495452 0.016459938388 0.018567622523 0.01849658989 0.018425655509 0.018354822551 0.018284096305 0.018213476891 
0.018142967561 0.018072572782 0.018002293152 0.017932133398 0.017862095689 0.017792182188 0.017722396739 0.017652739444 0.017583215737 
0.017513826703 0.017444575801 0.017375464763 0.017306496564 0.017237672552 0.017168996433 0.017100469133 0.017032093986 0.016963872659 
0.016895807943 0.016827901958 0.016760156367 0.016692573506 0.016625155899 0.016557904525 0.01868806813 0.018616244261 0.018544519668 
0.018472900808 0.018401391139 0.018329991651 0.018258705523 0.018187535481 0.018116485327 0.018045557257 0.017974754109 0.017904078575 
0.017833533592 0.017763121788 0.017692843809 0.017622706108 0.01755270841 0.017482853943 0.017413145503 0.01734358571 0.017274176724 
0.017204920008 0.017135818129 0.017066873581 0.016998089463 0.016929467039 0.016861008849 0.016792716828 0.016724593544 0.016656640483 
0.018809565478 0.018736940317 0.018664417957 0.018592002574 0.018519698744 0.018447508162 0.018375435161 0.018303480698 0.018231649181 
0.018159942823 0.018088364347 0.018016916915 0.017945602752 0.01787442533 0.017803386474 0.017732488686 0.017661735043 0.01759112838 
0.017520670459 0.017450363872 0.017380212914 0.017310216793 0.017240379232 0.017170703108 0.017101190515 0.017031842878 0.016962662919 
0.016893653111 0.016824815566 0.016756151829 0.018932128019 0.01885869003 0.018785358321 0.018712137953 0.018639030731 0.018566036923 
0.018493166173 0.018420417045 0.018347793986 0.018275299105 0.018202936005 0.018130706333 0.018058613628 0.017986660286 0.017914849917 
0.017843183503 0.017771664339 0.017700294318 0.017629078494 0.01755801662 0.017487111584 0.017416368698 0.017345786437 0.017275368721 
0.01720511826 0.017135036509 0.017065126141 0.01699538973 0.016925829037 0.016856445938 0.019055765641 0.018981504141 0.018907352405 
0.018833315102 0.018759393489 0.018685591275 0.018611909415 0.018538355421 0.018464929985 0.018391636565 0.018318477214 0.018245455737 
0.018172573712 0.018099835551 0.018027242602 0.017954797339 0.017882503152 0.017810362119 0.017738377027 0.017666550281 0.017594883959 
0.017523381519 0.017452046817 0.017380878437 0.017309880619 0.017239055927 0.017168406808 0.017097934195 0.017027640622 0.016957528844 
0.01918048807 0.019105393063 0.019030409856 0.018955545066 0.018880798374 0.018806174639 0.018731675824 0.018657305001 0.018583066001 
0.018508963208 0.018434998434 0.018361174157 0.018287493293 0.01821395916 0.018140574314 0.018067340286 0.01799426085 0.017921338887 
0.017848575532 0.01777597322 0.017703536524 0.01763126634 0.017559166125 0.017487240359 0.01741548621 0.017343908891 0.01727250925 
0.01720129137 0.017130257404 0.017059408241 0.019306307739 0.01923036747 0.019154542296 0.019078838228 0.019003255553 0.018927799042 
0.018852470908 0.018777275088 0.018702213138 0.01862728926 0.018552508223 0.018477871391 0.018403381697 0.018329041139 0.018254853156 
0.01818082097 0.018106945868 0.018033231829 0.017959680375 0.017886294481 0.01781307725 0.017740029865 0.017667156289 0.017594458461 
0.017521940218 0.017449600023 0.017377442918 0.017305470661 0.017233686215 0.017162090354 0.019433234567 0.019356438276 0.019279759604 
0.019203205576 0.019126776028 0.019050475583 0.018974306772 0.018898273672 0.018822379693 0.018746625756 0.018671016207 0.018595556248 
0.018520246135 0.018445089198 0.018370088423 0.018295246694 0.018220567372 0.018146050884 0.018071702063 0.017997521791 0.017923513552 
0.017849679046 0.017776021671 0.017702544334 0.017629248018 0.017556138814 0.017483214083 0.017410478032 0.017337934086 0.017265582336 
0.019561286277 0.019483615551 0.01940607275 0.019328657167 0.019251369373 0.019174213841 0.019097193557 0.019020312643 0.018943573706 
0.018866979986 0.018790533047 0.018714238956 0.018638096427 0.018562112285 0.018486288095 0.018410628777 0.018335132426 0.018259804068 
0.018184646354 0.018109661439 0.018034852387 0.017960221673 0.017885769845 0.017811503347 0.017737422592 0.017663530082 0.017589829804 
0.017516320944 0.017443006657 0.017369889834 0.019690461392 0.019611916743 0.019533498634 0.019455202734 0.019377045737 0.019299022859 
0.019221141076 0.019143400836 0.019065806281 0.018988360168 0.018911066774 0.018833925411 0.018756943112 0.018680120437 0.018603462098 
0.018526971124 0.018450649314 0.018374498503 0.018298521612 0.018222721876 0.018147101837 0.018071663217 0.017996409636 0.017921343502 
0.017846467958 0.017771784188 0.01769729548 0.017623005456 0.017548912225 0.017475020554 0.019820776671 0.01974134066 0.019662033623 
0.019582859492 0.019503822034 0.019424915246 0.019346159284 0.019267548279 0.019189086799 0.019110777284 0.019032623466 0.018954628909 
0.0188767928 0.018799122703 0.018721619147 0.018644286326 0.018567127212 0.018490143099 0.01841333706 0.018336712013 0.018260269777 
0.018184014667 0.01810794848 0.018032072507 0.017956391722 0.017880906706 0.01780562069 0.01773053612 0.017655656254 0.017580980184 
0.019952242407 0.019871903108 0.019791696202 0.019711624587 0.019631694709 0.01955190574 0.01947226383 0.019392771131 0.019313424245 
0.019234241812 0.019155216631 0.019076353738 0.018997656592 0.018919124992 0.018840767194 0.018762580607 0.018684573731 0.018606745555 
0.018529099594 0.018451637978 0.018374364798 0.01829728206 0.01822039243 0.018143697203 0.01806720039 0.017990904411 0.01791481141 
0.017838924131 0.017763245816 0.017687775518 0.020084869821 0.020003615133 0.019922496147 0.019841516368 0.019760679496 0.019679990825 
0.019599453048 0.019519066248 0.019438836485 0.01935876653 0.019278853585 0.019199111821 0.019119539449 0.019040139749 0.018960912418 
0.018881864967 0.018802996522 0.018724313562 0.01864581694 0.018567509582 0.018489394136 0.018411473078 0.018333749095 0.018256224795 
0.018178902125 0.018101784427 0.018024874301 0.017948174251 0.017871685412 0.017795412863 0.020218669614 0.020136487406 0.020054444101 
0.01997254409 0.019890790235 0.019809187957 0.019727741181 0.019646449157 0.019565318324 0.019484350487 0.019403549383 0.019322917782 
0.019242453624 0.01916217109 0.019082067708 0.019002144165 0.018922406641 0.018842858935 0.018763498816 0.018684333929 0.018605365098 
0.018526595172 0.018448026466 0.018369661736 0.018291502955 0.018213553979 0.018135816172 0.018058293152 0.017980985924 0.017903896431 
0.020353653394 0.020270531471 0.020187551255 0.020104718557 0.020022035841 0.019939507738 0.019857138823 0.019774931555 0.01969288578 
0.019611008207 0.019529301076 0.019447767775 0.019366412029 0.019285235885 0.019204236964 0.0191234293 0.01904280923 0.018962384977 
0.018882153916 0.018802118757 0.018722285813 0.018642655938 0.018563231959 0.018484016168 0.01840501073 0.018326219331 0.018247643438 
0.018169286883 0.018091150567 0.018013237361 0.020489830531 0.020405756614 0.020321826864 0.020238048896 0.020154425641 0.020070959989 
0.019987656676 0.019904518954 0.019821548983 0.019738749016 0.01965612427 0.019573678128 0.019491412549 0.019409331041 0.01932743591 
0.019245732502 0.019164216291 0.019082901161 0.019001786349 0.018920873617 0.01884016349 0.018759662848 0.018679372373 0.018599294392 
0.018519432141 0.018439787296 0.018360363475 0.01828116332 0.01820218768 0.018123439854 0.020627216599 0.020542176952 0.020457286236 
0.020372545891 0.020287968931 0.02020355326 0.02011930363 0.020035223193 0.019951315498 0.019867582501 0.019784028477 0.019700656168 
0.019617469308 0.01953447036 0.019451663303 0.019369051264 0.019286636834 0.019204423235 0.019122405936 0.019040602212 0.01895900736 
0.018877622809 0.018796454964 0.018715504478 0.018634773974 0.018554265637 0.018473983514 0.018393928205 0.018314102997 0.018234509758 
0.020765814326 0.020679794806 0.020593932292 0.020508224318 0.020422680614 0.020337302219 0.020252090618 0.02016705486 0.02008219581 
0.019997518321 0.01991302214 0.019828712317 0.019744591213 0.019660663839 0.019576932368 0.019493399868 0.019410069175 0.019326944241 
0.019244028113 0.019161319714 0.019078821865 0.018996546151 0.018914487724 0.018832653317 0.018751043552 0.01866966103 0.01858850849 
0.018507588225 0.018426902502 0.018346453767 0.020905641183 0.020818628282 0.020731774998 0.02064508599 0.020558562656 0.020472208737 
0.020386029663 0.020300026951 0.020214205051 0.020128567108 0.020043114583 0.019957853741 0.019872787491 0.019787918995 0.019703250824 
0.019618786351 0.01953452822 0.019450480036 0.019366645546 0.019283025692 0.019199621684 0.0191164413 0.019033479389 0.018950747784 
0.01886824764 0.018785979461 0.018703946067 0.018622149728 0.018540592821 0.018459277423 0.021046703675 0.020958687434 0.020870830547 
0.020783143116 0.020695629723 0.020608287916 0.020521123968 0.020434140659 0.02034734327 0.020260733506 0.020174314919 0.020088094429 
0.020002070572 0.019916244998 0.019830627906 0.019745219025 0.019660021457 0.019575037854 0.01949027315 0.01940572745 0.019321402448 
0.019237306089 0.019153438318 0.019069802082 0.018986392664 0.018903227399 0.018820302277 0.018737618695 0.018655179622 0.018572987671 
0.021189015724 0.021099979459 0.021011107959 0.020922410375 0.020833888271 0.020745547309 0.02065738607 0.020569410868 0.020481624262 
0.0203940299 0.02030663204 0.020219435415 0.02013244202 0.020045654096 0.019959075641 0.019872710078 0.019786557178 0.019700626623 
0.019614919344 0.019529436108 0.01944418096 0.019359153942 0.019274363152 0.019189808808 0.019105493402 0.019021418041 0.018937584873 
0.018854002491 0.018770670395 0.018687590005 0.021332586918 0.02124251666 0.021152618152 0.021062896729 0.020973355812 0.020883996454 
0.020794827594 0.020705845576 0.020617056281 0.020528465422 0.020440075207 0.02035188969 0.020263913951 0.020176147396 0.020088595226 
0.020001260416 0.019914146673 0.019827256603 0.019740594706 0.01965415844 0.019567958358 0.019481994258 0.019396266046 0.019310781886 
0.019225541693 0.019140549813 0.019055804399 0.018971311958 0.018887070157 0.018803090462 0.021477428451 0.021386312123 0.021295373044 
0.021204612058 0.02111403779 0.021023649695 0.020933454219 0.020843454006 0.020753650621 0.020664049372 0.020574653178 0.02048546693 
0.020396493038 0.020307737095 0.020219198347 0.020130881816 0.020042791207 0.019954929263 0.019867299449 0.019779905495 0.019692748451 
0.019605829385 0.019519157493 0.019432728645 0.01934655201 0.01926062852 0.019174958719 0.01908954345 0.019004390706 0.018919500695 
0.02162355119 0.021531374313 0.021439379006 0.021347566464 0.021255945273 0.021164515119 0.021073279959 0.020982245034 0.020891415734 
0.020800790705 0.020710375471 0.020620175125 0.020530191924 0.020440430441 0.020350893301 0.020261582248 0.020172502073 0.02008365565 
0.019995046446 0.019906678724 0.019818552289 0.019730672089 0.019643040786 0.019555661129 0.019468530413 0.019381663747 0.019295056029 
0.019208709848 0.019122626753 0.019036814801 0.021770962969 0.021677712822 0.021584647184 0.021491770944 0.021399088488 0.021306600418 
0.021214314429 0.021122232538 0.021030358414 0.020938698661 0.020847250841 0.020756022657 0.020665017176 0.020574237217 0.020483687338 
0.020393369848 0.020303287343 0.020213444005 0.020123842708 0.020034487827 0.019945379748 0.019856522909 0.01976792039 0.019679575129 
0.019591486635 0.019503664747 0.019416102943 0.019328813065 0.019241793527 0.019155046042 0.021919681209 0.02182534157 0.021731191095 
0.021637233705 0.021543474076 0.02144991679 0.02135656638 0.021263423466 0.021170493269 0.021077779703 0.020985288401 0.020893019104 
0.020800977236 0.020709166523 0.020617589803 0.020526253373 0.020435155249 0.020344301412 0.020253695181 0.020163340481 0.020073238263 
0.019983392652 0.019893806202 0.01980448111 0.019715422997 0.019626630702 0.019538111015 0.019449865016 0.019361891488 0.019274198421 
0.022069713947 0.021974269975 0.021879020434 0.021783968441 0.021689118305 0.021594475991 0.021500043795 0.021405825765 0.021311825463 
0.021218048442 0.021124494473 0.021031172956 0.020938081736 0.020845226527 0.020752610556 0.02066023856 0.020568112848 0.020476235443 
0.020384611535 0.020293244487 0.020202134945 0.02011128597 0.020020703116 0.019930388717 0.019840346629 0.019750575662 0.019661079206 
0.019571865124 0.019482932097 0.019394284371 0.022221069757 0.022124508206 0.022028144464 0.021931982451 0.021836028057 0.021740286463 
0.021644759883 0.021549452353 0.021454367658 0.021359509709 0.021264882183 0.021170489283 0.021076338306 0.020982424694 0.020888756064 
0.020795335457 0.020702167332 0.020609254575 0.020516598504 0.02042420434 0.020332074895 0.020240213246 0.020148622118 0.020057303579 
0.019966263274 0.019875501634 0.019785022091 0.019694824279 0.019604916841 0.019515299585 0.022373765327 0.022276068245 0.022178573992 
0.022081288405 0.021984214859 0.02188735813 0.021790722175 0.021694310617 0.021598127469 0.021502176459 0.021406460263 0.021310984458 
0.021215751883 0.021120768452 0.021026032166 0.020931552191 0.020837328524 0.020743364206 0.020649664342 0.020556232791 0.020463069883 
0.020370179491 0.02027756649 0.020185233058 0.020093182581 0.020001416419 0.019909938098 0.019818747259 0.019727852685 0.019637253308 
0.018620939932 0.018550141933 0.018479437838 0.018408834477 0.018338332377 0.018267935046 0.018197646428 0.018127468282 0.018057404949 
0.017987457812 0.017917630031 0.017847923155 0.017778342119 0.017708887933 0.017639563522 0.017570371733 0.017501315663 0.017432395411 
0.017363615629 0.01729497758 0.017226484798 0.017158137751 0.017089940197 0.017021894524 0.016954001988 0.016886265085 0.016818686792 
0.016751268599 0.016684011985 0.016616919138 0.01874126401 0.018669679256 0.01859819314 0.018526809359 0.018455528947 0.018384357297 
0.018313297342 0.018242350187 0.018171520849 0.018100810636 0.018030222655 0.017959760008 0.01788942372 0.017819218741 0.017749146524 
0.017679210038 0.01760941128 0.017539754097 0.017470238843 0.017400869466 0.017331647624 0.0172625757 0.017193656656 0.017124892427 
0.017056284866 0.01698783643 0.016919549387 0.016851426354 0.016783468513 0.016715678529 0.018862634423 0.018790252853 0.018717973734 
0.018645799541 0.018573731748 0.018501775248 0.018429933416 0.018358207256 0.018286602022 0.018215118885 0.018143760991 0.018072531287 
0.018001432669 0.01793046605 0.017859636564 0.01778894595 0.017718396287 0.017647990817 0.017577731916 0.017507621909 0.017437662316 
0.017367855887 0.01729820542 0.017228713986 0.017159382256 0.017090213211 0.017021209096 0.01695237251 0.016883704751 0.016815208212 
0.018985063424 0.018911876363 0.01883879062 0.018765814726 0.018692949234 0.018620197936 0.018547563196 0.018475049008 0.018402657666 
0.01833039158 0.018258253884 0.018186247815 0.018114375712 0.018042639774 0.017971042346 0.017899588128 0.017828278229 0.017757115222 
0.017686101789 0.017615242 0.017544535159 0.017473985404 0.017403594982 0.017333366218 0.01726330182 0.01719340323 0.017123673126 
0.017054114338 0.016984727796 0.016915516076 0.019108558435 0.01903455384 0.018960655915 0.018886867598 0.018813193089 0.018739636376 
0.018666198864 0.018592885579 0.018519697763 0.018446638623 0.018373710907 0.018300918026 0.018228262622 0.018155746734 0.018083372821 
0.018011145279 0.017939064218 0.017867134457 0.017795358606 0.017723736816 0.017652275071 0.017580972428 0.017509832646 0.017438858076 
0.017368051425 0.017297414097 0.017226949119 0.017156658681 0.017086544457 0.01701660874 0.019233131249 0.019158298936 0.019083575075 
0.019008967057 0.01893447454 0.01886009931 0.018785849126 0.018711726017 0.018637731823 0.018563868946 0.018490140918 0.018416551123 
0.018343101638 0.018269795517 0.018196635551 0.018123624648 0.01805076451 0.01797805824 0.017905508597 0.017833117187 0.017760888045 
0.017688824599 0.017616926042 0.017545196187 0.017473638131 0.017402253093 0.017331043835 0.017260013003 0.017189162991 0.01711849374 
0.019358793397 0.019283120729 0.019207562231 0.019132121253 0.019056799036 0.018981599665 0.018906523301 0.018831579628 0.018756768038 
0.018682091772 0.018607553665 0.018533156751 0.018458903183 0.018384797105 0.018310840041 0.018237035342 0.018163385382 0.018089893653 
0.018016560366 0.017943390349 0.017870385034 0.017797547862 0.017724882631 0.017652388333 0.01758006924 0.017507927918 0.017435965276 
0.017364184849 0.017292587417 0.017221176924 0.019485554509 0.019409032374 0.01933262722 0.019256341936 0.019180178974 0.019104141198 
0.019028234415 0.0189524582 0.018876817321 0.018801316683 0.018725957803 0.018650742766 0.018575675409 0.018500758661 0.018425994949 
0.018351386502 0.01827693747 0.018202648539 0.018128523193 0.018054562777 0.017980772039 0.01790715332 0.017833709403 0.017760442567 
0.01768735303 0.017614444342 0.017541718075 0.017469178815 0.01739682727 0.017324665636 0.019613426326 0.019536043387 0.019458779975 
0.019381639334 0.019304624836 0.019227738453 0.019150986427 0.019074369956 0.01899789055 0.018921552678 0.018845362189 0.018769319312 
0.018693427308 0.01861768947 0.018542108293 0.018466686721 0.018391426493 0.018316330939 0.018241402727 0.018166645253 0.018092059133 
0.018017648215 0.01794341588 0.017869363321 0.017795495128 0.017721809355 0.017648311608 0.01757500425 0.017501887733 0.017428965663 
0.019742419398 0.019664164297 0.019586031228 0.019508024225 0.019430146649 0.019352400907 0.019274791963 0.019197322715 0.019119995186 
0.019042811651 0.018965776898 0.018888895113 0.018812168303 0.018735598266 0.018659189101 0.018582942809 0.018506862131 0.018430950672 
0.018355209372 0.018279641792 0.018204251094 0.018129037838 0.018054007464 0.017979160342 0.017904500853 0.017830032285 0.017755752597 
0.01768166684 0.017607776646 0.017534084523 0.019872551112 0.019793411795 0.019714391648 0.019635506809 0.019556754454 0.019478137775 
0.019399661352 0.019321327587 0.019243139453 0.019165100741 0.019087212418 0.01900948135 0.018931906066 0.018854493741 0.018777245911 
0.018700165633 0.018623253811 0.018546513936 0.018469949799 0.018393562591 0.018317355952 0.018241332221 0.01816549212 0.018089842073 
0.018014382728 0.017939116056 0.017864046547 0.017789173369 0.017714499658 0.017640028173 0.020003819867 0.019923783345 0.019843877085 
0.019764103406 0.019684463941 0.019604959348 0.019525603755 0.019446394648 0.019367335051 0.01928842839 0.01920967692 0.01913108294 
0.019052653122 0.018974386236 0.018896288152 0.018818361961 0.018740608116 0.018663030435 0.018585631762 0.018508414737 0.018431381987 
0.018354535491 0.018277878964 0.01820141425 0.01812514477 0.018049072521 0.017973199524 0.017897530857 0.017822063883 0.017746803338 
0.020136242386 0.0200552985 0.019974485744 0.019893811032 0.019813274526 0.019732881584 0.019652635777 0.019572533336 0.019492590451 
0.019412803912 0.019333178065 0.019253713372 0.019174412717 0.019095283828 0.019016323332 0.018937540131 0.018858933604 0.018780507315 
0.018702264038 0.018624206186 0.018546336576 0.018468658146 0.018391173597 0.018313884322 0.018236794808 0.018159906689 0.018083222658 
0.018006746085 0.017930475958 0.017854416559 0.020269830791 0.020187965242 0.020106235684 0.02002464662 0.019943200729 0.019861902389 
0.019780754765 0.019699759631 0.019618922154 0.019538238608 0.019457724854 0.019377377599 0.019297199767 0.019217192067 0.019137361837 
0.019057709143 0.018978238781 0.018898953109 0.01881985313 0.018740944458 0.018662227975 0.018583706887 0.018505383507 0.018427260009 
0.018349339782 0.018271625543 0.018194119722 0.018116823707 0.018039742455 0.017962873802 0.020404593335 0.02032179515 0.020239136399 
0.020156621968 0.020074253295 0.019992038117 0.019909976533 0.019828070926 0.01974632647 0.019664747522 0.019583334259 0.019502086018 
0.019421016803 0.019340123919 0.01925940875 0.019178878283 0.019098533912 0.01901837508 0.018938409796 0.018858638672 0.018779064206 
0.018699689223 0.018620516549 0.018541547902 0.018462787175 0.01838423593 0.018305897662 0.018227773951 0.018149867397 0.018072182381 
0.020540542073 0.020456798779 0.020373198449 0.020289745386 0.020206444452 0.020123297516 0.020040310702 0.019957483579 0.019874820801 
0.019792326254 0.019710002336 0.019627853524 0.019545881648 0.019464083999 0.019382476549 0.01930105404 0.019219823049 0.019138784861 
0.019057940089 0.018977295568 0.018896852279 0.018816612675 0.018736579596 0.01865675581 0.018577142578 0.018497744686 0.018418564107 
0.018339602316 0.018260862189 0.018182346008 0.020677688458 0.020592987048 0.020508433458 0.020424029751 0.020339782079 0.020255692523 
0.020171766169 0.020088005523 0.020004412507 0.019920990798 0.019837744736 0.019754676824 0.019671790648 0.019589089631 0.019506575955 
0.019424252654 0.019342117036 0.019260185744 0.019178453989 0.019096923261 0.019015599495 0.018934484301 0.018853580062 0.018772889445 
0.018692414671 0.018612159126 0.018532125625 0.018452315133 0.018372730763 0.018293375565 0.02081604078 0.020730370833 0.020644849376 
0.020559483632 0.020474277551 0.020389232967 0.020304354536 0.020219646171 0.020135111014 0.020050751142 0.019966570206 0.019882571856 
0.019798759589 0.019715136343 0.019631704276 0.019548468291 0.019465431789 0.019382593021 0.019299955327 0.01921753083 0.019135314315 
0.019053312383 0.01897152594 0.018889957677 0.018808609687 0.018727485686 0.018646588526 0.01856591903 0.018485480225 0.018405275017 
0.020955616971 0.020868960868 0.020782462226 0.020696121817 0.020609939248 0.020523926967 0.020438084919 0.020352417155 0.020266926678 
0.020181615938 0.020096488088 0.020011547116 0.019926796415 0.019842237856 0.019757877217 0.019673716163 0.019589757741 0.019506006539 
0.019422460376 0.019339128446 0.019256005637 0.019173103827 0.019090423971 0.019007966942 0.018925735411 0.018843731517 0.018761959525 
0.018680419962 0.018599116252 0.018518050631 0.021096420856 0.021008767105 0.020921272526 0.020833945147 0.02074678258 0.020659789727 
0.020572971247 0.02048633126 0.020399867453 0.020313594277 0.020227506969 0.020141611036 0.020055908856 0.019970405522 0.019885103199 
0.019800004933 0.019715114185 0.019630434752 0.019545967566 0.019461714302 0.019377682906 0.01929387349 0.019210281393 0.019126924331 
0.01904379753 0.018960903854 0.018878245206 0.018795824793 0.018713645323 0.018631708353 0.021238464861 0.021149798434 0.021061298974 
0.020972967013 0.020884809275 0.020796822774 0.020709015624 0.020621390571 0.020533949405 0.020446697734 0.020359640549 0.02027277232 
0.020186108081 0.020099646254 0.020013390027 0.019927342447 0.019841507023 0.019755887811 0.01967048509 0.019585303723 0.019500343762 
0.019415613307 0.019331112446 0.019246841858 0.019162803044 0.019079007672 0.018995452173 0.018912139865 0.018829073337 0.018746254456 
0.021381759124 0.021292069421 0.021202549931 0.021113202579 0.021024031251 0.020935040537 0.020846231295 0.020757607575 0.020669172708 
0.020580931827 0.020492886906 0.0204050454 0.020317405552 0.020229972648 0.02014274669 0.020055737473 0.019968945144 0.019882373863 
0.019796023773 0.019709899847 0.019624002029 0.019538338728 0.019452909917 0.019367718278 0.019282764881 0.019198051367 0.019113587488 
0.019029372214 0.018945407155 0.018861694908 0.021526316228 0.02143559067 0.021345036367 0.021254660025 0.021164463751 0.021074450347 
0.020984628184 0.020894992844 0.020805551697 0.020716307056 0.020627265426 0.020538430922 0.020449802736 0.020361386199 0.020273184764 
0.020185201437 0.020097439762 0.02000990061 0.019922591277 0.019835512478 0.019748667612 0.019662056641 0.019575688136 0.019489561905 
0.01940368068 0.019318045828 0.019232662316 0.019147526892 0.019062653138 0.018978037082 0.02167214574 0.021580369857 0.0214887686 
0.021397349162 0.021306114533 0.02121506834 0.021124215789 0.021033555693 0.02094309348 0.020852834258 0.020762781844 0.020672939188 
0.020583311898 0.020493898883 0.020404705821 0.020315735831 0.020226992163 0.020138479368 0.020050198017 0.019962152457 0.019874342429 
0.019786777377 0.019699454375 0.019612381534 0.019525558567 0.019438989794 0.019352673182 0.019266617101 0.019180822094 0.019095285737 
0.021819261085 0.021726419459 0.021633756926 0.021541280773 0.021448994124 0.021356899613 0.021265001559 0.021173304817 0.021081809878 
0.020990521804 0.020899445289 0.020808583365 0.020717939402 0.020627519116 0.020537321408 0.020447351939 0.020357613674 0.020268110053 
0.020178845613 0.020089820712 0.020001039728 0.01991250538 0.019824218429 0.019736183874 0.019648408606 0.019560890621 0.01947363343 
0.0193866376 0.01929991038 0.019213452304 0.021967669852 0.021873749854 0.021780011813 0.021686465357 0.021593112457 0.021499955984 
0.021406999849 0.021314249218 0.021221709468 0.021129378818 0.021037264673 0.020945370083 0.020853698418 0.020762254387 0.020671040094 
0.020580058028 0.020489312326 0.02039880639 0.02030854487 0.020218528358 0.020128760632 0.020039244867 0.019949984168 0.019860981577 
0.01977223794 0.019683756839 0.019595545287 0.019507601989 0.019419927591 0.019332531096 0.022117386833 0.022022370382 0.021927544671 
0.021832910627 0.021738479054 0.021644245577 0.021550219108 0.021456402245 0.021362798969 0.021269414594 0.021176249161 0.021083308286 
0.020990595496 0.020898114308 0.020805870186 0.020713862376 0.020622096175 0.020530575286 0.020439303741 0.020348282043 0.020257514962 
0.020167005365 0.020076756012 0.019986770118 0.019897048789 0.019807596804 0.019718418089 0.019629510766 0.019540884103 0.019452535474 
0.022268421384 0.02217229589 0.022076364974 0.021980631013 0.021885101763 0.021789779223 0.021694667264 0.021599771666 0.021505093047 
0.021410635845 0.021316407892 0.021222406849 0.02112863921 0.021035108358 0.020941818904 0.020848773446 0.020755973426 0.020663423607 
0.020571129042 0.020479089887 0.020387310623 0.020295794315 0.020204543502 0.020113560662 0.020022851472 0.0199324138 0.019842256404 
0.019752378685 0.019662783272 0.019573468778 0.022420783521 0.022323533743 0.022226483999 0.022129634959 0.022032996542 0.021936568899 
0.021840357164 0.021744365113 0.021648597096 0.021553055454 0.021457747215 0.021362674797 0.021267838823 0.021173244572 0.021078895857 
0.020984797181 0.020890951208 0.020797359603 0.020704028876 0.020610958986 0.020518154528 0.020425616941 0.020333351962 0.020241362793 
0.02014965049 0.02005821875 0.019967065923 0.019876202629 0.019785627929 0.0196953442 0.022574487179 0.022476097343 0.022377911616 
0.022279932902 0.022182169829 0.022084622619 0.021987296633 0.021890195733 0.021793323643 0.021696683182 0.021600280344 0.02150411726 
0.021408200785 0.021312530519 0.021217109877 0.021121943863 0.021027038103 0.020932391235 0.020838010058 0.020743894697 0.020650051877 
0.020556483428 0.020463191949 0.020370181814 0.020277453094 0.020185011523 0.020092855834 0.020000994667 0.019909427462 0.019818157884 
0.018792531503 0.018721191091 0.018649947164 0.018578803551 0.018507760913 0.018436823571 0.018365994299 0.018295277582 0.018224674699 
0.01815418914 0.018083821573 0.018013577582 0.017943458672 0.017873467108 0.017803605864 0.017733878362 0.017664284332 0.017594828803 
0.017525513516 0.017456341708 0.017387314686 0.017318434557 0.017249704976 0.01718112652 0.017112702304 0.017044434561 0.016976324948 
0.016908376309 0.01684059099 0.016772969732 0.018913764888 0.018841634185 0.018769602702 0.018697674201 0.018625849645 0.018554133246 
0.018482527443 0.018411037318 0.018339663896 0.018268410625 0.018197279819 0.01812627337 0.018055395876 0.017984648778 0.01791403526 
0.017843557704 0.017773219756 0.017703020894 0.017632966508 0.017563058897 0.017493298332 0.017423688569 0.017354232202 0.017284930645 
0.017215786945 0.017146803131 0.017077981706 0.017009324475 0.016940832881 0.016872510157 0.019036048304 0.018963116981 0.01889028635 
0.018817563123 0.018744946198 0.018672440319 0.018600048599 0.018527775036 0.018455621427 0.018383590517 0.018311685366 0.018239908681 
0.018168262214 0.018096750237 0.018025374918 0.01795413878 0.017883044282 0.017812094606 0.017741292306 0.017670637833 0.017600135184 
0.017529786682 0.017459594692 0.017389561925 0.017319689814 0.017249981043 0.017180437874 0.017111063038 0.017041857633 0.016972823552 
0.019159393758 0.019085648421 0.019012011348 0.018938481192 0.018865061679 0.018791756618 0.018718568016 0.018645500875 0.018572556796 
0.018499738348 0.018427048613 0.018354490959 0.018282067114 0.018209779606 0.018137632669 0.018065628399 0.017993768761 0.017922057523 
0.017850497299 0.01777908794 0.01770783385 0.017636737438 0.017565800968 0.017495027182 0.017424417604 0.017353974909 0.017283701385 
0.017213599526 0.017143670826 0.017073918024 0.019283806895 0.019209242647 0.019134784713 0.019060437821 0.01898620537 0.018912090689 
0.0188380951 0.018764224074 0.018690479301 0.018616862841 0.018543378667 0.0184700298 0.018396817815 0.01832374657 0.018250818411 
0.018178035275 0.018105401136 0.018032919323 0.017960588816 0.017888416867 0.017816401932 0.01774454819 0.01767285793 0.017601333893 
0.017529977677 0.017458791967 0.017387779043 0.017316941385 0.01724628075 0.01717579956 0.019409301921 0.01933390401 0.019258618876 
0.019183445385 0.019108387473 0.019033451316 0.018958639368 0.018883953503 0.018809397598 0.018734973807 0.018660685058 0.018586534346 
0.018512524935 0.018438658465 0.018364938808 0.018291368779 0.01821795022 0.018144686112 0.018071579133 0.017998631108 0.017925847238 
0.017853226665 0.017780773181 0.017708489528 0.017636377251 0.017564439298 0.017492678205 0.017421095566 0.01734969375 0.017278475669 