# vtk DataFile Version 5.1
vtk output
ASCII
DATASET STRUCTURED_POINTS
DIMENSIONS 50 50 50
SPACING 0.002 0.002 0.002
ORIGIN 0.0482 -0.052672 0.02732
POINT_DATA 125000
FIELD FieldData 1
potential 1 125000 double
0.00064471688308 0.00064064808432 0.00063664423055 0.00063270332065 0.00062881913266 0.00062498784834 0.00062120538325 0.00061746723046 0.00061376788518 
0.00061010552626 0.0006064775216 0.00060288133692 0.00059931728523 0.00059578312452 0.00059228705552 0.00058881803114 0.00058538343419 0.00058198490597 
0.00057862482098 0.00057530506308 0.00057202624231 0.00056878941781 0.00056559471552 0.00056244261262 0.00055933282208 0.00055626465236 0.00055323649924 
0.00055024964914 0.00054730217928 0.00054439494097 0.00054152721855 0.00053869936631 0.00053591003436 0.00053315860047 0.00053044275121 0.00052775908655 
0.00052510532646 0.00052247537196 0.00051986605075 0.00051727393296 0.00051469391082 0.00051212347762 0.00050955972673 0.0005070006631 0.0005044475063 
0.00050190008625 0.00049935949101 0.00049682687532 0.00049430545557 0.00049179578893 0.00064873949601 0.00064463659609 0.0006405981799 0.00063662369289 
0.0006327056979 0.00062884087122 0.00062502506823 0.00062125356017 0.00061752101325 0.00061382512399 0.00061016461183 0.00060653645836 0.00060293962622 
0.00059937404135 0.0005958412975 0.00059234861451 0.00058888446427 0.00058545809616 0.00058207119501 0.00057872483951 0.00057542068083 0.00057215891555 
0.00056893990827 0.00056576339684 0.00056263014198 0.00055953801051 0.00055648628135 0.00055347443601 0.00055050363764 0.00054757254539 0.00054468143462 
0.00054183025331 0.00053901801065 0.00053624325722 0.0005335045817 0.00053079838611 0.00052812174339 0.00052546901623 0.00052283736834 0.0005202223715 
0.00051762051794 0.00051502723442 0.00051244161126 0.00050986134457 0.0005072861905 0.00050471699832 0.00050215482655 0.0004996018199 0.0004970594922 
0.00049453007306 0.00065246455458 0.00064832868566 0.00064426063964 0.00064025291826 0.00063630270363 0.00063240566599 0.00062855782444 0.00062475421698 
0.00062098940798 0.00061726302824 0.00061357110257 0.00060991213698 0.00060628506248 0.00060269058592 0.00059912868924 0.00059560180504 0.00059211805107 
0.00058866606539 0.00058525488827 0.0005818847864 0.00057855753448 0.00057527310032 0.00057203173053 0.00056883331411 0.00056567678033 0.0005625623636 
0.00055948846709 0.0005564547214 0.00055346075525 0.00055050639433 0.00054759213845 0.00054471830346 0.00054188306975 0.00053908503282 0.00053632291787 
0.00053359344031 0.00053089296959 0.0005282165735 0.00052556183008 0.00052292372942 0.00052029870586 0.0005176826815 0.00051507444589 0.0005124722616 
0.00050987521185 0.00050728492504 0.00050470232561 0.00050212945156 0.00049956807652 0.00049701988127 0.0006558266108 0.00065166079932 0.00064756366162 
0.00064352609511 0.00063954648647 0.00063561960354 0.00063174144487 0.00062790818676 0.00062411336853 0.00062035714092 0.00061663592856 0.00061294864933 
0.00060929343824 0.00060567215446 0.00060208410755 0.00059853239599 0.00059501866298 0.00059155031346 0.00058811706006 0.00058472583726 0.00058137786674 
0.00057807359503 0.00057481207434 0.00057159377363 0.00056841693031 0.00056528211839 0.00056218735111 0.00055913234997 0.00055611710731 0.00055314054352 
0.00055020524415 0.00054730849414 0.00054445038234 0.00054162905965 0.00053884339577 0.00053609038639 0.00053336633613 0.00053066664515 0.00052798820716 
0.00052532665375 0.00052267870126 0.00052004023309 0.00051740920487 0.00051478483591 0.0005121659466 0.00050955566395 0.00050695378 0.00050436209363 
0.00050178271468 0.00049921716083 0.00065877335731 0.00065458141547 0.00065045736308 0.00064639260528 0.00064238616936 0.00063843282725 0.00063452723232 
0.00063066580782 0.00062684358186 0.0006230598503 0.00061931242956 0.0006155983116 0.00061191756997 0.00060827146294 0.00060466044358 0.00060108668763 
0.00059755179813 0.00059405696901 0.0005906112181 0.00058720214383 0.00058383633263 0.00058051470345 0.00057723607213 0.00057400004415 0.00057080544212 
0.00056765142505 0.00056453794144 0.00056146324434 0.00055842748149 0.00055543077302 0.00055247403234 0.00054955626804 0.00054667594736 0.00054383271173 
0.00054102432931 0.00053824807756 0.00053550094104 0.00053277838418 0.00053007615178 0.00052739154519 0.00052472058477 0.00052205957026 0.00051940704864 
0.00051676172646 0.00051412329581 0.00051149266329 0.00050887231287 0.0005062631377 0.00050366682315 0.00050108561711 0.00066127151241 0.00065705718733 
0.00065290957872 0.0006488215131 0.00064479020008 0.00064081196573 0.00063688205726 0.00063299592306 0.00062914870124 0.0006253407775 0.00062156876461 
0.00061783111409 0.00061412726758 0.00061045917681 0.00060682769057 0.00060323447849 0.0005996811581 0.00059616957633 0.00059270150963 0.00058928281756 
0.0005859023172 0.00058256623851 0.00057927251606 0.00057602100722 0.00057281071007 0.0005696401319 0.00056650964223 0.00056341719051 0.00056036228264 
0.00055734623389 0.00055436983873 0.00055143160775 0.00054853083139 0.00054566641271 0.00054283687741 0.00054003873935 0.00053726872175 0.00053452445407 
0.00053179953237 0.00052909293648 0.00052639952161 0.00052371720913 0.00052104344893 0.00051837789679 0.00051572062674 0.00051307151548 0.00051043390228 
0.00050780827527 0.00050519672999 0.00050260155047 0.00066331077261 0.0006590770346 0.00065490762711 0.00065079870662 0.00064674669276 0.00064274692716 
0.00063879419039 0.00063488639882 0.00063101704032 0.00062718831763 0.00062339436966 0.00061963494682 0.00061591127382 0.00061222465243 0.00060857492149 
0.0006049646675 0.00060139596014 0.00059786952653 0.00059438740526 0.00059095648239 0.00058756389758 0.0005842147008 0.00058090878612 0.00057764433301 
0.00057442032324 0.00057123567621 0.00056808922535 0.00056498097866 0.00056190940903 0.00055887603345 0.00055588112301 0.00055292330972 0.00055000314164 
0.00054711879331 0.00054426898135 0.00054145045523 0.00053866025146 0.00053589456291 0.00053314930846 0.00053042181719 0.00052770740212 0.00052500519576 
0.00052231158471 0.00051962689302 0.00051695120197 0.00051428493834 0.00051163182033 0.00050899135557 0.00050636626793 0.0005037589044 0.00066489751702 
0.00066064921932 0.00065646222891 0.00065233472964 0.00064826420551 0.00064424574886 0.00064027442006 0.00063634673831 0.00063245817417 0.00062861018061 
0.00062479728727 0.00062101964726 0.00061727880105 0.00061357545217 0.00060991037351 0.0006062860412 0.00060270430499 0.00059916560961 0.0005956725367 
0.00059222453337 0.00058882825228 0.00058546878264 0.00058215226433 0.00057887681002 0.00057564114484 0.00057244399356 0.00056928362061 0.00056616086834 
0.00056307450486 0.0005600249197 0.00055701242276 0.00055403782453 0.00055109987236 0.00054819711095 0.00054532875662 0.00054249123876 0.00053968177693 
0.00053689733179 0.00053413270257 0.00053138548516 0.0005286527419 0.00052593173464 0.00052321965627 0.00052051757357 0.00051782565025 0.00051514458463 
0.00051247553836 0.000509822494 0.00050718563614 0.00050456722696 0.00066606861827 0.00066180237714 0.00065760250105 0.0006534607817 0.00064937434494 
0.00064533870313 0.0006413507777 0.00063740619176 0.00063350182717 0.00062963572626 0.00062580655283 0.00062201368966 0.00061825807038 0.00061454058732 
0.00061086300995 0.00060722657665 0.0006036335059 0.00060008516427 0.00059658290648 0.00059312667794 0.0005897149904 0.00058635369384 0.00058302830326 
0.00057974430474 0.00057649874657 0.00057329014269 0.00057011806778 0.00056698058392 0.0005638812612 0.00056081762781 0.00055778999495 0.00055479871547 
0.00055184416595 0.0005489252801 0.00054603986903 0.00054318508719 0.00054035852234 0.00053755650823 0.00053477491523 0.0005320098914 0.0005292594819 
0.00052652130778 0.00052379278621 0.00052107453389 0.00051836739748 0.00051567233835 0.00051299039701 0.00051032522864 0.00050767824955 0.00050505072006 
0.00066687497746 0.00066259389894 0.00065837742265 0.00065422186236 0.00065012363542 0.00064607394776 0.00064207090384 0.00063811171557 0.00063419357228 
0.00063031247088 0.0006264695638 0.00062266353775 0.00061889510575 0.00061516624329 0.00061147747543 0.00060783154241 0.00060422932296 0.00060067294682 
0.00059716272348 0.00059369902165 0.00059028003689 0.00058690568182 0.00058357920072 0.00058028701994 0.00057703261116 0.00057381438924 0.00057063153425 
0.00056748299736 0.00056437087939 0.00056129311626 0.00055825117561 0.00055524552887 0.00055227555766 0.00054934061913 0.0005464401964 0.00054356980213 
0.00054072768472 0.00053790964131 0.00053511254319 0.00053233178677 0.00052956613161 0.00052681233921 0.00052406940836 0.00052133758855 0.0005186171056 
0.00051590948697 0.00051321588629 0.00051054049114 0.00050788443294 0.00050524842763 0.00066737861497 0.00066308528529 0.00065885614735 0.00065468745415 
0.00065057357218 0.00064651331357 0.00064249711639 0.00063852556416 0.00063459362904 0.0006306996463 0.00062684515927 0.00062302800293 0.00061924868506 
0.00061550992697 0.00061181316115 0.00060815876591 0.00060454941141 0.00060098555541 0.00059746895456 0.00059399908352 0.00059057385712 0.00058719238122 
0.00058385248255 0.00058055884577 0.00057729633569 0.00057406916324 0.00057087660774 0.00056771711646 0.00056459329229 0.00056150432527 0.00055845000194 
0.00055543060424 0.00055244674891 0.00054949746478 0.00054658217721 0.00054369821339 0.00054084124318 0.00053800871855 0.00053519723223 0.00053240262677 
0.00052962315156 0.00052685586581 0.00052409974217 0.00052135531022 0.00051862320094 0.00051590521833 0.00051320173407 0.00051051774665 0.00050785393616 
0.00050521103231 0.00066765540214 0.00066335019194 0.00065910895088 0.00065492788044 0.00065080177734 0.00064672572314 0.00064270032369 0.00063871598889 
0.00063477249541 0.00063086817846 0.00062700314341 0.00062317672504 0.00061938815798 0.00061564054611 0.00061193558656 0.00060827458166 0.00060465869404 
0.00060108886589 0.00059756609017 0.0005940900793 0.00059065950837 0.00058727183777 0.00058392549989 0.0005806176901 0.00057735371397 0.00057411811526 
0.00057091616081 0.00056774706084 0.00056461244283 0.00056151163703 0.00055844516118 0.00055541362664 0.00055241689032 0.00054945521761 0.00054652651377 
0.00054362885277 0.00054075846177 0.00053791289209 0.00053508845622 0.0005322805984 0.00052948867485 0.00052670935258 0.00052394202101 0.00052118695471 
0.00051844477008 0.00051571727969 0.00051300670907 0.00051031414056 0.00050764382684 0.00050499524005 0.00066778481902 0.00066346774307 0.00065921460768 
0.00065502075019 0.00065088154727 0.00064679396658 0.00064275404694 0.00063875997472 0.00063480551098 0.00063089040175 0.00062701594942 0.00062318028177 
0.00061938464212 0.00061562996968 0.00061191735134 0.00060825048883 0.00060462873607 0.00060105333735 0.00059752458218 0.00059404280432 0.0005906059274 
0.000587212127 0.00058385871223 0.00058054300544 0.00057727139099 0.00057402707775 0.00057081564095 0.00056763690144 0.00056449134958 0.00056137951897 
0.0005583021851 0.00055525893711 0.00055225019245 0.00054927599734 0.00054633472805 0.00054342466536 0.00054054183859 0.00053768406857 0.0005348473971 
0.00053202766452 0.00052922334197 0.00052643329974 0.00052365586595 0.00052089172201 0.00051814166264 0.00051540634115 0.00051268917854 0.00050999065486 
0.00050731421278 0.00050465985842 0.00066784461697 0.0006635150648 0.00065924875158 0.00065504126916 0.00065088924236 0.00064678843232 0.00064273599815 
0.0006387265454 0.00063476390575 0.0006308389347 0.00062695525979 0.00062311159218 0.00061930888479 0.00061554720344 0.00061182987741 0.00060815561351 
0.00060452797562 0.00060094731842 0.00059741271519 0.00059392414203 0.00059048073609 0.00058707969689 0.00058371870706 0.00058039477459 0.00057710764335 
0.00057386105887 0.00057064028357 0.00056745160204 0.00056429593354 0.00056117321103 0.00055808487833 0.00055503046476 0.00055201074321 0.00054902387734 
0.00054607051484 0.00054314767755 0.00054025275674 0.00053738228419 0.00053453409085 0.00053170381843 0.00052888881014 0.0005260889024 0.00052330224485 
0.00052052968076 0.00051777245476 0.00051503107412 0.0005123082136 0.00050960450235 0.00050692310457 0.00050426484887 0.00066790558711 0.00066356303373 
0.00065928207615 0.00065506035608 0.00065089372271 0.00064678000175 0.00064271339172 0.00063869172225 0.00063471471913 0.00063078185368 0.00062688858338 
0.00062303698424 0.00061922699377 0.00061545933863 0.00061173538796 0.00060805621107 0.00060442171176 0.00060083423494 0.0005972937122 0.00059379690395 
0.00059034569477 0.00058693639154 0.0005835664645 0.0005802338761 0.00057693660555 0.00057367328616 0.00057044960177 0.00056725167287 0.0005640858449 
0.00056095234926 0.00055785304303 0.00055478735727 0.00055175594476 0.00054875728802 0.00054579198058 0.00054285645923 0.00053994920508 0.00053706668038 
0.00053420649557 0.00053136583999 0.00052854053949 0.00052573147649 0.00052293690584 0.00052015715362 0.00051739343452 0.00051464702596 0.00051191879374 
0.00050921065867 0.00050652471604 0.00050386247745 0.00066803232999 0.00066367330285 0.00065937796191 0.00065514060474 0.00065095856762 0.00064682945778 
0.00064274863301 0.00063871325106 0.00063472418887 0.00063077702628 0.00062687690834 0.00062301627686 0.00061919818692 0.00061542383735 0.00061169291136 
0.00060800694108 0.00060436613132 0.00060077104163 0.00059722180956 0.00059371781403 0.00059025668449 0.00058683725144 0.00058345742821 0.00058011421308 
0.00057680655088 0.00057353284716 0.00057029161918 0.0005670903482 0.00056391387832 0.00056076942074 0.00055765923201 0.00055458271387 0.00055153932536 
0.0005485283008 0.0005455498184 0.00054260208869 0.00053968216605 0.0005367877803 0.00053391555077 0.00053106341926 0.00052822869829 0.00052541081969 
0.00052260854444 0.00051982219255 0.00051705277822 0.00051430139608 0.00051156903787 0.00050885811629 0.00050616791123 0.00050350107821 0.00066826484808 
0.00066389977062 0.00065958803402 0.00065533367196 0.00065113596048 0.00064698926051 0.00064289224285 0.00063884283511 0.00063484010376 0.00063088066537 
0.00062696645309 0.00062309587333 0.00061927196087 0.00061548900465 0.000611750036 0.00060805634322 0.00060440736954 0.00060080282579 0.00059724508862 
0.00059373072162 0.0005902589908 0.00058682901282 0.00058343779538 0.00058008223966 0.00057676268244 0.00057347746518 0.00057022502486 0.00056701257986 
0.00056382471846 0.0005606691007 0.00055754727734 0.00055445879645 0.00055140342839 0.00054838034576 0.00054538868191 0.00054242761672 0.00053949475044 
0.00053658779114 0.00053370362793 0.00053084013398 0.00052799473852 0.00052516877636 0.00052235877147 0.00051956598457 0.0005167912704 0.00051403480216 
0.00051129893437 0.00050858387559 0.00050588988066 0.00050321918097 0.00066867071587 0.00066428647248 0.00065995374011 0.00065568094259 0.00065146566763 
0.00064730120209 0.00064318617043 0.00063912105379 0.00063510358279 0.00063113059908 0.00062720333212 0.00062332146476 0.00061948455231 0.00061569358265 
0.00061194497482 0.00060824220293 0.00060458313619 0.00060096986938 0.0005973994485 0.00059387351907 0.00059038958201 0.00058694632235 0.00058354236734 
0.00058017498104 0.00057684250815 0.00057354438809 0.00057027925322 0.00056704684229 0.00056385419141 0.00056068703674 0.00055755243008 0.00055445138408 
0.00055138330566 0.00054834726157 0.00054534242055 0.00054236758761 0.00053942114342 0.00053650015919 0.00053360426381 0.00053072917794 0.00052787448958 
0.00052503757126 0.00052222027184 0.00051942093012 0.00051664033372 0.00051387937714 0.00051113914639 0.00050842019826 0.00050572227004 0.00050304749153 
0.00066926888998 0.00066485327116 0.00066051019664 0.00065621682627 0.00065197937379 0.00064779493609 0.00064366253604 0.00063957911369 0.00063554523102 
0.00063155672776 0.00062761555309 0.00062372017255 0.00061986985662 0.00061606490649 0.00061230758955 0.00060859226442 0.00060492201437 0.00060129648005 
0.0005977144494 0.00059417379657 0.00059067579187 0.00058721854738 0.00058379995853 0.00058041823513 0.00057707146297 0.00057375930739 0.00057048079105 
0.00056723480923 0.00056402229388 0.00056084901891 0.00055770098003 0.00055458657331 0.00055150442419 0.00054845476565 0.00054543625403 0.00054244716087 
0.00053948618698 0.00053655168125 0.00053364231073 0.00053075531336 0.00052788948506 0.00052504265913 0.0005222167208 0.000519411239 0.00051662473449 
0.00051385877052 0.00051111389694 0.00050839032012 0.00050568770182 0.00050300865403 0.00067008229319 0.00066564407449 0.00066126859418 0.00065696194336 
0.00065270234068 0.00064849602659 0.00064434199585 0.0006402389351 0.00063618739398 0.00063218148135 0.00062822380733 0.00062431303425 0.00062044794871 
0.0006166283517 0.00061285463679 0.00060912815186 0.00060544417117 0.0006018045488 0.00059820743422 0.00059465223497 0.00059113820317 0.0005876647447 
0.00058423029501 0.0005808324123 0.00057746997917 0.00057414248212 0.00057084836542 0.00056758815331 0.00056436117731 0.00056116656261 0.00055801219713 
0.00055488286247 0.00055178622611 0.00054872195085 0.00054568809469 0.00054268387034 0.0005397081539 0.00053675965452 0.00053383611758 0.00053093603397 
0.00052805885901 0.00052520223289 0.00052236751582 0.00051955388256 0.00051676120897 0.00051398932296 0.00051123925181 0.00050851066734 0.00050580424344 
0.00050311873627 0.00067112747744 0.0006666640669 0.00066226370438 0.00065793254599 0.00065364787044 0.00064941880086 0.00064524178168 0.00064111734487 
0.00063704380718 0.00063301966294 0.00062904400548 0.00062511440043 0.00062123239509 0.0006173963831 0.00061360612546 0.00060986116694 0.00060616328971 
0.00060250671583 0.00059889271192 0.00059532087413 0.00059179030797 0.00058829767284 0.00058484565951 0.00058143040904 0.00057805054708 0.00057470572952 
0.00057139590965 0.00056811946924 0.0005648768647 0.00056166644212 0.00055849671971 0.00055535211514 0.00055224018882 0.00054915977014 0.00054610982888 
0.00054308978141 0.00054009859689 0.00053713481121 0.00053419668284 0.0005312839691 0.00052839394903 0.00052552705125 0.00052268302409 0.00051986053229 
0.00051706022063 0.00051428233201 0.0005115258362 0.00050879182177 0.00050607970108 0.00050338823387 0.00067241504626 0.0006679250031 0.00066349672589 
0.00065912819627 0.00065482812841 0.00065057304111 0.00064637171527 0.00064222388805 0.00063812732091 0.00063408001268 0.00063008250244 0.00062613467009 
0.00062223273949 0.00061837724185 0.00061456852224 0.00061080455711 0.00060708460755 0.00060341197579 0.00059977883845 0.0005961881179 0.00059263786132 
0.00058912667588 0.00058565389901 0.00058221939599 0.00057882111166 0.00057545775816 0.00057212958289 0.0005688356497 0.00056557587336 0.00056234880768 
0.00055915535285 0.00055600163163 0.00055287224004 0.0005497745005 0.00054670836011 0.00054367201236 0.00054066442283 0.00053768479521 0.00053473184943 
0.00053180505168 0.00052890322234 0.00052602395527 0.00052316912838 0.00052033762859 0.00051752908464 0.00051474300779 0.0005119803022 0.00050923963215 
0.00050652074938 0.00050382232295 0.00067395119561 0.00066943089152 0.00066497373085 0.00066057636023 0.00065624816119 0.00065196555168 0.0006477374767 
0.00064356298565 0.00063944103264 0.00063536937764 0.00063134827612 0.00062737604125 0.00062345161731 0.00061957673721 0.00061574581324 0.00061195991555 
0.00060821940834 0.00060452289035 0.00060087117494 0.00059725835525 0.00059368688826 0.0005901548139 0.00058666078617 0.00058320423573 0.00057978520519 
0.00057640147555 0.0005730538319 0.00056974085322 0.00056646224604 0.0005632168253 0.00056000514043 0.00055682614416 0.00055368653242 0.0005505719663 
0.0005474875414 0.00054443380097 0.00054140930378 0.00053841348458 0.00053544513719 0.00053250385397 0.00052958803143 0.00052669705619 0.00052383005549 
0.00052098808326 0.00051817039994 0.00051537607798 0.00051260450625 0.0005098563963 0.00050713053372 0.00050442470954 0.00067573894012 0.00067118568207 
0.00066669709568 0.00066226866597 0.0006578995681 0.00065359727125 0.00064933999238 0.00064513759081 0.00064098762922 0.00063688966256 0.00063284314831 
0.000628845447 0.00062489630595 0.00062099470777 0.00061713984112 0.00061333230271 0.00060956732598 0.00060584644996 0.00060216845941 0.00059853496709 
0.00059493942166 0.00059138411443 0.00058786746336 0.00058438800254 0.00058094552738 0.00057754011641 0.0005741708766 0.00057083679045 0.0005675375161 
0.00056427227368 0.0005610411739 0.00055784255765 0.00055467670065 0.00055155103714 0.00054844872309 0.00054537626601 0.00054233447213 0.00053932192598 
0.00053633666303 0.00053337987482 0.00053044955341 0.00052754545074 0.00052466614696 0.00052181305578 0.0005189846886 0.0005161811449 0.00051340044132 
0.00051064320112 0.00050790987722 0.00050519703716 0.00067778246758 0.00067319170075 0.00066866851935 0.00066420720708 0.0006598054172 0.00065547096466 
0.0006511820567 0.00064694847426 0.00064276914815 0.00063864127725 0.00063456602551 0.00063054114047 0.00062656412032 0.00062263577963 0.00061875382392 
0.00061491834991 0.00061112708226 0.00060738127488 0.0006036768386 0.00060001413418 0.00059639559976 0.00059281447697 0.00058927270759 0.00058576886497 
0.00058230137895 0.00057887186593 0.00057547949628 0.00057212350245 0.00056880214971 0.00056551453656 0.00056226238851 0.00055904358666 0.00055585757132 
0.00055271207051 0.00054958994963 0.00054649909299 0.00054343887741 0.00054040753376 0.00053740663105 0.00053443279303 0.00053148759732 0.00052856939071 
0.00052567719116 0.00052281221923 0.00051997303329 0.00051715868796 0.00051436824804 0.00051160190007 0.0005088585955 0.00050613789835 0.00068007609182 
0.00067545374792 0.0006708908172 0.00066639362985 0.00066195640262 0.00065757718967 0.00065326517975 0.000648998032 0.00064478644288 0.0006406268923 
0.00063652054897 0.00063246506649 0.00062845822889 0.0006245003385 0.00062058896097 0.00061672426689 0.00061290374906 0.00060912751127 0.00060539600202 
0.00060170470632 0.0005980551548 0.00059444886687 0.00059087984254 0.00058734908034 0.00058385534566 0.00058039999746 0.00057698274711 0.00057360168653 
0.00057025675713 0.00056694657741 0.0005636712745 0.00056043087331 0.0005572237071 0.00055404907902 0.00055091480528 0.00054780383222 0.00054472353171 
0.00054167411578 0.00053865414574 0.00053566404982 0.0005327020113 0.0005297697159 0.00052686331538 0.00052398614697 0.00052113438535 0.00051830874416 
0.0005155076732 0.000512731527 0.00050997844741 0.00050724740589 0.00068262406355 0.00067796259804 0.00067336615589 0.00066882726771 0.00066435216406 
0.00065993577342 0.00065558842644 0.0006512861671 0.00064703951839 0.00064284587151 0.00063870543281 0.0006346168267 0.00063057795719 0.00062658765676 
0.00062264468595 0.00061874800568 0.00061489600225 0.00061108862592 0.00060732468305 0.00060360244983 0.00059992298877 0.0005962836438 0.00059268700523 
0.00058912816465 0.00058560682738 0.00058212426838 0.00057867850491 0.0005752716984 0.00057190086277 0.00056856580068 0.00056526723538 0.00056200330194 
0.00055877324873 0.00055557644288 0.00055241238332 0.00054928865779 0.00054618850062 0.00054311964139 0.00054008136486 0.0005370730149 0.00053409532029 
0.00053114650524 0.0005282257271 0.00052533438315 0.00052246994998 0.00051963232472 0.00051682001765 0.00051403217404 0.00051126813021 0.00050852632424 
0.00068542492946 0.00068072408298 0.00067608643613 0.00067151159057 0.00066699230059 0.00066253763918 0.00065814075797 0.00065381202179 0.00064952844031 
0.00064529815631 0.00064112223923 0.00063699811463 0.00063292421295 0.00062889930978 0.00062492188597 0.00062099118975 0.00061710441867 0.00061326301489 
0.00060946531951 0.00060570974033 0.00060199604591 0.00059832419692 0.0005946938036 0.00059110541543 0.00058755484112 0.00058404189622 0.00058056839145 
0.00057713233705 0.00057373485957 0.00057037498712 0.00056705031561 0.00056376172262 0.0005605072513 0.00055728760772 0.00055410061063 0.00055095461637 
0.00054783371816 0.00054474431644 0.00054168667861 0.00053866116049 0.00053566544749 0.00053270041712 0.00052976419671 0.00052685797829 0.00052398048638 
0.00052113017693 0.00051830560434 0.00051550570487 0.0005127301118 0.00050997650343 0.00068847911966 0.00068373549748 0.00067905555825 0.00067443813901 
0.00066988213182 0.00066538216502 0.00066094547413 0.00065657669381 0.00065225399401 0.00064798503608 0.00064377138461 0.00063960944466 0.00063549838231 
0.00063143594843 0.00062742142979 0.00062345401668 0.00061953157937 0.00061565317794 0.0006118187394 0.00060802703044 0.00060427803483 0.00060057097061 
0.00059690505492 0.00059328233745 0.00058970134065 0.00058615762448 0.00058265350449 0.00057918848291 0.00057576132338 0.00057237266392 0.00056902149061 
0.00056570631326 0.00056242648427 0.00055918247114 0.00055597219383 0.00055279621093 0.00054966076045 0.00054655056288 0.00054347374822 0.00054042876007 
0.00053741556933 0.00053443317205 0.00053148256148 0.0005285600501 0.00052566798904 0.00052280431018 0.00051996710458 0.0005171544243 0.00051436579059 
0.00051159924334 0.00069178573246 0.00068699646754 0.00068227227492 0.00067761149345 0.00067301216834 0.0006684743337 0.00066399119486 0.00065957009467 
0.00065521635614 0.0006509072936 0.00064665328886 0.00064245156834 0.00063830069411 0.0006341989742 0.00063014566416 0.00062613845366 0.00062217741177 
0.00061825979284 0.00061438613474 0.00061055658056 0.00060676949129 0.00060302479374 0.00059932245158 0.00059566172631 0.00059204375147 0.00058847022894 
0.00058493359268 0.00058143753597 0.00057797985125 0.00057456170326 0.00057118184817 0.00056783936788 0.00056453351682 0.00056126370102 0.00055802961902 
0.00055482987869 0.00055166471492 0.00054854121812 0.00054544396492 0.00054237943745 0.00053934829307 0.00053634921282 0.00053338180261 0.00053044427534 
0.00052753739226 0.00052465863187 0.00052180694893 0.00051898077936 0.00051617811475 0.00051339782529 0.00069534032579 0.00069050737412 0.00068573705386 
0.00068103038949 0.00067638662155 0.00067180456897 0.00066728197431 0.00066281367374 0.00065841759478 0.00065406551944 0.00064976926409 0.00064552577765 
0.00064133291192 0.00063718953245 0.00063309512182 0.0006290466703 0.00062504333008 0.00062108455745 0.00061716961415 0.00061329794965 0.00060947044669 
0.00060568637671 0.00060194553315 0.00059824710574 0.00059459152204 0.00059097874684 0.00058741252616 0.00058388268666 0.00058039419085 0.00057694422437 
0.00057353471938 0.00057016408527 0.0005668306899 0.00056353453963 0.0005602759844 0.00055705214959 0.00055386439828 0.00055071926372 0.00054760088108 
0.00054451705667 0.00054146710728 0.00053845055009 0.00053546696275 0.00053251296556 0.00052959107343 0.00052669721556 0.00052382997122 0.00052098776933 
0.00051817037322 0.00051537432775 0.0006991474904 0.00069426257064 0.00068944420637 0.00068469405176 0.00068000341269 0.00067537604598 0.00067080856368 
0.00066630008797 0.00066184522393 0.00065745975602 0.00065311984432 0.00064883222152 0.00064459649131 0.00064040908181 0.00063627051435 0.00063217805831 
0.00062812960865 0.00062412672697 0.00062016840683 0.00061625359366 0.00061238336924 0.00060855760492 0.00060477515355 0.00060103702874 0.00059734290835 
0.00059369342641 0.00059008961786 0.00058652545766 0.00058300450309 0.00057952322105 0.00057608232588 0.00057268185055 0.00056932061034 0.00056599752785 
0.00056271290471 0.0005594652434 0.00055625453728 0.000553079359 0.00054994801707 0.00054684452466 0.00054377602661 0.00054074180429 0.00053774121246 
0.00053477114482 0.0005318317342 0.00052892130512 0.00052603793134 0.00052317973939 0.00052034545429 0.00051753349334 0.00070319912051 0.00069826445804 
0.0006933971677 0.00068859529687 0.00068386095428 0.00067918675294 0.00067457360898 0.00067002025211 0.00066552397584 0.00066108900975 0.00065670277899 
0.00065236996482 0.00064808816356 0.00064385534553 0.00063967028718 0.00063553080315 0.00063143632592 0.00062738742376 0.0006233832139 0.00061942312783 
0.00061550760533 0.00061163743251 0.00060781230069 0.00060403244364 0.00060029793653 0.00059660977581 0.00059296577761 0.00058936895082 0.00058581221132 
0.00058229888063 0.00057882696848 0.00057539501997 0.00057200464371 0.00056865450788 0.00056534395992 0.00056207150236 0.00055883730246 0.00055564010786 
0.00055248021032 0.00054936464243 0.00054627751258 0.00054322537789 0.00054020625343 0.00053721913738 0.00053426323524 0.00053133587145 0.00052843564253 
0.00052556001571 0.00052270842956 0.00051987862954 0.00070749044448 0.0007025040119 0.00069758634368 0.00069273622851 0.00068795082512 0.00068323009924 
0.00067857256011 0.00067397203588 0.00066942976778 0.00066494139905 0.0006605149254 0.00065613519314 0.00065180584138 0.00064752494542 0.00064329163542 
0.00063910389563 0.00063496173514 0.00063086400611 0.0006268114629 0.00062280347849 0.00061884130899 0.00061492513998 0.00061105551826 0.00060723222752 
0.00060345641445 0.00059972762463 0.00059604428325 0.00059240757654 0.00058881828404 0.00058526954065 0.00058176548875 0.00057830406309 0.00057488319195 
0.00057150553288 0.00056816796464 0.00056487048639 0.00056161317959 0.00055839436729 0.00055521362482 0.00055207839361 0.0005489721882 0.00054590170781 
0.00054286532697 0.00053986037504 0.00053688650425 0.00053394168423 0.00053102283164 0.00052812885531 0.000525257687 0.0005224087307 0.00071201164505 
0.00070697254508 0.00070200452205 0.00069710359381 0.00069226999729 0.00068750064334 0.0006827928165 0.00067814844949 0.00067355845592 0.00066902326609 
0.00066455321504 0.00066012063393 0.00065574256442 0.00065141241001 0.00064712823065 0.0006428904602 0.0006386979867 0.0006345499779 0.00063044704373 
0.00062639007354 0.0006223796441 0.00061841650159 0.00061449999227 0.00061063286854 0.00060681353089 0.00060304302106 0.00059931978266 0.00059564421511 
0.00059201535388 0.00058843459768 0.00058489691853 0.00058140343379 0.00057795395912 0.00057454704601 0.0005711829914 0.00056786075648 0.0005645795047 
0.00056133928117 0.00055813820759 0.00055497594015 0.00055185854466 0.00054876973953 0.00054571476126 0.00054269164565 0.00053969918206 0.00053673543859 