# vtk DataFile Version 5.1
vtk output
ASCII
DATASET STRUCTURED_POINTS
DIMENSIONS 26 14 26
SPACING 0.08 0.08 0.08
ORIGIN 2.7 -0.52 0
POINT_DATA 9464
FIELD FieldData 1
potential 1 9464 double
0.0014075291664 0.0013713549928 0.0013367443526 0.0013036081877 0.0012718663688 0.0012414422102 0.0012122588137 0.00118424708 0.0011573375022 
0.001131461188 0.0011065504323 0.0010825415842 0.0010593615088 0.0010369337838 0.0010151851098 0.00099402979431 0.00097337585672 0.00095312115266 
0.00093316351914 0.00091338498143 0.00089366509164 0.00087388195673 0.0008539185718 0.00083367152115 0.00081306035286 0.00079203497761 0.001391642431 
0.0013505910173 0.0013111468823 0.0012732196408 0.0012367307098 0.0012016001885 0.0011677542702 0.0011351227377 0.0011036359909 0.0010732266689 
0.0010438309055 0.0010153805414 0.00098781266353 0.00096105692066 0.00093503994477 0.00090968706157 0.00088491926129 0.00086065025719 0.00083678543898 
0.00081323804619 0.00078990681734 0.00076669879175 0.00074352339436 0.00072030276271 0.00069697581985 0.00067350215236 0.0014067047007 0.0013615887299 
0.0013181085996 0.0012761783342 0.0012357100232 0.0011966277492 0.0011588587001 0.0011223300513 0.0010869779539 0.0010527358738 0.0010195392434 
0.0009873298134 0.00095604016719 0.0009256141896 0.00089598175069 0.00086707808566 0.00083883119602 0.00081117194378 0.00078402404771 0.00075730719373 
0.00073094702129 0.00070486952932 0.0006790046563 0.00065329248301 0.00062768422477 0.00060214789111 0.0014755742707 0.0014271270533 0.0013803291661 
0.0013350909302 0.0012913316926 0.0012489675972 0.0012079302764 0.0011681516433 0.0011295622363 0.0010921047144 0.0010557170084 0.0010203429182 
0.00098592526214 0.0009524055028 0.00091972998035 0.00088783851767 0.00085667019052 0.00082616777215 0.00079626878234 0.00076690904259 0.00073802561249 
0.00070956469244 0.00068146675901 0.00065369012942 0.00062619520932 0.00059895507038 0.0015694253199 0.0015183436738 0.0014689099577 0.0014210303325 
0.0013746268584 0.001329616416 0.0012859320437 0.0012435063676 0.0012022785211 0.0011621864045 0.0011231795231 0.0010852013095 0.0010482064784 
0.0010121392968 0.00097695511772 0.00094260300663 0.00090903412088 0.00087619745439 0.00084404615404 0.0008125308519 0.00078159902335 0.00075121020896 
0.00072132038453 0.00069189390991 0.00066289948937 0.00063431821157 0.0016911180586 0.0016381496942 0.0015868001255 0.001536992575 0.0014886397481 
0.0014416683977 0.0013960058595 0.0013515909468 0.0013083651614 0.0012662732513 0.0012252688023 0.0011853008389 0.0011463321853 0.0011083160313 
0.0010712118689 0.0010349809492 0.00099958471813 0.00096498448833 0.00093114017796 0.00089801815927 0.00086557923002 0.00083378760592 0.00080261692129 
0.00077203712433 0.00074202701756 0.00071256517636 0.0018956645718 0.001842829926 0.0017914380773 0.0017414414456 0.00169277088 0.0016453680036 
0.0015991775726 0.0015541424122 0.0015102173696 0.0014673597178 0.0014255253152 0.0013846847357 0.0013448000519 0.0013058439463 0.0012677841068 
0.0012305942381 0.0011942445901 0.0011587117012 0.0011239671071 0.0010899885472 0.0010567521385 0.0010242322199 0.00099240748329 0.00096126383309 
0.00093078425061 0.00090095358691 0.0020740354395 0.0020182785789 0.00196403775 0.0019112328173 0.0018597802714 0.0018096114894 0.0017606623794 
0.0017128803648 0.0016662131119 0.0016206211759 0.0015760687448 0.0015325210497 0.0014899552798 0.0014483477307 0.0014076756751 0.0013679218011 
0.0013290603189 0.0012910801095 0.0012539662027 0.0012177002322 0.0011822709344 0.0011476645387 0.0011138640269 0.0010808635703 0.0010486515125 
0.0010172172322 0.002154737329 0.002098115945 0.002042936563 0.0019891070889 0.0019365576618 0.0018852175776 0.0018350303736 0.0017859478853 
0.0017379244471 0.0016909290649 0.0016449339494 0.0015999129475 0.001555856441 0.0015127445799 0.0014705721049 0.0014293311364 0.0013890056113 
0.0013495981141 0.0013111023956 0.0012735160738 0.0012368326909 0.0012010540037 0.0011661724173 0.0011321848386 0.001099088075 0.0010668787614 
0.0021837466899 0.0021269813493 0.0020715540027 0.0020173707649 0.0019643683997 0.0019124807503 0.0018616515482 0.0018118411549 0.0017630197539 
0.0017151580739 0.0016682403027 0.0016222552516 0.0015771921989 0.0015330567068 0.0014898491334 0.0014475768004 0.0014062361099 0.0013658367107 
0.0013263898801 0.0012879042976 0.0012503854464 0.0012138445448 0.0011782873016 0.0011437174346 0.0011101332628 0.0010775424977 0.0021685723652 
0.0021123311107 0.0020572933169 0.0020033666422 0.0019504942211 0.0018986107784 0.001847673487 0.0017976483711 0.0017485126655 0.001700254479 
0.0016528658967 0.0016063475692 0.0015607096515 0.0015159544444 0.0014721104962 0.0014291943378 0.0013872153394 0.0013462004379 0.0013061680896 
0.0012671442585 0.0012291498694 0.0011922016419 0.0011563217239 0.0011215213656 0.0010878052485 0.0010551872456 0.0021096038981 0.0020545767014 
0.0020005761857 0.0019475230378 0.0018953642885 0.0018440430245 0.0017935255296 0.0017437885287 0.0016948230528 0.0016466272634 0.0015992083953 
0.0015525831526 0.0015067752558 0.0014618044117 0.0014177086505 0.0013745203612 0.0013322782798 0.0012910077966 0.0012507498408 0.0012115448732 
0.0011734263085 0.0011364272565 0.0011005818679 0.0010659101978 0.0010324307421 0.0010001539639 0.0020037600659 0.0019506587731 0.0018983786021 
0.0018468554972 0.0017960221986 0.0017458471237 0.0016963018201 0.0016473788619 0.0015990819624 0.0015514269975 0.0015044395767 0.0014581495818 
0.001412599015 0.0013678289339 0.0013238807719 0.0012808194042 0.0012386962072 0.0011975520591 0.0011574479433 0.0011184367496 0.0010805742125 
0.0010439099695 0.001008487799 0.00097434507595 0.00094150944931 0.00090999764109 0.0018386377732 0.0017882622442 0.0017384584423 0.0016891694526 
0.0016403383454 0.001591948069 0.0015439795541 0.0014964449916 0.0014493635968 0.0014027723688 0.0013567167057 0.0013112487276 0.0012664256393 
0.0012223110911 0.0011789663965 0.0011364687243 0.0010948990246 0.0010543114828 0.0010147893495 0.00097640507629 0.00093923776784 0.00090335291509 
0.00086881477265 0.00083567957844 0.00080398431575 0.00077375656256 0.001457340254 0.0014207373898 0.0013857049505 0.0013521538212 0.0013200038163 
0.0012891781828 0.0012595999605 0.001231199983 0.0012039086836 0.0011776571247 0.0011523775824 0.0011280064171 0.0011044705601 0.001081693717 
0.0010596028114 0.001038112483 0.0010171312264 0.00099655756584 0.00097629021853 0.00095621235303 0.00093620491743 0.00091614761518 0.00089592508974 
0.00087543538439 0.00085459903505 0.00083336624152 0.0015353997869 0.0014939894268 0.0014541923645 0.0014159181495 0.0013790881306 0.0013436223393 
0.0013094468953 0.0012764915187 0.0012446865468 0.0012139645703 0.0011842616957 0.0011555097674 0.0011276459107 0.0011005998708 0.0010742984368 
0.0010486671904 0.0010236274651 0.00099909344683 0.00097497113632 0.00095117452741 0.00092760324283 0.00090416528293 0.00088077102379 0.00085734341339 
0.00083382190679 0.00081016624079 0.0015966027829 0.0015511699915 0.0015073786247 0.0014651426235 0.0014243739978 0.0013849967488 0.0013469379796 
0.001310124794 0.0012744932664 0.0012399768022 0.0012065107889 0.0011740369555 0.0011424878986 0.0011118075476 0.0010819258772 0.0010527782898 
0.0010242930198 0.00099640124222 0.0009690270784 0.00094209070066 0.00091551829332 0.00088923643582 0.00086317561485 0.00083727636458 0.0008114901851 
0.00078578514762 0.0016725861196 0.0016238420532 0.0015767526982 0.0015312282756 0.0014871880384 0.0014445480279 0.0014032397798 0.0013631951078 
0.0013243444657 0.0012866307838 0.0012499908466 0.0012143694795 0.001179709114 0.0011459512166 0.0011130421642 0.0010809218719 0.0010495295476 
0.0010188081498 0.00098869544059 0.00095912753278 0.00093004180879 0.00090138479754 0.00087309728249 0.00084513782111 0.000817466955 0.00079005775907 
0.001765235326 0.0017138469655 0.0016641117148 0.0016159356183 0.0015692406169 0.0015239434687 0.0014799770884 0.0014372739813 0.0013957731577 
0.00135541241 0.0013161411363 0.0012779026787 0.0012406516775 0.0012043323556 0.0011689000361 0.0011343038008 0.001100494846 0.0010674222457 
0.0010350392585 0.0010032966579 0.0009721420814 0.00094153522784 0.00091143221636 0.00088179750706 0.00085259983871 0.000823820258 0.0018761852556 
0.0018228010694 0.0017710394439 0.0017208234363 0.001672065582 0.0016246919657 0.0015786312269 0.0015338205136 0.0014902016413 0.0014477191779 
0.001406326538 0.0013659725809 0.0013266199751 0.0012882217785 0.0012507373604 0.0012141278809 0.0011783547075 0.0011433791033 0.0011091609585 
0.001075666631 0.0010428569198 0.0010106960395 0.00097915760829 0.00094821153618 0.0009178365483 0.00088801021822 0.0020049628992 0.0019500834657 
0.0018967861198 0.0018449944721 0.0017946207342 0.0017455934345 0.0016978475962 0.0016513185049 0.0016059549792 0.0015617093528 0.0015185333642 
0.0014763940772 0.0014352505593 0.0013950728731 0.0013558264159 0.0013174828652 0.0012800106845 0.0012433848067 0.0012075753348 0.0011725587139 
0.0011383098877 0.0011048021232 0.0010720131192 0.0010399278477 0.0010085284087 0.00097779880817 0.0021195680101 0.0020634116966 0.0020087798767 
0.0019555922064 0.0019037649608 0.0018532292888 0.0018039208612 0.0017557868565 0.0017087746908 0.0016628446667 0.0016179607188 0.0015740878338 
0.0015312029567 0.0014892821469 0.0014483024522 0.0014082463417 0.0013690878324 0.0013308156072 0.0012934145141 0.0012568660178 0.0012211586908 
0.0011862786063 0.0011522085968 0.0011189426797 0.0010864690477 0.0010547769246 0.0021896622839 0.0021327456828 0.0020772787204 0.002023169093 
0.001970346712 0.0019187406258 0.0018682941144 0.0018189587412 0.0017706885604 0.0017234522913 0.0016772218541 0.0016319708112 0.001587689256 
0.0015443570571 0.0015019686752 0.0014605159583 0.0014199825895 0.0013803708875 0.0013416743543 0.0013038903624 0.0012670122206 0.0012310414565 
0.0011959702625 0.0011617953426 0.0011285133132 0.0010961206341 0.0022158309738 0.0021587862713 0.0021030877121 0.0020486411702 0.0019953831395 
0.0019432471739 0.0018921766931 0.0018421317273 0.0017930821204 0.0017449982499 0.0016978639469 0.0016516676668 0.0016063983357 0.0015620611519 
0.0015186561223 0.0014761902108 0.0014346594787 0.0013940732247 0.0013544423765 0.0013157752705 0.0012780770563 0.001241358627 0.0012056253861 
0.0011708807723 0.0011371228543 0.0011043591232 0.0022006913717 0.0021441625799 0.0020888462325 0.002034649706 0.0019815158106 0.0019293789195 
0.0018781958243 0.0018279321469 0.0017785646985 0.0017300811555 0.0016824731678 0.0016357409426 0.001589894187 0.0015449347648 0.0015008907712 
0.0014577782861 0.0014156062369 0.0013744010962 0.0013341808616 0.0012949710286 0.0012567920599 0.0012196602279 0.0011835972535 0.0011486140045 
0.001114714828 0.001081913317 0.0021436659357 0.0020883142929 0.0020340141343 0.0019806710111 0.0019282315614 0.0018766384364 0.001825857448 
0.0017758648199 0.0017266510585 0.0016782137946 0.0016305597151 0.0015837049769 0.00153767275 0.0014924821944 0.0014481707786 0.0014047703286 
0.001362318999 0.0013208415962 0.0012803784328 0.0012409693443 0.0012026471126 0.0011654442222 0.0011293942278 0.0010945166496 0.0010608295232 
0.0010283429475 0.0020405820245 0.0019871352741 0.0019345208094 0.0018826741484 0.0018315275459 0.0017810488705 0.0017312090719 0.0016820000922 
0.0016334249842 0.0015854989557 0.0015382469619 0.0014916981182 0.0014458938267 0.001400874429 0.0013566806737 0.0013133767163 0.0012710131967 
0.0012296302326 0.0011892879914 0.0011500385092 0.0011119366395 0.0010750311267 0.0010393648908 0.0010049745219 0.00097188700986 0.00094011856801 
0.0018812048722 0.0018304300379 0.0017802392579 0.0017305750727 0.0016813797224 0.0016326360388 0.0015843235767 0.0015364539046 0.0014890453918 
0.0014421341708 0.0013957647711 0.0013499884464 0.0013048615355 0.0012604468223 0.0012168047455 0.0011740115625 0.0011321472669 0.0010912650396 
0.0010514470209 0.0010127644689 0.00097529520323 0.0009391033897 0.00090425196254 0.00087079593999 0.00083877128063 0.00080820478592 0.0015737988395 
0.0015359505566 0.0014996933047 0.0014649358217 0.0014315997468 0.0013996074713 0.0013688818584 0.0013393535485 0.0013109528018 0.0012836105531 
0.0012572590254 0.0012318346148 0.0012072644489 0.0011834726102 0.0011603866738 0.0011379222474 0.0011159892045 0.0010944880008 0.0010733198822 
0.0010523712841 0.0010315271192 0.0010106715987 0.00098969399848 0.0009684964513 0.00094700227153 0.00092516250348 0.0016790804964 0.0016366194951 
0.0015957894403 0.0015564996903 0.0015186713923 0.0014822243807 0.0014470845577 0.00141318146 0.0013804452404 0.0013488083476 0.0013182068077 
0.0012885724747 0.0012598425868 0.0012319471692 0.0012048134687 0.001178367813 0.0011525325307 0.0011272231749 0.0011023475081 0.00107782169 
0.0010535478728 0.0010294367947 0.0010054015335 0.00098136733652 0.00095727517083 0.00093308521122 0.0017665073946 0.0017201447626 0.0016754400736 
0.0016323070213 0.0015906573806 0.001550414911 0.0015115064643 0.0014738589332 0.001437408164 0.0014020873831 0.0013678318434 0.0013345832087 
0.0013022741114 0.0012708486095 0.0012402369808 0.0012103751133 0.0011811919162 0.0011526194706 0.0011245830606 0.0010970042607 0.0010698108201 
0.0010429309828 0.0010162968033 0.00098985011103 0.00096354322025 0.000937344381 0.0018517969816 0.0018021870001 0.0017542478057 0.0017078889441 
0.0016630305274 0.0016195871554 0.0015774904576 0.0015366719523 0.0014970618438 0.0014586028013 0.0014212314054 0.0013848923265 0.0013495279124 
0.0013150796382 0.0012814939862 0.0012487111377 0.0012166706832 0.0011853161174 0.0011545859034 0.0011244169948 0.001094747705 0.0010655255078 
0.0010366920687 0.0010082066342 0.00098003013547 0.00095213545286 0.0019415353877 0.0018892861152 0.0018387059499 0.0017897005968 0.001742191651 
0.001696095515 0.0016513447443 0.0016078714933 0.0015656144146 0.0015245109899 0.0014845103057 0.0014455554437 0.0014076008301 0.0013705905637 
0.0013344798841 0.0012992179266 0.0012647560047 0.0012310434321 0.0011980337968 0.0011656782882 0.0011339250203 0.0011027341552 0.0010720622331 
0.0010418740099 0.0010121383307 0.00098283612829 0.0020364994573 0.0019821759032 0.001929491022 0.0018783674718 0.0018287173793 0.0017804664099 
0.0017335427662 0.0016878831595 0.0016434289713 0.0016001243394 0.0015579222781 0.001516771265 0.0014766336182 0.0014374621175 0.0013992158836 
0.0013618559236 0.0013253434915 0.0012896398237 0.0012547048498 0.0012205050104 0.0011870012335 0.0011541578615 0.0011219485972 0.0010903433767 
0.00105932084 0.0010288583392 0.002131417324 0.0020755006401 0.0020211844897 0.0019683920441 0.0019170350601 0.0018670415868 0.0018183461506 
0.0017708835272 0.0017246020124 0.001679453418 0.0016353889923 0.0015923752848 0.0015503709163 0.0015093455078 0.0014692640694 0.0014300979169 
0.0013918152395 0.0013543907043 0.0013177942146 0.0012820020425 0.0012469889884 0.001212728192 0.0011791972072 0.001146380823 0.0011142609158 
0.0010828212026 0.0022126325801 0.0021555550707 0.0021000230217 0.0020459548521 0.0019932683563 0.0019418919966 0.001891761506 0.0018428234071 
0.0017950244431 0.0017483242336 0.0017026860275 0.0016580741507 0.0016144648872 0.0015718336569 0.0015301568999 0.0014894164948 0.0014495859437 
0.001410653398 0.0013726032219 0.0013354164333 0.0012990823589 0.0012635831001 0.0012289046601 0.0011950394635 0.0011619753071 0.0011297010055 
0.0022665231046 0.0022087739591 0.0021524966943 0.0020975983916 0.0020440082928 0.0019916547192 0.0019404801924 0.001890435476 0.0018414737974 
0.001793563032 0.001746674925 0.001700780155 0.00165587001 0.0016119228479 0.0015689324645 0.0015268894213 0.0014857771386 0.001445596992 
0.001406341752 0.0013680080698 0.0013305885701 0.0012940841089 0.0012584862567 0.001223791124 0.0011899947686 0.0011570931396 0.0022872202956 
0.0022293570761 0.0021728642136 0.002117646868 0.0020636407345 0.0020107785093 0.0019590026886 0.0019082723219 0.0018585562451 0.0018098237964 
0.0017620577895 0.0017152455027 0.0016693749404 0.0016244501823 0.0015804701953 0.0015374413841 0.0014953573018 0.0014542277145 0.0014140620181 
0.001374867539 0.0013366484461 0.001299414677 0.0012631707407 0.0012279192573 0.0011936575621 0.0011603925005 0.0022728482885 0.0022154699115 
0.0021593307862 0.0021043374539 0.0020504317658 0.0019975470543 0.0019456389834 0.0018946719832 0.0018446216115 0.0017954742639 0.0017472203026 
0.0016998586215 0.0016533976014 0.0016078378137 0.0015632060128 0.0015195169466 0.0014767782365 0.0014350149868 0.0013942438474 0.0013544889398 
0.0013157693725 0.0012781001121 0.0012415016345 0.001205983692 0.0011715496596 0.0011382123143 0.0022217081534 0.0021654408973 0.0021102550553 
0.0020560551832 0.002002786762 0.0019503911576 0.0018988327906 0.0018480864044 0.0017981409581 0.0017489925154 0.0017006461457 0.0016531163895 
0.0016064250799 0.0015605889032 0.0015156445327 0.0014716218507 0.0014285573031 0.0013864739852 0.0013454104064 0.0013054045803 0.0012664874474 
0.0012286896808 0.0011920431112 0.0011565657164 0.0011222742066 0.0010891776349 0.0021308379981 0.0020763723967 0.0020227726073 0.001969972899 
0.0019179041043 0.0018665324826 0.0018158272305 0.0017657784339 0.0017163872082 0.0016676667981 0.0016196401585 0.0015723343962 0.0015257889097 
0.0014800420268 0.0014351324869 0.0013911223438 0.0013480600885 0.0013059836294 0.0012649507694 0.0012250110809 0.0011862168842 0.0011486143669 
0.0011122440022 0.0010771401516 0.0010433279435 0.0010108221642 0.0019958415149 0.0019438956399 0.0018925711508 0.0018418090722 0.0017915515174 
0.0017417737903 0.0016924587635 0.0016436137405 0.0015952546352 0.0015474150639 0.0015001370359 0.0014534692937 0.0014074656684 0.0013621864396 
0.0013176895235 0.0012740485547 0.0012313407823 0.0011896165184 0.0011489547416 0.0011094233289 0.0010710964792 0.001034034646 0.0009982970885 
0.00096393545579 0.00093098290686 0.00089946415869 0.0017263416679 0.0016865388727 0.0016483582394 0.0016117082762 0.0015765103579 0.0015426869936 
0.0015101595364 0.0014788595641 0.0014487166561 0.0014196615507 0.0013916263933 0.0013645476421 0.0013383527415 0.0013129663742 0.0012883171471 
0.0012643221887 0.0012408935222 0.0012179345928 0.0011953505181 0.0011730326863 0.0011508719526 0.0011287588618 0.0011065905535 0.0010842740914 
0.0010617372317 0.0010389323447 0.0018382523103 0.0017941197353 0.0017516462906 0.0017107410268 0.0016713247686 0.0016333180853 0.0015966433731 
0.0015612330312 0.0015270158633 0.0014939240886 0.0014618936028 0.0014308562725 0.0014007495113 0.0013715044832 0.001343047058 0.0013153068293 
0.0012882069779 0.0012616651781 0.0012355919072 0.0012099066387 0.0011845153659 0.0011593329541 0.001134276532 0.0011092747848 0.0010842709483 
0.001059225884 0.0019349015512 0.0018870503269 0.0018408838209 0.0017963153239 0.0017532562283 0.0017116298999 0.0016713627819 0.0016323814225 
0.0015946212962 0.0015580153354 0.0015224985713 0.0014880125553 0.0014544899697 0.001421875066 0.0013900985938 0.0013590971988 0.0013288008403 
0.0012991428994 0.0012700507747 0.001241447883 0.0012132644278 0.0011854313303 0.0011578828847 0.0011305629279 0.0011034250083 0.0010764376519 
0.0020240311442 0.0019730410531 0.0019237481428 0.0018760614818 0.0018299007082 0.0017851799451 0.0017418303489 0.0016997829557 0.0016589675614 
0.0016193264073 0.0015807957381 0.0015433199656 0.0015068412939 0.0014713011999 0.0014366463204 0.0014028172472 0.0013697541609 0.0013374013842 
0.0013056984632 0.0012745836489 0.0012439966851 0.0012138864922 0.0011841960824 0.0011548857503 0.001125917016 0.0010972627674 0.002110018605 
0.0020564361593 0.0020045496114 0.001954264698 0.001905500703 0.0018581751993 0.0018122194085 0.0017675654149 0.0017241507881 0.0016819126702 
0.0016407996392 0.0016007543505 0.0015617308774 0.0015236731107 0.0014865361443 0.0014502691869 0.0014148237245 0.001380149435 0.0013462004109 
0.0013129284798 0.001280282487 0.0012482233021 0.0012167081072 0.0011857021056 0.0011551742953 0.0011251054233 0.0021932151117 0.0021375576236 
0.0020835668032 0.0020311646607 0.001980262741 0.0019307857792 0.0018826615162 0.0018358258697 0.0017902203729 0.0017457858877 0.0017024773495 
0.0016602417546 0.0016190408458 0.0015788269458 0.0015395587628 0.0015011970451 0.0014637028492 0.0014270373515 0.0013911605265 0.0013560389254 
0.0013216336618 0.0012879092596 0.001254839536 0.00122239445 0.0011905524925 0.0011592906532 0.0022699243529 0.002212666488 0.0021570393778 
0.0021029654408 0.0020503556548 0.0019991372512 0.0019492439091 0.0019006095363 0.0018531815386 0.0018069108397 0.001761747851 0.0017176582455 
0.0016745998769 0.0016325416071 0.0015914477752 0.0015512890661 0.0015120331806 0.0014736543091 0.0014361219853 0.0013994121548 0.0013634993396 
0.0013283564273 0.0012939606942 0.0012602965919 0.0012273455973 0.0011950909285 0.0023331484466 0.0022747539957 0.0022179380453 0.0021626181333 
0.0021087111373 0.0020561445631 0.0020048530458 0.0019547821121 0.0019058773873 0.00185809738 0.001811404224 0.0017657611695 0.0017211434246 
0.0016775253682 0.0016348824513 0.0015931955909 0.0015524374516 0.0015125953201 0.0014736527737 0.0014355901048 0.001398395933 0.0013620517082 
0.0013265427894 0.0012918609506 0.0012579933517 0.0012249281504 0.0023755577453 0.0023165110583 0.002258973125 0.0022028488563 0.0021480667938 
0.0020945540752 0.0020422519875 0.001991109991 0.0019410799669 0.0018921284152 0.0018442256739 0.0017973410874 0.0017514640326 0.0017065730026 
0.0016626588451 0.0016197116871 0.0015777133555 0.0015366634006 0.001496555453 0.0014573829516 0.0014191380986 0.0013818206673 0.0013454212282 
0.0013099349374 0.0012753569549 0.0012416824094 0.0023921656325 0.0023329867823 0.0022752180414 0.0022187634063 0.0021635572711 0.0021095309354 
0.0020566253915 0.0020047980908 0.0019540162275 0.0019042474458 0.0018554728332 0.0018076779536 0.0017608491055 0.0017149886143 0.0016700937545 
0.0016261692005 0.0015832068965 0.0015412149118 0.0015002009849 0.0014601708163 0.0014211270015 0.0013830791993 0.0013460267351 0.0013099746765 
0.0012749179374 0.0012408623304 0.0023802083006 0.0023214521689 0.0022639794989 0.0022076954763 0.0021525403944 0.0020984458961 0.0020453658143 
0.0019932626435 0.0019421099045 0.0018918919118 0.0018425969338 0.0017942218913 0.0017467679204 0.0017002477926 0.001654672112 0.001610058074 
0.0015664111931 0.0015237523296 0.0014821020952 0.0014414762935 0.001401893919 0.0013633678689 0.00132591665 0.0012895482557 0.0012542645287 
0.0012200769591 0.0023379793487 0.0022802271239 0.0022236058486 0.0021680184793 0.0021134086297 0.0020597155904 0.002006901535 0.0019549388152 
0.0019038138883 0.0018535202842 0.0018040604549 0.0017554463264 0.0017076971014 0.0016608268729 0.0016148696316 0.0015698525976 0.0015258094765 
0.0014827609438 0.0014407417129 0.0013997878476 0.0013599270855 0.0013211872673 0.00128359754 0.0012471734913 0.0012119297827 0.0011778738549 
0.0022642193115 0.0022081094037 0.0021529211307 0.0020985867685 0.0020450343726 0.0019922291464 0.0019401359632 0.0018887424425 0.0018380465938 
0.0017880581119 0.0017387979514 0.0016902887897 0.0016425672171 0.0015956683383 0.0015496276851 0.001504503964 0.0014603422603 0.0014171770022 
0.0013750622886 0.0013340438616 0.0012941701337 0.0012554833765 0.0012180203445 0.0011818120337 0.0011468807832 0.0011132392601 0.0021587193584 
0.002104901187 0.0020517683139 0.0019992591128 0.0019473111589 0.001895897354 0.0018449970291 0.0017946137215 0.0017447594728 0.0016954639292 
0.001646765125 0.0015987078451 0.0015513419742 0.0015047238603 0.0014589074726 0.0014139623562 0.0013699615054 0.0013269508209 0.0012850044508 
0.001244185158 0.0012045617161 0.0011661890817 0.0011291211273 0.0010934046231 0.0010590687385 0.0010261352895 0.0019009973336 0.0018586752557 
0.0018180096026 0.0017789172686 0.001741316395 0.0017051291026 0.0016702764193 0.0016366895113 0.0016042976199 0.0015730303791 0.0015428223942 
0.0015136076516 0.0014853144755 0.0014578694954 0.0014312014858 0.0014052299127 0.0013798695253 0.001355027526 0.0013306138251 0.0013065258648 
0.0012826616525 0.001258919671 0.0012352050361 0.0012114318048 0.0011875325363 0.0011634612824 0.0020109025874 0.0019645743398 0.0019199424742 
0.0018769156297 0.0018354141983 0.0017953583062 0.0017566699394 0.0017192810462 0.001683120051 0.0016481188635 0.0016142132002 0.001581334936 
0.0015494217023 0.0015184034815 0.0014882122953 0.0014587740013 0.0014300154892 0.0014018571063 0.001374212721 0.001347005919 0.0013201473508 
0.0012935569297 0.0012671566441 0.0012408792995 0.0012146708624 0.001188493065 0.0021083717892 0.0020585459874 0.0020104409276 0.0019639693526 
0.0019190421351 0.0018755821069 0.0018335151548 0.0017927673602 0.00175327369 0.0017149666739 0.0016777810345 0.0016416581581 0.001606530775 
0.0015723433675 0.0015390272789 0.0015065200974 0.0014747531621 0.0014436615691 0.0014131749892 0.0013832195304 0.0013537283566 0.0013246355092 
0.0012958781895 0.001267402622 0.0012391638569 0.0012111307611 0.0021969498699 0.0021441269832 0.0020930372375 0.0020435890389 0.0019957014118 
0.0019492877954 0.0019042787117 0.0018606045375 0.0018181945103 0.0017769902826 0.0017369270538 0.0016979506135 0.0016599994576 0.0016230208775 
0.001586956425 0.0015517489522 0.0015173393711 0.0014836730362 0.0014506908461 0.0014183326686 0.0013865400219 0.0013552636101 0.0013244481003 
0.0012940550664 0.0012640467378 0.0012343959932 0.0022788299488 0.0022234953968 0.002169892963 0.0021179295778 0.0020675218106 0.0020185870914 
0.0019710558487 0.0019248593724 0.0018799347271 0.001836217519 0.0017936567838 0.0017521933406 0.0017117817333 0.0016723652273 0.0016338986894 
0.0015963313924 0.0015596150079 0.0015236995437 0.0014885400154 0.0014540887163 0.0014202954919 0.0013871220703 0.0013545264096 0.0013224742429 
0.0012909347269 0.0012598883452 0.0023539963353 0.0022966236759 0.002240956404 0.0021869156414 0.0021344120223 0.0020833693504 0.0020337143911 
0.0019853820891 0.0019383129916 0.0018924470488 0.0018477382458 0.0018041330224 0.0017615914629 0.0017200661108 0.0016795148024 0.0016398979076 
0.0016011761781 0.0015633106677 0.0015262613631 0.0014899949107 0.0014544726171 0.0014196591939 0.0013855285578 0.0013520506551 0.0013192037451 
0.0012869643164 0.0024201383654 0.0023611786593 0.0023038911891 0.0022481973386 0.0021940070173 0.0021412463344 0.0020898478075 0.0020397441531 
0.0019908815569 0.0019432097226 0.0018966779118 0.0018512505906 0.0018068848031 0.0017635475014 0.0017212031854 0.0016798210626 0.0016393682622 
0.0015998182981 0.0015611401713 0.00152330935 0.0014862999439 0.0014500844656 0.0014146397839 0.0013799498672 0.0013459956346 0.0013127596196 
0.0024732987938 0.0024132041977 0.0023547331571 0.0022978020058 0.0022423263693 0.0021882324162 0.0021354533808 0.0020839333334 0.002033616406 
0.0019844595904 0.0019364234975 0.0018894699074 0.001843572845 0.0017987046062 0.0017548395363 0.0017119556072 0.0016700299955 0.0016290429374 
0.0015889788856 0.0015498171374 0.0015115453435 0.0014741440619 0.0014375977721 0.001401897362 0.0013670291277 0.0013329803386 0.0025091735454 
0.0024484092776 0.0023892031345 0.0023314586694 0.0022751029388 0.0022200614713 0.0021662739 0.0021136878406 0.0020622538646 0.0020119352304 
0.0019627017075 0.0019145203767 0.0018673786871 0.0018212532953 0.0017761332308 0.0017320068427 0.0016888543122 0.0016466734753 0.0016054563423 
0.0015651930226 0.0015258795561 0.0014875089355 0.0014500721689 0.0014135631366 0.001377975745 0.0013433041824 0.0025243130205 0.0024633661053 
0.0024038838988 0.0023457688195 0.0022889534965 0.0022333670655 0.0021789492962 0.0021256546795 0.0020734483842 0.0020222958301 0.0019721757377 
0.001923071345 0.0018749666375 0.0018278615609 0.0017817510988 0.0017366374767 0.0016925108008 0.001649376531 0.0016072402954 0.0015661056266 
0.0015259730297 0.0014868501302 0.0014487343839 0.001411629116 0.0013755277018 0.0013404345872 0.0025165028389 0.0024558860421 0.0023966136139 
0.0023385889098 0.00228175012 0.0022260266079 0.0021713697404 0.0021177393844 0.0020651063492 0.0020134520547 0.0019627620174 0.0019130302426 
0.0018642549818 0.0018164461131 0.0017696113622 0.0017237650078 0.0016789102998 0.0016350635016 0.0015922439986 0.0015504641666 0.0015097401629 
0.0014700821814 0.0014315061641 0.0013940178211 0.0013576170062 0.0013223135332 0.0024846528237 0.0024248982484 0.0023663431704 0.0023088883305 
0.0022524748401 0.0021970392093 0.0021425405988 0.0020889481511 0.0020362447134 0.0019844211895 0.0019334756837 0.0018834169308 0.001834260577 
0.0017860172341 0.0017387172973 0.0016923840779 0.0016470487059 0.0016027271853 0.0015594508261 0.0015172519378 0.001476154519 0.0014361827732 
0.00139736242 0.0013597060111 0.0013232256084 0.0012879266086 0.0024287909244 0.0023704803142 0.0023131660303 0.0022567817072 0.0022012512386 
0.0021465366022 0.0020925987592 0.0020394214409 0.0019869985231 0.0019353355125 0.0018844490788 0.0018343576123 0.0017850934221 0.0017366873238 
0.0016891705945 0.0016425975142 0.001597008693 0.0015524340206 0.0015089228256 0.0014665159314 0.0014252568098 0.0013851828219 0.0013463261028 
0.0013087134966 0.0012723639249 0.0012372874718 0.0023507361571 0.0022944413121 0.0022389201373 0.0021841078313 0.0021299382705 0.002076380074 
0.0020234080129 0.0019710204837 0.0019192246601 0.0018680449055 0.0018175140317 0.001767671498 0.001718562383 0.0016702375054 0.0016227458061 
0.0015761515126 0.0015305221281 0.0014858979252 0.0014423469457 0.0013999262642 0.0013586959275 0.0013187062886 0.0012800040907 0.0012426303387 
0.001206609552 0.001171960219 0.0020898862026 0.0020446166845 0.0020010504796 0.0019591041332 0.0019186964377 0.0018797458768 0.0018421762685 
0.0018059172294 0.0017708975993 0.0017370467206 0.0017042990581 0.001672588717 0.0016418444988 0.0016119939318 0.0015829673347 0.0015546863994 
0.001527068957 0.0015000264137 0.0014734736591 0.0014473155693 0.0014214568936 0.0013958050944 0.0013702724325 0.0013447812577 0.0013192687357 