# vtk DataFile Version 5.1
vtk output
ASCII
DATASET STRUCTURED_POINTS
DIMENSIONS 20 20 40
SPACING 0.05 0.05 0.05
ORIGIN 3.225 -0.475 0.525
POINT_DATA 16000
FIELD FieldData 1
potential 1 16000 double
0.027512612242 0.026751408331 0.026000819043 0.025261958363 0.024535300516 0.023821635243 0.023121485581 0.022435276162 0.02176347277 
0.021106407352 0.020464501328 0.019838201117 0.019227971191 0.018634288518 0.018057538122 0.017498239417 0.016956212393 0.016431725393 
0.015924723861 0.015423840673 0.026249915495 0.025546053231 0.024850964054 0.024165652052 0.023490839714 0.022827113084 0.022174973369 
0.021534884993 0.02090728656 0.020292579165 0.0196911951 0.019103739024 0.018530673978 0.017972503318 0.017429866405 0.016902735359 
0.016391554777 0.015896413134 0.015416960126 0.014937681706 0.025046417632 0.024394937749 0.023750922117 0.023115144871 0.022488299425 
0.021870889154 0.02126340765 0.020666297603 0.020080043409 0.019505076919 0.018941864108 0.018391028463 0.017853079819 0.017328750653 
0.016818099416 0.016321723341 0.015839481912 0.015372312286 0.014920007072 0.014460100752 0.023901292042 0.023298037041 0.022701032783 
0.022110967112 0.021528455556 0.020953994031 0.020388050562 0.019831090415 0.019283538009 0.018745867461 0.018218558329 0.017702269442 
0.017197518371 0.016705013415 0.016224464365 0.015757289843 0.015303319347 0.014862914543 0.014435620128 0.013993301076 0.022783081582 
0.022226182423 0.021674214669 0.021127757913 0.020587316333 0.020053353764 0.019526312265 0.019006647861 0.018494832298 0.01799131265 
0.017496795546 0.017011825652 0.016536752461 0.016072770484 0.015620215489 0.01517973513 0.014751194035 0.014335149788 0.013931808229 
0.013520790839 0.021758375049 0.021241725979 0.020729158113 0.020221203967 0.019718318332 0.019220953523 0.018729526509 0.018244474014 
0.017766268314 0.017294781637 0.016831859797 0.016377644634 0.015932338412 0.015496707082 0.015071669329 0.014657008313 0.014253442582 
0.013861261218 0.013480451763 0.013091999531 0.020792470349 0.020312680758 0.019836276307 0.019363714447 0.018895438558 0.018431879168 
0.017973432589 0.017519933959 0.017072935288 0.016632501177 0.016199258773 0.01577337811 0.015355878725 0.014946861777 0.01454701068 
0.014156804361 0.013776633557 0.013406793918 0.013047292295 0.012680325076 0.019884550712 0.019438478074 0.018995205823 0.018554518951 
0.018118129487 0.017685760968 0.017257830541 0.016834704287 0.016416727263 0.01600475995 0.015599037518 0.015199733244 0.014807698294 
0.014423428135 0.014047391266 0.013680019123 0.013321693407 0.01297250946 0.012633177157 0.012286737759 0.019032467592 0.018617263133 
0.018204359907 0.017794160354 0.017387068824 0.016983440939 0.016583652146 0.016187943229 0.015797242946 0.015411480879 0.015031017421 
0.014656425099 0.01428826418 0.013927006619 0.013573131635 0.013227019496 0.012888818754 0.012559477522 0.012238697042 0.011911781428 
0.018235499146 0.017848486862 0.017463400649 0.017080592594 0.016700436923 0.016323556863 0.015949720091 0.015579435078 0.01521359767 
0.014851866163 0.014494947822 0.014143233774 0.013797271456 0.0134575339 0.013124229908 0.012797617118 0.012478626374 0.012167261171 
0.011863780186 0.01155535154 0.017490424695 0.017129215793 0.016769909442 0.016412228857 0.016056833616 0.015704166296 0.015354126833 
0.01500770857 0.014664548484 0.014325245503 0.013990159179 0.013659680009 0.013334197975 0.013014135136 0.01269990724 0.012391653391 
0.012090218684 0.0117956911 0.011508282877 0.011217309546 0.016794828595 0.016457229082 0.016120986812 0.015786387779 0.015453772206 
0.015123322886 0.014795684437 0.014470643986 0.014148671412 0.013830072951 0.013515142563 0.013204259293 0.012897750046 0.012596014469 
0.012299210633 0.012008194281 0.011723067913 0.011444176635 0.011171739273 0.010897111542 0.016144743408 0.015828786671 0.015514018825 
0.015200639838 0.014889004579 0.014579333461 0.014271819328 0.013966737472 0.013664310553 0.013364814444 0.013068522819 0.012775709835 
0.012486746226 0.012201684101 0.011921489476 0.011646207116 0.011376210362 0.01111181807 0.010853286415 0.010593945744 0.01553739008 
0.01524128324 0.014946162272 0.014652322234 0.014359965973 0.014069302307 0.013780524884 0.013493837286 0.013209432612 0.012927549223 
0.012648426727 0.012372324448 0.01209924973 0.011830144742 0.011565078942 0.011304371586 0.011048408226 0.010797450449 0.010551829472 
0.010306736657 0.014969258574 0.014691410456 0.014414405414 0.014138507477 0.013863907011 0.013590770612 0.01331925414 0.013049523547 
0.012781729179 0.012516118457 0.012252805073 0.011991786854 0.011733960294 0.011479351381 0.011228271191 0.010981078414 0.010738119279 
0.01049965354 0.010265938668 0.010034168697 0.014436828282 0.0141759429 0.013915639652 0.0136560862 0.01339784942 0.013140863904 
0.012885249725 0.012631130158 0.012378649616 0.012127981947 0.011878956316 0.011632460736 0.011388441546 0.011147218506 0.010909098375 
0.010674408966 0.010443518692 0.010216615826 0.009994148148 0.0097746729367 0.013936465606 0.013690909596 0.013445816282 0.013201721634 
0.012958571817 0.012716469461 0.012475511651 0.012235778362 0.011997398083 0.011760169184 0.01152492124 0.011291534947 0.011060271242 
0.010831407993 0.010605303722 0.010382273812 0.010162612695 0.0099465529951 0.0097345109901 0.0095261331094 0.013463897178 0.013232529036 
0.013001876085 0.012771882678 0.012542665682 0.012314280324 0.012086812232 0.011860405277 0.011634626974 0.011410425332 0.011187586265 
0.01096627406 0.010746808671 0.010529450754 0.010314508157 0.010102310504 0.0098930638793 0.0096869169404 0.0094846711507 0.0092872076267 
0.013015082029 0.01279729067 0.012579859098 0.012362931649 0.012146590184 0.011930890294 0.011715881787 0.011501337369 0.0112878741 
0.011075400244 0.010864022729 0.010653949723 0.010445421093 0.01023873078 0.010034185471 0.0098320388939 0.0096324120272 0.0094361248015 
0.0092431171766 0.0090555323674 0.0125865135 0.012381174142 0.012176056176 0.011971269099 0.011766881863 0.011562893921 0.011359173336 
0.011156194448 0.010953862675 0.010752240568 0.010551492192 0.010351821894 0.010153478742 0.009956744059 0.0097618857607 0.009569013876 
0.009378962052 0.0091917011207 0.0090074592046 0.0088290989777 0.029430911651 0.028623405674 0.027826989634 0.027042413189 0.026270745235 
0.025512759908 0.024769115971 0.024040378417 0.023327101167 0.022629687186 0.02194858163 0.021284195873 0.020636930887 0.020007166511 
0.01939537785 0.018801402216 0.018225570826 0.017667879412 0.017128247301 0.016596080047 0.028103649212 0.027355906665 0.02661724809 
0.025888812048 0.025171443873 0.024465851452 0.023772658093 0.023092448134 0.02242572668 0.021772947251 0.021134592374 0.020511156637 
0.019903044346 0.019310668105 0.018734549293 0.018174575591 0.017631110441 0.017103830175 0.016593463932 0.016084199785 0.026841808979 
0.026148624928 0.025463259 0.024786589216 0.024119392256 0.02346231484 0.022815918801 0.02218086639 0.021557590104 0.020946595838 
0.020348333223 0.019763368166 0.019192125067 0.018635233476 0.018092652506 0.017564889955 0.017051744007 0.016554122722 0.016071712432 
0.01558306881 0.025643003333 0.025000086604 0.024363769263 0.023734837127 0.023113999723 0.022501871544 0.021899017025 0.02130599347 
0.020723282183 0.02015132731 0.019590733884 0.019041942572 0.018505640456 0.017981828331 0.01747073964 0.016973491655 0.016489900252 
0.016020173916 0.015563962607 0.015093909527 0.024477061618 0.023882385656 0.023292972054 0.022709497611 0.022132562068 0.021562748105 
0.02100055873 0.020446571995 0.019901275898 0.019365139308 0.018838844842 0.018322360951 0.017817504613 0.017323813684 0.016842078318 
0.016372870991 0.015916000959 0.015472011768 0.015041089577 0.014602832397 0.023403689907 0.022851104428 0.022302909369 0.021759729361 
0.021222109419 0.020690602128 0.020165696469 0.019647903475 0.019137653848 0.018635085403 0.018141749095 0.017657830762 0.017183438526 
0.016719522259 0.016266205228 0.015823938976 0.015393148219 0.014974086283 0.014566766658 0.014152096111 0.022390064987 0.021876118092 
0.021365838857 0.020859767996 0.02035845145 0.019862364229 0.019371420042 0.018887272939 0.018409728915 0.017939451394 0.017477078643 
0.01702294619 0.01657722841 0.016140836709 0.015714045339 0.015297310225 0.014890981229 0.014495103472 0.014110349325 0.013718209719 
0.021434727818 0.02095624057 0.020480149652 0.020008288695 0.019540477725 0.019077149601 0.018618789882 0.018165726689 0.017718654417 
0.017278406701 0.016844453582 0.016417857435 0.01599895282 0.015588364519 0.015186456403 0.014793612876 0.014410187515 0.014036229012 
0.013672455798 0.01330182859 0.020535203834 0.020089265014 0.019645865706 0.019205456972 0.018768494054 0.018335413354 0.01790664098 
0.01748275383 0.017064076595 0.016650753947 0.016243513286 0.015842695011 0.015448817991 0.015062316237 0.014683629388 0.014313097547 
0.013950962677 0.013597760407 0.013253565548 0.012903460781 0.019690599803 0.019274521143 0.018860544014 0.0184490833 0.018040577646 
0.017635700551 0.017234131219 0.016837054535 0.016444334766 0.016056462526 0.015673923337 0.015297085494 0.014926626171 0.014562575036 
0.014205514456 0.013855535258 0.013513527191 0.013179448094 0.01285356516 0.012522942535 0.018897871578 0.018509193648 0.018122548938 
0.017737728301 0.017355441656 0.016976036194 0.016600020547 0.016227458487 0.015858859552 0.015494586132 0.015135005657 0.014780512809 
0.014431472999 0.014088293424 0.013751096023 0.01342078169 0.013097355713 0.012781132586 0.012472325711 0.012160143261 0.018154253929 
0.017790736153 0.017428652913 0.017068366259 0.016710308992 0.016354748954 0.016001939861 0.015652264911 0.015306061803 0.014963643848 
0.014625299042 0.014291522499 0.013962529008 0.013638755718 0.013320268823 0.013007952438 0.012701855911 0.012402274221 0.01210942585 
0.011814570177 0.017456322125 0.017115924687 0.016776757425 0.016439084474 0.016103477412 0.015769641735 0.015438404281 0.015109886534 
0.014784392398 0.014462197756 0.014143623411 0.01382895933 0.0135185746 0.01321250411 0.012911660758 0.012616101784 0.012326148645 
0.012042038945 0.01176408729 0.011485489663 0.016801276166 0.016482152714 0.016164026634 0.015847383502 0.015531954561 0.015218551054 
0.014907249815 0.014598284481 0.014291936996 0.013988460147 0.013688136608 0.013391239223 0.01309778492 0.012808702724 0.012524009795 
0.012244032474 0.011969084458 0.011699416892 0.011435320357 0.011171942032 0.016185768198 0.015886260455 0.015587732156 0.01528993667 
0.01499367505 0.014698988584 0.014406098236 0.014115212207 0.013826577379 0.013540447302 0.013256993526 0.012976222941 0.012699048818 
0.012425463105 0.012155766364 0.01189028146 0.011629304978 0.011373102058 0.011121861352 0.010872767447 0.015606480978 0.015325223897 
0.015044263966 0.014764404214 0.014485680404 0.01420828935 0.013932416897 0.013658254143 0.013386055009 0.013115853589 0.012847742789 
0.012582525343 0.01232016215 0.012060960041 0.01180520581 0.011553200837 0.01130525072 0.011061533227 0.01082246858 0.010586601787 
0.015060057831 0.014795351426 0.014530986339 0.014267543711 0.014005038664 0.013743636512 0.013483505745 0.013224784444 0.012967699044 
0.012712056447 0.01245873496 0.012207636769 0.011958997245 0.011713164696 0.011470387076 0.011230975326 0.010995189607 0.01076322795 
0.010535173094 0.010311625432 0.014542617653 0.014293247471 0.014044443161 0.013796209864 0.013548722556 0.013302120397 0.013056543562 
0.012812202489 0.012568759455 0.012327168422 0.012087234534 0.011849241997 0.011613407072 0.011380009888 0.011149326914 0.010921662776 
0.010697189029 0.010476018093 0.010258924907 0.010046850376 0.014050605877 0.013815875748 0.013581356957 0.013347242536 0.01311368661 
0.01288080686 0.012648805938 0.012417284443 0.012187172985 0.011958322457 0.011730881441 0.011505073985 0.011281140673 0.011059337764 
0.010839978604 0.010623224807 0.010409223745 0.010198733903 0.0099916828675 0.0097902927775 0.013581059729 0.013359765864 0.013138550616 
0.012917582914 0.01269698225 0.012476818967 0.01225703839 0.012038169736 0.01182017658 0.011603170698 0.011387332041 0.011172879832 
0.010960053373 0.010749108312 0.010540000386 0.010333669131 0.010130041875 0.0099293471901 0.0097318021813 0.0095403796122 0.031271294348 
0.030421606196 0.029583220029 0.028756958913 0.027944033357 0.027145312694 0.02636158636 0.025593531717 0.024841737569 0.024106698306 
0.023388864334 0.022688656842 0.022006458626 0.021342550988 0.020697364237 0.02007066537 0.019462738553 0.018873528886 0.018302926145 
0.017740893702 0.029884191361 0.029096311183 0.028317744263 0.027549718543 0.026793189716 0.026048968791 0.025317761806 0.024600298251 
0.023897096664 0.023208674444 0.022535518674 0.02187810917 0.021236806848 0.020611958013 0.020004020224 0.019412822681 0.018838671821 
0.018281215042 0.017741138401 0.017203423715 0.028567295908 0.027835880417 0.027112522809 0.026398208878 0.025693761775 0.024999969248 
0.024317500865 0.023647043452 0.022989129107 0.022344280669 0.021712945326 0.02109566804 0.020492815629 0.019904929955 0.019331998951 
0.018773953706 0.018231830131 0.017705249851 0.017194297555 0.0166782049 0.027317216904 0.026637862492 0.025965325726 0.02530054925 
0.024644265625 0.023997203858 0.023359999212 0.022733298166 0.022117618073 0.021513426256 0.020921319521 0.020341707563 0.019775222455 
0.019221349816 0.0186816482 0.0181557819 0.017644196069 0.01714644156 0.016662801265 0.016166413766 0.026105568279 0.025476114576 
0.024852160516 0.024234475014 0.023623719611 0.023020576879 0.022425643588 0.021839540147 0.021262803268 0.020695920028 0.020139556663 
0.019593878074 0.01906000577 0.018538052811 0.018028547521 0.017532002321 0.017048226867 0.016577704704 0.016120621791 0.015656923668 
0.024985482202 0.024399755091 0.023818642128 0.023242829443 0.0226729722 0.022109677323 0.021553521786 0.02100507529 0.020464226912 
0.01993282182 0.019410704671 0.018898602108 0.018396574399 0.017905606648 0.017425543777 0.016957021614 0.016500352697 0.016055777759 
0.01562329431 0.015184098103 0.023926255123 0.023380744145 0.022839094651 0.022301940653 0.021769892605 0.021242893452 0.020722729715 
0.020209277513 0.019703005606 0.019204586101 0.018714631214 0.018233466376 0.017761284332 0.017298788215 0.016846377559 0.016404414376 
0.015973219893 0.01555281819 0.015143864836 0.014728103057 0.022925881341 0.022417371516 0.021911453852 0.021409985111 0.020912888182 
0.020420652262 0.019933819624 0.019452764815 0.018978210939 0.018510999156 0.018050610316 0.017598084358 0.017153760751 0.016718133145 
0.016291621832 0.015874547407 0.015467247946 0.015069738167 0.014682725865 0.014289470844 0.021981599018 0.021507129533 0.021035354414 
0.020566783553 0.020101940043 0.01964130271 0.019185366219 0.018734737387 0.018289770192 0.017850700467 0.017418071358 0.016992361361 
0.016574101391 0.016163604375 0.015761314406 0.015367533534 0.014982497589 0.014606712062 0.014240206181 0.013868251706 0.02109228892 
0.020649140162 0.020208218154 0.019769991518 0.019335250545 0.018903831484 0.018476359625 0.018053808682 0.017635911427 0.017223356047 
0.016816549849 0.016416037147 0.01602204745 0.015634999692 0.015255320567 0.014883074629 0.014519116786 0.014163392842 0.013816143739 
0.013464551094 0.020254872888 0.019840842458 0.019428340327 0.019018103309 0.01861060081 0.018206214727 0.017805508126 0.017408595648 
0.017016005576 0.016628135734 0.016245361252 0.01586807871 0.015496649457 0.015131476114 0.014772649519 0.014420999969 0.014076575657 
0.013739643587 0.013410393643 0.013078114693 0.019466622279 0.019078831189 0.018692525028 0.018308130585 0.0179261169 0.017546797801 
0.017170483893 0.016797593538 0.016428504103 0.016063554609 0.015703061 0.015347499949 0.014997112711 0.014652047259 0.014313144039 
0.013980464638 0.01365431086 0.013334941401 0.013022560242 0.012708482773 0.018724191907 0.018360889052 0.017998753186 0.017638237448 
0.017279707173 0.016923460992 0.016569861899 0.016219231403 0.015871922124 0.015528235818 0.015188526713 0.014853084603 0.014522284036 
0.014196151672 0.01387557678 0.013560599883 0.0132515087 0.01294852434 0.012651938302 0.012354983762 0.018024894676 0.017684102095 
0.017344291649 0.017005990465 0.016668993684 0.01633414603 0.016001583415 0.015671582138 0.01534446591 0.015020539131 0.014700073658 
0.01438336457 0.014070459361 0.013762266887 0.013458776288 0.013160301911 0.012867135569 0.012579485403 0.0122976403 0.012016764584 
0.017365566057 0.017045586985 0.01672657329 0.016408268359 0.016091559892 0.015776525357 0.015463440046 0.015152557961 0.01484417328 
0.014538574241 0.014235958632 0.013936368033 0.013640688943 0.013348921551 0.013061349068 0.012778273463 0.012499955219 0.012226668075 
0.011958544043 0.011692803513 0.016743016632 0.016442471164 0.016142155104 0.015842902996 0.015544811539 0.01524812932 0.014953096982 
0.014659951407 0.014368989668 0.014080314108 0.013794007003 0.013510903504 0.013230969132 0.012954502693 0.012681753897 0.012413065797 
0.012148657123 0.011888704012 0.011633603165 0.011381612715 0.016154209805 0.015871139164 0.015588681345 0.015306907091 0.015026079114 
0.014746402013 0.014468108069 0.014191468519 0.013916533458 0.013643366626 0.013372794615 0.013104741084 0.012839442468 0.012577246701 
0.012318376678 0.01206312221 0.011811646578 0.011564360961 0.011321094738 0.011082539171 0.01559536347 0.015329063014 0.015063002883 
0.014797445066 0.014532639814 0.014268749992 0.014005994912 0.013744583526 0.013484357628 0.01322617404 0.012969918542 0.012715879785 
0.012464286197 0.012215393219 0.01196947429 0.011726806656 0.011487534397 0.011251769852 0.011020233079 0.010793928385 0.01506393271 
0.014813007728 0.014562204559 0.01431173953 0.014061813353 0.013812602707 0.013564359963 0.013316717438 0.013070745439 0.012826222085 
0.012583366031 0.012342398474 0.012103570497 0.011867126642 0.011633357309 0.011402404579 0.011174390174 0.010950056339 0.010729305117 
0.010514411417 0.014556659091 0.014320094587 0.014083501986 0.013847088876 0.013610994671 0.013375201427 0.013140310617 0.012906297308 
0.012673307157 0.012441520223 0.012211139004 0.011982392075 0.011755509323 0.011530739548 0.011308017034 0.011088249682 0.010871345925 
0.01065751711 0.010446955502 0.010242713649 0.033027982623 0.032140317729 0.03126400043 0.030400024936 0.029549667993 0.028713889338 
0.027893569367 0.027089510561 0.026302312289 0.025532552978 0.02478067978 0.024047174802 0.023332352776 0.02263650685 0.021959963669 
0.021302518292 0.020664381253 0.020045503023 0.019445427293 0.018855341683 0.031586756292 0.030762381198 0.029947606019 0.029143595452 
0.028351347289 0.027571802839 0.026805769283 0.026053993395 0.025317081499 0.024595628082 0.023890079582 0.023200933665 0.022528531649 
0.021873397873 0.021235310273 0.02061469716 0.020011621044 0.019425729451 0.018857611677 0.018292680208 0.030218951879 0.02945279715 
0.028694834793 0.02794614297 0.027207613921 0.026480111759 0.025764431813 0.025061284718 0.024371249714 0.023694849395 0.02303266219 
0.0223851 0.021752545821 0.02113552461 0.020533920845 0.01994770635 0.019377866742 0.018824108522 0.018286029243 0.017743816036 
0.028921045193 0.028208451197 0.027502859777 0.026805234003 0.026116394428 0.025437167595 0.024768253468 0.024110341988 0.023463998678 
0.022829718455 0.022208100329 0.021599540497 0.021004643546 0.020422855487 0.019855693796 0.019302828205 0.018764554909 0.018240532105 
0.017730977983 0.017209532284 0.027666652714 0.02700540768 0.026349786438 0.025700664223 0.025058770054 0.024424862243 0.023799617404 
0.023183680722 0.022577570515 0.021982001945 0.021396915702 0.020824092802 0.020263064729 0.019714454152 0.01917895915 0.018656318101 
0.018147104007 0.017651510746 0.017169527372 0.016682366623 0.026502555781 0.025886438018 0.0252750717 0.024669212982 0.024069608124 
0.023476905081 0.022891752914 0.022314766358 0.021745883237 0.021186936391 0.020637990842 0.020099138075 0.019571274578 0.019054458987 
0.018549185519 0.018055836215 0.017574701403 0.017105996493 0.016649722057 0.016187669598 0.025400382451 0.024825847514 0.024255311358 
0.023689471235 0.023128987831 0.022573877551 0.02202596725 0.021485125037 0.020952087514 0.020427273519 0.019911393256 0.019404756526 
0.01890754589 0.018420431098 0.017943790044 0.017477958168 0.01702323072 0.016579624674 0.016147774491 0.015709942306 0.024357707992 
0.023820899072 0.023288056459 0.022759203893 0.022234940616 0.02171584437 0.021202478194 0.020695298538 0.020195290218 0.019702495223 
0.019217294338 0.018740267817 0.018271912715 0.017812658239 0.017362845346 0.016922830625 0.016492686018 0.016073102981 0.015664060374 
0.015249519271 0.023371509447 0.022870681414 0.022372632564 0.021877935882 0.021387173759 0.020900882168 0.020419757078 0.01994395502 
0.019474350897 0.019011033188 0.018554559846 0.018105400059 0.017664079381 0.01723089481 0.01680622396 0.016390540493 0.015983664396 
0.015586442599 0.015198786733 0.01480632061 0.022440499234 0.021972263354 0.021506322485 0.02104349111 0.020583741708 0.020127838437 
0.019676149353 0.019229672954 0.018788195519 0.018352554748 0.017922906312 0.017499815333 0.01708366339 0.016674853058 0.0162737117 
0.015880363138 0.015495537541 0.015119250649 0.014751673671 0.014380369934 0.021561782495 0.021123626763 0.020687320524 0.020253389751 
0.019822341172 0.019394528109 0.018970772105 0.018551015492 0.018135893269 0.017725794885 0.017321145978 0.016922329671 0.01652970993 
0.016143669222 0.0157642943 0.015392393883 0.015027999229 0.014671360797 0.014322659567 0.013971404726 0.020731804116 0.020321384073 
0.019912473838 0.019505595977 0.01910112476 0.01869953857 0.01830117515 0.017906478423 0.01751585249 0.017129660312 0.016748296483 
0.016372082862 0.016001414175 0.015636387474 0.015277818246 0.014925759546 0.014580503238 0.014242244256 0.013911268101 0.01357897966 
0.019948176938 0.019563383134 0.019179793247 0.018797866129 0.018418013433 0.018040579228 0.017665966567 0.017294535254 0.016926672762 
0.016562707684 0.016203007802 0.015847899751 0.01549741814 0.01515249241 0.014813120593 0.01447962268 0.014152267882 0.013831260151 
0.013516875152 0.013202472688 0.019207921756 0.01884681948 0.018486646286 0.018127844221 0.017770763029 0.01741575281 0.0170631791 
0.016713364227 0.016366654891 0.016023380685 0.015683842355 0.015348055056 0.015016954387 0.014690550896 0.014369124929 0.014052975203 
0.013742377647 0.013437515495 0.013138594 0.012841123288 0.018508109514 0.018168901602 0.017830606069 0.017493023485 0.017157074018 
0.016822874252 0.016490755577 0.016161011175 0.015834031829 0.015509935821 0.015188850819 0.014871665333 0.014558359529 0.014249238953 
0.013944573069 0.013644643894 0.01334971671 0.013060031693 0.012775704844 0.012494027421 0.017845708571 0.017526973557 0.01720840672 
0.016890881646 0.016574526675 0.01625964427 0.015946522303 0.015635437024 0.01532669412 0.015020219034 0.014716932181 0.014416797765 
0.014120092874 0.013827110672 0.013538093927 0.013253369151 0.012973144998 0.012697577713 0.012427045764 0.012159858529 0.017217895608 
0.016917634252 0.01661789823 0.016318813877 0.016020664561 0.015723724302 0.015428260172 0.015134591007 0.014842483592 0.014552980342 
0.014265985163 0.013981717983 0.013700518884 0.013422617956 0.013148285753 0.012877786551 0.012611267206 0.012349124057 0.012091180193 
0.011838137636 0.016621161592 0.016338596253 0.016056190171 0.01577425054 0.01549302913 0.015212775946 0.014933811423 0.014655854085 
0.014379959821 0.014105946948 0.013834142562 0.013564750216 0.013298032791 0.013034241719 0.012773651245 0.012516412072 0.012262922513 
0.012013038143 0.011767536131 0.011527426577 0.016053226018 0.015786925305 0.01552065234 0.015254665921 0.01498920482 0.014724495586 
0.014460473395 0.014197893636 0.013936773639 0.013677285797 0.013419667457 0.013164149651 0.012910987227 0.012660418806 0.012412720144 
0.012167734234 0.011926429469 0.011688667892 0.011454615755 0.011226584363 0.015511131637 0.015260016862 0.015008781787 0.014757639628 
0.014506877119 0.014256418163 0.014006929622 0.013758434755 0.013511109243 0.013265164007 0.013020815646 0.012778292151 0.012537836327 
0.012299695257 0.012063757985 0.011830942184 0.011601133582 0.011374529387 0.011151309574 0.010934550364 0.034696935549 0.03377557886 
0.032865296778 0.031967578781 0.031083609798 0.030214476466 0.029361125135 0.028524395965 0.027704992785 0.026903511445 0.026120443556 
0.025356274177 0.024611316257 0.023885859835 0.0231802034 0.022494132177 0.021827829623 0.021181229544 0.020553876062 0.01993702128 
0.033207416912 0.032350511172 0.031503235284 0.030666814597 0.029842339313 0.029030813341 0.02823313176 0.02745008666 0.026682371911 
0.025930537257 0.025195172312 0.024476678951 0.023775428769 0.023091900581 0.022425933304 0.021777853271 0.021147348383 0.020535194387 
0.019941006565 0.019350163658 0.031793801736 0.030996382844 0.030207194374 0.029427401253 0.028657944466 0.02789980436 0.027153817716 
0.026420733005 0.025701187639 0.024995727223 0.0243049628 0.02362928968 0.022969289159 0.022324865902 0.021696063397 0.021083905244 
0.02048805335 0.019908672308 0.019345311882 0.018778219643 0.030452187397 0.029709573024 0.028974006658 0.028246542483 0.027528049941 
0.026819438823 0.026121484201 0.02543488812 0.024760271503 0.024098147093 0.023449140313 0.022813632516 0.022191747037 0.021584351484 
0.020991449272 0.020413445337 0.019849932283 0.019301258923 0.018767364991 0.018222163026 0.029158668662 0.028468557391 0.027784134478 
0.027106344821 0.026436002477 0.025773897258 0.025120779235 0.024477335347 0.023844122651 0.023221870805 0.022610555892 0.02201192669 
0.021425471071 0.020851907389 0.020291782925 0.019744902678 0.019211789412 0.018692637731 0.018187421865 0.017678382436 0.027953804258 
0.027310011584 0.026671018987 0.026037698983 0.025410800757 0.02479105963 0.024179180707 0.02357525389 0.02298093689 0.02239636641 
0.021822229022 0.021258571118 0.020706344027 0.020165459283 0.019636491969 0.019119805111 0.018615654813 0.01812404775 0.01764558394 
0.017162344141 0.026811755628 0.026210714252 0.025613717295 0.025021550666 0.024434325337 0.023853913806 0.023280372156 0.022714223848 
0.022156227165 0.021607034604 0.02106698348 0.020536296036 0.020015589748 0.019505350658 0.019005908895 0.018517607844 0.018040723929 
0.01757526441 0.017121835699 0.016663480767 0.025729205593 0.025167651582 0.024609503025 0.02405543583 0.023506124543 0.022962207844 
0.022424276849 0.021892820143 0.021369075533 0.02085244848 0.020343988394 0.0198440232 0.019353134764 0.018871647514 0.018399917987 
0.017938287438 0.017486819877 0.017046188696 0.016616479668 0.016181978019 0.024704743154 0.024179671141 0.023657415946 0.023138616338 
0.022623892973 0.022114108697 0.021609147969 0.021110100793 0.020617563175 0.020131524964 0.019652727928 0.019181599124 0.018718552772 
0.01826399291 0.017818374688 0.017381549268 0.01695442438 0.016536932959 0.016129289532 0.01571763976 0.023735070337 0.023243700471 
0.022754645771 0.022268781319 0.021786110982 0.021307468034 0.020833317501 0.020364616553 0.019901118736 0.0194436106 0.018992538937 
0.018548316478 0.018111342539 0.01768200181 0.017260622006 0.016847306873 0.016442774679 0.016047034325 0.01566025018 0.015270423526 
0.022817893127 0.022357675596 0.021899330222 0.021443424009 0.020990524453 0.020540928058 0.020095614962 0.019654523592 0.019218309216 
0.018787384995 0.018362198038 0.01794311037 0.017530512746 0.017124774268 0.016725980731 0.016334913126 0.01595161415 0.015576293598 
0.015209153018 0.014840039671 0.02194963568 0.021518218557 0.021088339396 0.020660464033 0.02023494913 0.019812757199 0.019393797171 
0.018978696642 0.018567882586 0.018161750848 0.017760703969 0.017365085062 0.016975261865 0.01659136161 0.016214169676 0.015843745545 
0.015480355398 0.015124193176 0.01477553016 0.014426051994 0.021127958833 0.020723197529 0.020319631177 0.019917723441 0.019517954281 
0.019120713158 0.018726432045 0.018335505807 0.017948346104 0.017565362724 0.01718677681 0.016813087645 0.016444282191 0.016081287515 
0.015724097221 0.015373003083 0.015028286307 0.014690133661 0.014358800144 0.014027880153 0.020349981911 0.019969909255 0.019590738105 
0.019212926259 0.018836874001 0.018462982211 0.018091644641 0.017723222234 0.017358082518 0.016996584665 0.016639050864 0.01628550733 
0.015936887729 0.01559320261 0.015254731687 0.01492176272 0.014594538526 0.014273307161 0.013958172556 0.013644831925 0.019612895127 
0.019255864694 0.018899142743 0.018543678834 0.018189671393 0.017837489004 0.017487487889 0.017139997753 0.016795436846 0.016453948359 
0.016115695152 0.015781552827 0.015451529331 0.015125896691 0.014804952576 0.014488957402 0.014178162245 0.01387272426 0.013573002585 
0.013276111869 0.018914000633 0.018577831138 0.018242300332 0.017907601257 0.017574082785 0.017242086404 0.016911932781 0.016583950289 
0.016258458157 0.015935411432 0.015615746644 0.015299445215 0.014986796235 0.014678044912 0.014373522703 0.014073467319 0.01377810494 
0.013487586769 0.013202268216 0.012920517001 0.018250137289 0.017933686875 0.017617680377 0.017302286829 0.01698782306 0.016674617143 
0.016362959564 0.016053200512 0.015745158302 0.015439881682 0.015137286474 0.01483762503 0.014541231099 0.014248335869 0.013959208589 
0.013674100314 0.013393149224 0.013116441929 0.012844694523 0.012577725388 0.017618551944 0.017320617053 0.017022775948 0.016725356825 
0.016428647929 0.016132941751 0.015838581477 0.015545341984 0.015254255238 0.014965275631 0.014678641036 0.014394603502 0.014113431305 
0.013835374136 0.013560699127 0.013289542263 0.013022009888 0.012758823312 0.012499864743 0.012246434725 0.017016951904 0.016736099072 
0.016455182038 0.016174507123 0.015894349275 0.01561503645 0.015336330588 0.015059232828 0.01478371374 0.014509976669 0.014238270221 
0.013968837557 0.013701931889 0.013437799363 0.013176629061 0.012918478244 0.012664073111 0.012413346517 0.012166459071 0.011925697564 