# vtk DataFile Version 5.1
vtk output
ASCII
DATASET STRUCTURED_POINTS
DIMENSIONS 30 30 30
SPACING 0.01 0.01 0.01
ORIGIN 3.555 -0.145 0.855
POINT_DATA 27000
FIELD FieldData 1
potential 1 27000 double
0.00076923680615 0.00076828390981 0.0007673336859 0.00076638615883 0.00076544139349 0.00076449930266 0.00076355990585 0.00076262313172 0.00076168900941 
0.0007607575682 0.00075982874104 0.00075890252681 0.00075797892411 0.00075705790193 0.00075613948659 0.00075522359665 0.00075431026672 0.000753399502 
0.00075249123147 0.00075158549187 0.00075068224305 0.00074978154351 0.00074888328551 0.00074798751149 0.00074709418689 0.00074620331332 0.00074531488975 
0.00074442889268 0.00074354532109 0.00074266416393 0.00076961204438 0.00076865835737 0.00076770735504 0.00076675906191 0.00076581355424 0.00076487070463 
0.00076393050531 0.00076299302685 0.00076205814944 0.00076112594548 0.00076019638346 0.00075926941885 0.0007583450945 0.00075742331748 0.00075650414069 
0.00075558751321 0.00075467346666 0.00075376196906 0.0007528529894 0.00075194652132 0.00075104258754 0.00075014112119 0.00074924214466 0.00074834563717 
0.00074745158882 0.00074656002421 0.00074567087234 0.0007447841546 0.00074389986758 0.00074301794917 0.00076998909629 0.00076903461765 0.00076808286078 
0.00076713380357 0.00076618751441 0.00076524391106 0.00076430297937 0.0007633647072 0.00076242911176 0.00076149615912 0.00076056583835 0.00075963814165 
0.00075871306043 0.00075779057167 0.0007568706229 0.00075595329661 0.00075503849953 0.00075412624678 0.00075321653328 0.00075230934558 0.00075140470748 
0.00075050254165 0.0007496028373 0.0007487055899 0.00074781083691 0.00074691853156 0.00074602867604 0.00074514124265 0.00074425624055 0.00074337363977 
0.00077036797815 0.00076941275426 0.00076846022711 0.00076751043735 0.00076656337766 0.00076561898217 0.00076467732378 0.00076373829841 0.00076280195274 
0.00076186825212 0.0007609371797 0.0007600087451 0.00075908291021 0.0007581596834 0.00075723902589 0.00075632095295 0.00075540542122 0.00075449245968 
0.00075358201221 0.00075267408172 0.00075176869072 0.00075086577583 0.00074996534067 0.00074906741337 0.0007481719453 0.00074727891632 0.00074638833166 
0.00074550019331 0.00074461448019 0.00074373117222 0.00077074879986 0.00076979281534 0.00076883952899 0.0007678890033 0.00076694115658 0.00076599597921 
0.00076505356285 0.00076411378497 0.00076317668973 0.00076224223655 0.00076131044545 0.00076038125991 0.00075945469315 0.00075853071666 0.00075760934974 
0.00075669053304 0.000755774253 0.00075486052685 0.00075394939056 0.00075304072354 0.00075213456944 0.00075123095527 0.00075032980566 0.00074943113622 
0.0007485349428 0.00074764119563 0.0007467498967 0.00074586106186 0.00074497463973 0.00074409061426 0.00077113156234 0.00077017479849 0.00076922076798 
0.00076826948924 0.00076732090856 0.0007663750154 0.00076543180962 0.00076449128347 0.00076355340218 0.00076261820452 0.00076168563579 0.00076075571963 
0.0007598283742 0.00075890369244 0.00075798157226 0.00075706201404 0.0007561450292 0.00075523058517 0.00075431870547 0.00075340931149 0.00075250243249 
0.00075159806421 0.00075069622237 0.00074979682899 0.00074889990615 0.00074800544908 0.00074711345307 0.00074622388167 0.00074533672222 0.00074445198499 
0.00077151624978 0.00077055874829 0.00076960394373 0.00076865193538 0.00076770259666 0.00076675597115 0.00076581200279 0.00076487069831 0.00076393208445 
0.00076299613295 0.00076206283206 0.00076113214222 0.00076020407798 0.00075927863441 0.00075835579842 0.00075743550541 0.00075651778859 0.00075560265295 
0.0007546900139 0.00075377987634 0.00075287228283 0.00075196718697 0.00075106459123 0.00075016452546 0.00074926688277 0.00074837170655 0.0007474789473 
0.00074658864898 0.00074570080966 0.00074481536442 0.00077190298426 0.00077094469648 0.00076998913358 0.00076903636298 0.00076808626688 0.00076713888676 
0.0007661941836 0.00076525214919 0.0007643127803 0.00076337607174 0.00076244202653 0.00076151062251 0.00076058184154 0.00075965564329 0.00075873204487 
0.00075781104477 0.00075689256603 0.00075597668598 0.00075506331883 0.00075415246809 0.00075324416323 0.00075233833884 0.00075143502037 0.00075053418883 
0.00074963585357 0.00074873993151 0.00074784647931 0.00074695546471 0.00074606691543 0.0007451807507 0.00077229170381 0.00077133268156 0.00077037636415 
0.00076942285136 0.00076847200537 0.00076752386345 0.00076657839997 0.00076563561126 0.00076469552207 0.00076375807155 0.00076282327163 0.00076189113286 
0.00076096159269 0.0007600346558 0.00075911032136 0.00075818856937 0.00075726944052 0.00075635279994 0.00075543872311 0.00075452714817 0.00075361810276 
0.00075271152753 0.00075180747421 0.0007509059167 0.00075000680621 0.00074911021965 0.0007482160558 0.0007473243245 0.00074643507395 0.00074554819505 
0.00077268251753 0.00077172274021 0.00077076567154 0.00076981139927 0.00076885979695 0.00076791089396 0.00076696467955 0.00076602116393 0.00076508030833 
0.00076414212592 0.00076320658984 0.00076227370977 0.00076134340666 0.00076041572467 0.00075949064655 0.00075856823445 0.00075764831174 0.00075673096159 
0.0007558161442 0.0007549038407 0.00075399406867 0.00075308680529 0.00075218199394 0.00075127971477 0.00075037991035 0.00074948256038 0.00074858769909 
0.00074769525715 0.00074680524495 0.00074591766659 0.00077307542779 0.00077211486855 0.00077115707346 0.00077020201184 0.00076924966191 0.0007682999606 
0.0007673530451 0.00076640877919 0.00076546718952 0.00076452824823 0.00076359200932 0.00076265834651 0.00076172731995 0.00076079890122 0.00075987306645 
0.00075894988405 0.00075802925347 0.00075711117574 0.00075619561007 0.00075528258963 0.00075437209168 0.00075346407601 0.00075255857619 0.0007516555686 
0.00075075506678 0.00074985700452 0.00074896141928 0.00074806829645 0.00074717756575 0.00074628926811 0.00077347043928 0.00077250911745 0.00077155054847 
0.00077059470636 0.00076964162003 0.00076869118043 0.00076774351333 0.00076679849148 0.00076585615979 0.00076491647327 0.00076397945846 0.00076304511705 
0.00076211333709 0.00076118418573 0.00076025765992 0.00075933369697 0.0007584123332 0.00075749351324 0.00075657722819 0.00075566347959 0.00075475222653 
0.00075384351354 0.00075293730776 0.00075203356677 0.0007511323361 0.00075023354568 0.00074933722233 0.00074844336345 0.00074755194813 0.00074666293406 
0.00077386754692 0.00077290546297 0.00077194613409 0.00077098951671 0.00077003568478 0.00076908449658 0.0007681360707 0.00076719031684 0.00076624722813 
0.00076530686858 0.00076436908989 0.00076343396556 0.00076250148177 0.00076157156898 0.00076064432121 0.00075971959823 0.0007587975051 0.00075787794365 
0.00075696092615 0.00075604643351 0.00075513448294 0.00075422505258 0.00075331813114 0.00075241366333 0.00075151169119 0.00075061219177 0.0007497151493 
0.00074882057378 0.00074792844273 0.00074703871298 0.00077426677448 0.00077330392875 0.00077234383272 0.00077138646587 0.00077043180714 0.00076947992137 
0.00076853078082 0.00076758426771 0.0007666404558 0.00076569931528 0.0007647608335 0.00076382494706 0.00076289171115 0.00076196111942 0.00076103307646 
0.00076010764427 0.00075918477357 0.00075826447429 0.00075734672815 0.00075643153255 0.00075551886816 0.00075460870841 0.00075370104942 0.00075279588163 
0.00075189318314 0.00075099295956 0.00075009519793 0.00074919990568 0.00074830702548 0.00074741660331 0.00077466812004 0.00077370451968 0.00077274365643 
0.00077178554021 0.000770830118 0.0007698774798 0.00076892758755 0.00076798033515 0.0007670357931 0.00076609390921 0.00076515466752 0.00076421806195 
0.00076328411073 0.00076235274671 0.0007614239931 0.00076049780247 0.00075957418171 0.00075865318821 0.00075773469607 0.00075681876578 0.00075590536316 
0.00075499448847 0.00075408610567 0.0007531802153 0.00075227679544 0.00075137585817 0.00075047737333 0.00074958136394 0.00074868777532 0.00074779656428 
0.00077507160132 0.00077410725582 0.00077314561789 0.00077218674229 0.00077123057393 0.00077027716119 0.00076932652831 0.00076837857422 0.00076743324766 
0.0007664906183 0.00076555063062 0.00076461328501 0.00076367858896 0.00076274648986 0.00076181700566 0.00076089007672 0.00075996572275 0.00075904401972 
0.00075812480675 0.00075720813368 0.00075629400512 0.00075538239377 0.00075447329992 0.00075356668756 0.00075266254691 0.00075176088742 0.00075086165535 
0.00074996492577 0.0007490706096 0.00074817871995 0.00077547718739 0.00077451210237 0.0007735496885 0.00077259006187 0.00077163316089 0.00077067899647 
0.00076972759575 0.00076877888293 0.00076783284935 0.0007668894498 0.00076594872061 0.00076501066796 0.00076407521761 0.00076314237172 0.00076221210479 
0.000761284484 0.00076035943593 0.00075943695297 0.00075851702114 0.00075759964556 0.00075668476596 0.0007557724299 0.00075486260037 0.00075395524711 
0.00075305039561 0.00075214800576 0.00075124808466 0.00075035063738 0.00074945560384 0.00074856299765 0.00077588495132 0.00077491906911 0.00077395592749 
0.00077299547527 0.00077203784638 0.00077108293116 0.00077013076519 0.00076918130813 0.00076823453149 0.00076729040069 0.00076634894832 0.00076541012407 
0.00076447393623 0.00076354035824 0.00076260937577 0.00076168101154 0.00076075522595 0.00075983201564 0.0007589113587 0.00075799324634 0.00075707764529 
0.00075616455937 0.00075525400638 0.0007543459493 0.00075344037645 0.0007525372783 0.00075163666262 0.00075073847159 0.00074984272596 0.00074894939022 
0.00077629474705 0.00077532811786 0.00077436424962 0.00077340305563 0.00077244467432 0.00077148900842 0.00077053608131 0.00076958584222 0.00076863830714 
0.00076769347828 0.00076675127578 0.00076581172225 0.00076487476808 0.00076394046445 0.00076300876356 0.00076207965083 0.00076115310456 0.00076022916435 
0.0007593077926 0.00075838893367 0.00075747264278 0.00075655885726 0.00075564755551 0.00075473877604 0.00075383248184 0.00075292866133 0.00075202732242 
0.00075112842181 0.00075023195128 0.00074933790266 0.00077670671118 0.00077573927535 0.00077477460675 0.00077381268065 0.00077285354781 0.00077189713216 
0.00077094349149 0.00076999251947 0.0007690442471 0.00076809865776 0.00076715570103 0.00076621536878 0.00076527767827 0.0007643426403 0.00076341020492 
0.00076248037552 0.00076155311193 0.00076062843917 0.00075970634302 0.00075878678706 0.00075786973391 0.00075695522393 0.00075604322955 0.00075513370235 
0.00075422668919 0.00075332214692 0.00075242008283 0.0007515204659 0.00075062327758 0.00074972850939 0.0007771206778 0.00077615251523 0.00077518703315 
0.00077422437903 0.00077326451668 0.00077230737797 0.00077135296799 0.00077040122943 0.00076945221987 0.00076850586382 0.00076756214033 0.0007666211283 
0.00076568272836 0.00076474692362 0.00076381375422 0.00076288318889 0.00076195521104 0.00076102978035 0.00076010697071 0.0007591866774 0.00075826889859 
0.00075735367853 0.00075644095515 0.00075553073083 0.00075462297408 0.00075371770095 0.00075281492775 0.00075191457965 0.00075101667978 0.00075012120767 
0.00077753672639 0.00077656776617 0.00077560152443 0.00077463812227 0.00077367748781 0.00077271961792 0.00077176447105 0.0007708120358 0.00076986225416 
0.00076891513782 0.00076797069151 0.0007670289284 0.00076608980425 0.00076515329849 0.00076421939504 0.00076328809738 0.0007623593617 0.00076143321686 
0.00076050966562 0.0007595886502 0.00075867017776 0.00075775419621 0.00075684074959 0.00075592980301 0.00075502133414 0.00075411532569 0.00075321184788 
0.00075231077268 0.00075141214872 0.00075051595358 0.0007779548092 0.00077698502356 0.00077601807299 0.00077505392335 0.00077409257147 0.00077313390982 
0.0007721780553 0.00077122484852 0.00077027429308 0.00076932645246 0.00076838128133 0.00076743876542 0.00076649892119 0.00076556167816 0.00076462705048 
0.00076369501069 0.00076276557851 0.00076183870347 0.00076091442431 0.00075999264769 0.00075907343822 0.00075815676545 0.00075724257239 0.0007563309029 
0.00075542171198 0.00075451504817 0.00075361079102 0.00075270897801 0.0007518096432 0.0007509127222 0.0007783748759 0.00077740435393 0.00077643667368 
0.00077547173752 0.00077450962618 0.00077355021735 0.00077259361024 0.000771639635 0.00077068836916 0.00076973978855 0.00076879386392 0.00076785062527 
0.00076691001803 0.0007659720742 0.00076503671418 0.00076410394276 0.00076317377631 0.00076224617289 0.00076132114917 0.00076039869294 0.00075947875795 
0.00075856133391 0.00075764645913 0.00075673402729 0.00075582412207 0.00075491673095 0.00075401177087 0.00075310922044 0.00075220914945 0.00075131152429 
0.00077879691676 0.00077782563992 0.00077685719777 0.00077589150888 0.00077492865785 0.00077396852409 0.00077301109904 0.00077205640541 0.00077110441948 
0.00077015509952 0.00076920843828 0.000768264466 0.0007673231241 0.00076638442759 0.00076544835075 0.00076451484823 0.00076358395132 0.00076265561992 
0.0007617298703 0.00076080671057 0.00075988603768 0.0007589679098 0.00075805230033 0.00075713918613 0.00075622850389 0.00075532039313 0.00075441471312 
0.00075351145652 0.00075261062092 0.00075171227863 0.00077922081349 0.00077824884885 0.00077727965967 0.00077631324007 0.00077534964328 0.00077438871097 
0.00077343057313 0.00077247513963 0.00077152239199 0.00077057235471 0.00076962495111 0.00076868022795 0.00076773816665 0.00076679872417 0.0007658619147 
0.00076492769564 0.00076399607135 0.00076306702045 0.00076214054436 0.00076121665622 0.00076029526799 0.00075937639986 0.00075846006154 0.00075754623628 
0.00075663485626 0.00075572602484 0.00075481955943 0.00075391560108 0.00075301409168 0.00075211500667 0.00077964666994 0.00077867395221 0.00077770401243 
0.00077673686976 0.00077577245459 0.00077481083311 0.00077385194881 0.00077289577159 0.0007719422844 0.00077099148391 0.00077004336586 0.00076909790785 
0.00076815509808 0.00076721493606 0.00076627737689 0.00076534246926 0.00076441010503 0.00076348032292 0.00076255312095 0.00076162850011 0.00076070639234 
0.0007597868138 0.0007588697295 0.00075795514305 0.00075704308889 0.00075613349702 0.00075522636423 0.00075432169943 0.00075341942707 0.00075251962017 
0.00078007438699 0.00077910091334 0.00077813024637 0.00077716232859 0.00077619716836 0.00077523480293 0.00077427516426 0.00077331824666 0.00077236402091 
0.00077141249761 0.00077046361884 0.00076951744847 0.0007685739142 0.00076763302046 0.00076669473111 0.00076575907192 0.00076482599466 0.00076389547712 
0.00076296755414 0.00076204221402 0.00076111937889 0.00076019903006 0.0007592812329 0.00075836594318 0.00075745321244 0.00075654286863 0.00075563499153 
0.00075472961499 0.00075382666776 0.00075292617875 0.00078050386747 0.00077952968762 0.00077855827349 0.00077758958816 0.00077662369711 0.00077566057419 
0.0007747002031 0.00077374254602 0.00077278758235 0.00077183530717 0.00077088570831 0.0007699387834 0.00076899453874 0.0007680529052 0.00076711389854 
0.00076617748925 0.00076524368039 0.00076431245656 0.00076338378851 0.00076245768729 0.00076153413275 0.00076061310503 0.00075969460043 0.00075877857362 
0.00075786509044 0.00075695407267 0.00075604551977 0.00075513938702 0.00075423572989 0.00075333451595 0.00078093515958 0.00077996021218 0.00077898801445 
0.00077801861426 0.00077705199545 0.00077608812042 0.00077512699943 0.00077416860388 0.00077321291184 0.0007722599068 0.00077130956404 0.00077036190966 
0.00076941690491 0.00076847455313 0.00076753478651 0.00076659767738 0.00076566314359 0.00076473115747 0.00076380178033 0.00076287499362 0.00076195070625 
0.00076102893254 0.00076010970683 0.00075919298592 0.0007582787917 0.00075736705746 0.00075645778647 0.00075555093526 0.00075464656036 0.00075374458996 
0.00077812661854 0.00077716197512 0.00077620000548 0.00077524084083 0.00077428438703 0.00077333063562 0.00077237962471 0.00077143129753 0.00077048570526 
0.00076954277062 0.00076860250829 0.00076766487418 0.00076672990402 0.00076579754275 0.00076486778991 0.00076394064748 0.00076301609873 0.00076209411807 
0.00076117470453 0.00076025782653 0.00075934351831 0.00075843169565 0.00075752240221 0.00075661562561 0.0007557113319 0.00075480950714 0.00075391019799 
0.00075301334289 0.00075211890273 0.00075122688149 0.00077850848551 0.00077754301588 0.0007765803071 0.00077562036905 0.00077466309267 0.00077370858128 
0.00077275682503 0.00077180772534 0.00077086136738 0.00076991766789 0.00076897663285 0.00076803826664 0.00076710251751 0.00076616940582 0.00076523889976 
0.00076431100482 0.00076338568871 0.00076246297419 0.00076154279999 0.00076062520689 0.00075971013895 0.00075879758881 0.00075788758317 0.00075698007031 
0.00075607502964 0.00075517248792 0.00075427242088 0.0007533748378 0.00075247968671 0.00075158698396 0.0007788920975 0.00077792584024 0.00077696236865 
0.00077600165671 0.00077504362198 0.0007740883338 0.00077313580701 0.00077218593724 0.00077123881511 0.00077029435203 0.00076935255433 0.00076841342072 
0.00076747693807 0.00076654305153 0.00076561179798 0.00076468315336 0.00076375708874 0.00076283362938 0.00076191272068 0.00076099439951 0.00076007857121 
0.00075916526322 0.00075825448746 0.00075734626091 0.00075644049988 0.00075553722489 0.00075463642806 0.00075373811683 0.00075284224283 0.00075194881387 
0.00077927760186 0.00077831058154 0.00077734627631 0.00077638473872 0.0007754259381 0.00077446988592 0.00077351655476 0.00077256595821 0.00077161806611 
0.00077067283951 0.00076973028134 0.00076879040789 0.00076785316976 0.00076691854086 0.00076598652466 0.0007650571274 0.00076413032773 0.0007632060964 
0.00076228444107 0.00076136536065 0.00076044878759 0.00075953476066 0.00075862325601 0.00075771426167 0.0007568077765 0.00075590376906 0.00075500224134 
0.00075410321514 0.00075320661798 0.00075231246229 0.00077966491485 0.00077869709593 0.00077773203734 0.00077676973237 0.00077581017499 0.00077485335253 
0.000773899221 0.00077294786844 0.00077199919733 0.00077105320894 0.00077010988542 0.00076916924164 0.00076823123921 0.00076729587009 0.00076636308121 
0.00076543294729 0.00076450538265 0.00076358040507 0.00076265804006 0.00076173818057 0.00076082089054 0.00075990612477 0.00075899388293 0.000758084153 
0.00075717693321 0.00075627219029 0.00075536993622 0.00075447015836 0.00075357283332 0.0007526779508 0.00078005408447 0.00077908550295 0.00077811961993 
0.00077715660305 0.00077619628448 0.00077523867469 0.00077428379205 0.00077333167202 0.00077238223992 0.00077143546082 0.00077049135259 0.00076954994459 
0.00076861117545 0.00076767504017 0.00076674154611 0.00076581066409 0.00076488236354 0.0007639566678 0.00076303352068 0.00076211290612 0.00076119486317 
0.00076027938381 0.00075936640455 0.0007584559355 0.00075754798555 0.00075664251327 0.00075573952271 0.00075483901607 0.00075394098394 0.00075304535696 
0.00078044518952 0.00077947576877 0.00077850916658 0.00077754537303 0.00077658428461 0.0007756259132 0.00077467024493 0.00077371734092 0.00077276713635 
0.00077181962508 0.0007708747897 0.00076993262763 0.00076899309175 0.00076805621587 0.00076712193425 0.00076619030047 0.00076526124974 0.00076433482865 
0.00076341092448 0.00076248957922 0.00076157078603 0.00076065453858 0.00075974084841 0.0007588296503 0.00075792096163 0.00075701477749 0.00075611105608 
0.0007552098189 0.00075431101395 0.00075341468461 0.0007808381877 0.00077986801774 0.00077890065859 0.00077793606951 0.00077697420888 0.0007760150502 
0.0007750586887 0.00077410499672 0.00077315401341 0.00077220574103 0.00077126015889 0.00077031721606 0.00076937693696 0.00076843931316 0.00076750431217 
0.00076657191735 0.0007656421694 0.0007647149648 0.00076379032685 0.00076286819069 0.00076194865762 0.0007610316762 0.00076011724647 0.00075920533764 
0.00075829591466 0.00075738898029 0.00075648450126 0.0007555825406 0.0007546830417 0.00075378598519 0.00078123318621 0.00078026226226 0.00077929412626 
0.00077832874577 0.0007773661302 0.00077640620049 0.00077544907208 0.00077449465019 0.00077354288959 0.00077259382019 0.00077164748252 0.00077070379445 
0.0007697627609 0.00076882438446 0.00076788863411 0.00076695552785 0.00076602498304 0.00076509703995 0.00076417165868 0.00076324884928 0.00076232857905 
0.00076141084834 0.00076049566662 0.00075958299085 0.00075867285394 0.00075776514241 0.00075685995681 0.00075595727822 0.00075505702309 0.00075415923208 
0.00078163019454 0.00078065850351 0.00077968959049 0.00077872343646 0.00077776004921 0.00077679936272 0.0007758414478 0.00077488626765 0.00077393376571 
0.0007729839362 0.00077203681788 0.00077109237371 0.00077015060537 0.00076921145729 0.00076827495784 0.0007673410885 0.00076640980743 0.00076548114189 
0.00076455501783 0.00076363144778 0.00076271045266 0.00076179195755 0.00076087603034 0.00075996259679 0.00075905172059 0.00075814336931 0.0007572374517 
0.00075633401711 0.00075543304236 0.00075453451643 0.00078202921146 0.000781056749 0.00078008707604 0.00077912014882 0.00077815597317 0.00077719452806 
0.00077623585228 0.00077527989241 0.00077432661818 0.0007733760662 0.00077242817443 0.00077148299421 0.00077054043004 0.00076960054893 0.00076866331509 
0.00076772870357 0.00076679667608 0.00076586722575 0.00076494038758 0.00076401607504 0.00076309433456 0.00076217513668 0.00076125842744 0.0007603442909 
0.00075943267295 0.00075852353322 0.00075761691429 0.00075671275976 0.00075581105592 0.0007549118053 0.00078243027147 0.00078145701547 0.00078048656721 
0.00077951887845 0.00077855389131 0.00077759172782 0.00077663227958 0.00077567556211 0.00077472155163 0.0007737702556 0.00077282161103 0.00077187564618 
0.00077093236863 0.0007699917317 0.00076905371239 0.00076811834898 0.00076718556418 0.00076625537733 0.00076532777505 0.00076440273533 0.00076348025289 
0.00076256029671 0.00076164289886 0.00076072800372 0.00075981563646 0.00075890577342 0.00075799839296 0.00075709353964 0.00075619110654 0.00075529112786 
0.00078283337653 0.00078185937466 0.00078088810829 0.0007799196507 0.00077895390583 0.00077799094145 0.00077703074986 0.00077607327738 0.00077511850629 
0.00077416644362 0.0007732170938 0.00077227036684 0.0007713262964 0.00077038494364 0.00076944615046 0.00076851002928 0.00076757649636 0.00076664556768 
0.00076571722455 0.00076479142977 0.00076386821384 0.00076294752864 0.00076202939047 0.00076111376066 0.00076020065952 0.00075929006319 0.0007583819713 
0.00075747637084 0.00075657320677 0.00075567249998 0.0007832385716 0.00078226375299 0.00078129171304 0.00078032246388 0.00077935595258 0.00077839223154 
0.00077743129925 0.00077647304143 0.00077551751737 0.00077456471097 0.00077361459178 0.00077266714193 0.00077172235828 0.00077078018365 0.00076984066472 
0.00076890377364 0.00076796948621 0.00076703781712 0.00076610867649 0.00076518217646 0.0007642582157 0.00076333681578 0.00076241794094 0.00076150158102 
0.00076058774106 0.00075967641121 0.00075876758679 0.0007578612259 0.00075695736439 0.00075605589898 0.00078364578558 0.00078267019054 0.00078169737082 
0.0007807273501 0.00077976005531 0.00077879558793 0.00077783389732 0.0007768748771 0.00077591858574 0.00077496505123 0.00077401415447 0.0007730659753 
0.00077212042412 0.00077117750647 0.00077023721496 0.00076929957733 0.00076836455956 0.00076743210602 0.00076650226429 0.00076557501079 0.00076465031096 
0.00076372816128 0.00076280856202 0.00076189146709 0.00076097689765 0.00076006482016 0.00075915523692 0.00075824814541 0.00075734352225 0.00075644138848 
0.00078405505507 0.00078307868425 0.00078210508397 0.00078113425665 0.00078016625289 0.00077920099215 0.00077823853972 0.00077727879029 0.00077632175411 
0.00077536742972 0.00077441577679 0.00077346683651 0.0007725205316 0.00077157685693 0.00077063584137 0.00076969744993 0.00076876167098 0.00076782850523 
0.00076689789669 0.0007659698928 0.0007650444626 0.00076412157459 0.00076320122803 0.00076228341955 0.0007613680752 0.00076045527594 0.00075954498822 
0.00075863716568 0.00075773181258 0.00075682891453 0.00078446638568 0.00078348922574 0.00078251487383 0.00078154326654 0.00078057448987 0.00077960846702 
0.00077864524514 0.00077768473551 0.00077672696633 0.00077577186396 0.00077481947365 0.00077386974828 0.00077292269182 0.00077197830929 0.00077103652916 
0.00077009736855 0.00076916085289 0.00076822694362 0.00076729560758 0.00076636684849 0.00076544064939 0.0007645170236 0.00076359593886 0.00076267738324 
0.00076176134671 0.00076084781442 0.00075993679744 0.00075902824173 0.00075812214571 0.00075721853492 0.00078487976931 0.00078390183801 0.00078292668532 
0.00078195433702 0.00078098480173 0.00078001801368 0.00077905399459 0.000778092715 0.00077713419824 0.00077617836934 0.00077522521494 0.00077427473694 
0.00077332693865 0.00077238178974 0.00077143924541 0.00077049935201 0.00076956211407 0.00076862740389 0.00076769533188 0.00076676585691 0.000765838924 
0.00076491456054 0.00076399273937 0.00076307344852 0.00076215666621 0.00076124240089 0.00076033066522 0.00075942138252 0.00075851456173 0.00075761021081 
0.00078529520802 0.00078431648064 0.00078334055088 0.00078236747947 0.00078139712318 0.0007804295709 0.00077946478963 0.00077850278635 0.00077754347955 
0.00077658690958 0.00077563300221 0.0007746817714 0.00077373321299 0.00077278725666 0.0007718440014 0.00077090336973 0.00076996534656 0.00076902997689 
0.00076809712826 0.00076716690308 0.00076623926229 0.00076531414614 0.00076439158865 0.00076347156264 0.00076255405624 0.00076163905213 0.00076072657388 
0.00075981655635 0.00075890901466 0.00075800393422 0.00078571266355 0.00078473315835 0.0007837564327 0.00078278259049 0.00078181152629 0.00078084321048 
0.00077987766768 0.0007789149049 0.00077795478616 0.00077699745673 0.00077604278558 0.00077509080242 0.0007741414631 0.00077319481605 0.00077225081252 
0.00077130943192 0.00077037068331 0.00076943455695 0.00076850099652 0.00076757000095 0.00076664161596 0.00076571578513 0.00076479247662 0.00076387171558 
0.00076295347524 0.0007620377595 0.00076112451397 0.00076021376076 0.00075930550431 0.00075839968636 0.00078613213285 0.00078515176406 0.00078417432021 
0.00078319968984 0.00078222788292 0.00078125880303 0.0007802925295 0.00077932901255 0.00077836815601 0.0007774100288 0.00077645464438 0.00077550184506 
0.00077455178473 0.00077360438771 0.00077265963726 0.00077171751085 0.0007707780186 0.00076984116544 0.0007689068497 0.00076797514501 0.00076704598405 
0.00076611941892 0.00076519539894 0.00076427387813 0.0007633549094 0.0007624384615 0.00076152448317 0.00076061299884 0.00075970400572 0.00075879746402 
0.00078655356468 0.00078557244857 0.00078459421307 0.00078361881672 0.00078264623506 0.00078167641447 0.00078070939677 0.00077974509453 0.00077878348111 
0.00077782459942 0.00077686839039 0.00077591494452 0.00077496413679 0.00077401598858 0.00077307046225 0.0007721275896 0.00077118735322 0.00077024976257 
0.0007693147056 0.0007683822607 0.00076745235538 0.00076652505262 0.00076560029608 0.00076467806445 0.00076375834226 0.00076284116701 0.00076192646178 
0.00076101425153 0.00076010450426 0.00075919720832 0.00078697696794 0.00078599511367 0.00078501609061 0.00078403992879 0.00078306656567 0.00078209596994 
0.00078112822918 0.0007801631537 0.00077920079806 0.00077824111703 0.00077728418696 0.00077632999054 0.00077537843394 0.00077442953817 0.00077348329592 
0.00077253968238 0.00077159870248 0.0007706603349 0.00076972455415 0.00076879135567 0.0007678607449 0.00076693266116 0.00076600717106 0.00076508421494 
0.00076416377727 0.00076324583778 0.00076233039554 0.00076141744278 0.00076050698489 0.00075959897716 0.00078740227125 0.00078641969728 0.00078543991798 
0.00078446297416 0.00078348884607 0.00078251753553 0.00078154898969 0.00078058315725 0.00077962001592 0.00077865961155 0.00077770192994 0.00077674694409 
0.00077579468342 0.0007748450406 0.00077389805304 0.00077295370034 0.00077201196801 0.00077107288834 0.00077013636604 0.00076920244274 0.00076827105425 
0.00076734226737 0.00076641601234 0.00076549232203 0.00076457113611 0.0007636525034 0.00076273630475 0.0007618226184 0.00076091141502 0.0007600026922 
0.00078782952651 0.00078684618384 0.00078586563846 0.00078488794401 0.00078391306395 0.00078294096196 0.00078197164176 0.00078100504425 0.00078004117906 
0.00077908002647 0.00077812159395 0.0007771658588 0.00077621280198 0.00077526245639 0.00077431471943 0.00077336962799 0.00077242715231 0.00077148728813 
0.00077055007183 0.00076961541033 0.00076868332842 0.00076775379244 0.00076682680131 0.00076590233933 0.00076498046003 0.00076406106007 0.00076314415513 
0.00076222971751 0.00076131778276 0.00076040833054 0.00078825864061 0.00078727454104 0.00078629323279 0.00078531479936 0.0007843391575 0.00078336629017 
0.00078239617389 0.00078142882926 0.00078046422824 0.00077950231842 0.00077854313539 0.0007775866517 0.00077663284772 0.00077568174182 0.0007747332753 
0.0007737874402 0.00077284422369 0.00077190361938 0.00077096566868 0.00077003027723 0.00076909745451 0.00076816719122 0.00076723947132 0.00076631430347 
0.00076539166476 0.00076447149771 0.00076355387728 0.00076263872952 0.00076172600733 0.00076081582647 0.00078868960258 0.00078770472329 0.00078672271723 
0.00078574346096 0.00078476708576 0.00078379341635 0.00078282256115 0.00078185445508 0.00078088909771 0.00077992645519 0.00077896652265 0.00077800929061 
0.00077705474116 0.00077610286458 0.00077515368021 0.00077420710307 0.00077326314904 0.00077232181309 0.00077138312068 0.00077044697996 0.00076951342116 
0.00076858242686 0.00076765397432 0.00076672806033 0.00076580469682 0.00076488379106 0.00076396543276 0.00076304952471 0.00076213613833 0.00076122520391 
0.00078912236547 0.00078813674019 0.00078715394624 0.00078617392951 0.00078519675321 0.00078422236968 0.0007832507475 0.0007822818995 0.00078131578943 
0.00078035237842 0.00077939172036 0.00077843373362 0.00077747844048 0.00077652581931 0.00077557587582 0.00077462858685 0.00077368388872 0.00077274180143 
0.00077180237181 0.00077086549884 0.00076993120441 0.00076899947548 0.00076807028467 0.00076714361335 0.00076621951143 0.00076529790433 0.00076437882042 
0.00076346221266 0.00076254807718 0.00076163634985 0.00078955686281 0.00078857048269 0.00078758693003 0.00078660614466 0.00078562823489 0.00078465307988 