# vtk DataFile Version 5.1
vtk output
ASCII
DATASET STRUCTURED_POINTS
DIMENSIONS 76 38 38
SPACING 0.002 0.002 0.002
ORIGIN 0.1914 -0.040672 0.03932
POINT_DATA 109744
FIELD FieldData 1
potential 1 109744 double
0.026072884047 0.026456383501 0.026839047825 0.027220394187 0.027600011729 0.027977371974 0.028352053379 0.028723475349 0.029091226261 
0.02945474479 0.029813509067 0.030167078515 0.030514754012 0.03085608183 0.031190508633 0.031517499627 0.031836495264 0.032147002168 
0.032448355596 0.032740185424 0.033021960681 0.033293132114 0.033553195806 0.033801611444 0.034037969017 0.034261909833 0.034472955715 
0.034670616749 0.034854556201 0.035024421776 0.035179864673 0.0353206011 0.035446260255 0.035556630371 0.035651469241 0.035730554244 
0.035793730658 0.035840895402 0.035871869407 0.035886677861 0.035885260758 0.035867665437 0.035833856695 0.035783962561 0.035718113985 
0.035636398551 0.035539203116 0.035426524113 0.035298761818 0.035156132523 0.034999013598 0.034827682793 0.034642522081 0.034443899844 
0.034232267822 0.034007921096 0.033771340748 0.033522952665 0.033263213045 0.032992576999 0.03271146952 0.032420339007 0.032119665842 
0.031809946219 0.031491646931 0.031165216289 0.030831128791 0.030489867621 0.030142062438 0.029788106445 0.029428461585 0.029063675933 
0.02869427071 0.028320836101 0.027943880915 0.027564012873 0.02530077731 0.025664644185 0.026027562951 0.026389113083 0.026748809399 
0.027106285146 0.027461035778 0.027812638456 0.028160564218 0.028504410076 0.028843648514 0.029177801174 0.029506342738 0.029828915297 
0.030144788816 0.030453567461 0.030754756895 0.031047821405 0.031332317807 0.031607600494 0.031873378065 0.032129146867 0.032374403425 
0.032608651171 0.032831569675 0.03304268173 0.033241494918 0.033427812343 0.033601089455 0.033761163718 0.033907715961 0.034040295588 
0.034158705711 0.034262689036 0.034352028016 0.034426546251 0.034486082711 0.034530497547 0.034559704617 0.034573634551 0.034572259554 
0.034555623379 0.034523810258 0.034476784453 0.034414637109 0.034337662109 0.034245991193 0.034139843667 0.034019455226 0.033885041011 
0.033737034366 0.033575581805 0.033401112444 0.033213954981 0.033014481167 0.032803076019 0.032580123302 0.032346019549 0.032101177161 
0.031846033321 0.0315809426 0.031306378379 0.031022795134 0.030730552979 0.03043010279 0.030121960256 0.02980650391 0.029484175689 
0.029155446853 0.028820785609 0.028480672034 0.028135526048 0.027785944499 0.027432370529 0.027075401265 0.026715357783 0.024554918972 
0.024900181553 0.025244502811 0.025587393276 0.025928401097 0.026267146872 0.026603220086 0.026936176067 0.027265558385 0.027590872892 
0.027911803464 0.028227817731 0.02853846252 0.028843255534 0.029141730336 0.029433431705 0.029718032839 0.029994799571 0.030263395832 
0.030523345924 0.030774224719 0.031015470854 0.031246867255 0.031467906838 0.031678151987 0.031877254219 0.032064769319 0.032240459493 
0.032403955196 0.032554789916 0.032692882626 0.032817868965 0.032929468281 0.033027487899 0.033111719045 0.033181975117 0.033238080666 
0.033279942184 0.033307348233 0.033320461551 0.033319251002 0.03330351079 0.033273463538 0.03322900599 0.033170459749 0.033097874481 
0.033011441141 0.032911374109 0.032797881387 0.032671197556 0.03253163355 0.032379409637 0.032214934046 0.032038511393 0.03185047674 
0.031651179228 0.031440977347 0.031220231564 0.030989334463 0.030748683319 0.030498611489 0.030239560138 0.029971899346 0.029696028804 
0.029412355151 0.029121291105 0.028823218916 0.02851857561 0.028207775747 0.027891271553 0.027569451857 0.027242787835 0.026911879756 
0.026576972626 0.026238626892 0.02589734135 0.023833894469 0.024161859904 0.024488543548 0.024813834311 0.025137265618 0.025458395464 
0.02577687443 0.026092294948 0.026404253131 0.026712293664 0.027015968183 0.027314948007 0.027608779752 0.027897005266 0.028179188438 
0.028454892062 0.02872368009 0.028985143268 0.029238977641 0.029484471883 0.029721346324 0.029949181628 0.030167498797 0.030376086014 
0.030574490019 0.030762321659 0.030939303402 0.031105018968 0.03125919849 0.031401541891 0.031531772322 0.031649526126 0.03175474546 
0.031847176434 0.031926587235 0.031992809147 0.032045705479 0.032085166456 0.032111091512 0.032123444296 0.032122181892 0.032107358749 
0.03207889313 0.032037035666 0.031981797733 0.031913344522 0.031831846452 0.031737479355 0.031630447131 0.031510987674 0.031379374625 
0.031235887127 0.031080824011 0.030914462514 0.030737081755 0.030549108864 0.030350848202 0.03014261192 0.029924785863 0.029697647587 
0.029461642866 0.029217081711 0.028964360456 0.028703824359 0.028435821019 0.028160763415 0.027879007504 0.02759096508 0.027296999199 
0.026997504452 0.026692867154 0.026383687695 0.026070147227 0.025752793823 0.025432064805 0.025108280121 0.02313682679 0.023448347419 
0.02375865433 0.024067258909 0.024374101477 0.024678682279 0.024980604157 0.025279532612 0.02557507618 0.025866849373 0.026154446816 
0.026437373792 0.026715423536 0.026988069076 0.027254953942 0.027515645771 0.0277697455 0.028016845474 0.02825655269 0.028488478382 
0.028712204887 0.02892754535 0.029133774677 0.029330609144 0.029517915519 0.02969519768 0.029862189337 0.030018567852 0.03016404153 
0.030298336103 0.030421182347 0.030532366992 0.030631644904 0.03071883175 0.03079364757 0.030856105379 0.030905992179 0.030943200418 
0.030967658377 0.03097930693 0.030978048926 0.030964006078 0.030937200909 0.030897691925 0.030845591433 0.030781022875 0.030704177478 
0.030615118905 0.030514160621 0.030401478716 0.030277327744 0.030141979173 0.029995697601 0.029838765054 0.029671472725 0.029494133396 
0.029307051685 0.029110485536 0.028904796321 0.028690423796 0.028467591556 0.028236643809 0.027997906707 0.027751714097 0.027498428667 
0.027238371804 0.026971920098 0.026699416081 0.026421238146 0.02613768882 0.02584939143 0.025556419216 0.025259324878 0.024958506668 
0.02465424471 0.024347196516 0.022462893681 0.022758892161 0.023053630623 0.023346769865 0.023637993027 0.023926811868 0.024213160798 
0.024496573884 0.024776694084 0.025053138671 0.025325555552 0.025593563552 0.025856683619 0.02611474603 0.026367265029 0.02661386318 
0.026854135422 0.027087766786 0.027314364021 0.027533538727 0.027744942748 0.027948217956 0.028143030543 0.028329013791 0.028506055427 
0.028673361021 0.028831015024 0.028978608642 0.029115901891 0.029242652144 0.029358596777 0.029463520688 0.029557216208 0.029639472058 
0.029710133995 0.029769069885 0.029816141322 0.029851172398 0.029874242639 0.029885170927 0.029884027957 0.029870752366 0.029845459375 
0.029808172381 0.029759027992 0.029698132725 0.029625554923 0.02954155467 0.029446300761 0.029339990739 0.029222851005 0.02909514559 
0.028957114117 0.028809016061 0.028651137524 0.028483654387 0.028307090603 0.028121551121 0.027927398921 0.027724923418 0.027514416456 
0.027296147234 0.0270705081 0.026837790462 0.026598272015 0.026352306057 0.026100211088 0.025842335676 0.025579046449 0.025310573249 
0.02503733302 0.024759719644 0.02447809045 0.024192686459 0.023904217791 0.023612983632 0.021811400095 0.022092752745 0.022372788969 
0.022651208259 0.02292770631 0.023201978433 0.02347351761 0.023742314038 0.02400789762 0.024269937921 0.024528065206 0.024781953158 
0.025031237763 0.025275474596 0.02551447907 0.025747835426 0.025975181978 0.026196166139 0.026410439765 0.026617625988 0.026817471454 
0.027009583125 0.027193641755 0.027369351388 0.027536399663 0.027694499193 0.02784327605 0.027982657706 0.028112281337 0.0282321569 
0.028341612232 0.028440672807 0.02852910794 0.028606744431 0.02867344569 0.028729062739 0.028773501555 0.028806608477 0.028828368977 
0.028838726168 0.028837640111 0.02882506059 0.028801185024 0.028766008488 0.028719636797 0.028662136144 0.028593658253 0.028514387161 
0.028424483808 0.028324158521 0.028213471562 0.028092943307 0.027962657323 0.027822909514 0.027673861226 0.027515811944 0.027349039058 
0.027173794445 0.026990373699 0.026799054278 0.026600111038 0.026393834522 0.026180479499 0.025960365981 0.025733802103 0.025501003699 
0.025262407951 0.02501834957 0.024768880884 0.024514532166 0.024255596593 0.023992308474 0.023725242015 0.023454657466 0.023181012405 
0.022904420667 0.021181660479 0.021449271785 0.021715443141 0.021979970369 0.022242583185 0.022502979934 0.022760875488 0.023015763957 
0.023267666402 0.023516121768 0.023760813706 0.024001416692 0.024237588485 0.024469007165 0.0246953372 0.024916134568 0.025131303293 
0.025340405052 0.025543109518 0.02573909327 0.025928064296 0.02610970221 0.026283699348 0.026449705163 0.026607559331 0.026756930338 
0.026897575836 0.027029236883 0.027151607347 0.027264585608 0.027367951735 0.027461463675 0.027544970392 0.027618285054 0.027681269898 
0.027733818715 0.02777572686 0.027806997837 0.027827553068 0.02783732337 0.027836320384 0.027824539229 0.027802077505 0.027768872757 
0.02772507771 0.02767071833 0.027606111238 0.027531289139 0.027446422553 0.027351768783 0.027247420758 0.027133634899 0.027010609997 
0.026878598064 0.026737826937 0.026588539452 0.026430960807 0.026265365989 0.026092013797 0.02591115767 0.025723053859 0.025527931703 
0.025326142429 0.025117891224 0.024903445541 0.024683253535 0.024457297153 0.024225969604 0.023989649951 0.02374859501 0.023503011316 
0.023253403316 0.023000055103 0.022743432371 0.022483544495 0.022220927246 0.020573197711 0.020827782993 0.021080930527 0.021332358535 
0.021581876332 0.02182919934 0.022074065054 0.022316161574 0.022555022644 0.022790721982 0.023022755571 0.023250846646 0.023474690355 
0.023693960976 0.023908358433 0.024117568498 0.024321186006 0.024519097508 0.024710922948 0.024896356523 0.025075110827 0.025246907612 
0.025411435365 0.025568436791 0.025717657774 0.025858850336 0.025991772286 0.02611618274 0.026231879968 0.026338505737 0.026436118458 
0.026524461284 0.026603330653 0.02667259258 0.026732068108 0.02678166742 0.026821282548 0.02685083311 0.026870232164 0.026879483047 
0.02687855353 0.02686749622 0.026846255212 0.026814993596 0.026773646271 0.026722408879 0.026661415053 0.026590770465 0.026510646912 
0.026421221668 0.02632267702 0.026215196315 0.026099006018 0.025974322928 0.025841224941 0.025700133539 0.025551197914 0.02539464786 
0.025230732479 0.025059690472 0.024881705995 0.024697132567 0.024506202094 0.024309058069 0.024106142438 0.02389747013 0.023683376166 
0.023464191947 0.023240069818 0.023011546793 0.022778742365 0.022541978931 0.022301719485 0.022057961261 0.021811204242 0.021561758331 
0.019985644795 0.020227833729 0.0204686782 0.020707727643 0.020944972371 0.021179965942 0.021412538695 0.021642429094 0.021869346164 
0.022092829483 0.022312958057 0.022529270127 0.022741492152 0.02294933741 0.023152502656 0.023350710552 0.023543673174 0.023731099148 
0.023912587077 0.024088085961 0.024257235804 0.024419774934 0.024575421357 0.024723923071 0.02486503656 0.024998534277 0.025124195485 
0.025241801105 0.025351152663 0.025452063124 0.025544338346 0.025627712461 0.025702222122 0.02576765992 0.025823867476 0.025870735161 
0.025908169735 0.02593608936 0.025954447481 0.025963234005 0.025962379106 0.025951907759 0.025931870954 0.025902298906 0.025863287791 
0.025814940201 0.025757308489 0.025690616771 0.025614960852 0.025530494956 0.02543740411 0.025335861001 0.025226082454 0.025108193112 
0.024982458745 0.024849084335 0.024708241506 0.024560182275 0.024405118804 0.024243221448 0.024074824158 0.02390009607 0.023719408895 
0.023532693803 0.023340364276 0.023142611859 0.022939717554 0.022731828176 0.022519433425 0.022302668033 0.022081796726 0.021857263637 
0.021629058529 0.021397598086 0.021163209466 0.020926187257 0.01941859186 0.019649023743 0.019878138055 0.020105545639 0.020331130246 
0.020554585298 0.020775573833 0.020993944987 0.021209429492 0.021421763788 0.021630498203 0.021835734563 0.022037016277 0.022234094347 
0.022426699222 0.022614553141 0.022797392249 0.022974938476 0.023146939838 0.023313132874 0.023473133862 0.023626956899 0.023774271429 
0.023914778667 0.024048274016 0.024174548737 0.024293391457 0.024404607675 0.024508003347 0.024603400451 0.024690640422 0.024769541711 
0.024839993422 0.024901736902 0.024954865624 0.024999163235 0.025034537568 0.025060950664 0.025078361317 0.025086655467 0.02508587149 
0.025075993677 0.025057079712 0.025029177638 0.024992363314 0.024946690788 0.024892298004 0.024829286099 0.024757817373 0.024678016938 
0.024590093733 0.024494092706 0.024390297753 0.024278840022 0.024159950332 0.024033768395 0.023900550681 0.023760456053 0.023613639377 
0.023460432596 0.023301123272 0.023135652099 0.022964344549 0.022787439703 0.02260513435 0.02241757107 0.022225210834 0.022028174759 
0.021826691287 0.021621000933 0.021411513416 0.02119821623 0.020981491921 0.02076163156 0.020538937769 0.020313644183 0.018871491239 
0.019090902346 0.019308894072 0.019525275588 0.019739840329 0.019952312442 0.020162475673 0.02036997796 0.020574687153 0.020776337923 
0.020974695795 0.021169491539 0.021360338857 0.02154727334 0.021729925052 0.021908035648 0.022081345384 0.02224960319 0.022412567244 
0.022570006385 0.02272167188 0.022867333411 0.023006640451 0.023139657919 0.023266007762 0.023385489292 0.023497936558 0.023603144423 
0.02370095021 0.023791181349 0.023873692194 0.023948308401 0.024014917284 0.024073398309 0.024123594649 0.024165415171 0.024198913365 
0.024223908523 0.024240345243 0.024248213589 0.024247497781 0.024238199698 0.024220365969 0.024194011692 0.024159240658 0.024116120522 
0.024064740595 0.024005223005 0.023937672895 0.023862294708 0.023779108341 0.023688365884 0.023590195722 0.023484794764 0.023372304087 
0.023252907186 0.02312675868 0.022994144729 0.022855330358 0.022710211607 0.022559151722 0.022402361678 0.022240013062 0.022072191368 
0.021899328084 0.021721567623 0.021539122037 0.021352159087 0.021161074282 0.020965837423 0.020766812293 0.020564228053 0.020358333679 
0.020149423547 0.019937733312 0.019723567515 0.018343933164 0.018552923553 0.018760492298 0.018966421612 0.019170522789 0.019372550712 
0.019572467455 0.019769721747 0.0199643749 0.020155957174 0.020344354869 0.020529336619 0.020710647202 0.020887905843 0.021061175935 
0.021230120544 0.021394473626 0.021553999755 0.021708477913 0.021857665077 0.022001362851 0.022139350701 0.022271424137 0.022397414666 
0.022517040613 0.022630008434 0.022736423594 0.022836010073 0.022928564535 0.023013943511 0.023091997483 0.023162600773 0.023225618403 
0.023280961824 0.023328467179 0.023368101641 0.023399750196 0.023423340913 0.023438908164 0.02344637476 0.023445719551 0.023436968173 
0.023420137744 0.023395272541 0.023362438496 0.023321686154 0.02327314037 0.023216946779 0.023153098032 0.023081753955 0.023003108225 
0.022917249921 0.022824376976 0.022724637308 0.022618150603 0.022505075524 0.022385806917 0.022260188864 0.022128545991 0.021991065867 
0.021847818261 0.021699158973 0.021545207749 0.02138615075 0.021222160343 0.021053521677 0.020880352789 0.020703039136 0.020521483428 
0.020336079887 0.020147016759 0.019954538357 0.019758873094 0.019560308403 0.019359046371 0.019155358909 0.017835431727 0.018034573791 
0.018232296586 0.018428393706 0.018622664774 0.018814891687 0.019004922092 0.019192665239 0.019377591977 0.019559809321 0.01973882427 
0.019914541371 0.020086743107 0.020255189797 0.020419686813 0.020579832172 0.020735728797 0.020887084812 0.021033563345 0.021175001117 
0.021311215449 0.021441985044 0.021567125782 0.021686427953 0.021799775916 0.02190690017 0.022007693803 0.022101852307 0.022189473765 
0.022270294988 0.022344179913 0.02241102473 0.02247067114 0.022523020121 0.022567994754 0.022605523084 0.022635500426 0.02265785084 
0.022672598946 0.022679640821 0.022679061578 0.022670816165 0.022654926198 0.022631448014 0.022600430594 0.022561999006 0.022516109033 
0.022462872547 0.022402490888 0.022335030368 0.022260607318 0.022179402826 0.022091475908 0.021996975022 0.021896289254 0.02178922375 
0.021676094721 0.021556992276 0.021432211475 0.021301865787 0.021166100472 0.021025095051 0.020879063763 0.020728130349 0.020572549196 
0.02041258602 0.020248177868 0.020079643835 0.019907210074 0.019731054108 0.019551363884 0.019368408427 0.019182422411 0.018993593425 
0.018802174255 0.018608382281 0.017345466844 0.017535241761 0.017723658177 0.017910460735 0.018095468997 0.018278493676 0.018459385079 
0.018637869046 0.018813785471 0.01898706621 0.019157234646 0.019324349042 0.019487950591 0.019647936121 0.019804135571 0.019956342909 
0.020104157747 0.0202477181 0.020386682343 0.020520849113 0.020649995485 0.020774003866 0.020892633722 0.021005726265 0.021113111121 
0.021214656957 0.021310141089 0.021399457508 0.02148246868 0.021559011186 0.021628986891 0.021692154706 0.021748626216 0.021798221734 
0.021840810502 0.021876336151 0.021904720807 0.021925927522 0.021939906217 0.02194661512 0.021946097425 0.021938284146 0.021923288725 
0.021901183889 0.021871856641 0.021835428982 0.021792034627 0.021741721712 0.021684592098 0.021620721221 0.021550293213 0.021473341809 
0.021390259363 0.021300775834 0.021205175483 0.021103715542 0.020996476526 0.020883608928 0.020765285651 0.020641631304 0.020512832937 
0.020379032091 0.020240403097 0.020097290678 0.019949563959 0.019797515491 0.019641338673 0.019481237778 0.01931736633 0.01914993477 
0.018979140805 0.018805174635 0.018628264206 0.018448639836 0.018266498625 0.018082053015 0.016873431671 0.017054469747 0.017234087346 
0.017412056328 0.017588351756 0.01776266576 0.017934899499 0.01810478784 0.018272182865 0.018436892643 0.018598785003 0.018757616722 
0.01891311418 0.019065292455 0.01921369966 0.019358257316 0.019498794445 0.019635091287 0.019766784206 0.019894107507 0.020016669842 
0.020134283057 0.020246791778 0.020354051239 0.020455867619 0.020552128117 0.020642656644 0.020727304207 0.020805956819 0.020878505401 
0.020944804049 0.021004761686 0.021058276907 0.02110524017 0.021145589121 0.021179238593 0.021206132244 0.021226144575 0.021239406897 
0.021245817557 0.021245428933 0.021238112422 0.021223917622 0.021202948704 0.021175158775 0.021140737692 0.02109967554 0.021052058136 
0.020997975471 0.020937607201 0.020870914802 0.02079804434 0.020719143858 0.020634355861 0.020543791846 0.020447575722 0.020345848898 
0.020238782692 0.020126518847 0.02000916906 0.019886906793 0.01976000051 0.019628396171 0.019492330483 0.019351974593 0.01920750476 
0.019059121359 0.018906931037 0.01875114957 0.018591936302 0.018429493108 0.018264002388 0.018095689064 0.017924745202 0.017751360731 
0.017575739862 0.016418988384 0.016591670918 0.016762965637 0.016932695124 0.017100686481 0.017266772577 0.017430751185 0.017592568648 
0.017751923756 0.017908682452 0.018062660901 0.018213686507 0.018361583695 0.018506197025 0.018647253663 0.018784763933 0.018918274926 
0.019047758116 0.019173028066 0.019293894309 0.019410081703 0.019521708838 0.019628471637 0.019730232058 0.019826806702 0.019918093473 
0.020003963925 0.020084247744 0.020158819544 0.020227599608 0.02029046565 0.020347304261 0.020398020125 0.020442546331 0.02048078605 
0.020512681403 0.020538183164 0.020557249773 0.020569925462 0.02057599379 0.020575593923 0.020568685874 0.020555263118 0.020535428208 
0.020509162236 0.020476574263 0.020437834639 0.020392652603 0.020341421356 0.020284162664 0.020220951894 0.020151890796 0.020077092629 
0.019996676204 0.019910787699 0.019819517367 0.019723012034 0.019621399006 0.019514834454 0.019403488931 0.019287381683 0.019166726255 
0.019041682833 0.018912390028 0.018779003876 0.018641691128 0.018500580088 0.018355856085 0.018207683135 0.018056234908 0.017901665782 
0.0177441954 0.017583981698 0.017421225418 0.017256101088 0.017088816479 0.015981511481 0.016146323525 0.016309748432 0.016471636509 
0.016631809579 0.016790096206 0.016946399722 0.01710052044 0.017252283557 0.017401542852 0.017548111653 0.017691828577 0.017832525555 
0.017970058602 0.018104195525 0.018234852993 0.018361755753 0.018484799408 0.018603962637 0.018718788881 0.018829297379 0.018935125283 
0.019036511431 0.019133081201 0.019224770004 0.019311405542 0.019392875695 0.019469061359 0.019539813503 0.019605064621 0.019664686229 
0.019718572094 0.019766674698 0.019808903485 0.019845268249 0.019875529119 0.019899721438 0.019917812246 0.019929747546 0.019935517865 
0.01993515893 0.01992864834 0.019915997421 0.019897391262 0.019872482606 0.019841620246 0.019804782438 0.019762024422 0.019713475098 
0.01965918754 0.019599240137 0.019533744562 0.019462800572 0.019386514748 0.019304994347 0.019218382235 0.019126770661 0.019030373676 
0.018929138899 0.018823280439 0.018712958763 0.018598298042 0.018479415573 0.018356505323 0.018229694649 0.018099084562 0.017964853942 
0.017827166762 0.01768615978 0.017542027374 0.017394888137 0.017244958761 0.017092391294 0.016937372321 0.016780060476 0.016620615201 
0.015560426253 0.015717789289 0.015873778936 0.016028244497 0.016181044639 0.016332024657 0.016481041294 0.016627916275 0.016772527175 
0.016914750508 0.01705433298 0.017191148958 0.017325075424 0.017455880457 0.017583504304 0.017707754419 0.017828437933 0.017945479965 
0.018058610017 0.018167762186 0.018272908685 0.018373637729 0.018469919459 0.018561514798 0.0186485626 0.018730838207 0.018808176127 
0.018880502061 0.018947679306 0.019009693707 0.019066275506 0.019117430951 0.019163086489 0.019203154904 0.019237579376 0.019266296982 
0.019289246592 0.019306385723 0.019317770921 0.019323302186 0.019323127591 0.019316908252 0.019304939093 0.019287184623 0.019263660267 
0.019234407234 0.01919950464 0.019158993239 0.019112960032 0.019061460085 0.019004581257 0.018942401983 0.018875062131 0.018802662477 
0.018725331837 0.018643078565 0.01855605722 0.018464378074 0.018368190789 0.018267570193 0.018162711188 0.018053674079 0.017940652653 
0.017823737753 0.017703070134 0.017578812061 0.017451070774 0.017319976975 0.017185754854 0.017048505639 0.016908397253 0.016765562686 
0.016620207322 0.016472469773 0.016322594863 0.016170412624 0.015155239096 0.015305571232 0.015454513202 0.015601966268 0.015747778297 
0.015891821475 0.016033951923 0.016174015963 0.01631187115 0.016447351052 0.016580384212 0.016710719148 0.016838244904 0.016962825343 
0.017084301409 0.017202537475 0.017317378003 0.017428686683 0.01753631947 0.017640122964 0.017739993328 0.017835762545 0.017927294445 
0.018014469076 0.018097346102 0.018175315679 0.018248804734 0.018317489881 0.018381301486 0.018440120139 0.018493851666 0.018542431729 
0.018585783809 0.018623832575 0.018656482755 0.018683742088 0.018705709438 0.018721978919 0.018732789062 0.018738062206 0.018737792837 
0.018731992976 0.018720672028 0.018703845048 0.018681550069 0.018653824754 0.018620721422 0.018582309394 0.018538616939 0.018489735159 
0.018435760576 0.018376788604 0.018312835003 0.018244038692 0.018170508488 0.0180923329 0.01800963021 0.01792248934 0.017831027018 
0.017735361504 0.017635602812 0.017531904716 0.017424348776 0.017313070824 0.017198221234 0.017079916015 0.016958301024 0.016833486524 
0.01670563309 0.016574905807 0.016441411537 0.01630539104 0.016166830968 0.016025979727 0.015882792849 0.015737824982 0.014765416057 
0.014909054431 0.015051371271 0.015192134405 0.015331363087 0.01546882874 0.015604431677 0.01573805191 0.015869524724 0.015998717515 
0.016125487825 0.016249745342 0.016371236649 0.016489898789 0.016605578392 0.016718157629 0.016827482379 0.016933447947 0.017035860085 
0.017134617684 0.017229598519 0.017320671233 0.017407721269 0.017490662238 0.017569358488 0.017643651099 0.017713458093 0.017778756617 
0.017839187454 0.01789520209 0.017946359774 0.01799252815 0.01803371912 0.018069871849 0.018100917289 0.018126844105 0.018147590531 
0.018163122358 0.01817340712 0.018178440585 0.018178222793 0.018172733067 0.018162009575 0.018146061394 0.018124917109 0.018098614683 
0.018067232397 0.018030761122 0.017989288536 0.017942878557 0.0178915913 0.017835524434 0.017774758246 0.01770937639 0.017639472467 
0.017565167213 0.017486476274 0.017403583735 0.017316560059 0.017225540013 0.017130629675 0.01703192124 0.016929581139 0.016823645094 
0.016714279155 0.016601609749 0.016485712822 0.016366794857 0.016245075382 0.016120467267 0.015993212376 0.015863449242 0.015731114661 
0.015596754143 0.015460332943 0.015321990988 0.014390269239 0.014527587875 0.014663582663 0.014798153799 0.014931143928 0.015062442757 
0.01519190742 0.015319433417 0.015444864558 0.01556810828 0.015689009962 0.015807435255 0.015923299537 0.016036319859 0.016146574894 
0.01625383395 0.016357939757 0.016458821009 0.016556334781 0.016650354068 0.016740871098 0.016827553521 0.016910388256 0.016989243773 
0.017064073353 0.01713475748 0.017201183325 0.017263242114 0.017320904515 0.017374054371 0.01742249095 0.017466378136 0.017505533455 
0.01753991823 0.017569458567 0.017594121069 0.01761386899 0.017628654738 0.017638458072 0.017643273363 0.017643096662 0.017637929124 
0.017627768155 0.017612650114 0.017592610073 0.017567649383 0.017537834043 0.017503183434 0.017463775025 0.01741965368 0.017370907378 
0.017317638032 0.017259858572 0.01719770071 0.017131183679 0.017060430838 0.016985576825 0.016906684639 0.016823853918 0.016737196549 
0.01664682515 0.016552825901 0.016455317512 0.016354404066 0.016250209062 0.016142914223 0.016032487218 0.015919140015 0.015802992317 
0.015684174172 0.01556287159 0.015438913529 0.015312874787 0.015184650076 0.015054431388 0.014922319579 0.014029334104 0.014160652991 
0.014290678613 0.014419320749 0.014546406319 0.014671844579 0.014795504946 0.014917257058 0.015037008363 0.015154638578 0.015270002418 
0.015382958114 0.015493432881 0.015601322801 0.015706429152 0.015808658446 0.015907891434 0.01600401494 0.016096919399 0.016186480107 
0.016272584475 0.016355096026 0.016433933284 0.016509028686 0.016580267641 0.016647539499 0.01671077204 0.016769870925 0.016824723781 
0.016875252894 0.016921445435 0.016963222284 0.017000482807 0.017033072123 0.017061190932 0.017084658024 0.017103457804 0.01711753236 
0.017126884392 0.017131485557 0.017131353578 0.01712646754 0.017116840045 0.017102496513 0.017083451598 0.017059748208 0.017031428069 
0.016998490583 0.016961013513 0.016919063994 0.016872711296 0.016822004226 0.016767052145 0.016707865987 0.016644541225 0.016577214937 
0.016505938223 0.016430811782 0.016351937 0.016269405467 0.01618330215 0.016093823863 0.01600089794 0.015904717646 0.015805385548 
0.01570303493 0.015597759022 0.015489669791 0.015378887591 0.015265355896 0.015149546042 0.015031450989 0.014911138872 0.014788685597 
0.014664273712 0.014538070731 0.013682014505 0.013807684962 0.013932084595 0.01405508575 0.014176596709 0.014296471331 0.014414631232 
0.014530960339 0.014645323067 0.014757640134 0.014867759525 0.014975585728 0.015081010888 0.015183901222 0.015284168831 0.01538166758 
0.015476287535 0.015567921595 0.015656470032 0.015741819715 0.015823866909 0.015902513921 0.015977646846 0.016049191214 0.016117048309 
0.01618108129 0.016241311104 0.016297571645 0.01634982675 0.016397933326 0.016441855264 0.016481631174 0.016517142283 0.016548287266 
0.016575057135 0.016597407488 0.0166151988 0.016628587177 0.016637553403 0.016641983924 0.016641872391 0.016637242338 0.016628108284 
0.016614481162 0.016596361798 0.016573801631 0.016546848604 0.016515535123 0.016479888085 0.016439981895 0.016395891219 0.016347616353 
0.016295254132 0.01623887307 0.016178660397 0.016114529359 0.016046629504 0.015975058044 0.015899903703 0.015821246952 0.015739182879 
0.015653808457 0.015565221206 0.015473504383 0.015378785698 0.015281160743 0.01518073603 0.015077435055 0.014971715123 0.014863531354 
0.014752998629 0.014640231943 0.014525291411 0.014408310572 0.014289453834 0.014168832782 0.013347849116 0.013468100569 0.013587128333 
0.013704791207 0.013821011105 0.01393566523 0.014048620232 0.014159801486 0.014269102883 0.014376390291 0.014481582482 0.0145845624 
0.014685202597 0.014783415488 0.01487908167 0.014972135749 0.0150624129 0.015149817234 0.015234262863 0.015315647724 0.01539384767 
0.015468820806 0.015540446899 0.015608635893 0.015673302903 0.015734383308 0.015791764547 0.015845317197 0.015895091292 0.015940975072 
0.015982894944 0.016020719633 0.016054525038 0.016084232235 0.016109773517 0.01613108494 0.01614814462 0.016160940419 0.016169459856 
0.01617358875 0.016173508459 0.01616913085 0.016160461539 0.016147500489 0.016130298467 0.016108837369 0.016083188784 0.016053386439 
0.016019466395 0.015981482384 0.015939452947 0.015893461167 0.015843564103 0.015789864918 0.015732419448 0.015671295042 0.015606582366 
0.015538356668 0.015466697458 0.015391696831 0.015313441633 0.015232010861 0.015147499792 0.015060020229 0.01496965451 0.014876494907 
0.014780478744 0.01468203519 0.014581097558 0.014477841594 0.01437224156 0.014264465347 0.014154605133 0.014042816745 0.013929195107 
0.013813857738 0.013026179699 0.013141369067 0.013255343033 0.013367947858 0.013479159692 0.013588831993 0.013696899359 0.013803191159 
0.013907669883 0.014010213055 0.01411072168 0.014209093546 0.014305228061 0.01439901793 0.014490367486 0.014579167844 0.014665327359 
0.01474879248 0.014829376374 0.014907023897 0.014981651883 0.015053170063 0.015121486912 0.015186534189 0.015248221525 0.015306425936 
0.015361138577 0.015412265648 0.015459732022 0.015503480037 0.015543370234 0.015579517817 0.015611687812 0.015639977307 0.015664331766 
0.015684651686 0.015700932819 0.015713154026 0.015721288177 0.015725336235 0.01572526842 0.015721120227 0.015712872731 0.015700487632 
0.015684117643 0.015663711495 0.015639299929 0.015610903504 0.015578584898 0.01554236608 0.01550228904 0.01545845109 0.01541092001 
0.015359721935 0.015304942768 0.015246656849 0.015184932107 0.015119855406 0.015051499863 0.014979951854 0.014905281673 0.014827576196 
0.014746936596 0.014663436538 0.014577014402 0.014488073326 0.014396549211 0.014302606202 0.014206178669 0.014107460953 0.01400653533 
0.01390349909 0.013798472024 0.013691563421 0.013582876341 0.013472514203 0.012716533845 0.012826896522 0.012936052011 0.013043903098 