# vtk DataFile Version 5.1
vtk output
ASCII
DATASET STRUCTURED_POINTS
DIMENSIONS 26 14 26
SPACING 0.08 0.08 0.08
ORIGIN 2.7 -0.52 0
POINT_DATA 9464
FIELD FieldData 1
potential 1 9464 double
0.0087649739816 0.0090442809645 0.0093270753324 0.0096106113263 0.0098967339523 0.010189231944 0.010488391258 0.01078891398 0.011081452277 
0.011357040025 0.011614713068 0.011864602174 0.012121532382 0.012398757803 0.012705943637 0.013049123719 0.013429918024 0.013844806344 
0.014285647904 0.014741246682 0.015198962985 0.015647138626 0.016079474832 0.016497898105 0.016908334441 0.017314919589 0.0098216418473 
0.010137125606 0.010459309303 0.010786958464 0.011120231289 0.011459635153 0.011804510416 0.012152171702 0.012498719784 0.012841146951 
0.013179966176 0.013519862582 0.013868115697 0.014231922587 0.014616959464 0.015026587468 0.015461358901 0.015918890471 0.016394130126 
0.016880213228 0.017369604963 0.017855672565 0.018334201742 0.018804068148 0.019266243607 0.019721311771 0.010668409288 0.011017523703 
0.011375263835 0.011740962625 0.012114244241 0.012494840521 0.012882024285 0.013274353487 0.013670252677 0.01406880212 0.014470727201 
0.014878588927 0.015296236403 0.015727621053 0.016175899744 0.016642863826 0.017128548355 0.017631086611 0.018147082199 0.018671909529 
0.019200579934 0.019728433703 0.020252119618 0.020769364831 0.021278938288 0.02177963115 0.011336849193 0.011716499057 0.012106327933 
0.012505765118 0.012914443482 0.013331908335 0.013757591925 0.014190763093 0.014630779626 0.015077479679 0.015531509121 0.015994464299 
0.016468485911 0.016955754666 0.017458013046 0.017976087685 0.018509653 0.01905713773 0.01961591038 0.020182581308 0.020753336857 
0.021324583881 0.021893024513 0.022455913268 0.023010924827 0.023555722211 0.011837002117 0.01224404203 0.012662590308 0.013092189753 
0.013532443632 0.0139829422 0.014443238648 0.014912981725 0.015391914961 0.015880191241 0.016378370434 0.01688751963 0.017408972354 
0.017943947004 0.018493416149 0.019057610152 0.019635912176 0.020226983146 0.020828517079 0.021437876612 0.022051667891 0.022666646739 
0.023279536591 0.023887219744 0.024486587047 0.025075034546 0.012157414151 0.012588614278 0.013032500389 0.013488680649 0.013956722246 
0.014436262433 0.014926956208 0.015428595152 0.015941185082 0.01646496029 0.017000512025 0.017548641086 0.018110246355 0.018686241067 
0.019277010791 0.019882532402 0.020502197112 0.021134535918 0.021777715441 0.022429015531 0.023085411551 0.023743611736 0.024400366249 
0.025052130171 0.025695442314 0.026326938629 0.01219213921 0.012641765412 0.013105442255 0.013582652975 0.01407288444 0.014575731947 
0.015090886047 0.015618194541 0.016157735897 0.016709883057 0.017275279149 0.017854675022 0.018448954635 0.019058734898 0.019684445496 
0.020325916771 0.020982452161 0.021652813398 0.022334780861 0.023026041732 0.023723551152 0.024423925661 0.025123519342 0.025818477763 
0.026505034156 0.027179011868 0.012136472121 0.012608081977 0.013094429643 0.0135949575 0.014109103873 0.014636369928 0.015176415518 
0.015729093754 0.016294595552 0.01687341119 0.017466419846 0.018074497815 0.018698723962 0.019339916982 0.019998534286 0.020674637599 
0.02136733483 0.022075508527 0.022797213926 0.023529697344 0.024269969443 0.025014448802 0.025759008165 0.026499752361 0.027231937534 
0.027951260231 0.012112984891 0.012600404037 0.013103373513 0.013621134129 0.014152906128 0.014697961596 0.01525581588 0.015826264901 
0.0164094717 0.01700625361 0.017617676639 0.018245101297 0.01889006475 0.019553856153 0.020237201305 0.020940246223 0.021662596422 
0.022403028725 0.023159330467 0.023929003766 0.024708512982 0.025494068885 0.026281402034 0.027065585034 0.02784188976 0.02860494771 
0.012023187169 0.012522492372 0.013037962917 0.013568537282 0.014113106229 0.014670590359 0.01524010312 0.015821207404 0.016414151123 
0.017019899634 0.01764002777 0.018276873368 0.018932699225 0.019609457264 0.02030852483 0.021030670997 0.021775596428 0.022541960205 
0.023327656325 0.024129857181 0.024944997935 0.025768760511 0.026596314957 0.027422384735 0.028241186736 0.029046766304 0.011835417163 
0.012342410115 0.012866007623 0.013404734742 0.013956900247 0.014520761615 0.0150948893 0.015678354355 0.016270997447 0.016874204948 
0.017490627656 0.018123793953 0.018777300741 0.019454627869 0.02015803207 0.020888947672 0.021646837667 0.022430827861 0.023238784889 
0.024067536239 0.024913075592 0.025770893175 0.0266353227 0.027500303916 0.028359125548 0.02920531587 0.011528891645 0.01203881571 
0.012565736744 0.013107418157 0.013661389578 0.014224890588 0.014795412681 0.015370634773 0.015950094458 0.016535341852 0.017130537864 
0.017741524594 0.018374763789 0.019035534849 0.019727699594 0.020452637645 0.021210886995 0.022001349074 0.022821552734 0.023668201482 
0.02453680588 0.025422215239 0.026318137563 0.027217679585 0.028113253853 0.028996856038 0.011117988455 0.0116255018 0.012150186547 
0.012689095158 0.013238423184 0.013794049497 0.014351056293 0.014905224554 0.015453908529 0.015998744722 0.016546502152 0.01710793296 
0.017694228178 0.018314095412 0.018972229635 0.019671508035 0.020412261108 0.021193100091 0.022011464499 0.022863644819 0.023744531335 
0.024648258672 0.025567675448 0.026494854446 0.027421051799 0.028336439674 0.01050085263 0.010999601589 0.011515767269 0.012045254472 
0.012582961705 0.013122235004 0.01365473804 0.014171608065 0.014664986869 0.015134074253 0.015591067425 0.016058265705 0.016556287456 
0.017097613348 0.017689364011 0.018334077764 0.019031564483 0.019779724012 0.020575660606 0.021414769268 0.022291535442 0.023199185856 
0.024129803617 0.025074010512 0.026021150498 0.02695987084 0.0088945315818 0.0091766093028 0.009462638381 0.0097502368182 0.010040870925 
0.010337660396 0.010640699795 0.010945284111 0.011243192145 0.011526829062 0.0117955641 0.012058168819 0.012327696337 0.012616173125 
0.012932456561 0.013281992598 0.013666116239 0.014081509327 0.014520675991 0.014973338385 0.015428041278 0.015874453785 0.016307039307 
0.016727305199 0.017140058947 0.017548773094 0.0099172016491 0.01023500356 0.010559689622 0.010890110142 0.011226346806 0.011568770766 
0.011916716519 0.012267707459 0.012618217111 0.012965585526 0.013310357523 0.013656827014 0.014011683766 0.014381589088 0.01477181678 
0.015185462388 0.01562297333 0.01608205211 0.016557910817 0.017044079091 0.017533487918 0.018019939178 0.018499441753 0.018970770858 
0.019434611496 0.019891300105 0.010748285496 0.011099381008 0.011459223665 0.011827146105 0.012202773015 0.012585816572 0.012975569719 
0.01337067518 0.013769681998 0.014171765054 0.014577633441 0.014989694941 0.015411561583 0.015846941649 0.01629881241 0.016768773969 
0.017256868358 0.017761245708 0.018278625872 0.018804557176 0.019334219298 0.019863203448 0.020388160915 0.020906845352 0.021417886191 
0.021920033216 0.011411360605 0.011792828078 0.012184551998 0.01258597655 0.012996752649 0.013416392984 0.013844384395 0.014280018499 
0.014722694833 0.01517227399 0.015629379493 0.016095532843 0.016572763118 0.017063131866 0.017568277774 0.018088955781 0.018624809463 
0.019174280358 0.019734788585 0.020303022506 0.02087525543 0.02144796591 0.022017896629 0.022582302455 0.023138829982 0.023685106967 
0.011915124222 0.012323970459 0.01274436869 0.013175915985 0.013618209524 0.014070848078 0.014533396459 0.015005518611 0.015486969555 
0.015977903393 0.01647885883 0.016990858961 0.01751517611 0.018052963006 0.018605132615 0.019171872214 0.019752543364 0.020345807443 
0.020949379792 0.021560656813 0.022176284887 0.022793052978 0.023407681418 0.024017127867 0.024618218131 0.02520831739 0.012256722108 
0.012689945373 0.01313593395 0.013594306025 0.014064638522 0.014546577564 0.015039786743 0.015544064512 0.016059418347 0.016586075559 
0.017124608216 0.017675785507 0.01824046615 0.018819519803 0.019413292585 0.020021731716 0.020644208044 0.021279247905 0.021925022472 
0.022578826229 0.02323765223 0.02389822485 0.024557304846 0.025211351952 0.025856904482 0.026490594325 0.012434111195 0.012888866557 
0.013357511631 0.013839594707 0.014334648594 0.014842302992 0.015362260292 0.015894429351 0.016438854721 0.016995922028 0.017566254759 
0.018150603398 0.018749800219 0.019364439319 0.019994920148 0.020641049651 0.021302115268 0.02197687038 0.022663096558 0.023358485512 
0.024060001303 0.024764269705 0.025467653061 0.026166303029 0.026856456208 0.027533939124 0.012500609859 0.012974463036 0.013463152166 
0.013966135927 0.014482869084 0.015012868027 0.015555804875 0.016111539144 0.016680259516 0.017262443945 0.017858947329 0.018470613992 
0.019098484698 0.019743339179 0.020405599515 0.021085297514 0.021781520514 0.02249313528 0.023218189764 0.023953928386 0.024697362479 
0.025444914275 0.026192461727 0.02693611223 0.027671128557 0.02839321097 0.01250301444 0.012992708119 0.013498076137 0.014018383233 
0.014552874335 0.015100846924 0.015661837085 0.016235654017 0.016822461618 0.017423060702 0.018038484842 0.018670049022 0.019319237065 
0.019987241471 0.020674877443 0.021382120334 0.022108592723 0.022853053355 0.023613279516 0.024386766931 0.025169980339 0.025959131627 
0.026749955159 0.02753753092 0.028317136468 0.029083413118 0.012427040375 0.012928892715 0.013447066647 0.013980536578 0.014528233416 
0.015089120208 0.015662350628 0.016247517103 0.016844876287 0.017455400974 0.018080532388 0.018722595482 0.01938379523 0.020065949092 
0.020770387804 0.021497830907 0.022247946352 0.023019372852 0.023809992921 0.02461697307 0.025436747339 0.026265000732 0.027096909088 
0.027927205183 0.02875011817 0.029559709246 0.012249798392 0.012759752082 0.01328650806 0.013828646621 0.014384542319 0.014952566679 
0.01553125051 0.016119849896 0.016718201877 0.017327668255 0.017950806895 0.018591002123 0.019251716077 0.019936227787 0.020646760348 
0.021384659291 0.022149355485 0.022939953515 0.02375431122 0.024589254641 0.025440780431 0.026304383955 0.027174411236 0.028044817368 
0.028909109033 0.029760202133 0.011947760331 0.012461208791 0.012991906083 0.013537698867 0.014096223848 0.014664854949 0.015241239976 
0.015823219285 0.016410440741 0.01700444069 0.017609192418 0.018230235795 0.018873686239 0.019544548617 0.020246635812 0.020981165549 
0.021748671484 0.022548051273 0.02337683913 0.024231748724 0.025108304795 0.026001369642 0.026904727708 0.027811349701 0.02871372688 
0.029604201632 0.011485365061 0.011997169014 0.012526459925 0.013070421014 0.013625412246 0.014187560854 0.014752268919 0.01531571072 
0.01587560647 0.016433678687 0.016996262795 0.017573292402 0.01817519253 0.018810206618 0.019482836097 0.020195912279 0.020949789794 
0.021743171263 0.022573412361 0.02343697712 0.024328749486 0.025242899225 0.02617231573 0.027109121947 0.028044637589 0.028969111827 
0.010757246445 0.011261348602 0.011783260166 0.012319076936 0.012863904311 0.013411715288 0.013954624169 0.014484840236 0.014995801328 
0.015487495267 0.015970921119 0.016465617426 0.016990122627 0.017556136978 0.018170707744 0.018836549196 0.019553698017 0.020320262721 
0.021133513877 0.021988976663 0.022881242207 0.023803589366 0.024748211723 0.025705823442 0.0266658953 0.02761722008 0.0092480806248 
0.0095380466996 0.0098330172703 0.010131329481 0.010433708824 0.01074191579 0.011055711718 0.011371664263 0.011683948324 0.011987704145 
0.012282878867 0.01257560134 0.012875251014 0.01319100088 0.013529737033 0.013895538496 0.014289138272 0.014707697102 0.015145194649 
0.015593499429 0.016043790419 0.016488456413 0.016923410235 0.017349159914 0.017768359006 0.018183002415 0.010192306399 0.010516755897 
0.010848557163 0.011186757646 0.011531276851 0.011882200241 0.012238844642 0.01259925615 0.012960770883 0.013321507749 0.013682058825 
0.014045829017 0.014418051618 0.014804125973 0.015208290132 0.015632971999 0.016078368426 0.016542387941 0.017020905462 0.017508420349 
0.017998972549 0.01848742631 0.018970235785 0.019445960231 0.019914606369 0.02037598438 0.010984220799 0.011341101873 0.011706995166 
0.01208132271 0.012463693108 0.012853779194 0.013250931531 0.013654006831 0.014061873306 0.014473895988 0.014890749291 0.015314459804 
0.015748026901 0.016194529622 0.01665642466 0.017134964018 0.017630053314 0.018139941329 0.018661632727 0.019191156679 0.019724126254 
0.020256612585 0.020785453611 0.021308371101 0.021823766751 0.022330159201 0.011632439458 0.012019203426 0.01241644614 0.012823651337 
0.013240487656 0.013666484137 0.014101174714 0.014543942549 0.014994291584 0.015452137061 0.015918035413 0.016393307252 0.016879684468 
0.017378908153 0.017892337394 0.018420532781 0.018963053213 0.019518358049 0.020084044473 0.020656942916 0.021233641073 0.021810729681 
0.022385081867 0.022953935834 0.023514923676 0.024065524407 0.01214201534 0.01255604427 0.012981835426 0.013419015655 0.013867224957 
0.014326031311 0.014795086662 0.015274062651 0.015762784611 0.016261364625 0.016770294485 0.017290475028 0.017823009748 0.018368870354 
0.018928804875 0.019502880792 0.020090398657 0.02069002014 0.021299515609 0.021916338465 0.022537338191 0.023159300665 0.023779030326 
0.024393497647 0.024999651964 0.025594370257 0.012516212289 0.012954863154 0.013406501165 0.013870774305 0.0143472867 0.014835709411 
0.015335729748 0.015847164003 0.016370022684 0.016904511479 0.017451146971 0.018010608492 0.018583641321 0.019170987672 0.01977289813 
0.020389214014 0.021019259791 0.021661545239 0.022314251063 0.022974660493 0.023639965216 0.024306782175 0.02497195098 0.025631955889 
0.026283299167 0.026922718943 0.012763519453 0.013224164921 0.013698949065 0.014187454716 0.014689248267 0.015203989112 0.015731402312 
0.016271411595 0.016824071192 0.01738968104 0.017968863688 0.018562269554 0.0191706324 0.019794470175 0.020434010567 0.021089057743 
0.021758818804 0.022442013309 0.023136419856 0.023839732825 0.024548935125 0.025260672335 0.02597132358 0.026677056499 0.027374109683 
0.028058316308 0.012904199833 0.013384204659 0.013879324743 0.014389080233 0.014912972542 0.015450560949 0.016001551723 0.01656583822 
0.0171435519 0.017735194518 0.018341504819 0.018963265627 0.019601419591 0.020256573005 0.020929108412 0.021618950495 0.022325194686 
0.023046457126 0.023780967473 0.02452589543 0.025278252972 0.026034471826 0.026790444241 0.027542284324 0.028285273758 0.029015123194 
0.01295507285 0.013451394523 0.013963752907 0.014491481461 0.015033893225 0.015590372728 0.016160484848 0.01674407537 0.017341336598 
0.017953007868 0.018580030997 0.019223605546 0.019885026502 0.020565378377 0.021265332229 0.021984729587 0.022723207934 0.023479375766 
0.024251013513 0.025035594622 0.025829573598 0.026629197238 0.027430176992 0.02822762382 0.029016832595 0.029792471167 0.012914851722 
0.013424184944 0.013950294047 0.014492255138 0.015049111849 0.015619945219 0.016204022278 0.016801005897 0.01741118282 0.018035464946 
0.018675153004 0.019332358326 0.020009049695 0.020706841259 0.021426851792 0.022169634285 0.022934820546 0.023720961946 0.024525905046 
0.025346795896 0.026180065291 0.02702140404 0.027865999683 0.028708614757 0.029543509076 0.030364788591 0.012770043918 0.013288704453 
0.013824710351 0.014376841324 0.014943637179 0.015523682962 0.016115712765 0.016719160764 0.017333954857 0.017961382414 0.018603753818 
0.019264067921 0.019945431709 0.020650557321 0.021381584704 0.02213948851 0.022923949373 0.023733657914 0.024566540615 0.025419431047 
0.026288409776 0.027168724753 0.028055012013 0.028941181505 0.029820794968 0.030687044837 0.012499117036 0.013022885001 0.013564625158 
0.014122418265 0.014694195237 0.015277692169 0.015870955476 0.016472279908 0.017081523262 0.017700200253 0.018331795148 0.018981115954 
0.019653253819 0.020352744758 0.021082916962 0.021844770979 0.022638733829 0.023463671682 0.024317118409 0.025195803017 0.026095278158 
0.027010445295 0.027935116421 0.028862358805 0.029784751592 0.030694569327 0.012067392257 0.012591693422 0.013134384711 0.013693003441 
0.014264377387 0.014845262472 0.015431912306 0.016021368808 0.016612294871 0.017206420182 0.017809140506 0.018428457767 0.019072956249 
0.019749666796 0.020462550856 0.021214200873 0.022005007014 0.022833791348 0.023697790074 0.024593766115 0.025516610516 0.026460571196 
0.027418639292 0.028383051333 0.029345184398 0.030295835805 0.011420305039 0.011939873378 0.012478365198 0.013032392193 0.013597835623 
0.014169603871 0.014741553223 0.015308105228 0.015865302671 0.01641438808 0.016963851975 0.017527832329 0.018120366835 0.018751142356 
0.019426595544 0.020149584645 0.020920563738 0.021737958783 0.022599372965 0.023500588372 0.024436390245 0.025400221134 0.026384459532 
0.027380058328 0.028376802269 0.029363850349 0.0097559233646 0.010057776569 0.010365741661 0.010678760412 0.010996969443 0.011321028232 
0.011650461552 0.011983018403 0.012315199504 0.0126443676 0.012970855713 0.013298548702 0.013633427033 0.013981680754 0.014347981356 
0.01473496192 0.015142801704 0.015569195611 0.01600965879 0.016458306897 0.016908938985 0.017356334931 0.017797478064 0.018231974268 
0.018660638453 0.019084106952 0.010610889908 0.010945565323 0.011288132133 0.011637921952 0.011994678395 0.012358278523 0.01272803507 
0.013102568944 0.013480130886 0.013859603511 0.014241570198 0.014628452178 0.015023939486 0.015431890083 0.01585531541 0.016295842357 
0.01675337263 0.017226088609 0.017710588567 0.018202540385 0.018697245237 0.019190605294 0.019679608853 0.020162513269 0.020638685377 
0.021107291058 0.01135346947 0.011719374794 0.012094693651 0.012478941874 0.012871725831 0.013272694341 0.013681263779 0.014096606836 
0.014517880277 0.014944705347 0.015377669254 0.015818290515 0.016268837903 0.016731587478 0.017208324734 0.017699848147 0.018205874305 
0.018724803705 0.019253976666 0.019789988898 0.020329057648 0.020867756855 0.02140317058 0.021932970111 0.022455345422 0.022968444376 
0.01198070979 0.01237585465 0.012781812562 0.01319813405 0.013624501257 0.014060489138 0.014505693225 0.014959608552 0.015421874569 
0.0158924331 0.016371763038 0.016860902387 0.017361183983 0.01787391663 0.018400077662 0.018939962796 0.019493008548 0.020057712846 
0.020631846723 0.021212528339 0.021796585789 0.022380885635 0.022962430935 0.023538486756 0.024106560219 0.024664042606 0.012492819886 
0.012915039248 0.013349349092 0.013795429498 0.014252929445 0.014721482534 0.015200776079 0.01569053048 0.016190608065 0.016701106981 
0.017222426859 0.0177552921 0.018300566064 0.018858963591 0.019430984424 0.020016535711 0.020614865548 0.021224543154 0.02184350286 
0.02246925065 0.023098807303 0.023729048007 0.024356903619 0.024979317092 0.025593211093 0.026195485286 0.012892182737 0.013339219792 
0.013799593284 0.014272994003 0.014759067906 0.015257523225 0.015768078639 0.016290579441 0.016825030241 0.017371619086 0.017930725937 
0.018502945787 0.019088833275 0.019688938796 0.020303414673 0.020931894455 0.021573644331 0.022227146256 0.022890590307 0.023561311703 
0.024236564538 0.024913027018 0.025587577138 0.026256718405 0.026916953242 0.02756500433 0.013184417408 0.013653931026 0.014137977911 
0.014636191608 0.015148191696 0.015673680939 0.016212418853 0.016764343959 0.017329498848 0.017908123947 0.018500788022 0.01910798456 
0.019730304102 0.020368116991 0.021021519026 0.021690152542 0.022373168785 0.023069242002 0.023776179434 0.024491505228 0.025212407154 
0.025935500219 0.026657176867 0.02737363717 0.028081156608 0.028775480918 0.013378120856 0.01386769585 0.014372848082 0.014893173904 
0.01542823847 0.015977674783 0.016541245638 0.017118847538 0.017710608112 0.018316991219 0.018938542167 0.019576048322 0.020230201891 
0.020901416397 0.021589970448 0.022295639148 0.023017418645 0.023753859488 0.02450307692 0.025262437713 0.026028742416 0.026798504264 
0.02756763682 0.028332259399 0.029087685914 0.029829641189 0.013479746787 0.013986634209 0.014510133302 0.015049674218 0.015604677393 
0.016174629525 0.016759179406 0.017358221791 0.017971945671 0.01860101704 0.019246270756 0.019908615926 0.020589246886 0.021288969514 
0.022008260676 0.022746783527 0.023504130036 0.02427873501 0.025068357211 0.025870434835 0.026681418498 0.027497553993 0.02831456626 
0.029127607185 0.029931924209 0.030722363189 0.013488463875 0.014009779683 0.014548581303 0.015104115709 0.015675552826 0.016262160549 
0.016863373102 0.017478946169 0.018109206716 0.018754958862 0.019417308458 0.020098062114 0.020798850626 0.021520966242 0.022265254675 
0.023032049871 0.023820830449 0.024630046525 0.02545744888 0.02630024115 0.027154745089 0.028016756256 0.028881267215 0.029743308133 
0.030597085894 0.031436778745 0.013395960444 0.013928508392 0.014479298732 0.015047331298 0.015631410001 0.016230409129 0.016843348835 
0.017469825495 0.018110097213 0.018765059418 0.019436830648 0.020127864328 0.020840694406 0.021577519954 0.022340067093 0.02312902672 
0.023943897371 0.024783261214 0.025644976278 0.026525844612 0.027421938152 0.028328512682 0.029240247337 0.030151140843 0.03105470766 
0.031944293855 0.01318765268 0.013727823874 0.014287080025 0.014863845579 0.015456463282 0.016063162734 0.016682454391 0.017313374154 
0.017955783332 0.018611244365 0.01928260206 0.019973683638 0.020688528485 0.021430793432 0.02220320085 0.0230063963 0.023840606929 
0.024704605398 0.025595882475 0.026511157648 0.027445997677 0.028395325963 0.029353016201 0.030312233045 0.031265672701 0.032205759483 
0.012843108829 0.013387102579 0.013950861628 0.014532429466 0.01512927701 0.015738912599 0.016358808531 0.016986879868 0.017622683385 
0.018267964254 0.018926954764 0.019605598892 0.020310419543 0.021046936528 0.021818233614 0.022626509425 0.02347200973 0.024353538621 
0.025268367902 0.026213298101 0.027183277997 0.028172595837 0.029174379941 0.03018100589 0.031184047251 0.032174564974 0.012340230826 
0.012883849946 0.013448044907 0.014030179496 0.014627088401 0.015234970679 0.015849683319 0.016467760687 0.017087526937 0.017710869222 
0.018343909733 0.018996171687 0.019677417158 0.020394783365 0.02115361099 0.021956453531 0.022803835445 0.023694372466 0.02462584562 
0.025594204878 0.026594339444 0.027619832055 0.028663222231 0.029715718497 0.030767461508 0.03180795847 0.010359384428 0.010675771757 
0.010999198622 0.011328983152 0.01166496751 0.012007177585 0.012355110853 0.012707327302 0.013061934221 0.01341764298 0.013774883521 
0.01413602262 0.014504664393 0.014884566835 0.015278658201 0.015688386985 0.016113558631 0.016552280256 0.017001303403 0.017456446873 
0.017913446035 0.018368613004 0.018819540241 0.019265224055 0.019705298689 0.020139314248 0.011134367893 0.011481842468 0.01183781278 
0.012201781564 0.012573431848 0.012952492139 0.013338364856 0.013730135976 0.01412674656 0.014527628704 0.014933219073 0.0153451659 
0.015765874986 0.016197783218 0.01664284655 0.017101940623 0.017574706176 0.018059555074 0.018553753591 0.019053932184 0.019556437636 
0.020057997314 0.020556028162 0.021048583102 0.021534337137 0.022012125876 0.011828505444 0.01220601879 0.012593405505 0.012990285648 
0.013396278093 0.013811039765 0.014234090911 0.014664810094 0.015102697353 0.015547491095 0.015999649221 0.016460242065 0.01693079912 
0.017412841272 0.017907484836 0.01841506333 0.018935151885 0.019466212455 0.02000592751 0.02055145574 0.021099520685 0.021647219577 
0.02219166303 0.02273067052 0.023262159101 0.023784018643 0.012433134064 0.012839218245 0.013256518376 0.013684701167 0.014123436458 
0.014572359702 0.015031134436 0.015499366818 0.015976798674 0.016463396729 0.016959513961 0.017465893341 0.017983451055 0.018513038604 
0.019055232888 0.019610039976 0.020176761427 0.020753923537 0.021339446122 0.021930762608 0.02252492715 0.023119076171 0.023710297271 
0.024295923125 0.024873353949 0.025439946923 0.012944522653 0.013377504573 0.01382299835 0.014280751692 0.014750406093 0.015231692949 
0.015724329616 0.016228084266 0.016742832586 0.01726867993 0.017805871445 0.018354965335 0.018916491245 0.01949093782 0.020078518135 
0.020678940469 0.021291361835 0.021914279302 0.022545766276 0.023183378659 0.02382433255 0.024465597422 0.02510420802 0.02573706302 
0.026361174914 0.026973307233 0.013362337083 0.01382038414 0.01429222006 0.014777583844 0.0152761787 0.015787737839 0.016312056967 
0.016848965115 0.017398470323 0.017960710838 0.018535958019 0.019124645827 0.019727150466 0.020343740709 0.020974439824 0.02161870393 
0.022275690134 0.022943888055 0.023621346691 0.024305586823 0.024993835906 0.02568305124 0.026369851981 0.02705089619 0.027722736211 
0.0283819923 0.013688641277 0.01416978594 0.014665975503 0.015176907983 0.015702264219 0.016241798528 0.016795310488 0.01736274988 
0.017944144859 0.01853967967 0.019149779199 0.019774819301 0.020415179666 0.021071102166 0.021742407377 0.022428688011 0.023128928553 
0.023841692095 0.024564911998 0.025295966196 0.026032084602 0.026769978878 0.027506001275 0.028236393492 0.028957487435 0.029664925503 
0.01392674266 0.014428917414 0.014947299377 0.015481525221 0.016031285303 0.01659626719 0.017176272315 0.017771247156 0.018381309058 
0.019006790036 0.019648174323 0.020306035313 0.020980877936 0.021672909016 0.022382229776 0.023108384769 0.023850361322 0.024606518895 
0.025374954756 0.026153001749 0.026937462134 0.027724831523 0.02851113249 0.029292342905 0.030063932018 0.030821635249 0.014078888384 
0.014599772775 0.015138008307 0.01569313356 0.016264724108 0.01685235779 0.017455799469 0.018074955741 0.018710041646 0.01936160067 
0.020030315551 0.020716954784 0.021422309138 0.022147006149 0.022891242629 0.023654505981 0.024436177388 0.025234686066 0.026047618315 
0.02687236972 0.027705466259 0.028543018583 0.02938085049 0.030214138986 0.031038114651 0.03184772818 0.014144038583 0.01468121171 
0.015236802082 0.015810201761 0.016400788963 0.01700802079 0.017631500337 0.018271096667 0.018927122212 0.019600336383 0.020291554089 
0.021002258261 0.021733652066 0.02248677201 0.023262015598 0.024059512911 0.024878514854 0.025717342285 0.026573658841 0.027444605234 
0.028326476465 0.029215003762 0.03010540618 0.030992467946 0.031870659725 0.032734080948 0.014117444504 0.014668306647 0.015238539456 
0.015827411603 0.016434025501 0.017057569062 0.017697366813 0.018353223004 0.01902552793 0.019715016272 0.020423389441 0.021152590027 
0.021904616028 0.022680999047 0.023483022178 0.024311024164 0.025164263137 0.026041162133 0.026939468842 0.027855929136 0.028786615362 
0.029726712337 0.030670921176 0.031613370069 0.032547628879 0.033467136049 0.013991488999 0.014553107441 0.015135224884 0.015736642358 
0.016356155965 0.016992510217 0.017644765847 0.018312407998 0.018995543435 0.019695588877 0.020414791341 0.021156017209 0.021922267299 
0.022716378949 0.023540170024 0.02439423276 0.025278148754 0.02619062701 0.027129111844 0.028090122034 0.0290694735 0.030061641717 
0.031060948549 0.032060505904 0.03305314651 0.034031307843 0.013757552449 0.014327022655 0.014917978212 0.015529011088 0.016158284846 
0.016804137702 0.017464982328 0.018139657634 0.018828318569 0.019532598154 0.020255694358 0.021001879486 0.021775871049 0.022581575057 
0.023421548122 0.02429700218 0.025208017627 0.026153266775 0.027129874359 0.02813465433 0.029162518053 0.030207790579 0.031263644013 
0.032322591873 0.033376399774 0.034416329131 0.013411110132 0.013985339107 0.014582216128 0.015199865015 0.015836132679 0.016488451478 
0.017154339247 0.017832042101 0.018521243844 0.019223976282 0.019944552723 0.020689373771 0.021465017502 0.022276656913 0.023127948925 
0.024020960095 0.024955907525 0.025931382224 0.026945048515 0.027992840923 0.029069694821 0.030169131222 0.031283806128 0.032405104764 
0.033523474831 0.034628798279 0.011020308989 0.011352732826 0.011692942704 0.012040479273 0.012395062525 0.01275647049 0.013124243759 
0.013497500386 0.013875220707 0.014256827917 0.014642656149 0.015034122651 0.01543326653 0.015842262001 0.01626265286 0.016695150846 
0.017139285313 0.017593466436 0.018055249471 0.018521629175 0.018989493334 0.019456058762 0.01991924407 0.020377659443 0.020830220668 
0.021275799038 0.011730967386 0.012092973843 0.012464053234 0.012843832911 0.013231990825 0.013628217106 0.014032023586 0.01444279096 
0.014859915027 0.015283102742 0.015712659875 0.016149605652 0.016595381625 0.017051412909 0.01751871836 0.017997658842 0.018487641387 
0.018987245431 0.019494238869 0.020005911757 0.02051937989 0.021031922116 0.02154119679 0.022045152083 0.022542031239 0.023030363956 
0.012383578087 0.012774585776 0.013175963847 0.013587413778 0.014008591447 0.01443918533 0.014878807757 0.015327019881 0.015783437294 
0.016248008459 0.016720922007 0.017202902425 0.017694872529 0.018197694199 0.018711905845 0.019237514112 0.019773829091 0.020319447128 
0.020872301581 0.021429937506 0.021989580842 0.022548522829 0.02310415003 0.023654217481 0.024196483451 0.024728660276 0.012967711133 
0.013386735313 0.013817457709 0.014259614562 0.01471285546 0.015176960279 0.015651553524 0.016136404524 0.016631290743 0.01713617044 
0.017651257661 0.018177016732 0.018713976338 0.019262596769 0.019823016855 0.02039503943 0.020977786867 0.021569840319 0.022169241934 
0.022773546769 0.023380181426 0.023986348506 0.024589348555 0.025186443573 0.025775025745 0.026352359913 0.013477437192 0.013923280908 
0.014382150849 0.014853753938 0.015337874563 0.015834262002 0.016342662605 0.016862891682 0.017394835749 0.017938526387 0.018494138348 
0.019061968843 0.019642299578 0.020235353151 0.0208410182 0.021458857364 0.02208787141 0.022726616486 0.023373085358 0.024024990832 
0.024679658439 0.025334242521 0.025985735288 0.026631164464 0.027267419816 0.027891373575 0.013910212692 0.014381473708 0.014867053401 
0.015366731409 0.015880276451 0.016407464924 0.016948123895 0.017502097471 0.018069377143 0.018650033777 0.019244219832 0.019852196354 
0.020474130306 0.021110053607 0.021759803339 0.022422672722 0.023097662406 0.023783234667 0.024477413657 0.025177791542 0.02588161024 
0.026585888917 0.027287293871 0.027982514288 0.02866808706 0.029340635648 0.014265597499 0.014760731575 0.015271487606 0.015797657442 