# vtk DataFile Version 5.1
vtk output
ASCII
DATASET STRUCTURED_POINTS
DIMENSIONS 60 20 20
SPACING 0.05 0.05 0.05
ORIGIN -0.475 -0.475 0.525
POINT_DATA 24000
FIELD FieldData 1
potential 1 24000 double
0.013098262729 0.012949234092 0.012795233092 0.012636439944 0.012473024219 0.012306839467 0.012139295046 0.011970617479 0.011801024717 
0.011630729282 0.011459916032 0.011288767192 0.011117450229 0.010946123107 0.010774936501 0.010604028761 0.010433513663 0.010263493461 
0.010094081775 0.0099253659527 0.0097574494784 0.0095904380882 0.0094244303773 0.0092595238438 0.0090958194599 0.008933394736 0.0087723383683 
0.0086127418808 0.0084547253182 0.008298396234 0.0081439337102 0.0079915093383 0.0078413272079 0.0076935989358 0.0075563915669 0.0074167626332 
0.0072797212203 0.0071452181238 0.0070132032386 0.0068836303274 0.0067564589961 0.0066316442825 0.006509147206 0.0063889186417 0.0062709110269 
0.0061550857103 0.0060413991245 0.0059298197437 0.0058203187216 0.0057128693633 0.0056074453586 0.0055040221259 0.0054025653895 0.0053030493695 
0.0052054462486 0.0051097489165 0.0050159453733 0.0049240593143 0.0048341106795 0.0047461376225 0.013601236342 0.013443235963 0.013279958991 
0.013111586025 0.012923263462 0.012746897757 0.012569266807 0.012390603361 0.012211111471 0.012031004169 0.011850460175 0.01166965812 
0.01148876848 0.011307947273 0.011127345118 0.010947084354 0.01076729634 0.010588080014 0.010409532927 0.010231756369 0.010054854245 
0.0098789367909 0.0097041051208 0.0095304651937 0.0093581156 0.0091871506112 0.0090176534964 0.0088497270853 0.0086834953317 0.00851907671 
0.0083566469303 0.0081963972681 0.0080385211343 0.007883234427 0.0077394867082 0.0075945105002 0.0074522582515 0.0073126626704 0.0071756693336 
0.0070412310779 0.0069092938153 0.0067798161808 0.0066527427813 0.0065280328803 0.0064056311057 0.0062854945699 0.0061675818374 0.0060518600001 
0.005938305083 0.0058268886487 0.0057175899538 0.0056103832291 0.005505243445 0.0054021409998 0.0053010561089 0.0052019832496 0.0051049212246 
0.0050098820347 0.0049169032464 0.0048260151318 0.014131639021 0.013964166238 0.013791113799 0.013612624829 0.013394077851 0.013206930756 
0.01301864108 0.012829411796 0.012639448457 0.012448959191 0.012258125936 0.012067116737 0.011876099956 0.011685233343 0.011494657968 
0.011304503358 0.011114884665 0.010925920218 0.01073770143 0.010550333886 0.010363930556 0.010178585567 0.0099944258702 0.0098115388722 
0.0096300352697 0.0094500188746 0.0092715861404 0.0090948330126 0.0089198930493 0.0087469084691 0.0085760344455 0.0084074707299 0.0082414182726 
0.0080781002263 0.0079269381703 0.0077764665936 0.0076288487885 0.007484010098 0.0073418887177 0.0072024248665 0.0070655672216 0.0069312628752 
0.0067994552152 0.006670094104 0.0065431327433 0.0064185201731 0.006296220059 0.0061762009563 0.0060584329627 0.00594289659 0.0058295642823 
0.0057184211235 0.0056094428972 0.0055026090391 0.005397896452 0.0052953073798 0.0051948452907 0.0050965275392 0.0050003866436 0.0049064590144 
0.01469357243 0.014516088855 0.01433267528 0.014143494954 0.013888659839 0.013690081942 0.013490482465 0.013290046469 0.013089001995 
0.012887499293 0.012685745116 0.012483908486 0.012282141752 0.012080593931 0.011879430223 0.011678771976 0.01147873538 0.011279418049 
0.011080936999 0.010883397436 0.010686906855 0.010491564042 0.010297493712 0.010104805547 0.0099135981436 0.0097239756804 0.0095360478712 
0.009349932148 0.0091657412715 0.0089836373427 0.0088037865024 0.0086263835114 0.0084516254139 0.0082797457887 0.0081201371471 0.007963989027 
0.0078108200031 0.007660555016 0.0075131162575 0.0073684419933 0.0072264662357 0.0070871428515 0.0069504110821 0.0068162159762 0.0066845009849 
0.0065552276053 0.0064283537957 0.0063038493952 0.0061816834078 0.0060618414264 0.0059443040523 0.0058290479289 0.0057160556131 0.005605313726 
0.0054968106534 0.005390538797 0.0052865149545 0.0051847597843 0.0050853057905 0.0049881862845 0.014839923556 0.014661960216 0.014479245291 
0.014292145015 0.014144496914 0.013952067054 0.013756456351 0.013558126448 0.013357491972 0.013154957729 0.012950945644 0.012745815297 
0.012539939002 0.012333642228 0.012127269155 0.011921087428 0.011715373407 0.011510366242 0.011306293122 0.011103366824 0.010901771311 
0.01070166909 0.010503203694 0.010306517983 0.010111710402 0.0099188573822 0.0097280318662 0.0095392745375 0.0093526284311 0.0091681231269 
0.0089858044985 0.0088057065232 0.0086278471786 0.0084522428339 0.00825999235 0.0080947405943 0.0079320301825 0.0077719291315 0.0076145096922 
0.0074598185702 0.0073078966394 0.007158796832 0.007012540728 0.0068691518385 0.0067286393662 0.0065910157415 0.0064562935045 0.0063244691602 
0.0061955432753 0.0060695092151 0.0059463656065 0.0058260906214 0.0057086633318 0.0055940625151 0.0054822567235 0.0053732257112 0.005266953118 
0.0051634249464 0.0050626375414 0.0049645803737 0.0154404114 0.015251526272 0.015057759342 0.014859497738 0.014692262019 0.014488167248 
0.014280708782 0.01407036036 0.013857555151 0.013642746476 0.013426350529 0.013208785558 0.012990432675 0.012771658629 0.012552794773 
0.012334168649 0.012116077636 0.011898794076 0.011682551247 0.011467575754 0.011254088783 0.011042270339 0.010832287257 0.010624281646 
0.010418373498 0.010214662727 0.010013224142 0.0098141219016 0.009617409752 0.0094231298486 0.0092313301175 0.0090420488769 0.0088553147704 
0.0086711431136 0.0084733889188 0.0082999139922 0.0081293342887 0.007961700124 0.0077970636986 0.0076354521546 0.0074769159791 0.0073214712783 
0.0071691383085 0.007019927952 0.0068738366892 0.0067308625683 0.0065910094329 0.0064542598046 0.006320604661 0.0061900269209 0.0060625088486 
0.0059380204447 0.0058165336549 0.005698009827 0.0055824202199 0.005469729222 0.0053599072956 0.005252933122 0.0051487895607 0.005047454946 
0.016081742701 0.015880871385 0.015674963903 0.015464430411 0.015276724197 0.015059796609 0.014839319873 0.014615771252 0.014389641059 
0.014161402462 0.01393149755 0.013700379759 0.013468443798 0.013236089724 0.013003696137 0.012771608318 0.012540137698 0.012309595301 
0.012080228929 0.011852315016 0.011626069638 0.011401702741 0.011179386552 0.01095928272 0.010741537122 0.010526248893 0.010313520506 
0.010103423297 0.0098960234529 0.0096913816513 0.0094895372831 0.0092905343887 0.0090944112673 0.0089011889543 0.0086972572421 0.0085150224492 
0.0083360541414 0.0081603868917 0.0079880623234 0.0078190928944 0.0076534953466 0.0074912990008 0.007332501288 0.0071770899007 0.0070250679803 
0.0068764173307 0.0067311176402 0.0065891487153 0.0064504879292 0.0063151036046 0.0061829626511 0.0060540294079 0.0059282626566 0.0058056148628 
0.0056860454977 0.005569512579 0.0054559778824 0.0053453993256 0.0052377510593 0.0051330022314 0.016767776901 0.016553768594 0.016334505478 
0.016110431194 0.015901462796 0.015670412454 0.01543560337 0.015197576535 0.014956827167 0.014713879841 0.014469215603 0.014223299701 
0.01397657405 0.013729463567 0.013482373265 0.013235672289 0.012989720281 0.012744848368 0.012501339492 0.012259484093 0.012019512388 
0.011781649799 0.011546116374 0.011313063261 0.011082663524 0.010855015913 0.010630246409 0.01040843607 0.010189660861 0.0099739934247 
0.0097614719908 0.009552154416 0.0093460728744 0.0091432533164 0.0089324085787 0.0087408335645 0.0085529261497 0.0083687058616 0.0081881837203 
0.0080113785416 0.0078382878404 0.0076689062964 0.0075032182448 0.0073412318552 0.0071829150082 0.0070282315702 0.0068771611 0.0067296644159 
0.0065857039748 0.0064452397257 0.0063082206717 0.0061746038583 0.0060443278125 0.0059173439688 0.0057935966382 0.0056730313201 0.005555601839 
0.0054412517887 0.0053299488042 0.0052216409038 0.017502353926 0.017273917954 0.017039960655 0.016801001679 0.01656996202 0.016323377913 
0.0160728291 0.015818895587 0.015562122705 0.01530306322 0.015042247419 0.01478016529 0.014517293862 0.014254123474 0.013991059984 
0.013728523478 0.013466883167 0.01320649783 0.012947703476 0.012690799032 0.012436054938 0.012183698642 0.011933955886 0.011687014441 
0.011443042847 0.011202181833 0.010964550769 0.010730243279 0.01049933936 0.010271916829 0.010048035456 0.009827733404 0.0096110740798 
0.009398062217 0.0091794795012 0.0089779663399 0.0087805417086 0.0085872100523 0.0083979755745 0.0082128210082 0.0080317533519 0.0078547421293 
0.0076817708013 0.007512790442 0.0073477912048 0.0071867259153 0.0070295470814 0.0068761991713 0.0067266429023 0.0065808128641 0.0064386539105 
0.0063000980238 0.0061650812802 0.0060335420823 0.0059054100049 0.0057806180488 0.0056591082472 0.0055408185194 0.0054256888102 0.0053136736797 
0.018289367177 0.018045106604 0.017795012299 0.01753964109 0.017285759865 0.017022067763 0.016754215445 0.016482814813 0.016208475078 
0.015931769164 0.015653284989 0.01537355274 0.015093096542 0.014812409372 0.014531961529 0.014252196397 0.013973531399 0.01369637482 
0.013421054237 0.013147894653 0.012877206961 0.01260922527 0.012344227504 0.012082381722 0.011823875553 0.011568859405 0.011317464549 
0.011069795199 0.010825943661 0.010585981287 0.01034997059 0.010117979872 0.0098900423401 0.0096661923405 0.0094389862599 0.0092269010915 
0.0090193545003 0.0088163374657 0.0086178353095 0.008423825341 0.0082342814653 0.0080491702433 0.0078684533708 0.0076920825736 0.0075200198704 
0.0073521874424 0.0071885502573 0.00702903233 0.0068735626881 0.0067220832874 0.006574507982 0.0064307643538 0.0062907719121 0.0061544527242 
0.0060217198469 0.005892504174 0.005766724523 0.0056443092514 0.0055251939737 0.0054093081983 0.019132889511 0.018871191907 0.018603366955 
0.018329942322 0.018052373507 0.017769872293 0.017483010703 0.017192442743 0.016898831734 0.016602810489 0.01630500109 0.016005980517 
0.015706314257 0.015406551119 0.015107194186 0.014808724031 0.014511600964 0.014216221882 0.013923023608 0.013632317171 0.013344418619 
0.013059616069 0.012778172737 0.012500307685 0.012226201006 0.011956005654 0.011689880213 0.011427917082 0.011170219321 0.010916863521 
0.010667915909 0.010423446397 0.010183492056 0.0099480982966 0.0097113211461 0.0094880040535 0.0092697042004 0.0090564040451 0.0088480645514 
0.0086446550316 0.0084461287501 0.0082524319575 0.008063520065 0.0078793251809 0.0076997821293 0.0075248275527 0.0073543672125 0.0071883363032 
0.0070266531264 0.0068692204765 0.0067159521379 0.0065667613782 0.0064215426481 0.0062802134216 0.0061426702254 0.0060088219475 0.0058785816483 
0.0057518602671 0.0056285860424 0.0055086732576 0.020036888862 0.019756171839 0.01946880994 0.019175539584 0.018873382652 0.018570204115 
0.018262469892 0.017950880378 0.017636161907 0.017318984505 0.017000027485 0.016679927858 0.016359315292 0.016038760917 0.01571880825 
0.015399991044 0.015082837539 0.01476775715 0.014455177467 0.014145465881 0.013838996484 0.01353606178 0.013236919458 0.012941811869 
0.012650932214 0.012364484874 0.012082557667 0.01180530807 0.011532794031 0.011265122472 0.011002360444 0.010744575924 0.01049180935 
0.010244121698 0.0099967614702 0.0097615236372 0.0095318175499 0.0093076127046 0.0090888459662 0.0088754802873 0.0086674446181 0.0084646687385 
0.0082670851741 0.0080746306719 0.0078872025124 0.0077047190264 0.0075270847398 0.0073541950612 0.0071859716641 0.0070222934442 0.0068630565907 
0.0067081442167 0.0065574595216 0.0064108822411 0.0062683107888 0.006129621751 0.0059947269183 0.0058635188423 0.0057359113173 0.0056118152214 
0.021005524548 0.020703894654 0.020395214368 0.020080085501 0.019752343334 0.019426505232 0.019095844174 0.018761197012 0.018423343603 
0.018083023412 0.017740964856 0.017397846591 0.017054363487 0.016711141331 0.016368787422 0.016027881011 0.015688927368 0.015352465269 
0.015018908365 0.014688678498 0.014362145428 0.014039637444 0.013721430333 0.013407778168 0.013098900214 0.012794961686 0.012496116988 
0.01220246807 0.011914121362 0.011631159274 0.011353636886 0.011081646821 0.010815229808 0.010554435329 0.010295428748 0.010047560968 
0.0098057744574 0.0095700213451 0.009340231402 0.0091163360497 0.0088982484318 0.0086858892853 0.0084791699707 0.0082779874873 0.0080822529825 
0.0078918466351 0.0077066630198 0.0075265843954 0.007351493779 0.0071812565435 0.0070157625947 0.0068548785731 0.006698473281 0.0065464151923 
0.0063985869211 0.0062548590766 0.0061151137717 0.0059792368978 0.0058471276049 0.0057186909981 0.022043038613 0.021718473822 0.021386306543 
0.021047281677 0.020692731891 0.020342026786 0.019986297592 0.019626381985 0.019263157413 0.018897526059 0.018530223772 0.018162011063 
0.017793597527 0.017425699483 0.017058925206 0.016693981901 0.016331413276 0.015971743527 0.015615464005 0.015263037909 0.014914836591 
0.014571215331 0.014232466878 0.013898877448 0.013570627234 0.013247930895 0.01293093081 0.012619726976 0.012314448576 0.012015136758 
0.011721861359 0.011434713659 0.011153750361 0.010879032609 0.010607267034 0.010346032525 0.010091482162 0.0098435309065 0.0096020987531 
0.0093670939725 0.0091384097396 0.0089159454518 0.0086995975907 0.0084892507883 0.0082847734642 0.0080860490115 0.0078929426221 0.0077053190151 
0.0075230314083 0.0073459455283 0.0071739050765 0.0070067746379 0.0068444022746 0.0066866399601 0.0065333383083 0.0063843588767 0.0062395732279 
0.0060988449601 0.0059620684951 0.0058291379435 0.023153360033 0.022803628768 0.022445707657 0.022080377571 0.021697717617 0.021319764156 
0.02093657048 0.020549066691 0.020158190572 0.01976491663 0.019370044252 0.018974453936 0.018578882983 0.018184042136 0.017790774042 
0.017399716683 0.017011451498 0.016626639037 0.016245786096 0.015869352778 0.015497751276 0.015131356781 0.014770490715 0.014415417552 
0.014066384814 0.013723577611 0.013387115342 0.013057129655 0.012733698855 0.012416937343 0.012106863069 0.01180356241 0.011507119796 
0.011217589956 0.010931960107 0.010656612597 0.010388594403 0.010127784208 0.0098740975077 0.0096273971941 0.0093875676016 0.0091544863244 
0.0089280248065 0.008708040889 0.0084944021491 0.008286966374 0.0080855678737 0.0078900445691 0.0077002448135 0.007515999177 0.0073371379986 
0.007163492735 0.0069949122351 0.0068312133456 0.0066722266508 0.0065177990266 0.0063677811195 0.0062220329465 0.0060804307885 0.0059428616742 
0.024340150146 0.023962887296 0.023576743857 0.023182637492 0.022770348545 0.022362587132 0.021949320717 0.021531655688 0.021110592712 
0.020687101244 0.020262206334 0.01983673901 0.019411595029 0.018987594195 0.018565510443 0.01814608937 0.017730058319 0.017317941689 
0.016910437818 0.016508046007 0.016111181232 0.015720245611 0.015335553999 0.014957409202 0.014586044531 0.014221648069 0.013864354172 
0.013514275938 0.013171485425 0.012836061285 0.01250810669 0.012187643766 0.011874752085 0.01156950002 0.011268853165 0.010978670785 
0.010696470418 0.010422153766 0.010155575762 0.0098966036848 0.0096450875298 0.0094008779072 0.0091638205978 0.0089337687777 0.0087105573251 
0.0084940073821 0.0082839462726 0.0080801906913 0.0078825598336 0.0076908585634 0.0075049005307 0.0073244987106 0.0071494548305 0.0069795962679 
0.0068147277801 0.006654658281 0.006499236372 0.0063483055971 0.006201739435 0.006059399285 0.025606938556 0.025199536884 0.024782532416 
0.024356922183 0.023913204246 0.023472902528 0.02302684015 0.022576224642 0.022122205721 0.021665874655 0.021208200172 0.020750243178 
0.020292929756 0.019837162319 0.019383776421 0.018933608854 0.018487402847 0.018045890906 0.017609644452 0.017179249487 0.01675501285 
0.016337618704 0.015927303299 0.015524353935 0.015129025424 0.014741496903 0.014361906996 0.013990349798 0.01362692518 0.013271651146 
0.012924633356 0.012585976966 0.01225567159 0.011933785108 0.011616956661 0.011311208405 0.011014152474 0.010725668091 0.010445603389 
0.010173786474 0.0099100475589 0.0096542107396 0.0094061032437 0.0091655413055 0.0089323482884 0.0087063170156 0.0084872488346 0.0082749302251 
0.0080691569393 0.0078697192753 0.0076763994641 0.0074889904098 0.0073072754292 0.0071310326403 0.0069600796152 0.0067942054774 0.0066332204572 
0.006476973983 0.0063253128128 0.006178100347 0.026957039025 0.026516651208 0.026065863984 0.025605850394 0.025128608466 0.024652803816 
0.024170994015 0.023684484337 0.0231945353 0.022702372718 0.022209101333 0.021715786108 0.021223523857 0.020733267758 0.020245937342 
0.019762459376 0.01928364317 0.018810237933 0.018342882509 0.017882231995 0.017428757923 0.016982868653 0.016544996051 0.016115331982 
0.015694304531 0.015282009245 0.014878593038 0.014484142012 0.01409872219 0.01372237308 0.01335517313 0.012997188853 0.012648494486 
0.01230906503 0.011974932452 0.011652868528 0.011340296445 0.011037023876 0.010742879225 0.010457677888 0.010181214391 0.0099132757245 
0.0096536765827 0.0094022059764 0.0091586445719 0.0089227709146 0.0086943602589 0.008473175671 0.0082589778606 0.0080515324409 0.0078506040468 
0.0076559553499 0.0074673510607 0.0072845567744 0.0071073390322 0.0069355001444 0.0067688251523 0.0066071426886 0.0064502906864 0.0062981182802 
0.028393797619 0.027917337934 0.027429708202 0.026932092315 0.026418903726 0.025904368644 0.025383603814 0.024858029878 0.024328978608 
0.023797816436 0.023265794845 0.022734125994 0.022203864474 0.021676170125 0.021152058859 0.020632506936 0.020118420791 0.019610560742 
0.01910968653 0.018616401821 0.018131305783 0.017654821241 0.017187350276 0.016729189881 0.016280648658 0.015841887867 0.015412946156 
0.014994105381 0.014585316099 0.014186614486 0.013798064471 0.013419686424 0.013051533086 0.012693671998 0.012341143159 0.012002076977 
0.011673317096 0.011354667664 0.011045892746 0.010746774395 0.010457101269 0.01017662795 0.0099051296421 0.0096423676992 0.0093880891922 
0.0091420495345 0.0089039908065 0.0086736467916 0.0084507628792 0.0082350678151 0.008026301544 0.0078242074858 0.0076285273184 0.007439005449 
0.0072553990632 0.0070774559957 0.0069049797704 0.0067377741975 0.0065756552516 0.0064184608261 0.029921352879 0.029405544522 0.02887764876 
0.028338979191 0.027786972448 0.027230268855 0.026667063998 0.026098899514 0.025527302701 0.024953722686 0.024379560849 0.023806113611 
0.023234619432 0.022666302179 0.022102353321 0.021543734745 0.020991484799 0.020446433206 0.019909369246 0.01938096057 0.018861800269 
0.018352432017 0.017853199618 0.017364469867 0.016886459024 0.016419433883 0.015963488103 0.015518715319 0.01508503504 0.014662682527 
0.01425156405 0.013851705673 0.013463133704 0.013085841728 0.012713881007 0.012357138515 0.0120115593 0.011676940901 0.011353002624 
0.011039495132 0.010736160179 0.010442736647 0.010158956152 0.0098845526272 0.0096192376972 0.0093627300702 0.0091147373008 0.0088749844653 
0.00864317737 0.0084190106043 0.0082022120932 0.0079924897165 0.0077895750584 0.0075931812536 0.0074030539522 0.0072189267919 0.0070405660889 
0.0068677697587 0.0067003411539 0.0065381061752 0.014110434758 0.013952175935 0.013788815004 0.013620566275 0.013447010973 0.013270909718 
0.013093224207 0.012914184662 0.012734016405 0.012552935459 0.01237114638 0.01218883652 0.012006189676 0.01182338099 0.011640577655 
0.011457925198 0.011275562787 0.011093627563 0.010912239274 0.01073151932 0.010551586253 0.010372559485 0.01019455222 0.01001768528 
0.0098420632484 0.0096677952037 0.0094949872439 0.0093237696051 0.0091542596898 0.0089865915728 0.0088209437602 0.0086574813237 0.0084964000421 
0.00833789685 0.008188764704 0.0080383012159 0.0078905401006 0.0077454348082 0.0076029360816 0.0074629969411 0.0073255819274 0.0071906481381 
0.0070581542487 0.0069280597376 0.0068003273737 0.006674917647 0.0065517970157 0.0064309336086 0.0063123034015 0.0061958746281 0.0060816304416 
0.0059695400586 0.0058595847152 0.0057517375044 0.0056459886387 0.0055423222402 0.0054407361059 0.005341242159 0.0052438559721 0.0051486008076 
0.014654554718 0.014486716285 0.014313462397 0.014134967104 0.013936880678 0.013749906604 0.013561441004 0.013371701866 0.0131809182 
0.012989293956 0.012797038451 0.01260434539 0.012411391636 0.012218347475 0.012025388695 0.01183265709 0.011640298165 0.0114484399 
0.011257212112 0.01106673325 0.010877131231 0.010688530362 0.010501036558 0.010314780784 0.010129878678 0.0099464402435 0.0097645760314 
0.0095844155532 0.009406099344 0.00922975858 0.0090555655581 0.0088837123965 0.0087143792727 0.0085477840513 0.0083914717114 0.0082350713518 
0.0080815192709 0.0079307586188 0.00778274035 0.00763740762 0.0074947146959 0.0073546194018 0.0072170736711 0.0070820356602 0.0069494621507 
0.006819312961 0.0066915519495 0.0065661544371 0.0064430871082 0.0063223233786 0.0062038461188 0.0060876306508 0.0059736554005 0.0058618983904 
0.0057523515507 0.0056450048199 0.0055398576487 0.0054369206805 0.005336215968 0.0052377659045 0.015228501521 0.015050530566 0.014866795555 
0.014677490094 0.014449714898 0.014251228476 0.014051334002 0.013850260408 0.013648223493 0.013445434259 0.013242092608 0.013038390192 
0.012834512565 0.012630630264 0.012426909222 0.012223492405 0.012020538585 0.011818162699 0.011616508932 0.011415695207 0.011215852163 
0.011017101829 0.010819564052 0.010623362584 0.010428623469 0.010235470363 0.010044009602 0.0098543775692 0.009666720339 0.0094811786832 
0.0092979320594 0.009117159964 0.0089390642345 0.0087638591174 0.0085995040247 0.0084369718325 0.0082774412103 0.0081208422088 0.0079671132028 
0.007816197394 0.0076680435213 0.0075226001569 0.0073798132564 0.0072396459215 0.007102042462 0.006966971063 0.0068343920044 0.0067042755917 
0.0065765938403 0.0064513212112 0.0063284372226 0.0062079236909 0.0060897645938 0.0059739361583 0.00586043248 0.0057492504956 0.0056403891263 
0.0055338653723 0.0054297001447 0.0053279188548 0.015835930246 0.015647227383 0.015452393396 0.015251615632 0.01498834531 0.014777630574 
0.014565609815 0.014352497549 0.014138515566 0.013923870351 0.013708759972 0.013493365968 0.013277886512 0.013062491927 0.012847338757 
0.012632586945 0.012418371142 0.012204841557 0.011992125895 0.011780345027 0.011569632602 0.011360110378 0.011151919709 0.010945174008 
0.010740000932 0.010536525781 0.010334880558 0.010135191856 0.0099376118225 0.0097422929087 0.0095494132989 0.0093591692883 0.0091717514204 
0.0089873780657 0.0088139542515 0.0086450814069 0.0084793576754 0.0083167005958 0.0081570464265 0.0080003325344 0.0078465026826 0.007695496194 
0.0075472641434 0.0074017486892 0.0072589132346 0.0071187152327 0.0069811116445 0.0068460773963 0.0067135792347 0.0065836039127 0.0064561241204 
0.006331124538 0.0062085880624 0.006088504865 0.0059708646087 0.0058556704061 0.0057429248157 0.0056326462159 0.0055248580466 0.0054195896786 
0.016060730972 0.015869083177 0.015672362704 0.01547096133 0.015308199866 0.015101154347 0.014890751396 0.014677425629 0.014461616903 
0.014243755857 0.014024262288 0.013803535237 0.013581929704 0.013359821393 0.013137550942 0.012915423007 0.012693737602 0.012472747768 
0.012252713622 0.01203385613 0.01181637173 0.011600449681 0.011386260037 0.011173941331 0.010963605985 0.010755363638 0.010549289265 
0.010345455387 0.010143910193 0.0099447045618 0.0097478754064 0.0095534545388 0.0093614597925 0.0091719116177 0.0089657688089 0.008786907499 
0.0086107876181 0.0084375021518 0.0082671031872 0.0080996363103 0.0079351674649 0.0077737327613 0.0076153696145 0.0074600993012 0.0073079378922 
0.0071589026681 0.0070130047333 0.0068702419677 0.0067306192671 0.0065941298199 0.0064607674954 0.006330514459 0.0062033536527 0.0060792628134 
0.0059582224094 0.0058402046619 0.0057251959647 0.0056131772838 0.0055041342493 0.0053980500379 0.016711624631 0.016508209329 0.016299551595 
0.016086089775 0.015903406261 0.015683751998 0.015460520069 0.015234191465 0.015005229614 0.014774093901 0.01454123573 0.014307066205 
0.014072002197 0.013836431998 0.013600704881 0.013365171834 0.013130145954 0.012895916343 0.012662753668 0.0124309192 0.012200628014 
0.01197208848 0.011745471827 0.01152094878 0.011298654129 0.011078697841 0.010861175411 0.010646175503 0.010433759286 0.010223969267 
0.010016872597 0.0098125022314 0.0096108786098 0.0094120180599 0.0091999541304 0.0090122128822 0.0088275934675 0.0086461512574 0.0084679237485 
0.0082929742589 0.0081213264856 0.0079530075433 0.0077880471909 0.0076264463103 0.0074682133505 0.0073133508732 0.0071618603536 0.0070137275268 
0.0068689446741 0.0067274884931 0.0065893442054 0.0064544843741 0.0063228781246 0.0061944937682 0.0060693011812 0.0059472654325 0.0058283518176 
0.0057125403366 0.005599801395 0.0054901068262 0.017404736636 0.01718843681 0.016966729011 0.016740043061 0.016536386096 0.016302908547 
0.01606564557 0.015825112127 0.015581801032 0.015336210529 0.015088808355 0.014840044845 0.014590370976 0.0143402018 0.014089922237 
0.013839913533 0.013590509056 0.013342036258 0.013094780484 0.012849023143 0.012605011065 0.012362957854 0.012123072614 0.011885540223 
0.011650497774 0.011418087005 0.011188406263 0.010961556597 0.010737611422 0.010516638894 0.010298685696 0.010083798724 0.0098720130796 
0.0096633460401 0.0094446254484 0.0092474519581 0.0090537927227 0.0088636868617 0.0086771637906 0.0084942537262 0.0083149740281 0.0081393539298 
0.0079673869786 0.0077990733766 0.0076344113375 0.0074733842112 0.0073159802489 0.0071621726836 0.0070119373443 0.0068652443273 0.0067220672636 
0.0065823579729 0.0064460838195 0.0063131960033 0.0061836531194 0.0060574140185 0.0059344311035 0.0058146645861 0.0056980814191 0.0055846386937 
0.018143847671 0.017913457314 0.017677429857 0.017436234907 0.017210655267 0.016962020078 0.016709389109 0.016453318094 0.016194331154 
0.015932961325 0.015669725939 0.015405110034 0.01513957392 0.014873565519 0.014607531121 0.014341857813 0.014076934668 0.013813088531 
0.013550659855 0.013289942786 0.013031200055 0.012774681516 0.012520602948 0.012269166825 0.012020524132 0.011774832654 0.01153221059 
0.011292764201 0.011056580355 0.010823728707 0.010594272385 0.010368258237 0.010145724875 0.0099266937218 0.0097005160074 0.0094933203255 
0.0092900549444 0.0090907452562 0.0088954114084 0.0087040554636 0.0085166926562 0.0083333210828 0.0081539220906 0.007978505678 0.0078070343325 
0.0076394823105 0.0074758272824 0.0073160287004 0.0071600484867 0.00700784074 0.0068593638822 0.0067145624731 0.0065733842518 0.0064357766685 
0.0063016822175 0.0061710460593 0.0060438132072 0.0059199309409 0.0057993492458 0.0056820172541 0.0189327594 0.018686945719 0.018435216514 
0.018178094464 0.017929661641 0.017664425091 0.017394979457 0.017121907212 0.016845793119 0.016567214308 0.016286711411 0.016004803299 
0.015722015133 0.01543884689 0.01515573494 0.014873115945 0.014591404233 0.014310982033 0.014032197371 0.013755384811 0.013480821147 
0.013208780187 0.012939483256 0.012673148378 0.012409979349 0.012150112634 0.011893690747 0.011640829076 0.011391619719 0.011146142495 
0.010904467518 0.01066664912 0.010432730348 0.010202729105 0.0099682209482 0.0097503837389 0.0095369250479 0.0093278456395 0.0091231511703 
0.0089228400608 0.0087269045958 0.0085353266747 0.0083480811723 0.0081651313837 0.0079864648229 0.0078120276463 0.0076417724024 0.007475656767 
0.0073136246515 0.0071556121699 0.0070015634363 0.0068514152665 0.0067050985702 0.0065625453495 0.0064236891085 0.0062884607661 0.0061567924242 
0.0060286195167 0.0059038799086 0.0057825143435 0.019775345965 0.019512652259 0.019243731433 0.018969141865 0.018696939929 0.018413497338 
0.018125623594 0.017833954318 0.01753911924 0.017241748108 0.016942424267 0.01664172032 0.016340190044 0.016038342876 0.015736701556 
0.015435733164 0.015135879553 0.01483753931 0.01454110822 0.014246946665 0.01395534035 0.013666606713 0.013381007799 0.013098734506 
0.012820011491 0.012544983442 0.012273827357 0.012006664313 0.011743575997 0.011484663923 0.011230000909 0.010979639969 0.01073363086 
0.010491995529 0.01024821937 0.010019092485 0.0097948187803 0.0095753829632 0.0093607765023 0.0091509795757 0.0089459676752 0.0087457018145 
0.0085501540649 0.008359269968 0.0081730012672 0.0079912844263 0.007814084689 0.0076413111972 0.0074729062283 0.0073087974919 0.0071489012476 
0.0069931469084 0.006841443716 0.0066937178202 0.006549887644 0.0064098644409 0.0062735724775 0.0061409345004 0.0060118723449 0.0058863185557 
0.020675678897 0.0203944566 0.020106695134 0.019812921409 0.01951599129 0.019212593835 0.018904550502 0.018592552215 0.018277271567 
0.017959390117 0.017639549815 0.017318349308 0.016996413536 0.016674303222 0.016352546535 0.016031688962 0.015712163666 0.01539446906 
0.015078998175 0.014766128807 0.014456190276 0.014149512192 0.01384636521 0.0135470075 0.013251615385 0.012960393273 0.012673501191 
0.012391054113 0.012113170649 0.011839950956 0.011571451417 0.011307750408 0.01104889514 0.010794913735 0.010540875556 0.010299789071 
0.010064059729 0.0098336601819 0.0096085549357 0.0093887206873 0.0091741073032 0.0089646661562 0.0087603433802 0.0085610739799 0.0083667980304 
0.0081774410107 0.0079929099381 0.0078131440166 0.0076380496568 0.0074675342378 0.0073015121424 0.0071398835502 0.0069825503804 0.006829422148 
0.0066803948745 0.0065353725198 0.0063942676088 0.0062569847322 0.0061234361097 0.0059935377401 0.021637713803 0.02133632806 0.021027864884 
0.020713085001 0.020390398828 0.020065159111 0.019735034899 0.019400803904 0.019063189762 0.018722907015 0.018380683999 0.018037168766 
0.017693039294 0.017348885951 0.017005303638 0.016662868528 0.016322084625 0.015983448278 0.015647395809 0.01531433568 0.014984653534 
0.014658665284 0.014336683439 0.014018955029 0.013705697594 0.013397145643 0.013093419293 0.01279466019 0.012500985401 0.012212507952 
0.011929282618 0.011651387621 0.011378883607 0.011111785084 0.010846432571 0.010592690743 0.010344834631 0.010102836393 0.0098666362171 
0.009636199544 0.0094114499509 0.0091923227377 0.0089787546788 0.008770657408 0.008567948411 0.0083705373287 0.0081783281568 0.0079912091675 
0.0078090979919 0.007631880383 0.0074594368631 0.0072916680528 0.0071284525214 0.0069696854415 0.0068152422543 0.0066650193789 0.0065189076231 
0.0063767987265 0.0062385979552 0.0061042053683 0.022665643976 0.022342143964 0.022011128225 0.021673269888 0.021323735243 0.0209745682 