# vtk DataFile Version 5.1
vtk output
ASCII
DATASET STRUCTURED_POINTS
DIMENSIONS 60 20 20
SPACING 0.05 0.05 0.05
ORIGIN 2.225 -0.475 0.525
POINT_DATA 24000
FIELD FieldData 1
potential 1 24000 double
0.0008077777183 0.00079928716159 0.00079077750555 0.00078224834312 0.00077370011021 0.00076513560552 0.00075655776522 0.00074796960185 0.00073937341154 
0.00073077185885 0.00070547346021 0.00069937870563 0.00069340124437 0.00068753903482 0.00068178897963 0.00067614821858 0.0006706126204 0.00066517753841 
0.00065983863294 0.00065459172527 0.00064943277816 0.00064435790663 0.00063936307012 0.00063444315263 0.00062959325102 0.00062480768323 0.00062008028882 
0.00061540633069 0.00061078278776 0.00060620726707 0.00060168061458 0.00059720432261 0.00059278144162 0.00058841463863 0.00058410677352 0.00057985980378 
0.0005756757993 0.00057155544484 0.00056749967764 0.00056528428042 0.00056134505202 0.00055747169269 0.0005536629043 0.00054991633835 0.00054622999376 
0.00054260126662 0.00053902798187 0.00053550812424 0.00053203963465 0.00052862019063 0.00052524664218 0.00052191608644 0.00051862477851 0.00051536900831 
0.0005121462616 0.00050895507379 0.0005057951262 0.00050266849748 0.00049957779292 0.0004965266288 0.00080574230817 0.00079725262348 0.00078873995612 
0.00078020257983 0.00077164251 0.00076306166997 0.0007544627124 0.00074584839029 0.00073722134334 0.00072858377939 0.00070072776152 0.00069470529347 
0.00068879857133 0.0006830052436 0.00067732216249 0.00067174590613 0.00066627256683 0.00066089775164 0.00065561691793 0.00065042594123 0.00064532103779 
0.00064029879235 0.00063535479328 0.00063048499476 0.00062568403831 0.00062094667728 0.00061626711132 0.00061164062082 0.00060706444983 0.00060253649363 
0.00059805672149 0.00059362772552 0.00058925149676 0.00058493079529 0.00058066774066 0.0005764649685 0.00057232351333 0.00056824447889 0.00056422849004 
0.00056221129899 0.00055830991288 0.00055447264074 0.00055069774781 0.00054698358354 0.00054332764822 0.00053972767729 0.00053618162499 0.00053268760213 
0.00052924407116 0.00052584825358 0.00052249828767 0.0005191905833 0.00051592185208 0.00051268870566 0.00050948868614 0.00050632068142 0.00050318446985 
0.00050008164683 0.00049701526406 0.00049398842312 0.00080354427956 0.00079505443957 0.0007865372507 0.00077799169631 0.00076941889121 0.00076082076425 
0.00075219986271 0.00074355856004 0.00073489940611 0.00072622421432 0.00069581375391 0.00068986709046 0.00068403353396 0.00067831091573 0.00067269634352 
0.00066718578923 0.00066177577373 0.00065646191638 0.00065123994693 0.0006461059925 0.0006410563293 0.00063608743767 0.00063119540963 0.00062637592898 
0.00062162462864 0.00061693619673 0.00061230532896 0.00060772747482 0.00060319982298 0.00059872076623 0.00059429034577 0.00058991036081 0.00058558304471 
0.00058131041631 0.00057709461055 0.00057293787662 0.0005688410288 0.00056480540273 0.00056083114066 0.00055901508771 0.00055515228385 0.00055135146525 
0.00054761090577 0.0005439290696 0.00054030350285 0.00053673246549 0.00053321387761 0.00052974612719 0.0005263272643 0.00052295545855 0.00051962832989 
0.00051634334914 0.00051309720518 0.00050988688175 0.00050670985224 0.0005035653962 0.00050045343376 0.00049737547894 0.0004943341497 0.00049133275468 
0.0008013038635 0.00079281152089 0.00078428777991 0.00077573184612 0.00076714423809 0.00075852632159 0.00074988116253 0.00074121037559 0.00073251637583 
0.00072380024048 0.00069083617361 0.00068496647797 0.00067920738306 0.00067355621978 0.00066801037871 0.00066256644711 0.00065722039504 0.00065196775341 
0.00064680505967 0.00064172826138 0.00063673409024 0.00063181851867 0.0006269785953 0.00062221010666 0.00061750872973 0.00061286923246 0.0006082874179 
0.00060375883114 0.00059928055879 0.00059485114407 0.0005904713076 0.00058614162882 0.00058186400491 0.00057764088844 0.00057347365792 0.00056936408672 
0.00056531283821 0.00056132119359 0.0005573892233 0.00055577721209 0.00055195286059 0.00054818821455 0.00054448195893 0.00054083222648 0.0005372368546 
0.00053369439351 0.00053020282434 0.00052676069527 0.00052336623748 0.00052001804887 0.00051671371195 0.00051345112479 0.00051022700383 0.00050703910236 
0.00050388519906 0.00050076433439 0.00049767665431 0.00049462401667 0.00049160825409 0.00048863239257 0.00077883606319 0.0007726137422 0.00076653533277 
0.00076059763987 0.00075479887471 0.00074913679066 0.00074361034439 0.00073821813227 0.00073295669791 0.00072782432972 0.0006875442218 0.00068179967027 
0.00067615117749 0.00067059623014 0.00066513275777 0.00065975812644 0.00065446900311 0.0006492621614 0.00064413436071 0.00063908307608 0.00063410551314 
0.00062919883425 0.00062436013877 0.00061958706228 0.0006148755137 0.00061022207868 0.00060562332936 0.0006010761875 0.00059657906944 0.00059213101945 
0.00058773332801 0.00058338758257 0.00057909600505 0.00057486112253 0.00057068568484 0.00056657105009 0.00056251965529 0.00055853294313 0.00055461200691 
0.00055112782861 0.00054730385606 0.00054354794957 0.00053985869904 0.00053623390751 0.00053267105171 0.00052916827104 0.00052572364195 0.0005223352826 
0.00051900104275 0.00051571910628 0.00051248754455 0.0005093030222 0.00050616329946 0.00050306571225 0.00050000812842 0.00049698929823 0.00049400945356 
0.00049106959776 0.00048817144852 0.00048531695603 0.00077220170595 0.00076601479573 0.00075996821674 0.00075405822765 0.00074828268415 0.00074263924366 
0.00073712572204 0.00073174089645 0.00072648052325 0.00072134212474 0.00068304462707 0.00067736124087 0.00067177192852 0.00066627411415 0.00066086579765 
0.00065554464727 0.00065030726041 0.00064515049953 0.00064007170525 0.00063506849297 0.00063013747732 0.00062527662887 0.0006204829404 0.00061575395462 
0.00061108617078 0.00060647645058 0.00060192145138 0.00059741903897 0.00059296723029 0.00058856544431 0.0005842147456 0.00057991632695 0.00057567215962 
0.00057148412583 0.00056735469967 0.00056328500681 0.00055927724692 0.00055533243594 0.00055145187278 0.00054797096555 0.00054418332075 0.0005404622768 
0.00053680629313 0.00053321320681 0.00052968079386 0.000526207527 0.00052279150057 0.00051943055441 0.00051612317939 0.00051286730639 0.00050966105029 
0.00050650183352 0.00050338722094 0.00050031489259 0.00049728323269 0.00049429121299 0.00049133863065 0.00048842674562 0.00048555677528 0.00048273053185 
0.00076574339974 0.0007595911071 0.00075357521231 0.00074769174993 0.0007419381145 0.00073631190332 0.00073081080003 0.00072543162119 0.00072017160938 
0.00071502726205 0.0006787439867 0.00067311904519 0.00066758599649 0.00066214324589 0.00065678792477 0.00065151789325 0.00064633000584 0.00064122186084 
0.00063619046376 0.00063123321099 0.00062634738338 0.00062153089229 0.0006167809235 0.00061209467251 0.00060746923765 0.00060290181015 0.00059838933786 
0.00059392979436 0.0005895219402 0.00058516513151 0.0005808595133 0.00057660637478 0.00057240743048 0.00056826439373 0.00056417863985 0.00056015205816 
0.00055618571097 0.00055228099823 0.00054843905235 0.00054496237696 0.00054120975483 0.00053752209265 0.00053389805413 0.00053033562142 0.00052683292658 
0.00052338836518 0.00051999983152 0.00051666561018 0.00051338432517 0.00051015394297 0.00050697246096 0.00050383766627 0.00050074751885 0.0004976998401 
0.00049469330375 0.00049172714492 0.00048880126355 0.00048591607332 0.00048307306124 0.00048027372269 0.00075952041301 0.00075340064739 0.00074741351974 
0.00074155447166 0.00073582129317 0.00073021044994 0.00072471922066 0.0007193445439 0.00071408302174 0.00070893126701 0.00067468965775 0.00066911976181 
0.00066364049971 0.00065824983806 0.00065294469252 0.00064772355589 0.00064258336737 0.00063752152185 0.00063253537464 0.00062762230941 0.00062278019013 
0.00061800616262 0.00061329818465 0.00060865330016 0.00060406897236 0.0005995422313 0.00059507098449 0.00059065293728 0.00058628689053 0.00058197256296 
0.00057770973424 0.00057349968571 0.0005693435065 0.00056524251194 0.00056119809489 0.00055721155577 0.00055328452974 0.0005494176794 0.00054561175395 
0.00054213990168 0.00053842068417 0.00053476482449 0.00053117139424 0.00052763847132 0.00052416417786 0.00052074696557 0.00051738521253 0.00051407712906 
0.00051082097727 0.00050761529275 0.0005044579202 0.00050134699838 0.0004982806144 0.00049525687699 0.00049227463873 0.0004893332192 0.00048643236132 
0.00048357261693 0.00048075511193 0.00047798098319 0.00075357216278 0.0007474829795 0.00074152223563 0.00073568566585 0.00072996972706 0.0007243719738 
0.0007188882044 0.00071351591547 0.00070825085787 0.00070309005516 0.00067091249751 0.00066539474514 0.0006599655902 0.00065462409995 0.00064936669102 
0.00064419190831 0.00063909679713 0.0006340789896 0.00062913598975 0.00062426568908 0.00061946506047 0.00061473225014 0.00061006428966 0.0006054593551 
0.0006009144157 0.00059642702502 0.00059199507734 0.00058761674392 0.00058329052223 0.00057901639905 0.00057479378019 0.00057062376529 0.00056650744502 
0.00056244552433 0.00055843958485 0.00055449038516 0.00055059969612 0.00054676784161 0.00054299574793 0.00053952826928 0.00053584069668 0.0005322151145 
0.00052865102708 0.00052514612233 0.00052169913065 0.00051830845134 0.00051497247621 0.00051168943396 0.00050845783413 0.00050527569663 0.00050214186621 
0.00049905412447 0.00049601041403 0.00049301003453 0.00049005097918 0.00048713303844 0.00048425589438 0.00048141986092 0.00047862586968 0.00047587498771 
0.00074792275819 0.00074186225413 0.00073592541955 0.00073010813902 0.00072440721533 0.00071881915203 0.00071334049932 0.00070796769509 0.00070269722986 
0.00069752545778 0.00066743115892 0.00066196153104 0.00065657952888 0.00065128327594 0.00064607072601 0.00064093929948 0.00063588673598 0.00063091089308 
0.00062600922639 0.00062117931771 0.00061641868961 0.00061172507634 0.00060709630929 0.00060252946219 0.00059802270739 0.0005935731556 0.0005891790094 
0.00058483819453 0.00058054992055 0.00057631319881 0.00057212805798 0.00056799524332 0.00056391534131 0.00055988944688 0.00055591846492 0.0005520037775 
0.00054814653643 0.0005443468984 0.00054060599554 0.00053714249041 0.00053348403801 0.00052988713746 0.00052635036796 0.00052287229578 0.00051945133497 
0.00051608604017 0.0005127747922 0.00050951599237 0.00050630799808 0.00050314935255 0.00050003819357 0.00049697313702 0.00049395185324 0.00049097356096 
0.00048803666323 0.00048514083476 0.00048228567943 0.00047947147089 0.00047669910158 0.0004739692062 0.00074258388314 0.00073654933006 0.00073063408467 
0.00072483356104 0.00071914469923 0.00071356354895 0.00070808698594 0.00070271144389 0.00069743324521 0.00069224816429 0.00066425255524 0.00065882713392 
0.00065348883063 0.00064823519794 0.00064306392402 0.00063797353462 0.00063296104843 0.00062802461307 0.00062316204339 0.00061837086228 0.00061364817475 
0.00060899251441 0.00060440103063 0.00059987115516 0.00059540079873 0.00059098734464 0.00058662936246 0.00058232460769 0.00057807157725 0.00057386992165 
0.00056971922187 0.00056562048944 0.00056157383728 0.00055758069647 0.00055364195426 0.0005497586512 0.0005459316668 0.00054216177065 0.000538449389 
0.00053498830874 0.00053135750906 0.00052778695417 0.000524276156 0.00052082322998 0.00051742699596 0.00051408613654 0.00051079876781 0.00050756316063 
0.00050437836351 0.00050124232408 0.0004981532899 0.00049510992263 0.00049211016655 0.0004891532829 0.0004862375738 0.00048336237596 0.00048052766283 
0.00047773325214 0.00047498039384 0.0004722693463 0.00073755607332 0.00073154510549 0.00072564898493 0.00071986262962 0.00071418288474 0.00070860595326 
0.00070312906864 0.00069774829598 0.000692459951 0.00068726006538 0.00066137516842 0.00065599026238 0.00065069192665 0.00064547750575 0.00064034474472 
0.00063529228128 0.00063031774588 0.00062541874216 0.00062059283764 0.00061583818638 0.00061115234106 0.00060653278495 0.00060197715595 0.00059748293317 
0.00059304742119 0.00058866899185 0.00058434501658 0.00058007412741 0.00057585420338 0.00057168522776 0.00056756629956 0.00056349844618 0.00055948213983 
0.00055551865663 0.00055160883948 0.00054775393916 0.00054395462726 0.00054021160716 0.00053652512016 0.00053306497434 0.0005294594604 0.00052591370137 
0.00052242735799 0.00051899836605 0.00051562577968 0.00051230765088 0.00050904312077 0.00050583039312 0.00050266786451 0.0004995537398 0.00049648642572 
0.00049346384778 0.00049048521025 0.00048754847896 0.00048465278483 0.00048179689258 0.00047898093169 0.00047620468165 0.00047346911598 0.00047077484781 
0.00073282957277 0.00072684057349 0.00072096109112 0.00071518654007 0.00070951315565 0.00070393807442 0.00069845789746 0.00069306947191 0.00068776939583 
0.00068255289066 0.00065878734564 0.0006534402021 0.00064817840539 0.00064299996066 0.00063790324407 0.00063288630605 0.00062794690282 0.00062308289237 
0.00061829200809 0.00061357233957 0.00060892104626 0.00060433625172 0.00059981517406 0.00059535518283 0.00059095366825 0.00058660834338 0.00058231701279 
0.00057807777715 0.00057388908659 0.00056975009958 0.00056566050161 0.00056162042888 0.00055763147575 0.00055369442262 0.00054981073856 0.00054598131249 
0.00054220683223 0.00053848808046 0.00053482547713 0.00053136417683 0.00052778216037 0.00052425969134 0.00052079599107 0.00051738958173 0.00051403917894 
0.00051074311757 0.00050750070628 0.00050430954536 0.00050116866928 0.00049807586112 0.00049502962924 0.00049202787552 0.0004890691459 0.00048615186626 
0.00048327480165 0.00048043707171 0.00047763822908 0.00047487831393 0.00047215808905 0.0004694788151 0.00072838369426 0.00072241425803 0.00071654947554 
0.00071078405272 0.00070511480642 0.00069953931574 0.00069405425296 0.00068865637206 0.00068334256572 0.00067810869297 0.00065646898186 0.00065115589176 
0.00064592819081 0.000640783093 0.00063571940904 0.00063073563976 0.0006258291116 0.00062099803272 0.00061624041191 0.00061155392164 0.0006069361285 
0.00060238438112 0.00059789636865 0.00059346900322 0.00058909995321 0.00058478657494 0.00058052653229 0.00057631728356 0.00057215746233 0.00056804628021 
0.00056398280226 0.00055996832926 0.00055600397501 0.00055209091553 0.00054823053821 0.00054442411137 0.00054067236082 0.00053697560529 0.00053333448258 
0.00052987051133 0.00052631014036 0.00052280917733 0.00051936689902 0.00051598143734 0.00051265218499 0.0005093775212 0.00050615599187 0.00050298615986 
0.00049986597563 0.00049679390255 0.00049376784235 0.00049078598871 0.00048784664454 0.00048494811758 0.00048208877622 0.00047926774892 0.00047648453674 
0.00047373899207 0.00047103258561 0.00046836625097 0.00072418237613 0.00071823097992 0.00071237848212 0.00070662048004 0.00070095397128 0.00069537632781 
0.00068988449362 0.00068447652887 0.00067914807709 0.00067389551759 0.00065438613337 0.0006491051167 0.00064390831721 0.00063879445154 0.00063376185389 
0.00062880883067 0.0006239329484 0.00061913320459 0.00061440743225 0.00060975272352 0.00060516655054 0.00060064673395 0.00059619041008 0.0005917944939 
0.00058745657711 0.00058317384646 0.00057894339394 0.0005747626064 0.00057062959841 0.00056654375007 0.00056250469453 0.00055851338026 0.00055457139761 
0.00055067985351 0.00054684096644 0.00054305541689 0.00053932392209 0.00053564738162 0.00053202635526 0.00052855737965 0.00052501760259 0.00052153679792 
0.00051811451766 0.00051474897132 0.00051143993476 0.00050818573596 0.00050498458759 0.00050183482069 0.00049873496176 0.00049568286357 0.00049267650741 
0.00048971397827 0.00048679340315 0.00048391259088 0.00048106994711 0.00047826420077 0.00047549512685 0.00047276293152 0.00047006873395 0.00046741405168 
0.00072017273852 0.00071423790417 0.00070839667705 0.00070264492333 0.00069698023622 0.00069139924859 0.00068590039983 0.0006804813886 0.00067513853148 
0.00066986746644 0.0006524906662 0.0006472389029 0.00064207173007 0.00063698711804 0.00063198353106 0.00062705955873 0.00062221358079 0.00061744401532 
0.00061274824344 0.00060812383263 0.00060356835795 0.00059907947606 0.00059465331216 0.0005902878274 0.00058597973152 0.00058172618324 0.0005775236842 
0.00057336990998 0.00056926219587 0.00056520008758 0.00056118351043 0.00055721388709 0.00055329221452 0.00054942064233 0.00054560148579 0.00054183518359 
0.00053812284567 0.00053446524046 0.00053086248019 0.00052738721626 0.0005238665955 0.00052040504544 0.0005170016137 0.00051365568362 0.00051036616173 
0.00050713156853 0.00050394998634 0.00050082006247 0.00049773992 0.00049470693843 0.00049171961867 0.00048877574863 0.00048587306347 0.0004830091922 
0.0004801823937 0.00047739100352 0.00047463491155 0.00047191478496 0.00046923187542 0.00046658744894 0.00071628213515 0.00071036345152 0.00070453312081 
0.00069878766073 0.00069312440713 0.00068754106421 0.00068203555336 0.00067660595441 0.00067124943709 0.00066596116459 0.00065071699999 0.00064549367529 
0.0006403546067 0.0006352981081 0.000630322577 0.00062542699588 0.0006206096909 0.00061586906274 0.00061120262725 0.00060660789332 0.00060208213039 
0.00059762246413 0.00059322617425 0.00058888980215 0.00058461066193 0.00058038446184 0.00057620869622 0.00057208028543 0.00056799687799 0.0005639574555 
0.00055996261406 0.00055601332331 0.00055211119259 0.00054825885497 0.00054445805689 0.00054071049139 0.00053701641439 0.00053337669196 0.0005297917167 
0.00052630865961 0.00052280681125 0.00051936371241 0.0005159789782 0.00051265193231 0.0005093815269 0.00050616609808 0.00050300363764 0.00049989301462 
0.00049683161173 0.00049381779326 0.00049084889281 0.00048792295162 0.00048503703456 0.00048218909728 0.00047937710554 0.00047659952936 0.00047385589241 
0.00047114742363 0.00046847502813 0.00046584048552 0.00071242045076 0.00070651790246 0.00070069893928 0.00069496106785 0.00068930058942 0.00068371607584 
0.00067820564143 0.00067276735592 0.00066739840804 0.00066209499511 0.00064898299027 0.00064378777972 0.00063867697034 0.00063364839733 0.00062870089304 
0.00062383333645 0.00061904462879 0.00061433244716 0.00060969480817 0.00060512911641 0.00060063238416 0.00059620165386 0.00059183407099 0.0005875259251 
0.0005832738316 0.00057907463275 0.00057492436831 0.00057082067984 0.00056676087539 0.00056274372554 0.00055877009333 0.00055484112945 0.00055095869708 
0.00054712532249 0.00054334298421 0.00053961338388 0.00053593770673 0.00053231587396 0.00052874856831 0.0005252569758 0.00052177399798 0.00051834958487 
0.00051498361938 0.00051167538926 0.00050842370696 0.00050522710802 0.00050208388802 0.00049899209771 0.00049594937215 0.00049295378605 0.00049000267487 
0.00048709351715 0.00048422401273 0.00048139136605 0.00047859380471 0.00047582946786 0.0004730983746 0.00047040117016 0.00046773931213 0.00046511495144 
0.00070848406704 0.00070259835997 0.000696792881 0.00069106393469 0.00068540884928 0.00067982542197 0.00067431296124 0.00066886921568 0.00066349124959 
0.00065817551026 0.0006471942417 0.00064202835604 0.00063694599915 0.00063194630939 0.000627027814 0.0006221894207 0.00061742960207 0.00061274624039 
0.00060813768448 0.00060360080166 0.00059913277596 0.00059473059951 0.00059039084291 0.00058611003825 0.00058188475104 0.00057771151699 0.00057358673982 
0.0005695073843 0.00056547076268 0.00056147636681 0.00055752444969 0.00055361636718 0.00054975410494 0.00054594042447 0.00054217766252 0.00053846708588 
0.00053481009818 0.00053120689041 0.00052765814035 0.00052415756198 0.00052069397582 0.00051728922463 0.00051394276232 0.0005106538523 0.00050742128578 
0.00050424387088 0.00050111956118 0.00049804634795 0.00049502191932 0.00049204398624 0.00048911006551 0.00048621756155 0.00048336379394 0.00048054631222 
0.00047776287462 0.00047501191028 0.00047229343972 0.00046960809754 0.00046695736843 0.00046434359833 0.00070436341371 0.00069849719367 0.00069270779132 
0.00068699116541 0.00068134472508 0.00067576731707 0.00067025678592 0.00066481177953 0.00065942902428 0.00065410492633 0.00064525181227 0.00064011693824 
0.000635065584 0.00063009675279 0.00062520878735 0.00062040091203 0.00061567145741 0.00061101830586 0.00060643914233 0.00060193130212 0.00059749226399 
0.00059311860694 0.00058880640922 0.00058455282401 0.00058035403705 0.00057620687874 0.00057210702087 0.00056805230379 0.00056403991875 0.00056006917321 
0.0005561399949 0.00055225432402 0.00054841428403 0.00054462210228 0.00054088026765 0.00053719021685 0.00053355328918 0.0005299702053 0.00052644121941 
0.00052293231176 0.00051948990138 0.00051610578544 0.00051277990153 0.00050951140564 0.00050629903805 0.00050314103943 0.00050003572203 0.00049698118529 
0.00049397518222 0.00049101457611 0.00048809757253 0.00048522129954 0.00048238325201 0.00047958062194 0.00047681162829 0.00047407470719 0.00047136955546 
0.00046869696444 0.00046605872788 0.00046345688546 0.00087648376183 0.00086737804874 0.00085827916933 0.00084918548029 0.00084009676532 0.00083101393906 
0.00082193819347 0.00081287159323 0.00080381528113 0.00079477091357 0.0007692592273 0.00076260711932 0.00075607813436 0.00074967015114 0.00074337950973 
0.00073720291776 0.00073113689191 0.00072517765151 0.0007193207142 0.00071356217345 0.00070789812908 0.00070232509844 0.00069683804575 0.00069143359154 
0.00068610639318 0.00068085240732 0.0006756662824 0.00067054503574 0.00066548501297 0.00066048525856 0.00065554448636 0.00065066396721 0.0006458447578 
0.00064108831401 0.00063639612645 0.00063176962273 0.00062720953522 0.00062271641634 0.00061829052873 0.00061576960686 0.00061147284166 0.00060724429983 
0.00060308279121 0.00059898655759 0.00059495395228 0.00059098261381 0.00058707053123 0.0005832157725 0.00057941668972 0.00057567042969 0.00057197507751 
0.00056832775003 0.00056472583998 0.00056116673079 0.00055764877956 0.00055417077916 0.00055073293073 0.00054733582598 0.00054398182165 0.00054067291385 
0.00087429776426 0.00086519644443 0.00085609712655 0.00084699805389 0.00083789954091 0.00082880213192 0.0008197073742 0.00081061673708 0.00080153157297 
0.00079245352256 0.00076446557893 0.00075788700599 0.00075142924277 0.00074509066617 0.00073886780349 0.0007327569182 0.00072675478379 0.00072085718326 
0.00071506019374 0.00070935992321 0.00070375293276 0.00069823452024 0.0006928010567 0.0006874489075 0.00068217320404 0.0006769696423 0.00067183336142 
0.00066676138909 0.00066175042148 0.00065679858642 0.00065190591633 0.00064707272102 0.000642300145 0.00063758972349 0.00063294255385 0.00062835980894 
0.00062384231172 0.00061939058453 0.00061500498208 0.00061268644909 0.00060842779821 0.00060423578222 0.00060010899738 0.00059604598347 0.0005920449701 
0.00058810369594 0.00058422061833 0.00058039391726 0.00057662121275 0.00057290067671 0.00056923045717 0.00056560776299 0.00056203021996 0.00055849514182 
0.00055500149031 0.00055154781395 0.00054813390089 0.00054476140599 0.00054143167084 0.00053814702838 0.00087199714543 0.0008628986471 0.00085379709849 
0.00084469163271 0.00083558172515 0.00082646818157 0.00081735244744 0.0008082358088 0.00079911971276 0.00079000560716 0.00075954786217 0.00075304456449 
0.00074666061808 0.00074039326258 0.00073423945529 0.00072819554055 0.00072225823363 0.00071642313507 0.00071068687637 0.0007050455233 0.00069949550715 
0.00069403274666 0.00068865371514 0.00068335422339 0.00067813046192 0.00067297810396 0.00066789244311 0.00066287053501 0.00065790939237 0.00065300713623 
0.00064816361125 0.00064337942603 0.00063865510828 0.00063399214093 0.00062939160692 0.0006248540907 0.00062038071505 0.00061597167098 0.00061162716544 
0.00060951467866 0.00060529466812 0.00060113952456 0.00059704788981 0.00059301814562 0.00058904867367 0.00058513758895 0.00058128333776 0.0005774840481 
0.00057373804387 0.00057004332288 0.00056639790026 0.00056279966509 0.00055924643293 0.00055573558451 0.00055226614169 0.00054883680614 0.00054544757984 
0.00054209979919 0.00053879504544 0.00053553526598 0.00086966853927 0.00086057028635 0.00085146425342 0.00084234946795 0.00083322568581 0.00082409346574 
0.00081495360891 0.00080580818304 0.00079665771352 0.00078750415389 0.00075458055378 0.00074815398556 0.00074184446808 0.00073564927037 0.00072956521767 
0.0007235889172 0.00071771663525 0.00071194468491 0.00070626964571 0.000700687436 0.00069519479851 0.00068978780197 0.00068446332377 0.00067921729094 
0.00067404558331 0.00066894431917 0.00066390959147 0.00065893811004 0.00065402731591 0.00064917532056 0.0006443819968 0.00063964744441 0.00063497247201 
0.00063035759025 0.00062580448361 0.00062131314668 0.00061688473279 0.00061251904876 0.00060821628768 0.00060631239309 0.0006021310053 0.0005980126062 
0.00059395595441 0.00058995933056 0.00058602133423 0.00058214024327 0.00057831454735 0.00057454251949 0.00057082252329 0.00056715325803 0.00056353263477 
0.00055995842873 0.00055642882151 0.00055294193052 0.00054949630028 0.00054609129409 0.00054272678365 0.00053940397383 0.00053612426883 0.00053288953609 
0.0008485626167 0.000841659913 0.00083491331952 0.00082831885448 0.00082187335448 0.00081557362498 0.00080941726593 0.00080340149251 0.00079752275402 
0.00079177814756 0.00075138910601 0.00074508755797 0.00073888801608 0.00073278891152 0.00072678760958 0.0007208816924 0.00071506792694 0.00070934332482 
0.00070370514741 0.00069815077295 0.00069267689458 0.00068728150976 0.00068196125374 0.00067671365782 0.00067153552389 0.0006664237533 0.00066137560804 
0.00065638904334 0.00065146203757 0.00064659419685 0.00064178561787 0.0006370374328 0.00063235067234 0.00062772715896 0.00062316865459 0.0006186762927 
0.00061425177685 0.00060989595274 0.00060560978752 0.00060182521592 0.00059764488224 0.00059353614466 0.00058949733162 0.00058552653633 0.00058162166178 
0.00057778102159 0.00057400274472 0.00057028458576 0.00056662521014 0.00056302226263 0.0005594739293 0.00055597785789 0.00055253183083 0.00054913398868 
0.00054578292922 0.00054247744245 0.00053921758187 0.00053600375471 0.00053283732004 0.00052971925174 0.00084187136862 0.00083500687134 0.00082829370673 
0.00082172820056 0.00081530676638 0.00080902606682 0.00080288317504 0.00079687500363 0.00079099771569 0.00078524779706 0.00074685009582 0.00074061013101 
0.00073447094574 0.00072843037522 0.00072248633163 0.00071663573692 0.00071087569158 0.00070520374046 0.00069961698718 0.00069411276085 0.00068868835628 
0.00068334137568 0.00067806879992 0.00067286807071 0.00066773644387 0.00066267097282 0.00065766898683 0.0006527287655 0.00064784851015 0.00064302748277 
0.00063826610541 0.00063356498243 0.00062892512028 0.00062434793403 0.00061983484431 0.00061538681396 0.00061100540121 0.00060669136872 0.00060244550043 
0.00059866139859 0.00059451824144 0.00059044546445 0.00058644111779 0.00058250335159 0.00057863057948 0.00057482117829 0.00057107280997 0.00056738425099 
0.00056375335353 0.00056017840553 0.00055665737473 0.00055318849632 0.00054976937911 0.00054639851782 0.00054307458222 0.00053979651471 0.00053656416917 
0.00053337821582 0.0005302394676 0.0005271490907 0.00083530929378 0.00082848226886 0.0008218020416 0.00081526471964 0.0008088666815 0.00080260429114 
0.00079647459226 0.0007904737507 0.00078459784986 0.00077884339028 0.00074246745673 0.00073628716667 0.0007302059536 0.00072422228769 0.00071833320639 
0.00071253602534 0.0007068286568 0.00070120791554 0.0006956710971 0.00069021580244 0.00068483954111 0.00067953925951 0.00067431289268 0.00066915829545 
0.00066407171485 0.00065905127539 0.00065409427055 0.00064919901419 0.00064436425691 0.00063958877074 0.00063487296288 0.00063021734515 0.00062562272989 
0.00062109026544 0.00061662090747 0.00061221580316 0.00060787617558 0.00060360251505 0.00059939547699 0.000595613158 0.00059150620562 0.00058746800044 
0.00058349705029 0.00057959189736 0.00057575059141 0.00057197133193 0.00056825260702 0.00056459269313 0.00056098953923 0.00055744184307 0.00055394795615 
0.00055050533756 0.00054711248693 0.00054376798145 0.00054047038294 0.00053721909221 0.00053401367466 0.00053085457225 0.0005277426456 0.00052467884287 
0.00082892762399 0.0008221366096 0.00081548811939 0.00080897799666 0.00080260216572 0.00079635713695 0.00079023950853 0.0007842448641 0.00077836984595 
0.00077261011228 0.00073828194117 0.00073215910917 0.0007261338403 0.00072020445112 0.0007143682575 0.00070862282759 0.00070296576941 0.00069739422602 
0.00069190562927 0.00068649772264 0.00068116785973 0.00067591364494 0.00067073226764 0.0006656217784 0.0006605794461 0.00065560244194 0.00065068927213 
0.00064583766553 0.00064104645834 0.00063631485915 0.0006316429578 0.00062703089921 0.00062247939927 0.00061798979197 0.00061356202872 0.00060919777951 
0.00060489780752 0.00060066270984 0.0005964929116 0.00059271318643 0.00058864099445 0.00058463619396 0.00058069763143 0.0005768238044 0.00057301277016 
0.000569262951 0.00056557300739 0.00056194084969 0.00055836529808 0.0005548442492 0.00055137649716 0.0005479597741 0.00054459248603 0.00054127369391 
0.00053800173802 0.00053477610592 0.00053159652092 0.00052846324505 0.00052537697474 0.00052233838129 0.00082276269454 0.00081600635205 0.00080938796149 
0.00080290301512 0.00079654791451 0.00079031897741 0.00078421179692 0.0007782224547 0.0007723469716 0.00076658147649 0.00073432244815 0.00072825385765 
0.00072228197276 0.00071640452663 0.00071061913327 0.00070492319518 0.00069931433217 0.00069379019487 0.00068834828689 0.0006829861844 0.00067770121071 
0.00067249122223 0.00066735352351 0.00066228598272 0.0006572861368 0.00065235153067 0.00064748035184 0.00064267072927 0.00063792156895 0.00063323188412 
0.00062860146588 0.00062403082183 0.00061952059618 0.00061507103187 0.00061068293616 0.00060635710609 0.00060209472334 0.000597895794 0.00059376105861 
0.00058998430985 0.00058594524092 0.00058197274892 0.00057806534047 0.00057422152682 0.00057043974553 0.0005667186509 0.00056305655381 0.00055945167149 
0.00055590271102 0.00055240758429 0.00054896524627 0.00054557380847 0.00054223157688 0.00053893745326 0.00053569026465 0.00053248947274 0.00052933450914 
0.00052622549796 0.00052316345203 0.00052014892508 0.00081683835504 0.0008101148244 0.00080352466695 0.00079706350584 0.0007907271896 0.00078451211537 