# vtk DataFile Version 5.1
vtk output
ASCII
DATASET STRUCTURED_POINTS
DIMENSIONS 20 20 40
SPACING 0.05 0.05 0.05
ORIGIN 3.225 -0.475 0.525
POINT_DATA 16000
FIELD FieldData 1
potential 1 16000 double
0.0011779129991 0.0011636948526 0.0011497349174 0.0011360299177 0.0010507260627 0.0010407318394 0.0010308025553 0.0010209346368 0.0010111267157 
0.0010013789324 0.00099169220753 0.00098206721804 0.00097250617733 0.00096301162176 0.0009535864135 0.0009442281494 0.00093494007108 0.00092572500076 
0.00091658258102 0.00090751419074 0.001186016928 0.0011716167698 0.0011574817522 0.0011436063685 0.0010559837547 0.0010459436366 0.0010359629287 
0.0010260380968 0.0010161680214 0.0010063524884 0.00099659268027 0.00098688987895 0.00097724632951 0.00096766351214 0.00095814498227 0.00094869189949 
0.00093930398618 0.0009299851987 0.00092073650505 0.00091155922359 0.0011939000795 0.0011793215161 0.0011650130844 0.0011509702827 0.001061099457 
0.0010510130347 0.0010409792391 0.001030996314 0.0010210627229 0.0010111781157 0.001001344004 0.0009915623488 0.00098183543914 0.00097216441479 
0.00096255258001 0.00095300383629 0.00094351568906 0.00093409243629 0.00092473726107 0.00091545211836 0.0012017305512 0.0011869743052 0.0011724915115 
0.0011582753804 0.0010662427417 0.0010561063766 0.0010460174726 0.0010359733648 0.0010259728296 0.0010160166671 0.0010061053099 0.00099624237322 
0.00098642823771 0.00097666675046 0.00096696044691 0.00095731251201 0.00094772195953 0.00093819297414 0.0009287295942 0.00091933408991 0.0012096664129 
0.0011947299748 0.0011800739254 0.0011656898574 0.0010715778671 0.0010613872585 0.0010512374791 0.0010411262524 0.0010310544763 0.0010210217104 
0.0010110293049 0.0010010793437 0.00099117490657 0.00098131865283 0.00097151312267 0.00096176314218 0.00095206604998 0.00094242850643 0.00093285362659 
0.00092334470109 0.0012178550819 0.0012027282457 0.0011878937769 0.0011733385697 0.001077248282 0.00106699684 0.0010567795128 0.0010465949801 
0.0010364448723 0.0010263288762 0.0010162488052 0.001006206788 0.00099620570958 0.00098624871828 0.0009763390946 0.00096648124814 0.00095667352301 
0.00094692225305 0.00093723151125 0.00092760346749 0.0012263903806 0.0012110741251 0.0011960585955 0.0011813278112 0.0010833708008 0.0010730510451 
0.0010627578429 0.0010524930427 0.0010422567475 0.0010320495599 0.0010218751958 0.0010117334673 0.0010016289391 0.00099156390169 0.00098154295283 
0.00097157062099 0.00096164532811 0.00095177406863 0.00094196081653 0.00093220775885 0.0012353603467 0.0012198472934 0.0012046430053 0.0011897328374 
0.0010900334934 0.001079636081 0.0010692604597 0.0010589062223 0.0010485751856 0.0010382695718 0.0010279905445 0.0010177408964 0.0010075247461 
0.00099734434235 0.00098720395789 0.00097710913053 0.00096705943611 0.00095706057961 0.00094711624219 0.00093723159194 0.0012448176548 0.0012291059888 
0.0012137007316 0.0011986038279 0.0010973045254 0.0010868190721 0.0010763495519 0.0010658969985 0.0010554621919 0.001045047208 0.001034655107 
0.001024288517 0.0010139512776 0.0010036462701 0.00099337819735 0.0009831528674 0.00097296970266 0.0009628343234 0.00095275213069 0.00094272720855 
0.0012547951898 0.0012388699625 0.0012232613243 0.0012079723058 0.001105224494 0.0010946417243 0.0010840690919 0.0010735067247 0.0010629578502 
0.0010524241975 0.0010419089373 0.0010314150872 0.0010209471451 0.0010105087096 0.0010001034646 0.00098973755335 0.00097941170705 0.00096913089925 
0.00095890212239 0.00094872621453 0.0012653051496 0.001249158681 0.0012333374392 0.0012178490665 0.0011138212538 0.0011031306883 0.0010924428435 
0.0010817611893 0.001071086802 0.0010604237383 0.0010497746308 0.0010391444802 0.001028534916 0.0010179522811 0.0010073997869 0.00099688356354 
0.00098640591178 0.0009759705169 0.00096558406776 0.00095524939043 0.0012763543965 0.0012599665076 0.0012439320124 0.0012282300522 0.0011231068256 
0.0011122960083 0.0011014826051 0.0010906695851 0.0010798599911 0.0010690567377 0.0010582635994 0.0010474841326 0.0010367231731 0.001025985667 
0.0010152752915 0.0010045996745 0.00099395907221 0.00098335925637 0.00097280546301 0.00096230180923 0.0012879004917 0.0012712720781 0.0012550097487 
0.0012390907399 0.0011330754487 0.0011221329193 0.0011111831932 0.0011002277715 0.0010892710418 0.0010783163361 0.0010673676693 0.0010564285132 
0.0010455061227 0.0010346034068 0.0010237252455 0.0010128781567 0.0010020647037 0.00099129000479 0.00098055870868 0.0009698765114 0.0012938875173 
0.0012770498367 0.0012606541128 0.0012447188956 0.0011121328408 0.0010968031095 0.0010819090105 0.0010674390102 0.0010533779473 0.001039712912 
0.0010264324125 0.0010135239338 0.0010009760589 0.00098877606683 0.00097691345337 0.00096537761342 0.00095415600064 0.00094323320541 0.00093259955655 
0.00092224411101 0.001307053631 0.0012899563134 0.0012733037541 0.001257110876 0.0011312397187 0.0011154811467 0.0011001700859 0.0010852913673 
0.0010708310728 0.0010567757545 0.0010431133992 0.0010298320887 0.0010169204786 0.0010043649867 0.00099215619672 0.00098028256033 0.00096873009501 
0.00095748695355 0.00094653967696 0.00093587726079 0.0013204907422 0.0013031211741 0.0012862086307 0.0012697377156 0.0011506399451 0.0011344540049 
0.0011187245886 0.0011034372293 0.0010885774522 0.0010741310433 0.0010600859518 0.0010464308295 0.0010331542822 0.0010202431877 0.0010076871577 
0.00099547586283 0.00098359263563 0.00097202617071 0.00096076403988 0.00094979418161 0.0013340675662 0.0013164187322 0.0012992272718 0.0012824856581 
0.0011702081733 0.0011535961859 0.0011374505891 0.0011217558246 0.0011064971906 0.0010916613511 0.0010772346426 0.0010632070855 0.0010495666485 
0.0010363007603 0.0010233980155 0.0010108482415 0.00099863441938 0.00098674506313 0.00097516743953 0.00096388867887 0.0013476186961 0.001329684102 
0.001312207624 0.0012951950137 0.0011897842995 0.0011727498805 0.0011561913759 0.0011400936804 0.0011244402635 0.0011092183389 0.0010944132101 
0.0010800159276 0.0010660140583 0.0010523958268 0.0010391497224 0.0010262622041 0.0010137186072 0.0010015070234 0.00098961548781 0.00097802967158 
0.0013609489961 0.0013427258548 0.0013249666773 0.0013076713155 0.0012091805567 0.0011917314132 0.0011747680012 0.0011582729717 0.0011422313021 
0.0011266285651 0.0011114521817 0.0010966906815 0.0010823320585 0.0010683647741 0.0010547765258 0.0010415562429 0.0010286861887 0.0010161561186 
0.0010039527774 0.00099206260069 0.0013738563518 0.0013553514193 0.0013373096631 0.0013197340355 0.0012282058459 0.001210350748 0.0011929905872 
0.001176108568 0.001159687502 0.0011437129917 0.0011281729057 0.0011130542049 0.0010983463682 0.001084036148 0.0010701127041 0.0010565630413 
0.0010433720932 0.0010305274496 0.0010180170593 0.0010058265726 0.0012800749969 0.0012646250984 0.0012494487617 0.0012345418612 0.0011416352472 
0.0011307867875 0.001120011248 0.0011093068074 0.0010986721261 0.0010881078727 0.0010776136471 0.0010671899858 0.0010568402792 0.0010465643677 
0.0010363661226 0.0010262429314 0.0010161979945 0.0010062341182 0.00099635097082 0.00098655067641 0.0012894283751 0.001273771996 0.0012583959298 
0.001243295703 0.0011479029912 0.0011369939924 0.0011261528619 0.0011153778193 0.0011046672517 0.0010940216466 0.0010834419486 0.0010729287446 
0.0010624836077 0.0010521089723 0.0010418086572 0.0010315782656 0.001021424383 0.0010113474357 0.0010013493311 0.00099143104152 0.0012986324769 
0.0012827731153 0.0012671981471 0.0012519068931 0.0011540970009 0.0011431264647 0.001132218356 0.0011213711918 0.0011105829998 0.0010998550365 
0.0010891881243 0.001078583654 0.0010680426419 0.0010575680217 0.0010471612397 0.0010368258263 0.0010265607996 0.0010163696562 0.0010062552283 
0.00099621912596 0.0013078080437 0.0012917436659 0.0012759714065 0.0012604903604 0.0011603410077 0.0011493063666 0.0011383285915 0.0011274054291 
0.0011165376916 0.001105724242 0.0010949667955 0.0010842675925 0.0010736285949 0.0010630510138 0.0010525376099 0.0010420922592 0.0010317137252 
0.0010214068141 0.0010111737924 0.0010010176587 0.001317071682 0.0013008018824 0.0012848311308 0.0012691527822 0.0011667593432 0.0011556564346 
0.0011446038361 0.0011336013243 0.0011226486142 0.0011117457445 0.001100894055 0.001090096147 0.0010793539336 0.0010686697541 0.0010580461153 
0.001047487055 0.0010369916636 0.0010265653012 0.0010162101288 0.0010059296332 0.0013265392254 0.0013100543206 0.0012938822278 0.0012780099705 
0.0011734648853 0.0011622880893 0.0011511552044 0.0011400669882 0.0011290233806 0.0011180254648 0.0011070744114 0.0010961722738 0.001085321052 
0.0010745253756 0.0010637860945 0.0010531084772 0.0010424915085 0.001031940497 0.0010214587808 0.0010110495964 0.0013362828142 0.0013195853614 
0.0013032096388 0.0012871397989 0.0011805545741 0.0011692965084 0.0011580770384 0.0011468964429 0.0011357551134 0.0011246546331 0.0011135977539 
0.0011025846321 0.00109161882 0.0010807046644 0.0010698436824 0.0010590418362 0.0010482970845 0.0010376157733 0.001027001714 0.0010164574176 
0.0013463795578 0.0013294628191 0.001312877388 0.0012966061593 0.0011881061681 0.0011767595042 0.0011654451689 0.0011541639912 0.0011429176279 
0.0011317077387 0.0011205356305 0.001109404546 0.0010983172347 0.0010872768183 0.0010762874491 0.0010653535234 0.0010544743732 0.0010436553234 
0.0010329020368 0.0010222164244 0.0013568756899 0.0013397392446 0.0013229325869 0.0013064580839 0.0011961786718 0.0011847342161 0.0011733162241 
0.0011619271034 0.0011505664938 0.0011392381955 0.0011279438775 0.0011166864912 0.0011054687282 0.0010942942126 0.0010831677656 0.0010720940712 
0.0010610726733 0.0010501091719 0.0010392083304 0.0010283747932 0.0013678005983 0.0013504314287 0.00133340298 0.0013167177087 0.0012048136786 
0.0011932618142 0.0011817317341 0.0011702238625 0.0011587405661 0.0011472844482 0.0011358585494 0.0011244659441 0.0011131091608 0.001101792087 
0.0010905205351 0.0010792981417 0.0010681257147 0.0010570101259 0.0010459539614 0.0010349624686 0.0013791653907 0.0013615560494 0.0013442981368 
0.0013273965302 0.0012140348314 0.0012023660806 0.0011907134415 0.0011790777788 0.0011674621767 0.0011558691914 0.0011443021692 0.0011327642738 
0.0011212589692 0.0011097914337 0.0010983651792 0.0010869850881 0.001075653568 0.0010643751878 0.0010531554931 0.0010419977147 0.0013909640684 
0.0013731065489 0.0013556131702 0.0013384888864 0.001223853175 0.0012120570293 0.0012002712493 0.0011884979419 0.0011767403757 0.0011650005263 
0.0011532824312 0.001141590285 0.0011299272571 0.0011182987232 0.0011067077902 0.0010951620572 0.001083660822 0.0010722115273 0.0010608181086 
0.0010494853619 0.0014031820921 0.0013850587845 0.0013673290293 0.0013499681355 0.0012342608094 0.0012223276686 0.0012103990502 0.0011984781856 
0.0011865678483 0.0011746717306 0.001162793203 0.0011509361795 0.0011391061836 0.0011273069868 0.0011155421763 0.0011038191964 0.0010921402561 
0.0010805104264 0.0010689345144 0.001057417605 0.0014097657056 0.0013914495383 0.0013736236683 0.0013562759424 0.0012165996295 0.001200281404 
0.0011844026136 0.0011689495623 0.0011539099238 0.0011392690608 0.0011250154845 0.0011111369783 0.0010976224011 0.0010844594539 0.0010716365291 
0.0010591446346 0.0010469706977 0.0010351014929 0.0010235258754 0.0010122344506 0.0014233954364 0.0014048171692 0.0013867118588 0.0013690943241 
0.0012359008381 0.0012191519162 0.001202852412 0.0011869883561 0.0011715454744 0.0011565114491 0.0011418730946 0.0011276194752 0.0011137384273 
0.0011002171713 0.0010870448247 0.0010742124342 0.001061704431 0.0010495106095 0.0010376180441 0.0010260164634 0.0014372132677 0.0014183516074 
0.0013999646376 0.0013820670867 0.0012554232164 0.0012382445243 0.0012215245634 0.0012052485827 0.0011894039808 0.0011739765038 0.0011589533045 
0.0011443243242 0.0011300764897 0.0011161968647 0.0011026754038 0.0010895021861 0.0010766602267 0.0010641401625 0.0010519315337 0.0010400189922 
0.0014511111153 0.0014319589504 0.0014132938249 0.0013950988702 0.0012750626746 0.0012574550819 0.0012403155295 0.0012236310077 0.0012073855426 
0.0011915666092 0.0011761612366 0.001161157706 0.0011465431311 0.0011323070746 0.0011184379352 0.0011049235565 0.0010917493 0.0010789041476 
0.0010663764191 0.0010541533955 0.0014649648344 0.0014455159498 0.0014265542618 0.0014080745122 0.0012946933665 0.0012766605696 0.0012591071463 
0.0012420160565 0.0012253738716 0.0012091659451 0.0011933808022 0.0011780058559 0.0011630288611 0.0011484381721 0.0011342223188 0.0011203693885 
0.001106863282 0.0010936945522 0.0010808508614 0.0010683194364 0.0014786300898 0.0014588807524 0.0014396234484 0.001420857214 0.0013141775711 
0.0012957256765 0.0012777625988 0.0012602709536 0.0012432371571 0.001226645837 0.0012104857649 0.0011947440707 0.001179408225 0.0011644670589 
0.0011499077787 0.001135718481 0.0011218839739 0.0011083946512 0.0010952376965 0.0010824001212 0.0014919600371 0.0014719149588 0.0014523617457 
0.0014333013468 0.001333374823 0.0013145118673 0.0012961464589 0.0012782620593 0.0012608432104 0.0012438761112 0.0012273473718 0.0012112449766 
0.0011955559673 0.0011802687794 0.0011653703781 0.0011508502116 0.0011366924565 0.0011228866802 0.0011094201504 0.0010962803005 0.0013822178389 
0.0013655390012 0.0013491510137 0.0013330470646 0.0012326575358 0.0012209565231 0.0012093365673 0.0011977968356 0.0011863357617 0.0011749541581 
0.0011636509936 0.0011524285231 0.0011412874824 0.0011302290968 0.0011192564559 0.0011083667727 0.0010975642879 0.0010868497773 0.0010762244193 
0.0010656905649 0.0013927044569 0.0013757965296 0.0013591862882 0.0013428685449 0.0012398281685 0.0012280539101 0.0012163557079 0.0012047323093 
0.0011931832811 0.0011817086118 0.0011703088176 0.0011589853995 0.0011477388123 0.0011365711794 0.0011254861052 0.0011144809106 0.0011035595549 
0.0010927235844 0.0010819744162 0.001071315197 0.0014031005979 0.0013859664824 0.0013691345553 0.0013526041323 0.0012469801602 0.0012351309511 
0.0012233530031 0.0012116446778 0.0012000052026 0.0011884362503 0.0011769382733 0.0011655110331 0.0011541577024 0.0011428794867 0.0011316800825 
0.0011205567876 0.0011095148307 0.0010985562882 0.0010876822629 0.0010768950932 0.0014134928337 0.001396130647 0.0013790789814 0.0013623367417 
0.0012542056815 0.0012422788593 0.0012304174922 0.0012186211326 0.0012068895616 0.0011952230856 0.0011836222794 0.0011720896266 0.0011606261571 
0.0011492343593 0.001137915934 0.0011266742094 0.001115509618 0.0011044251598 0.0010934231886 0.0010825065393 0.0014239698586 0.0014063771991 
0.0013891048551 0.0013721433247 0.0012615989095 0.0012495905964 0.0012376419891 0.0012257538779 0.0012139251157 0.0012021562001 0.0011904498596 
0.0011788070849 0.0011672305661 0.0011557210149 0.0011442814187 0.001132915719 0.0011216245106 0.0011104102262 0.00109927653 0.0010882265107 
0.0014346188598 0.0014167885013 0.0013992916175 0.0013821158756 0.0012692490029 0.0012571540102 0.0012451132205 0.0012331275675 0.0012211962769 
0.001209321644 0.0011975037097 0.0011857460715 0.0011740496771 0.0011624181881 0.00115085273 0.0011393589632 0.0011279351021 0.0011165871957 
0.0011053170327 0.0010941290639 0.0014454948413 0.0014274294415 0.0014097077702 0.0013923123278 0.0012772350859 0.0012650465983 0.0012529076938 
0.0012408180142 0.0012287786025 0.0012167910508 0.0012048569549 0.0011929768711 0.0011811557936 0.0011693957906 0.0011576988516 0.001146070661 
0.0011345105519 0.0011230224608 0.0011116106079 0.0011002789135 0.0014566613028 0.0014383550253 0.0014204038498 0.0014027883195 0.0012856224076 
0.0012733348685 0.0012610899493 0.0012488892884 0.0012367348217 0.001224627357 0.0012125681203 0.0012005606825 0.0011886076504 0.001176712393 
0.0011648780238 0.0011531086426 0.0011414041224 0.0011297700007 0.0011182103919 0.0011067282635 0.0014681582578 0.0014496065942 0.001431419986 
0.0014135825581 0.0012944630747 0.0012820675435 0.0012697092305 0.0012573907806 0.0012451125238 0.001232876827 0.0012206861841 0.0012085434233 
0.0011964509748 0.0011844128416 0.0011724326782 0.0011605149746 0.0011486596908 0.0011368726726 0.0011251576364 0.0011135196086 0.0014800088966 
0.0014612115413 0.0014427791538 0.0014247129848 0.0013037931092 0.001291280846 0.0012788016626 0.0012663559561 0.0012539457553 0.0012415737983 
0.0012292438951 0.0012169573247 0.0012047176618 0.0011925287665 0.0011803951848 0.0011683212457 0.0011563074359 0.0011443606405 0.0011324825024 
0.0011206791007 0.0014922225975 0.00147316725 0.0014544877917 0.0014361885846 0.001313635545 0.0013009981595 0.0012883874575 0.0012758058277 
0.0012632555326 0.0012507394936 0.0012382610465 0.0012258220087 0.0012134268521 0.0012010796108 0.001188783736 0.0011765452162 0.0011643652726 
0.0011522486588 0.0011401999398 0.0011282233826 0.0015047920253 0.0014854711009 0.0014665400533 0.0014480027259 0.0013239983352 0.0013112254548 
0.0012984748766 0.0012857490926 0.0012730500477 0.0012603803874 0.0012477440036 0.0012351442086 0.0012225852192 0.0012100699526 0.0011976046176 
0.0011851929836 0.0011728360165 0.0011605422017 0.0011483143751 0.0011361567252 0.0015177018956 0.0014981006951 0.0014789175749 0.0014601293667 
0.0013348749081 0.001321958416 0.0013090592207 0.0012961791528 0.0012833223024 0.0012704903179 0.0012576872052 0.0012449178137 0.0012321849888 
0.0012194940777 0.0012068484326 0.0011942550077 0.0011817143892 0.0011692344591 0.0011568180507 0.0011444708682 0.0015248953831 0.0015051189539 
0.0014858619146 0.0014671106615 0.0013203052918 0.0013030150754 0.0012861658228 0.0012697455485 0.0012537396509 0.0012381364282 0.0012229233618 
0.0012080875086 0.0011936189458 0.0011795052069 0.0011657349408 0.0011522998225 0.0011391866116 0.0011263823237 0.0011138774924 0.0011016620521 
0.0015390660796 0.0015190142926 0.0014994639572 0.0014804282743 0.0013398733143 0.0013221484578 0.0013048746554 0.0012880376826 0.0012716253931 
0.0012556249635 0.0012400228945 0.001224808607 0.0012099695406 0.0011954944007 0.0011813711047 0.0011675913725 0.0011541404616 0.0011410079371 
0.0011281823037 0.0011156529378 0.0015533673361 0.0015330204292 0.0015131750023 0.0014938468437 0.0013596126544 0.0013414535457 0.0013237549719 
0.0013065036824 0.001289685241 0.0012732880188 0.0012572981283 0.0012417053363 0.0012264962515 0.0012116591182 0.0011971837822 0.0011830596297 
0.0011692710556 0.0011558093193 0.001142663632 0.0011298205419 0.0015677150687 0.0015470633381 0.0015269252015 0.0015072889923 0.0013794394172 
0.0013608472463 0.0013427260831 0.0013250614541 0.0013078397798 0.0012910471855 0.001274671359 0.0012587011347 0.0012431230485 0.0012279254901 
0.0012130988057 0.0011986307006 0.0011845072082 0.0011707169877 0.0011572498672 0.001144094892 0.0015820126596 0.0015610507615 0.0015406052113 
0.0015206685144 0.0013992560539 0.0013802344168 0.0013616938751 0.0013436194449 0.0013259966152 0.0013088114994 0.0012920528721 0.0012757079545 
0.0012597629725 0.0012442086373 0.001229032106 0.0012142220999 0.0011997637364 0.001185647479 0.0011718616315 0.0011583936326 0.001596153551 
0.0015748773448 0.0015541216791 0.0015338852853 0.0014189586849 0.0013995127039 0.0013805577434 0.0013620773363 0.0013440579379 0.0013264853539 
0.0013093471019 0.0012926308108 0.0012763239419 0.0012604155262 0.0012448921737 0.0012297420356 0.0012149525475 0.0012005124199 0.0011864101086 
0.0011726333571 0.0016100351768 0.0015884445395 0.0015673773493 0.0015468311268 0.001438445524 0.001418581756 0.0013992178744 0.0013803375484 
0.0013619269205 0.0013439725057 0.0013264599545 0.0013093785341 0.0012927136937 0.001276454096 0.0012605875492 0.0012451027407 0.001229985754 
0.0012152256916 0.0012008105241 0.0011867282161 0.0014842323395 0.0014663300851 0.00144874224 0.0014314379554 0.0013236997012 0.0013111482811 
0.001298685898 0.001286311406 0.0012740252325 0.0012618257791 0.0012497144265 0.0012376917957 0.0012257598457 0.0012139174868 0.0012021701397 
0.0011905139236 0.0011789527619 0.0011674875331 0.0011561199162 0.0011448517271 0.0014957684583 0.0014776153018 0.0014597783448 0.0014422508728 
0.0013316968143 0.0013190599866 0.0013065074592 0.0012940379789 0.0012816520456 0.001269349855 0.0012571308101 0.0012449975004 0.0012329494535 
0.0012209891646 0.001209119904 0.0011973388157 0.0011856500142 0.0011740555491 0.0011625559508 0.0011511546394 0.0015072615077 0.0014888604748 
0.0014707804161 0.0014530198763 0.0013397190041 0.0013269948562 0.0013143503448 0.0013017839488 0.001289296894 0.0012768885612 0.0012645607413 
0.0012523128001 0.0012401482164 0.0012280669818 0.0012160737856 0.0012041661838 0.0011923477138 0.0011806214343 0.0011689880932 0.0011574513451 
0.0015187738436 0.0015001227484 0.0014818015666 0.001463808716 0.001347835374 0.0013350216754 0.001322281389 0.0013096161726 0.0012970241235 
0.0012845069412 0.0012720658111 0.0012597020448 0.0012474171258 0.001235212988 0.001223092596 0.0012110544693 0.0011991044043 0.0011872432058 
0.0011754734908 0.0011637978758 0.0015303735929 0.0015114685798 0.0014929051809 0.0014746793956 0.0013561192087 0.0013432110297 0.001330372297 
0.0013176026626 0.0013049027219 0.0012922727933 0.0012797152 0.001267230731 0.0012548221159 0.0012424898363 0.0012302365929 0.0012180670104 
0.0012059805866 0.0011939811434 0.0011820709911 0.0011702531112 0.0015421167103 0.0015229592325 0.0015041506758 0.0014856834617 0.0013646400511 
0.0013516332915 0.0013386908069 0.0013258128635 0.00131300018 0.0013002527415 0.0012875728041 0.0012749637844 0.001262425213 0.0012499610476 
0.0012375725553 0.0012252651628 0.0012130380961 0.0012008950584 0.0011888393437 0.0011768746342 0.0015540659359 0.0015346459908 0.0015155902456 
0.0014968860873 0.0013734624598 0.0013603512909 0.0013472996238 0.001334307195 0.0013213749819 0.0013085057896 0.001295698776 0.0012829569308 
0.0012702840938 0.0012576819529 0.0012451531616 0.0012327021669 0.0012203288598 0.0012080373427 0.0011958309338 0.001183714245 0.0015662532519 
0.0015465722398 0.0015272688377 0.0015083231532 0.0013826406349 0.0013694191737 0.0013562514161 0.0013431377331 0.0013300807473 0.0013170810921 
0.0013041404279 0.001291261864 0.001278447544 0.0012657013627 0.0012530255528 0.0012404249805 0.0012278991466 0.0012154534093 0.0012030904236 
0.0011908155844 0.0015787160068 0.0015587697132 0.0015392123847 0.0015200262303 0.0013922186173 0.0013788787838 0.0013655876891 0.0013523470182 
0.001339156898 0.0013260201339 0.0013129388453 0.0012999161778 0.0012869541846 0.0012740564343 0.0012612273809 0.0012484696993 0.0012357847557 
0.0012231776555 0.0012106530147 0.0011982133894 0.001591473004 0.0015712625657 0.0015514404536 0.0015320092221 0.0014022272584 0.0013887619152 
0.0013753404797 0.001361963445 0.0013486334653 0.0013353522125 0.0013221232959 0.0013089485067 0.0012958310956 0.0012827757429 0.0012697843339 
0.0012568627301 0.001244011795 0.0012312372366 0.0012185414035 0.0012059305412 0.0016045305272 0.0015840442284 0.001563958618 0.0015442772663 
0.0014126876965 0.0013990883739 0.0013855275621 0.0013720069992 0.0013585289033 0.0013450957076 0.00133171042 0.0013183762764 0.0013050959897 
0.0012918741353 0.0012787138211 0.001265620634 0.0012525962347 0.0012396448292 0.0012267721161 0.0012139811257 0.0016178803181 0.0015971118243 
0.0015767580762 0.0015568230283 0.0014236062706 0.0014098644005 0.0013961563508 0.001382484475 0.0013688497881 0.0013552564118 0.0013417067874 
0.0013282048024 0.0013147533021 0.0013013574265 0.0012880211282 0.0012747481964 0.0012615411951 0.0012484068144 0.0012353476326 0.0012223692449 
0.0016315084962 0.0016104435466 0.0015898179157 0.0015696223084 0.0014349790213 0.0014210862722 0.001407222632 0.0013933904975 0.0013795912942 
0.0013658292295 0.0013521074375 0.0013384289372 0.0013247985166 0.0013112205852 0.0012976981679 0.0012842379254 0.0012708411728 0.0012575141799 
0.0012442616514 0.0012310877629 0.0016393178641 0.0016180918681 0.0015974125136 0.0015772650717 0.0014233139527 0.001405065765 0.0013872601451 
0.0013698850033 0.0013529268197 0.0013363732202 0.0013202122128 0.0013044317337 0.0012890209649 0.0012739680572 0.0012592627714 0.0012448955358 
0.0012308539843 0.0012171268509 0.0012037042122 0.001190575562 0.0016540947343 0.0016325774012 0.0016115900322 0.0015911432344 0.0014432065879 
0.0014245183963 0.001406283507 0.0013884873168 0.0013711178712 0.0013541622276 0.0013376081578 0.0013214445152 0.001305659034 0.0012902402699 
0.0012751778028 0.0012604614565 0.0012460788165 0.0012320193322 0.001218271219 0.0012048251704 0.0016689614593 0.0016471354534 0.001625838467 
0.0016050859303 0.0014632375307 0.0014441102815 0.0014254457166 0.0014072298951 0.0013894500078 0.0013720929045 0.0013551473623 0.001338600464 
0.0013224411405 0.0013066570661 0.0012912378608 0.0012761739367 0.0012614494204 0.0012470563821 0.0012329847721 0.0012192214487 0.001683855311 
0.001661709193 0.0016401049606 0.0016190299862 0.0014833398515 0.0014637748876 0.001444682528 0.0014260486182 0.0014078600928 0.0013901032686 
0.0013727672541 0.0013558391855 0.0013393066295 0.0013231584672 0.0013073837189 0.001291971853 0.0012769086209 0.0012621838756 0.0012477868022 
0.0012337082831 0.0016986991072 0.0016762287468 0.0016543023931 0.0016329071157 0.0015034375714 0.0014834374467 0.0014639199464 0.0014448709626 
0.0014262764523 0.0014081230565 0.0013903990843 0.0013730917309 0.0013561879751 0.0013396783834 0.0013235495754 0.0013077919356 0.0012923905464 
0.0012773356766 0.001262616524 0.0012482219664 0.0017134165725 0.0016906160218 0.0016683649481 0.0016466604214 0.0015234520493 0.0015030214674 
0.001483082777 0.0014636220875 0.0014446255314 0.0014260780892 0.0014079698316 0.0013902864584 0.0013730161648 0.0013561467289 0.001339667227 
0.0013235652135 0.0013078284542 0.0012924462257 0.0012774066726 0.0012626991074 0.0017279323783 0.0017048011642 0.0016822222768 0.0016601911891 
0.0015433088146 0.0015224524519 0.0015020979492 0.0014822302426 0.0014628350162 0.0014438995615 0.0014254102748 0.0014073550456 0.0013897218415 
0.0013724967855 0.0013556688456 0.0013392265553 0.0013231576928 0.0013074507246 0.0012920943719 0.0012770768702 0.0015860310077 0.0015669116599 
0.0015481248427 0.001529638695 0.0014146894122 0.0014012896866 0.001387986799 0.0013747796905 0.0013616683882 0.0013486529006 0.001335733467 
0.001322911628 0.0013101880813 0.0012975626113 0.001285040333 0.0012726173682 0.0012602972187 0.0012480814861 0.0012359716923 0.0012239673897 
0.0015985540049 0.0015791655015 0.0015601079767 0.0015413800785 0.0014234568009 0.001409960228 0.0013965555718 0.0013832430082 0.0013700222574 
0.0013568931302 0.0013438565312 0.0013309140643 0.0013180653358 0.0013053128689 0.0012926603447 0.0012801041868 0.001267648473 0.0012552954177 
0.0012430459038 0.0012309027639 0.0016110719553 0.0015914130797 0.0015720944032 0.0015531137175 0.0014322836143 0.0014186884757 0.0014051802267 
0.0013917598137 0.0013784269462 0.0013651821111 0.0013520260801 0.0013389594842 0.0013259842768 0.0013131022474 0.001300316478 0.0012876243762 
0.0012750311586 0.0012625378236 0.0012501464571 0.0012378597707 0.0016236295511 0.0016037000413 0.0015841200579 0.0015648873812 0.0014412230791 
0.0014275259366 0.0014139117045 0.0014003801071 0.0013869320486 0.0013735681414 0.00136028888 0.0013470962247 0.001333991485 0.0013209768495 
0.0013080539838 0.0012952233972 0.0012824892882 0.0012698526175 0.0012573162308 0.0012448828552 0.0016362783887 0.0016160738212 0.0015962316568 
0.0015767463983 0.0014503313685 0.0014365286129 0.0014228042423 0.0014091586401 0.0013955910857 0.0013821039597 0.0013686980716 0.0013553750901 
0.0013421371788 0.0013289842794 0.0013159219684 0.0013029490815 0.0012900701456 0.0012772862156 0.0012646010436 0.0012520168637 0.0016490584683 
0.0016285809683 0.0016084737893 0.0015887271625 0.0014596638665 0.0014457515333 0.0014319125169 0.0014181477976 0.001404457061 0.0013908416756 
0.0013773051896 0.0013638468358 0.0013504692661 0.0013371756807 0.0013239688961 0.0013108489751 0.0012978202791 0.0012848848169 0.0012720460422 
0.001259307169 0.0016620201996 0.0016412599034 0.0016208858037 0.0016008845982 0.0014692735904 0.0014552455687 0.0014412871483 0.0014273974386 
0.0014135783686 0.001399830562 0.0013861562394 0.0013725570548 0.0013590361418 0.0013455954745 0.001332237626 0.0013189672069 0.0013057835767 
0.0012926913214 0.0012796937362 0.0012667944646 0.001675185395 0.0016541444228 0.0016335032875 0.0016132419979 0.0014792039379 0.0014650554635 
0.0014509706368 0.0014369502925 0.0014229965947 0.0014091096776 0.001395292238 0.0013815465959 0.0013678759584 0.0013542823119 0.0013407689145 
0.001327340388 0.0013139964492 0.0013007415614 0.0012875796776 0.0012745149187 0.0016885841657 0.0016672587026 0.0016463450008 0.0016258259037 
0.0014894924712 0.0014752159037 0.0014609981474 0.0014468414694 0.0014327454367 0.0014187128254 0.0014047461922 0.0013908478394 0.001377020607 
0.0013632685462 0.001349592849 0.0013359996565 0.0013224887894 0.0013090650335 0.0012957330497 0.001282496033 0.0017022302835 0.0016806162098 
0.0016594256348 0.0016386437618 0.0015001658596 0.0014857547314 0.0014713973873 0.0014570953362 0.001442851239 0.0014286660354 0.0014145430548 
0.0014004846611 0.0013864949925 0.0013725757704 0.0013587313994 0.0013449667076 0.0013312820608 0.0013176834868 0.0013041738031 0.0012907577887 
0.0017161269844 0.0016942248216 0.0016727484979 0.0016516998325 0.001511241595 0.0014966876334 0.001482183118 0.001467729535 0.001453328968 
0.0014389844258 0.0014246979747 0.0014104726095 0.0013963120986 0.0013822197867 0.0013681986178 0.0013542562398 0.0013403910813 0.0013266088582 
0.0013129148868 0.0012993124373 0.001730265576 0.0017080649456 0.0016863046594 0.0016649856765 0.0015227267158 0.0015080226902 0.001493363329 
0.0014787504607 0.0014641863124 0.0014496740865 0.0014352167622 0.0014208164901 0.0014064778549 0.0013922047999 0.0013780006832 0.0013638713807 
0.0013498178631 0.001335845745 0.0013219596295 0.0013081638428 0.0017446346112 0.0017221213169 0.0017000726762 0.0016784789766 0.0015346177967 
0.0015197558836 0.0015049343144 0.0014901540617 0.0014754187928 0.0014607316773 0.001446095074 0.00143151223 0.0014169885453 0.0014025271053 