# vtk DataFile Version 5.1
vtk output
ASCII
DATASET POLYDATA
POINTS 2523 double
58.611110687 -9.4444446564 1.258879255e-14 57.569446564 -9.4444446564 1.2347858264e-14 58.611110687 -12.222222328 1.258879255e-14 
58.611110687 -12.222222328 1.258879255e-14 57.569446564 -9.4444446564 1.2347858264e-14 55.833335876 -12.222222328 1.1946300237e-14 
55.833335876 -12.222222328 1.1946300237e-14 57.569446564 -9.4444446564 1.2347858264e-14 56.597221375 -9.4444446564 1.2122985028e-14 
55.833335876 -12.222222328 1.1946300237e-14 56.597221375 -9.4444446564 1.2122985028e-14 55.833335876 -9.4444446564 1.1946300237e-14 
56.597221375 -9.4444446564 1.2122985028e-14 57.569446564 -9.4444446564 1.2347858264e-14 56.597221375 -1.6319445372 1.2122985028e-14 
56.597221375 -1.6319445372 1.2122985028e-14 57.569446564 -9.4444446564 1.2347858264e-14 57.569446564 -1.6319445372 1.2347858264e-14 
56.597221375 -1.6319445372 1.2122985028e-14 57.569446564 -1.6319445372 1.2347858264e-14 55.416667938 -0.72916668653 1.1849925993e-14 
55.416667938 -0.72916668653 1.1849925993e-14 57.569446564 -1.6319445372 1.2347858264e-14 58.611110687 -1.6319445372 1.258879255e-14 
55.416667938 -0.72916668653 1.1849925993e-14 58.611110687 -1.6319445372 1.258879255e-14 55.416667938 0.72916668653 1.1849925993e-14 
55.416667938 0.72916668653 1.1849925993e-14 58.611110687 -1.6319445372 1.258879255e-14 58.611110687 1.840277791 1.258879255e-14 
55.416667938 0.72916668653 1.1849925993e-14 58.611110687 1.840277791 1.258879255e-14 -59.444450378 1.840277791 -1.4717161213e-14 
-59.444450378 1.840277791 -1.4717161213e-14 -59.444450378 0.72916668653 -1.4717161213e-14 55.416667938 0.72916668653 1.1849925993e-14 
-59.444450378 -0.72916668653 -1.4717161213e-14 -59.444450378 -1.6319445372 -1.4717161213e-14 55.416667938 -0.72916668653 1.1849925993e-14 
55.416667938 -0.72916668653 1.1849925993e-14 -59.444450378 -1.6319445372 -1.4717161213e-14 56.597221375 -1.6319445372 1.2122985028e-14 
4.5535728997 -1.12893709 8.5420290281e-17 -27.445438739 -1.3804408136 -7.3158704613e-15 -34.01389122 -0.72916668653 -8.835136967e-15 
-8.5803378094 1.3482428786 -2.9524201581e-15 -34.012394094 1.5942603348 -8.8347906855e-15 -34.01389122 0.72916668653 -8.835136967e-15 
4.5555496216 -1.6319445372 8.5877501067e-17 24.597221375 -1.6319445372 4.7214656706e-15 40.597221375 -1.6319445372 8.4222253491e-15 
-5.3888893127 1.840277791 -2.2142461635e-15 26.611110687 1.840277791 5.1872731935e-15 42.611110687 1.840277791 8.888032872e-15 
4.5525553693 1.221201599 8.5184938051e-17 -27.445947505 1.530739695 -7.3159881374e-15 29.984611654 0.97518414276 5.9675554655e-15 
17.268583512 1.0981928709 3.0263702018e-15 42.700639796 0.85217541465 8.9087407292e-15 -8.5833320618 -0.72916668653 -2.9531127211e-15 
23.416667938 -0.72916668653 4.4484066359e-15 -46.729170799 -1.1805556118 -1.177614909e-14 -8.5833320618 0.72916668653 -2.9531127211e-15 
23.416667938 0.88393935508 4.4484066359e-15 -46.729170799 1.1837197968 -1.177614909e-14 -21.299573111 1.1397114793 -5.8943472297e-15 
4.5535728997 -1.12893709 8.5420290281e-17 -27.444450378 -1.5061907333 -7.3156418559e-15 29.985120419 -0.92905188828 5.9676731416e-15 
-0.58333206177 -0.72916668653 -1.1027328818e-15 7.4166679382 -0.72916668653 7.4764695742e-16 -21.298611641 -0.72916668653 -5.894124844e-15 
-11.44593292 -1.2546889518 -3.6152250855e-15 -3.4461800101 -1.1918130209 -1.7649023976e-15 -11.44593292 -1.2546889518 -3.6152250855e-15 
-27.444450378 1.840277791 -7.3156418559e-15 -3.4470703492 1.298586123 -1.7651083308e-15 -11.446696068 1.375970647 -3.6154015997e-15 
7.4166679382 0.72916668653 7.4764695742e-16 -27.445438739 -1.3804408136 -7.3158704613e-15 -27.444450378 -1.6319445372 -7.3156418559e-15 
23.416667938 0.72916668653 4.4484066359e-15 23.418165064 1.0387047826 4.4487529174e-15 0.55369644483 -1.1603750555 -8.3974105367e-16 
3.553603786 -1.1367965814 -1.4587004571e-16 4.0555496216 -1.3824018327 -2.9771238885e-17 2.5536346723 -1.1446560728 -3.7716038169e-16 
-3.4461800101 -1.1918130209 -1.7649023976e-15 -4.5833320618 0.72916668653 -2.0279228014e-15 -7.5833320618 1.0338753777 -2.7218152412e-15 
-6.5833320618 0.72916668653 -2.4905177613e-15 -0.58333206177 0.72916668653 -1.1027328818e-15 10.611110687 1.840277791 1.486513515e-15 
-7.4468832084 1.337278385 -2.6902549653e-15 2.6111106873 1.840277791 -3.6386632427e-16 -5.4469767788 1.317932254 -2.227681648e-15 
-16.416669846 1.840277791 -4.7649440097e-15 -10.902779579 1.840277791 -3.4895950866e-15 -11.444450378 -1.6319445372 -3.6148821774e-15 
-3.4444503784 -1.6319445372 -1.7645023382e-15 0.55554962158 -1.6319445372 -8.3931241855e-16 0.55369644483 -1.1603750555 -8.3974105367e-16 
-7.4460564649 -1.2232509864 -2.6900637416e-15 -4.5833320618 -0.72916668653 -2.0279228014e-15 -9.4459946924 -1.2389699691 -3.1526444135e-15 
-8.4460255787 -1.2311104777 -2.9213540776e-15 -7.9491985051 -0.8254517134 -2.8064392275e-15 -8.9470839122 -1.0984227875 -3.0372476074e-15 
-8.6580481671 -1.0193571981 -2.9703943679e-15 -14.940971851 -0.72916668653 -4.4236187825e-15 -11.762151957 -0.72916668653 -3.6883657518e-15 
7.4189136275 1.1934738306 7.4816637968e-16 -0.58071209099 1.2708583546 -1.1021268892e-15 55.138893127 -0.45138889551 1.1805757178e-14 
-60.416667938 0.45138889551 -1.3853694803e-14 -61.111114502 -0.45138889551 -1.4034395729e-14 -61.111114502 -0.45138889551 -1.4034395729e-14 
-60.416667938 0.45138889551 -1.3853694803e-14 -60.416667938 27.083335876 -1.3076701911e-14 -61.111114502 -0.45138889551 -1.4034395729e-14 
-60.416667938 27.083335876 -1.3076701911e-14 -61.111114502 29.861114502 -1.3150021797e-14 -61.111114502 29.861114502 -1.3150021797e-14 
-60.416667938 27.083335876 -1.3076701911e-14 -58.333332062 29.861114502 -1.2532573898e-14 -58.333332062 29.861114502 -1.2532573898e-14 
-60.416667938 27.083335876 -1.3076701911e-14 -58.333332062 27.083335876 -1.2613616198e-14 55.138893127 -0.45138889551 1.1805757178e-14 
55.138893127 0.45138889551 1.1832095917e-14 -60.416667938 0.45138889551 -1.3853694803e-14 50.138889313 -27.083335876 1.0661321645e-14 
49.097225189 -27.083335876 1.0480621565e-14 50.138889313 -29.861114502 1.0661321645e-14 50.138889313 -29.861114502 1.0661321645e-14 
49.097225189 -27.083335876 1.0480621565e-14 48.402778625 -27.083335876 1.0360154184e-14 50.138889313 -29.861114502 1.0661321645e-14 
48.402778625 -27.083335876 1.0360154184e-14 47.361114502 -29.861114502 1.0179454104e-14 47.361114502 -29.861114502 1.0179454104e-14 
48.402778625 -27.083335876 1.0360154184e-14 47.361114502 -27.083335876 1.0179454104e-14 48.402778625 -27.083335876 1.0360154184e-14 
49.097225189 -27.083335876 1.0480621565e-14 48.402778625 -10.277778625 1.0360154184e-14 48.402778625 -10.277778625 1.0360154184e-14 
49.097225189 -27.083335876 1.0480621565e-14 49.097225189 -9.5833339691 1.0480621565e-14 48.402778625 -10.277778625 1.0360154184e-14 
49.097225189 -9.5833339691 1.0480621565e-14 6.4583334923 -9.5833339691 3.0839464228e-15 6.4583334923 -3.2986111641 3.0839464228e-15 
5.7638888359 -3.2986111641 2.9634793721e-15 6.4583334923 -9.5833339691 3.0839464228e-15 6.4583334923 -9.5833339691 3.0839464228e-15 
5.7638888359 -3.2986111641 2.9634793721e-15 5.7638888359 -10.277778625 2.9634793721e-15 6.4583334923 -9.5833339691 3.0839464228e-15 
5.7638888359 -10.277778625 2.9634793721e-15 48.402778625 -10.277778625 1.0360154184e-14 7.5000004768 -3.2986111641 3.2646469988e-15 
7.5000004768 -1.9097223282 3.2646469988e-15 6.4583334923 -3.2986111641 3.0839464228e-15 6.4583334923 -3.2986111641 3.0839464228e-15 
7.5000004768 -1.9097223282 3.2646469988e-15 4.7222223282 -1.9097223282 2.7827788787e-15 6.4583334923 -3.2986111641 3.0839464228e-15 
4.7222223282 -1.9097223282 2.7827788787e-15 5.7638888359 -3.2986111641 2.9634793721e-15 5.7638888359 -3.2986111641 2.9634793721e-15 
4.7222223282 -1.9097223282 2.7827788787e-15 4.7222223282 -3.2986111641 2.7827788787e-15 33.097225189 -9.5833339691 7.7050615644e-15 
21.763888836 -10.277778625 5.7390393731e-15 23.750001907 -27.083335876 4.8186764163e-15 23.750001907 -29.861114502 4.8186764163e-15 
24.791667938 -27.083335876 5.0596102794e-15 24.791667938 -27.083335876 5.0596102794e-15 23.750001907 -29.861114502 4.8186764163e-15 
26.527778625 -29.861114502 5.4611668651e-15 24.791667938 -27.083335876 5.0596102794e-15 26.527778625 -29.861114502 5.4611668651e-15 
25.486112595 -27.083335876 5.2202330019e-15 25.486112595 -27.083335876 5.2202330019e-15 26.527778625 -29.861114502 5.4611668651e-15 
26.527778625 -27.083335876 5.4611668651e-15 24.791667938 -27.083335876 5.0596102794e-15 25.486112595 -27.083335876 5.2202330019e-15 
24.791667938 -19.305555344 5.0596102794e-15 24.791667938 -19.305555344 5.0596102794e-15 25.486112595 -27.083335876 5.2202330019e-15 
25.486112595 -18.611112595 5.2202330019e-15 24.791667938 -19.305555344 5.0596102794e-15 25.486112595 -18.611112595 5.2202330019e-15 
-5.3472223282 -18.611112595 -1.9114140682e-15 -5.3472223282 -3.2986111641 -1.9114140682e-15 -6.0416669846 -3.2986111641 -2.0720367907e-15 
-5.3472223282 -18.611112595 -1.9114140682e-15 -5.3472223282 -18.611112595 -1.9114140682e-15 -6.0416669846 -3.2986111641 -2.0720367907e-15 
-6.0416669846 -19.305555344 -2.0720367907e-15 -5.3472223282 -18.611112595 -1.9114140682e-15 -6.0416669846 -19.305555344 -2.0720367907e-15 
24.791667938 -19.305555344 5.0596102794e-15 -5.0000004768 -3.2986111641 -1.8311028172e-15 -5.0000004768 -1.9097223282 -1.8311028172e-15 
-5.3472223282 -3.2986111641 -1.9114140682e-15 -5.3472223282 -3.2986111641 -1.9114140682e-15 -5.0000004768 -1.9097223282 -1.8311028172e-15 
-6.3888893127 -1.9097223282 -2.152348152e-15 -5.3472223282 -3.2986111641 -1.9114140682e-15 -6.3888893127 -1.9097223282 -2.152348152e-15 
-6.0416669846 -3.2986111641 -2.0720367907e-15 -6.0416669846 -3.2986111641 -2.0720367907e-15 -6.3888893127 -1.9097223282 -2.152348152e-15 
-6.3888893127 -3.2986111641 -2.152348152e-15 9.4861125946 -18.611112595 1.519486605e-15 9.9583330154 -19.305555344 1.6287096063e-15 
[...]
CELL_DATA 1672
FIELD FieldData 4
electrode_index 1 1672 int
0 0 0 0 0 0 0 0 0 
0 0 0 0 0 0 0 0 0 
0 0 0 0 0 0 0 0 0 
0 0 0 0 0 0 0 0 0 
0 0 0 0 0 0 0 0 0 
0 0 0 0 0 0 0 0 0 
0 0 0 0 0 0 0 0 0 
0 0 0 0 0 0 0 0 0 
0 0 0 0 0 0 0 0 0 
0 0 0 0 0 0 0 0 0 
0 0 0 0 0 1 1 1 1 
1 1 2 2 2 2 2 2 2 
2 2 2 2 2 2 2 2 2 
3 3 3 3 3 3 3 3 3 
3 3 3 3 3 3 3 3 3 
3 3 3 3 3 3 3 3 3 
3 3 3 3 3 3 3 3 3 
3 3 3 3 3 3 3 3 3 
3 3 3 3 3 3 3 3 3 
3 3 3 3 3 3 3 3 3 
3 3 3 3 3 3 3 3 3 
3 3 3 3 3 3 3 3 3 
3 3 3 3 3 3 3 3 3 
3 3 3 3 3 3 3 3 3 
3 3 3 3 3 3 3 3 3 
3 3 3 3 3 3 3 3 3 
3 3 3 3 3 3 3 3 4 
4 4 4 4 4 4 4 4 4 
4 4 4 4 5 5 5 5 5 
5 5 5 5 5 5 5 5 5 
6 6 6 6 6 6 6 6 6 
6 6 6 6 6 7 7 7 7 
7 7 7 7 7 7 7 7 7 
7 7 7 8 8 8 8 8 8 
8 8 8 8 8 8 8 8 8 
8 8 8 9 9 9 9 9 9 
9 9 9 9 9 9 9 9 9 
9 10 10 10 10 10 10 10 10 
10 10 10 10 10 10 10 10 11 
11 11 11 11 11 11 11 11 11 
11 11 11 11 11 11 12 12 12 
12 12 12 12 12 12 12 12 12 
12 12 12 12 13 13 13 13 13 
13 13 13 13 13 13 13 13 13 
13 13 14 14 14 14 14 14 14 
14 14 14 14 14 14 14 14 14 
14 14 14 14 14 14 14 14 14 
14 14 14 14 14 14 14 14 14 
14 14 14 14 14 14 14 14 14 
14 14 14 14 14 14 14 14 14 
14 14 14 14 14 14 14 14 14 
14 14 14 14 14 14 14 14 14 
14 14 14 14 14 14 14 14 14 
14 14 14 14 14 14 14 14 14 
14 14 14 14 14 14 14 14 14 
14 14 14 14 14 14 14 14 14 
14 14 14 14 14 14 14 14 14 
14 14 14 14 14 14 14 14 14 
14 14 14 14 14 14 14 14 14 
14 14 14 14 14 14 14 14 14 
14 14 14 14 14 14 14 14 14 
14 14 14 14 14 14 14 14 14 
14 14 14 14 14 14 14 14 14 
14 14 14 14 14 14 14 14 14 
14 14 14 14 14 14 14 14 14 
14 14 14 14 14 14 14 14 14 
14 14 14 14 14 14 14 14 14 
14 14 14 14 14 14 14 14 14 
14 14 14 14 14 14 14 14 14 
14 14 14 14 14 14 14 14 14 
14 14 14 14 14 14 14 14 14 
14 14 14 14 14 14 14 14 14 
14 14 14 14 14 14 14 14 14 
14 14 14 14 14 14 14 14 14 
14 14 14 14 15 15 15 15 15 
15 15 15 15 15 15 15 15 15 
15 15 16 16 16 16 16 16 16 
16 16 16 16 16 16 16 16 16 
16 16 17 17 17 17 17 17 17 
17 17 17 17 17 17 17 17 17 
17 17 17 17 17 17 17 17 17 
17 17 17 17 17 17 17 17 17 
18 18 18 18 18 18 18 18 18 
18 18 18 18 18 18 18 18 18 
18 18 18 18 18 18 18 18 18 
18 18 18 18 18 18 18 19 19 
19 19 19 19 19 19 19 19 19 
19 19 19 19 19 19 19 19 19 
19 19 19 19 19 19 20 20 20 
20 20 20 20 20 20 20 20 20 
20 20 20 20 20 20 20 20 20 
20 20 20 20 20 20 20 20 20 
20 20 20 20 20 20 20 20 20 
20 20 20 20 20 20 20 20 20 
20 20 20 20 20 20 20 20 20 
20 20 20 20 20 20 20 20 20 
20 20 20 20 20 20 20 20 20 
20 20 20 20 20 20 20 20 20 
20 20 20 20 20 20 20 20 20 
20 20 20 20 20 20 20 20 20 
20 20 20 20 20 20 20 20 20 
20 20 20 20 20 20 20 20 20 
20 20 20 20 20 20 20 20 20 
20 20 20 20 20 20 20 20 20 
20 20 20 20 20 20 20 20 20 
20 20 20 20 20 20 20 20 20 
20 20 20 20 20 20 20 20 20 
20 20 20 20 20 20 20 20 20 
20 20 20 20 20 20 20 20 20 
20 20 20 20 20 20 20 20 20 
20 20 20 20 20 20 20 20 20 
20 20 20 20 20 20 20 20 20 
20 20 20 20 20 20 20 20 20 
20 20 20 20 20 20 20 20 20 
20 20 20 20 20 20 20 20 20 
20 20 20 20 20 20 20 20 20 
20 20 20 20 20 20 20 20 20 
20 20 20 20 20 20 20 20 20 
20 20 20 20 20 20 20 20 20 
20 20 20 20 20 20 20 20 20 
20 20 20 20 20 20 20 20 20 
20 20 20 20 20 20 20 20 20 
20 20 20 20 20 20 20 20 20 
20 20 20 20 20 20 20 20 20 
20 20 20 20 20 20 20 20 20 
20 20 20 20 20 20 20 20 20 
20 20 20 20 20 20 20 20 20 
20 20 20 20 20 20 20 20 20 
20 20 20 20 20 20 20 20 20 
20 20 20 20 20 20 20 20 20 
20 20 20 20 20 20 20 20 20 
20 20 20 20 20 20 20 20 20 
20 20 20 20 20 20 20 20 20 
20 20 20 20 20 20 20 20 20 
20 20 20 20 20 20 20 20 20 
20 20 20 20 20 20 20 20 20 
20 20 20 20 20 20 20 20 20 
20 20 20 20 20 20 20 20 20 
20 20 20 20 20 20 20 20 20 
20 20 20 20 20 20 20 20 20 
20 20 20 20 20 20 20 20 20 
20 20 20 20 20 20 20 20 20 
20 20 20 20 20 20 20 20 20 
20 20 20 20 20 20 20 20 20 
20 20 20 20 20 20 20 20 20 
20 20 20 20 20 20 20 20 20 
20 20 20 20 20 20 20 20 20 
20 20 20 20 20 20 20 20 20 
20 20 20 20 20 20 20 20 20 
20 20 20 20 20 20 20 20 20 
20 20 20 20 20 20 20 20 20 
20 20 20 20 20 20 20 20 20 
20 20 20 20 20 20 20 20 20 
20 20 20 20 20 20 20 20 20 
20 20 20 20 20 20 20 20 20 
20 20 20 20 20 20 20 20 20 
20 20 20 20 20 20 20 20 20 
20 20 20 20 20 20 20 20 20 
20 20 20 20 20 20 20 20 20 
20 20 20 20 20 20 20 20 20 
20 20 20 20 20 20 20 20 20 
20 20 20 20 20 20 20 20 20 
20 20 20 20 20 20 20 20 20 
20 20 20 20 20 20 20 20 20 
20 20 20 20 20 20 20 20 20 
20 20 20 20 20 20 20 20 20 
20 20 20 20 20 20 20 20 20 
20 20 20 20 20 20 20 20 20 
20 20 20 20 20 20 20 20 20 
20 20 20 20 20 20 20 20 20 
20 20 20 20 20 20 20 20 20 
20 20 20 20 20 20 20 20 20 
20 20 20 20 20 20 20 20 20 
20 20 20 20 20 20 20 20 20 
20 20 20 20 20 20 20 20 20 
20 20 20 20 20 20 21 21 21 
21 21 21 21 21 21 21 21 21 
21 21 21 21 21 21 21 21 21 
21 21 21 21 21 21 21 21 21 
21 21 21 21 21 21 21 21 21 
21 21 21 21 21 21 21 21 21 
21 21 21 21 21 21 21 21 21 
21 21 21 21 21 21 21 21 21 
21 21 21 21 21 21 21 22 22 
22 22 22 22 22 22 22 22 22 
22 22 22 22 22 22 22 
area 1 1672 double
1.4467556719 3.8580204234 1.3503127113 1.0609520401 3.7977547033 3.7977547033 0.43885168332 0.47019564926 2.3292812346 
5.5459077196 6.2768623818 6.7847195624 5.7395363843 7.222222805 4.1405663041 1.599081614 5.7395363843 5.6230296573 
5.6230296573 3.9367756803 0.30908190866 5.5002940616 7.0640441685 5.4992306004 0.12477135222 8.3993432567 9.9984248707 
2.1667666721 6.9207491861 8.8888888359 2.4010700274 4.9526095363 5.2927925569 5.9366793612 6.2768623818 0.15253942158 
6.3963264559 5.7797698811 1.7067590947 2.4763626967 5.2201918201 4.2162680984 5.0405550724 2.0120608611 5.623141191 
1.0060304305 0.12550522352 1.2381813483 0.31965309302 0.88026303249 3.1981632279 4.8235446172 0.94313896338 1.670540632 
3.3296843155 0.52288298286 1.0060304305 2.0120608611 1.2381813484 2.4763626967 0.12795951916 0.97457692882 2.4763047681 
0.88026303249 1.760526065 0.12477135222 3.0179514652 0.47156948169 0.93909352229 1.5090223414 0.30470869119 2.3215357201 
1.0833833361 3.7142833665 0.30470869119 2.1667666721 1.8572285761 4.308722732 1.3867417645 0.52288298286 1.280069321 
0.94313896338 0.88026303249 0.20087071347 0.92529266877 0.81028640851 0.038983978934 0.69369213445 0.19257005373 0.066550775997 
0.068310827837 0.038674161866 0.038983978934 0.83527031601 0.52799135464 52.473962547 9.2472320331 10.525206911 3.8580323443 
2.8935229337 52.16049708 1.4467561686 0.96450941062 3.8580217479 1.4467561686 5.8352807422 6.0764080948 9.2496179953 
2.1821960844 2.4233227747 9.249617333 0.72337982279 1.9290125296 0.4822532152 0.72337949166 5.555557251 5.555557251 
1.4467588177 3.858024397 0.96450676153 1.4467588177 2.7006190647 2.9417450928 3.7204395636 0.13232684453 0.69444465637 
1.0930488385 0.15691260262 0.061119967613 0.054459165562 0.0096450640969 1.4742594149 0.76717094325 0.0093909479018 0.0086554799315 
0.01019043169 0.0076941041638 0.0097351714485 0.14917812817 0.039418320664 0.38629674091 0.61144332599 0.029513917565 0.037438928081 
0.23455990412 0.056910482189 0.15864865881 0.52935939463 0.039936554047 0.048978833114 0.66401064308 0.66401064308 0.007916669077 
0.010529327507 0.014587493181 0.0096201136542 0.011214946326 0.0072689397296 0.0069978533976 0.0076941041638 0.0039654506003 0.0039654506003 
0.0085348675533 0.011679970483 0.012270220817 0.01273412583 0.0093008405502 0.0091012164192 0.0093202499782 0.014556784249 0.014556784249 
0.084213673845 0.33200532154 0.44621397021 0.13640344946 0.13556567992 0.090656376461 0.090842547471 0.18112658191 0.15864865881 
0.0058845722931 0.060353434854 0.017731783655 0.062039892403 0.039418320664 0.033005763145 0.018483206475 0.049278751938 0.035227157896 
0.065745138936 0.052712177777 0.027200820291 0.076254899387 0.0083580082417 0.22263120108 0.49829617038 0.19214774215 2.7777709961 
1.0630076028 0.060740510687 0.094189975026 0.064305422568 0.096073871073 0.086583071877 0.10019079342 0.12263816696 0.36243933483 
0.10397404265 0.2064223211 0.085361843228 0.10696420235 0.087283780774 0.07705076809 0.081482851423 0.21780236071 0.029689749854 
0.064828243741 0.1151794759 0.087283780774 0.07705076809 0.069541034159 0.096945105575 0.12751782986 1.388885498 0.050794924471 
0.069444433212 0.21385413729 0.24333696791 0.58129750076 0.41515074596 0.090656376461 0.18056806888 0.11332047058 0.11332047058 
1.366761479 1.366761479 0.9301098909 0.73712970746 0.90006865511 1.0930488385 1.366761479 1.366761479 0.72337961583 
1.9290128608 0.48225329798 0.72337994697 7.1252917471 7.3664184375 7.2820241952 0.81983101221 1.0609577026 7.2820241952 
1.4467601423 3.8580257216 0.96450676153 1.4467588177 0.72337994697 0.48225329798 1.9290128608 0.72337961583 6.498362617 
6.7394893074 7.8607276891 1.4467641159 1.6878914686 7.8607283514 1.4467574932 3.8580230725 0.96450941062 1.4467561686 
1.4467614668 3.8580270461 0.96450676153 1.4467588177 2.0736892724 2.3148159628 8.6805586186 5.8714314711 6.1125580787 
8.6805585358 0.24112664899 0.96450643039 0.48225313241 0.24112664899 0.7233797814 0.48225313241 0.9268302285 0.7233797814 
5.2445025563 5.4856285016 9.5003632888 2.7006116473 2.9417370131 9.5003627093 1.4467614668 3.8580270461 0.96450411243 
1.4467614668 0.94190067511 0.060281791598 0.7233797814 0.48225304963 0.92683015089 0.7233797814 4.6175728488 4.8586987527 
4.5235232426 3.3275390554 3.5686644213 4.5235227045 1.4467614668 3.858024397 0.96450411243 1.4467588177 5.5555419922 
5.5555419922 0.94190061044 0.060281851099 0.24112664899 0.96450626482 0.48225313241 0.24112648342 3.9906443954 4.2317706719 
5.3433592169 3.9544664636 4.1955921606 5.3433586374 1.4467614668 3.8580270461 0.96450411243 1.4467614668 5.5555496216 
5.5555496216 1.4467614668 3.8580270461 0.96450411243 1.4467614668 4.5813938718 4.8225198999 6.4043226845 3.3637163043 
3.6048429947 6.4043233468 0.24112664899 0.96450626482 0.48225329798 0.24112631785 5.555557251 5.555557251 1.4467561686 
3.8580217479 0.96450941062 1.4467561686 5.2083498902 5.4494772428 7.4652807183 2.7367871742 2.9779138646 7.465280056 
0.24112598672 0.96450593369 0.48225329798 0.24112664899 5.555557251 5.555557251 1.4467614668 3.8580270461 0.96450411243 
1.4467614668 5.8352486881 6.0763747162 8.5262374275 2.1098580441 2.3509847345 8.5262380897 0.24112598672 0.96450593369 
0.48225329798 0.24112664899 5.555557251 5.555557251 1.4467614668 3.8580323443 0.96450411243 1.446766765 6.4621764274 
6.70330229 9.5871878848 1.4829287485 1.7240552733 9.587188547 0.24112664899 0.96450593369 0.48225329798 0.24112598672 
5.5555534363 5.5555534363 69.444420073 197.0294163 746.95589762 514.47248557 40.046297864 99.826342 11.590947119 
5.3240707406 69.444420073 196.64359671 751.69635351 508.88792434 40.046304553 47.743084961 23.57977954 1.8518525583 
7.2338048507 25.077153084 11.188267572 4.8804017911 5.1890436634 10.532403875 7.2338048507 9.645037813 2.3148109295 
2.3148109295 0.77160276013 1.8518525583 0.7716048794 2.3148172873 2.3148172873 8.3912060437 6.2934102946 21.942509155 
10.532403859 10.069441332 10.062211271 9.560668229 6.2933872475 1.851850439 0.7716048794 1.8518514986 2.3148172873 
2.3148172873 7.1373471213 5.3529956385 18.807865227 10.069457557 9.4135927345 7.1952168929 6.8865744908 5.3530152418 
2.3148172873 2.3148172873 0.7716048794 1.851850439 0.7716048794 2.3148172873 2.3148172873 4.6296292764 3.4722187784 
12.538575714 5.8834888611 4.4126206857 15.673228252 9.413577171 8.5648117242 3.0743623966 2.9586217442 4.412612606 
8.5648412616 7.7160734306 3.4505200138 3.334778964 3.4722187784 1.851850439 0.7716048794 1.8518514986 2.3148172873 
2.3148172873 3.3757710162 2.5318213083 9.4039317855 7.7160727683 6.8673052022 3.8266859921 3.7109446774 2.5318305801 
2.3148156978 2.3148156978 0.77160434958 1.8518514986 1.8807873902 5.9799384776 2.1219112991 1.5914360241 6.8673052022 
6.0185372388 4.2028488826 4.0871074354 34.375027816 19.560183176 0.94039283417 3.7193780733 0.98379486689 26.335804379 
3.4722163942 3.4722163942 1.1574041402 1.8518546776 0.77160276013 2.3148109295 2.3148109295 12.152747446 9.1145939628 
31.346442596 20.10990389 20.109940712 60.26841904 5.4324980756 0.28934743807 129.31619334 36.053248765 81.013701632 
0.64501372292 10.05502559 12.114213852 11.265447876 1.1501772039 1.0344359555 9.1145939628 1.8518525583 0.7716048794 
1.851850439 2.3148172873 2.3148172873 10.898922564 8.1741994067 28.211797012 11.265428272 10.41666362 1.5263339684 
1.410593051 8.174169472 2.3148172873 2.3148172873 0.7716048794 1.851850439 0.7716048794 2.3148172873 2.3148172873 
8.3912060437 6.2933872475 21.942509155 9.6450643039 7.2337783597 25.077153084 10.416662428 9.5678975111 1.9024876947 
1.7867470422 7.2338048507 9.5678976436 8.7191327266 2.2786449144 2.162904262 6.2934102946 1.851850439 0.77160699868 
1.851850439 2.3148236451 2.3148236451 7.1373667246 5.3529956385 18.807865227 8.7191477602 8.0632829372 7.0794759258 
6.7708335237 5.3529956385 2.3148172873 2.3148172873 0.7716048794 1.851850439 0.7716048794 2.3148172873 2.3148172873 
4.6296292764 3.4722187784 12.538575714 5.8834888611 4.412612606 15.673219643 8.0632685658 7.6003060389 13.134163698 
12.632620656 4.412612606 7.6003321159 6.944466167 9.0856496852 8.7770067532 3.4722187784 1.8518514986 0.7716048794 
1.851850439 2.3148172873 2.3148172873 3.3757710162 2.5318305801 9.4039369512 6.944466167 6.2885998208 10.088740365 
9.7800973003 2.5318259442 2.3148172873 2.3148172873 0.7716048794 1.8518514986 1.8807856683 5.9799370206 2.1219127561 
1.5914345671 6.2885998208 5.8256353567 18.0242084 17.522663719 33.217619172 18.933254907 0.94039369512 11.049616919 
6.43325297 3.7796494475 3.7796494475 58.005356583 23.842583144 7.45081917 14.076954816 2.4305532045 0.63657118766 
8.063254923 127.14000266 36.05324004 2.0435464824 86.918901965 11.574073721 1.8518525583 0.77160276013 2.3148109295 
2.3148109295 12.152747446 9.1145939628 31.346442596 12.307115933 11.844152529 5.1721644622 4.6706206416 9.1145939628 
1.8518525583 0.7716048794 1.8518525583 2.3148172873 2.3148172873 10.898922564 8.174169472 28.211797012 11.844131137 
11.188267572 4.1859591099 3.8773171052 8.1741994067 6.4621764274 6.70330229 9.8283147407 1.4467614668 3.8580270461 
0.96450411243 1.4467614668 1.5552667887 1.7963933135 9.828315403 0.72337982279 1.9290125296 0.4822532152 0.72337949166 
5.5555534363 5.5555534363 5.2083212799 5.4494473081 8.4297864864 1.4467614668 3.8580270461 0.96450411243 1.4467614668 
2.80912425 3.0502508576 8.4297870659 0.2411266076 0.38429545842 0.48225304963 0.2411266076 5.555557251 5.555557251 
0.39183062869 0.18838017771 4.5813938718 4.8225198999 7.609956302 1.4467614668 3.8580270461 0.96450411243 1.4467614668 
3.4360531649 3.6771797725 7.6099568815 0.72337965722 0.12447254934 0.48225304963 0.30671297593 5.555557251 5.555557251 
0.15657553475 0.12207029642 0.13802085012 0.13002501254 0.12135130312 0.12481879996 0.13000175666 0.12600132548 0.1013430458 
0.15617375535 0.12094891872 0.13584111617 0.1203889489 0.11998656451 0.12593943 0.10441122276 0.070885800122 0.11642281464 
3.9544881862 4.1956152077 7.0312431107 1.4467561686 3.8580217479 0.96450941062 1.4467561686 1.7615873796 1.5263307535 
7.0312423242 0.30671297593 0.23141090988 0.26534500973 0.30671297593 5.5555496216 5.5555496216 0.41666668129 0.11415217232 
0.15448660492 0.078071880296 0.12638104694 0.16738548344 0.12638104694 0.15617376189 0.10154683852 0.16738548344 0.062409753413 
0.24017468872 0.20305261057 1.3864491471 0.21690795711 2.777777195 0.41666668129 0.91494518665 3.3275481948 3.5686742229 
6.2114048184 1.4467588177 3.8580270461 0.96450676153 1.4467614668 1.9157980922 2.1532599303 6.2114047357 0.24112644203 
0.38429542738 0.48225304963 0.2411266076 5.5555419922 2.7777709961 0.687013068 0.56810133277 0.82148754684 0.3487558085 
0.3487558085 1.643073747 2.7777709961 0.39183062352 0.18838004836 1.1347039249 0.34481020695 0.19274092323 0.19773535713 
0.4452552406 0.68758760556 0.96450411243 0.61381737253 0.011398762074 0.1060956378 0.10406098825 0.010825719346 0.0095409426469 
0.023333364563 0.009645037606 0.0037321886495 0.014556740654 0.0050330075535 0.006941198329 0.0072689174236 0.010190388253 0.01013888916 
0.0063127407195 0.0069068182716 0.0082701492199 0.0083883377666 0.0069978384445 0.0097351443963 0.010529282332 0.33194324 0.013306926543 
0.026048710975 0.23400661928 0.23082640146 0.027057519789 0.01849336175 0.01456924586 0.020959343872 0.0058845830284 0.031397987195 
0.062857630047 0.058878302461 0.015733858382 0.035755022787 0.013291862673 0.013048042943 0.01376685856 0.035400815921 0.0089146205336 
0.031475591559 0.22711270471 0.076897818614 0.14070363487 0.076897818614 0.12326803418 0.090672368886 0.12326797784 0.12969967968 
0.13235963023 0.082575630174 0.18064710413 0.023159244868 0.1439043622 0.048611164093 0.040510855858 0.1003966821 0.03392197779 
0.03280149222 0.033137652547 0.078452643349 0.04767729634 0.10145605996 0.13121427141 0.12404374141 0.15125080224 0.14390425835 
0.083109426437 0.046794660985 0.17849385101 0.1044586095 0.062700773226 0.06169444492 0.031089867382 0.087973930542 0.06169444492 
0.055198765869 0.051317923078 0.10681158057 0.045618496911 0.11581562302 0.11863485852 0.088724968609 0.017426705978 0.02136174453 
0.014138068296 0.011398762074 0.024998097864 0.015532495657 0.018365422405 0.013015006603 0.024896379561 0.025019929305 0.015183874819 
0.023803719998 0.016556949784 0.014383436242 0.017117227792 0.017552951849 0.017292291462 0.021130864475 0.0079155520901 0.034539973816 
0.051606046368 0.028830856738 0.031764034188 0.02787283639 0.024410866935 0.033607402 0.029701431329 0.0094059952333 0.035400815921 
0.019953489736 0.019825327383 0.029272222642 0.016942775161 0.021898608974 0.016477954692 0.03287499721 0.059260188982 0.044574445317 
0.040156456734 0.031496044796 0.04238533213 0.027252514309 0.049245451214 0.040653484672 0.054064816873 0.040184101819 0.033920638732 
0.039005479404 0.020275641628 0.03551160668 0.060843602439 0.020275641628 0.045620193662 0.031421572384 0.040222702724 0.038622459286 
0.040684594045 0.013086051058 0.017986937733 0.017787342115 0.017787342115 0.010954950968 0.015088635574 0.023466948118 0.015696984586 
0.027361139807 0.015522583325 0.014817685623 0.017377815993 0.015864594443 0.011208595255 0.018311135636 0.017544824332 0.017330954018 
0.089714121716 0.089714121716 0.12474868147 0.15038254592 0.13646891905 0.25980276957 0.21884925099 0.13646864933 0.12368673855 
0.15538912927 0.13663629186 0.13663568472 0.090906191916 0.064345758466 0.0051106558013 0.020725850268 0.0063361380087 0.17920001542 
0.11962284818 0.15351465972 0.17572739074 0.12026328679 0.044323050266 0.11484310205 0.068531628225 0.097902320797 0.099682368327 
0.10253042482 0.066080569129 0.12474868274 0.082344655034 0.068366495289 0.12601960257 0.083247593696 0.076185810602 0.11586284549 
0.072358727816 0.097902333019 0.099682392772 0.10253042482 0.068742789728 0.1216728868 0.024605212451 0.037595157145 0.085086017695 
0.085086029917 0.047438124276 0.73845040651 1.005951022 0.063735979291 0.063013494327 0.059898420317 0.11214269187 0.062301495482 
0.0069155783061 0.0026546497012 0.0059896706389 0.0066990466051 0.0076940836623 0.0076940836623 0.011214911683 0.011679946217 0.0069155783061 
0.0019235260409 0.0039654393934 0.0039654393934 0.0068987107822 0.006401193892 0.005513148235 0.0079577464769 0.0060925238983 0.013245613365 
0.0063179729064 0.065416570256 0.026051180033 0.020359221841 0.015269416381 0.066250443856 0.058532271931 0.011415484764 0.0091874001126 
0.030389082781 0.026046076354 0.01528171854 0.0051106558013 0.027497147616 0.02154286923 0.0098210139135 0.0089726592852 0.014587467305 
0.0096200618525 0.12602700699 0.051223089524 0.050553198286 0.061965542175 0.051273635879 0.051273635879 0.0086554573453 0.049883067526 
0.025645244177 0.025645244177 0.10251357788 0.10110640879 0.051265212409 0.051273635879 0.051273635879 0.062301480204 0.012270208116 
0.0085348498623 0.0079166378389 0.038092902245 0.074761794579 0.043611036143 0.018906058789 0.012734081837 0.009390930336 0.0091012014292 