# vtk DataFile Version 5.1
vtk output
ASCII
DATASET STRUCTURED_POINTS
DIMENSIONS 30 30 30
SPACING 0.01 0.01 0.01
ORIGIN 3.555 -0.145 0.855
POINT_DATA 27000
FIELD FieldData 1
potential 1 27000 double
0.00092680603609 0.00092539204657 0.00092398236544 0.00092257701356 0.0009211760648 0.00091977940382 0.00091838704799 0.00091699890487 0.00091561500249 
0.00091423536944 0.0009128599184 0.0009114886404 0.00091012152717 0.00090875853395 0.00090739968466 0.00090604487772 0.00090469414497 0.00090334748756 
0.00090200481147 0.00090066615574 0.00089933146599 0.00089800080458 0.0008966740353 0.00089535120359 0.0008940322604 0.00089271720173 0.00089140601932 
0.0008900986794 0.00088879517448 0.00088749548347 0.00092765871437 0.00092624201006 0.00092482963709 0.00092342161918 0.00092201804026 0.00092061873851 
0.00091922369794 0.00091783299708 0.0009164464845 0.00091506424128 0.00091368622103 0.00091231236443 0.00091094271638 0.00090957715505 0.00090821573983 
0.00090685840304 0.00090550517387 0.00090415600759 0.00090281086187 0.00090146972049 0.00090013260601 0.00089879942865 0.00089747021006 0.00089614491856 
0.00089482353663 0.00089350608493 0.00089219247375 0.00089088272149 0.00088957681819 0.00088827468364 0.00092851403205 0.00092709460911 0.00092567956958 
0.00092426888377 0.00092286262479 0.00092146068516 0.00092006304116 0.00091866967105 0.00091728059064 0.00091589575045 0.00091451513028 0.00091313871318 
0.00091176648393 0.00091039840504 0.00090903440683 0.00090767458308 0.00090631881418 0.00090496711133 0.00090361946154 0.0009022758426 0.00090093627573 
0.00089960066003 0.00089826897764 0.00089694121654 0.00089561741419 0.00089429750769 0.00089298149302 0.00089166933128 0.00089036102701 0.00088905653677 
0.00092937200198 0.00092794991369 0.00092653218799 0.00092511886711 0.00092370993887 0.00092230531197 0.00092090506836 0.00091950907537 0.00091811738435 
0.00091672994488 0.00091534672974 0.00091396774244 0.00091259293281 0.00091122230064 0.00090985579359 0.00090849342208 0.00090713512901 0.00090578094085 
0.00090443078418 0.00090308465698 0.00090174257734 0.00090040446166 0.00089907030889 0.00089774014503 0.00089641390692 0.00089509156247 0.00089377311147 
0.00089245854941 0.00089114784579 0.00088984096841 0.00093023275527 0.00092880797821 0.00092738757477 0.00092597161494 0.00092455999448 0.00092315268932 
0.00092174980554 0.00092035118738 0.00091895688341 0.00091756683619 0.00091618106184 0.0009147994876 0.00091342211855 0.00091204891558 0.00091067989489 
0.00090931497739 0.00090795414185 0.00090659739835 0.00090524478638 0.00090389615355 0.00090255154359 0.00090121098515 0.00089987437811 0.00089854173557 
0.00089721304628 0.00089588826713 0.000894567394 0.00089325043846 0.00089193733442 0.00089062805493 0.00093109628842 0.00092966879792 0.00092824573233 
0.00092682710972 0.00092541285445 0.00092400294889 0.00092259738223 0.00092119614087 0.00091979917852 0.00091840653004 0.00091701812352 0.00091563398162 
0.00091425399706 0.00091287827299 0.00091150668314 0.00091013921897 0.00090877588769 0.00090741664279 0.00090606150563 0.00090471037623 0.00090336328032 
0.00090202020777 0.00090068117129 0.00089934606808 0.0008980149191 0.00089668771237 0.00089536443457 0.00089404503544 0.00089272949442 0.00089141781558 
0.00093196257924 0.00093053242263 0.00092910665521 0.00092768539384 0.00092626847435 0.00092485594345 0.00092344772503 0.00092204382356 0.00092064425979 
0.00091924899539 0.00091785800769 0.00091647124468 0.00091508871128 0.00091371039701 0.0009123362787 0.00091096627242 0.00090960041069 0.0009082386926 
0.00090688100883 0.00090552735906 0.00090417778697 0.00090283222958 0.00090149068407 0.0009001531802 0.00089881958022 0.00089748993121 0.00089616416645 
0.00089484233185 0.00089352441843 0.00089221034182 0.00093283176915 0.0009313988852 0.00092997043342 0.00092854649082 0.00092712690478 0.00092571171945 
0.00092430087822 0.00092289436978 0.00092149217791 0.00092009428962 0.00091870070307 0.0009173113845 0.00091592630206 0.00091454540208 0.00091316869711 
0.00091179617876 0.00091042774876 0.00090906349066 0.00090770329452 0.00090634715903 0.0009049951102 0.00090364706428 0.00090230304519 0.00090096302273 
0.00089962700265 0.00089829487654 0.0008969667053 0.00089564244438 0.00089432211989 0.00089300562875 0.00093370378224 0.00093226822977 0.00093083709382 
0.00092941049048 0.00092798824367 0.00092657039232 0.00092515689555 0.00092374774726 0.00092234296551 0.00092094247024 0.00091954626934 0.00091815436724 
0.00091676668229 0.0009153832126 0.00091400394942 0.0009126288628 0.00091125799291 0.00090989117131 0.00090852848169 0.00090716984341 0.00090581528096 
0.00090446471795 0.00090311820706 0.00090177571196 0.0009004371671 0.00089910265893 0.0008977720558 0.00089644536489 0.00089512263678 0.00089380373416 
0.00093457874266 0.00093314049431 0.00093170667579 0.00093027738843 0.00092885247018 0.00092743195063 0.00092601580649 0.00092460404714 0.00092319661748 
0.0009217935239 0.00092039472849 0.00091900023347 0.00091760993688 0.00091622388665 0.00091484205324 0.00091346450487 0.00091209102141 0.00091072169409 
0.00090935647075 0.00090799532136 0.00090663825822 0.00090528524779 0.00090393621451 0.00090259124877 0.0009012502741 0.00089991326033 0.00089858024109 
0.00089725112601 0.00089592591855 0.00089460461832 0.00093545665227 0.00093401567108 0.00093257919761 0.00093114718634 0.00092971960495 0.00092829636791 
0.00092687763423 0.00092546323376 0.0009240531902 0.00092264746333 0.00092124610977 0.00091984896874 0.00091845610724 0.00091706748211 0.00091568306041 
0.00091430291418 0.00091292691679 0.00091155506048 0.0009101872919 0.00090882364134 0.00090746407521 0.00090610853862 0.00090475706349 0.00090340961537 
0.00090206620349 0.00090072674205 0.00089939126847 0.00089805976034 0.00089673212228 0.0008954083983 0.00093633751223 0.00093489381944 0.00093345462915 
0.00093201990254 0.00093058966753 0.00092916378385 0.00092774239576 0.00092632534422 0.00092491267517 0.0009235043274 0.00092210032522 0.00092070066036 
0.00091930519311 0.00091791399737 0.00091652706045 0.0009151443014 0.00091376575621 0.00091239135028 0.00091102106664 0.00090965489919 0.00090829279235 
0.00090693479164 0.00090558085077 0.00090423091121 0.0009028850221 0.00090154309171 0.00090020514545 0.00089887117297 0.00089754114321 0.00089621499577 
0.00093722131203 0.00093577490516 0.00093433301229 0.00093289557303 0.00093146267031 0.00093003412398 0.00092861006974 0.00092719039324 0.00092577507777 
0.00092436419293 0.00092295755221 0.00092155523568 0.00092015722019 0.0009187634144 0.00091737392488 0.00091598857352 0.0009146074823 0.00091323052443 
0.00091185770762 0.00091048900095 0.00090912441856 0.0009077639268 0.00090640750517 0.00090505507987 0.00090370669457 0.00090236231506 0.00090102191544 
0.00089968550043 0.00089835303701 0.00089702446365 0.00093810807664 0.00093665895306 0.00093521434607 0.00093377422238 0.00093233855014 0.00093090740014 
0.00092948073029 0.00092805839288 0.00092664046732 0.00092522691287 0.00092381770399 0.00092241275808 0.00092101213281 0.00091961581452 0.00091822367918 
0.00091683579585 0.0009154520957 0.0009140725879 0.00091269723925 0.00091132603967 0.00090995895892 0.0009085959589 0.00090723702714 0.00090588214506 
0.0009045312788 0.00090318442862 0.00090184157247 0.0009005027117 0.00089916776979 0.00089783679723 0.00093899780006 0.00093754596525 0.00093609864093 
0.00093465583013 0.00093321746249 0.0009317836389 0.00093035430596 0.0009289293284 0.00092750878227 0.00092609259994 0.0009246807515 0.00092327322301 
0.00092187003076 0.00092047108336 0.00091907640229 0.00091768592292 0.00091629964754 0.00091491763757 0.00091353973171 0.00091216599829 0.00091079638791 
0.00090943089313 0.00090806946456 0.0009067120951 0.00090535875086 0.00090400944015 0.00090266411926 0.00090132280915 0.0008999854359 0.0008986519424 
0.00093989049974 0.00093843596351 0.00093698590851 0.00093554039549 0.00093409935054 0.00093266282461 0.00093123083666 0.00092980326184 0.00092838002725 
0.00092696121162 0.00092554673761 0.00092413659929 0.00092273079934 0.00092132926486 0.00091993201108 0.00091853895858 0.00091715012212 0.00091576558861 
0.00091438515604 0.00091300887401 0.00091163674515 0.0009102687276 0.00090890481392 0.00090754495473 0.00090618913012 0.00090483734516 0.00090348952851 
0.0009021457621 0.000900805932 0.00089947004687 0.00094078613459 0.0009393288992 0.0009378761103 0.00093642790229 0.00093498419313 0.00093354498886 
0.0009321103119 0.00093068006708 0.00092925423595 0.00092783275254 0.00092641565544 0.00092500294429 0.00092359452165 0.00092219038348 0.00092079049098 
0.00091939491644 0.00091800356525 0.00091661642081 0.00091523345859 0.00091385467635 0.00091247999451 0.00091110946495 0.00090974303464 0.00090838065989 
0.00090702236423 0.0009056680918 0.000904317845 0.00090297162289 0.00090162934442 0.00090029101994 0.00094168479034 0.00094022478321 0.00093876931525 
0.00093731831702 0.00093587194775 0.00093443006321 0.00093299269781 0.00093155979688 0.00093013132073 0.00092870721556 0.0009272875149 0.00092587214959 
0.00092446112259 0.00092305439443 0.00092165194099 0.00092025378005 0.00091885985726 0.00091747016203 0.00091608466063 0.00091470333316 0.0009133261334 
0.00091195305731 0.00091058412147 0.00090921927281 0.00090785849003 0.00090650175348 0.00090514906814 0.00090380035478 0.00090245563158 0.00090111484924 
0.00094258628389 0.00094112356177 0.00093966541455 0.00093821172792 0.00093676266474 0.0009353180971 0.00093387804295 0.0009324424391 0.00093101129591 
0.00092958460628 0.00092816226561 0.0009267442942 0.00092533062564 0.00092392131259 0.00092251629076 0.00092111553497 0.0009197190107 0.00091832675873 
0.00091693872755 0.00091555483852 0.00091417515458 0.00091279959186 0.00091142811577 0.00091006076781 0.00090869749488 0.00090733827582 0.00090598311313 
0.00090463194687 0.00090328476053 0.00090194153724 0.00094349077829 0.00094202526664 0.00094056434657 0.00093910798011 0.00093765622118 0.00093620896863 
0.00093476628315 0.00093332803357 0.00093189424449 0.00093046489014 0.00092903990201 0.00092761926306 0.0009262029855 0.0009247910743 0.00092338346251 
0.00092198014574 0.00092058106888 0.00091918625368 0.00091779567795 0.00091640928571 0.00091502702635 0.00091364894289 0.00091227499405 0.00091090511204 
0.00090953934886 0.00090817764411 0.00090681999963 0.00090546636952 0.00090411672554 0.00090277105007 0.00094439806892 0.00094292986366 0.0009414661495 
0.00094000710389 0.00093855267417 0.00093710276548 0.00093565737774 0.00093421643767 0.00093278000264 0.00093134797391 0.00092992032117 0.00092849713053 
0.00092707827298 0.00092566372042 0.00092425351628 0.00092284761281 0.00092144598366 0.00092004857369 0.00091865546227 0.00091726651513 0.00091588172259 
0.00091450113211 0.00091312466164 0.00091175230599 0.00091038401914 0.0009090198151 0.00090765970458 0.00090630359055 0.00090495149297 0.00090360338114 
0.00094530824991 0.0009438372595 0.00094237081659 0.00094090906492 0.00093945190753 0.00093799933184 0.00093655127728 0.0009351077277 0.00093366860069 
0.00093223390405 0.00093080363487 0.00092937780271 0.00092795634561 0.00092653923029 0.00092512643082 0.00092371794234 0.00092231370443 0.00092091374713 
0.00091951806489 0.0009181265777 0.00091673928828 0.00091535612597 0.0009139771383 0.00091260227459 0.00091123150096 0.00090986478727 0.00090850221437 
0.00090714361723 0.00090578904924 0.00090443847466 0.00094622125542 0.00094474744452 0.0009432783326 0.00094181387237 0.00094035405093 0.00093889873019 
0.00093744804322 0.00093600179085 0.00093455996776 0.0009331226425 0.00093168975213 0.00093026127354 0.00092883721886 0.00092741749319 0.00092600210688 
0.00092459101922 0.00092318424587 0.00092178171971 0.00092038347951 0.00091898940143 0.00091759955976 0.00091621390868 0.00091483237173 0.00091345499629 
0.00091208171985 0.00091071259331 0.00090934746193 0.00090798636688 0.00090662934097 0.00090527629839 0.00094713702442 0.00094566049754 0.0009441886887 
0.00094272146893 0.00094125893093 0.00093980091684 0.00093834753858 0.00093689858521 0.0009354541383 0.00093401416274 0.00093257861477 0.00093114752312 
0.00092972081467 0.00092829852059 0.00092688053523 0.00092546685766 0.00092405749959 0.00092265240387 0.00092125158125 0.00091985501122 0.00091846262775 
0.00091707441087 0.00091569040161 0.00091431046352 0.00091293469035 0.00091156305966 0.00091019546255 0.00090883186546 0.00090747234754 0.00090611685971 
0.00094805554017 0.00094657627282 0.00094510172408 0.00094363178408 0.00094216655002 0.00094070586699 0.00093924971705 0.00093779811684 0.00093635103352 
0.00093490840558 0.00093347021695 0.00093203649672 0.00093060716689 0.00092918223768 0.00092776166966 0.00092634539998 0.00092493345878 0.00092352579113 
0.00092212240722 0.00092072331038 0.00091932836798 0.00091793764196 0.00091655109315 0.00091516868668 0.00091379033692 0.0009124162084 0.00091104612095 
0.00090968005896 0.00090831801138 0.00090696005974 0.00094897665506 0.00094749472631 0.00094601745236 0.00094454481643 0.00094307687707 0.00094161343336 
0.00094015463389 0.0009387003609 0.00093725058566 0.00093580533038 0.00093436449143 0.00093292811962 0.00093149618353 0.00093006862433 0.00092864545123 
0.00092722660471 0.00092581208128 0.00092440184907 0.00092299590035 0.0009215942444 0.00092019676624 0.00091880348377 0.00091741439983 0.00091602948685 
0.00091464865581 0.00091327202538 0.00091189936529 0.0009105308399 0.0009091663708 0.00090780592048 0.00094990049401 0.00094841582134 0.00094693581534 
0.00094546048847 0.00094398975384 0.0009425236787 0.00094106218632 0.0009396052329 0.00093815279094 0.00093670484788 0.00093526139077 0.00093382238334 
0.00093238780406 0.00093095764397 0.00092953184147 0.00092811044888 0.00092669332588 0.00092528051212 0.00092387199649 0.00092246777377 0.00092106775246 
0.00091967194534 0.00091828030357 0.00091689282151 0.00091550953414 0.00091413035027 0.00091275525815 0.0009113842605 0.00091001725854 0.00090865433347 
0.0009508269315 0.00094933950893 0.00094785679635 0.00094637871591 0.00094490526881 0.00094343649306 0.00094197229568 0.00094051266325 0.00093905755299 
0.00093760696941 0.00093616083328 0.00093471921586 0.00093328201906 0.00093184924114 0.00093042083094 0.00092899681248 0.00092757711953 0.00092616171663 
0.00092475063731 0.00092334386092 0.00092194128435 0.00092054287888 0.00091914871426 0.00091775873077 0.00091637298146 0.00091499125248 0.00091361363141 
0.00091224015279 0.00091087072228 0.00090950536833 0.00095175584563 0.00095026573165 0.00094878028513 0.00094729945601 0.00094582331241 0.00094435181781 
0.00094288493948 0.00094142262637 0.0009399648459 0.00093851158336 0.00093706281513 0.00093561853163 0.00093417873361 0.00093274332571 0.00093131232018 
0.0009298856752 0.00092846338665 0.00092704542731 0.00092563175229 0.00092422236939 0.00092281724437 0.00092141634723 0.00092001966465 0.00091862713495 
0.00091723883019 0.00091585464682 0.00091447457798 0.00091309856105 0.00091172665684 0.00091035881817 0.0009526872942 0.00095119440982 0.0009497061842 
0.00094822266613 0.0009467438286 0.00094526961643 0.00094380003393 0.00094233503872 0.00094087459683 0.0009394186797 0.00093796724841 0.0009365203275 
0.00093507786169 0.00093363984821 0.00093220619429 0.00093077698098 0.00092935210217 0.00092793151592 0.00092651528607 0.00092510338463 0.00092369569272 
0.00092229222001 0.00092089300022 0.00091949797379 0.00091810715983 0.00091672046851 0.0009153378976 0.0009139593859 0.00091258499546 0.00091121463154 
0.00093715698446 0.0009357276145 0.00093430255488 0.00093288195998 0.00093146570509 0.00093005377504 0.00092864620747 0.00092724292775 0.00092584399084 
0.00092444929717 0.00092305885619 0.00092167260825 0.00092029059177 0.00091891273001 0.00091753901727 0.0009161694491 0.00091480399908 0.0009134426269 
0.00091208532773 0.00091073205624 0.00090938284788 0.00090803759243 0.00090669633681 0.00090535906016 0.0009040257142 0.00090269627671 0.00090137079558 
0.00090004919209 0.00089873141317 0.00089741745718 0.00093801915666 0.00093658702183 0.00093515931206 0.00093373603344 0.00093231704633 0.00093090246679 
0.00092949227661 0.00092808635027 0.00092668478358 0.0009252874699 0.00092389440861 0.00092250559764 0.00092112096903 0.00091974053867 0.00091836426252 
0.00091699214018 0.0009156241256 0.00091426023971 0.00091290040179 0.0009115446548 0.00091019292375 0.00090884519361 0.00090750148924 0.00090616174354 
0.0009048259244 0.00090349405658 0.00090216610494 0.00090084207414 0.00089952189562 0.00089820558211 0.00093888388578 0.00093744903057 0.000936018638 
0.00093459267225 0.00093317102608 0.00093175377415 0.00093034092783 0.00092893235462 0.00092752815688 0.00092612822153 0.00092473254829 0.00092334113005 
0.00092195394079 0.00092057090875 0.00091919207264 0.00091781739636 0.0009164468376 0.00091508041933 0.0009137180711 0.0009123598291 0.00091100557345 
0.00090965532967 0.00090830910509 0.00090696691352 0.00090562864854 0.00090429432805 0.00090296393581 0.00090163747428 0.00090031487906 0.0008989961527 
0.00093975134431 0.00093831379464 0.00093688063044 0.00093545191467 0.00093402759621 0.00093260768505 0.00093119213782 0.00092978096757 0.00092837412884 
0.00092697156873 0.00092557328303 0.00092417928527 0.00092278950663 0.00092140391034 0.00092002249226 0.00091864525569 0.00091727216515 0.00091590318036 
0.00091453830375 0.00091317752681 0.00091182076121 0.00091046804599 0.00090911934661 0.00090777464201 0.00090643392455 0.00090509714915 0.00090376431178 
0.00090243543182 0.0009011104161 0.00089978927307 0.00094062142912 0.00093918113898 0.0009377452993 0.00093631389574 0.00093488691331 0.00093346433129 
0.00093204608719 0.00093063228042 0.00092922278715 0.00092781760125 0.00092641669424 0.00092502007786 0.00092362769674 0.00092223953423 0.00092085552156 
0.00091947573997 0.00091810007852 0.00091672855416 0.00091536118993 0.00091399784908 0.00091263860489 0.00091128339182 0.00090993220465 0.00090858502223 
0.00090724183608 0.00090590259895 0.00090456731864 0.00090323597399 0.00090190852921 0.00090058496617 0.00094149419386 0.00094005120352 0.00093861259874 
0.00093717857426 0.0009357489203 0.00093432364168 0.00093290275475 0.00093148629479 0.00093007416496 0.00092866631636 0.00092726276275 0.00092586353188 
0.0009244685413 0.0009230777798 0.00092169124738 0.00092030890426 0.00091893070506 0.00091755667148 0.00091618672929 0.00091482085251 0.00091345908024 
0.00091210139761 0.0009107477192 0.00090939805156 0.00090805239881 0.00090671070407 0.00090537296555 0.00090403917978 0.0009027093277 0.00090138332053 
0.00094236972927 0.00094092394388 0.00093948269663 0.00093804596977 0.00093661363062 0.00093518568748 0.00093376211156 0.00093234297641 0.00093092819322 
0.00092951774723 0.00092811161045 0.0009267097737 0.00092531217087 0.00092391883692 0.0009225296862 0.00092114477295 0.00091976401583 0.00091838746174 
0.0009170149684 0.0009156465814 0.0009142822827 0.00091292205958 0.00091156591979 0.00091021377568 0.00090886564299 0.00090752150847 0.00090618131527 
0.00090484508319 0.0009035127421 0.00090218433734 0.00094324798148 0.00094179950594 0.00094035556866 0.00093891611306 0.00093748108267 0.00093605043698 
0.00093462428481 0.00093320246553 0.00093178501698 0.00093037193668 0.00092896319266 0.00092755871396 0.00092615852387 0.00092476260485 0.00092337091162 
0.0009219834156 0.00092060015998 0.00091922101169 0.00091784599327 0.00091647502108 0.00091510820565 0.00091374548099 0.00091238683978 0.0009110322395 
0.00090968162892 0.00090833500536 0.00090699232249 0.00090565364913 0.0009043189098 0.000902988075 0.0009441290744 0.00094267789935 0.00094123124441 
0.00093978906315 0.00093835135867 0.00093691802884 0.00093548920627 0.00093406476937 0.0009326446568 0.00093122889486 0.00092981752876 0.00092841044877 
0.00092700765491 0.00092560914274 0.00092421486872 0.00092282484626 0.00092143896957 0.00092005727795 0.00091867971919 0.00091730629801 0.00091593696584 
0.00091457171765 0.00091321055818 0.00091185342866 0.00091050036256 0.00090915121617 0.00090780610119 0.00090646499018 0.00090512777512 0.00090379449891 
0.00094501301513 0.00094355912263 0.00094210974679 0.00094066485773 0.0009392244565 0.00093778845665 0.00093635693716 0.00093492984573 0.0009335071074 
0.00093208870762 0.00093067468499 0.00092926498763 0.00092785961016 0.00092645847924 0.00092506162166 0.00092366900748 0.00092228057888 0.00092089636063 
0.00091951625902 0.00091814028175 0.0009167684451 0.00091540065288 0.00091403697987 0.00091267733021 0.00091132177216 0.00090997026274 0.00090862268218 
0.00090727908483 0.00090593943467 0.00090460371278 0.00094589979907 0.00094444318043 0.00094299110215 0.00094154350265 0.00094010038207 0.00093866170651 
0.00093722751757 0.00093579774289 0.00093437233948 0.00093295134222 0.00093153467117 0.0009301223771 0.00092871433909 0.00092731063181 0.00092591120523 
0.00092451602109 0.00092312502565 0.00092173820375 0.00092035558963 0.00091897707493 0.00091760270557 0.00091623243998 0.00091486620587 0.00091350409797 
0.00091214604406 0.00091079198903 0.00090944197796 0.00090809593413 0.00090675383435 0.00090541567569 0.00094678946475 0.00094533008995 0.00094387528614 
0.00094242498762 0.00094097911513 0.00093953781121 0.00093810093589 0.00093666850159 0.00093524047226 0.00093381685014 0.00093239755018 0.00093098259783 
0.00092957199724 0.00092816568336 0.00092676362287 0.00092536585386 0.00092397227581 0.00092258290378 0.00092119771557 0.00091981667815 0.00091843977704 
0.00091706696844 0.00091569828272 0.00091433364707 0.00091297308477 0.00091161656031 0.0009102640405 0.00090891557396 0.00090757102122 0.00090623041879 
0.00094768200988 0.00094621993475 0.0009447623499 0.00094330934016 0.00094186077898 0.0009404167428 0.00093897721304 0.00093754211926 0.00093611143219 
0.00093468515374 0.0009332632787 0.0009318456941 0.00093043243065 0.00092902355657 0.00092761887227 0.00092621850836 0.00092482235502 0.00092343042393 
0.00092204268584 0.00092065909029 0.00091927966412 0.00091790434413 0.00091653314217 0.00091516600403 0.00091380294868 0.00091244393976 0.00091108897025 
0.00090973801772 0.00090839100693 0.00090704795754 0.00094857748664 0.00094711262009 0.00094565230636 0.00094419655465 0.00094274529061 0.00094129857294 
0.00093985638835 0.00093841859549 0.00093698525689 0.00093555634702 0.00093413181775 0.00093271164258 0.00093129581116 0.00092988424435 0.00092847699334 
0.00092707401563 0.00092567527621 0.00092428078493 0.0009228904276 0.00092150432865 0.00092012236145 0.00091874454364 0.00091737082622 0.00091600118887 
0.00091463563111 0.00091327413435 0.00091191668623 0.0009105632277 0.00090921379742 0.00090786826176 0.00094947580217 0.0009480081914 0.00094654513851 
0.00094508666593 0.00094363267539 0.00094218328555 0.00094073842265 0.00093929795519 0.00093786194472 0.00093643041778 0.00093500322183 0.00093358044709 
0.00093216197648 0.00093074781091 0.00092933793202 0.00092793236734 0.0009265310687 0.00092513396015 0.00092374109383 0.00092235243198 0.00092096792721 
0.00091958756765 0.00091821134584 0.00091683919993 0.00091547114851 0.00091410714375 0.0009127471828 0.00091139125258 0.00091003931959 0.00090869140352 
0.00095037699841 0.0009489066412 0.00094744084492 0.00094597960551 0.00094452297666 0.00094307085379 0.00094162330679 0.00094018020103 0.00093874154399 
0.00093730732242 0.00093587748214 0.00093445206513 0.00093303097018 0.00093161418527 0.00093020173506 0.0009287935701 0.00092738967191 0.00092599003152 
0.00092459457373 0.00092320334999 0.00092181631461 0.00092043342341 0.00091905466769 0.00091768003582 0.00091630943283 0.0009149429482 0.00091358053535 
0.00091222212982 0.00091086773062 0.00090951731349 0.00095128107842 0.0009498079556 0.00094833944812 0.00094687547202 0.00094541612377 0.00094396130307 
0.00094251105725 0.00094106527552 0.00093962398058 0.0009381870773 0.00093675461277 0.0009353265218 0.00093390280204 0.00093248345163 0.00093106837852 
0.00092965759411 0.00092825112174 0.00092684890785 0.00092545090564 0.00092405710914 0.00092266749474 0.00092128206953 0.00091990078744 0.00091852362689 
0.00091715056763 0.00091578158658 0.00091441668986 0.0009130558033 0.00091169891957 0.0009103460612 0.00095218802786 0.00095071215846 0.00094924087761 
0.00094777420839 0.00094631215511 0.0009448546301 0.0009434016509 0.00094195317551 0.00094050922395 0.00093906969777 0.00093763457287 0.00093620384435 
0.00093477750827 0.00093335552085 0.00093193782141 0.00093052445709 0.00092911542569 0.00092771056611 0.00092631000518 0.00092491368299 0.00092352152655 
0.00092213356443 0.00092074975496 0.00091937007645 0.00091799449507 0.00091662301457 0.00091525564277 0.00091389227989 0.00091253292985 0.00091117759493 
0.00095309784786 0.00095161919753 0.00095014516875 0.0009486758266 0.0009472109889 0.00094575075779 0.00094429508366 0.0009428439685 0.00094139730591 
0.00093995513556 0.00093851736107 0.00093708399181 0.00093565501488 0.0009342303389 0.00093281007347 0.0009313941191 0.00092998244974 0.0009285751127 
0.00092717193953 0.00092577304657 0.00092437837973 0.00092298785795 0.00092160151823 0.00092021931886 0.00091884123826 0.00091746724787 0.00091609737046 
0.00091473151862 0.00091336970391 0.00091201190189 0.00095401048706 0.00095252907419 0.00095105227052 0.00094958019456 0.00094811270889 0.00094664976968 
0.00094519139846 0.0009437375973 0.00094228819248 0.00094084335419 0.00093940291454 0.00093796690215 0.00093653525672 0.00093510802759 0.00093368514917 
0.00093226658902 0.00093085235033 0.0009294424157 0.0009280367071 0.00092663521503 0.00092523798892 0.00092384495323 0.00092245606172 0.00092107133866 
0.00091969074361 0.0009183142743 0.00091694185776 0.00091557351308 0.00091420923777 0.00091284895588 0.00095492593541 0.00095344165527 0.00095196216997 
0.00095048733444 0.0009490171553 0.00094755150426 0.00094609046949 0.00094463398657 0.00094318192838 0.00094173437179 0.00094029132519 0.00093885258919 
0.00093741834338 0.00093598848796 0.00093456299522 0.00093314183042 0.00093172499794 0.00093031249736 0.00092890419804 0.00092750017898 0.00092610035249 
0.00092470477496 0.00092331337754 0.00092192609683 0.0009205429915 0.00091916401484 0.00091778909799 0.00091641826285 0.00091505149857 0.00091368875017 
0.00095584412988 0.00095435711961 0.00095287486076 0.00095139729078 0.00094992437387 0.00094845603762 0.00094699232138 0.00094553311536 0.00094407837713 
0.00094262815198 0.00094118236095 0.00093974110464 0.0009383042241 0.00093687173798 0.00093544359196 0.00093401981909 0.00093260038935 0.00093118530763 
0.00092977443095 0.00092836784393 0.00092696545267 0.00092556732644 0.00092417338962 0.00092278360967 0.00092139795855 0.00092001647858 0.00091863906467 
0.00091726574224 0.00091589646486 0.00091453121201 0.00095676507701 0.00095527534657 0.00095379031402 0.00095231000733 0.00095083434369 0.00094936327518 
0.000947896902 0.00094643498358 0.00094497758058 0.00094352463007 0.00094207621584 0.00094063230987 0.00093919279008 0.00093775767472 0.00093632694706 
0.0009349005695 0.00093347854029 0.00093206082584 0.00093064738954 0.00092923821618 0.00092783330466 0.00092643257434 0.00092503609886 0.00092364379859 
0.0009222556478 0.00092087161447 0.00091949168948 0.00091811585744 0.00091674411622 0.00091537640532 0.00095768868539 0.00095619625419 0.00095470848391 
0.00095322541832 0.00095174702477 0.00095027329502 0.00094880416104 0.00094733954818 0.00094587942534 0.00094442383744 0.000942972761 0.00094152615501 
0.00094008404763 0.00093864630077 0.00093721295206 0.00093578396878 0.00093435932704 0.00093293905744 0.00093152303759 0.00093011130831 0.00092870378552 
0.00092730054293 0.0009259014872 0.00092450665254 0.00092311595891 0.00092172945719 0.00092034699356 0.00091896865883 0.00091759440908 0.00091622423394 
0.00095861501699 0.00095711982189 0.00095562929973 0.00095414350906 0.00095266239868 0.00095118591276 0.0009497140507 0.00094824673271 0.00094678396049 
0.00094532570287 0.00094387196214 0.00094242270228 0.0009409778926 0.00093953756531 0.00093810158738 0.00093666999682 0.00093524275013 0.00093381983435 
0.00093240128528 0.00093098698178 0.00092957694708 0.00092817113387 0.00092676953097 0.00092537211316 0.00092397893972 0.00092258987592 0.00092120493385 
0.00091982407106 0.00091844732688 0.00091707466731 0.00095954395334 0.00095804600644 0.00095655273335 0.00095506422991 0.00095358038693 0.00095210117516 
0.0009506265563 0.00094915654822 0.0009476911115 0.00094623017078 0.00094477376343 0.0009433218478 0.00094187439246 0.00094043141152 0.00093899282638 
0.00093755861942 0.000936128768 0.00093470325654 0.00093328212676 0.00093186525615 0.00093045264949 0.00092904428799 0.00092764014511 0.00092624022252 
0.00092484448526 0.00092345285663 0.00092206542061 0.00092068207941 0.00091930276922 0.00091792762319 0.00096047547877 0.00095897474867 0.00095747880154 
0.00095598747989 0.0009545009366 0.00095301895135 0.00095154164247 0.00095006892667 0.00094860079434 0.00094713719864 0.0009456781231 0.00094422354915 
0.0009427734474 0.00094132779798 0.00093988661652 0.0009384497923 0.00093701733725 0.00093558923754 0.00093416551568 0.00093274605199 0.00093133087616 
0.00092991995956 0.00092851326754 0.0009271107883 0.00092571252687 0.00092431836683 0.00092292840714 0.00092154252234 0.0009201607936 0.00091878312712 
0.00096140953213 0.00095990605746 0.0009584073239 0.00095691325771 0.00095542392975 0.00095393927227 0.00095245923749 0.00095098383473 0.00094951301055 
0.00094804671104 0.00094658499468 0.00094512775238 0.00094367500353 0.00094222671438 0.00094078288377 0.00093934347612 0.00093790840697 0.0009364776926 
0.00093505138121 0.00093362934203 0.00093221159479 0.00093079811604 0.00092938886547 0.00092798381237 0.0009265830104 0.00092518635813 0.00092379388679 
0.00092240553044 0.0009210212769 0.00091964103986 0.00096234602974 0.00096083979657 0.0009593383095 0.0009578414864 0.0009563494535 0.00095486205175 