# vtk DataFile Version 5.1
vtk output
ASCII
DATASET STRUCTURED_POINTS
DIMENSIONS 26 14 26
SPACING 0.08 0.08 0.08
ORIGIN 2.7 -0.52 0
POINT_DATA 9464
FIELD FieldData 1
potential 1 9464 double
6.8978242828e-05 5.5788172504e-05 4.2500367606e-05 2.9107546333e-05 1.5675627381e-05 2.2859438622e-06 -1.1010064782e-05 -2.4122120524e-05 -3.6826087142e-05 
-4.8750444112e-05 -5.9630516319e-05 -6.9562269125e-05 -7.8911787484e-05 -8.8054039661e-05 -9.7268894274e-05 -0.00010662975021 -0.00011617097847 -0.00012582610254 
-0.00013547016444 -0.00014490072219 -0.0001538144588 -0.00016184047098 -0.00016874153827 -0.00017467597445 -0.00018013374163 -0.00018560699119 -0.00030501607298 
-0.00031887425966 -0.0003326461533 -0.00034634673051 -0.00035995003579 -0.00037341118121 -0.0003866757845 -0.0003996550023 -0.00041222353856 -0.00042423067018 
-0.00043558834613 -0.0004463318898 -0.0004566142012 -0.00046661881921 -0.00047651752728 -0.00048634561403 -0.00049614891962 -0.00050589444569 -0.00051550003068 
-0.00052483961076 -0.00053375331369 -0.00054208424033 -0.00054976088391 -0.00055686399215 -0.000563602596 -0.00057021287394 -0.00054835286186 -0.00056254538687 
-0.00057655913201 -0.000590405388 -0.00060407228328 -0.00061752933968 -0.00063073682619 -0.00064363064126 -0.00065614333062 -0.00066820711883 -0.0006797904594 
-0.00069091191661 -0.00070164613377 -0.00071208767951 -0.00072232155494 -0.00073242891981 -0.00074237660414 -0.00075217483096 -0.00076177678436 -0.00077111083485 
-0.00078009445911 -0.0007886592141 -0.00079678074835 -0.00080450311447 -0.00081192719881 -0.00081917171059 -0.00062619171424 -0.00064045614483 -0.00065449520673 
-0.00066831264564 -0.0006819005321 -0.00069523681332 -0.00070829505022 -0.00072103308417 -0.00073341425571 -0.00074540738257 -0.00075700137709 -0.00076820819167 
-0.00077907051539 -0.00078964080367 -0.00079997110612 -0.00081012503216 -0.00082006367831 -0.00082980922476 -0.00083933857639 -0.00084861215503 -0.0008575894393 
-0.00086623884597 -0.00087455264438 -0.00088255436514 -0.00089029443151 -0.00089783433375 -0.00059971031601 -0.00061377712275 -0.00062759195118 -0.00064115571965 
-0.00065445769515 -0.00066748396141 -0.00068021599445 -0.00069262450103 -0.00070469195428 -0.00071640263717 -0.00072775580038 -0.00073876021367 -0.00074944410606 
-0.00075984210535 -0.00076998764195 -0.00077990699954 -0.00078964411262 -0.00079914282695 -0.00080842257433 -0.00081746428394 -0.00082624891423 -0.0008347611602 
-0.00084299776534 -0.00085097139619 -0.00085870502564 -0.00086622875295 -0.00046395534148 -0.00047738855441 -0.00049055504984 -0.00050344977641 -0.00051606194129 
-0.00052837906352 -0.00054038573161 -0.0005520696929 -0.00056341270422 -0.00057441193136 -0.00058507161664 -0.00059540006009 -0.00060541925068 -0.00061515555478 
-0.00062463505234 -0.00063387934176 -0.00064293380481 -0.00065174600542 -0.00066034419441 -0.00066872261259 -0.00067687167737 -0.00068478422945 -0.00069245722907 
-0.00069989456342 -0.00070710365206 -0.00071409531734 -9.7988841293e-05 -0.00010748254594 -0.00011701112662 -0.00012650042909 -0.0001358981886 -0.00014516170598 
-0.000154257226 -0.00016316118289 -0.00017184788535 -0.00018030901417 -0.00018854363019 -0.00019655415128 -0.00020435625441 -0.00021196710786 -0.00021940715571 
-0.00022669371806 -0.00023387149838 -0.00024088680916 -0.00024777392923 -0.00025453070245 -0.00026115113438 -0.00026762891283 -0.00027395817212 -0.00028013330234 
-0.00028615036601 -0.00029200401468 0.00025749586055 0.00024402491756 0.00023080144302 0.00021784261315 0.0002051629714 0.00019277962332 0.00018070484762 
0.00016894563204 0.00015751087461 0.0001463957088 0.00013558749136 0.00012507565472 0.00011483638863 0.00010484504663 9.5077093209e-05 8.5504735421e-05 
7.610781459e-05 6.6837994998e-05 5.7748542194e-05 4.8801568824e-05 3.9996832565e-05 3.1338455432e-05 2.2833278915e-05 1.4490526222e-05 6.322815153e-06 
-1.6557792252e-06 0.00044604597213 0.0004319712222 0.00041813946718 0.00040457430413 0.00039129763294 0.00037832940105 0.00036568545907 0.00035337271564 
0.00034139900341 0.00032975484209 0.00031842539745 0.00030739501719 0.00029663631903 0.00028612061606 0.00027581647241 0.00026569267916 0.00025572169568 
0.00024584711033 0.00023612015436 0.00022649823828 0.00021697779017 0.0002075638726 0.00019826588266 0.00018910104271 0.0001800901244 0.00017125991154 
0.00057238087726 0.00055808372238 0.00054401871037 0.00053021817293 0.00051671393229 0.00050353205942 0.00049069328569 0.00047820730499 0.00046608017874 
0.00045429984773 0.00044284804213 0.0004316972544 0.00042082048296 0.00041017932456 0.00039973435034 0.00038944530022 0.0003792745967 0.00036919208667 
0.00035914086437 0.00034917690487 0.00033926173418 0.00032939922938 0.00031960322514 0.00030989763892 0.00030031641218 0.00029090066481 0.00065794692455 
0.00064362745209 0.00062952357679 0.00061568352887 0.0006021480373 0.00058895483697 0.00057613386946 0.00056369779228 0.00055165408443 0.00053998436416 
0.00052866224313 0.00051765255532 0.00050692083577 0.00049641971723 0.00048609795967 0.0004759003971 0.00046577393706 0.00045567598028 0.00044554447741 
0.00043543322975 0.00042530159589 0.00041515192537 0.00040500124824 0.00039488183962 0.00038484367361 0.00037494747286 0.00076521126322 0.00074981792794 
0.00073461018751 0.00071964682839 0.0007049811129 0.00069066910107 0.00067675825376 0.00066327287254 0.00065021977334 0.00063756999346 0.00062528418501 
0.00061331741205 0.00060162959796 0.00059016597887 0.00057885918618 0.00056762993622 0.00055640023301 0.00054511197398 0.00053369714846 0.00052221353463 
0.00051061783106 0.00049890997159 0.00048710495105 0.00047524583556 0.00046340666887 0.00045168087171 0.00078347857867 0.00076830648668 0.0007533222851 
0.00073858396701 0.00072415135159 0.00071010594448 0.00069653447867 0.00068348474347 0.00067095759517 0.00065889703078 0.00064723173756 0.0006359031417 
0.00062487410874 0.00061408923285 0.00060345947954 0.00059285777396 0.00058215525936 0.00057126792906 0.00056016670173 0.00054881412663 0.00053727869991 
0.00052550421353 0.00051348848755 0.00050128261029 0.00048899994332 0.00047678922567 0.00077107503618 0.00075621107971 0.00074158415733 0.00072719386843 
0.00071307682718 0.00069938215891 0.00068628548562 0.00067389177383 0.0006621909413 0.00065105205342 0.0006403186507 0.00062991500825 0.00061984726909 
0.00061009501641 0.00060054709745 0.00059097708704 0.0005811269823 0.00057086464281 0.00056021120523 0.00054918853688 0.00053787488391 0.00052615636074 
0.0005139548112 0.0005013184669 0.00048845195031 0.00047561203871 0.00011921876287 0.00010588040938 9.2485063012e-05 7.9024251938e-05 6.5556907648e-05 
5.2158295846e-05 3.8881625873e-05 2.5817264257e-05 1.3164606219e-05 1.2403498746e-06 -9.7330662428e-06 -1.9831554847e-05 -2.9367552449e-05 -3.8674771448e-05 
-4.8013381896e-05 -5.7452148058e-05 -6.7029443663e-05 -7.6684863651e-05 -8.6299719345e-05 -9.5684189132e-05 -0.0001045639036 -0.00011261951943 -0.00011965995527 
-0.00012582651474 -0.00013154059889 -0.00013723769117 -6.2542230401e-05 -7.6482977351e-05 -9.0321464623e-05 -0.00010407185362 -0.00011771026769 -0.00013119386612 
-0.00014447018642 -0.00015745443633 -0.00017003150955 -0.00018206605495 -0.0001934799095 -0.00020430445513 -0.0002146780214 -0.00022476919855 -0.00023474008601 
-0.00024462192909 -0.00025446063104 -0.00026422573207 -0.00027383976823 -0.00028318461998 -0.00029211310136 -0.00030048427794 -0.00030823632468 -0.0003154447426 
-0.000322299557 -0.00032901716914 -0.00021108735675 -0.00022534405791 -0.00023941443579 -0.00025331016817 -0.00026701882507 -0.00028051147943 -0.00029375007516 
-0.00030667326937 -0.00031921801322 -0.00033132160275 -0.00034295549864 -0.00035413692773 -0.00036493583883 -0.00037544107406 -0.00038573286688 -0.00039589029094 
-0.00040587967031 -0.00041571247481 -0.00042534440913 -0.00043470813471 -0.00044372656396 -0.00045233670657 -0.00046051693738 -0.00046830910802 -0.00047580745999 
-0.00048312327705 -0.00027269169196 -0.00028703091811 -0.00030114117984 -0.00031502584976 -0.00032867721596 -0.00034207376562 -0.00035519064192 -0.00036798675349 
-0.00038042777238 -0.00039248415453 -0.00040414616611 -0.00041542500877 -0.00042636159618 -0.00043700598753 -0.00044740813885 -0.0004576304014 -0.00046763349795 
-0.00047744023339 -0.00048702888149 -0.00049636193041 -0.00050540126741 -0.00051411751232 -0.00052250351332 -0.00053058206949 -0.0005384009397 -0.00054601846056 
-0.00024808114188 -0.00026228158696 -0.00027622853678 -0.00028992275019 -0.00030335369062 -0.00031650789885 -0.00032936754386 -0.00034190422062 -0.00035410137561 
-0.00036594412947 -0.00037743212174 -0.00038857390713 -0.0003993967746 -0.00040993458739 -0.00042021943532 -0.00043027707585 -0.00044015110569 -0.00044978591141 
-0.00045920131628 -0.0004683793875 -0.00047730219749 -0.00048595531341 -0.00049433583884 -0.00050245589192 -0.00051033747259 -0.00051800928148 -0.00013574799758 
-0.00014957843393 -0.00016314482666 -0.00017644231195 -0.00018946029079 -0.00020218672698 -0.00021460672953 -0.00022670863852 -0.0002384747919 -0.00024990281904 
-0.00026099719035 -0.00027176631856 -0.00028223131324 -0.00029241860144 -0.00030235361478 -0.00031205763762 -0.00032157596393 -0.00033085632916 -0.00033992739299 
-0.00034878396068 -0.00035741705877 -0.00036582003282 -0.00037399008842 -0.00038193104326 -0.00038965003263 -0.00039715735507 6.2445433391e-05 4.8942955547e-05 
3.5701510952e-05 2.2731699184e-05 1.0044841814e-05 -2.3454291511e-06 -1.4426783931e-05 -2.6192246778e-05 -3.76293194e-05 -4.8740425616e-05 -5.9533372017e-05 
-7.0017807611e-05 -8.0215419755e-05 -9.0148467626e-05 -9.9842033126e-05 -0.00010931656554 -0.00011862118524 -0.00012770490216 -0.00013660544341 -0.0001453234449 
-0.00015385562489 -0.00016219813961 -0.00017034729865 -0.00017829939606 -0.000186052178 -0.00019360177818 0.00027606827763 0.00026222815882 0.00024864100415 
0.00023532369229 0.00022229034473 0.00020955764021 0.0001971376829 0.00018503674024 0.00017326383812 0.00016181378806 0.00015067408098 0.00013983404874 
0.00012927029963 0.00011895833969 0.0001088740635 9.8989605515e-05 8.9285366587e-05 7.9713001313e-05 7.0325776496e-05 6.1085721511e-05 5.1992455018e-05 
4.3049945176e-05 3.4264833101e-05 2.5646221103e-05 1.7206547511e-05 8.9597011088e-06 0.00043956661271 0.00042536562602 0.00041141020156 0.00039772327157 
0.00038432631084 0.00037123885866 0.00035847637386 0.0003460455106 0.00033395394307 0.00032219220696 0.00031074557556 0.00029959862731 0.00028872426089 
0.00027809414375 0.00026767726655 0.00025744279606 0.00024736369826 0.00023738369622 0.000227554146 0.00021783269517 0.00020821566083 0.00019870802451 
0.00018931902205 0.0001800656337 0.00017096828088 0.00016205332474 0.00055711954983 0.00054275532914 0.00052862543229 0.00051476136302 0.00050119433588 
0.00048794982382 0.00047504819601 0.00046249828845 0.00045030676548 0.00043846094629 0.00042694342672 0.00041572683932 0.00040478455271 0.00039407861881 
0.00038357018954 0.00037321968207 0.00036299017649 0.00035285200521 0.00034274825667 0.0003327359985 0.00032277565343 0.00031287163364 0.00030303751042 
0.00029329682112 0.0002836828732 0.00027423597272 0.00063911581918 0.00062474888191 0.00061059956023 0.00059671521292 0.00058313577539 0.0005698980512 
0.00055703105494 0.00054454684955 0.00053245286737 0.00052073113506 0.00050935591639 0.00049829256539 0.00048750701035 0.00047695245026 0.00046657848138 
0.00045633108429 0.00044615850112 0.00043601893252 0.00042585060354 0.00041570763788 0.00040554923738 0.00039537799189 0.00038521085124 0.00037507968715 
0.00036503301365 0.00035513031711 0.00074505711134 0.00072965458803 0.0007144389562 0.00069946843579 0.00068479552458 0.00067047462286 0.00065655115257 
0.00064304809412 0.0006299722847 0.00061729624468 0.00060498206198 0.00059298578962 0.00058126731926 0.00056977208146 0.00055843404986 0.00054717652701 
0.00053592390296 0.0005246201535 0.00051319693993 0.00050171173086 0.00049012122502 0.00047842629283 0.00046664241929 0.00045481207053 0.00044300700418 
0.00043131749759 0.00076966331729 0.00075447944697 0.00073948243608 0.00072473260884 0.0007102902047 0.00069623269554 0.0006826414693 0.00066956058878 
0.00065699135446 0.00064488206608 0.0006331663689 0.00062178720882 0.0006107055607 0.00059986409325 0.00058917528365 0.00057851799921 0.00056777087811 
0.00055685333338 0.00054573441658 0.00053437371415 0.00052283920134 0.0005110779576 0.00049909150811 0.00048693056352 0.00047470292801 0.0004625500137 
0.00077183556149 0.00075694663974 0.00074228400498 0.00072786320423 0.00071372895775 0.00070001722673 0.00068688588841 0.00067442787859 0.00066263410846 
0.00065138857882 0.0006405541927 0.00063005827431 0.000619894912 0.00061003212358 0.00060035779896 0.00059066215749 0.00058071425559 0.00057039140299 
0.00055970147928 0.00054865229353 0.00053731940598 0.00052560117025 0.00051343762583 0.00050087883438 0.00048811055289 0.00047536954603 0.00022443674611 
0.00021066325789 0.00019692357134 0.00018320794929 0.00016955906412 0.00015603718322 0.00014269565345 0.00012961957179 0.00011695604254 0.00010491363302 
9.3633312494e-05 8.3071554378e-05 7.3020531679e-05 6.3237681867e-05 5.3513128809e-05 4.3792878825e-05 3.4033053995e-05 2.4279929981e-05 1.4632952532e-05 
5.247824736e-06 -3.6698447526e-06 -1.1905857825e-05 -1.9352770244e-05 -2.6116661286e-05 -3.2484325003e-05 -3.8768697372e-05 0.00011766786371 0.00010342854546 
8.9330986087e-05 7.5362860738e-05 6.1543967466e-05 4.7910762862e-05 3.45104358e-05 2.1416771849e-05 8.7206364635e-06 -3.477330615e-06 -1.5121738445e-05 
-2.6235140668e-05 -3.6922859904e-05 -4.7318250373e-05 -5.7558654145e-05 -6.7664635574e-05 -7.7681272313e-05 -8.7584552631e-05 -9.730953584e-05 -0.00010675889933 
-0.00011581662728 -0.00012437805583 -0.00013240312667 -0.00013995356275 -0.00014717644376 -0.00015424117402 3.2799468965e-05 1.8287397192e-05 3.9806482326e-06 
-1.0130606153e-05 -2.4035161054e-05 -3.7707424103e-05 -5.1113998768e-05 -6.4200781927e-05 -7.6915892961e-05 -8.9209147886e-05 -0.0001010592084 -0.00011248036379 
-0.00012353050263 -0.00013428418452 -0.00014481016353 -0.00015518046862 -0.00016536119254 -0.00017536620562 -0.00018515846648 -0.00019468161182 -0.00020387256056 
-0.00021268175455 -0.00022109402326 -0.00022914551596 -0.0002369139711 -0.0002444919559 -4.0087125859e-06 -1.8622172552e-05 -3.2996465501e-05 -4.7133752287e-05 
-6.1027236015e-05 -7.465723823e-05 -8.8001829881e-05 -0.00010102423248 -0.0001136955547 -0.00012599099027 -0.00013790372323 -0.00014944320005 -0.00016064590223 
-0.00017155548058 -0.00018221637251 -0.00019268736503 -0.00020292837295 -0.00021296374182 -0.00022277536444 -0.00023233144567 -0.00024160001184 -0.00025055727014 
-0.00025919810091 -0.00026754261304 -0.00027563192839 -0.00028351600166 1.6942759239e-05 2.3713917884e-06 -1.1940600802e-05 -2.5993802129e-05 -3.9777952316e-05 
-5.3281343073e-05 -6.6487383081e-05 -7.9370477594e-05 -9.1917019668e-05 -0.00010411380786 -0.00011596165692 -0.0001274685593 -0.00013865954597 -0.00014956556506 
-0.00016021578507 -0.0001706344409 -0.00018086420724 -0.00019085011065 -0.00020061410555 -0.00021014086432 -0.00021941525058 -0.00022842541712 -0.00023716916262 
-0.00024565742699 -0.00025390924805 -0.00026194980119 9.5025207653e-05 8.0585806551e-05 6.6413335334e-05 5.2512622777e-05 3.8893512628e-05 2.5567083077e-05 
1.2547113464e-05 -1.5637600306e-07 -1.2527174077e-05 -2.4563455408e-05 -3.6270724948e-05 -4.7656587113e-05 -5.8741190272e-05 -6.9549173279e-05 -8.0104648174e-05 
-9.0427714505e-05 -0.00010056298215 -0.00011045856206 -0.00012014399537 -0.00012961525493 -0.00013886473402 -0.00014788703215 -0.00015667956664 -0.00016524578655 
-0.00017359160528 -0.00018172577429 0.00021771258582 0.00020335678598 0.00018926710976 0.0001754534463 0.00016192685466 0.00014869974317 0.00013578369615 
0.00012318449201 0.00011091472419 9.8970653906e-05 8.7344506438e-05 7.6027624811e-05 6.4998658506e-05 5.4236549307e-05 4.3717361885e-05 3.342152319e-05 
2.3300554387e-05 1.3405609575e-05 3.6987701762e-06 -5.8211044396e-06 -1.5151286704e-05 -2.4288501332e-05 -3.3229237705e-05 -4.196991897e-05 -5.0507792243e-05 
-5.8838615434e-05 0.00035502981758 0.00034059796814 0.00032642646635 0.00031253118447 0.00029892529941 0.00028562433336 0.00027263969772 0.0002599767538 
0.00024764414093 0.00023563634456 0.00022394114614 0.00021254788889 0.00020143427854 0.00019057683559 0.0001799517529 0.00016953268805 0.00015930093896 
0.00014920809026 0.00013930772209 0.00012956184792 0.0001199697373 0.00011053483147 0.00010126360243 9.2164947623e-05 8.3250662466e-05 7.4534318665e-05 
0.00047811714839 0.00046355785505 0.00044925002573 0.00043521554373 0.00042147473818 0.00040804589132 0.00039494314268 0.00038217248157 0.00036974125338 
0.000357640307 0.00034585454383 0.00033436975579 0.00032315943042 0.00031219657145 0.00030145103554 0.0002908932828 0.00028049755911 0.0002702082026 
0.00026007711855 0.00025006219725 0.00024015973968 0.00023037416748 0.00022071472826 0.00021119725944 0.00020184152538 0.00019267250187 0.00057637093884 
0.00056175009412 0.00054736934286 0.00053325865721 0.00051944729776 0.00050595900729 0.00049281297092 0.00048001636604 0.00046757616175 0.00045547983267 
0.00044371078415 0.00043224249532 0.00042104953673 0.00041009524756 0.0003993425897 0.00038875345582 0.00037829317901 0.00036793337889 0.00035761795697 
0.00034740429749 0.00033725304706 0.00032716840875 0.00031716348324 0.00030726074892 0.00029749170357 0.00028789437568 0.00064938229795 0.00063479928613 
0.00062044034004 0.00060634981377 0.00059256575039 0.00057912193142 0.00056604482543 0.00055334541513 0.00054103045879 0.00052908323259 0.00051747968305 
0.00050618666069 0.00049517132106 0.00048438856123 0.00047379007532 0.00046332556372 0.00045294651029 0.00044261346843 0.00043226556252 0.00042195746373 
0.00041164849076 0.00040134158019 0.00039105352609 0.00038081450976 0.00037066987278 0.00036067520071 0.00075194066479 0.00073636659159 0.00072098442422 
0.00070584990902 0.00069101458475 0.00067652673756 0.00066242705214 0.00064873524961 0.00063545834123 0.00062257202894 0.00061004243179 0.00059782797171 
0.0005858891953 0.00057417256884 0.0005626158071 0.000551148511 0.00053970242732 0.00052822541611 0.00051664985452 0.00050503226675 0.00049333020356 
0.00048154571372 0.000469695431 0.00045782038232 0.00044598615483 0.00043427476167 0.00077991458337 0.00076455276708 0.00074937814418 0.00073445423386 
0.00071984116636 0.00070560709335 0.00069181996262 0.0006785154556 0.00066569576573 0.00065331945138 0.00064133125381 0.00062967812079 0.00061831759837 
0.00060718923102 0.00059621019402 0.00058527435304 0.000574277864 0.00056314856833 0.00055185225563 0.00054034204806 0.00052868567134 0.0005168368204 
0.00050480475053 0.00049263947027 0.00048043508109 0.00046831499121 0.0007894470355 0.0007743522349 0.00075946498992 0.00074482998365 0.00073050622339 
0.0007166006637 0.00070323332888 0.00069047233241 0.00067831182274 0.00066666798461 0.000655441827 0.00064456685782 0.00063401502102 0.00062373240596 
0.0006136099693 0.00060347645366 0.00059315582638 0.00058254518091 0.00057162819478 0.00056038403207 0.0005488845749 0.00053705278093 0.00052486427633 
0.00051237203653 0.00049972375093 0.0004871110629 0.00034095860579 0.00032661710567 0.00031240110549 0.00029830125023 0.00028434460994 0.00027057483487 
0.00025703818779 0.00024380710833 0.00023097824511 0.00021867091353 0.00020695987774 0.00019582196982 0.00018513451573 0.00017474306696 0.00016449508838 
0.00015435965058 0.00014429166537 0.00013432194989 0.00012452375476 0.00011500819784 0.00010590888412 9.7348535254e-05 8.9374096848e-05 8.1912577734e-05 
7.4790556394e-05 6.7809526179e-05 0.00027470579945 0.00026002281811 0.00024552762186 0.00023121111581 0.00021708809343 0.00020318730689 0.00018954684495 
0.00017622693136 0.00016329097883 0.00015080480179 0.00013880140037 0.00012726555294 0.00011612548385 0.00010528689996 9.4641066323e-05 8.4183080471e-05 
7.386953853e-05 6.3716620902e-05 5.3772799109e-05 4.410926839e-05 3.4806317509e-05 2.593108383e-05 1.7503736732e-05 9.4777558744e-06 1.7514444142e-06 
-5.7941262758e-06 0.00022493070849 0.00021002172034 0.00019534294161 0.00018088700173 0.00016666343456 0.00015269292162 0.00013900291841 0.00012563760262 
0.00011263540577 0.0001000320623 8.7840627951e-05 7.6050355243e-05 6.4616669208e-05 5.3483181925e-05 4.2595070297e-05 3.1889336684e-05 2.1401356165e-05 
1.1113354786e-05 1.0533465929e-06 -8.7369614289e-06 -1.8211267439e-05 -2.7335931859e-05 -3.6102660849e-05 -4.4540175759e-05 -5.2706879946e-05 -6.0672853479e-05 
0.00020535721215 0.00019033586443 0.00017556875722 0.00016105461384 0.00014679945738 0.00013281997907 0.00011913392896 0.00010577294237 9.2757891271e-05 
8.0108066298e-05 6.7827033388e-05 5.5906552446e-05 4.4316547849e-05 3.302144553e-05 2.1984398228e-05 1.1150824718e-05 5.6248160553e-07 -9.8073713164e-06 
-1.9945126088e-05 -2.9826916274e-05 -3.9428561451e-05 -4.8733327709e-05 -5.7738450763e-05 -6.6460585339e-05 -7.4932017215e-05 -8.3192581341e-05 0.00022295380274 
0.00020791114053 0.00019313770435 0.00017863370561 0.0001644075317 0.00015046993094 0.000136834364 0.00012352306412 0.00011054650832 9.7914210873e-05 
8.5624419251e-05 7.3669986465e-05 6.2028853437e-05 5.0674151764e-05 3.9580300631e-05 2.8725894858e-05 1.8069226232e-05 7.6642485737e-06 -2.5134289609e-06 
-1.2452670263e-05 -2.2141752629e-05 -3.1572082157e-05 -4.074268533e-05 -4.9662395169e-05 -5.8346792701e-05 -6.6815959911e-05 0.00027689454351 0.00026188258223 
0.00024714516048 0.00023268707055 0.00021851686861 0.00020464472058 0.00019108203188 0.00017783694651 0.00016492363939 0.00015234248044 0.00014008756123 
0.00012815195938 0.00011651660703 0.00010515949185 9.4059086271e-05 8.3196389064e-05 7.2527966933e-05 6.2105000498e-05 5.1897413569e-05 4.1906762692e-05 
3.2139237836e-05 2.2598469917e-05 1.3286527797e-05 4.20090516e-06 -4.6630205513e-06 -1.3311839706e-05 0.00035837581169 0.00034338898706 0.00032867633185 
0.00031424676375 0.00030010986439 0.00028627706731 0.00027275832936 0.00025955787719 0.00024668733944 0.00023414222001 0.00022191477076 0.00020999636778 
0.00019836740587 0.00018700795226 0.00017589626757 0.00016501334394 0.00015431207951 0.00014384374827 0.00013356994008 0.00012348891151 0.00011360247633 
0.00010391313325 9.4423824342e-05 8.5138333025e-05 7.6059473906e-05 6.7192266726e-05 0.00045208435976 0.00043708540691 0.00042235523873 0.00040790786056 
0.00039375644439 0.0003799135669 0.00036638986679 0.00035318937651 0.00034032021015 0.00032777626373 0.00031554563306 0.0003036182801 0.00029197312294 
0.00028058796498 0.00026944024679 0.00025850589359 0.0002477664539 0.00023717449252 0.00022678391767 0.00021655649406 0.00020649110451 0.00019659095903 
0.00018686165722 0.00017731165938 0.00016795220076 0.00015879604297 0.00054271700295 0.00052769457516 0.00051293227481 0.00049845024874 0.00048426647406 
0.00047039808732 0.00045685695377 0.00044364777838 0.00043077739587 0.00041823718749 0.0004060125108 0.00039408946618 0.00038244343494 0.0003710487423 
0.00035987717775 0.00034890128472 0.00033809620735 0.00032740833342 0.00031689003995 0.00030649961041 0.00029623312957 0.00028609472467 0.00027609295968 
0.00026624254994 0.00025656179805 0.00024707388476 0.00062087175227 0.00060586001983 0.00059109785184 0.00057661214271 0.00056242929038 0.00054857054917 
0.0005350527602 0.00052188199807 0.00050906441775 0.00049658808605 0.00048443746759 0.00047258750341 0.00046101445049 0.00044968362524 0.00043856056642 
0.00042761045541 0.00041680081179 0.00040610519566 0.00039546912478 0.00038495047055 0.0003745098851 0.00036415185043 0.00035388798541 0.00034373995009 
0.00033373553097 0.00032391025614 0.00068282141599 0.00066788361136 0.00065318003555 0.00063875062508 0.00062462998167 0.00061084781946 0.00059742715955 
0.00058437720011 0.0005717039457 0.00055939208997 0.00054741987366 0.00053575637298 0.00052437070814 0.00051322053667 0.00050226097496 0.00049144706133 
0.00048073437755 0.00047008708155 0.00045944600217 0.00044886618666 0.00043830770878 0.00042777375753 0.00041728031812 0.00040685526433 0.00039653965052 
0.00038638283083 0.00077997160618 0.00076408509482 0.00074839964028 0.00073296711613 0.00071783388194 0.00070304281982 0.00068862812145 0.00067460476686 
0.0006609802204 0.00064773387943 0.00063483663611 0.00062225021448 0.00060993722855 0.00059784646704 0.00058592111829 0.00057409949807 0.00056232254571 
0.00055054366782 0.00053869673316 0.00052683801278 0.00051492542692 0.00050296287392 0.00049096790959 0.00047897888474 0.0004670526422 0.00045526104937 
0.00080850606179 0.0007928233113 0.0007773326754 0.00076209753694 0.00074717457184 0.00073262138879 0.00071849066512 0.00070480893274 0.00069157961779 
0.0006787718081 0.00066634218863 0.00065424210326 0.00064242831756 0.00063083976925 0.00061940159533 0.00060802549721 0.00059662725044 0.00058514482556 
0.00057354234019 0.00056176788856 0.00054988934014 0.00053786675465 0.00052571629487 0.0005134854679 0.00050125275788 0.00048911993201 0.00082261115027 
0.00080716905021 0.00079192397791 0.00077693858799 0.00076227868788 0.00074802554168 0.00073426176971 0.00072103278421 0.00070833733314 0.00069612145348 
0.00068431740631 0.00067286582213 0.00066172320881 0.00065082279966 0.0006400656812 0.00062932114303 0.00061846187931 0.00060740450641 0.0005961163257 
0.00058455392769 0.0005727869799 0.00056076058601 0.00054847724381 0.00053599060006 0.00052341363954 0.00051089202382 0.00045687152119 0.00044191692981 
0.00042715743937 0.00041258702231 0.00039822200069 0.00038409229561 0.00037023364757 0.00035670143999 0.00034355518344 0.00033085989301 0.00031865031319 
0.00030691406257 0.00029557922131 0.00028455447815 0.00027373348485 0.00026310818428 0.00025263678626 0.00024233711531 0.00023225680428 0.00022246668162 
0.00021304538467 0.00020405706852 0.00019551753515 0.00018737824028 0.00017953759543 0.00017187740942 0.00041478366314 0.00039957215614 0.00038458987493 
0.00036983140015 0.00035530654843 0.0003410373918 0.00032705200508 0.00031339629737 0.00030011080264 0.00028723589699 0.00027478791863 0.00026275677328 
0.00025109585109 0.00023974239385 0.00022861374748 0.00021771896591 0.00020701802169 0.00019652012027 0.00018625753694 0.0001762767935 0.00016662821506 
0.0001573502754 0.00014845026311 0.00013989477686 0.00013161746498 0.00012354002988 0.00038529667005 0.00036989727604 0.00035475356037 0.00033986059521 
0.00032522557607 0.00031086542174 0.00029679958678 0.00028306307687 0.00026968187212 0.00025667896904 0.00024406071071 0.00023181875784 0.00021992123511 
0.00020832704448 0.00019699534709 0.00018587173894 0.00017499426088 0.00016433966444 0.00015392803738 0.00014378672619 0.00013394640475 0.00012442717776 
0.00011523184294 0.0001063390392 9.7706803491e-05 8.9286356529e-05 0.00037600869858 0.00036049542143 0.00034525354108 0.00033028227448 0.00031558730765 
0.00030118158611 0.00028707871702 0.00027330389688 0.00025987090144 0.00024679363212 0.00023407186855 0.00022169937824 0.00020965201099 0.00019790186531 
0.00018642027022 0.00017515665042 0.00016415457663 0.00015338536715 0.00014285723034 0.0001325864598 0.00012258935858 0.00011287620148 0.00010344743761 
9.4290246643e-05 8.5380308245e-05 7.6688653379e-05 0.00039100629066 0.00037544052244 0.00036015656259 0.000345154971 0.00033044271411 0.00031602864693 
0.00030192284985 0.00028814397432 0.00027469840418 0.00026159345271 0.00024882450644 0.00023638664531 0.00022426025262 0.0002124230418 0.00020085337105 
0.0001895329678 0.00017842052008 0.0001675696799 0.00015695306657 0.00014657778389 0.00013645162967 0.00012658016625 0.00011696328583 0.00010759368752 
9.8460074895e-05 8.9547368503e-05 0.00042963936111 0.00041406214402 0.00039877021358 0.00038376748762 0.00036906179324 0.00035466104276 0.00034057202394 
0.00032680887728 0.00031337478308 0.00030027123215 0.00028749212018 0.00027503127922 0.00026287113349 0.00025099239602 0.0002393757552 0.00022800456522 
0.00021683582392 0.00020592095725 0.00019522825918 0.000184757697 0.00017451282508 0.00016449634189 0.00015470955111 0.00014515029875 0.00013581584857 
0.00012670180918 0.00048656526242 0.00047099253296 0.0004557041965 0.00044070788502 0.00042601192693 0.0004116259898 0.00039755816274 0.00038381112736 
0.00037039457391 0.00035730372482 0.00034453096724 0.00033206755287 0.00031989595275 0.00030799748294 0.00029635253848 0.00028494366637 0.00027372483123 
0.00026274750166 0.00025197324735 0.00024139921432 0.00023102623701 0.00022085590408 0.00021089103586 0.00020113484507 0.00019159031338 0.00018226329402 
0.00055319187764 0.00053762747926 0.00052234255184 0.00050734902533 0.00049265836778 0.00047828123481 0.00046422653835 0.00045049676377 0.00043709923433 
0.00042402735189 0.00041126950554 0.00039881649256 0.00038664841815 0.00037474527943 0.00036308523883 0.00035164721881 0.00034041352651 0.00032933729484 
0.00031847384975 0.0003077839661 0.00029726608266 0.00028692305184 0.00027675987505 0.00026678418034 0.00025700614555 0.00024743786238 0.00062054250595 
0.00060499765135 0.00058972456084 0.00057474020741 0.00056006027378 0.00054569919423 0.00053166686011 0.00051796719859 0.0005046058077 0.00049157423017 
0.00047885786408 0.00046644471811 0.00045431147132 0.00044243457048 0.00043078791925 0.00041934604046 0.00040808694928 0.00039695815573 0.00038601281569 
0.00037520942733 0.00036454452899 0.00035402132218 0.00034364806909 0.00033343708395 0.00032340582569 0.00031357461475 0.00068182346411 0.00066632743046 
0.00065109331651 0.00063614401958 0.00062150239089 0.00060718675919 0.00059321107272 0.00057957984933 0.00056629838045 0.00055335583848 0.00054073723351 
0.00052841947898 0.00051638097904 0.00050458983163 0.00049301422021 0.00048162320334 0.00047038698373 0.00045928191841 0.00044825509471 0.00043736489306 
0.00042657291168 0.00041588217324 0.00040530375412 0.00039485756667 0.00038456774139 0.00037446602197 0.00073312824763 0.00071772725138 0.00070257370648 