# vtk DataFile Version 5.1
vtk output
ASCII
DATASET STRUCTURED_POINTS
DIMENSIONS 20 20 40
SPACING 0.05 0.05 0.05
ORIGIN 3.225 -0.475 0.525
POINT_DATA 16000
FIELD FieldData 1
potential 1 16000 double
0.00038815833351 0.00038631615174 0.00038451340827 0.00038274981131 0.00037792270063 0.00037611852451 0.00037433384088 0.00037256669423 0.0003708159392 
0.00036908084413 0.0003673609053 0.00036565558245 0.00036396478191 0.00036228872313 0.00036062619999 0.00035897729403 0.00035734117667 0.00035571812913 
0.00035410657516 0.00035250607915 0.00038660025487 0.00038475807137 0.00038295501052 0.00038119007168 0.00037651177652 0.00037471646257 0.00037294044437 
0.00037118181011 0.00036943928444 0.00036771198896 0.00036599944437 0.0003643012551 0.00036261743482 0.00036094676525 0.00035929036974 0.00035764687511 
0.00035601609079 0.00035439748834 0.00035279045656 0.00035119441 0.00038493584014 0.0003830940366 0.00038129012487 0.00037952346958 0.00037500031936 
0.00037321400893 0.00037144648222 0.00036969622631 0.00036796189762 0.00036624247794 0.00036453749624 0.00036284646517 0.0003611696019 0.00035950596444 
0.00035785564921 0.00035621880331 0.00035459360227 0.00035298018647 0.00035137853203 0.00034978818551 0.00038322512435 0.00038138377596 0.00037957781598 
0.00037780863186 0.00037344653216 0.00037166878028 0.0003699098046 0.00036816773943 0.00036644128673 0.0003647297634 0.00036303209042 0.00036134879221 
0.00035967871583 0.00035802203871 0.00035637873918 0.0003547478512 0.0003531288555 0.00035152141265 0.00034992576088 0.00034834145423 0.00038152533711 
0.00037968313937 0.00037787535604 0.00037610318851 0.00037190660284 0.00037013705198 0.00036838586332 0.00036665121685 0.0003649324516 0.00036322816085 
0.00036153813605 0.00035986173918 0.00035819904472 0.00035654924481 0.00035491227413 0.00035328817191 0.00035167535236 0.00035007442722 0.00034848517998 
0.00034690739957 0.00037988738568 0.00037804197798 0.00037623143161 0.00037445449429 0.00037042870246 0.00036866668352 0.00036692256784 0.00036519454375 
0.00036348279078 0.00036178550986 0.00036010230734 0.00035843300146 0.00035677674047 0.00035513350763 0.00035350314396 0.0003518855455 0.00035027928432 
0.00034868490158 0.00034710233253 0.00034553096998 0.00037834784926 0.00037649946276 0.00037468404154 0.00037290200472 0.00036905087379 0.00036729585784 
0.00036555774156 0.00036383645667 0.0003621307096 0.00036043951248 0.00035876314616 0.00035709973019 0.0003554497927 0.00035381266193 0.00035218848754 
0.00035057711692 0.00034897711165 0.0003473891217 0.00034581297485 0.00034424794766 0.00037693665261 0.0003750832372 0.00037326178062 0.00037147251638 
0.00036780034785 0.00036605132875 0.00036431960203 0.00036260386187 0.00036090354484 0.00035921845822 0.00035754703818 0.00035588931465 0.00035424509323 
0.00035261378217 0.0003509953169 0.00034938969239 0.00034779584537 0.00034621388133 0.00034464347051 0.00034308483748 0.0003756723199 0.00037381262566 
0.00037198334719 0.00037018542691 0.00036669744351 0.00036495322071 0.00036322620153 0.00036151572842 0.00035982023227 0.00035813940058 0.00035647284321 
0.00035482005356 0.00035318084108 0.00035155466273 0.00034994146851 0.00034834130713 0.00034675294977 0.00034517635867 0.00034361179568 0.00034205953907 
0.00037456654971 0.00037269849107 0.00037086021162 0.00036905283217 0.00036575143226 0.00036401161885 0.00036228906424 0.00036058205461 0.00035889054747 
0.00035721374429 0.00035555125896 0.000353902586 0.00035226768112 0.0003506461668 0.00034903758647 0.00034744207757 0.00034585866616 0.00034428704673 
0.00034272846613 0.00034118032988 0.00037362434999 0.00037174689378 0.00036989756535 0.00036807882055 0.00036496752544 0.00036323164525 0.00036151177287 
0.0003598080223 0.00035811943478 0.00035644580792 0.00035478654533 0.00035314168151 0.00035151016582 0.00034989244674 0.00034828781608 0.00034669627833 
0.00034511795897 0.00034355091403 0.00034199608532 0.00034045272636 0.00037284645508 0.00037095689957 0.00036909577863 0.0003672638772 0.00036434570893 
0.00036261187508 0.00036089442357 0.00035919284323 0.00035750677275 0.00035583559107 0.00035417895896 0.00035253640698 0.00035090782752 0.00034929313155 
0.00034769170112 0.00034610447446 0.00034452915495 0.0003429661658 0.00034141523325 0.00033987582773 0.00037222574442 0.00037032295426 0.00036844835936 
0.00036660034404 0.00036387935654 0.00036214709372 0.00036043138132 0.00035873124688 0.00035704663037 0.0003553771121 0.0003537221955 0.00035208143106 
0.00035045536237 0.00034884366783 0.00034724495892 0.00034565980849 0.00034408759473 0.00034252795533 0.00034098026653 0.00033944454282 0.00037395320297 
0.00037212304855 0.00037031161415 0.00036851897839 0.00036310955673 0.00036131573087 0.00035954303315 0.00035779150515 0.00035605991992 0.00035434764608 
0.00035265466963 0.00035098017718 0.00034932403891 0.00034768545226 0.00034606435889 0.00034446043245 0.00034287306075 0.00034130080151 0.00033974351999 
0.00033820088674 0.00037357796816 0.00037173697173 0.00036991491159 0.00036811125876 0.00036286936476 0.00036107566497 0.000359303861 0.00035755296418 
0.0003558222027 0.0003541108724 0.00035241870204 0.00035074549945 0.00034909082896 0.00034745385765 0.00034583486876 0.00034423333935 0.00034264845251 
0.00034107911882 0.00033952491089 0.00033798523017 0.00037330130453 0.00037144932949 0.00036961682593 0.00036780187966 0.00036272496386 0.00036093170219 
0.00035916020236 0.0003574097383 0.00035567950202 0.00035396867232 0.00035227697166 0.00035060445229 0.0003489507024 0.00034731510545 0.00034569770666 
0.00034409839665 0.00034251548017 0.0003409484887 0.00033939676887 0.00033785939006 0.00037308397119 0.00037122204444 0.00036937910391 0.00036755448383 
0.00036263900503 0.00036084607944 0.00035907509836 0.00035732503437 0.00035559507281 0.00035388479718 0.00035219348902 0.00035052152531 0.00034886866669 
0.0003472343322 0.00034561824429 0.00034402042949 0.00034243912738 0.00034087392644 0.0003393240611 0.00033778867342 0.00037287743379 0.0003710060655 
0.0003691530836 0.00036732024096 0.00036256406848 0.00036077177234 0.00035900146781 0.00035725239318 0.0003555232372 0.00035381376634 0.00035212306592 
0.00035045188097 0.00034879982943 0.0003471667587 0.00034555233319 0.00034395550673 0.00034237546183 0.00034081153681 0.0003392633153 0.00033772952328 
0.00037262490849 0.0003707448227 0.00036888471697 0.00036704424189 0.0003624449121 0.00036065429231 0.00035888593693 0.00035713832252 0.00035541082319 
0.00035370265426 0.00035201366515 0.00035034390267 0.00034869302156 0.00034706105614 0.0003454476964 0.00034385241646 0.00034227355673 0.00034071110806 
0.00033916417218 0.00033763182055 0.00037226850961 0.00037038218533 0.00036851588768 0.00036666966849 0.00036222530367 0.00036043743949 0.00035867180273 
0.00035692731021 0.00035520257425 0.00035349701955 0.00035181054492 0.00035014278589 0.00034849403674 0.00034686376582 0.00034525206965 0.00034365806184 
0.00034208077949 0.00034051966621 0.00033897420042 0.00033744325916 0.0004252422124 0.00042315683887 0.00042111047272 0.00041910272777 0.00041421869936 
0.00041218235842 0.00041016813655 0.00040817466841 0.00040620076185 0.00040424590871 0.00040230923769 0.00040038992306 0.00039848865323 0.00039660397732 
0.0003947357122 0.00039288358712 0.00039104687929 0.00038922576413 0.00038741872198 0.00038562563203 0.00042370842268 0.0004216228855 0.0004195758021 
0.00041756664621 0.00041282553294 0.00041079824742 0.00040879292658 0.00040680818529 0.00040484270776 0.0004028957695 0.00040096680126 0.00039905525287 
0.00039716034671 0.00039528243725 0.00039342125562 0.00039157497008 0.00038974461451 0.00038792879854 0.00038612733347 0.0003843394693 0.00042209379538 
0.00042000871928 0.00041796014815 0.00041594920097 0.00041135732354 0.00040933924573 0.00040734288336 0.00040536694003 0.00040340982736 0.00040147110188 
0.00039955007524 0.00039764610192 0.00039575884918 0.00039388808224 0.00039203316449 0.00039019423374 0.00038836996889 0.00038656016708 0.00038476480364 
0.00038298321203 0.00042044118389 0.00041835567757 0.00041630560548 0.00041429274127 0.00040985550665 0.00040784659968 0.00040585911926 0.00040389148701 
0.00040194301489 0.0004000124126 0.000398098982 0.00039620281347 0.00039432328365 0.00039245992753 0.00039061207477 0.00038877984308 0.00038696217386 
0.00038515912499 0.00038337026034 0.0003815954386 0.00041879320096 0.00041670667288 0.00041465453912 0.00041263856961 0.00040836164202 0.0004063615861 
0.00040438244262 0.00040242317656 0.00040048258 0.0003985599231 0.00039665446494 0.00039476586764 0.00039289390757 0.00039103765652 0.00038919701254 
0.00038737179851 0.00038556107885 0.00038376494418 0.00038198286705 0.0003802147666 0.00041718965931 0.00041509988116 0.00041304530263 0.0004110248346 
0.00040691277941 0.00040492122203 0.00040295006831 0.00040099839192 0.00039906548691 0.00039715042764 0.00039525254391 0.00039337156998 0.00039150629337 
0.00038965734267 0.00038782370882 0.00038600557229 0.00038420177502 0.00038241245893 0.00038063739005 0.00037887626818 0.00041565951974 0.00041356715074 
0.00041150811186 0.00040948295469 0.0004055402093 0.00040355604087 0.00040159262161 0.00039964840646 0.00039772256685 0.00039581444001 0.00039392402204 
0.00039204957277 0.00039019128706 0.00038834913789 0.0003865223299 0.00038471121552 0.00038291419276 0.00038113167666 0.00037936350832 0.00037760906682 
0.00041422944996 0.0004121324905 0.00041006820617 0.00040803659673 0.00040426752156 0.00040229100949 0.00040033432801 0.00039839665716 0.00039647744243 
0.00039457626693 0.0003926916918 0.00039082378539 0.00038897210861 0.00038713625725 0.0003853161312 0.0003835114729 0.00038172106613 0.0003799448978 
0.00037818338209 0.00037643562165 0.00041291615443 0.00041081369897 0.00040874237947 0.00040670347046 0.00040311251291 0.00040114227412 0.00039919171913 
0.00039726063764 0.00039534718157 0.00039345155643 0.00039157299868 0.00038971109994 0.00038786528697 0.00038603527818 0.00038422118925 0.00038242260575 
0.00038063843103 0.00037886862908 0.00037711322473 0.00037537269537 0.00041173084797 0.00040962117354 0.00040754213768 0.00040549473024 0.00040208523016 
0.00040012060005 0.00039817600014 0.00039624980914 0.00039434163946 0.00039245115711 0.00039057790042 0.00038872138699 0.0003868809852 0.00038505641382 
0.00038324794367 0.00038145490013 0.000379676374 0.00037791333821 0.00037616381303 0.00037442844443 0.00041067887212 0.00040856090689 0.00040647233791 
0.00040441497043 0.00040119021228 0.00039923091469 0.00039729073882 0.00039536910062 0.00039346569485 0.00039157985268 0.00038971122938 0.00038785930395 
0.00038602365192 0.00038420439032 0.00038240087796 0.00038061281566 0.00037884035409 0.00037708181525 0.00037533789756 0.00037360789734 0.00040976036093 
0.00040763222786 0.00040553303278 0.00040346467052 0.00040042789497 0.0003984723415 0.00039653614217 0.00039461847982 0.00039271920849 0.00039083734883 
0.00038897268142 0.00038712496184 0.00038529364464 0.00038347875727 0.00038167953082 0.00037989695012 0.00037812844694 0.00037637490483 0.00037463579316 
0.00037291074934 0.0004089694454 0.00040682965163 0.00040471921671 0.00040263624578 0.00039979158396 0.00039783972329 0.00039590687888 0.00039399272523 
0.00039209661416 0.00039021830421 0.0003883572044 0.00038651289174 0.00038468553872 0.00038287504433 0.0003810796715 0.00037930032371 0.00037753628249 
0.00037578723471 0.00037405258263 0.00037233211037 0.00041060264827 0.0004085517466 0.00040652247304 0.00040451367374 0.00039894606683 0.00039693418327 
0.00039494638963 0.00039298199065 0.00039104050192 0.00038912071169 0.00038722242541 0.00038534503219 0.00038348820489 0.00038165124666 0.00037983370302 
0.0003780355496 0.00037625602986 0.00037449424931 0.00037274945928 0.00037102173202 0.00040999170636 0.00040793296489 0.00040589513071 0.00040387767378 
0.00039847951075 0.00039647045317 0.00039448567455 0.00039252433135 0.00039058551666 0.0003886687821 0.00038677337956 0.00038489928582 0.00038304590723 
0.00038121233716 0.00037939845729 0.00037760442856 0.0003758288349 0.00037407095175 0.00037233056185 0.00037060708861 0.00040945574033 0.00040738886998 
0.00040534263886 0.00040331665819 0.00039808624117 0.00039608008779 0.00039409808635 0.00039213922157 0.00039020320094 0.00038828912964 0.00038639636834 
0.00038452518997 0.00038267479516 0.00038084434338 0.00037903397272 0.00037724360818 0.0003754713247 0.0003737172541 0.00037198087306 0.00037026105312 
0.00040896227458 0.0004068881227 0.00040483501722 0.00040280112472 0.00039773537335 0.00039573188432 0.00039375235095 0.0003917965417 0.000389863105 
0.00038795178012 0.0003860619376 0.0003841934085 0.00038234557568 0.0003805183888 0.00037871151016 0.00037692417282 0.00037515532944 0.00037340457679 
0.00037167139162 0.00036995493443 0.00040847461521 0.00040639377428 0.0004043331548 0.00040229389232 0.00039738973339 0.00039538912739 0.00039341306738 
0.00039146011855 0.00038952978429 0.00038762122218 0.00038573438732 0.00038386875767 0.00038202402155 0.00038019996142 0.00037839615289 0.00037661199523 
0.00037484603762 0.00037309843649 0.00037136846577 0.00036965531644 0.00040795041825 0.00040586343068 0.00040379783192 0.00040175321208 0.00039700867676 
0.00039501171876 0.00039303931846 0.00039109002961 0.00038916334306 0.0003872582425 0.00038537489341 0.00038351265205 0.00038167121651 0.0003798504443 
0.00037804982018 0.00037626860975 0.00037450575235 0.00037276127712 0.00037103447416 0.00036932444288 0.00040734747123 0.00040525645052 0.00040318693628 
0.00040113849298 0.00039655088595 0.00039455861522 0.0003925907349 0.00039064607831 0.0003887237686 0.00038682322293 0.00038494390956 0.00038308570885 
0.00038124809168 0.00037943093884 0.0003776335356 0.00037585586117 0.00037409650601 0.00037235533491 0.00037063168497 0.00036892489254 0.00046240890633 
0.0004600792146 0.00045778889371 0.0004555367845 0.00045060447174 0.00044833703398 0.00044609436692 0.00044387545549 0.00044167904063 0.00043950456807 
0.00043735096973 0.00043521812753 0.00043310563876 0.00043101256641 0.00042893849879 0.0004268830321 0.00042484603631 0.00042282641345 0.00042082366676 
0.0004188376777 0.00046086088582 0.00045853118986 0.00045624015184 0.00045398714896 0.00044919175892 0.00044693400699 0.00044470075711 0.00044249087919 
0.00044030335183 0.00043813733184 0.00043599217253 0.00043386764556 0.00043176218364 0.00042967644372 0.00042761000966 0.00042556178161 0.0004235312703 
0.00042151817286 0.00041952185321 0.00041754231671 0.00045925290533 0.00045692381127 0.00045463138783 0.00045237687931 0.00044772476192 0.00044547672197 
0.00044325308037 0.00044105237853 0.0004388736343 0.0004367164617 0.00043458015932 0.00043246299204 0.00043036598359 0.00042828808812 0.00042622933053 
0.00042418797507 0.00042216453392 0.00042015859273 0.00041816931753 0.00041619639572 0.00045761607813 0.00045528647716 0.0004529928419 0.00045073663271 
0.00044623336949 0.00044399501016 0.00044178058504 0.00043958906083 0.00043741948278 0.00043527113776 0.00043314244811 0.00043103413024 0.00042894509502 
0.00042687528549 0.00042482367583 0.00042279015884 0.00042077433802 0.00041877559692 0.00041679355766 0.00041482793795 0.00045598199368 0.00045365128789 
0.00045135604707 0.00044909696785 0.00044474814671 0.00044251934843 0.00044031402152 0.00043813156676 0.00043597041541 0.00043383015201 0.00043171031832 
0.0004296102114 0.0004275297557 0.00042546751269 0.00042342358556 0.00042139771542 0.00041938950057 0.0004173980976 0.00041542342695 0.00041346529902 
0.00045438151837 0.00045204805266 0.00044975032989 0.00044748756585 0.00044329768235 0.00044107810301 0.00043888165449 0.00043670762334 0.0004345549851 
0.00043242329215 0.00043031148543 0.00042821971102 0.00042614658634 0.00042409232163 0.00042205604576 0.00042003808522 0.00041803701881 0.00041605325417 
0.00041408599823 0.00041213537917 0.00045283733607 0.00045050164305 0.00044820008281 0.0004459327854 0.00044190693212 0.00043969559411 0.00043750790337 
0.00043534208766 0.00043319762511 0.00043107385443 0.00042897039752 0.00042688567884 0.00042482029774 0.00042277357528 0.00042074485004 0.00041873441462 
0.00041674113009 0.00041476456517 0.00041280475269 0.00041086155639 0.00045137175765 0.00044903184118 0.00044672618034 0.00044445358941 0.00044059540625 
0.00043839298288 0.00043621298799 0.00043405482249 0.00043191838308 0.00042980212415 0.00042770546615 0.00042562828908 0.00042357012899 0.00042153064124 
0.00041950948101 0.00041750621979 0.00041551992085 0.00041355061468 0.00041159818351 0.00040966209902 0.00044999959802 0.00044765497887 0.00044534328443 
0.00044306440999 0.00043937862519 0.00043718373428 0.0004350110635 0.00043286072808 0.00043073088387 0.00042862144482 0.00042653183912 0.00042446169782 
0.00042241034677 0.00042037764536 0.00041836331032 0.00041636701502 0.00041438770748 0.00041242548046 0.00041047997362 0.00040855182631 0.00044873024451 
0.00044638026139 0.0004440616137 0.00044177536477 0.00043826522357 0.00043607728437 0.00043391209683 0.00043176800185 0.00042964460462 0.00042754147766 
0.00042545859713 0.00042339488587 0.00042135003113 0.00041932372061 0.00041731595266 0.00041532616954 0.00041335351881 0.00041139884861 0.00040945994798 
0.00040753774093 0.00044756963951 0.00044521250387 0.0004428855229 0.00044059064569 0.00043726027722 0.00043507885879 0.00043291933915 0.00043078120104 
0.0004286639753 0.00042656702526 0.00042449010932 0.00042243230447 0.00042039350511 0.00041837348233 0.00041637160038 0.00041438798982 0.00041242233049 
0.00041047312553 0.00040854076742 0.00040662475369 0.00044651722258 0.0004441511773 0.00044181515742 0.00043951089117 0.00043636266688 0.00043418686718 
0.00043203301593 0.00042990060126 0.00042778897611 0.0004256975803 0.00042362599104 0.00042157383597 0.00041954084284 0.0004175262897 0.00041553096544 
0.00041355304768 0.00041159213226 0.00040964894548 0.00040772259443 0.00040581257591 0.00044556767471 0.00044319235536 0.00044084620596 0.00043852914867 
0.00043556770569 0.00043339724499 0.00043124870436 0.00042912124368 0.0004270148101 0.0004249285081 0.00042286185678 0.00042081493344 0.0004187869114 
0.00041677838054 0.00041478743133 0.00041281487163 0.00041085955842 0.00040892198501 0.00040700098695 0.0004050966154 0.00044713013098 0.00044485880108 
0.00044261154451 0.00044038689661 0.00043465848178 0.00043243022161 0.00043022836166 0.00042805266767 0.00042590187703 0.00042377561233 0.00042167325574 
0.00041959375269 0.00041753723782 0.00041550277991 0.00041348985315 0.00041149865566 0.00040952817404 0.00040757755512 0.0004056464551 0.00040373460515 
0.0004463083035 0.00044403157235 0.00044177784954 0.00043954633765 0.00043399019253 0.00043176701805 0.00042957030482 0.00042739917697 0.00042525324194 
0.00042313185913 0.0004210340359 0.00041895978499 0.00041690826948 0.00041487899485 0.00041287129144 0.00041088551388 0.00040892037856 0.00040697503039 
0.00040504950273 0.00040314304005 0.0004455448151 0.00044326275592 0.00044100288038 0.00043876517923 0.00043337920741 0.00043116087005 0.00042896888088 
0.00042680270378 0.00042466134647 0.00042254459167 0.0004204514191 0.00041838187218 0.00041633519743 0.00041431062638 0.00041230820944 0.00041032752741 
0.00040836707893 0.00040642696661 0.00040450654897 0.00040260522567 0.00044481438511 0.00044252703078 0.00044026179387 0.00043801926419 0.00043280071252 
0.00043058700539 0.00042839990625 0.00042623845809 0.00042410202397 0.00042198981735 0.00041990136869 0.00041783651755 0.00041579448771 0.00041377454821 
0.00041177708213 0.00040980115213 0.0004078457911 0.00040591037265 0.00040399479218 0.00040209835152 0.00044408809657 0.00044179632833 0.0004395266582 
0.00043727988294 0.00043222593097 0.00043001723921 0.00042783517795 0.00042567883862 0.00042354729373 0.0004214398245 0.00041935638399 0.00041729639391 
0.00041525877616 0.00041324411422 0.00041125142428 0.00040928021174 0.00040732933345 0.00040539875258 0.0004034879199 0.00040159594984 0.00044333441991 
0.00044103872677 0.0004387660579 0.00043651610556 0.00043162422511 0.00042942110928 0.00042724466212 0.00042509364052 0.0004229674869 0.00042086543006 
0.00041878712548 0.00041673206163 0.00041469979962 0.00041269016677 0.00041070239267 0.00040873566588 0.00040678964747 0.00040486376416 0.00040295758732 
0.00040107038071 0.00044252290463 0.00044022506919 0.00043795027534 0.00043569818074 0.00043096563958 0.00042876887248 0.00042659857663 0.00042445361011 
0.00042233337562 0.00042023739 0.00041816467987 0.00041611552398 0.00041408868566 0.00041208412608 0.00041010126733 0.0004081397972 0.00040619875581 
0.00040427785192 0.00040237650142 0.00040049407835 0.00049962541334 0.00049705079263 0.00049451637301 0.00049201987904 0.00048704560703 0.0004845481056 
0.00048207795986 0.00047963405014 0.00047721583213 0.00047482191153 0.00047245198488 0.00047010537763 0.00046778208222 0.00046547997822 0.00046320063999 
0.0004609420805 0.00045870445231 0.00045648667025 0.00045428846912 0.00045210949017 0.00049803638833 0.00049546203241 0.00049292705264 0.00049043049026 
0.00048558745553 0.0004831002469 0.00048064014375 0.00047820597886 0.00047579708221 0.00047341266927 0.00047105167875 0.00046871425605 0.00046639850493 
0.00046410528371 0.00046183386 0.00045958320991 0.00045735290231 0.00045514277917 0.00045295187773 0.00045078032664 0.00049640427763 0.00049383092166 
0.0004912948549 0.00048879721424 0.00048409162746 0.00048161478669 0.00047916483407 0.00047674049632 0.00047434127777 0.00047196604252 0.00046961470328 
0.00046728523233 0.00046497877843 0.0004626938706 0.00046043094432 0.00045818830883 0.00045596583582 0.00045376350125 0.00045158039218 0.00044941656789 
0.00049475164004 0.00049217813519 0.00048964125433 0.00048714241337 0.00048257964471 0.00048011333203 0.00047767320598 0.00047525898463 0.00047286916187 
0.00047050306061 0.00046816048744 0.00046584062491 0.00046354290766 0.00046126708602 0.00045901226721 0.00045677759962 0.00045456359335 0.0004523692034 
0.00045019419703 0.00044803817176 0.00049310296206 0.00049052809172 0.00048798993823 0.00048548907909 0.00048107447356 0.00047861817769 0.00047618814511 
0.00047378340051 0.00047140299016 0.00046904631731 0.00046671293463 0.00046440195552 0.00046211340964 0.00045984576311 0.00045759897552 0.00045537307833 
0.00045316724923 0.00045098114146 0.00044881425569 0.00044666628868 0.00049147924273 0.00048890311959 0.00048636315221 0.0004838587909 0.00047959771222 
0.00047715148145 0.00047473118745 0.00047233584573 0.00046996497109 0.00046761741319 0.00046529270149 0.00046299106703 0.00046071058143 0.00045845159655 
0.00045621330156 0.00045399592084 0.00045179839093 0.00044962028673 0.00044746137924 0.00044532154945 0.00048990184023 0.00048732346194 0.00048478022266 
0.00048227233508 0.00047816921017 0.00047573234446 0.00047332171599 0.00047093565512 0.00046857356416 0.00046623554395 0.000463919581 0.00046162562742 
0.00045935371703 0.00045710309646 0.0004548732922 0.00045266416216 0.0004504747734 0.00044830478291 0.00044615391393 0.00044402221897 0.00048838672152 
0.00048580499547 0.0004832584564 0.00048074562737 0.00047680469726 0.00047437766271 0.00047197592101 0.00046959851706 0.00046724556038 0.00046491546413 
0.00046260780594 0.00046032240483 0.00045805851649 0.00045581604922 0.00045359437154 0.00045139337055 0.00044921192496 0.00044705001327 0.00044490705976 
0.00044278333527 0.00048694658526 0.00048436099552 0.00048180955807 0.00047929165196 0.00047551710229 0.00047309864102 0.00047070536855 0.00046833705031 
0.000465991795 0.00046366966264 0.00046137008545 0.00045909270518 0.00045683675097 0.00045460196412 0.00045238834735 0.00045019495628 0.00044802125949 
0.00044586707286 0.0004437329273 0.00044161700267 0.00048558960047 0.00048299984606 0.00048044236434 0.0004779184929 0.00047431355244 0.0004719035274 
0.00046951881322 0.00046715790107 0.00046482058743 0.00046250609646 0.00046021432406 0.00045794442329 0.00045569599625 0.00045346899981 0.00045126252982 
0.00044907664147 0.00044691051242 0.00044476471309 0.00044263724301 0.00044052910004 0.00048432092306 0.00048172521174 0.00047916095705 0.00047662970771 
0.00047319874903 0.00047079653049 0.00046841903725 0.00046606560613 0.00046373573787 0.0004614286922 0.00045914407501 0.0004568815119 0.00045464034255 
0.00045242043381 0.00045022115403 0.0004480424798 0.00044588425292 0.00044374482273 0.00044162497844 0.00043952377179 0.00048314011336 0.00048053710227 
0.00047796506632 0.00047542596571 0.0004721714064 0.00046977650473 0.00046740620704 0.00046506007972 0.00046273702245 0.00046043705504 0.00045815929159 
0.00045590361187 0.00045366924355 0.00045145625578 0.00044926468092 0.00044709282224 0.00044494069829 0.000442808559 0.0004406953241 0.00043860104079 
0.00048204250786 0.00047943165174 0.00047685119516 0.0004743011396 0.00047122778874 0.00046883979699 0.00046647638036 0.00046413691365 0.00046182055516 
0.00045952717516 0.00045725608128 0.00045500674362 0.00045277903562 0.00045057321943 0.00044838734472 0.00044622214973 0.00044407675294 0.00044195099846 
0.0004398445285 0.00043775685954 0.00048355389435 0.00048106262883 0.00047859752874 0.0004761569785 0.00047026528932 0.00046782174349 0.00046540702108 
0.00046302076665 0.00046066198097 0.00045832996972 0.00045602419804 0.00045374374417 0.00045148838062 0.00044925723456 0.00044705006357 0.00044486657579 
0.00044270584164 0.00044056753711 0.0004384510191 0.00043635578669 0.00048254232051 0.00048004743171 0.00047757779367 0.00047513189419 0.00046941547633 
0.00046697884446 0.00046457120891 0.00046219151751 0.00045983930432 0.00045751381495 0.0004552143584 0.00045294065303 0.00045069183262 0.00044846734432 
0.00044626691367 0.00044409003013 0.00044193621124 0.00043980441744 0.00043769445841 0.00043560592512 0.00048157726777 0.00047907937116 0.00047660552806 
0.00047415588122 0.00046861185536 0.00046618197733 0.00046378098543 0.00046140788284 0.00045906214455 0.00045674293614 0.00045445005013 0.00045218255755 
0.00044994030774 0.00044772229047 0.00044552830432 0.00044335827871 0.00044121039283 0.00043908501689 0.00043698153538 0.00043489939088 0.00048063969611 
0.0004781383136 0.00047566111217 0.00047320839193 0.00046783475636 0.00046541159391 0.00046301717664 0.00046065064916 0.00045831142319 0.00045599860534 
0.00045371208345 0.00045145104793 0.00044921504735 0.00044700332304 0.00044481575157 0.00044265189511 0.00044051056195 0.00043839137881 0.00043629397044 
0.00043421805826 0.00047970633659 0.00047720273347 0.00047472297076 0.00047226759762 0.00046706183637 0.00046464544738 0.00046225780714 0.00045989811469 
0.00045756555137 0.00045525942485 0.00045297939408 0.00045072492073 0.00044849497659 0.00044628994956 0.00044410863893 0.00044195101458 0.00043981580256 
0.00043770276901 0.0004356115677 0.00043354169764 0.0004787542042 0.00047624856087 0.00047376778492 0.00047131134406 0.00046626991712 0.00046386090127 
0.00046148039844 0.00045912776362 0.00045680229616 0.00045450287183 0.00045222979687 0.00044998191588 0.00044775891517 0.00044556015383 0.00044338552637 
0.00044123389619 0.00043910494975 0.00043699823606 0.00043491307478 0.00043284915305 0.00047776047866 0.0004752547693 0.00047277358632 0.00047031647346 
0.00046543707837 0.00046303587466 0.00046066317388 0.00045831807572 0.00045599982156 0.00045370807228 0.00045144192478 0.00044920121063 0.00044698535411 
0.00044479336181 0.00044262507198 0.00044047998132 0.00043835752371 0.00043625712523 0.00043417833546 0.00043212052927 0.00053686627251 0.00053404626608 
0.00053126732561 0.00052852698564 0.00052351536381 0.00052078866492 0.000518091852 0.00051542390308 0.00051278401134 0.00051017143918 0.00050758537769 
0.00050502549908 0.00050249138158 0.00049998112946 0.0004974961822 0.00049503460271 0.00049259640751 0.0004901806696 0.00048778711647 0.00048541516927 
0.00053521726681 0.00053239887111 0.00052961919417 0.0005268794283 0.00052199341793 0.00051927771941 0.00051659152249 0.00051393410006 0.00051130456971 
0.00050870203388 0.00050612585465 0.00050357585214 0.00050105012686 0.00049854955853 0.00049607361363 0.00049362092505 0.00049119100876 0.00048878388454 
0.00048639858523 0.00048403510057 0.00053353865354 0.00053072103539 0.00052794160646 0.00052520139081 0.00052044692078 0.00051774243151 0.0005150670241 
0.00051242019666 0.00050980100667 0.00050720865857 0.00050464270695 0.00050210156377 0.00049958582741 0.00049709466147 0.00049462792896 0.00049218380117 
0.00048976288219 0.00048736435041 0.00048498770858 0.00048263271565 0.00053184682521 0.00052902971281 0.00052625004265 0.00052350918979 0.00051889167383 
0.00051619818469 0.00051353374539 0.0005108973779 0.00050828851406 0.00050570617213 0.00050314986416 0.0005006190105 0.00049811299208 0.00049563160683 
0.00049317349161 0.00049073853889 0.00048832666214 0.00048593691614 0.000483569092 0.00048122282908 0.000530160479 0.00052734246212 0.00052456221277 
0.00052181992948 0.00051734454695 0.00051466200415 0.00051200833249 0.00050938270396 0.00050678379757 0.00050421164061 0.00050166529821 0.00049914421977 
0.00049664822231 0.00049417554724 0.00049172687186 0.00048930116192 0.00048689834815 0.00048451748377 0.00048215856486 0.00047982102799 0.00052849504866 
0.00052567651173 0.00052289514339 0.0005201498177 0.00051582207055 0.0005131506019 0.0005105072377 0.00050789215871 0.0005053036733 0.00050274131096 
0.00050020532018 0.00049769376021 0.00049520655737 0.00049274355028 0.0004903041357 0.00048788758407 0.0004854937287 0.00048312185735 0.00048077177876 
0.00047844320226 0.00052686780675 0.00052404768024 0.00052126374757 0.00051851615595 0.00051434012042 0.00051167875917 0.00050904651087 0.0005064412964 
0.00050386290041 0.00050131074249 0.00049878375332 0.00049628152963 0.00049380381486 0.00049134997028 0.00048891954541 0.00048651239086 0.0004841274068 
0.00048176446136 0.00047942317914 0.00047710335916 0.00052529118191 0.00052246857482 0.00051968218625 0.00051693048211 0.00051291060019 0.00051026027559 