# vtk DataFile Version 5.1
vtk output
ASCII
DATASET STRUCTURED_POINTS
DIMENSIONS 20 20 40
SPACING 0.05 0.05 0.05
ORIGIN 3.225 -0.475 0.525
POINT_DATA 16000
FIELD FieldData 1
potential 1 16000 double
0.0006646175741 0.00065952286412 0.00065450738132 0.00064955898619 0.00064466707017 0.00063981881785 0.00063500413955 0.00063021707157 0.00062545284659 
0.00062071057755 0.00061599283838 0.00061130639972 0.00060665987049 0.00060206307304 0.00059752706385 0.00059306132583 0.00058867460062 0.00058437275387 
0.00058015949354 0.00057783649667 0.00066021932713 0.00065518270721 0.00065022013718 0.00064532059606 0.00064047214737 0.00063566377926 0.00063088607213 
0.00062613368993 0.00062140263299 0.00061669339116 0.00061200959659 0.00060735869254 0.00060274925813 0.00059819204725 0.00059369732732 0.00058927566118 
0.00058493537948 0.00058068128493 0.00057651762153 0.00057440528651 0.00065557363662 0.00065059695349 0.00064568970494 0.00064084086604 0.00063604069411 
0.00063127684483 0.00062654213314 0.00062183100405 0.00061714081682 0.00061247228656 0.00060782961893 0.00060322095578 0.00059865516344 0.00059414244475 
0.00058969451249 0.00058531930449 0.00058102622294 0.00057681955565 0.00057270246637 0.00057080110079 0.00065079996379 0.00064588267894 0.00064103171175 
0.00063623606491 0.00063148738957 0.00062677297941 0.00062208587408 0.00061742256409 0.00061277994518 0.00060815931821 0.00060356495887 0.00059900489692 
0.00059448864686 0.00059002519876 0.00058562700129 0.00058130009818 0.0005770533406 0.00057289139085 0.00056881932881 0.00056712808875 0.00064847367348 
0.00064357003027 0.00063872457055 0.00063392731139 0.0006291687603 0.00062444031486 0.00061973503652 0.00061504918653 0.00061038265235 0.00060573678677 
0.00060111744005 0.0005965317435 0.00059198988089 0.0005875021773 0.00058307981911 0.00057872996582 0.00057446222851 0.00057028247966 0.00056619636584 
0.00056262740998 0.00064397014654 0.00063911703792 0.00063432181577 0.00062957459106 0.00062486651624 0.00062018911357 0.00061553603159 0.00061090343079 
0.00060629165279 0.00060170272906 0.00059713983845 0.00059261042602 0.00058812428587 0.00058369070654 0.00057931913172 0.00057501833617 0.00057079561857 
0.00056665798293 0.00056261023402 0.0005590413042 0.00063967439774 0.00063486896183 0.00063012217777 0.00062542404325 0.00062076582369 0.00061613971566 
0.00061154019894 0.00060696331638 0.00060240786228 0.00059787605071 0.00059337066895 0.00058889928472 0.00058446856561 0.00058008856545 0.00057576710635 
0.00057151208908 0.0005673314802 0.00056323179874 0.00055921858293 0.00055564759968 0.00063566171396 0.00063090057738 0.00062619929636 0.00062154904819 
0.00061693984513 0.00061236480888 0.00060781897016 0.00060329698247 0.00059879839814 0.00059432360762 0.00058987567486 0.00058546086446 0.0005810846434 
0.00057675568917 0.00057248174879 0.00056826982974 0.00056412759092 0.00056006249774 0.00055607960347 0.00055250443279 0.00063198534407 0.0006272656444 
0.00062260746786 0.00061800150347 0.0006134400179 0.00060891539996 0.00060442179028 0.00059995433492 0.00059551137128 0.00059109299477 0.0005867014527 
0.00058234063703 0.00057801602488 0.00057373452287 0.00056950450241 0.00056533184263 0.00056122528088 0.00055719087396 0.00055323547889 0.00054965437856 
0.00062867767028 0.00062399565421 0.00061937791374 0.00061481541817 0.00061030015755 0.00060582364808 0.00060138132639 0.00059696725416 0.00059257836473 
0.00058821436021 0.00058387584819 0.00057956562442 0.0005752888418 0.00057105220815 0.0005668615865 0.0005627253582 0.00055864974388 0.00055464311448 
0.00055071200687 0.00054712340253 0.00062575495666 0.0006211074922 0.0006165270281 0.00061200561712 0.00060753489527 0.00060310695821 0.00059871407197 
0.00059435017956 0.00059001401249 0.00058570133177 0.00058141239541 0.00057714911683 0.00057291607404 0.00056871891113 0.00056456451318 0.00056046027675 
0.00055641290704 0.00055243158659 0.00054852206807 0.00054492452476 0.0006232160372 0.00061860066076 0.00061405653183 0.00060957411299 0.00060514626316 
0.00060076326674 0.00059641750207 0.00059210384294 0.00058781610217 0.00058355159502 0.00057930794563 0.00057508805583 0.00057089465362 0.00056673340649 
0.00056261169329 0.00055853585205 0.00055451387494 0.00055055483371 0.00054666549717 0.00054305644075 0.00062104641688 0.00061646042192 0.00061194911627 
0.00060750444061 0.00060311771534 0.00059877790884 0.00059447816383 0.00059021055423 0.00058596811078 0.00058174795664 0.00057754687662 0.0005733658309 
0.00056920809954 0.00056507965022 0.00056098626267 0.00055693559693 0.00055293666881 0.00054899733236 0.00054512573188 0.00054150430132 0.00061921494303 
0.00061465615986 0.00061017646525 0.0006057675774 0.00060141830568 0.00059712118479 0.00059286432431 0.00058863935342 0.00058443873263 0.00058025899232 
0.00057609571031 0.0005719496649 0.00056782440285 0.00056372417186 0.00055965671372 0.00055562874918 0.0005516505659 0.0005477287117 0.00054387263489 
0.00054023757862 0.00061767496711 0.00061314211547 0.00060869234882 0.0006043157821 0.0006000042016 0.00059574520924 0.00059152750824 0.00058734147658 
0.00058317871965 0.00057903490622 0.00057490481249 0.00057078996901 0.00056669214657 0.00056261773056 0.00055857279155 0.00055456600862 0.00055060619309 
0.00054670135066 0.00054285992074 0.00053920973164 0.0006163624984 0.00061185414573 0.00060743309633 0.00060308821932 0.00059880976942 0.00059458520096 
0.00059040237548 0.0005862502987 0.00058212031311 0.00057800683622 0.00057390692162 0.00056981818074 0.00056574442217 0.0005616922668 0.00055766806581 
0.00055368052589 0.00054973787818 0.00054584920576 0.0005420218526 0.00053835774481 0.0006151944979 0.00061071183922 0.00060631735576 0.00060200183716 
0.0005977531288 0.00059355878553 0.00058940550142 0.00058528236765 0.00058117948813 0.00057709184181 0.00057301494784 0.00056894835074 0.00056489555069 
0.00056086309387 0.00055685743856 0.00055288765163 0.00054896207587 0.00054509019741 0.00054127824989 0.00053760152172 0.00061407274575 0.00060961568923 
0.00060524792516 0.00060095881263 0.00059673618731 0.00059256671171 0.00058843758007 0.00058433784283 0.00058025640508 0.00057618792615 0.00057212992695 
0.00056808103541 0.00056404568134 0.00056002984537 0.0005560416422 0.00055208956167 0.0005481818293 0.0005443281512 0.00054053452059 0.00053684813972 
0.00061288529906 0.00060845592685 0.00060411400435 0.00059984913382 0.00059564892419 0.00059150016087 0.00058738976346 0.00058330721537 0.00057924123745 
0.00057518744365 0.00057114262692 0.00056710805319 0.00056308716954 0.00055908619925 0.00055511455935 0.00055118070133 0.00054729326392 0.00054346004455 
0.00053968810829 0.00053599683256 0.00061151792104 0.00060711775101 0.00060280175579 0.00059855987494 0.00059437953523 0.00059024774565 0.00058615278145 
0.00058208110417 0.00057802624977 0.00057398219076 0.00056994738386 0.00056592374748 0.00056191514475 0.00055792884688 0.00055397409247 0.00055005969731 
0.00054619386401 0.00054238468963 0.00053863969643 0.00053494871884 0.00072268182979 0.00071706731837 0.0007115397866 0.00070609052501 0.00070070859002 
0.00069538473823 0.0006901106182 0.00068488158214 0.00067969343471 0.00067454492838 0.00066943713066 0.00066437435828 0.00065936215978 0.00065440699197 
0.00064951603088 0.00064469761057 0.00063995663714 0.00063529757735 0.00063072361127 0.00062809597207 0.00071829237226 0.00071273662957 0.00070726412239 
0.00070186572017 0.00069653153408 0.00069125231953 0.00068602051033 0.00068083155459 0.00067568251516 0.0006705724056 0.00066550329706 0.00066048000506 
0.00065550773917 0.00065059422305 0.0006457459449 0.00064097080817 0.00063627492779 0.00063166209392 0.00062713420331 0.00062471914749 0.00071372282407 
0.00070822708901 0.00070281107438 0.00069746585299 0.00069218213033 0.00068695065037 0.0006817651472 0.00067662136136 0.00067151626677 0.00066644978895 
0.00066142413544 0.00065644469757 0.00065151717515 0.00064664813444 0.00064184618551 0.00063711657023 0.00063246654806 0.00062789921102 0.00062341677522 
0.00062121516289 0.00070905903685 0.00070362308888 0.00069826426605 0.00069297431999 0.00068774305188 0.00068256288073 0.0006774269339 0.00067233241592 
0.00066727600668 0.00066225807666 0.00065728107304 0.00065234957613 0.00064746995228 0.0006426495098 0.00063789588837 0.00063321305435 0.00062860833915 
0.00062408471129 0.00061964692834 0.00061766027459 0.00070686744656 0.0007014503123 0.00069610224836 0.00069081496213 0.00068558063985 0.00068039201429 
0.00067524271299 0.00067013129954 0.00066505573675 0.00066001681513 0.00065501849361 0.00065006590748 0.00064516463544 0.00064032349652 0.00063555059653 
0.00063085087921 0.00062623185958 0.00062169840986 0.00061725538315 0.00061338178311 0.00070245094585 0.00069708560973 0.0006917890505 0.00068655293536 
0.00068136993022 0.00067623274405 0.00067113602033 0.00066607656235 0.00066105366863 0.00065606956656 0.00065112480467 0.00064622475428 0.00064137637383 
0.00063658616816 0.00063186275548 0.00062721089538 0.00062263678349 0.00061814617156 0.00061374385106 0.00060986940286 0.00069819713465 0.00069288145289 
0.00068763492053 0.00068244927592 0.00067731698909 0.00067223115077 0.00066718810683 0.00066218203364 0.00065721356867 0.00065228340596 0.00064739277642 
0.00064254676924 0.00063775108991 0.00063301246305 0.00062833681338 0.00062373044646 0.00061919947371 0.00061474881025 0.00061038328912 0.00060650698787 
0.00069416737257 0.00068889884878 0.00068370055882 0.00067856374748 0.00067348208641 0.00066844713501 0.00066345599846 0.00065850352577 0.0006535897478 
0.00064871295616 0.00064387711966 0.00063908492167 0.00063434073803 0.00062965114704 0.00062502215354 0.00062045877901 0.00061596782854 0.0006115541436 
0.00060722283969 0.00060334338759 0.00069040692391 0.00068518285902 0.00068003003025 0.00067494034199 0.00066990659408 0.00066492271654 0.00065998333082 
0.000655083523 0.00065022271536 0.0006454008396 0.00064061791127 0.00063587721562 0.0006311826581 0.00062653948746 0.00062195443598 0.00061743173637 
0.00061297866215 0.00060859879377 0.00060429894301 0.0006004148387 0.00068694423024 0.0006817618951 0.00067665278213 0.00067160825459 0.00066662225495 
0.00066168702144 0.00065679770057 0.00065194997448 0.00064714201641 0.00064237169873 0.00063763969741 0.00063294792693 0.00062830069957 0.00062370191943 
0.00061915727579 0.00061467292287 0.00061025366434 0.00060590543612 0.00060163409764 0.00059774410583 0.00068379483031 0.00067865154345 0.00067358298845 
0.00066858218432 0.00066364213889 0.00065875543507 0.00065391447472 0.00064911698417 0.00064435920756 0.00063963855628 0.00063495480259 0.00063030941455 
0.00062570548725 0.00062114757183 0.00061664149513 0.00061219145632 0.00060780376935 0.00060348479331 0.00059923977365 0.00059534260419 0.0006809576299 
0.00067585136492 0.00067082261982 0.00066586343512 0.00066096733586 0.0006561253166 0.00065133251506 0.0006465828223 0.00064187301116 0.00063719957171 
0.00063256036487 0.00062795864956 0.00062339545082 0.00061887531249 0.00061440401053 0.00060998612632 0.00060562784239 0.00060133563894 0.00059711535344 
0.00059320899608 0.00067842106206 0.00067334937055 0.00066835748562 0.00066343850813 0.00065858391743 0.00065378651947 0.0006490387412 0.00064433432542 
0.00063966952092 0.00063503958707 0.00063044325646 0.00062588144833 0.00062135572024 0.00061687098865 0.00061243101053 0.00060804225821 0.00060371151664 
0.00059944388917 0.00059524632376 0.00059132980203 0.00067615727118 0.0006711184576 0.00066616207255 0.0006612805517 0.00065646625182 0.00065171094518 
0.00064700599438 0.0006423438305 0.00063772027108 0.00063313148092 0.0006285742515 0.00062404870415 0.0006195578902 0.00061510479885 0.0006106946025 
0.00060633312267 0.00060202737659 0.00059778264926 0.00059360600258 0.00058967917189 0.00067412570617 0.00066911849785 0.00066419569625 0.0006593504977 
0.00065457452887 0.00064985821239 0.00064519275382 0.00064056993316 0.00063598485345 0.00063143293896 0.00062691101039 0.00062241910582 0.00061795935069 
0.00061353532664 0.00060915221916 0.00060481633862 0.00060053448916 0.00059631164022 0.00059215560373 0.00058821721027 0.00067227215348 0.0006672953237 
0.00066240557981 0.00065759506234 0.00065285442718 0.00064817429699 0.00064354482228 0.00063895758824 0.0006344072601 0.00062988769105 0.00062539857948 
0.00062093656044 0.00061650468195 0.00061210743567 0.00060774997139 0.00060343831306 0.00059917877678 0.00059497755503 0.00059084142924 0.00058689220191 
0.00067052878484 0.0006655832528 0.00066072536309 0.00065594718148 0.00065123944302 0.00064659208535 0.00064199489388 0.00063743963667 0.00063291956284 
0.00062843007513 0.0006239680036 0.00061953258908 0.00061512639334 0.00061075390145 0.00060642010082 0.00060213133551 0.00059789403217 0.00059371507759 
0.00058960001475 0.00058564129371 0.00066881827271 0.00066390375966 0.0006590773457 0.00065433028171 0.00064965294561 0.00064503491929 0.00064046639409 
0.00063593905943 0.00063144580881 0.00062698074942 0.00062254300728 0.00061813123869 0.00061374813007 0.00060939810037 0.00060508689798 0.00060082101395 
0.00059660671686 0.00059245061148 0.00058835805778 0.00058439191419 0.0006670555789 0.00066217376083 0.00065737836404 0.00065266090636 0.00064801175026 
0.00064342019285 0.00063887730575 0.00063437328706 0.00062990226344 0.00062545918555 0.00062104172582 0.00061665124645 0.00061228943671 0.00060796053126 
0.00060367157457 0.00059942866245 0.00059523869844 0.00059110727139 0.00058703993335 0.00058306988279 0.00066515666389 0.00066030870884 0.00065554450705 
0.00065085632345 0.000646233687 0.00064166630722 0.00063714617417 0.00063266245963 0.00062821051574 0.00062378608799 0.00061938713144 0.00061501535128 
0.00061067305989 0.00060636498334 0.00060209934904 0.00059788041545 0.00059371567087 0.00058961130259 0.00058557295103 0.00058160193136 0.0007809042742 
0.00077477808449 0.00076874715772 0.00076280327846 0.00075693746274 0.00075114195357 0.0007454110742 0.00073973927567 0.00073412390721 0.00072856274425 
0.00072305624074 0.00071760632054 0.00071221703299 0.00070689216979 0.00070163705446 0.00069645623406 0.00069135456467 0.0006863342155 0.0006813978317 
0.00067846157431 0.00077645539194 0.00077038911161 0.00076441508591 0.00075852505771 0.00075271058258 0.00074696437671 0.00074127951549 0.00073565299811 
0.00073008122551 0.00072456293045 0.00071909887115 0.00071369198391 0.00070834555846 0.00070306431848 0.00069785262156 0.00069271618566 0.00068765929677 
0.00068268456903 0.00067779315706 0.00067507191333 0.00077187833034 0.0007658729763 0.00075995679539 0.00075412275979 0.00074836113958 0.00074266577135 
0.00073703076933 0.00073145238316 0.00072592744965 0.00072045586525 0.00071503768115 0.000709676982 0.00070437637627 0.00069914023446 0.00069397550428 
0.00068888499732 0.00068387319388 0.00067894340818 0.00067409651453 0.00067159290881 0.0007672355577 0.00076129110915 0.00075543358951 0.00074965596252 
0.00074394940023 0.00073830735388 0.00073272406072 0.00072719693482 0.00072172261706 0.00071630062785 0.00071093191684 0.00070561946424 0.00070036713778 
0.00069518003151 0.00069006283216 0.00068501862277 0.00068005181662 0.00067516623958 0.00067036379095 0.00066807951807 0.00076509377291 0.00075917359583 
0.00075333282374 0.00074756437055 0.00074186055361 0.00073621572533 0.00073062495697 0.00072508662463 0.00071959860917 0.00071416092934 0.00070877596079 
0.00070344679862 0.00069817852887 0.00069297576923 0.00068784543045 0.0006827905313 0.00067781721845 0.0006729291723 0.00066813046785 0.00066394907866 
0.00076068908391 0.0007548227171 0.0007490351232 0.00074331843445 0.0007376674693 0.00073207533346 0.00072653724126 0.00072105154752 0.0007156163943 
0.00071023189874 0.00070489952024 0.00069962210841 0.00069440482354 0.00068925196212 0.00068417014908 0.00067916305156 0.00067423490825 0.00066939054194 
0.0006646340571 0.00066045123295 0.00075641598077 0.00075060130945 0.00074486537462 0.0007392009516 0.00073360220163 0.00072806303356 0.00072257826064 
0.00071714490707 0.00071176274626 0.00070643161723 0.00070115170725 0.00069592673384 0.00069076054995 0.00068565826604 0.00068062398461 0.00067566244122 
0.00067077844709 0.00066597561162 0.00066125787997 0.00065707288847 0.00075232306108 0.00074655817455 0.00074087286765 0.00073525913269 0.0007297119296 
0.00072422350965 0.0007187916557 0.00071341141048 0.00070808284372 0.00070280374272 0.0006975770533 0.00069240435655 0.00068728868744 0.00068223451123 
0.00067724669836 0.0006723288499 0.00066748659522 0.00066272298789 0.00065804230171 0.00065385469965 0.00074844803346 0.00074273064669 0.00073709334099 
0.0007315288208 0.00072603128749 0.00072059430249 0.0007152146304 0.00070988636466 0.0007046096271 0.00069938406528 0.00069420905429 0.00068908637814 
0.00068401966269 0.00067901196351 0.00067406882297 0.00066919289661 0.0006643905054 0.00065966380238 0.00065501742504 0.00065082560199 0.00074481452196 
0.00073914248642 0.00073355174972 0.00072803466545 0.00072258590499 0.00071719886111 0.00071186902771 0.00070659260875 0.00070136812654 0.00069619341895 
0.00069106820606 0.00068599464749 0.00068097449977 0.00067601151331 0.00067111044763 0.00066627460147 0.0006615082584 0.0006568162655 0.00065220238239 
0.00064800574363 0.00074143581563 0.00073580679372 0.00073026047091 0.00072478935848 0.00071938864484 0.00071405051548 0.00070876932322 0.0007035433847 
0.00069836821972 0.00069324253575 0.00068816543241 0.00068313783489 0.00067816194837 0.00067324154985 0.00066838007383 0.00066358125024 0.00065884990927 
0.00065419050552 0.00064960691208 0.00064540430633 0.0007383120942 0.00073272452903 0.00072722092909 0.00072179427268 0.00071643930286 0.00071114687693 
0.00070591426604 0.0007007357503 0.00069560901586 0.0006905303459 0.00068549830518 0.00068051483401 0.00067558114979 0.0006707006996 0.00066587603956 
0.00066111241889 0.00065641383187 0.00065178486315 0.00064723023228 0.00064302061658 0.00073543263356 0.00072988451113 0.00072442190388 0.00071903794418 
0.00071372554131 0.00070847969926 0.00070329295662 0.00069815992796 0.00069307828343 0.00068804352259 0.00068305531309 0.00067811334208 0.00067321900862 
0.00066837559727 0.0006635860198 0.00065885548843 0.00065418784023 0.00064958768945 0.00064506038626 0.00064084270819 0.00073277443316 0.00072726435273 
0.00072184105637 0.00071649750828 0.00071122787171 0.00070602501421 0.00070088190342 0.00069579211878 0.00069075279984 0.00068576027978 0.00068081245681 
0.00067590883663 0.00067105192756 0.00066624340031 0.0006614867896 0.00065678694145 0.00065214897438 0.00064757631572 0.00064307463521 0.00063884881322 
0.00073030338946 0.00072482992988 0.00071944453358 0.0007141402422 0.0007089113569 0.00070374934267 0.00069864721269 0.00069359816713 0.00068859876337 
0.00068364524958 0.00067873489675 0.00067386781564 0.00066904484656 0.00066426864004 0.00065954320961 0.00065487294303 0.00065026332332 0.00064571730831 
0.00064124110258 0.00063700637589 0.00072797447056 0.00072253671923 0.00071718846989 0.00071192256654 0.00070673176007 0.00070160845767 0.00069654477713 
0.00069153343599 0.00068657117749 0.00068165329893 0.00067677833877 0.00067194426877 0.00066715297602 0.00066240770994 0.0006577120532 0.00065307043794 
0.00064848774419 0.00064396802049 0.00063951664038 0.00063527405554 0.00072573317054 0.00072033175198 0.00071502016785 0.00070979057956 0.000704636616 
0.00069954895584 0.00069452057364 0.00068954515585 0.00068461631341 0.00067973172005 0.00067488830043 0.0006700851022 0.00066532375749 0.00066060785952 
0.00065594048618 0.00065132630992 0.00064677040567 0.00064227720741 0.00063785154448 0.00063360106954 0.00072351917837 0.00071815446678 0.00071287870017 
0.00070768459376 0.00070256536522 0.00069751130135 0.00069251607958 0.00068757233095 0.00068267577459 0.00067782048531 0.00067300641701 0.00066823190784 
0.00066349871171 0.00065881016653 0.000654170125 0.0006495834025 0.00064505442305 0.0006405888128 0.00063618936816 0.00063193302132 0.00072126903056 
0.00071594082294 0.00071070086176 0.00070554149227 0.00070045525838 0.00069543310571 0.00069046888457 0.00068555463859 0.00068068582774 0.00067585852006 
0.00067107121425 0.00066632346083 0.00066161721241 0.00065695502422 0.0006523420593 0.00064778274598 0.00064328197365 0.00063884435908 0.0006344735696 
0.0006302137246 0.00071891853348 0.00071362857181 0.000708424512 0.00070329927417 0.0006982451846 0.00069325463592 0.00068831833726 0.00068343122422 
0.00067858872093 0.00067378707199 0.00066902461002 0.00066430278829 0.00065962188639 0.0006549861631 0.00065040115877 0.00064586993925 0.0006413980161 
0.00063699045398 0.00063265034558 0.00062838898071 0.00083920536971 0.00083257443642 0.00082604651467 0.00081961453114 0.00081327066397 0.00080700789084 
0.00080082220321 0.00079470858916 0.00078866408668 0.00078268653183 0.0007767755615 0.00077093177519 0.00076515759502 0.0007594558859 0.00075382861168 
0.00074827986597 0.00074281240219 0.0007374277917 0.00073212825858 0.00072887774933 0.00083464810184 0.00082807907313 0.00082161045721 0.00081523557729 
0.00080894587514 0.00080273581849 0.00079660065245 0.00079053605945 0.00078453902725 0.00077860838011 0.0007727433662 0.00076694577315 0.00076121730328 
0.00075556074282 0.0007499790272 0.00074447588464 0.00073905396434 0.00073371492292 0.00072845959171 0.00072542809822 0.00083000333571 0.00082349650019 
0.00081708758877 0.00081077103591 0.0008045369573 0.00079838127604 0.00079229835921 0.00078628525527 0.00078033820513 0.00077445671392 0.00076864011787 
0.00076289081637 0.00075720988523 0.00075160031365 0.00074606586092 0.0007406093928 0.00073523316066 0.00072993882873 0.00072472845173 0.00072191890115 
0.00082531604096 0.00081887155247 0.0008125233053 0.00080626506564 0.00080008840949 0.00079398832264 0.00078795958847 0.00078199972299 0.00077610518568 
0.00077027490699 0.00076450932459 0.00075880947744 0.0007531777584 0.00074761736506 0.00074213146714 0.00073672151391 0.00073139069041 0.00072614211893 
0.00072097561089 0.00071839060525 0.00082315939613 0.00081674572421 0.00081041993634 0.00080417680441 0.000798009356 0.00079191267143 0.00078588269208 
0.0007799176671 0.00077401524655 0.00076817556812 0.000762399596 0.00075668805523 0.00075104610158 0.00074547623846 0.00073998283886 0.00073456935511 
0.00072923910919 0.0007239952887 0.00071884154149 0.00071434883254 0.0008187083988 0.00081235024906 0.0008060796416 0.00079989071754 0.00079377739081 
0.00078773473181 0.00078175840378 0.00077584678427 0.00076999786804 0.00076421123568 0.00075848687543 0.00075282804731 0.0007472363248 0.00074171684853 
0.0007362726894 0.00073090700839 0.00072562308619 0.00072042369168 0.00071531320659 0.00071081824486 0.00081436709828 0.00080806267518 0.00080184605697 
0.000795710941 0.00078965156364 0.00078366290478 0.00077774015384 0.00077188167335 0.00076608612582 0.00076035272976 0.0007546810652 0.0007490737506 
0.00074353360252 0.00073806375754 0.0007326675009 0.0007273482865 0.00072210913753 0.00071695322992 0.00071188357405 0.00070738591665 0.00081017328434 
0.00080392216197 0.00079775776474 0.00079167540364 0.00078566882336 0.00077973265279 0.00077386329219 0.00076805843703 0.00076231555622 0.00075663448457 
0.00075101560582 0.00074546025034 0.00073997041201 0.000734549673 0.00072919971199 0.00072392507233 0.00071872979202 0.00071361493075 0.0007085844273 
0.00070408433805 0.00080615785643 0.00079995663399 0.00079384351252 0.0007878121008 0.00078185731002 0.00077597350664 0.00077015696861 0.00076440465635 
0.00075871425987 0.00075308587161 0.00074751847877 0.00074201302192 0.00073657232707 0.00073119820346 0.00072589423153 0.00072066339141 0.00071550923184 
0.00071043377059 0.00070544071406 0.00070093688419 0.00080233994778 0.00079618747261 0.0007901237977 0.00078414142105 0.00077823796216 0.00077240554186 
0.00076664023914 0.00076093939656 0.00075530116114 0.00074972417807 0.00074420672243 0.00073875039695 0.00073335656029 0.00072802806283 0.00072276765276 
0.00071757840241 0.00071246315369 0.00070742538017 0.0007024677304 0.00069795993305 0.00079872991954 0.00079262496447 0.00078660862028 0.00078067558065 
0.00077482155794 0.00076903859876 0.00076332355175 0.00075767368965 0.00075208570204 0.00074655705996 0.00074108831401 0.00073567888887 0.00073033067822 
0.00072504579518 0.00071982721116 0.00071467742849 0.00070959988375 0.00070459769065 0.00069967410354 0.00069516133282 0.00079532974672 0.00078926949288 
0.00078329968703 0.00077741381647 0.00077160720839 0.00076587235205 0.00076020655607 0.0007546052367 0.0007490658184 0.00074358505055 0.0007381628612 
0.00073279821854 0.00072749350322 0.00072225078032 0.00071707150048 0.00071195962126 0.00070691813805 0.00070194979739 0.00069705884925 0.0006925404606 
0.00079212895843 0.00078611264975 0.00078018744595 0.00077434710803 0.00076858577907 0.00076289885141 0.00075728031755 0.00075172540258 0.00074623237504 
0.00074079727458 0.00073541940872 0.00073009825739 0.00072483543592 0.00071963183751 0.00071449018309 0.00070941453526 0.00070440734805 0.00069947184787 
0.00069461209738 0.00069008726559 0.0007891091898 0.00078313530297 0.00077725316121 0.00077145607145 0.0007657406029 0.00076009837466 0.00075452514445 
0.00074901530047 0.00074356652228 0.00073817480725 0.00073283898537 0.00072755926088 0.00072233533527 0.00071716975954 0.00071206447616 0.00070702301984 
0.00070204920305 0.0006971451536 0.0006923154216 0.00068778402895 0.00078624190016 0.00078030957316 0.00077446933817 0.00076871526519 0.00076304296338 
0.00075744414631 0.00075191407559 0.00074644700683 0.00074103981576 0.00073568955776 0.00073039451155 0.00072515291067 0.00071996635957 0.00071483658921 
0.00070976580111 0.00070475797876 0.00069981602627 0.00069494278129 0.00069014232522 0.00068560447456 0.00078349112295 0.00077759929271 0.00077180041838 
0.00076608863528 0.00076045734923 0.00075490015272 0.00074941116192 0.00074398457399 0.000738616961 0.00073330618848 0.00072804836518 0.00072284346644 
0.00071769245763 0.00071259721415 0.00070756005674 0.00070258442073 0.00069767382922 0.00069283116647 0.00068805972189 0.00068351563793 0.00078081334176 
0.00077496255858 0.00076920460573 0.00076353324688 0.00075794199738 0.00075242417821 0.00074697415003 0.00074158667623 0.00073625711954 0.000730981767 
0.00072576004933 0.00072059000739 0.00071547282932 0.00071041051624 0.00070540603816 0.00070046203679 0.00069558228925 0.00069076956403 0.00068602807196 
0.0006814778376 0.00077816202482 0.000772352275 0.00076663455268 0.00076100276754 0.00075545048179 0.00074997069096 0.00074455819638 0.00073920675973 
0.00073391251419 0.00072867171903 0.00072348358341 0.00071834675409 0.00071326223271 0.0007082319739 0.00070325900393 0.00069834622684 0.00069349705169 
0.00068871606405 0.00068400411105 0.00067944889242 0.00077548832783 0.0007697196402 0.00076404208219 0.00075844922922 0.00075293480836 0.00074749157355 
0.00074211532407 0.0007367976563 0.00073153693152 0.00072632916352 0.000721173276 0.00071606815679 0.00071101524398 0.00070601609115 0.00070107436721 
0.00069619321361 0.00069137544482 0.00068662547499 0.00068194526136 0.0006773869132 0.00077274450571 0.00076701813306 0.00076138073716 0.00075582668426 
0.00075034932865 0.00074494293138 0.0007395994459 0.00073431524712 0.00072908657272 0.00072391038512 0.00071878536133 0.00071371104473 0.00070868875476 
0.00070372064206 0.00069881089864 0.00069396136368 0.00068917606635 0.0006844588192 0.00067981159687 0.00067525126613 0.00089752320853 0.00089039379228 
0.00088337559434 0.00087646138726 0.0008696437537 0.00086291805257 0.00085628030353 0.00084972571181 0.00084325159251 0.00083685567258 0.00083053713275 
0.00082429532596 0.00081813137722 0.00081204744644 0.00080604349449 0.00080012266519 0.00079428649781 0.00078853552725 0.00078287131345 0.00077930099299 
0.00089282317588 0.00088575776157 0.00087880115899 0.00087194643146 0.00086518668745 0.00085851699686 0.00085193293667 0.0008454313236 0.00083900848114 
0.00083266267502 0.00082639342863 0.00082020065744 0.00081408515398 0.00080804825939 0.00080209191668 0.0007962181254 0.00079042861047 0.00078472392353 
0.00077910409464 0.00077575742797 0.00088806651866 0.00088106523616 0.00087417015736 0.00086737652262 0.00086067519314 0.00085406260766 0.00084753431121 
0.00084108687394 0.00083471680273 0.00082842266446 0.00082220449954 0.00081606206174 0.00080999566166 0.0008040080639 0.00079810055858 0.00079227436708 
0.0007865311062 0.00078087238792 0.00077529810296 0.00077217838796 0.0008832865493 0.00087634932276 0.00086951696007 0.00086278422643 0.00085614228216 
0.00084958776495 0.0008431161071 0.00083672410635 0.00083040870214 0.00082416795081 0.00081800214393 0.00081191129042 0.00080589625388 0.000799958537 
0.0007940998301 0.00078832104716 0.00078262452812 0.00077701243962 0.00077148329546 0.00076859256049 0.00088106551807 0.0008741658338 0.0008673622585 
0.00086065066415 0.00085402499246 0.00084748011188 0.00084101319003 0.00083462229412 0.00082830504972 0.0008220609316 0.00081589067123 0.00080979392507 
0.00080377415549 0.00079783365488 0.00079197373188 0.00078619851027 0.00078050965669 0.00077490934035 0.00076940043247 0.00076459243303 0.00087652333842 
0.00086968127786 0.00086293502362 0.00085627997023 0.00084971010987 0.00084322081986 0.00083680905818 0.00083047352781 0.00082421044459 0.00081802000153 
0.0008119023234 0.00080585849171 0.00079989018978 0.00079400035811 0.00078819064113 0.00078246404679 0.00077682249091 0.00077126822471 0.00076580381974 
0.00076099302185 0.00087207519512 0.00086528938509 0.00085859933842 0.00085199993826 0.00084548616389 0.00083905219183 0.00083269533257 0.00082641340278 
0.00082020489654 0.00081406794733 0.00080800351776 0.00080201230184 0.0007960957533 0.0007902563898 0.00078449536448 0.00077881617096 0.00077322076347 
0.00076771153411 0.00076229037081 0.00075747612241 0.00086775125908 0.00086102049903 0.00085438555807 0.0008478406944 0.00084138103837 0.00083500213343 