# vtk DataFile Version 5.1
vtk output
ASCII
DATASET STRUCTURED_POINTS
DIMENSIONS 26 14 26
SPACING 0.08 0.08 0.08
ORIGIN 2.7 -0.52 0
POINT_DATA 9464
FIELD FieldData 1
potential 1 9464 double
-0.00061481681045 -0.0006220498144 -0.00062888589264 -0.00063534084812 -0.00064142670687 -0.00064715676258 -0.00065254327463 -0.00065759626081 -0.00066232430989 
-0.00066673908505 -0.00067086154428 -0.00067468230858 -0.00067821862007 -0.00068148490906 -0.00068448370423 -0.00068726364629 -0.00068980308687 -0.00069213415299 
-0.00069423215426 -0.00069621085015 -0.00069805884177 -0.00069978438326 -0.00070142328794 -0.00070300370154 -0.000704549419 -0.00070608009598 -0.00097322179974 
-0.00098140192448 -0.00098915703808 -0.00099650238128 -0.0010034525071 -0.0010100208053 -0.0010162197143 -0.0010220619256 -0.0010275558232 -0.0010327145598 
-0.0010375484965 -0.0010420865596 -0.0010463099323 -0.0010502461302 -0.001053900221 -0.0010573194488 -0.0010604829457 -0.0010634229071 -0.0010661500082 
-0.0010686657594 -0.0010710685492 -0.00107332301 -0.0010754640463 -0.0010775120208 -0.0010794880691 -0.0010814087811 -0.0012028127746 -0.0012116752455 
-0.0012200899578 -0.0012280722738 -0.0012356369994 -0.0012427981753 -0.0012495687678 -0.0012559607188 -0.0012619876936 -0.0012676597121 -0.0012729890442 
-0.0012780065788 -0.0012826932488 -0.0012870777597 -0.0012911496834 -0.0012949919667 -0.0012985757274 -0.001301907265 -0.0013050107165 -0.0013078862649 
-0.0013106283092 -0.0013132021348 -0.0013156418021 -0.0013179582732 -0.0013201731466 -0.0013223004065 -0.0012673391962 -0.0012766233413 -0.0012854436843 
-0.0012938106804 -0.0013017393178 -0.0013092469599 -0.0013163446306 -0.0013230460594 -0.0013293657596 -0.0013353139665 -0.0013409037927 -0.0013461538477 
-0.0013510847091 -0.0013556865384 -0.0013599621977 -0.0013639960642 -0.0013677573048 -0.0013712527158 -0.0013745055303 -0.0013775151105 -0.0013803746292 
-0.0013830455613 -0.0013855637278 -0.0013879368699 -0.0013901825657 -0.0013923150933 -0.0012270262387 -0.0012364418157 -0.0012453638518 -0.0012538157634 
-0.0012618118965 -0.0012693701397 -0.0012765015975 -0.0012832205175 -0.0012895403514 -0.0012954759155 -0.001301037458 -0.0013062421654 -0.0013111187246 
-0.0013156501474 -0.0013198420608 -0.0013237616485 -0.0013274316706 -0.0013308037976 -0.0013339283466 -0.0013367771014 -0.0013394691425 -0.0013419557243 
-0.0013442713974 -0.0013464221695 -0.001348424743 -0.0013502936453 -0.0010747273516 -0.001083765078 -0.0010922890696 -0.0011003265762 -0.001107890848 
-0.0011149964977 -0.0011216579674 -0.0011278889194 -0.0011337031471 -0.0011391153923 -0.0011441363593 -0.001148784259 -0.0011530737779 -0.0011570287256 
-0.0011606400668 -0.0011639114302 -0.0011669439896 -0.0011696610171 -0.0011721135058 -0.0011743102415 -0.0011762492013 -0.0011780189585 -0.001179584213 
-0.0011809736742 -0.0011821884695 -0.0011832482215 -0.00067812850127 -0.00068316021135 -0.00068799633305 -0.00069259621934 -0.00069692729544 -0.00070097384333 
-0.0007047284872 -0.00070818692274 -0.0007113492174 -0.00071421927148 -0.00071679778075 -0.00071909664383 -0.00072112321716 -0.00072289629942 -0.00072440150621 
-0.0007256383623 -0.00072670532465 -0.00072752040704 -0.00072813212953 -0.00072854628916 -0.00072875813782 -0.00072885581378 -0.00072879549815 -0.00072860656932 
-0.00072829472205 -0.00072786953319 -0.00029878981315 -0.00030839788858 -0.00031748219044 -0.00032607617281 -0.00033419362038 -0.00034184834454 -0.00034905588777 
-0.00035583093452 -0.00036218679198 -0.00036813751767 -0.00037369725736 -0.000378880836 -0.00038370611877 -0.00038819660424 -0.00039234232467 -0.00039614840126 
-0.00039969714044 -0.00040297166399 -0.00040596136371 -0.00040869585121 -0.00041117315695 -0.00041348398591 -0.00041558681499 -0.0004175118745 -0.00041926759326 
-0.0004208650035 -0.00010701472954 -0.00011747012257 -0.00012740832464 -0.00013683125846 -0.00014576953604 -0.00015423054562 -0.00016222972306 -0.00016978422693 
-0.00017690638668 -0.00018361043234 -0.0001899109859 -0.00019582094705 -0.00020136063165 -0.00020653851479 -0.0002113876848 -0.00021587037932 -0.00022006969775 
-0.00022401296389 -0.00022764478585 -0.00023101076668 -0.00023410910516 -0.00023703125105 -0.00023973579406 -0.00024225244492 -0.00024459000545 -0.00024676434798 
1.0657237398e-05 -1.9107492299e-07 -1.0512519495e-05 -2.0313104205e-05 -2.9617937177e-05 -3.8437235431e-05 -4.678720407e-05 -5.4680683255e-05 -6.213212535e-05 
-6.9156443936e-05 -7.5767298548e-05 -8.1977457489e-05 -8.7807469338e-05 -9.3265374723e-05 -9.8385297281e-05 -0.00010312872466 -0.0001075799088 -0.00011174458008 
-0.00011563461148 -0.0001192378229 -0.00012258558102 -0.00012567688038 -0.0001286012835 -0.00013132082117 -0.00013386349221 -0.00013623635803 7.6572905192e-05 
6.5618372767e-05 5.5183401214e-05 4.5267135395e-05 3.5863354871e-05 2.6952266801e-05 1.8518121407e-05 1.0548343028e-05 3.0280021596e-06 -4.0549932659e-06 
-1.0714539982e-05 -1.6967686235e-05 -2.2827216556e-05 -2.8307770129e-05 -3.3425915477e-05 -3.8214087928e-05 -4.2634622865e-05 -4.6787291419e-05 -5.0659304869e-05 
-5.4237758459e-05 -5.7556264597e-05 -6.0614656694e-05 -6.3504037665e-05 -6.6186966185e-05 -6.8692535949e-05 -7.1026429373e-05 9.7188834416e-05 8.6335090335e-05 
7.6007625167e-05 6.6213196566e-05 5.6918202443e-05 4.812747454e-05 3.9822510795e-05 3.198832871e-05 2.4612899501e-05 1.7681536344e-05 1.1183969798e-05 
5.1021802995e-06 -5.767881112e-07 -5.8671097834e-06 -1.0785376845e-05 -1.5364833528e-05 -1.9567740107e-05 -2.3495329391e-05 -2.7136649279e-05 -3.0478538121e-05 
-3.3556869608e-05 -3.6373593268e-05 -3.9021372423e-05 -4.1464623938e-05 -4.3731664393e-05 -4.5830060242e-05 6.4810136148e-05 5.4262657783e-05 4.424495268e-05 
3.4762416982e-05 2.5783960492e-05 1.7315171029e-05 9.3379485866e-06 1.8384611081e-06 -5.1948410484e-06 -1.1773795336e-05 -1.7912290524e-05 -2.362222548e-05 
-2.892091894e-05 -3.3816709485e-05 -3.8332599739e-05 -4.2498673382e-05 -4.6278018165e-05 -4.9774218017e-05 -5.2952923801e-05 -5.5875957302e-05 -5.8507772467e-05 
-6.0877378551e-05 -6.3079372752e-05 -6.5082884986e-05 -6.691161944e-05 -6.8584896326e-05 -1.6030034884e-05 -2.606309279e-05 -3.5568793465e-05 -4.4535729536e-05 
-5.2984217842e-05 -6.0938647506e-05 -6.8385643128e-05 -7.5347780282e-05 -8.1835248556e-05 -8.7858793751e-05 -9.3430538208e-05 -9.8561915979e-05 -0.00010326965766 
-0.00010756278213 -0.00011145947815 -0.0001149799267 -0.00011813267638 -0.00012097559739 -0.00012349270945 -0.00012574865111 -0.00012770939026 -0.000129445708 
-0.00013094312325 -0.00013228568813 -0.00013346267716 -0.00013449466213 -0.00055678158706 -0.00056415382474 -0.00057112625582 -0.00057771476935 -0.00058393148174 
-0.00058978977915 -0.00059530201624 -0.00060047830787 -0.00060532734044 -0.000609860875 -0.00061409996407 -0.0006180353212 -0.00062168427434 -0.00062506133117 
-0.00062816908854 -0.0006310562398 -0.00063370115643 -0.00063613602695 -0.00063833608877 -0.0006404166392 -0.00064236139139 -0.00064418319841 -0.00064591606777 
-0.00064758792297 -0.00064922238194 -0.00065083902058 -0.00072267486887 -0.00073097667381 -0.00073885152211 -0.00074631470621 -0.00075338083129 -0.00076006334334 
-0.00076637473928 -0.00077232777091 -0.00077793088361 -0.0007831972901 -0.00078813741161 -0.0007927802282 -0.00079710697833 -0.00080114522052 -0.00080490005894 
-0.00080841876151 -0.00081168047134 -0.00081471737411 -0.00081754011335 -0.00082015013917 -0.00082264574698 -0.00082499145597 -0.00082722203314 -0.00082935771113 
-0.00083141952298 -0.00083342401165 -0.0008574977555 -0.00086647917234 -0.00087501146901 -0.000883110043 -0.00089078973524 -0.00089806462518 -0.00090494771902 
-0.00091145100034 -0.00091758817544 -0.00092336930544 -0.00092880670049 -0.00093393128369 -0.00093872402419 -0.00094321365251 -0.00094738976038 -0.00095133530309 
-0.00095502139732 -0.00095845432783 -0.00096165819962 -0.00096463314547 -0.00096747349711 -0.00097014445955 -0.00097268000674 -0.00097509101996 -0.00097739903532 
-0.00097961800929 -0.00090626360145 -0.00091568352056 -0.00092463877044 -0.00093313983492 -0.00094120173183 -0.00094884185314 -0.00095607125526 -0.00096290369983 
-0.00096935373207 -0.0009754316189 -0.00098115050225 -0.00098652901726 -0.00099158776535 -0.00099631692654 -0.0010007193741 -0.0010048794875 -0.0010087664289 
-0.0010123869796 -0.0010157643457 -0.0010188978508 -0.0010218806178 -0.0010246740689 -0.0010273139648 -0.0010298079988 -0.0010321737106 -0.0010344253621 
-0.00086872811762 -0.00087834448008 -0.00088746728317 -0.00089611997572 -0.00090431693666 -0.00091207608649 -0.00091940856502 -0.00092632865411 -0.00093284983986 
-0.00093898697112 -0.0009447503272 -0.00095015712325 -0.00095523606976 -0.00095997020138 -0.00096436515928 -0.00096848813436 -0.00097236188793 -0.00097593808599 
-0.00097926703024 -0.00098232048406 -0.00098521749788 -0.0009879092977 -0.00099043040069 -0.00099278679331 -0.00099499516177 -0.00099707003354 -0.00074223504381 
-0.00075175960893 -0.00076077450019 -0.00076930706606 -0.00077737065873 -0.00078497999469 -0.00079214961976 -0.00079889330347 -0.00080522494619 -0.00081115939804 
-0.00081670746951 -0.00082188747706 -0.00082671421181 -0.00083121158564 -0.00083537066138 -0.00083919516339 -0.00084278635363 -0.00084606759361 -0.00084908995774 
-0.00085186231183 -0.00085438271081 -0.00085673980638 -0.00085889838083 -0.00086088723173 -0.00086270759013 -0.00086437959762 -0.00052824507936 -0.00053769103724 
-0.00054662045944 -0.00055506163973 -0.00056302646762 -0.0005705303381 -0.00057758888599 -0.00058421553317 -0.00059042442665 -0.00059623092607 -0.00060164523819 
-0.00060668728186 -0.0006113712741 -0.00061572194414 -0.0006197300894 -0.00062339979443 -0.00062683356226 -0.00062995302359 -0.00063280994481 -0.00063541305622 
-0.00063776027251 -0.00063994216157 -0.00064191713572 -0.00064371662693 -0.00064534823513 -0.0006468233133 -0.00030316603643 -0.00031322789739 -0.0003227609548 
-0.00033179875541 -0.00034035517359 -0.00034844410863 -0.00035608119046 -0.00036328118689 -0.00037005748766 -0.00037642422898 -0.00038239563193 -0.00038798658964 
-0.0003932150316 -0.00039810451627 -0.00040264513097 -0.00040684203888 -0.00041077758486 -0.00041443492329 -0.00041780347337 -0.00042091286709 -0.00042376115229 
-0.00042643904906 -0.00042890505297 -0.00043118941314 -0.00043330058432 -0.00043524963423 -0.00013841823091 -0.00014906170378 -0.00015918648513 -0.00016879453868 
-0.00017791651158 -0.00018655983177 -0.00019473997166 -0.00020247412308 -0.00020977465 -0.00021665581308 -0.00022313226221 -0.00022921691925 -0.00023493011674 
-0.00024028034525 -0.00024530069711 -0.00024995341348 -0.00025432158129 -0.0002584325112 -0.00026223079446 -0.00026576200852 -0.00026902432421 -0.00027210916192 
-0.00027497508633 -0.00027765178443 -0.00028014804336 -0.00028247972791 -2.9840634816e-05 -4.0811378376e-05 -5.1254399625e-05 -6.1175747536e-05 -7.0600565834e-05 
-7.9539110128e-05 -8.8007621399e-05 -9.6018922836e-05 -0.00010358766036 -0.00011072861606 -0.00011745553076 -0.00012378119333 -0.00012972616645 -0.00013529850383 
-0.0001405323279 -0.0001453891247 -0.00014995312569 -0.0001542300407 -0.00015823171217 -0.00016194592528 -0.00016540400535 -0.00016860490445 -0.00017163814422 
-0.00017446572075 -0.00017711560541 -0.00017959484403 3.3094064967e-05 2.2039348775e-05 1.150481688e-05 1.4895678049e-06 -8.012665009e-06 -1.702172072e-05 
-2.5553393815e-05 -3.3620304462e-05 -4.1237421896e-05 -4.8416877974e-05 -5.5172602985e-05 -6.1521670762e-05 -6.7476888586e-05 -7.3052907671e-05 -7.8266301929e-05 
-8.3149498087e-05 -8.7664819057e-05 -9.1912001221e-05 -9.5878219343e-05 -9.9550522744e-05 -0.00010296246867 -0.00010611383266 -0.00010909566118 -0.00011187046407 
-0.00011446729612 -0.00011689181798 5.5321382539e-05 4.4374251508e-05 3.3953872002e-05 2.4066943838e-05 1.4679805626e-05 5.7972283279e-06 -2.5993497418e-06 
-1.0524968583e-05 -1.7991713091e-05 -2.5014320093e-05 -3.1603107684e-05 -3.7776134228e-05 -4.3546386563e-05 -4.8928060749e-05 -5.3937760995e-05 -5.8608726058e-05 
-6.2903203672e-05 -6.6922386605e-05 -7.0655276657e-05 -7.4088651995e-05 -7.7258311891e-05 -8.0166125866e-05 -8.2904677729e-05 -8.5438314403e-05 -8.7795298003e-05 
-8.9983164244e-05 3.8486677755e-05 2.7844339088e-05 1.7732080033e-05 8.1552207611e-06 -9.1741095069e-07 -9.4803088226e-06 -1.7551654227e-05 -2.5145358783e-05 
-3.227305022e-05 -3.8946638952e-05 -4.5180081201e-05 -5.0985338299e-05 -5.6379776636e-05 -6.1371775688e-05 -6.598435967e-05 -7.0247620567e-05 -7.4124637362e-05 
-7.7718951174e-05 -8.09961593e-05 -8.4018001128e-05 -8.6748834388e-05 -8.9217554693e-05 -9.1518645259e-05 -9.3621133755e-05 -9.55486478e-05 -9.7320465521e-05 
-9.4067746943e-06 -1.9542904789e-05 -2.915162976e-05 -3.8221648843e-05 -4.6773394073e-05 -5.4831367077e-05 -6.2382310558e-05 -6.9448914612e-05 -7.6041482672e-05 
-8.2170869644e-05 -8.7849302269e-05 -9.3088311584e-05 -9.7904711517e-05 -0.00010230759371 -0.0001063151991 -0.00010994774208 -0.0001132137748 -0.0001161711449 
-0.00011880380675 -0.00012117630274 -0.00012325447325 -0.00012510894135 -0.00012672506353 -0.00012818674184 -0.00012948314378 -0.00013063479356 -0.00044036090616 
-0.00044813302854 -0.0004554974222 -0.00046247019139 -0.00046906368344 -0.00047529152369 -0.00048116631707 -0.0004866984359 -0.00049189682755 -0.00049677351635 
-0.00050134980992 -0.00050561667247 -0.0005095916639 -0.00051328949954 -0.00051671295785 -0.00051991086832 -0.00052286169263 -0.00052559763414 -0.00052809385203 
-0.00053046542586 -0.0005326957249 -0.00053479709275 -0.00053680291436 -0.0005387404717 -0.00054063286743 -0.00054249943178 -0.00053271941683 -0.00054137264859 
-0.00054959340752 -0.00055739712354 -0.0005647985407 -0.00057181125805 -0.00057844793158 -0.00058472147908 -0.00059064051597 -0.00059621842082 -0.00060146578168 
-0.00060641172826 -0.00061103765127 -0.00061537122781 -0.00061941765978 -0.00062322424497 -0.00062677024553 -0.00063008771642 -0.00063318723272 -0.0006360700625 
-0.00063883422517 -0.00064144390807 -0.0006439334781 -0.00064632278849 -0.00064863257133 -0.0006508792261 -0.00060495245388 -0.00061427381041 -0.00062314206215 
-0.00063157270363 -0.00063958067173 -0.00064718015377 -0.00065438426724 -0.00066120511268 -0.00066765651149 -0.00067374864105 -0.00067949392423 -0.00068492338017 
-0.00069001807916 -0.00069480682129 -0.00069927925089 -0.00070351834348 -0.00070749520798 -0.00071121608148 -0.00071470497067 -0.00071796185816 -0.00072108087553 
-0.0007240269913 -0.00072683392579 -0.00072951232294 -0.00073208353375 -0.00073456142932 -0.00063026664096 -0.000640057765 -0.00064938142651 -0.00065824818813 
-0.00066667314834 -0.00067467377789 -0.00068226122321 -0.0006894493345 -0.00069625280066 -0.00070268181091 -0.00070874975296 -0.00071447527685 -0.00071987904831 
-0.00072495129636 -0.00072969492153 -0.00073419430316 -0.00073841858444 -0.00074237449716 -0.00074608516222 -0.00074954978427 -0.00075286133582 -0.00075598107924 
-0.00075894459471 -0.00076175943032 -0.00076444300849 -0.00076700953644 -0.00059848110449 -0.00060857486755 -0.0006181736169 -0.00062730087517 -0.00063597109665 
-0.00064420227329 -0.00065200562641 -0.00065939551597 -0.00066638550599 -0.00067299051753 -0.00067922089792 -0.00068509392187 -0.00069063834516 -0.00069583724406 
-0.00070069627596 -0.00070528262674 -0.00070961903526 -0.00071365712723 -0.00071743824639 -0.00072096072622 -0.00072431684372 -0.00072746659931 -0.00073044438398 
-0.00073325609281 -0.00073591833558 -0.00073844560895 -0.00051011294477 -0.00052037124855 -0.00053012020153 -0.00053938721926 -0.00054818572545 -0.00055653050824 
-0.00056443618074 -0.00057191658356 -0.00057898568353 -0.00058565839391 -0.00059194590288 -0.0005978655964 -0.00060343327641 -0.0006086725522 -0.00061357449137 
-0.00061814280844 -0.00062247872733 -0.00062650556855 -0.00063027433491 -0.0006337938098 -0.0006370619519 -0.0006401673108 -0.00064307457223 -0.00064581244376 
-0.0006483821065 -0.00065080366555 -0.00037856832333 -0.00038900994574 -0.00039893262903 -0.00040836467506 -0.00041731798634 -0.00042580797096 -0.00043385026989 
-0.00044145831591 -0.00044864626127 -0.0004554294664 -0.0004618181315 -0.00046783215341 -0.00047348572603 -0.00047880353619 -0.00048377633267 -0.00048840812267 
-0.00049280131675 -0.00049687745032 -0.00050068816715 -0.00050424206779 -0.00050753692727 -0.00051066316982 -0.00051357907771 -0.00051631595439 -0.00051888129794 
-0.00052128639194 -0.000236366742 -0.00024713539973 -0.00025737059679 -0.00026710585 -0.00027635515382 -0.00028513248742 -0.00029345356299 -0.00030133322199 
-0.00030878492915 -0.00031582288738 -0.00032246137821 -0.0003287153373 -0.00033460272825 -0.0003401471339 -0.0003453386549 -0.00035018243206 -0.00035476078029 
-0.00035905680983 -0.00036305988328 -0.00036679955847 -0.00037027380385 -0.00037357325071 -0.00037665632786 -0.00037955321415 -0.00038227231943 -0.00038482469656 
-0.00011500102517 -0.0001260937384 -0.00013666457746 -0.00014671560904 -0.00015627756599 -0.00016535797581 -0.00017397240137 -0.00018213811559 -0.0001898675673 
-0.00019717509081 -0.00020407540195 -0.00021058147174 -0.00021671366572 -0.00022248050439 -0.0002279150763 -0.0002329796177 -0.00023775716363 -0.00024227493467 
-0.00024647756783 -0.0002504104412 -0.00025407166618 -0.00025755256308 -0.00026081160978 -0.00026387841018 -0.00026676169526 -0.00026947729487 -2.6245193172e-05 
-3.7550755287e-05 -4.832629738e-05 -5.8577986104e-05 -6.8331066817e-05 -7.7595905448e-05 -8.6388845416e-05 -9.4721987643e-05 -0.00010261255144 -0.00011007292143 
-0.00011711774341 -0.00012375986326 -0.00013001988147 -0.0001359058869 -0.00014145199473 -0.00014661968278 -0.00015149311869 -0.00015607794846 -0.00016038592147 
-0.00016440471801 -0.00016816553904 -0.00017166720913 -0.00017499912725 -0.00017812318517 -0.00018106727086 -0.00018383838177 2.9066550453e-05 1.7724454741e-05 
6.9043570261e-06 -3.3947789092e-06 -1.3179353709e-05 -2.2469341039e-05 -3.1280665307e-05 -3.9626176078e-05 -4.7520656156e-05 -5.497665374e-05 -6.200809512e-05 
-6.8632127058e-05 -7.4861621092e-05 -8.0711261219e-05 -8.6197634582e-05 -9.1352940305e-05 -9.6140060639e-05 -0.00010065802867 -0.00010489410915 -0.00010883521489 
-0.00011251473955 -0.00011593228746 -0.00011917873846 -0.00012221645787 -0.00012507438495 -0.00012775811453 5.2589552178e-05 4.1369848693e-05 3.0678334325e-05 
2.0521541244e-05 1.0865636181e-05 1.7152137229e-06 -6.9484603639e-06 -1.5140592452e-05 -2.2873429147e-05 -3.0161851178e-05 -3.7016315958e-05 -4.3454992143e-05 
-4.9490953134e-05 -5.5138454468e-05 -6.0414131327e-05 -6.5351201645e-05 -6.9911871978e-05 -7.4197212871e-05 -7.8196087293e-05 -8.1895093465e-05 -8.5329809941e-05 
-8.8501869685e-05 -9.1503621703e-05 -9.4299206218e-05 -9.6916723261e-05 -9.9363614756e-05 4.6856826519e-05 3.5936307333e-05 2.5546873669e-05 1.5693627405e-05 
6.3451602392e-06 -2.4932561107e-06 -1.084003637e-05 -1.8709319954e-05 -2.6112957774e-05 -3.3063067478e-05 -3.9573795994e-05 -4.5657280237e-05 -5.1331017479e-05 
-5.6603498356e-05 -6.1497800403e-05 -6.6044029964e-05 -7.0205230222e-05 -7.4084806486e-05 -7.7648189829e-05 -8.0956869974e-05 -8.397491607e-05 -8.6730885155e-05 
-8.9318922014e-05 -9.1707749412e-05 -9.3920763913e-05 -9.5977110411e-05 1.6233972057e-05 5.7963152838e-06 -4.1135901451e-06 -1.3484737618e-05 -2.2337286709e-05 
-3.0697913163e-05 -3.8551798996e-05 -4.5922612988e-05 -5.2820966505e-05 -5.9258018315e-05 -6.5246283987e-05 -7.0797559902e-05 -7.592888372e-05 -8.064953826e-05 
-8.4977893418e-05 -8.8934236608e-05 -9.2527104078e-05 -9.5814250903e-05 -9.8779414175e-05 -0.0001014868305 -0.00010390194536 -0.0001060948998 -0.00010805055724 
-0.00010985236131 -0.00011148914224 -0.00011298125272 -0.00031050477051 -0.00031889236263 -0.00032686093544 -0.00033442684792 -0.00034160273379 -0.00034840252341 
-0.00035483914951 -0.00036092332827 -0.00036666436091 -0.00037207485733 -0.00037717574502 -0.00038195918372 -0.00038644265297 -0.00039064120838 -0.0003945578699 
-0.00039824163618 -0.00040167106613 -0.00040487834198 -0.00040783845825 -0.00041066611582 -0.0004133441213 -0.00041588401151 -0.00041831820417 -0.000420672991 
-0.00042297066859 -0.00042523014711 -0.00036441809 -0.00037361787624 -0.00038237690865 -0.00039071079943 -0.00039863447902 -0.0004061617579 -0.00041330551518 
-0.0004200789046 -0.00042649078556 -0.00043255477524 -0.00043828170304 -0.00044370091309 -0.00044879401608 -0.00045358885487 -0.00045809076403 -0.00046234711623 
-0.00046633718984 -0.00047009303799 -0.00047362482669 -0.00047693375084 -0.00048011730551 -0.00048313915189 -0.00048603302687 -0.0004888181889 -0.00049151489139 
-0.00049413928867 -0.00040328198332 -0.00041312524568 -0.00042250912336 -0.00043144924821 -0.00043996069366 -0.00044805780331 -0.0004557538577 -0.00046306112983 
-0.00046999361128 -0.00047656165203 -0.00048277784221 -0.00048867334121 -0.00049422936903 -0.0004994748238 -0.00050439942103 -0.00050908615542 -0.0005135061109 
-0.00051766548261 -0.00052158797192 -0.00052527345148 -0.00052881568261 -0.00053218195268 -0.00053539748631 -0.00053848064207 -0.00054144977474 -0.0005443186085 
-0.00041318856711 -0.00042352001645 -0.00043337917323 -0.00044277671493 -0.00045172785786 -0.00046025018784 -0.00046835498499 -0.00047605623114 -0.00048336874896 
-0.00049030285158 -0.00049687205199 -0.00050309509984 -0.0005089927538 -0.00051455531125 -0.0005197857056 -0.00052476830536 -0.0005294722128 -0.00053390407042 
-0.00053808685364 -0.00054201956875 -0.00054579494064 -0.00054937356934 -0.00055279194825 -0.00055605618254 -0.00055918390226 -0.00056218921712 -0.00038709345036 
-0.00039779442146 -0.00040799667833 -0.00041772302738 -0.00042699048459 -0.00043581468381 -0.00044420778063 -0.00045218424439 -0.00045975774854 -0.0004669433139 
-0.00047375138091 -0.0004801993037 -0.00048631589377 -0.00049208427814 -0.00049751012304 -0.00050266058895 -0.0005075583616 -0.00051215498554 -0.00051649167434 
-0.00052056659861 -0.00052447184061 -0.00052816720559 -0.00053168686715 -0.00053503655974 -0.00053823266121 -0.0005412898802 -0.00032609079322 -0.00033706079081 
-0.00034751833699 -0.00035749093738 -0.00036699207159 -0.00037603675204 -0.0003846395572 -0.00039281446771 -0.00040057554126 -0.00040793777697 -0.00041491243028 
-0.00042151694875 -0.00042778076241 -0.00043368673098 -0.00043926668806 -0.00044451072741 -0.00044951999779 -0.00045421774119 -0.00045865483301 -0.00046283989437 
-0.00046677077381 -0.00047053579207 -0.00047410237409 -0.00047749041836 -0.00048070967309 -0.00048377729021 -0.0002397784374 -0.00025098812959 -0.00026167525066 
-0.00027186819121 -0.00028157895048 -0.00029082303288 -0.00029961616433 -0.00030797187008 -0.00031590438518 -0.00032342914519 -0.00033055641338 -0.00033730612361 
-0.00034369250506 -0.00034974025408 -0.00035544009387 -0.00036079599608 -0.00036591028582 -0.00037070441501 -0.00037522989885 -0.00037949519767 -0.00038349792992 
-0.0003873283559 -0.00039094461583 -0.00039437787197 -0.00039763552332 -0.00040072880559 -0.00014482654766 -0.00015628732846 -0.00016721042595 -0.00017762948217 
-0.00018755860248 -0.00019701187584 -0.0002060051279 -0.0002145532993 -0.00022266995616 -0.00023036938903 -0.00023766595693 -0.00024457511134 -0.00025111344646 
-0.00025730596766 -0.00026314230854 -0.00026862755281 -0.00027384394597 -0.00027877450641 -0.00028340848536 -0.0002877753005 -0.00029187277004 -0.00029579136913 
-0.00029948939226 -0.00030299688716 -0.0003063221709 -0.00030947625197 -5.7966293398e-05 -6.9631541656e-05 -8.0770920371e-05 -9.13867702e-05 -0.00010150990933 
-0.00011114801361 -0.0001203167794 -0.0001290335976 -0.00013731104158 -0.0001451635519 -0.00015260593819 -0.00015965123808 -0.00016632002809 -0.00017262035287 
-0.00017858586008 -0.00018417839749 -0.00018948110214 -0.00019452079538 -0.00019924270633 -0.00020369135217 -0.00020786491458 -0.00021185454295 -0.000215618566 
-0.00021918644411 -0.00022256680825 -0.00022577542137 1.0473892153e-05 -1.3198994003e-06 -1.2580244084e-05 -2.331359149e-05 -3.3545255581e-05 -4.3285803015e-05 
-5.2551736335e-05 -6.1355322574e-05 -6.9713914968e-05 -7.7640035452e-05 -8.514844634e-05 -9.2252078718e-05 -9.89715872e-05 -0.00010531511113 -0.00011131674698 
-0.00011693795347 -0.0001222627889 -0.00012729679115 -0.00013205155483 -0.00013651458776 -0.00014071688728 -0.00014465707 -0.00014842433504 -0.00015198040378 
-0.00015535302675 -0.00015854911943 5.6339165476e-05 4.4552454247e-05 3.3289924725e-05 2.2551430378e-05 1.2329992083e-05 2.605424659e-06 -6.638352938e-06 
-1.5414532042e-05 -2.3737939016e-05 -3.1621342212e-05 -3.9078818978e-05 -4.6127626168e-05 -5.2780732038e-05 -5.905286601e-05 -6.4960629428e-05 -7.0536178532e-05 
-7.5742297854e-05 -8.0677874507e-05 -8.5329983244e-05 -8.9685314672e-05 -9.3776997659e-05 -9.7604360749e-05 -0.00010125801582 -0.00010470009569 -0.00010795935222 
-0.00011104127129 7.8969436146e-05 6.7317176581e-05 5.6195508748e-05 4.5610890913e-05 3.5529033085e-05 2.5954316737e-05 1.6867738653e-05 8.2545019748e-06 
1.0010525536e-07 -7.608549095e-06 -1.4882800049e-05 -2.1740981992e-05 -2.8196295359e-05 -3.4263078758e-05 -3.9958004755e-05 -4.5314244885e-05 -5.0293928446e-05 
-5.4997918636e-05 -5.9414847057e-05 -6.3531017628e-05 -6.7381651272e-05 -7.0968000241e-05 -7.4382036926e-05 -7.7587569551e-05 -8.0612435073e-05 -8.3463918008e-05 
7.9659890132e-05 6.8294903387e-05 5.7462933536e-05 4.7168738788e-05 3.7380523983e-05 2.8103266973e-05 1.9318127546e-05 1.1010640386e-05 3.1686148153e-06 
-4.2205194952e-06 -1.117077473e-05 -1.7694966729e-05 -2.3810638455e-05 -2.9526433933e-05 -3.486548956e-05 -3.9857908378e-05 -4.4466650832e-05 -4.8794879739e-05 
-5.2807739447e-05 -5.6566303134e-05 -6.0034167332e-05 -6.3239340407e-05 -6.6275421389e-05 -6.9110640363e-05 -7.1768013822e-05 -7.4266453666e-05 6.1142187667e-05 
5.022491636e-05 3.9836522735e-05 2.9987560573e-05 2.065737469e-05 1.181881773e-05 3.4862020987e-06 -4.3646158598e-06 -1.1744720546e-05 -1.8665714834e-05 
-2.51405312e-05 -3.1181341922e-05 -3.6805489764e-05 -4.202082868e-05 -4.6850912779e-05 -5.1311047775e-05 -5.5411361302e-05 -5.9209400533e-05 -6.2688498887e-05 
-6.591235589e-05 -6.8845748732e-05 -7.1558019869e-05 -7.4033223529e-05 -7.6354047037e-05 -7.8508745554e-05 -8.0517338828e-05 -0.00017993772362 -0.0001891018525 
-0.00019783400314 -0.00020615075817 -0.00021406502381 -0.00022159103313 -0.0002287420573 -0.00023552917689 -0.00024196207538 -0.0002480537563 -0.0002538255402 
-0.00025926996307 -0.00026440507239 -0.00026924557409 -0.00027379538467 -0.00027810343991 -0.00028214835115 -0.00028596221234 -0.0002895197417 -0.00029293509937 
-0.00029618991997 -0.00029929595674 -0.00030228315157 -0.0003051769775 -0.00030799870849 -0.00031076667005 -0.00021186929724 -0.0002217681839 -0.00023121621972 
-0.0002402292044 -0.00024882226366 -0.00025700943966 -0.00026480386081 -0.00027221894938 -0.0002792638459 -0.00028595244264 -0.00029229584964 -0.00029832365584 
-0.00030401772667 -0.00030940608619 -0.00031449420723 -0.00031932952398 -0.00032389130087 -0.00032821145141 -0.00033229988518 -0.00033615736046 -0.00033988081194 
-0.00034343318526 -0.00034684741911 -0.00035014201183 -0.00035333659501 -0.00035644697826 -0.000232372477 -0.00024287784789 -0.00025291576809 -0.0002625020245 
-0.0002716518451 -0.00028037975627 -0.00028869923085 -0.00029662274798 -0.00030416457688 -0.00031133500027 -0.00031814718723 -0.0003246322319 -0.00033077158507 
-0.0003365942533 -0.00034209002559 -0.00034734191146 -0.00035232091033 -0.00035703311506 -0.0003615019805 -0.00036572704139 -0.00036980162705 -0.00037369252617 
-0.00037742444412 -0.00038101524198 -0.00038448288102 -0.00038784087694 -0.00023392189638 -0.00024491213793 -0.00025542453755 -0.00026546885195 -0.00027506043947 
-0.00028421702396 -0.00029295004978 -0.00030127366 -0.00030920284219 -0.00031674806069 -0.00032392298226 -0.00033074647542 -0.00033723940922 -0.00034339215922 
-0.00034920768889 -0.00035477033857 -0.00036004914409 -0.00036505061826 -0.00036979753409 -0.00037428862794 -0.00037861629245 -0.00038274078393 -0.00038669820419 
-0.0003904943493 -0.0003941465864 -0.00039766888509 -0.00021256647551 -0.00022395309156 -0.00023483540811 -0.00024523635959 -0.00025517309009 -0.00026466135751 
-0.00027371346144 -0.00028234400807 -0.00029056680771 -0.00029839700499 -0.00030584515558 -0.00031292871011 -0.00031967654462 -0.00032607184562 -0.00033212028135 
-0.00033788896882 -0.00034340051436 -0.00034860640213 -0.0003535475029 -0.00035822192384 -0.00036272143567 -0.00036700563807 -0.00037110824023 -0.00037503493486 
-0.00037880185444 -0.00038242360555 -0.00016932103404 -0.00018101274325 -0.00019218698173 -0.0002028713735 -0.00021307952772 -0.00022282658612 -0.00023212724821 
-0.00024099562434 -0.00024944589224 -0.00025749316472 -0.00026514878547 -0.00027243028322 -0.00027936712809 -0.00028594223354 -0.00029218739946 -0.00029809268668 
-0.00030375914236 -0.00030910990484 -0.00031419567999 -0.00031902489926 -0.00032359519334 -0.00032799465511 -0.00033219049194 -0.00033620240808 -0.00034004003017 
-0.00034372042189 -0.00011012902006 -0.00012207299268 -0.0001334896093 -0.00014440721122 -0.00015483799308 -0.00016479759574 -0.00017430186568 -0.00018336445923 
-0.00019199972939 -0.00020022321937 -0.00020804528372 -0.00021548591204 -0.00022255938771 -0.00022929048202 -0.00023566972384 -0.00024170121135 -0.00024748710582 
-0.00025294875618 -0.00025813751347 -0.00026306165956 -0.0002677186129 -0.00027219842419 -0.00027645905426 -0.00028053324007 -0.00028442299351 -0.00028814475766 
-4.4404323491e-05 -5.6569026588e-05 -6.8188750541e-05 -7.9300832682e-05 -8.9918492064e-05 -0.00010005580397 -0.00010972879821 -0.00011895254675 -0.00012774075012 
-0.00013610781466 -0.00014406820145 -0.00015163741879 -0.00015883211933 -0.00016567731696 -0.0001721626498 -0.00017829312284 -0.00018415088671 -0.00018971883607 
-0.00019498607294 -0.00019998182759 -0.00020470371777 -0.00020924201062 -0.00021355482249 -0.00021767202606 -0.00022160176737 -0.00022535513589 1.8021009131e-05 