# vtk DataFile Version 5.1
vtk output
ASCII
DATASET STRUCTURED_POINTS
DIMENSIONS 20 20 20
SPACING 2e-05 2e-05 2e-05
ORIGIN 3.69981 -0.00019 0.99981
POINT_DATA 8000
FIELD FieldData 1
potential 1 8000 double
0.0065898780344 0.0065898304317 0.0065897828295 0.0065897352277 0.0065896876265 0.0065896400258 0.0065895924256 0.0065895448259 0.0065894972267 
0.006589449628 0.0065894020298 0.0065893544321 0.0065893068349 0.0065892592382 0.0065892116421 0.0065891640464 0.0065891164512 0.0065890688565 
0.0065890212624 0.0065889736687 0.006589846255 0.0065897986527 0.0065897510509 0.0065897034496 0.0065896558488 0.0065896082485 0.0065895606487 
0.0065895130495 0.0065894654507 0.0065894178524 0.0065893702546 0.0065893226574 0.0065892750606 0.0065892274644 0.0065891798686 0.0065891322734 
0.0065890846786 0.0065890370844 0.0065889894906 0.0065889418974 0.0065898144757 0.0065897668738 0.0065897192725 0.0065896716716 0.0065896240712 
0.0065895764714 0.006589528872 0.0065894812731 0.0065894336748 0.0065893860769 0.0065893384796 0.0065892908828 0.0065892432864 0.0065891956906 
0.0065891480953 0.0065891005004 0.0065890529061 0.0065890053123 0.006588957719 0.0065889101262 0.0065897826965 0.0065897350951 0.0065896874941 
0.0065896398937 0.0065895922937 0.0065895446943 0.0065894970954 0.0065894494969 0.006589401899 0.0065893543016 0.0065893067047 0.0065892591082 
0.0065892115123 0.0065891639169 0.006589116322 0.0065890687276 0.0065890211337 0.0065889735403 0.0065889259474 0.006588878355 0.0065897509174 
0.0065897033164 0.0065896557159 0.0065896081159 0.0065895605163 0.0065895129173 0.0065894653188 0.0065894177208 0.0065893701233 0.0065893225263 
0.0065892749298 0.0065892273338 0.0065891797383 0.0065891321433 0.0065890845489 0.0065890369549 0.0065889893614 0.0065889417684 0.006588894176 
0.006588846584 0.0065897191384 0.0065896715378 0.0065896239377 0.0065895763381 0.006589528739 0.0065894811405 0.0065894335424 0.0065893859448 
0.0065893383477 0.0065892907511 0.0065892431551 0.0065891955595 0.0065891479644 0.0065891003699 0.0065890527758 0.0065890051822 0.0065889575892 
0.0065889099967 0.0065888624046 0.0065888148131 0.0065896873595 0.0065896397594 0.0065895921597 0.0065895445605 0.0065894969618 0.0065894493637 
0.006589401766 0.0065893541689 0.0065893065722 0.0065892589761 0.0065892113804 0.0065891637853 0.0065891161906 0.0065890685965 0.0065890210029 
0.0065889734097 0.0065889258171 0.006588878225 0.0065888306334 0.0065887830422 0.0065896555807 0.006589607981 0.0065895603817 0.006589512783 
0.0065894651847 0.006589417587 0.0065893699898 0.006589322393 0.0065892747968 0.0065892272011 0.0065891796059 0.0065891320111 0.0065890844169 
0.0065890368232 0.00658898923 0.0065889416373 0.0065888940451 0.0065888464534 0.0065887988622 0.0065887512715 0.006589623802 0.0065895762027 
0.0065895286039 0.0065894810056 0.0065894334077 0.0065893858104 0.0065893382136 0.0065892906173 0.0065892430215 0.0065891954262 0.0065891478314 
0.0065891002371 0.0065890526433 0.00658900505 0.0065889574572 0.006588909865 0.0065888622732 0.0065888146819 0.0065887670911 0.0065887195009 
0.0065895920234 0.0065895444245 0.0065894968261 0.0065894492282 0.0065894016308 0.006589354034 0.0065893064376 0.0065892588417 0.0065892112463 
0.0065891636514 0.006589116057 0.0065890684632 0.0065890208698 0.0065889732769 0.0065889256846 0.0065888780927 0.0065888305014 0.0065887829105 
0.0065887353202 0.0065886877303 0.0065895602449 0.0065895126465 0.0065894650485 0.006589417451 0.006589369854 0.0065893222576 0.0065892746616 
0.0065892270662 0.0065891794712 0.0065891318767 0.0065890842828 0.0065890366893 0.0065889890964 0.006588941504 0.006588893912 0.0065888463206 
0.0065887987297 0.0065887511392 0.0065887035493 0.0065886559599 0.0065895284665 0.0065894808685 0.0065894332709 0.0065893856739 0.0065893380773 
0.0065892904813 0.0065892428858 0.0065891952907 0.0065891476962 0.0065891001022 0.0065890525086 0.0065890049156 0.0065889573231 0.0065889097311 
0.0065888621396 0.0065888145486 0.0065887669581 0.0065887193681 0.0065886717786 0.0065886241896 0.0065894966882 0.0065894490906 0.0065894014935 
0.0065893538969 0.0065893063007 0.0065892587051 0.00658921111 0.0065891635154 0.0065891159213 0.0065890683277 0.0065890207346 0.006588973142 
0.0065889255499 0.0065888779583 0.0065888303672 0.0065887827766 0.0065887351866 0.006588687597 0.0065886400079 0.0065885924193 0.00658946491 
0.0065894173128 0.0065893697161 0.0065893221199 0.0065892745242 0.006589226929 0.0065891793344 0.0065891317402 0.0065890841465 0.0065890365533 
0.0065889889606 0.0065889413685 0.0065888937768 0.0065888461856 0.006588798595 0.0065887510048 0.0065887034151 0.006588655826 0.0065886082373 
0.0065885606492 0.0065894331319 0.0065893855352 0.0065893379389 0.0065892903431 0.0065892427478 0.0065891951531 0.0065891475588 0.006589099965 
0.0065890523718 0.006589004779 0.0065889571868 0.006588909595 0.0065888620038 0.006588814413 0.0065887668228 0.0065887192331 0.0065886716438 
0.0065886240551 0.0065885764669 0.0065885288792 0.0065894013539 0.0065893537576 0.0065893061617 0.0065892585664 0.0065892109715 0.0065891633772 
0.0065891157833 0.00658906819 0.0065890205972 0.0065889730048 0.006588925413 0.0065888778217 0.0065888302309 0.0065887826406 0.0065887350507 
0.0065886874614 0.0065886398726 0.0065885922843 0.0065885446965 0.0065884971092 0.006589369576 0.0065893219801 0.0065892743847 0.0065892267897 
0.0065891791953 0.0065891316014 0.006589084008 0.0065890364151 0.0065889888227 0.0065889412308 0.0065888936394 0.0065888460485 0.0065887984581 
0.0065887508682 0.0065887032788 0.0065886556899 0.0065886081015 0.0065885605136 0.0065885129263 0.0065884653394 0.0065893377982 0.0065892902027 
0.0065892426077 0.0065891950132 0.0065891474192 0.0065890998257 0.0065890522327 0.0065890046402 0.0065889570483 0.0065889094568 0.0065888618658 
0.0065888142753 0.0065887666854 0.0065887190959 0.0065886715069 0.0065886239185 0.0065885763305 0.006588528743 0.0065884811561 0.0065884335697 
0.0065893060205 0.0065892584254 0.0065892108309 0.0065891632368 0.0065891156432 0.0065890680501 0.0065890204576 0.0065889728655 0.0065889252739 
0.0065888776829 0.0065888300923 0.0065887825023 0.0065887349127 0.0065886873237 0.0065886397352 0.0065885921471 0.0065885445596 0.0065884969726 
0.006588449386 0.0065884018 0.0065892742429 0.0065892266483 0.0065891790541 0.0065891314605 0.0065890838673 0.0065890362747 0.0065889886825 
0.0065889410909 0.0065888934997 0.0065888459091 0.006588798319 0.0065887507293 0.0065887031402 0.0065886555516 0.0065886079635 0.0065885603759 
0.0065885127888 0.0065884652022 0.0065884176161 0.0065883700305 0.0065899953 0.0065899476965 0.0065899000935 0.006589852491 0.006589804889 
0.0065897572875 0.0065897096866 0.0065896620861 0.0065896144861 0.0065895668866 0.0065895192876 0.0065894716892 0.0065894240912 0.0065893764937 
0.0065893288968 0.0065892813003 0.0065892337044 0.0065891861089 0.006589138514 0.0065890909195 0.0065899635201 0.0065899159171 0.0065898683145 
0.0065898207124 0.0065897731108 0.0065897255098 0.0065896779092 0.0065896303091 0.0065895827096 0.0065895351105 0.006589487512 0.0065894399139 
0.0065893923164 0.0065893447194 0.0065892971228 0.0065892495268 0.0065892019313 0.0065891543362 0.0065891067417 0.0065890591477 0.0065899317404 
0.0065898841377 0.0065898365355 0.0065897889339 0.0065897413327 0.0065896937321 0.006589646132 0.0065895985323 0.0065895509332 0.0065895033346 
0.0065894557364 0.0065894081388 0.0065893605417 0.0065893129451 0.006589265349 0.0065892177534 0.0065891701583 0.0065891225637 0.0065890749696 
0.006589027376 0.0065898999607 0.0065898523584 0.0065898047567 0.0065897571555 0.0065897095547 0.0065896619545 0.0065896143548 0.0065895667556 
0.0065895191569 0.0065894715587 0.006589423961 0.0065893763638 0.0065893287671 0.0065892811709 0.0065892335752 0.00658918598 0.0065891383854 
0.0065890907912 0.0065890431975 0.0065889956043 0.0065898681811 0.0065898205793 0.0065897729779 0.0065897253771 0.0065896777768 0.0065896301771 
0.0065895825778 0.006589534979 0.0065894873807 0.0065894397829 0.0065893921856 0.0065893445889 0.0065892969926 0.0065892493968 0.0065892018016 
0.0065891542068 0.0065891066126 0.0065890590188 0.0065890114256 0.0065889638328 0.0065898364016 0.0065897888002 0.0065897411993 0.0065896935989 
0.0065896459991 0.0065895983997 0.0065895508008 0.0065895032025 0.0065894556046 0.0065894080072 0.0065893604104 0.006589312814 0.0065892652182 
0.0065892176229 0.006589170028 0.0065891224337 0.0065890748398 0.0065890272465 0.0065889796537 0.0065889320614 0.0065898046222 0.0065897570212 
0.0065897094208 0.0065896618208 0.0065896142214 0.0065895666224 0.006589519024 0.006589471426 0.0065894238286 0.0065893762317 0.0065893286352 
0.0065892810393 0.0065892334439 0.006589185849 0.0065891382546 0.0065890906606 0.0065890430672 0.0065889954743 0.0065889478819 0.00658890029 
0.0065897728429 0.0065897252423 0.0065896776423 0.0065896300428 0.0065895824438 0.0065895348452 0.0065894872472 0.0065894396497 0.0065893920527 
0.0065893444562 0.0065892968602 0.0065892492647 0.0065892016697 0.0065891540752 0.0065891064812 0.0065890588877 0.0065890112947 0.0065889637023 
0.0065889161103 0.0065888685188 0.0065897410637 0.0065896934636 0.006589645864 0.0065895982649 0.0065895506663 0.0065895030682 0.0065894554706 
0.0065894078735 0.0065893602769 0.0065893126808 0.0065892650852 0.0065892174902 0.0065891698956 0.0065891223015 0.0065890747079 0.0065890271149 
0.0065889795223 0.0065889319303 0.0065888843387 0.0065888367477 0.0065897092846 0.0065896616849 0.0065896140857 0.006589566487 0.0065895188889 
0.0065894712912 0.006589423694 0.0065893760973 0.0065893285012 0.0065892809055 0.0065892333104 0.0065891857157 0.0065891381216 0.0065890905279 
0.0065890429348 0.0065889953422 0.00658894775 0.0065889001584 0.0065888525673 0.0065888049766 0.0065896775056 0.0065896299063 0.0065895823076 
0.0065895347093 0.0065894871116 0.0065894395143 0.0065893919176 0.0065893443213 0.0065892967256 0.0065892491303 0.0065892015356 0.0065891539414 
0.0065891063477 0.0065890587545 0.0065890111617 0.0065889635695 0.0065889159778 0.0065888683866 0.0065888207959 0.0065887732057 0.0065896457267 
0.0065895981278 0.0065895505295 0.0065895029317 0.0065894553343 0.0065894077375 0.0065893601412 0.0065893125454 0.0065892649501 0.0065892173553 
0.006589169761 0.0065891221672 0.0065890745739 0.0065890269811 0.0065889793888 0.006588931797 0.0065888842057 0.0065888366149 0.0065887890247 
0.0065887414349 0.0065896139479 0.0065895663495 0.0065895187516 0.0065894711541 0.0065894235572 0.0065893759608 0.006589328365 0.0065892807696 
0.0065892331747 0.0065891855803 0.0065891379864 0.006589090393 0.0065890428002 0.0065889952078 0.0065889476159 0.0065889000246 0.0065888524337 
0.0065888048433 0.0065887572535 0.0065887096641 0.0065895821692 0.0065895345712 0.0065894869737 0.0065894393767 0.0065893917802 0.0065893441843 
0.0065892965888 0.0065892489938 0.0065892013994 0.0065891538054 0.006589106212 0.006589058619 0.0065890110265 0.0065889634346 0.0065889158432 
0.0065888682522 0.0065888206618 0.0065887730719 0.0065887254824 0.0065886778935 0.0065895503906 0.006589502793 0.0065894551959 0.0065894075994 
0.0065893600033 0.0065893124078 0.0065892648127 0.0065892172182 0.0065891696242 0.0065891220306 0.0065890744376 0.0065890268451 0.006588979253 
0.0065889316615 0.0065888840705 0.00658883648 0.00658878889 0.0065887413005 0.0065886937115 0.006588646123 0.0065895186121 0.0065894710149 
0.0065894234183 0.0065893758222 0.0065893282265 0.0065892806314 0.0065892330368 0.0065891854427 0.0065891378491 0.0065890902559 0.0065890426633 
0.0065889950712 0.0065889474796 0.0065888998885 0.0065888522979 0.0065888047079 0.0065887571183 0.0065887095292 0.0065886619406 0.0065886143525 
0.0065894868337 0.0065894392369 0.0065893916407 0.006589344045 0.0065892964498 0.0065892488551 0.0065892012609 0.0065891536672 0.006589106074 
0.0065890584814 0.0065890108892 0.0065889632975 0.0065889157063 0.0065888681156 0.0065888205255 0.0065887729358 0.0065887253467 0.006588677758 
0.0065886301698 0.0065885825822 0.0065894550554 0.0065894074591 0.0065893598633 0.006589312268 0.0065892646732 0.0065892170789 0.0065891694852 
0.0065891218919 0.0065890742991 0.0065890267069 0.0065889791151 0.0065889315239 0.0065888839331 0.0065888363429 0.0065887887531 0.0065887411639 
0.0065886935751 0.0065886459869 0.0065885983992 0.0065885508119 0.0065894232771 0.0065893756813 0.0065893280859 0.0065892804911 0.0065892328967 
0.0065891853029 0.0065891377095 0.0065890901167 0.0065890425243 0.0065889949325 0.0065889473412 0.0065888997503 0.00658885216 0.0065888045702 
0.0065887569809 0.006588709392 0.0065886618037 0.0065886142159 0.0065885666286 0.0065885190418 0.006589391499 0.0065893439036 0.0065892963087 
0.0065892487142 0.0065892011203 0.0065891535269 0.0065891059339 0.0065890583415 0.0065890107496 0.0065889631582 0.0065889155673 0.0065888679769 
0.006588820387 0.0065887727976 0.0065887252087 0.0065886776203 0.0065886300324 0.006588582445 0.0065885348581 0.0065884872718 0.0065901125651 
0.0065900649608 0.006590017357 0.0065899697537 0.0065899221509 0.0065898745487 0.0065898269469 0.0065897793456 0.0065897317449 0.0065896841446 
0.0065896365449 0.0065895889456 0.0065895413469 0.0065894937486 0.0065894461509 0.0065893985536 0.0065893509569 0.0065893033607 0.006589255765 
0.0065892081697 0.0065900807847 0.0065900331808 0.0065899855775 0.0065899379746 0.0065898903723 0.0065898427704 0.0065897951691 0.0065897475682 
0.0065896999679 0.006589652368 0.0065896047687 0.0065895571699 0.0065895095716 0.0065894619737 0.0065894143764 0.0065893667796 0.0065893191833 
0.0065892715875 0.0065892239922 0.0065891763974 0.0065900490044 0.0065900014009 0.006589953798 0.0065899061956 0.0065898585937 0.0065898109922 
0.0065897633913 0.0065897157909 0.006589668191 0.0065896205916 0.0065895729927 0.0065895253943 0.0065894777964 0.006589430199 0.0065893826021 
0.0065893350057 0.0065892874098 0.0065892398144 0.0065891922195 0.0065891446252 0.0065900172242 0.0065899696212 0.0065899220187 0.0065898744167 
0.0065898268152 0.0065897792142 0.0065897316137 0.0065896840137 0.0065896364142 0.0065895888152 0.0065895412167 0.0065894936187 0.0065894460213 
0.0065893984243 0.0065893508278 0.0065893032319 0.0065892556364 0.0065892080414 0.006589160447 0.006589112853 0.0065899854441 0.0065899378415 
0.0065898902394 0.0065898426378 0.0065897950368 0.0065897474362 0.0065896998361 0.0065896522365 0.0065896046375 0.0065895570389 0.0065895094409 
0.0065894618433 0.0065894142463 0.0065893666497 0.0065893190537 0.0065892714581 0.0065892238631 0.0065891762686 0.0065891286745 0.006589081081 
0.0065899536641 0.0065899060619 0.0065898584603 0.0065898108591 0.0065897632585 0.0065897156583 0.0065896680587 0.0065896204595 0.0065895728609 
0.0065895252627 0.0065894776651 0.006589430068 0.0065893824714 0.0065893348752 0.0065892872796 0.0065892396845 0.0065891920899 0.0065891444958 
0.0065890969022 0.0065890493091 0.0065899218842 0.0065898742825 0.0065898266812 0.0065897790805 0.0065897314803 0.0065896838805 0.0065896362813 
0.0065895886826 0.0065895410844 0.0065894934867 0.0065894458895 0.0065893982928 0.0065893506966 0.0065893031009 0.0065892555057 0.006589207911 
0.0065891603168 0.0065891127231 0.0065890651299 0.0065890175373 0.0065898901044 0.0065898425031 0.0065897949023 0.006589747302 0.0065896997022 
0.0065896521029 0.0065896045041 0.0065895569058 0.006589509308 0.0065894617107 0.0065894141139 0.0065893665176 0.0065893189219 0.0065892713266 
0.0065892237318 0.0065891761375 0.0065891285438 0.0065890809505 0.0065890333578 0.0065889857655 0.0065898583247 0.0065898107238 0.0065897631234 
0.0065897155235 0.0065896679242 0.0065896203253 0.0065895727269 0.006589525129 0.0065894775317 0.0065894299348 0.0065893823385 0.0065893347426 
0.0065892871472 0.0065892395524 0.0065891919581 0.0065891443642 0.0065890967709 0.006589049178 0.0065890015857 0.0065889539939 0.0065898265451 
0.0065897789446 0.0065897313447 0.0065896837452 0.0065896361463 0.0065895885478 0.0065895409499 0.0065894933524 0.0065894457555 0.006589398159 
0.0065893505631 0.0065893029677 0.0065892553727 0.0065892077783 0.0065891601844 0.006589112591 0.0065890649981 0.0065890174057 0.0065889698138 
0.0065889222223 0.0065897947656 0.0065897471656 0.006589699566 0.006589651967 0.0065896043685 0.0065895567704 0.0065895091729 0.0065894615759 
0.0065894139794 0.0065893663834 0.0065893187878 0.0065892711928 0.0065892235983 0.0065891760043 0.0065891284108 0.0065890808178 0.0065890332254 
0.0065889856334 0.0065889380419 0.0065888904509 0.0065897629862 0.0065897153866 0.0065896677875 0.0065896201889 0.0065895725907 0.0065895249931 
0.006589477396 0.0065894297995 0.0065893822034 0.0065893346078 0.0065892870127 0.0065892394181 0.006589191824 0.0065891442305 0.0065890966374 
0.0065890490448 0.0065890014527 0.0065889538612 0.0065889062701 0.0065888586796 0.0065897312069 0.0065896836077 0.006589636009 0.0065895884108 
0.0065895408131 0.006589493216 0.0065894456193 0.0065893980231 0.0065893504275 0.0065893028323 0.0065892552376 0.0065892076435 0.0065891600498 
0.0065891124567 0.006589064864 0.0065890172719 0.0065889696802 0.0065889220891 0.0065888744985 0.0065888269083 0.0065896994277 0.0065896518289 
0.0065896042307 0.0065895566329 0.0065895090356 0.0065894614389 0.0065894138426 0.0065893662469 0.0065893186516 0.0065892710569 0.0065892234627 
0.0065891758689 0.0065891282757 0.006589080683 0.0065890330908 0.006588985499 0.0065889379078 0.0065888903171 0.0065888427269 0.0065887951372 
0.0065896676486 0.0065896200502 0.0065895724524 0.0065895248551 0.0065894772582 0.0065894296619 0.0065893820661 0.0065893344708 0.0065892868759 
0.0065892392816 0.0065891916878 0.0065891440945 0.0065890965017 0.0065890489094 0.0065890013176 0.0065889537263 0.0065889061355 0.0065888585452 
0.0065888109554 0.0065887633662 0.0065896358696 0.0065895882717 0.0065895406742 0.0065894930773 0.0065894454809 0.006589397885 0.0065893502896 
0.0065893026947 0.0065892551003 0.0065892075064 0.006589159913 0.0065891123202 0.0065890647278 0.0065890171359 0.0065889695445 0.0065889219537 
0.0065888743633 0.0065888267734 0.0065887791841 0.0065887315952 0.0065896040907 0.0065895564932 0.0065895088962 0.0065894612997 0.0065894137037 
0.0065893661082 0.0065893185133 0.0065892709188 0.0065892233248 0.0065891757314 0.0065891281384 0.0065890805459 0.006589032954 0.0065889853625 
0.0065889377716 0.0065888901811 0.0065888425912 0.0065887950017 0.0065887474128 0.0065886998244 0.0065895723119 0.0065895247148 0.0065894771182 
0.0065894295222 0.0065893819266 0.0065893343316 0.006589286737 0.006589239143 0.0065891915494 0.0065891439564 0.0065890963638 0.0065890487718 
0.0065890011803 0.0065889535892 0.0065889059987 0.0065888584087 0.0065888108192 0.0065887632302 0.0065887156416 0.0065886680536 0.0065895405332 
0.0065894929365 0.0065894453404 0.0065893977447 0.0065893501496 0.006589302555 0.0065892549608 0.0065892073672 0.0065891597741 0.0065891121815 
0.0065890645894 0.0065890169978 0.0065889694066 0.006588921816 0.0065888742259 0.0065888266363 0.0065887790473 0.0065887314587 0.0065886838706 
0.006588636283 0.0065895087546 0.0065894611583 0.0065894135626 0.0065893659674 0.0065893183727 0.0065892707785 0.0065892231848 0.0065891755916 
0.0065891279989 0.0065890804067 0.006589032815 0.0065889852238 0.0065889376331 0.006588890043 0.0065888424533 0.0065887948641 0.0065887472754 
0.0065886996873 0.0065886520996 0.0065886045125 0.0065902298295 0.0065901822244 0.0065901346199 0.0065900870158 0.0065900394123 0.0065899918092 
0.0065899442067 0.0065898966046 0.0065898490031 0.006589801402 0.0065897538015 0.0065897062015 0.0065896586019 0.0065896110029 0.0065895634044 
0.0065895158064 0.0065894682089 0.0065894206118 0.0065893730153 0.0065893254193 0.0065901980486 0.006590150444 0.0065901028398 0.0065900552362 
0.0065900076331 0.0065899600304 0.0065899124283 0.0065898648267 0.0065898172256 0.006589769625 0.0065897220248 0.0065896744252 0.0065896268261 
0.0065895792275 0.0065895316294 0.0065894840318 0.0065894364348 0.0065893888382 0.0065893412421 0.0065892936465 0.0065901662678 0.0065901186636 
0.0065900710599 0.0065900234567 0.006589975854 0.0065899282518 0.0065898806501 0.0065898330489 0.0065897854482 0.006589737848 0.0065896902483 
0.0065896426491 0.0065895950504 0.0065895474523 0.0065894998546 0.0065894522574 0.0065894046608 0.0065893570646 0.0065893094689 0.0065892618738 
0.0065901344871 0.0065900868833 0.00659003928 0.0065899916772 0.006589944075 0.0065898964732 0.0065898488719 0.0065898012711 0.0065897536709 
0.0065897060711 0.0065896584718 0.0065896108731 0.0065895632748 0.0065895156771 0.0065894680798 0.0065894204831 0.0065893728868 0.0065893252911 
0.0065892776959 0.0065892301011 0.0065901027065 0.0065900551032 0.0065900075003 0.0065899598979 0.0065899122961 0.0065898646947 0.0065898170939 
0.0065897694935 0.0065897218937 0.0065896742943 0.0065896266955 0.0065895790972 0.0065895314993 0.006589483902 0.0065894363052 0.0065893887089 
0.006589341113 0.0065892935177 0.0065892459229 0.0065891983286 0.006590070926 0.0065900233231 0.0065899757206 0.0065899281187 0.0065898805173 
0.0065898329163 0.0065897853159 0.006589737716 0.0065896901166 0.0065896425176 0.0065895949192 0.0065895473213 0.0065894997239 0.006589452127 
0.0065894045306 0.0065893569347 0.0065893093393 0.0065892617445 0.0065892141501 0.0065891665562 0.0065900391456 0.0065899915431 0.0065899439411 
0.0065898963396 0.0065898487386 0.0065898011381 0.0065897535381 0.0065897059386 0.0065896583396 0.0065896107411 0.0065895631431 0.0065895155456 
0.0065894679486 0.0065894203521 0.0065893727562 0.0065893251607 0.0065892775657 0.0065892299713 0.0065891823773 0.0065891347839 0.0065900073653 
0.0065899597632 0.0065899121616 0.0065898645605 0.00658981696 0.0065897693599 0.0065897217603 0.0065896741612 0.0065896265627 0.0065895789646 
0.006589531367 0.00658948377 0.0065894361734 0.0065893885774 0.0065893409818 0.0065892933868 0.0065892457922 0.0065891981982 0.0065891506047 
0.0065891030116 0.0065899755851 0.0065899279835 0.0065898803823 0.0065898327816 0.0065897851815 0.0065897375818 0.0065896899827 0.006589642384 
0.0065895947859 0.0065895471882 0.0065894995911 0.0065894519944 0.0065894043983 0.0065893568027 0.0065893092076 0.0065892616129 0.0065892140188 
0.0065891664252 0.0065891188321 0.0065890712395 0.006589943805 0.0065898962038 0.006589848603 0.0065898010028 0.0065897534031 0.0065897058038 
0.0065896582051 0.0065896106069 0.0065895630091 0.0065895154119 0.0065894678152 0.006589420219 0.0065893726233 0.0065893250281 0.0065892774334 
0.0065892298392 0.0065891822455 0.0065891346523 0.0065890870596 0.0065890394674 0.006589912025 0.0065898644242 0.0065898168239 0.0065897692241 
0.0065897216248 0.0065896740259 0.0065896264276 0.0065895788298 0.0065895312325 0.0065894836358 0.0065894360395 0.0065893884437 0.0065893408484 
0.0065892932536 0.0065892456593 0.0065891980656 0.0065891504723 0.0065891028795 0.0065890552873 0.0065890076955 0.0065898802451 0.0065898326447 
0.0065897850448 0.0065897374454 0.0065896898465 0.0065896422482 0.0065895946503 0.0065895470529 0.006589499456 0.0065894518597 0.0065894042638 
0.0065893566684 0.0065893090736 0.0065892614792 0.0065892138854 0.006589166292 0.0065891186992 0.0065890711068 0.006589023515 0.0065889759237 
0.0065898484653 0.0065898008653 0.0065897532659 0.0065897056669 0.0065896580684 0.0065896104705 0.006589562873 0.0065895152761 0.0065894676796 
0.0065894200837 0.0065893724882 0.0065893248933 0.0065892772989 0.0065892297049 0.0065891821115 0.0065891345186 0.0065890869262 0.0065890393343 
0.0065889917428 0.0065889441519 0.0065898166856 0.0065897690861 0.006589721487 0.0065896738885 0.0065896262904 0.0065895786929 0.0065895310959 
0.0065894834993 0.0065894359033 0.0065893883078 0.0065893407128 0.0065892931183 0.0065892455243 0.0065891979308 0.0065891503378 0.0065891027453 
0.0065890551533 0.0065890075618 0.0065889599708 0.0065889123803 0.006589784906 0.0065897373069 0.0065896897083 0.0065896421101 0.0065895945125 
0.0065895469154 0.0065894993188 0.0065894517227 0.0065894041271 0.006589356532 0.0065893089374 0.0065892613433 0.0065892137498 0.0065891661567 
0.0065891185641 0.006589070972 0.0065890233804 0.0065889757894 0.0065889281988 0.0065888806088 0.0065897531265 0.0065897055278 0.0065896579296 
0.0065896103319 0.0065895627347 0.006589515138 0.0065894675419 0.0065894199462 0.006589372351 0.0065893247563 0.0065892771622 0.0065892295685 
0.0065891819753 0.0065891343827 0.0065890867905 0.0065890391989 0.0065889916077 0.0065889440171 0.006588896427 0.0065888488373 0.0065897213471 
0.0065896737488 0.006589626151 0.0065895785538 0.006589530957 0.0065894833607 0.006589435765 0.0065893881697 0.006589340575 0.0065892929807 
0.006589245387 0.0065891977938 0.006589150201 0.0065891026088 0.0065890550171 0.0065890074258 0.0065889598351 0.0065889122449 0.0065888646552 
0.006588817066 0.0065896895678 0.0065896419699 0.0065895943726 0.0065895467757 0.0065894991794 0.0065894515836 0.0065894039882 0.0065893563934 
0.0065893087991 0.0065892612053 0.0065892136119 0.0065891660191 0.0065891184268 0.006589070835 0.0065890232437 0.0065889756529 0.0065889280626 
0.0065888804728 0.0065888328835 0.0065887852947 0.0065896577886 0.0065896101911 0.0065895625942 0.0065895149978 0.0065894674019 0.0065894198065 
0.0065893722116 0.0065893246172 0.0065892770233 0.0065892294299 0.006589181837 0.0065891342446 0.0065890866527 0.0065890390613 0.0065889914704 
0.0065889438801 0.0065888962902 0.0065888487008 0.0065888011119 0.0065887535236 0.0065896260095 0.0065895784125 0.006589530816 0.00658948322 
0.0065894356245 0.0065893880295 0.006589340435 0.006589292841 0.0065892452476 0.0065891976546 0.0065891500621 0.0065891024701 0.0065890548787 
0.0065890072877 0.0065889596973 0.0065889121073 0.0065888645179 0.0065888169289 0.0065887693405 0.0065887217525 0.0065903470933 0.0065902994875 
0.0065902518821 0.0065902042773 0.006590156673 0.0065901090691 0.0065900614658 0.006590013863 0.0065899662607 0.0065899186588 0.0065898710575 
0.0065898234567 0.0065897758564 0.0065897282566 0.0065896806573 0.0065896330585 0.0065895854602 0.0065895378624 0.0065894902651 0.0065894426683 
0.0065903153119 0.0065902677065 0.0065902201016 0.0065901724972 0.0065901248933 0.0065900772899 0.006590029687 0.0065899820846 0.0065899344827 
0.0065898868813 0.0065898392804 0.00658979168 0.0065897440801 0.0065896964807 0.0065896488818 0.0065896012835 0.0065895536856 0.0065895060882 
0.0065894584914 0.006589410895 0.0065902835306 0.0065902359256 0.0065901883211 0.0065901407172 0.0065900931137 0.0065900455107 0.0065899979082 
0.0065899503062 0.0065899027048 0.0065898551038 0.0065898075033 0.0065897599034 0.0065897123039 0.0065896647049 0.0065896171065 0.0065895695085 
0.0065895219111 0.0065894743142 0.0065894267177 0.0065893791218 0.0065902517494 0.0065902041449 0.0065901565408 0.0065901089372 0.0065900613342 
0.0065900137316 0.0065899661296 0.006589918528 0.006589870927 0.0065898233264 0.0065897757264 0.0065897281268 0.0065896805278 0.0065896329293 
0.0065895853312 0.0065895377337 0.0065894901367 0.0065894425402 0.0065893949442 0.0065893473487 0.0065902199683 0.0065901723642 0.0065901247606 
0.0065900771574 0.0065900295548 0.0065899819526 0.006589934351 0.0065898867499 0.0065898391493 0.0065897915491 0.0065897439495 0.0065896963504 
0.0065896487518 0.0065896011537 0.0065895535561 0.006589505959 0.0065894583624 0.0065894107663 0.0065893631707 0.0065893155756 0.0065901881873 
0.0065901405836 0.0065900929804 0.0065900453777 0.0065899977755 0.0065899501738 0.0065899025726 0.0065898549718 0.0065898073716 0.006589759772 
0.0065897121728 0.0065896645741 0.0065896169759 0.0065895693782 0.006589521781 0.0065894741843 0.0065894265882 0.0065893789925 0.0065893313973 
0.0065892838027 0.0065901564064 0.0065901088031 0.0065900612003 0.0065900135981 0.0065899659963 0.006589918395 0.0065898707942 0.0065898231939 
0.0065897755941 0.0065897279949 0.0065896803961 0.0065896327978 0.0065895852001 0.0065895376028 0.0065894900061 0.0065894424098 0.0065893948141 
0.0065893472188 0.0065892996241 0.0065892520299 0.0065901246256 0.0065900770228 0.0065900294204 0.0065899818185 0.0065899342172 0.0065898866163 
0.0065898390159 0.0065897914161 0.0065897438167 0.0065896962179 0.0065896486195 0.0065896010217 0.0065895534244 0.0065895058275 0.0065894582312 
0.0065894106354 0.0065893630401 0.0065893154452 0.0065892678509 0.0065892202571 0.0065900928449 0.0065900452425 0.0065899976405 0.0065899500391 
0.0065899024382 0.0065898548377 0.0065898072378 0.0065897596384 0.0065897120394 0.006589664441 0.0065896168431 0.0065895692457 0.0065895216488 
0.0065894740524 0.0065894264565 0.0065893788611 0.0065893312662 0.0065892836718 0.0065892360779 0.0065891884845 0.0065900610643 0.0065900134623 
0.0065899658608 0.0065899182598 0.0065898706593 0.0065898230592 0.0065897754597 0.0065897278607 0.0065896802622 0.0065896326642 0.0065895850667 
0.0065895374697 0.0065894898733 0.0065894422773 0.0065893946818 0.0065893470868 0.0065892994923 0.0065892518984 0.0065892043049 0.0065891567119 
0.0065900292838 0.0065899816822 0.0065899340811 0.0065898864805 0.0065898388804 0.0065897912809 0.0065897436818 0.0065896960832 0.0065896484851 
0.0065896008875 0.0065895532905 0.0065895056939 0.0065894580978 0.0065894105023 0.0065893629072 0.0065893153127 0.0065892677186 0.0065892201251 
0.006589172532 0.0065891249395 0.0065899975034 0.0065899499023 0.0065899023016 0.0065898547014 0.0065898071017 0.0065897595026 0.0065897119039 
0.0065896643058 0.0065896167081 0.006589569111 0.0065895215143 0.0065894739182 0.0065894263225 0.0065893787274 0.0065893311328 0.0065892835386 
0.006589235945 0.0065891883519 0.0065891407593 0.0065890931672 0.0065899657231 0.0065899181224 0.0065898705221 0.0065898229224 0.0065897753231 
0.0065897277244 0.0065896801262 0.0065896325284 0.0065895849312 0.0065895373345 0.0065894897383 0.0065894421425 0.0065893945473 0.0065893469526 