# vtk DataFile Version 5.1
vtk output
ASCII
DATASET STRUCTURED_POINTS
DIMENSIONS 30 30 30
SPACING 0.01 0.01 0.01
ORIGIN 1.555 -0.145 0.855
POINT_DATA 27000
FIELD FieldData 1
potential 1 27000 double
0.0029517754337 0.0029594211159 0.0029670964813 0.0029748012274 0.0029825367563 0.0029903022872 0.002998098092 0.0030059244368 0.0030137815724 
0.0030216693117 0.0030295881274 0.0030375382548 0.0030455192155 0.003053531918 0.0030615760402 0.0030696520828 0.003077759903 0.0030858997672 
0.0030940718521 0.0031022765001 0.0031105136815 0.0031187834482 0.0031270860589 0.0031354216871 0.0031437904789 0.00315219244 0.0031606280128 
0.0031690973009 0.0031776004077 0.0031861375833 0.0029484848507 0.002956113323 0.0029637714538 0.0029714592554 0.0029791772227 0.0029869252571 
0.0029947036223 0.0030025122969 0.0030103517064 0.003018221639 0.003026122277 0.0030340541872 0.0030420170591 0.0030500111146 0.0030580366975 
0.0030660942792 0.0030741831558 0.0030823043662 0.003090457489 0.0030986429804 0.0031068608675 0.0031151113254 0.0031233945198 0.0031317105863 
0.0031400597737 0.0031484420494 0.0031568577561 0.0031653070757 0.0031737900885 0.0031823070625 0.0029451997786 0.0029528114196 0.0029604523262 
0.0029681231173 0.0029758234396 0.0029835542093 0.0029913151346 0.0029991062021 0.003006927861 0.0030147798569 0.0030226626509 0.0030305762378 
0.0030385208715 0.0030464966507 0.003054503713 0.0030625425183 0.003070612781 0.0030787151971 0.0030868494871 0.0030950159672 0.0031032147748 
0.0031114459108 0.0031197097406 0.0031280063642 0.0031363359215 0.0031446986597 0.0031530944183 0.0031615237874 0.0031699867427 0.0031784835155 
0.0029419207853 0.0029495154876 0.0029571395086 0.0029647931787 0.0029724761952 0.0029801894344 0.0029879326167 0.0029957059695 0.0030035099512 
0.0030113441542 0.0030192091432 0.0030271046769 0.0030350311208 0.0030429887687 0.0030509773555 0.0030589975767 0.0030670492136 0.0030751328873 
0.0030832483271 0.0030913958376 0.0030995755617 0.0031077875669 0.0031160319976 0.0031243091823 0.0031326191906 0.0031409622389 0.0031493382705 
0.0031577477731 0.0031661907637 0.0031746673966 0.0029386475683 0.0029462253923 0.0029538323998 0.0029614688698 0.0029691347072 0.0029768305748 
0.0029845563332 0.0029923121691 0.0030000982669 0.0030079146224 0.0030157615986 0.0030236393373 0.003031547875 0.0030394872884 0.0030474575134 
0.0030554592901 0.0030634923064 0.0030715573013 0.0030796539594 0.0030877825068 0.0030959431977 0.0031041360541 0.0031123612885 0.0031206190345 
0.0031289095484 0.0031372330045 0.0031455894037 0.0031539789676 0.0031624020216 0.0031708585485 0.0029353803648 0.0029429412706 0.0029505314373 
0.0029581508612 0.0029657995161 0.0029734781372 0.0029811864883 0.0029889247785 0.0029966933021 0.0030044920039 0.0030123210527 0.0030201806496 
0.0030280710669 0.0030359921953 0.0030439444749 0.003051927708 0.0030599423776 0.0030679887465 0.0030760666662 0.0030841762801 0.0030923179199 
0.0031004917479 0.0031086977736 0.003116936238 0.0031252072764 0.0031335111633 0.0031418479368 0.0031502176243 0.0031586207829 0.0031670573459 
0.0029321192974 0.0029396633699 0.002947236759 0.0029548393365 0.0029624707687 0.0029701321155 0.0029778232171 0.0029855440725 0.0029932950321 
0.0030010760552 0.0030088873174 0.0030167290306 0.0030246014429 0.0030325045276 0.0030404384628 0.0030484031673 0.00305639929 0.0030644271078 
0.0030724865928 0.0030805774576 0.0030887001321 0.003096854902 0.0031050416968 0.0031132609027 0.0031215125931 0.0031297969191 0.0031381140724 
0.0031464639704 0.0031548472943 0.00316326397 0.0029288646196 0.0029363920794 0.0029439484565 0.002951534117 0.0029591488789 0.0029667927644 
0.0029744666209 0.002982170078 0.0029899034071 0.002997666913 0.0030054604952 0.0030132843156 0.0030211387827 0.0030290237775 0.0030369395885 
0.0030448859122 0.0030528636184 0.0030608727713 0.0030689133903 0.0030769855708 0.0030850895432 0.0030932253294 0.0031013932283 0.0031095932028 
0.0031178255128 0.0031260903931 0.0031343878674 0.0031427182615 0.003151081681 0.0031594783717 0.0029256164082 0.0029331273415 0.0029406669444 
0.0029482356322 0.002955833377 0.0029634603172 0.0029711169334 0.0029788030586 0.0029865189326 0.0029942648819 0.003002040781 0.0030098468432 
0.0030176833456 0.0030255503182 0.0030334479963 0.0030413760606 0.003049335547 0.0030573260723 0.0030653480069 0.0030734014004 0.0030814864955 
0.003089603304 0.0030977520809 0.0031059329827 0.0031141461442 0.0031223915002 0.003130669488 0.0031389802692 0.003147324049 0.0031557008329 
0.0029223750777 0.0029298691941 0.0029373922828 0.0029449441054 0.0029525249582 0.0029601345757 0.0029677739425 0.0029754430931 0.0029831415406 
0.0029908699682 0.0029986282358 0.0030064165275 0.0030142351984 0.0030220842469 0.0030299636027 0.0030378739308 0.0030458148208 0.0030537870487 
0.0030617902786 0.0030698250182 0.003077891324 0.0030859891981 0.003094119002 0.0031022806832 0.0031104744877 0.0031187006117 0.0031269592083 
0.0031352505419 0.0031435745453 0.0031519313831 0.0029191406227 0.0029266182261 0.0029341245587 0.0029416595876 0.0029492235412 0.0029568160928 
0.0029644383312 0.0029720900171 0.0029797711885 0.0029874822202 0.0029952229011 0.0030029935819 0.0030107943447 0.0030186255685 0.003026486884 
0.0030343790419 0.0030423017931 0.0030502555352 0.0030582404182 0.0030662563795 0.0030743038697 0.003082382985 0.003090493827 0.0030986363667 
0.0031068110624 0.0031150178741 0.003123257087 0.0031315288307 0.0031398331389 0.0031481702454 0.0029159129822 0.0029233740646 0.0029308636888 
0.0029383821551 0.0029459292197 0.0029535052296 0.0029611099583 0.0029687444561 0.0029764082487 0.0029841017337 0.0029918249057 0.0029995779969 
0.0030073609986 0.0030151743862 0.0030230177385 0.0030308918027 0.0030387963151 0.0030467318627 0.0030546981887 0.0030626955855 0.0030707243832 
0.0030787847 0.0030868765242 0.0030950001023 0.0031031556182 0.0031113431704 0.003119563004 0.0031278152714 0.0031360999529 0.003144417557 
0.0029126923383 0.002920136947 0.0029276099683 0.0029351117334 0.0029426420157 0.0029502011463 0.002957788844 0.0029654060893 0.0029730526971 
0.0029807288531 0.002988434454 0.0029961699716 0.0030039352384 0.0030117308344 0.0030195562579 0.003027412187 0.0030352986064 0.0030432158203 
0.0030511638545 0.0030591427569 0.0030671527887 0.0030751942615 0.0030832672307 0.0030913718868 0.0030995083003 0.0031076766586 0.0031158771561 
0.0031241099884 0.0031323751068 0.0031406730225 0.0029094786848 0.0029169068758 0.0029243633576 0.0029318483486 0.0029393620354 0.0029469043514 
0.0029544750268 0.0029620752214 0.0029697046166 0.0029773633326 0.0029850515894 0.0029927693948 0.0030005170481 0.0030082947324 0.0030161024961 
0.003023940348 0.0030318087359 0.003039707563 0.0030476373116 0.0030555978294 0.0030635893454 0.0030716119161 0.0030796661238 0.0030877518317 
0.0030958692233 0.0031040184186 0.0031121995937 0.0031204129971 0.0031286586562 0.0031369368846 0.0029062721015 0.0029136839725 0.0029211239268 
0.002928592296 0.0029360891021 0.0029436148021 0.0029511686469 0.0029587516927 0.002966363925 0.002974005361 0.0029816762227 0.0029893765623 
0.0029971065214 0.0030048664284 0.0030126564341 0.0030204763466 0.0030283266591 0.003036207303 0.0030441186191 0.0030520607511 0.0030600336345 
0.0030680377984 0.0030760730176 0.0030841399234 0.0030922382965 0.0031003683895 0.0031085303818 0.0031167243487 0.0031249505673 0.0031332091414 
0.0029030726195 0.0029104681053 0.0029178916985 0.0029253435214 0.0029328236481 0.0029403325511 0.0029478698794 0.0029554355415 0.0029630305843 
0.0029706548187 0.0029783083781 0.0029859912601 0.0029937036791 0.0030014457624 0.0030092179747 0.0030170200177 0.0030248523531 0.0030327148542 
0.0030406079594 0.003048531671 0.0030564861679 0.0030644715669 0.0030724880582 0.0030805361513 0.0030886156108 0.0030967266322 0.0031048694075 
0.0031130440426 0.0031212508265 0.0031294898587 0.0028998804014 0.0029072595021 0.0029146665948 0.0029221018966 0.0029295654529 0.0029370573734 
0.0029445781268 0.0029521269257 0.0029597047988 0.0029673118408 0.0029749481211 0.0029826135883 0.0029903084719 0.0029980329152 0.003005787371 
0.0030135716248 0.0030213859083 0.0030292303468 0.0030371051835 0.0030450105647 0.0030529466772 0.0030609136308 0.0030689115078 0.0030769404503 
0.0030850011066 0.0030930930221 0.0031012167392 0.003109372099 0.0031175594941 0.0031257790203 0.0028966952825 0.0029040581597 0.0029114488184 
0.0029188676148 0.0029263145316 0.0029337898032 0.0029412935703 0.0029488256186 0.0029563864606 0.0029639762876 0.0029715953783 0.0029792434763 
0.0029869209996 0.0029946277793 0.0030023645126 0.0030101309353 0.0030179273306 0.0030257536583 0.0030336101559 0.003041497316 0.0030494151237 
0.0030573635543 0.0030653429217 0.0030733532464 0.0030813948673 0.0030894677367 0.0030975722805 0.0031057084065 0.0031138765189 0.0031220766284 
0.0028935173594 0.0029008638623 0.0029082383064 0.0029156406971 0.0029230710685 0.0029305295285 0.0029380165742 0.0029455319708 0.0029530756069 
0.0029606483508 0.0029682501619 0.0029758809932 0.0029835410216 0.0029912302658 0.002998949297 0.0030066979307 0.0030144764446 0.0030222846871 
0.003030123115 0.003037992029 0.0030458914492 0.0030538214385 0.0030617822686 0.0030697739483 0.0030777967671 0.0030858506743 0.0030939361838 
0.0031020531124 0.0031102018255 0.0031183825374 0.0028903462974 0.0028976768654 0.0029050348625 0.0029124208558 0.0029198347381 0.0029272767054 
0.0029347470002 0.002942245513 0.0029497721163 0.0029573278654 0.0029649125105 0.0029725260547 0.0029801685463 0.0029878404425 0.0029955417161 
0.0030032727334 0.0030110333037 0.0030188237215 0.003026644172 0.0030344947448 0.0030423757851 0.0030502872786 0.0030582294424 0.0030662025493 
0.0030742066977 0.0030822417751 0.0030903080602 0.0030984058456 0.0031065353044 0.0031146965509 0.0028871822967 0.0028944968169 0.0029018387196 
0.0029092083586 0.0029166056447 0.0029240310326 0.0029314844943 0.0029389663158 0.0029464760783 0.0029540148036 0.0029615822415 0.0029691785279 
0.0029768036672 0.0029844580503 0.0029921417987 0.0029998551032 0.0030075978785 0.0030153703343 0.0030231727443 0.0030310051574 0.0030388679426 
0.003046761064 0.0030546846266 0.0030626390856 0.0030706243084 0.0030786405708 0.0030866881894 0.0030947668291 0.003102876986 0.0031110189791 
0.0028840254123 0.0028913236502 0.0028986495438 0.002906002688 0.0029133837421 0.0029207924706 0.0029282293302 0.0029356943988 0.0029431873322 
0.0029507089403 0.0029582593818 0.002965838482 0.0029734463591 0.002981083389 0.0029887494917 0.0029964450619 0.0030041701393 0.0030119247454 
0.0030197090831 0.0030275233803 0.00303536787 0.0030432426419 0.0030511479387 0.0030590837358 0.0030670502747 0.0030750476962 0.0030830763134 
0.0030911358015 0.0030992269602 0.0031073498486 0.0028808753324 0.0028881575766 0.0028954670814 0.0029028042225 0.0029101688919 0.0029175613343 
0.0029249815847 0.0029324295297 0.0029399061342 0.0029474104711 0.0029549439196 0.0029625057904 0.0029700964504 0.0029777160091 0.0029853644532 
0.0029930423658 0.0030007497311 0.0030084865882 0.0030162531291 0.003024049443 0.0030318756169 0.0030397320773 0.00304761901 0.0030555362265 
0.0030634841299 0.0030714627818 0.0030794724976 0.003087513171 0.0030955848631 0.0031036885131 0.0028777322558 0.0028849983704 0.0028922917599 
0.0028996125361 0.0029069609845 0.0029143368841 0.0029217406546 0.0029291721597 0.0029366319699 0.0029441194463 0.0029516355734 0.002959180249 
0.0029667536471 0.002974355964 0.0029819870059 0.0029896473321 0.0029973371128 0.0030050559893 0.0030128045045 0.0030205827723 0.0030283909671 
0.0030362293496 0.0030440977478 0.0030519964683 0.003059925666 0.0030678855902 0.0030758763376 0.0030838981438 0.003091950898 0.0031000351825 
0.0028745958429 0.0028818460657 0.0028891233503 0.0028964279284 0.0029037599354 0.0029111194203 0.0029185065979 0.0029259214635 0.002933364479 
0.0029408351994 0.002948334255 0.0029558619062 0.002963418164 0.0029710031469 0.0029786168935 0.0029862596947 0.0029939316667 0.0030016329427 
0.0030093636515 0.0030171239687 0.0030249139188 0.0030327337557 0.0030405837753 0.0030484640853 0.0030563746883 0.0030643160585 0.0030722880427 
0.0030802908425 0.0030883247636 0.0030963897487 0.0028714660956 0.0028787003361 0.0028859615683 0.0028932499543 0.0029005656887 0.0029079086579 
0.0029152792255 0.0029226777192 0.0029301039299 0.0029375582477 0.0029450402181 0.0029525506459 0.0029600894465 0.0029676574162 0.0029752538745 
0.0029828792421 0.0029905336803 0.0029982170165 0.0030059298737 0.0030136721756 0.0030214442314 0.0030292457895 0.0030370775178 0.0030449392433 
0.0030528312803 0.0030607538229 0.0030687070675 0.0030766909546 0.0030847058378 0.0030927517342 0.0028683428048 0.002875561174 0.0028828063509 
0.0028900784765 0.0028973779562 0.0029047046944 0.002912058789 0.0029194405801 0.0029268502399 0.0029342878007 0.0029417527939 0.0029492462974 
0.0029567682311 0.0029643188687 0.0029718978628 0.0029795056594 0.002987142351 0.0029948081711 0.0030025032116 0.0030102275082 0.0030179815222 
0.0030257649956 0.0030335784672 0.0030414218492 0.0030492953638 0.0030571991387 0.0030651335706 0.0030730986679 0.0030810945351 0.0030891213179 
0.002865225892 0.0028724281889 0.0028796574248 0.0028869135846 0.0028941968038 0.0029015072651 0.0029088449203 0.0029162101536 0.0029236030412 
0.0029310239369 0.0029384723492 0.0029459485152 0.0029534533438 0.002960986739 0.0029685486962 0.0029761391533 0.0029837581998 0.0029914063436 
0.0029990835327 0.0030067901784 0.0030145261079 0.0030222913201 0.0030300863925 0.0030379113915 0.0030457664424 0.0030536517451 0.0030615674263 
0.0030695135929 0.0030774903752 0.003085498088 0.0028621150858 0.0028693017107 0.0028765148887 0.0028837549583 0.0028910220363 0.002898316172 
0.0029056374549 0.0029129862874 0.0029203625404 0.0029277664698 0.0029351984045 0.0029426573978 0.0029501451783 0.002957661251 0.0029652057717 
0.0029727790077 0.0029803806525 0.0029880110489 0.0029956705969 0.0030033593968 0.0030110773202 0.0030188245573 0.0030266014239 0.0030344080145 
0.003042244615 0.0030501113548 0.0030580083911 0.0030659357556 0.00307389368 0.0030818822523 0.0028590104381 0.002866181205 0.002873378428 
0.0028806024911 0.0028878534799 0.0028951313513 0.0029024363162 0.002909768545 0.0029171281974 0.0029245154133 0.0029319303895 0.0029393726322 
0.0029468433714 0.0029543422983 0.0029618696091 0.0029694252138 0.0029770095399 0.0029846223365 0.0029922643155 0.0029999351267 0.0030076351196 
0.0030153643549 0.0030231231552 0.0030309114445 0.0030387295515 0.0030465777618 0.0030544560899 0.0030623646123 0.0030703035849 0.0030782733033 
0.0029838374374 0.0029915631473 0.0029993188674 0.0030071047872 0.0030149209208 0.0030227676853 0.0030306453785 0.0030385537569 0.0030464929307 
0.00305446335 0.003062464865 0.0030704978952 0.0030785625999 0.0030866588211 0.0030947868694 0.0031029470744 0.0031111395987 0.0031193645303 
0.0031276218362 0.0031359119145 0.0031442347674 0.0031525907091 0.0031609798143 0.0031694022511 0.0031778580515 0.0031863476526 0.0031948710975 
0.003203428468 0.0032120199787 0.0032206458533 0.0029805086047 0.002988217004 0.0029959554313 0.003003724049 0.0030115223762 0.0030193517537 
0.0030272114884 0.0030351017613 0.0030430231646 0.0030509755203 0.003058958776 0.0030669734345 0.0030750197506 0.0030830972614 0.003091206868 
0.0030993480227 0.0031075217033 0.003115727264 0.0031239656032 0.0031322364171 0.0031405399713 0.0031488764139 0.0031572459125 0.0031656486442 
0.0031740846505 0.0031825542684 0.0031910576116 0.003199594831 0.0032081660701 0.0032167715401 0.0029771854378 0.0029848767982 0.0029925979228 
0.0030003489314 0.0030081298088 0.0030159414503 0.0030237832769 0.0030316557226 0.0030395592034 0.0030474934567 0.0030554585765 0.0030634548243 
0.0030714827107 0.0030795418683 0.0030876326906 0.0030957550756 0.0031039098858 0.0031120965348 0.0031203157054 0.0031285673342 0.0031368515548 
0.0031451685558 0.0031535184988 0.0031619015461 0.0031703178996 0.0031787674803 0.0031872508222 0.0031957678855 0.0032043189213 0.0032129040605 
0.0029738674597 0.0029815416183 0.0029892456047 0.0029969792767 0.0030047427007 0.0030125366887 0.0030203609843 0.0030282155774 0.0030361009513 
0.0030440171926 0.0030519641103 0.0030599423538 0.0030679519326 0.0030759926576 0.0030840649652 0.0030921686445 0.0031003046663 0.0031084722874 
0.003116672414 0.0031249049158 0.00313316979 0.0031414673994 0.0031497978364 0.0031581612631 0.0031665578613 0.0031749876167 0.003183451015 
0.0031919479741 0.0032004788289 0.0032090437481 0.0029705551062 0.0029782123507 0.0029858990621 0.0029936154909 0.0030013615712 0.0030091379281 
0.0030169446113 0.0030247815047 0.0030326489771 0.0030405472728 0.003048476108 0.003056435989 0.0030644271846 0.003072449359 0.0030805033305 
0.0030885884221 0.0030967055421 0.0031048545701 0.003113035713 0.0031212490159 0.0031294947295 0.0031377729313 0.0031460839114 0.0031544277667 
0.0031628046739 0.0031712147696 0.0031796581198 0.0031881350559 0.0031966457502 0.0032051903788 0.0029672485757 0.002974888794 0.0029825583817 
0.0029902576533 0.002997986762 0.003005745364 0.0030135344642 0.0030213537014 0.0030292032895 0.0030370836647 0.0030449944997 0.0030529362343 
0.0030609090262 0.0030689129857 0.0030769482971 0.0030850148094 0.0030931129962 0.0031012435343 0.0031094057042 0.0031175999656 0.0031258265893 
0.0031340854794 0.0031423769904 0.0031507013111 0.0031590585966 0.0031674489552 0.0031758724227 0.0031843293823 0.0031928199977 0.0032013443479 
0.0029639481848 0.00297157147 0.0029792239175 0.002986906014 0.0029946178605 0.0030023590642 0.00301013055 0.0030179322111 0.0030257641208 
0.0030336265816 0.0030415194533 0.0030494431412 0.0030573976632 0.0030653834051 0.0030734001748 0.003081448397 0.0030895277976 0.0030976391396 
0.0031057823439 0.0031139576261 0.0031221652249 0.0031304051473 0.003138677358 0.0031469821376 0.0031553198155 0.0031636904571 0.0031720942332 
0.0031805311476 0.0031890016193 0.003197505859 0.0029606538609 0.0029682603205 0.0029758957733 0.0029835606443 0.0029912551661 0.002998979189 
0.0030067332058 0.003014517281 0.003022331507 0.003030176051 0.003038051086 0.0030459567336 0.0030538931125 0.00306186057 0.0030698590717 
0.0030778886754 0.0030859494654 0.0030940420035 0.0031021664868 0.0031103227832 0.0031185112195 0.0031267317106 0.003134984615 0.0031432701679 
0.0031515882839 0.0031599392715 0.0031683233666 0.0031767403814 0.0031851909617 0.0031936750607 0.0029573657862 0.0029649554779 0.0029725740129 
0.0029802218522 0.0029878990294 0.0029956056424 0.0030033422303 0.0030111089283 0.0030189055084 0.0030267322926 0.0030345894596 0.0030424771164 
0.0030503953748 0.0030583446336 0.0030663247762 0.0030743358451 0.0030823781597 0.0030904521781 0.0030985577683 0.0031066951514 0.0031148644634 
0.0031230659448 0.0031312996152 0.0031395656205 0.0031478643026 0.0031561956487 0.0031645598937 0.0031729573438 0.0031813878567 0.0031898518017 
0.0029540844682 0.0029616569874 0.0029692586864 0.0029768895111 0.0029845496529 0.0029922393378 0.0029999582271 0.0030077072843 0.0030154863398 
0.0030232954142 0.0030311348743 0.0030390045456 0.0030469048131 0.0030548358082 0.0030627976735 0.0030707903559 0.0030788142454 0.0030868695256 
0.0030949563955 0.0031030748248 0.0031112251658 0.0031194075343 0.0031276219764 0.0031358687467 0.0031441480374 0.0031524597454 0.0031608043311 
0.0031691819278 0.0031775925385 0.003186036521 0.0029508095336 0.0029583653333 0.0029659500206 0.0029735640451 0.0029812070298 0.0029888794111 
0.002996581018 0.0030043125335 0.0030120741011 0.0030198655134 0.0030276872035 0.0030355390897 0.003043421297 0.0030513341655 0.0030592777993 
0.0030672521293 0.0030752577344 0.0030832942498 0.0030913624053 0.003099461972 0.0031075934307 0.0031157567496 0.0031239520298 0.0031321794888 
0.0031404393036 0.0031487316708 0.0031570566564 0.003165414435 0.0031738051964 0.0031822292059 0.002947541226 0.0029550803527 0.0029626482791 
0.0029702453089 0.0029778712966 0.0029855264781 0.0029932107514 0.0030009248791 0.0030086688926 0.0030164426207 0.0030242465664 0.0030320806956 
0.0030399449461 0.0030478396542 0.0030557652301 0.0030637212568 0.0030717084377 0.0030797265205 0.0030877759508 0.0030958568994 0.0031039693147 
0.003112113574 0.0031202898092 0.003128498034 0.0031367384692 0.0031450113415 0.0031533168255 0.0031616549504 0.0031700259982 0.0031784298416 
0.0029442797111 0.0029518021237 0.0029593532689 0.0029669332821 0.0029745423974 0.0029821804418 0.0029898476041 0.002997544389 0.003005270921 
0.003013026976 0.0030208131937 0.0030286294143 0.0030364758026 0.0030443524391 0.0030522597907 0.0030601978021 0.0030681666118 0.0030761662146 
0.0030841971273 0.0030922592557 0.0031003529258 0.0031084781242 0.0031166352643 0.0031248242764 0.0031330454232 0.0031412988745 0.0031495847885 
0.0031579032954 0.0031662546096 0.0031746386424 0.0029410247382 0.0029485306453 0.0029560650808 0.0029636282447 0.0029712202197 0.0029788414889 
0.0029864917009 0.0029941708782 0.0030018799239 0.0030096186236 0.0030173871074 0.0030251856624 0.0030330141294 0.0030408727526 0.0030487619308 
0.0030566816831 0.003064632176 0.0030726134084 0.003080625787 0.003088669315 0.0030967441166 0.0031048505894 0.003112988486 0.0031211584176 
0.0031293603376 0.0031375944219 0.0031458607892 0.0031541597181 0.0031624912324 0.0031708556087 0.0029377767282 0.0029452659772 0.0029527838019 
0.0029603302149 0.0029679053198 0.0029755095122 0.0029831426007 0.0029908045627 0.0029984961729 0.0030062174606 0.0030139683507 0.003021749199 
0.0030295598548 0.0030374005953 0.0030452715388 0.003053173077 0.0030611053755 0.0030690683065 0.0030770619899 0.0030850869604 0.0030931431181 
0.003101230517 0.003109349613 0.0031175004131 0.0031256831527 0.0031338978854 0.0031421448013 0.0031504241669 0.0031587359916 0.0031670805853 
0.0029345356762 0.0029420083526 0.0029495094351 0.0029570390427 0.0029645973723 0.0029721844275 0.0029798005943 0.0029874453229 0.0029951196336 
0.0030028234059 0.0030105568096 0.003018319994 0.0030261129174 0.003033935764 0.0030417887816 0.0030496721882 0.0030575861557 0.0030655307197 
0.0030735059566 0.0030815122864 0.0030895496666 0.0030976183738 0.0031057185884 0.0031138503468 0.0031220138829 0.0031302092945 0.0031384368065 
0.0031466966482 0.00315498885 0.0031633136763 0.0029313013956 0.0029387576389 0.0029462421334 0.0029537549507 0.0029612964039 0.0029688665541 
0.0029764655268 0.0029840932226 0.002991750246 0.0029994366278 0.0030071525397 0.0030148981342 0.0030226733256 0.0030304783307 0.0030383132241 
0.0030461786741 0.0030540744841 0.0030620007394 0.0030699575321 0.0030779454198 0.0030859640653 0.0030940140323 0.0031020952945 0.0031102082366 
0.0031183525701 0.0031265287496 0.0031347368444 0.0031429771837 0.0031512497901 0.0031595549021 0.0029280741304 0.0029355137674 0.002942981703 
0.0029504778884 0.0029580025346 0.0029655558117 0.0029731377185 0.0029807486366 0.00298838812 0.0029960571617 0.0030037556187 0.0030114835918 
0.0030192410687 0.0030270281633 0.0030348453058 0.0030426928002 0.0030505703046 0.0030584782903 0.0030664168534 0.0030743859965 0.0030823861641 
0.0030904175029 0.0030984799516 0.0031065738199 0.0031146991281 0.003122856005 0.0031310449073 0.0031392658227 0.0031475188928 0.0031558042921 
0.0029248536493 0.002932277048 0.0029397283065 0.0029472077589 0.002954715664 0.0029622520805 0.002969817026 0.0029774106582 0.0029850331746 
0.0029926849193 0.0030003658762 0.0030080763343 0.0030158162661 0.0030235855506 0.0030313848386 0.0030392143333 0.0030470737089 0.0030549634857 
0.0030628836418 0.0030708343246 0.0030788159197 0.0030868285005 0.0030948720954 0.0031029472459 0.0031110535006 0.0031191912408 0.0031273606726 
0.0031355622343 0.0031437958162 0.0031520615784 0.0029216399295 0.0029290469483 0.0029364818621 0.0029439448331 0.0029514358853 0.0029589554905 
0.0029665034037 0.0029740800241 0.0029816852304 0.0029893198623 0.0029969834539 0.0030046764238 0.0030123986982 0.0030201503255 0.0030279318029 
0.0030357433305 0.0030435846975 0.0030514561569 0.0030593580856 0.0030672903613 0.0030752534078 0.0030832473457 0.0030912722953 0.0030993283457 
0.003107415671 0.0031155343018 0.0031236847573 0.0031318667463 0.003140080839 0.0031483270132 0.0029184331039 0.0029258237954 0.0029332421332 
0.0029406885774 0.0029481631151 0.0029556658045 0.0029631969264 0.0029707565429 0.0029783446553 0.0029859619679 0.0029936082185 0.0030012836463 
0.0030089884199 0.0030167223922 0.0030244860853 0.0030322795774 0.0030401030371 0.0030479563959 0.0030558400737 0.0030637540962 0.003071698554 
0.0030796738502 0.0030876801023 0.0030957172904 0.0031037856439 0.0031118852687 0.0031200162676 0.0031281790306 0.0031363737361 0.0031446003615 
0.002915232975 0.0029226073625 0.0029300094334 0.0029374393266 0.0029448972344 0.0029523833224 0.0029598973466 0.0029674398832 0.0029750112349 
0.0029826110381 0.0029902401387 0.0029978981582 0.0030055851914 0.0030133015902 0.0030210475165 0.0030288231254 0.0030366285862 0.0030444639255 
0.0030523293724 0.0030602250899 0.0030681511252 0.0030761078281 0.0030840953174 0.0030921136114 0.0031001630511 0.0031082437187 0.0031163557274 
0.003124499254 0.0031326743775 0.0031408815236 0.0029120392455 0.002919397339 0.0029267832396 0.0029341966578 0.0029416379753 0.0029491073646 
0.0029566047685 0.0029641305873 0.0029716848291 0.0029792672509 0.0029868789108 0.0029945197015 0.003002189362 0.0030098882124 0.0030176163265 
0.0030253739843 0.0030331615052 0.0030409787421 0.0030488259653 0.0030567034116 0.0030646112154 0.0030725494081 0.0030805182319 0.0030885177924 
0.0030965483751 0.003104610044 0.0031127028385 0.0031208272759 0.0031289831517 0.0031371706761 0.002908852401 0.0029161942112 0.002923563594 
0.0029309606817 0.0029383855403 0.0029458382141 0.0029533188868 0.0029608278333 0.0029683650713 0.0029759305957 0.0029835249521 0.0029911484178 
0.0029988005406 0.0030064818554 0.003014192191 0.0030219320114 0.0030297015103 0.0030375008474 0.0030453300195 0.0030531891831 0.003061078626 
0.0030689982203 0.0030769484547 0.0030849293621 0.003092941185 0.0031009838264 0.0031090578015 0.0031171629112 0.0031252993948 0.0031334675349 
0.0029056721156 0.0029129977595 0.0029203507351 0.0029277312925 0.0029351396631 0.0029425757208 0.0029500397502 0.0029575318508 0.0029650521414 
0.0029726008716 0.0029801777007 0.002987783655 0.0029954183388 0.0030030822055 0.0030107752033 0.0030184973757 0.0030262489208 0.003034030228 
0.0030418413382 0.0030496820669 0.0030575533728 0.0030654545445 0.0030733861289 0.0030813482555 0.0030893411889 0.0030973649163 0.0031054198117 
0.0031135057552 0.0031216230259 0.0031297719864 0.0029024982009 0.0029098077155 0.0029171444658 0.0029245086303 0.0029319003884 0.0029393198677 
0.0029467672182 0.0029542424998 0.0029617457749 0.0029692773191 0.0029768372572 0.0029844259485 0.0029920431978 0.0029996894976 0.0030073649644 
0.003015069414 0.0030228031289 0.0030305667034 0.0030383597404 0.0030461824485 0.0030540351681 0.0030619179795 0.0030698309096 0.0030777744294 
0.0030857485875 0.00309375339 0.0031017892505 0.0031098560635 0.0031179540894 0.0031260836842 0.002899330535 0.0029066239217 0.0029139444572 
0.0029212922619 0.0029286675604 0.0029360702259 0.0029435010163 0.0029509595207 0.0029584460389 0.0029659606598 0.0029735034215 0.0029810749352 
0.0029886747819 0.0029963035019 0.0030039617027 0.0030116484153 0.0030193643638 0.0030271098179 0.0030348848574 0.0030426896158 0.0030505239417 
0.0030583883516 0.0030662827743 0.0030742075353 0.0030821629443 0.003090148893 0.0030981657885 0.0031062135703 0.0031142925413 0.0031224025792 
0.002896168956 0.0029034463211 0.0029107506499 0.0029180820085 0.0029254408597 0.0029328271461 0.0029402411243 0.0029476830299 0.0029551526907 
0.0029626503383 0.0029701760939 0.0029777304435 0.0029853129872 0.0029929243497 0.003000564817 0.0030082339362 0.0030159321287 0.0030236596742 
0.0030314167962 0.00303920334 0.0030470194852 0.0030548655897 0.0030627417355 0.003070647809 0.0030785845177 0.0030865515392 0.0030945494317 
0.0031025780936 0.0031106378935 0.0031187287667 0.0028930133315 0.0029002745267 0.0029075628226 0.0029148779986 0.002922220449 0.0029295902402 
0.0029369875956 0.0029444126489 0.0029518654557 0.0029593463356 0.0029668551049 0.0029743919921 0.0029819573614 0.0029895515261 0.0029971742503 
0.0030048259967 0.0030125064137 0.0030202160807 0.0030279552837 0.003035723628 0.0030435215581 0.0030513493267 0.0030592070138 0.0030670946436 
0.0030750127 0.0030829609394 0.0030909398506 0.0030989494493 0.0031069901023 0.0031150616339 0.0028898637164 0.0028971089288 0.0029043809241 
0.0029116798114 0.0029190059661 0.0029263593276 0.0029337402206 0.0029411485495 0.002948584543 0.0029560482586 0.0029635401321 0.0029710597793 
0.0029786080744 0.002986184743 0.0029937900422 0.0030014239791 0.0030090868977 0.0030167788718 0.0030244999075 0.0030322503403 0.0030400301603 
0.0030478396124 0.0030556788263 0.0030635479707 0.0030714473564 0.00307937687 0.0030873369845 0.0030953278274 0.0031033490628 0.0031114012759 
0.0030158646875 0.0030236702916 0.003031506297 0.003039372699 0.003047269605 0.0030551976166 0.0030631565012 0.0030711463417 0.0030791677179 
0.0030872202247 0.0030953043908 0.0031034202495 0.0031115680952 0.0031197480302 0.0031279597465 0.0031362040346 0.003144480992 0.0031527905559 
0.0031611327582 0.0031695081666 0.0031779167531 0.003186358651 0.0031948340378 0.0032033429618 0.0032118858591 0.0032204627077 0.003229073695 
0.0032377188808 0.0032463986609 0.0032551131188 0.0030124975971 0.003020285797 0.0030281042892 0.0030359530482 0.0030438321374 0.0030517420507 
0.0030596828791 0.0030676549797 0.0030756579473 0.0030836921186 0.0030917581487 0.0030998553597 0.003107984581 0.0031161458042 0.0031243386608 
0.0031325637901 0.0031408215241 0.0031491119273 0.0031574348351 0.0031657908115 0.0031741798159 0.0031826020322 0.0031910576234 0.0031995467532 