# vtk DataFile Version 5.1
vtk output
ASCII
DATASET STRUCTURED_POINTS
DIMENSIONS 20 20 40
SPACING 0.05 0.05 0.05
ORIGIN 3.225 -0.475 0.525
POINT_DATA 16000
FIELD FieldData 1
potential 1 16000 double
0.029180567039 0.029563118925 0.029914408684 0.030232473019 0.030521993092 0.030768977494 0.030977787165 0.031147167017 0.031276160089 
0.03136403544 0.031410180657 0.031414416126 0.031376724476 0.031297347043 0.031176684996 0.031015461092 0.030814453967 0.030574858304 
0.030297947217 0.029985181802 0.027409707046 0.027754882731 0.028071819611 0.028358664502 0.028620093024 0.028842499845 0.029030546152 
0.029182927247 0.029299097714 0.029378185335 0.029419719219 0.0294235454 0.02938961538 0.029318167097 0.029209551103 0.029064438274 
0.028883378841 0.028667474043 0.028417848913 0.028135810989 0.025768502611 0.026080391234 0.026366601267 0.026625628072 0.026861833832 
0.027062292507 0.027231766079 0.027369229964 0.027473926137 0.027545115758 0.027582568886 0.027585975413 0.027555461574 0.027490922805 
0.027392954825 0.027261983425 0.027098658469 0.026903776514 0.026678517426 0.02642400554 0.024247650524 0.024529778788 0.024788630328 
0.025022833064 0.025236230429 0.025417071266 0.025569972093 0.025693928776 0.025788284967 0.025852565349 0.025886281603 0.025889381692 
0.025861630775 0.02580341647 0.025714975475 0.025596579738 0.025449056438 0.025273068154 0.025069549601 0.024839534851 0.022839075332 
0.023094702921 0.023329129346 0.023541174568 0.023733974013 0.023897237606 0.024035245384 0.024147148549 0.0242323274 0.024290268443 
0.024320675764 0.024323361181 0.024298326132 0.024245646581 0.024165701094 0.024058645705 0.023925274898 0.023766136554 0.023582062241 
0.023373896225 0.021535532042 0.021767487277 0.021980123513 0.022172372225 0.022346478022 0.022494039066 0.022618723589 0.022719792388 
0.022796681654 0.022848976411 0.022876407727 0.022878763419 0.022856045859 0.022808351734 0.02273591461 0.022639096318 0.022518326764 
0.022374271861 0.022207565454 0.022019072648 0.020330141537 0.02054093998 0.020734103303 0.02090869406 0.021065734219 0.021199268919 
0.021311996139 0.021403388494 0.021472905974 0.021520145663 0.02154489273 0.021546945759 0.02152630773 0.021483049251 0.021417391783 
0.021329610866 0.021220141781 0.021089526725 0.020938340504 0.020767298913 0.01921586516 0.019407712868 0.019583437661 0.019742261676 
0.019883816956 0.020004800023 0.020106966243 0.020189736596 0.020252666427 0.020295439952 0.02031778287 0.020319601926 0.020300830881 
0.020261556839 0.020201952075 0.020122314543 0.020022957986 0.019904354935 0.019767045923 0.019611678919 0.018186196079 0.018361109327 
0.018521296197 0.018666048439 0.018793501902 0.018903291491 0.018995962093 0.01907105001 0.019128119788 0.019166889268 0.019187115994 
0.019188699906 0.019171634378 0.01913594857 0.019081786582 0.019009412773 0.018919106029 0.018811262887 0.018686405801 0.01854506676 
0.017234723422 0.017394463766 0.017540763156 0.017672950856 0.017787445496 0.017887293257 0.017971534769 0.018039758032 0.018091628952 
0.018126817493 0.01814518806 0.018146610281 0.018131062285 0.018098577551 0.0180493049 0.017983448254 0.017901265963 0.017803084195 
0.01768938584 0.017560595947 0.01635532458 0.016501491811 0.016635294844 0.016756187854 0.016858810677 0.016949757128 0.017026489357 
0.01708868052 0.017135892534 0.017167950222 0.017184695107 0.017186037488 0.017171879562 0.017142256286 0.017097373999 0.017037360351 
0.016962473228 0.016872979505 0.016769262146 0.016651758857 0.015542206145 0.015676195027 0.015798827658 0.015909644 0.016001288554 
0.016084302407 0.016154335207 0.01621106578 0.016254178749 0.016283483367 0.016298801865 0.016300035273 0.016287169112 0.016260225163 
0.016219323412 0.016164604781 0.01609626018 0.016014574974 0.015919858405 0.015812477648 0.014789659886 0.014912677863 0.01502531136 
0.01512710179 0.015208631211 0.015284577151 0.015348660529 0.01540055582 0.015440029099 0.015466853475 0.01548093061 0.015482142161 
0.015470490481 0.01544596619 0.015408663541 0.015358693965 0.015296258153 0.015221579783 0.01513494832 0.015036697806 0.014415185772 
0.01454048285 0.014656428295 0.014762599857 0.014890174273 0.014965476279 0.015028716049 0.015079738523 0.015118395774 0.015144613603 
0.015158362343 0.015159624587 0.015148439515 0.015124882563 0.015089078609 0.015041184819 0.014981391522 0.014909922692 0.014827043129 
0.014733043136 0.013758942145 0.013874113026 0.013980582556 0.014077981788 0.014187730144 0.014257605896 0.014316310465 0.01436371458 
0.014399690217 0.014424172664 0.014437115563 0.014438534883 0.014428454466 0.014406950054 0.014374146148 0.014330170772 0.014275200263 
0.014209430654 0.01413308807 0.014046443449 0.013148401455 0.013254376889 0.013352237533 0.013441630295 0.013535941142 0.013600894195 
0.013655478396 0.01369957754 0.013733103022 0.013755973374 0.013768164856 0.013769694439 0.013760602741 0.013740938323 0.013710819367 
0.01367037742 0.01361975416 0.013559120248 0.013488695954 0.01340869794 0.012579023135 0.012676637605 0.01276666266 0.012848781605 
0.012929826262 0.012990266091 0.013041089533 0.01308217181 0.013113435991 0.013134830872 0.013146319447 0.013147929287 0.013139703792 
0.013121700604 0.013093997599 0.013056729628 0.013010018428 0.012954027597 0.012888938938 0.012814960366 0.012046301936 0.01213630569 
0.01221919717 0.012294709892 0.012364460123 0.012420767194 0.012468123443 0.01250644944 0.012535642959 0.012555666984 0.01256649356 
0.012568155849 0.012560692089 0.012544156062 0.012518640558 0.012484232675 0.012441059216 0.012389248666 0.012328993277 0.012260460898 
0.011545890303 0.011628949153 0.011705360602 0.011774850432 0.011835067284 0.011887572351 0.011931770203 0.011967537101 0.01199482313 
0.012013576748 0.01202379071 0.012025483017 0.012018674674 0.012003449286 0.011979885779 0.011948064633 0.011908073974 0.011860064751 
0.011804178662 0.011740586236 0.011073665343 0.011150381141 0.011220855501 0.011284854109 0.011337140675 0.01138613854 0.011427391982 
0.011460824293 0.011486338262 0.011503913557 0.011513538977 0.011515224042 0.011509014359 0.011494962159 0.011473152779 0.011443647022 
0.011406546537 0.011361974592 0.011310069257 0.011250968995 0.031110488542 0.03151240603 0.031881185742 0.032214896426 0.032517813794 
0.032776548633 0.03299523553 0.033172533553 0.033307460116 0.033399287954 0.033447463682 0.033451506912 0.03341170672 0.033328149815 
0.033201270628 0.033031762516 0.032820568701 0.032568818957 0.032277919549 0.03194940067 0.02925805345 0.029621222609 0.029954411666 
0.030255849597 0.030529712981 0.030763047101 0.030960248069 0.031120162687 0.031241847163 0.031324575684 0.031367933547 0.031371746414 
0.031335766409 0.03126041507 0.031146001854 0.03099310646 0.030802582171 0.030575407849 0.030312761607 0.030016104303 0.027541739674 
0.02787040116 0.028171833237 0.028444447468 0.028692182866 0.028902851284 0.029080866588 0.029225239029 0.029335044156 0.029409732751 
0.029448842831 0.029452228817 0.029419798266 0.029351760313 0.029248335659 0.029110242149 0.028938118138 0.028732772363 0.028495461195 
0.028227300509 0.025950807325 0.026248670174 0.026521728514 0.026768649602 0.026992801597 0.027183233304 0.027344098633 0.027474507446 
0.027573732017 0.027641194668 0.027676522222 0.027679532118 0.027650207004 0.027588529079 0.027495004861 0.027370169425 0.02721443747 
0.027028682153 0.02681391529 0.026571315306 0.024475952233 0.024746267615 0.024994009522 0.025218020253 0.025420839169 0.025593124826 
0.025738620359 0.02585656107 0.025946283315 0.026007260226 0.026039170749 0.026041841744 0.026015247951 0.025959480243 0.025874860418 
0.025761748422 0.025620743736 0.02545247511 0.025257889022 0.025037893419 0.023109043076 0.0233546962 0.023579752087 0.023783169125 
0.023966636487 0.024122666815 0.02425443576 0.024361225004 0.024442391091 0.024497553683 0.024526404963 0.024528770987 0.024504597247 
0.024454042265 0.024377294545 0.024274728167 0.024146857074 0.02399428957 0.023817783232 0.023618161876 0.021842100844 0.022065730628 
0.022270539953 0.022455598709 0.022621483464 0.022762955599 0.022882392711 0.022979161229 0.023052724349 0.023102680311 0.023128800145 
0.023130898248 0.023108946351 0.023063031293 0.022993356137 0.022900259281 0.022784171095 0.022645619226 0.022485264712 0.02230384538 
0.020668182684 0.020872025463 0.021058680236 0.021227306484 0.021377116613 0.021505600121 0.021614029926 0.02170185766 0.021768625589 
0.021813976412 0.021837648576 0.021839501288 0.021819537228 0.0217778012 0.021714491746 0.021629889559 0.02152434727 0.021398334998 
0.021252483328 0.02108742079 0.01958038925 0.019766535618 0.019936916241 0.020090845817 0.020226026803 0.020342867499 0.020441460421 
0.020521296654 0.020581982482 0.020623198448 0.020644699733 0.020646378638 0.020628188622 0.02059020357 0.020532607955 0.020455607146 
0.020359539172 0.020244816399 0.020111965392 0.019961578909 0.018572345341 0.018742532843 0.018898336699 0.019039064441 0.019160855581 
0.019267307274 0.019357128238 0.019429853045 0.019485089386 0.019522622466 0.019542178552 0.019543718981 0.019527163821 0.019492569711 
0.019440092864 0.019369937919 0.019282369263 0.019177809524 0.019056655244 0.018919487187 0.01763784503 0.017793737851 0.017936428891 
0.018065322912 0.018174731859 0.018271894301 0.018353838298 0.018420177591 0.018470615244 0.018504869253 0.018522772906 0.018524263276 
0.018509149335 0.018477650925 0.018429748366 0.018365800916 0.018285921425 0.018190455003 0.01807984228 0.017954488389 0.016771057209 
0.016914112501 0.017045049214 0.017163320821 0.017261372827 0.017350157656 0.017425091381 0.017485769028 0.017531931206 0.017563302562 
0.017579730624 0.017581110088 0.017567426314 0.017538715425 0.017495059569 0.017436646572 0.017363667639 0.017276417471 0.017175250115 
0.017060560011 0.015966362554 0.016097827478 0.016218164051 0.016326878697 0.016414465776 0.016495838905 0.016564498441 0.016620142778 
0.016662460285 0.016691267534 0.016706412982 0.016707786093 0.016695390626 0.016669237145 0.016629373768 0.016575978825 0.016509244967 
0.016429422531 0.016336804855 0.016231745256 0.015549582941 0.015682231337 0.015804815848 0.01591688016 0.016048902756 0.016128426692 
0.016195121484 0.016248787689 0.016289303461 0.016316541274 0.016330457558 0.016331079531 0.016318403223 0.016292526667 0.016253573043 
0.016201707451 0.016137147867 0.01606011276 0.015970888687 0.015869804548 0.014843668606 0.01496568823 0.015078325329 0.015181183238 
0.015295353534 0.01536915264 0.01543105408 0.015480906503 0.015518575721 0.01554398856 0.015557086675 0.015557885566 0.015546427268 
0.015522751072 0.015486991144 0.015439316592 0.015379884403 0.015308905429 0.015226658299 0.01513341694 0.014185058127 0.014297402828 
0.014400984465 0.014495446769 0.01459414487 0.014662724614 0.014720271648 0.014766621707 0.01480169893 0.014825424122 0.014837751862 
0.014838697386 0.014828300763 0.014806608486 0.014773735165 0.014729829251 0.014675034625 0.014609558898 0.014533623564 0.014447476335 
0.013569297595 0.013672829538 0.013768183874 0.013855013081 0.013940369143 0.014004167005 0.0140576951 0.014100870749 0.014133564134 
0.014155733696 0.014167347825 0.01416840699 0.014158944548 0.014139038529 0.014108781844 0.014068276008 0.014017676562 0.013957164832 
0.013886938469 0.013807228311 0.012992124862 0.013087626689 0.013175474206 0.013255361739 0.01332931503 0.013388708857 0.013438587229 
0.013478813171 0.013509321432 0.013530052802 0.013540990888 0.013542124201 0.013533506676 0.01351519157 0.013487274378 0.013449855343 
0.013403048715 0.013347038778 0.013281997695 0.013208134595 0.012449476624 0.012537642638 0.012618634606 0.012692177844 0.012756494058 
0.012811841247 0.012858334837 0.012895863349 0.012924347908 0.012943742182 0.012954036382 0.012955230734 0.012947353688 0.012930473539 
0.012904663259 0.012870025037 0.012826662682 0.012774727793 0.012714400196 0.012645849096 0.011937534927 0.01201899522 0.012093730179 
0.012161478668 0.012217709585 0.0122693268 0.012312693715 0.012347717956 0.012374331035 0.012392485682 0.012402165169 0.012403378132 
0.012396158422 0.012380568277 0.012356669795 0.012324551813 0.012284317007 0.012236097366 0.012180051094 0.012116347218 0.032922641515 
0.033341059297 0.033725043308 0.034072262477 0.034386801137 0.03465569821 0.03488289807 0.035067058166 0.035207147728 0.035302345091 
0.035352089008 0.035356161214 0.035314472351 0.035227299928 0.035095067855 0.034918463191 0.034698488006 0.034436312529 0.03413332629 
0.033791153004 0.030998591884 0.031377456718 0.03172487419 0.032039014539 0.032323760046 0.032566684828 0.032771890074 0.03293823339 
0.033064749934 0.033150661276 0.033195622451 0.033199285675 0.033161691776 0.033082867852 0.032963404142 0.032803874004 0.032605093357 
0.032368151795 0.032094165624 0.031784795329 0.029215360516 0.029558799875 0.029873633484 0.030158235812 0.03041613758 0.030635841135 
0.03082142889 0.030971791293 0.031086149652 0.031163910715 0.031204531701 0.0312077683 0.031173717616 0.0311024935 0.030994435345 
0.030850075196 0.03067014739 0.030455698855 0.030207755222 0.029927603291 0.027561349232 0.027873105611 0.028158802874 0.028417005444 
0.028650725934 0.028849627588 0.029017620722 0.02915375038 0.029257266293 0.029327610215 0.029364332073 0.029367293183 0.02933635878 
0.029271799824 0.02917387502 0.029043129802 0.028880315937 0.028685991827 0.028461287247 0.028207229992 0.026026412926 0.026309829388 
0.026569469211 0.026804042959 0.027015847317 0.027196186072 0.027348396035 0.027471721209 0.027565456765 0.027629140912 0.027662379945 
0.027665066942 0.027637067495 0.027578541374 0.027489775232 0.027371186021 0.027223416419 0.027047125093 0.026843187133 0.026612647209 
0.024601742879 0.024859762753 0.025096015929 0.025309453267 0.025501318654 0.025664927074 0.025803012648 0.025914870497 0.025999882568 
0.026057625065 0.026087765275 0.02609012108 0.026064686257 0.026011538599 0.025930929621 0.025823250975 0.02568900835 0.025528875566 
0.025343553969 0.025133962738 0.023278903842 0.023514103311 0.023729427772 0.023923895896 0.024097674756 0.024246317252 0.024371776727 
0.02447337442 0.024550593957 0.024603021736 0.02463037668 0.024632495472 0.024609358259 0.02456104604 0.024487765304 0.024389885411 
0.024267832404 0.024122150756 0.023953543816 0.023762792008 0.022050624492 0.022265342124 0.022461884696 0.02263937707 0.022796665867 
0.02293191253 0.023046022005 0.023138412509 0.023208641257 0.023256323576 0.023281184638 0.023283084828 0.023262025813 0.023218064498 
0.023151391085 0.02306228826 0.022951152824 0.022818482651 0.022664895672 0.022491062 0.02090988628 0.021106218631 0.021285900756 
0.021448143575 0.021590341977 0.021713597452 0.021817546797 0.021901727889 0.021965663453 0.022009087294 0.02203173441 0.022033481085 
0.022014288427 0.021974237443 0.021913485172 0.021832295152 0.021731000742 0.021610040222 0.021469948912 0.021311340184 0.019850183784 
0.020029951377 0.020194443708 0.020342964051 0.020471317733 0.020583827185 0.020678721059 0.020755530637 0.020813891978 0.020853496437 
0.020874202656 0.020875792395 0.020858321036 0.020821807505 0.020766408439 0.020692328775 0.020599891233 0.020489487708 0.020361542001 
0.020216637565 0.018865343653 0.019030211569 0.01918096603 0.019317159355 0.019432805907 0.019535626184 0.019622357996 0.019692569159 
0.019745940956 0.019782192632 0.019801157038 0.019802705178 0.019786798513 0.019753576618 0.019703009587 0.019635395832 0.019550881903 
0.01944996786 0.019332999155 0.019200439037 0.017949368853 0.018100782435 0.018239318527 0.018364430974 0.018468364041 0.01856253113 
0.0186419573 0.018706264456 0.018755185772 0.01878844654 0.018805887428 0.018807431513 0.018793005275 0.018762633859 0.018716470561 
0.018654650174 0.018577402556 0.018485064582 0.01837798712 0.018256584638 0.017096834471 0.017236126009 0.017363538082 0.01747864323 
0.01757182416 0.017658225522 0.017731132984 0.017790183549 0.017835143574 0.017865755978 0.017881868192 0.017883411918 0.017870318944 
0.017842642729 0.017800446166 0.01774390029 0.017673209641 0.017588641839 0.017490501345 0.017379173389 0.016641714325 0.016781129731 
0.016909794522 0.017027238685 0.017162789955 0.01724621796 0.017316065314 0.017372152235 0.017414313019 0.017442463709 0.017456528241 
0.017456485429 0.017442394453 0.017414326586 0.017372405401 0.01731682645 0.017247795738 0.017165558109 0.017070427851 0.016962740189 
0.015890092209 0.016018423368 0.016136731564 0.016244582413 0.016362359448 0.016439796381 0.016504633847 0.016556708459 0.016595909491 
0.016622153373 0.016635358697 0.016635544933 0.0166227372 0.016597009119 0.016558471266 0.016507310503 0.016443695506 0.016367862346 
0.016280089665 0.016180663729 0.015187250786 0.015305486275 0.015414361858 0.015513489021 0.015615812327 0.015687754046 0.015748006935 
0.015796439271 0.015832930038 0.015857410249 0.015869827038 0.015870188988 0.015858523604 0.015834905191 0.015799442914 0.015752265743 
0.015693560699 0.015623529742 0.01554241822 0.01545050248 0.01452886069 0.014637884108 0.014738156672 0.014829348246 0.014918336499 
0.014985227397 0.015041290241 0.015086371717 0.015120377821 0.015143234657 0.015154914211 0.01515541816 0.015144777947 0.015123051958 
0.015090353828 0.01504680421 0.014992545883 0.014927772544 0.014852717759 0.014767619765 0.013910827773 0.014011445739 0.014103877857 
0.014187809842 0.014265379964 0.014327649603 0.014379845961 0.014421848162 0.014453557512 0.014474912907 0.014485904335 0.014486520975 
0.014476775728 0.014456765012 0.014426564212 0.014386287395 0.014336065236 0.014276080221 0.014206530734 0.014127620939 0.013329294585 
0.013422220415 0.013507484042 0.013584794943 0.013652663597 0.013710675353 0.013759313467 0.013798465738 0.013828054605 0.013848026821 
0.013858353936 0.013859043357 0.01385012133 0.013831652519 0.013803707726 0.013766388064 0.013719837882 0.013664200415 0.013599660005 
0.013526413308 0.01278067445 0.012866570276 0.012945281706 0.013016538065 0.013076233974 0.01313030724 0.013175652352 0.013212172903 
0.013239794183 0.013258468905 0.013268167097 0.013268908571 0.0132607019 0.013243617983 0.013217724484 0.013183109315 0.013139894838 
0.01308822438 0.013028256471 0.012960166156 0.034612920363 0.03504552089 0.035442093939 0.035800783217 0.036125084125 0.036402563083 
0.036636918956 0.036826808543 0.036971210499 0.037069236343 0.037120390229 0.037124374512 0.037081139315 0.036990873643 0.03685411866 
0.03667158276 0.036444241017 0.036173310374 0.035860146459 0.035506566674 0.032628095568 0.033020356707 0.033379940995 0.033704961328 
0.033998954413 0.034250068562 0.034462108893 0.034633923806 0.034764524912 0.034853233712 0.034899477541 0.034903065539 0.034863938206 
0.034782334648 0.03465852454 0.034493301775 0.034287513949 0.034042187847 0.033758662276 0.033438405534 0.030786957928 0.031143157565 
0.03146955566 0.031764493432 0.03203117879 0.032258683298 0.032450756249 0.032606372349 0.032724677986 0.032804944504 0.032846861157 
0.03285007424 0.03281463819 0.032740554199 0.032628407727 0.032478785132 0.03229226451 0.032069856412 0.031812808019 0.031522434454 
0.029077506767 0.029401371154 0.029698085369 0.029966155023 0.030208155847 0.030414514687 0.030588663574 0.030729778632 0.030836996962 
0.03090976839 0.030947735078 0.030950644025 0.030918488539 0.030851388091 0.030749698028 0.030613870685 0.030444675527 0.030242773407 
0.030009428474 0.029745649069 0.027489380572 0.027784247193 0.028054276124 0.028298207698 0.028517846408 0.028705193958 0.028863302719 
0.028991350497 0.029088706261 0.029154742034 0.029189181741 0.029191793032 0.029162574616 0.02910163168 0.029009236396 0.028885866677 
0.028732116097 0.028548735845 0.028336606003 0.028096759475 0.026012952976 0.026281838947 0.026528010817 0.026750317674 0.026949640208 
0.027119940925 0.027263652223 0.027380020234 0.027468443103 0.027528437747 0.027559702817 0.027562091805 0.027535511311 0.027480079727 
0.027396071052 0.027283873495 0.027144043556 0.026977179043 0.0267840977 0.026565720637 0.024640029668 0.024885504717 0.025110187749 
0.025313053595 0.025493880097 0.025648917776 0.025779707561 0.025885601213 0.025966047276 0.026020661328 0.026049112984 0.026051235486 
0.026027030894 0.025976601254 0.025900132153 0.025797984586 0.025670618565 0.025518615644 0.025342679739 0.025143624745 0.023362846884 
0.023587285478 0.023792665439 0.023978087813 0.024142043797 0.024283365844 0.024402543961 0.024499023767 0.024572340035 0.024622085602 
0.024647999399 0.024649959207 0.024627901711 0.024581945721 0.024512259396 0.024419158491 0.024303031611 0.024164410043 0.02400388814 
0.023822222355 0.022174319678 0.022379793591 0.022567804517 0.0227375499 0.022886050701 0.023015040195 0.023123837207 0.023211914838 
0.023278793946 0.02332416047 0.023347839172 0.023349660538 0.023329570544 0.023287646244 0.023224086174 0.023139120347 0.023033122915 
0.022906549434 0.022759961843 0.022593978373 0.021067874674 0.021256252635 0.021428601351 0.021584173265 0.021718500353 0.021836412861 
0.02193584116 0.022016332513 0.022077555942 0.022119085095 0.022140761542 0.022142473318 0.022124124184 0.02208589618 0.022027846703 
0.021950189915 0.021853334278 0.021737705018 0.021603669555 0.021451832392 0.020037257703 0.020210251746 0.020368493169 0.020511319823 
0.020632595233 0.020740484417 0.020831537595 0.020905254416 0.020961308538 0.020999379917 0.021019363732 0.021021021286 0.021004375068 
0.020969471199 0.020916442777 0.020845494898 0.020756915849 0.020651049033 0.020528332874 0.020389248495 0.019076601448 0.019235642776 
0.019381113045 0.019512468279 0.019621777371 0.019720789864 0.019804311765 0.019871971279 0.019923411129 0.019958405771 0.019976770013 
0.019978417795 0.019963285071 0.019931437409 0.01988296994 0.019818055005 0.019736949348 0.019639977915 0.01952750313 0.01939997199 
0.018180440857 0.01832688404 0.018460827476 0.018581779058 0.01868007016 0.018771060844 0.018847840941 0.018910060719 0.01895741218 
0.018989677555 0.019006692166 0.01900835425 0.018994636196 0.018965576384 0.018921243574 0.018861816125 0.018787512201 0.018698591434 
0.01859540469 0.018478331045 0.017690824514 0.017836415192 0.017970610427 0.018092917119 0.018231120887 0.018318103357 0.018390817294 
0.018449077644 0.018492724955 0.018521649395 0.018535785373 0.018535107819 0.018519670679 0.018489533727 0.018444851559 0.018385802974 
0.018312612167 0.018225543648 0.018124932794 0.018011110078 0.01689734032 0.01703145425 0.017154934665 0.017267349019 0.017387916585 
0.017468654362 0.017536172462 0.017590279338 0.017630858777 0.017657810648 0.017671074043 0.017670645034 0.017656557323 0.017628886014 
0.017587754931 0.01753332945 0.017465814603 0.017385449554 0.017292519121 0.017187351532 0.016153951936 0.016277598833 0.016391318179 
0.016494717905 0.016599943647 0.016674951421 0.01673770188 0.016788015896 0.016825782035 0.016850911236 0.016863383385 0.016863158473 
0.016850289887 0.01682483729 0.016786932237 0.016736702885 0.016674326061 0.016600044415 0.016514098047 0.016416791722 0.015456470047 
0.015570552685 0.015675360716 0.015770533416 0.015862507851 0.015932266874 0.015990632778 0.016037452075 0.016072638713 0.016096100413 
0.016107811763 0.016107757279 0.01609597498 0.016072532646 0.016037531145 0.015991107316 0.015933414909 0.015864659263 0.015785073851 
0.015694919971 0.014800924897 0.014906268188 0.015002929269 0.015090587393 0.015171182997 0.015236109773 0.015290445253 0.015334059795 
0.015366858395 0.015388774483 0.015399772496 0.015399860348 0.01538905168 0.01536742296 0.015335055053 0.015292081772 0.015238644954 
0.015174916022 0.015101122603 0.015017495747 0.014183603865 0.014280953161 0.014370170648 0.014450955509 0.014521851466 0.01458233183 
0.01463294897 0.014673598069 0.014704189813 0.014724660029 0.014734994857 0.014735178648 0.014725244053 0.01470525242 0.014675288357 
0.014635446437 0.01458588086 0.014526745768 0.014458228717 0.014380551217 0.013601099075 0.013691125132 0.013773529454 0.013848030531 
0.013910725916 0.013967092202 0.014014276676 0.01405217752 0.014080718919 0.014099851344 0.014109540305 0.014109795226 0.01410064703 
0.014082134277 0.014054332291 0.014017352743 0.013971321545 0.013916375034 0.013852689904 0.013780455621 0.036179674447 0.036623780354 
0.037030900103 0.037398881297 0.037731039332 0.03801550514 0.03825568475 0.038450266798 0.038598121085 0.038698481441 0.038750706994 
0.038754609747 0.038710099245 0.038617384736 0.038476894964 0.038289504245 0.03805617655 0.037778008508 0.037456814402 0.037093943776 
0.034144920705 0.034548335819 0.034918035785 0.03525210205 0.035553767599 0.035811656166 0.036029372564 0.036205683803 0.036339688501 
0.036430630317 0.036477993762 0.03648151745 0.036441084986 0.036357027694 0.036229757499 0.03605984681 0.035848205843 0.035596016719 
0.035304519779 0.034975252764 0.032255096486 0.032622067276 0.032958235551 0.033261909031 0.033535999963 0.033770070294 0.033967609813 
0.034127588089 0.03424916193 0.034331636119 0.034374583314 0.034377750293 0.034341111842 0.034264829018 0.034149357444 0.033995059024 
0.033803030843 0.033574052707 0.033309297625 0.033010056627 0.030498262158 0.030832527764 0.031138625213 0.031415077769 0.03166415507 
0.031876822323 0.032056267234 0.03220153987 0.032311925823 0.032386826436 0.032425843077 0.032428706077 0.032395420825 0.032326136 
0.032221147115 0.032081032464 0.031906450556 0.031698288608 0.031457543602 0.031185410818 0.028863879737 0.029168774208 0.029447835906 
0.029699811251 0.029926202061 0.030119615509 0.030282800087 0.030414923052 0.030515278441 0.03058335579 0.030618790854 0.030621391762 
0.030591126841 0.03052807521 0.03043258712 0.030305102572 0.030146243413 0.029956749774 0.029737544327 0.029489669715 0.02734232915 
0.02762070214 0.027875477063 0.028105464472 0.028311237347 0.028487394107 0.028635990017 0.028756281223 0.028847647933 0.028909620767 
0.028941893266 0.02894424976 0.028916669226 0.028859271041 0.028772324393 0.028656213031 0.028511476995 0.028338791802 0.028138973712 
0.027912952728 0.02592513884 0.026179676155 0.026412578727 0.026622818844 0.026809810103 0.026970423438 0.027105908733 0.027215556404 
0.027298839237 0.02735533355 0.027384732908 0.027386896093 0.027361761033 0.027309447401 0.027230188967 0.027124311299 0.026992302721 
0.026834760699 0.02665240808 0.026446056211 0.024604529052 0.024837584011 0.0250508151 0.025243236115 0.025413046219 0.025559720103 
0.025683407244 0.025783481511 0.025859510768 0.025911074065 0.025937935747 0.025939927311 0.025917011499 0.025869284125 0.025796945563 
0.025700302025 0.025579777445 0.025435896122 0.025269293842 0.025080710317 0.023373399038 0.023587056286 0.023782483078 0.023958860622 
0.024112916967 0.024247042813 0.024360112274 0.024451647412 0.024521159766 0.02456830611 0.024592860572 0.024594724787 0.024573836611 
0.024530284681 0.024464200647 0.024375896021 0.024265733265 0.024134174059 0.023981762792 0.023809257077 0.022225055959 0.022421211825 
0.022600560024 0.02276244859 0.022902068358 0.023024843628 0.02312838499 0.02321217645 0.023275844882 0.023319063035 0.023341624371 
0.023343403318 0.023324383869 0.023284582325 0.023224124948 0.023143418115 0.023042646158 0.022922258016 0.02278273906 0.022624671739 
0.021153321187 0.021333624706 0.021498502404 0.021647316607 0.021773663393 0.021886259027 0.021981174421 0.022058041076 0.022116466586 
0.022156165836 0.022176944706 0.022178707517 0.022161387498 0.022125033656 0.022069786952 0.021995889448 0.021903587892 0.021793265733 
0.021665381624 0.021520433527 0.020152328317 0.020318284438 0.020470047684 0.020607015658 0.020721171586 0.020824586458 0.020911821739 
0.020982453039 0.021036182936 0.02107274083 0.021091955687 0.021093694371 0.02107794079 0.021044732453 0.020994190838 0.02092649355 
0.020841900373 0.020740742259 0.020623401021 0.020490333809 0.019216696201 0.01936965283 0.019509505729 0.019635773176 0.019738689416 
0.019833877751 0.019914175661 0.019979235767 0.020028762102 0.020062545177 0.020080371432 0.020082155281 0.02006788376 0.020037557397 
0.019991289034 0.019929246916 0.019851655118 0.019758800416 0.019651032048 0.019528746866 0.018696301137 0.018847460339 0.018986633339 
0.019113314405 0.019253299078 0.019343489768 0.019418785476 0.019478984331 0.019523944053 0.01955352779 0.019567672265 0.019566363344 
0.019549627634 0.019517567629 0.019470307496 0.019408053635 0.019331015116 0.019239501265 0.019133818614 0.019014352867 0.017864671083 
0.018004018618 0.018132183816 0.018248713519 0.018371299249 0.018455021438 0.018524947823 0.018580878509 0.018622679035 0.01865023571 
0.018663510392 0.018662475624 0.018647166561 0.018617670441 0.018574116718 0.018516665351 0.018445519079 0.018360955479 0.018263258858 
0.018152765062 0.017084292143 0.017212853813 0.01733097561 0.017438237463 0.01754567504 0.017623475563 0.017688470131 0.017740484076 
0.017779383347 0.017805083193 0.017817532652 0.01781673443 0.017802710511 0.017775545309 0.017735335919 0.017682253322 0.017616473863 
0.017538226769 0.017447800178 0.017345481629 0.016351070265 0.016469775362 0.016578710191 0.016677502792 0.016771828405 0.016844196138 
0.016904657226 0.016953068054 0.016989298042 0.01701327911 0.017024973696 0.017024367976 0.017011500394 0.016986428484 0.016949265425 
0.016900146417 0.016839246891 0.016766771843 0.016682964943 0.016588098939 0.015661154745 0.01577083264 0.015871366829 0.015962420203 
0.016045464052 0.016112835928 0.016169124787 0.016214208763 0.016247980078 0.016270373507 0.016281349524 0.016280906374 0.016269069374 
0.016245910365 0.016211511434 0.016165991645 0.016109532563 0.016042318249 0.015964556814 0.015876500038 0.015010968567 0.01511237322 
0.015205225617 0.015289196657 0.015362600917 0.01542535333 0.015477793921 0.015519809808 0.015551302142 0.01557221394 0.015582513494 
0.015582192579 0.015571286836 0.015549844902 0.015517963923 0.0154757442 0.015423338903 0.015360923052 0.015288691234 0.015206858858 