# vtk DataFile Version 5.1
vtk output
ASCII
DATASET STRUCTURED_POINTS
DIMENSIONS 26 14 26
SPACING 0.08 0.08 0.08
ORIGIN 2.7 -0.52 0
POINT_DATA 9464
FIELD FieldData 1
potential 1 9464 double
0.010773257938 0.011194728138 0.011663250021 0.012183093245 0.012754869867 0.013375636031 0.014039021991 0.014736007682 0.015456280871 
0.016192217377 0.016944183824 0.017719170039 0.018520187033 0.019339102444 0.020156525176 0.020949811966 0.021712329743 0.022468271017 
0.023257942511 0.024106275231 0.024999280749 0.025885003753 0.026710026624 0.027468490378 0.028203171974 0.028964043862 0.011823131804 
0.012310602789 0.012837016553 0.013405403441 0.014016567896 0.014668925418 0.015358810415 0.016081196494 0.016830725718 0.017603392637 
0.018397748298 0.019214032032 0.020050854313 0.020902603261 0.021760259445 0.022615295879 0.023466223892 0.024321682994 0.025194894718 
0.026092823801 0.027008078145 0.027921432154 0.028815032893 0.029686820231 0.030552254767 0.031432832381 0.012471241139 0.012998211888 
0.013559117318 0.014156184565 0.014790059256 0.015460038467 0.016163977869 0.016898959058 0.017661819651 0.01844983385 0.019261039911 
0.020093859895 0.020945953867 0.021813446538 0.022691472913 0.023576075659 0.024466268399 0.025364604868 0.026274975687 0.027198622079 
0.028131599754 0.029066130082 0.029995627356 0.030919460722 0.031843891143 0.032778370998 0.012805506304 0.013354329403 0.013933659198 
0.014545070514 0.015189129189 0.015865550898 0.016573082021 0.017309908085 0.018073899631 0.018863000012 0.019675276201 0.020508791707 
0.021361258134 0.022229827865 0.023111380863 0.024003463012 0.024904885134 0.025815714804 0.026736447571 0.027666545895 0.028603538557 
0.029543826403 0.030484502772 0.031425165621 0.032368243602 0.03331761535 0.012867038313 0.013424955435 0.014010810908 0.014625720626 
0.015270168736 0.015944000122 0.016646444969 0.017376256792 0.018131914896 0.018911792709 0.019714147305 0.020537097975 0.021378644507 
0.022236590248 0.023108518529 0.023992524206 0.024887219113 0.025791689036 0.026705169938 0.027626474545 0.028553791801 0.029484960343 
0.030418205447 0.031352963009 0.032289762659 0.033229738521 0.012662123798 0.01321934758 0.01380237871 0.014412039457 0.01504869431 
0.015712247922 0.016402167168 0.017117518551 0.0178571771 0.018619735379 0.019403741745 0.020207459757 0.021029160739 0.021866970092 
0.022718985781 0.023583423371 0.02445881778 0.025343888752 0.026237343085 0.02713778663 0.028043638696 0.028953248694 0.02986511975 
0.030778283854 0.031692268221 0.032606745586 0.012060090192 0.012605493765 0.013175208028 0.013769759041 0.014389348977 0.015033848413 
0.015702885895 0.016395643635 0.017111170624 0.017848310651 0.018605803127 0.019382084521 0.020175564242 0.020984690744 0.021807730369 
0.02264301414 0.0234890738 0.024344452803 0.025207770671 0.026077438431 0.026951952252 0.027829782404 0.028709456674 0.029589701899 
0.030469397014 0.031347381296 0.011358612341 0.011895795854 0.012455277629 0.013037483047 0.013642563803 0.014270426485 0.014920729196 
0.015592848275 0.016285951075 0.016999088256 0.017731077868 0.018480640748 0.019246339586 0.020026779102 0.020820357036 0.021625507052 
0.022440777329 0.023264703626 0.024095801141 0.024932527767 0.025773344151 0.026616739849 0.027461177861 0.028305128779 0.029147207996 
0.029985792292 0.010752166759 0.011272272414 0.011813108711 0.012374970866 0.012957924135 0.013561849573 0.014186410413 0.014831136964 
0.015495225997 0.016177851561 0.016877964146 0.017594392955 0.01832586248 0.019071011964 0.019828495585 0.020596720621 0.021374330815 
0.022159821171 0.022951731099 0.023748625671 0.024548802036 0.025350746301 0.026152968531 0.026953789221 0.027751542377 0.028544397905 
0.010121944937 0.010620319809 0.01113793316 0.011674974505 0.012231437941 0.012807231888 0.013402015954 0.014015334366 0.014646495719 
0.0152947305 0.015959089928 0.016638506508 0.017331821236 0.018037745334 0.01875496466 0.019482175369 0.020217811132 0.020960543136 
0.021708899237 0.022461369698 0.023216479561 0.023972619257 0.024728159726 0.025481538696 0.026230936171 0.026974521902 0.0094473728539 
0.0099199362387 0.010410329067 0.010918649574 0.011444878815 0.011988848794 0.012550255792 0.01312868275 0.013723493061 0.01433397855 
0.014959271901 0.015598384765 0.016250226156 0.016913611276 0.017587279011 0.018269976799 0.018960200277 0.019656658144 0.020357907231 
0.021062528895 0.021769022345 0.022475904823 0.023181550726 0.023884273812 0.024582399637 0.025273985647 0.0087285014257 0.0091714409885 
0.0096308637218 0.010106762952 0.010599105304 0.011107722127 0.011632331028 0.012172549896 0.012727776468 0.013297359283 0.013880510774 
0.014476285552 0.015083655297 0.015701498042 0.016328599851 0.016963714966 0.017605583011 0.018252721324 0.018903874995 0.019557622029 
0.020212554576 0.02086720119 0.021520090539 0.02216956997 0.022813948411 0.023451481075 0.0080259217092 0.0084353363102 0.0088599096525 
0.0092996147867 0.0097543881243 0.010224062252 0.010708392968 0.011206962742 0.011719329236 0.01224481989 0.012782719531 0.013332128129 
0.01389205981 0.014461431459 0.015039062323 0.015623722997 0.016214248303 0.016809200105 0.017407303448 0.018007321212 0.018607860454 
0.019207569815 0.019805031533 0.020398775823 0.020987213888 0.021568587844 0.007246668576 0.0076183096363 0.0080038244875 0.0084031978323 
0.0088163189171 0.0092430534704 0.0096831639027 0.010136332417 0.010602154079 0.011080028949 0.011569267548 0.012069035774 0.012578328318 
0.013096071904 0.01362112399 0.014152263129 0.014688318357 0.01522799968 0.015770048336 0.016313228558 0.016856353452 0.017398155969 
0.017937352821 0.018472611195 0.019002536745 0.019525582789 0.01103047624 0.011468439929 0.011952261902 0.012486098629 0.013070657223 
0.013703328988 0.014378317304 0.015087442284 0.015821514034 0.016573817902 0.017344277752 0.018138219247 0.018957614264 0.019794872714 
0.020632826477 0.021452127075 0.022247345032 0.023038415729 0.023858437145 0.02472777395 0.025633957012 0.026533355213 0.027382087066 
0.028175775566 0.028950708926 0.029750892864 0.012007878844 0.01250538446 0.01304147352 0.013619108713 0.014239139437 0.014900141188 
0.015598716705 0.016330197565 0.017089606668 0.017873168532 0.018679321719 0.0195079434 0.020357427253 0.021222394224 0.022094506862 
0.022965978042 0.023835308589 0.024709856916 0.025600931923 0.026514308502 0.027443268495 0.028370806079 0.029281459054 0.030173699074 
0.031061566837 0.031964689356 0.012619486622 0.013153265322 0.013720907037 0.014324599253 0.014965009513 0.015641513814 0.016352096708 
0.017093998908 0.017864209182 0.018660081397 0.019479664707 0.020321283635 0.021182577381 0.022059769605 0.022948201072 0.023844075206 
0.024746307124 0.025657018462 0.026579486248 0.027514663956 0.028458817782 0.029404848228 0.03034684085 0.031284332639 0.032223170195 
0.033172138519 0.012934737749 0.01348854822 0.01407289377 0.014689327415 0.015338425505 0.016019943663 0.016732691768 0.017474931043 
0.018244601814 0.019039693164 0.019858281824 0.020698428265 0.021557850789 0.02243374298 0.023323045214 0.024223329688 0.025133340576 
0.02605297662 0.026982537539 0.027921383968 0.028867117792 0.029816346979 0.030766360253 0.031716789702 0.032669900737 0.033629294492 
0.012992065693 0.013553896709 0.014143725725 0.014762656777 0.015411179235 0.016089158672 0.016795849593 0.017530069712 0.018290308462 
0.019074974402 0.019882338623 0.020710532145 0.021557561639 0.022421248662 0.023299193036 0.024189486593 0.025090687526 0.026001857669 
0.026922110737 0.027850234774 0.02878443543 0.029722605162 0.03066302852 0.031605120537 0.032549330155 0.033496656984 0.012808962488 
0.013369659078 0.013956231209 0.014569494851 0.015209817192 0.015877114166 0.016570870286 0.017290172772 0.018033916873 0.018800711915 
0.019589117856 0.020397407757 0.021223860054 0.022066607495 0.022923751645 0.023793499235 0.024674365336 0.025565035757 0.02646418313 
0.027370391555 0.028282076777 0.02919759682 0.030115456791 0.031034666912 0.031954702312 0.032875161707 0.012402051093 0.012954715065 
0.013531396586 0.01413269368 0.014758858624 0.015409802068 0.016085187445 0.016784228187 0.017506000193 0.018249370295 0.019013096392 
0.019795630185 0.020595393806 0.02141084426 0.022240253117 0.023081949923 0.023934457722 0.024796305724 0.025666097758 0.026542233295 
0.027423201685 0.028307468211 0.02919355135 0.030080158201 0.030966134173 0.031850275863 0.011866211362 0.012405968202 0.012968067696 
0.013552933329 0.014160717637 0.014791330606 0.015444435879 0.01611941659 0.01681544723 0.01753158474 0.018266652784 0.019019375753 
0.019788320979 0.02057209214 0.021369086968 0.022177731632 0.022996568188 0.02382412013 0.024658890199 0.025499324645 0.026343873279 
0.027191014041 0.028039195627 0.028886870159 0.029732626792 0.030574810347 0.011287425453 0.011809583852 0.012352512439 0.012916505167 
0.013501627693 0.01410776291 0.014734577113 0.015381604249 0.016048045343 0.016733078275 0.017435656933 0.01815461315 0.018888672786 
0.019636475105 0.020396672554 0.021167668781 0.021948101131 0.022736456793 0.023531265971 0.024331032774 0.025134197439 0.025939082167 
0.026744234388 0.027547967257 0.028348563393 0.029144216223 0.010666137837 0.01116636355 0.011685859786 0.012224815185 0.012783223937 
0.013360995151 0.013957789997 0.014573154929 0.015206400245 0.015856759192 0.016523284711 0.017204911015 0.017900479779 0.018608702051 
0.019328262236 0.02005785335 0.020795905161 0.021541101832 0.022291905984 0.02304685801 0.023804454552 0.024563076114 0.0253210823 
0.026076897282 0.026828687061 0.027574606065 0.0099932358002 0.010467589932 0.010959798154 0.011469958057 0.011998050328 0.012543907106 
0.013107225172 0.013687588183 0.014284360553 0.014896835291 0.015524146089 0.016165305598 0.016819223475 0.017484714842 0.018160517715 
0.018845377438 0.019537786821 0.020236449752 0.020939917624 0.021646764851 0.022355483007 0.023064580261 0.023772421423 0.024477309792 
0.025177559059 0.025871215156 0.0092629782032 0.009707769468 0.010169061803 0.010646847465 0.011141092369 0.011651627369 0.012178169654 
0.012720336791 0.013277526543 0.013849087706 0.014434233291 0.015032018619 0.015641416938 0.016261306383 0.016890473276 0.0175276709 
0.018171636891 0.018820885788 0.019474157833 0.020130025577 0.020787074412 0.021443825138 0.022098797577 0.022750329769 0.023396721449 
0.024036217789 0.0084597026881 0.0088711784841 0.009297822196 0.009739606351 0.010196466443 0.010668233933 0.011154663166 0.011655335323 
0.012169806669 0.012697404173 0.013237412891 0.013788934296 0.014350984664 0.014922483081 0.015502250613 0.016089058644 0.016681738118 
0.017278844597 0.017879133374 0.018481322545 0.019084027681 0.019685890192 0.020285484163 0.020881330881 0.021471832877 0.022055224273 
0.0074778923645 0.0078520265454 0.0082400323201 0.0086418940376 0.0090574999438 0.0094867139993 0.0099292959946 0.010384924795 0.010853192231 
0.011333496349 0.011825147938 0.012327315859 0.012838999861 0.01335913226 0.013886564272 0.014420111332 0.014958570852 0.015500663876 
0.016045129995 0.016590729809 0.017136270616 0.017680478397 0.018222061471 0.018759677839 0.019291895656 0.019817244516 0.011720540331 
0.012201115962 0.012725145842 0.013296471375 0.013916017363 0.014581973095 0.01528991252 0.016033601664 0.016806231564 0.017602865355 
0.018422489072 0.019267281068 0.020137116906 0.021025549687 0.02192006407 0.022807548687 0.023684344428 0.024561950614 0.025459583874 
0.026388474053 0.027339507604 0.028285494883 0.029200916026 0.030084507399 0.030960800835 0.031861210638 0.012516752521 0.013041805417 
0.013604690067 0.014208197095 0.014853250424 0.015538869499 0.0162623229 0.017019827653 0.017807316177 0.018621546259 0.019460726897 
0.020323960671 0.021209186628 0.022111579341 0.023024336101 0.023941260144 0.02486069502 0.02578708996 0.026727511694 0.027685170704 
0.028654766412 0.029624361385 0.030583689441 0.031532431959 0.032481506099 0.033446220295 0.013028798295 0.01358184157 0.014168631888 
0.014791248925 0.015450417399 0.016145720253 0.016875482602 0.017637355682 0.018428717238 0.019247149332 0.020090686619 0.020957494685 
0.021845149212 0.022750155303 0.023668310796 0.02459619317 0.025532443226 0.026478115492 0.027435066032 0.028403505059 0.02938023272 
0.030359759388 0.031337738497 0.032314084509 0.033293613208 0.034283423808 0.013290286649 0.013858429474 0.014457222324 0.015088158782 
0.015751843372 0.016448139503 0.01717602811 0.017933973792 0.018720102928 0.019532532935 0.020369395464 0.021228691269 0.022108222038 
0.023005269839 0.023916924577 0.024840828481 0.025775508136 0.02672046855 0.027675500928 0.028639705573 0.029610864827 0.030586086577 
0.031563129377 0.032541685871 0.033523534321 0.034511672427 0.01332886854 0.013901963878 0.01450324046 0.015133773075 0.015794074109 
0.016484038538 0.017203050342 0.017949975833 0.018723468943 0.019521963668 0.020343804657 0.021187145469 0.022050008395 0.022930274531 
0.023825580973 0.024734007917 0.025654010034 0.026584460984 0.027524274759 0.028472129954 0.029426267686 0.030384708418 0.031345875656 
0.03230912543 0.033274637924 0.034243079495 0.013167790617 0.013737892951 0.014334062855 0.014957098544 0.015607374483 0.016284838761 
0.01698902216 0.017719072354 0.018473940245 0.019252282594 0.020052678026 0.02087347214 0.021712918406 0.022569183054 0.023440379175 
0.02432468844 0.025220566709 0.026126607642 0.027041390762 0.027963436348 0.028891144609 0.029822888042 0.030757166786 0.031692921519 
0.032629475928 0.033566219217 0.012836754573 0.013397637218 0.013982715008 0.01459256349 0.015227444433 0.015887295708 0.016571796507 
0.017280166794 0.018011562601 0.018764861549 0.019538808137 0.020331982874 0.021142713305 0.021969497001 0.022810585105 0.023664349341 
0.024529214011 0.025403677368 0.026286288315 0.027175402941 0.028069479644 0.028966957266 0.029866315879 0.030766195673 0.031665346268 
0.032562409897 0.012382039384 0.012928693445 0.0134978188 0.014089853495 0.014704946073 0.015343015725 0.01600374168 0.016686526325 
0.01739056416 0.018114930211 0.018858464084 0.019619894825 0.020397819251 0.021190821375 0.02199731008 0.022815671679 0.023644448444 
0.024482122382 0.025327159911 0.026177971533 0.027032977628 0.027890616729 0.028749295904 0.029607409341 0.030463482058 0.03131574103 
0.011845303192 0.012373399143 0.012922383512 0.013492546591 0.014083955098 0.014696497163 0.015329854773 0.015983551328 0.016656821 
0.01734884565 0.018058588932 0.01878489023 0.019526479253 0.020281993147 0.021050085278 0.02182914256 0.022617788909 0.023414478956 
0.024217725562 0.025026000243 0.025837665196 0.026651156301 0.027464827591 0.028277001678 0.029085903819 0.029889666363 0.011243664304 
0.011749333897 0.012274351942 0.012818921693 0.013383037557 0.013966610571 0.014569305592 0.01519067716 0.015830039945 0.016486634094 
0.01715951555 0.017847630925 0.018549808835 0.019264784261 0.019991215143 0.020727791627 0.02147293468 0.02222530656 0.022983350715 
0.023745582917 0.024510473201 0.025276372548 0.026041606878 0.026804560243 0.027563357397 0.028316107752 0.010578710272 0.011058335652 
0.011555875621 0.012071430399 0.012604995693 0.01315639625 0.013725330261 0.014311383424 0.014913923085 0.015532249472 0.01616548757 
0.016812663097 0.017472687303 0.018144371101 0.018826450988 0.019517667236 0.020216500355 0.020921640323 0.021631632683 0.022345017025 
0.023060269619 0.023775870412 0.024490155824 0.025201398244 0.025907876386 0.026607602358 0.009843091019 0.010293299757 0.010760062242 
0.011243369159 0.011743184281 0.012259336981 0.012791542975 0.013339419655 0.013902362293 0.014479726165 0.015070720273 0.015674404314 
0.016289753575 0.016915649036 0.01755087561 0.018194183809 0.018844305113 0.019499745582 0.02015923095 0.02082131752 0.02148457062 
0.022147484004 0.022808563596 0.023466107764 0.024118391986 0.024763635633 0.0090145996345 0.009432059787 0.009864701443 0.010312520711 
0.01077544183 0.011253293286 0.011745799839 0.012252613141 0.012773210611 0.013306952592 0.013853094888 0.014410785676 0.014979016891 
0.015556721339 0.016142724635 0.016735799785 0.017334774977 0.017938201276 0.018544823788 0.019153345802 0.019762364897 0.020370503107 
0.020976308424 0.021578276544 0.022174784489 0.022764042848 0.008046440799 0.00842768851 0.0088228096805 0.0092317872786 0.0096545055682 
0.010090823692 0.010540493829 0.011003186331 0.011478481773 0.011965775078 0.012464376878 0.012973463449 0.013492047481 0.014019075666 
0.014553411898 0.015093880021 0.015639233196 0.016188342367 0.016739780044 0.017292359744 0.017844866111 0.018396003098 0.018944458096 
0.019488858245 0.020027746058 0.020559625347 0.012691846238 0.013228629863 0.013806982896 0.014430339649 0.015099865742 0.015814650851 
0.016571795194 0.017367132421 0.018196111186 0.019055217903 0.01994277881 0.020858444587 0.021800547828 0.02276370333 0.023739441143 
0.024719453413 0.025700637675 0.026687464416 0.027688031505 0.028706347707 0.029736517966 0.030764630272 0.031779451374 0.032782564352 
0.033789600809 0.034820835284 0.013276809842 0.013841302204 0.01444308252 0.015084686212 0.015767187229 0.016490044004 0.017251416883 
0.018048542729 0.018878371156 0.019738244409 0.020626220806 0.021540714583 0.022479301779 0.023437770004 0.02441083749 0.025393705551 
0.026384365474 0.027384322556 0.028396537576 0.029421825714 0.030456300704 0.031492920299 0.032526275282 0.033557176698 0.034593428566 
0.035645643424 0.013656730106 0.014238727741 0.014854405833 0.015505855104 0.016193820185 0.016918145337 0.017677623578 0.018470404625 
0.019294362475 0.020147380536 0.021027522873 0.021932825183 0.022860847885 0.023808396384 0.024771796808 0.025747975792 0.026735206008 
0.027733310962 0.028742619177 0.029762515695 0.030790373673 0.031822402176 0.032855880583 0.033891034818 0.034931419616 0.035982074285 
0.013839339216 0.014429558067 0.015050688002 0.0157041448 0.016390592082 0.017109970988 0.017861565761 0.018644090329 0.019455927736 
0.02029537251 0.021160631312 0.022049726058 0.022960482729 0.02389040121 0.024836664287 0.025796991575 0.026769666779 0.027753661202 
0.028748165332 0.029751959531 0.030763008006 0.031778971154 0.032798090369 0.033820072668 0.03484605838 0.035878060881 0.013839564678 
0.014430190121 0.015049302777 0.015697987628 0.016376720253 0.017085495646 0.017823824651 0.018590723345 0.019384987931 0.020205160262 
0.021049654868 0.021916688734 0.022804313557 0.023710478938 0.024632872282 0.025569549705 0.026518822971 0.027479316194 0.028449692227 
0.029428438205 0.030413853567 0.03140409383 0.032397647719 0.033393795465 0.034392343256 0.035393420451 0.013675761908 0.014260306995 
0.014871234833 0.015509317802 0.016174941576 0.016868075727 0.017588389048 0.0183350478 0.019107083791 0.019903297118 0.020722247481 
0.021562359923 0.022421880483 0.023299043051 0.024191955049 0.025098766057 0.026017847668 0.026947655402 0.02788664309 0.028833232246 
0.029785783181 0.030742663036 0.031702335511 0.032663613503 0.033625591237 0.034587334348 0.013370949797 0.013944083751 0.014541691576 
0.015164332498 0.015812274196 0.016485493173 0.017183664436 0.017906128517 0.01865203043 0.019420319943 0.020209751919 0.021018994582 
0.021846348605 0.022690288094 0.023549183337 0.024421258759 0.02530492308 0.02619861722 0.027100736206 0.028009664112 0.028923744954 
0.029841377736 0.030760969753 0.031681051237 0.032600202568 0.033516861681 0.012952596086 0.013509840922 0.014089791389 0.014692876658 
0.015319250699 0.015968839534 0.016641353733 0.0173362227 0.018052669715 0.018789798712 0.01954647156 0.020321442854 0.02111332773 
0.021920613768 0.022741908761 0.023575404793 0.02441966199 0.025273093102 0.026134145407 0.027001137255 0.027872463932 0.028746446022 
0.029621460259 0.030495827447 0.031367929031 0.032235820064 0.012445345945 0.012982852404 0.013541418515 0.014121359829 0.014722736056 
0.015345441078 0.015989170417 0.016653464083 0.017337599732 0.018040698388 0.01876181798 0.019499781485 0.020253325033 0.021021085417 
0.021801658754 0.022593560069 0.02339523856 0.02420516995 0.025021798972 0.02584357335 0.026668798508 0.027495867712 0.028323034675 
0.02914855882 0.029970597623 0.030787176811 0.011864340154 0.012378690097 0.012912543259 0.013466098535 0.01403937767 0.014632212991 
0.015244357565 0.015875347531 0.016524507746 0.017191096017 0.017874152164 0.018572652387 0.019285421763 0.020011192826 0.020748624292 
0.021496378753 0.022252863319 0.023016709647 0.023786330789 0.024560195835 0.025336731804 0.026114238619 0.026891024514 0.027665358857 
0.028435321063 0.029198941985 0.011214957785 0.011702993941 0.012209065086 0.012733268092 0.013275585732 0.013835876685 0.014413807838 
0.015008978579 0.015620761262 0.01624846511 0.016891211452 0.017548028698 0.018217839517 0.018899449096 0.019591587993 0.020292988106 
0.021002126523 0.021717631608 0.022438061168 0.023161910576 0.023887613493 0.024613613023 0.025338192558 0.026059582094 0.026775996231 
0.027485396608 0.010494494009 0.010953306562 0.011428740065 0.01192084678 0.01242952338 0.01295461785 0.013495848386 0.01405280956 
0.014624934299 0.01521155045 0.015811877054 0.016424976736 0.017049830463 0.017685313321 0.018330220284 0.018983279871 0.019643227812 
0.020308549228 0.020977946675 0.021649949011 0.022323091232 0.022995828129 0.023666617395 0.024333736036 0.024995381679 0.025649748875 
0.0096928815918 0.010119686766 0.010561731448 0.011019008388 0.011491437089 0.011978839553 0.012480938092 0.012997374122 0.013527622375 
0.014071039846 0.014626883562 0.015194306085 0.015772306429 0.016359823937 0.016955681828 0.017558676595 0.018167607499 0.018781024759 
0.019397656084 0.020016180206 0.020635166414 0.021253206723 0.021868796204 0.022480402777 0.023086357883 0.023684840924 0.0087966588465 
0.0091887426191 0.0095947062818 0.010014553959 0.010448154487 0.010895361378 0.011355912327 0.011829465365 0.012315588838 0.012813666701 
0.013323020007 0.013842823575 0.014372109403 0.014909841883 0.015454900411 0.016006118386 0.016562253454 0.017122170492 0.017684433135 
0.018247834141 0.018811137801 0.019372991347 0.019932064281 0.020486934566 0.021036100937 0.021578026284 0.013826397578 0.01442416666 
0.015062765945 0.015745259529 0.016472988394 0.017245860595 0.01806225805 0.018919664814 0.019815173288 0.02074622787 0.021710907945 
0.022707576212 0.023733799832 0.024785024797 0.02585527651 0.026938784748 0.028032275631 0.029135880382 0.030251286274 0.031378608126 
0.032514046971 0.033651371154 0.034786937609 0.035923823227 0.037072271129 0.038244854887 0.014211594362 0.014822087643 0.015469840382 
0.016157142969 0.016885183141 0.017653917889 0.018462247088 0.019308348906 0.020190051907 0.021105216199 0.022051912481 0.023028180861 
0.024031445251 0.025058083799 0.026103759345 0.02716462338 0.028238201546 0.029323843364 0.030421672112 0.031530896974 0.032648660806 
0.033771150633 0.034896043773 0.036024678382 0.037162295849 0.038315742136 0.014451875948 0.015069211901 0.015720555092 0.016407841631 
0.017131891145 0.017892794165 0.01868985537 0.019521668019 0.020386610574 0.021282879659 0.022208637632 0.023161885402 0.024140234409 
0.025140766306 0.026160226391 0.027195759254 0.028245274903 0.029307564219 0.030381735194 0.031466507967 0.032559657838 0.033658647201 
0.034761786107 0.035869409004 0.036983794522 0.038108006328 0.014542291441 0.015160345118 0.015809747808 0.016491845242 0.017207359583 
0.017956352029 0.018738381564 0.019552386184 0.020397115374 0.021271024478 0.022172431113 0.023099416912 0.024049886238 0.025021471355 
0.026011508506 0.027017737798 0.028038191263 0.029071343074 0.030115857485 0.031170150405 0.032232348474 0.033300502282 0.034373083657 
0.035449699638 0.036530824127 0.037617322875 0.014488102668 0.015101209337 0.015743275972 0.016415328491 0.017117869561 0.017850986025 
0.018614330137 0.01940707139 0.020228181687 0.021076350816 0.02195001508 0.022847542164 0.023767005028 0.024706438163 0.025663537006 
0.026636350985 0.02762305199 0.0286219808 0.029631540564 0.030650041286 0.031675755289 0.032706899812 0.033741977046 0.034780064242 
0.035820523709 0.036862857563 0.014300440733 0.014903634806 0.015533650693 0.016191219851 0.016876743763 0.017590245603 0.018331489476 
0.019099687138 0.01989402501 0.020713366896 0.021556340585 0.02242144115 0.023306927935 0.024211076238 0.025132002164 0.02606781503 
0.02701678122 0.027977223682 0.028947436169 0.029925697471 0.030910372963 0.0318996664 0.032892020493 0.033886049596 0.03488052736 
0.035874092548 0.013994576605 0.014583578426 0.01519742785 0.0158366672 0.016501570819 0.017192144709 0.017908102431 0.018648857213 
0.019413629454 0.020201385148 0.021010947244 0.021840981662 0.022689918699 0.023556124977 0.024438051652 0.025333832738 0.026241828452 
0.027160374145 0.028087804989 0.029022370402 0.02996234555 0.030906042843 0.031851756209 0.032797854723 0.033742712935 0.034684507086 
0.01358798549 0.014159061561 0.014753175377 0.015370689386 0.01601181671 0.016676482592 0.017364425025 0.018075107154 0.018807791003 
0.01956159971 0.020335474072 0.021128130656 0.021938229673 0.022764263495 0.023604815593 0.024458060572 0.025322509631 0.02619649893 
0.027078377625 0.027966495686 0.028859057977 0.029754335533 0.030650600925 0.031546071766 0.032438901818 0.033327007989 0.013096806966 
0.013646692339 0.01421791368 0.014810758823 0.015425287922 0.016061396663 0.016718826996 0.017397107071 0.018095544966 0.018813289178 
0.019549409579 0.020302742521 0.021072038033 0.021855925082 0.022652989563 0.023461724229 0.024280540302 0.025107866762 0.025942099086 
0.026781600138 0.027624645292 0.028469473525 0.029314315617 0.030157319813 0.030996513902 0.03182980098 0.012532916458 0.013058765505 
0.013604325251 0.014169788559 0.014755176807 0.015360326763 0.015984998104 0.016628742908 0.017290890037 0.017970704812 0.018667251956 
0.019379506021 0.020106299773 0.020846361602 0.021598337176 0.022360870322 0.023132362886 0.023911345665 0.024696246157 0.02548546296 
0.026277360578 0.027070162259 0.027862138322 0.028651448132 0.029436096143 0.030213933773 0.011903104581 0.012402257272 0.012919608117 
0.01345525082 0.014009163503 0.014581204829 0.015171048388 0.015778288998 0.016402311169 0.01704242771 0.017697765862 0.018367356035 
0.019050123376 0.019744874187 0.020450321514 0.021165189408 0.021887942715 0.022617153808 0.023351379033 0.024089040554 0.024828534458 
0.025568235882 0.026306357995 0.027041103319 0.027770578495 0.028492679358 0.011209604354 0.011679678404 0.012166498946 0.0126701074 
0.013190412664 0.013727242776 0.014280315136 0.014849218645 0.015433420932 0.016032207034 0.016644817765 0.017270314205 0.017907681035 
0.018555799439 0.019213442768 0.019879349761 0.020552227153 0.021230570218 0.02191297651 0.022598008257 0.023284130277 0.023969756375 
0.024653266312 0.025332916409 0.026006813412 0.026673099672 0.010452479989 0.010891288795 0.011345425767 0.011814882384 0.01229956776 
0.012799299084 0.013313788932 0.013842649301 0.01438542511 0.014941385838 0.015509825052 0.016089894916 0.016680601647 0.017280886545 
0.017889579433 0.018505472866 0.019127331419 0.019753764886 0.020383431019 0.021014917776 0.021646836597 0.0222777068 0.022905969118 
0.023530018644 0.024148198838 0.024758600139 0.0096343677036 0.010039930792 0.01045943071 0.010892865698 0.011340096613 0.011800957954 
0.012275186458 0.012762414908 0.013262203784 0.013773928378 0.014296905117 0.014830318772 0.01537321778 0.015924578785 0.01648329575 
0.017048208768 0.017618074199 0.018191752692 0.018767785979 0.01934497172 0.01992194079 0.020497390185 0.021069905432 0.021638009036 
0.022200144298 0.022754693177 0.015051271977 0.015710363495 0.016410550633 0.017154582501 0.017943998936 0.018779223822 0.019659668722 
0.020583970048 0.021550329533 0.022556879188 0.023601736815 0.024682911066 0.025797611823 0.02694207377 0.02811155685 0.029301459569 
0.03050819153 0.031729623307 0.032964371139 0.034210725612 0.035465949926 0.036727329516 0.03799432452 0.039270021351 0.040561085445 
0.041874998681 0.015260237047 0.015919521583 0.01661657331 0.017353478727 0.018131521759 0.018951045572 0.019811565212 0.020711990733 
0.021650832099 0.022626399165 0.023636894518 0.024680283546 0.025754040927 0.026854936629 0.027979305828 0.029123656397 0.030285214999 
0.0314620021 0.032652488695 0.033854976454 0.035067123846 0.036286748884 0.037512829855 0.038746596808 0.03999124043 0.041250604263 
0.015366763184 0.01602312623 0.016714143296 0.017441562179 0.018206328247 0.019008717822 0.019848444294 0.020724534524 0.021635783546 
0.022580690409 0.023557587669 0.024564479081 0.025599120141 0.02665887675 0.027740699916 0.028841866586 0.029959990143 0.031093141649 
0.032239610185 0.033397598497 0.034565086145 0.035740135259 0.036921502187 0.038109257706 0.039304412133 0.040508387277 0.015361275509 
0.016010954946 0.016692625833 0.017407555877 0.018156510335 0.018939662423 0.01975682959 0.020607193286 0.021489799391 0.022403265692 
0.023346058543 0.02431636406 0.025312163526 0.026331227718 0.027370998981 0.028429206864 0.029503663425 0.030592482767 0.031693859694 
0.032805937671 0.033926838244 0.035054743338 0.036188188393 0.037326449378 0.03846925124 0.039616400516 0.015243216095 0.015882389917 
0.016551126604 0.017250397736 0.017980733074 0.018742299938 0.019534885996 0.020357849588 0.021210250939 0.022090987784 0.022998579049 
0.023931472847 0.024887832196 0.025865654695 0.02686286548 0.027877310579 0.028907068154 0.029950261962 0.031005010983 0.032069474527 
0.033141822721 0.034220220249 0.035303064006 0.036389135084 0.037477289791 0.038566378304 0.01501792364 0.015643031618 0.01629548592 
0.016975993516 0.017684963351 0.018422483013 0.019188363248 0.019981989407 0.020802570132 0.021649113247 0.022520266039 0.023414620345 
0.024330509118 0.02526618549 0.026219804513 0.027189420695 0.028173193543 0.029169287882 0.030175897905 0.03119112151 0.032213172445 
0.033240200148 0.03427046647 0.035302352668 0.036334264648 0.037364418822 0.01469465898 0.015302467477 0.01593556228 0.016594486862 