# vtk DataFile Version 5.1
vtk output
ASCII
DATASET STRUCTURED_POINTS
DIMENSIONS 20 20 40
SPACING 0.05 0.05 0.05
ORIGIN 3.225 -0.475 0.525
POINT_DATA 16000
FIELD FieldData 1
potential 1 16000 double
0.41423836357 0.41428139299 0.41431225989 0.41433031391 0.41428951338 0.41426096327 0.41422408715 0.41418108232 0.41413509933 
0.41408885281 0.41404540297 0.41400687236 0.41397624976 0.41395492573 0.41394409296 0.41394378991 0.41395305684 0.41396973185 
0.41399060446 0.41401196223 0.43557209834 0.43561567257 0.43564766273 0.43566759748 0.43562686344 0.43560017916 0.43556514363 
0.43552412733 0.43547978757 0.43543475714 0.43539194541 0.43535320757 0.43532149784 0.43529830402 0.43528466397 0.43528051789 
0.43528551038 0.43529752787 0.43531360891 0.43533057424 0.45519525986 0.455238131 0.45527044427 0.45529161063 0.45525071197 
0.45522601211 0.45519316203 0.45515474539 0.455112871 0.45506979066 0.45502856655 0.45499077668 0.4549592263 0.4549347762 
0.45491883233 0.45491139832 0.45491208834 0.45491929649 0.45493040533 0.45494241961 0.47279210004 0.47283307085 0.47286485597 
0.47288679913 0.47284553887 0.47282259894 0.47279230663 0.47275660278 0.47271782398 0.47267757774 0.47263857683 0.47260249668 
0.47257134409 0.47254646473 0.47252879626 0.47251847275 0.47251518477 0.47251765446 0.47252380904 0.47253079069 0.48812423801 
0.48816286623 0.48819351338 0.48821588735 0.48817360252 0.48815237185 0.48812448064 0.48809178058 0.48805603714 0.48801904906 
0.4879826778 0.48794864389 0.48791839014 0.48789342325 0.48787456419 0.48786170729 0.48785469754 0.48785256836 0.48785384345 
0.48785598864 0.50102847481 0.50106442039 0.50109383138 0.50111629038 0.50107265837 0.50105271517 0.50102719399 0.50099721559 
0.50096468785 0.50093085889 0.50089697742 0.50086498127 0.50083607738 0.5008111309 0.50079075918 0.50077579107 0.50076553384 
0.50075922312 0.500755918 0.50075343542 0.51140497861 0.51143823683 0.51146646466 0.51148912867 0.51144354078 0.51142471558 
0.51140102578 0.51137370123 0.51134410246 0.51131278669 0.51128144525 0.51125138133 0.51122352473 0.51119842256 0.51117719836 
0.51116002222 0.51114639251 0.51113606393 0.51112812618 0.51112192705 0.51920113319 0.51923200564 0.51925912193 0.51928184613 
0.51923430582 0.51921607326 0.51919421272 0.51916899635 0.51914175803 0.51911307584 0.51908377892 0.51905508128 0.51902789185 
0.51900268735 0.51898017351 0.51896068108 0.5189441298 0.51893005932 0.51891831241 0.51890823689 0.52439465856 0.524423527 
0.5244496168 0.52447294277 0.52442330552 0.52440534344 0.52438484158 0.52436176372 0.52433646731 0.52430970782 0.52428220611 
0.52425466288 0.52422747564 0.5242018967 0.5241778957 0.5241558315 0.52413622786 0.5241185944 0.52410340517 0.52408959545 
0.52697938176 0.52700663284 0.52703234831 0.52705633993 0.52700417888 0.52698684064 0.52696751141 0.52694602193 0.52692235834 
0.52689728509 0.52687097132 0.5268441512 0.52681697956 0.52679016492 0.52676432151 0.52673939529 0.52671632225 0.52669532011 
0.5266763601 0.52665939893 0.52695458026 0.52698058302 0.52700630457 0.52703105187 0.52697673296 0.526959956 0.52694170957 
0.52692158063 0.52689942304 0.52687573788 0.52685033119 0.52682341365 0.52679572154 0.52676748772 0.52673932949 0.52671158044 
0.52668470304 0.52665994299 0.52663711566 0.52661669142 0.52430926199 0.52433388009 0.52435930168 0.52438447276 0.52432879501 
0.52431489485 0.52429946322 0.52428239213 0.52426312725 0.5242417523 0.52421773596 0.52419141431 0.52416340378 0.52413368941 
0.52410293833 0.52407197344 0.52404152604 0.52401256084 0.52398568534 0.52396162808 0.51905153454 0.51907359446 0.51909703664 
0.51912110598 0.51906919797 0.51905837157 0.51904639443 0.51903293365 0.5190170548 0.51899847942 0.51897668506 0.51895158732 
0.51892328583 0.51889264152 0.51885967627 0.51882556003 0.51879164565 0.51875873669 0.51872806167 0.51870031775 0.51118938409 
0.51120909936 0.51123074838 0.5112541259 0.51120582673 0.51119813677 0.51118985868 0.51117996601 0.51116783895 0.51115196609 
0.5111319422 0.51110774042 0.51107932642 0.51104699148 0.51101161229 0.51097398009 0.51093598537 0.51089873804 0.51086374942 
0.5108322718 0.50074483499 0.50076203973 0.50078224861 0.50080520065 0.50076048958 0.50075602699 0.50075162259 0.50074589287 
0.50073680877 0.50072393931 0.50070606561 0.50068253233 0.50065333636 0.50061928518 0.50058098436 0.50053943476 0.50049706528 
0.50045505813 0.50041566004 0.50038016359 0.48777096562 0.48778600488 0.48780482683 0.48782732288 0.48778624362 0.48778513088 
0.48778423472 0.48778227255 0.48777681161 0.48776699642 0.48775078684 0.48772796934 0.4876983772 0.4876620945 0.48762061853 
0.48757529886 0.48752816443 0.48748142473 0.4874373752 0.48739768079 0.47236961676 0.47238256832 0.47239994741 0.4724217285 
0.4723841963 0.472385826 0.47238845668 0.47239007141 0.47238807453 0.47238067729 0.47236647585 0.4723442629 0.47231374893 
0.47227595688 0.47223137239 0.47218213018 0.47213091102 0.47207959153 0.47203104251 0.47198772435 0.45470659785 0.45471699614 
0.45473288908 0.45475406747 0.45471921474 0.45472347779 0.45472892003 0.45473358601 0.45473453708 0.45472952644 0.45471684526 
0.45469515905 0.45466436137 0.45462479284 0.45457779772 0.4545254681 0.45447034949 0.45441535576 0.4543632794 0.45431680251 
0.43502263011 0.43503083846 0.43504499699 0.43506521674 0.4350325652 0.43503810553 0.43504571805 0.43505260184 0.43505573871 
0.43505263336 0.43504113921 0.43501999518 0.43498884709 0.43494837706 0.43489961046 0.43484507471 0.4347873681 0.43472956631 
0.4346750557 0.43462673916 0.41363686631 0.41364259586 0.41365497724 0.41367365233 0.413642237 0.41364850909 0.41365704409 
0.41366495115 0.41366936665 0.41366740187 0.41365682004 0.41363592063 0.41360485669 0.41356398901 0.41351454193 0.41345906833 
0.41340037524 0.41334156422 0.41328619377 0.41323732546 0.39756942 0.39760510938 0.39763168061 0.39764921695 0.39761045145 
0.3975873103 0.39755768985 0.39752366623 0.39748731456 0.39745090148 0.39741628407 0.39738571812 0.39736054275 0.39734225549 
0.39733132197 0.39732783034 0.39733095763 0.39733913867 0.39735013915 0.39736175156 0.41650821885 0.41654430305 0.41657187207 
0.41659059513 0.41655165875 0.41652950412 0.41650102366 0.41646794446 0.4164325699 0.41639674047 0.41636229207 0.41633120714 
0.41630497323 0.41628505971 0.4162718963 0.41626564512 0.41626558657 0.41627030394 0.41627796713 0.41628633498 0.43397095582 
0.43400665373 0.43403449649 0.43405418809 0.43401474226 0.43399351075 0.43396636653 0.43393492572 0.43390086516 0.43386623093 
0.43383255633 0.43380168571 0.43377514479 0.43375406954 0.43373890979 0.4337301235 0.43372686239 0.43372813669 0.43373216576 
0.43373717324 0.44968575606 0.44972025926 0.4497478033 0.44976819517 0.44972785257 0.44970765029 0.44968193099 0.44965234937 
0.44962013225 0.44958700424 0.44955436433 0.44952417886 0.44949780808 0.44947591589 0.44945919659 0.44944803796 0.4494417731 
0.44943953595 0.44943991993 0.44944149342 0.46343609217 0.46346903479 0.46349604594 0.46351678092 0.46347514474 0.46345593053 
0.4634316656 0.46340372769 0.46337343616 0.46334210362 0.46331113635 0.46328186188 0.46325566672 0.46323340214 0.46321535648 
0.46320205642 0.46319284774 0.46318724718 0.46318417319 0.46318215022 0.47506120397 0.47509241913 0.47511870704 0.47513981511 
0.47509628288 0.4750777456 0.47505499058 0.47502875043 0.47500005783 0.47497072741 0.47494140146 0.47491332653 0.47488738806 
0.4748646704 0.47484561322 0.47483023362 0.47481829287 0.47480958385 0.47480301278 0.47479763892 0.48444985689 0.48447932575 
0.48450489716 0.484526164 0.48448075021 0.48446251487 0.48444095032 0.48441632721 0.48438933292 0.48436178332 0.48433384891 
0.48430666367 0.48428120666 0.48425801589 0.48423757414 0.48422048827 0.48420607943 0.48419439161 0.48418456027 0.48417606641 
0.49153084669 0.4915585468 0.49158340633 0.49160499229 0.49155727848 0.49153944 0.49151858784 0.49149540881 0.4914701205 
0.49144375617 0.4914169478 0.49139074569 0.49136544496 0.49134177591 0.49132030101 0.49130122732 0.49128418051 0.49126944295 
0.49125656137 0.49124519461 0.49626207165 0.4962883628 0.49631274873 0.49633449668 0.49628449664 0.49626686158 0.49624675497 
0.49622443403 0.49620068245 0.49617534603 0.49614967253 0.49612371625 0.49609846146 0.49607407049 0.49605100893 0.49602992121 
0.49601060387 0.49599300799 0.49597713342 0.49596306542 0.49862138066 0.49864671671 0.49867066624 0.49869296598 0.49864064702 
0.49862299375 0.4986033718 0.49858213433 0.4985594137 0.49853512147 0.49850995217 0.49848425182 0.49845854734 0.49843324499 
0.49840855098 0.49838499185 0.49836314502 0.49834263645 0.4983239661 0.49830705424 0.49859968864 0.49862414695 0.49864790215 
0.49867126145 0.49861628642 0.49859872121 0.498579502 0.49855900376 0.49853720499 0.49851372436 0.49848882471 0.49846323312 
0.49843671731 0.49841002555 0.49838336058 0.49835741655 0.49833235948 0.49830906763 0.49828741228 0.49826780067 0.49618664468 
0.49621013513 0.49623342344 0.4962569308 0.49619991303 0.4961844555 0.4961676424 0.49614946933 0.49612962778 0.4961079594 
0.49608426107 0.4960589008 0.49603209138 0.49600411001 0.49597554484 0.49594703009 0.49591908326 0.49589253175 0.49586794165 
0.49584564499 0.49139851455 0.49141923742 0.49144099239 0.49146307284 0.49140914322 0.49139603179 0.49138218411 0.49136661494 
0.49134935714 0.49132982688 0.49130806312 0.49128346665 0.49125675512 0.49122817616 0.49119808986 0.49116754385 0.49113696536 
0.49110757342 0.4910801227 0.4910553469 0.48425958642 0.48427801399 0.48429805036 0.48431910127 0.484268344 0.48425757375 
0.48424654635 0.48423402323 0.48421904006 0.48420172951 0.48418156054 0.48415756188 0.48413075074 0.48410120314 0.48406939505 
0.48403632003 0.48400309842 0.48397058829 0.48394012202 0.48391270217 0.47481203797 0.47482838849 0.47484687433 0.47486709043 
0.47481928719 0.47481101098 0.47480239494 0.47479269649 0.47478052617 0.47476537139 0.4747462894 0.47472316274 0.47469619218 
0.47466538348 0.4746316187 0.47459583442 0.47455948384 0.47452398786 0.47449029522 0.47446000365 0.46312783011 0.46314202585 
0.46315899389 0.46317833426 0.4631338061 0.46312774403 0.46312176985 0.46311454431 0.46310479856 0.46309161863 0.46307412654 
0.46305153961 0.46302408791 0.46299198772 0.46295639853 0.46291795745 0.46287873851 0.46283991881 0.46280299991 0.4627701397 
0.44931912733 0.44933135246 0.44934697754 0.44936556337 0.44932367543 0.4493197726 0.44931612899 0.44931120758 0.44930385437 
0.44929252393 0.44927610526 0.44925420609 0.44922647644 0.44919320448 0.44915555564 0.44911482814 0.44907283165 0.44903104726 
0.44899146727 0.44895620251 0.43354894014 0.43355907455 0.43357315401 0.4335907268 0.43355145526 0.4335489349 0.43354724084 
0.43354448128 0.43353896045 0.43352923327 0.43351395792 0.43349245819 0.43346438211 0.43343035765 0.43339131567 0.43334842958 
0.43330403575 0.43325991112 0.4332180976 0.43318092913 0.41603486649 0.41604297054 0.41605551463 0.41607212354 0.41603451431 
0.41603308574 0.41603272073 0.41603141622 0.41602738645 0.41601888875 0.41600458973 0.41598332053 0.41595520469 0.41592066516 
0.41588066822 0.41583657843 0.41579054911 0.41574489908 0.41570163481 0.41566330893 0.39705074067 0.39705702757 0.39706789688 
0.39708298356 0.39704670071 0.39704574958 0.39704597787 0.39704554618 0.39704231989 0.39703459808 0.39702089098 0.3970001504 
0.39697217684 0.39693731474 0.3968970106 0.39685249502 0.39680607898 0.39675995048 0.39671621212 0.39667764396 0.38206936779 
0.38209929551 0.3821227531 0.38213922487 0.38210217919 0.38208238042 0.38205781534 0.38203003297 0.3820006218 0.38197100888 
0.38194270025 0.38191732026 0.38189599275 0.38187945549 0.38186836034 0.38186241073 0.38186099933 0.38186323775 0.38186756921 
0.38187218242 0.39893643667 0.39896677331 0.39899089518 0.39900843552 0.3989705928 0.39895129748 0.39892736982 0.39890018908 
0.39887107006 0.39884166077 0.39881321319 0.39878732315 0.39876505983 0.39874708222 0.39873423518 0.39872615536 0.3987224113 
0.39872214369 0.39872387637 0.39872614305 0.41451135455 0.41454142136 0.41456586694 0.41458417518 0.41454533699 0.41452675004 
0.41450357682 0.41447700799 0.41444862698 0.4144197355 0.41439172017 0.41436561753 0.41434261754 0.41432363319 0.41430918058 
0.41429898091 0.4142928813 0.41429001176 0.41428912819 0.41428888225 0.42855913933 0.42858870166 0.42861305848 0.42863201308 
0.42859185648 0.42857367142 0.42855128544 0.42852584312 0.42849838274 0.42847037306 0.42844274857 0.42841678874 0.42839370262 
0.4283738036 0.42835779286 0.42834573636 0.42833731186 0.42833180377 0.42832829693 0.42832550506 0.44088643897 0.44091495112 
0.4409390855 0.44095848373 0.44091684874 0.440898984 0.44087741137 0.44085293704 0.44082649325 0.4407994532 0.440772468 
0.44074692813 0.44072375158 0.44070322251 0.4406859959 0.44067211613 0.44066145794 0.44065343443 0.44064719661 0.44064192189 
0.45134126271 0.45136857076 0.45139244562 0.45141201551 0.451368558 0.45135092277 0.45132998586 0.45130643921 0.45128116294 
0.45125504243 0.45122903306 0.45120381148 0.45118033948 0.45115939442 0.45114108932 0.45112548757 0.45111271857 0.45110213943 
0.45109344668 0.4510857861 0.45981071405 0.45983682795 0.45986025807 0.45988005296 0.45983456936 0.45981703159 0.45979664958 
0.45977399333 0.45974962811 0.45972435441 0.45969918564 0.45967442278 0.45965082351 0.45962919406 0.45960982846 0.45959258764 
0.4595777554 0.45956485382 0.45955366255 0.45954364255 0.46621580768 0.46624094591 0.4662638025 0.46628377937 0.46623615223 
0.46621848718 0.46619861573 0.46617654506 0.46615294673 0.46612864102 0.4661039511 0.46607944224 0.46605574469 0.46603343279 
0.46601276409 0.46599400689 0.46597717495 0.46596208578 0.46594850437 0.46593618064 0.47050479865 0.4705288943 0.47055138838 
0.4705718842 0.47052164008 0.47050396057 0.47048416002 0.47046271129 0.47043981532 0.47041615984 0.47039171612 0.47036733477 
0.47034343874 0.47032028164 0.47029829748 0.47027783058 0.47025892179 0.47024142917 0.4702254547 0.47021105082 0.47264681446 
0.47267001866 0.47269241109 0.47271339021 0.47266070073 0.47264274703 0.47262293533 0.47260177215 0.47257968481 0.47255633257 
0.47253202394 0.47250757231 0.47248318876 0.47245895753 0.47243549534 0.47241325003 0.47239221173 0.47237240652 0.47235411342 
0.47233764544 0.47262769963 0.47265040262 0.47267282481 0.47269459989 0.47263909551 0.47262078624 0.4726010776 0.47258025942 
0.47255850757 0.4725354482 0.47251118171 0.47248630151 0.47246118166 0.47243585623 0.47241070228 0.47238636261 0.47236309813 
0.47234083234 0.47232023015 0.47230167298 0.47043811387 0.47045994953 0.47048213333 0.4705038831 0.47044579344 0.47042895628 
0.47041125639 0.4703920707 0.47037177419 0.47034985565 0.47032663669 0.47030194721 0.47027647066 0.47025002543 0.47022356003 
0.47019713677 0.47017147599 0.47014685623 0.47012402975 0.4701032067 0.4660981334 0.46611771855 0.46613788223 0.46615838689 
0.46610294715 0.46608808044 0.46607243028 0.46605571001 0.46603728683 0.46601718407 0.46599527474 0.46597155251 0.46594610029 
0.46591926887 0.46589172846 0.46586395652 0.46583629034 0.46580985633 0.46578502197 0.465762496 0.45964149085 0.45965902733 
0.45967747767 0.45969681154 0.45964411165 0.45963110332 0.45961742467 0.45960279601 0.45958641764 0.45956812622 0.45954730569 
0.45952436033 0.45949894715 0.4594714677 0.45944275843 0.4594132097 0.4593836202 0.45935502697 0.45932819329 0.45930383491 
0.45112043172 0.45113581844 0.45115276982 0.45117083812 0.45112107274 0.45110977146 0.45109821949 0.4510854925 0.4510709421 
0.45105421893 0.45103461919 0.45101206567 0.45098659266 0.45095845375 0.45092854103 0.45089731632 0.45086568221 0.4508349261 
0.45080578818 0.45077970353 0.44061431444 0.44062778722 0.44064331681 0.44066034501 0.44061306966 0.4406034496 0.44059371621 
0.44058283843 0.44057011434 0.44055477428 0.44053625219 0.44051419298 0.44048869367 0.44045997928 0.44042857341 0.44039569674 
0.44036212944 0.44032921685 0.44029818974 0.44027020545 0.4282367641 0.42824834438 0.42826235305 0.42827842249 0.42823368896 
0.4282253681 0.42821721152 0.4282080911 0.42819691093 0.4281829731 0.42816544497 0.42814380508 0.42811820652 0.42808878594 
0.42805643937 0.42802183534 0.42798651644 0.42795169095 0.42791891984 0.42788933805 0.41414060187 0.41415050203 0.41416312164 
0.41417829052 0.41413550453 0.41412835764 0.41412144921 0.41411374925 0.41410398703 0.41409105024 0.41407428446 0.41405306438 
0.41402745861 0.41399757129 0.41396428481 0.41392863448 0.4138918284 0.41385557177 0.41382133902 0.41379063977 0.39852084652 
0.39852906079 0.39854033027 0.39855421792 0.39851306826 0.39850688639 0.39850097354 0.39849427538 0.39848542897 0.39847354225 
0.39845734049 0.39843648167 0.39841089727 0.39838067076 0.39834687198 0.39831051525 0.39827290264 0.39823565147 0.39820073066 
0.39816935575 0.38161344223 0.38161992542 0.38162947908 0.38164220113 0.38160241028 0.38159643335 0.38159101917 0.3815848631 
0.3815767382 0.38156540856 0.38154970514 0.38152931449 0.38150380977 0.38147377623 0.38143989973 0.38140326592 0.38136558205 
0.38132826701 0.3812931887 0.38126177665 0.3676016785 0.36762731413 0.36764804943 0.36766383122 0.36762740307 0.36760995548 
0.3675889156 0.36756552886 0.3675408216 0.36751583755 0.3674919765 0.3674702147 0.36745143838 0.36743605006 0.367424565 
0.36741677058 0.36741231388 0.3674103284 0.36740984436 0.36740965224 0.38266845426 0.38269440272 0.38271573234 0.3827322528 
0.38269485833 0.38267762819 0.38265682205 0.38263361077 0.38260901297 0.38258407039 0.38255984761 0.38253753447 0.38251782175 
0.38250130326 0.3824883667 0.38247885502 0.38247248448 0.38246857013 0.38246626059 0.38246432784 0.39659040604 0.39661634164 
0.39663800653 0.3966551901 0.39661651575 0.39659947115 0.39657901089 0.39655611669 0.39653175816 0.39650696267 0.3964827453 
0.39646013286 0.39643972834 0.39642210449 0.39640782926 0.39639675263 0.39638854364 0.39638266331 0.39637837878 0.39637451687 
0.40916484036 0.40919043294 0.40921222231 0.40922990414 0.40918983469 0.40917291335 0.40915282309 0.40913034085 0.4091063932 
0.40908179546 0.40905781086 0.40903506112 0.40901406044 0.40899564025 0.40898012306 0.40896747181 0.40895744513 0.40894956292 
0.40894328229 0.40893749626 0.42021965037 0.42024474886 0.42026653081 0.42028449189 0.42024272889 0.42022588774 0.42020607548 
0.42018402511 0.42016059781 0.42013652765 0.42011270503 0.42008979309 0.42006859622 0.42004943464 0.42003267703 0.42001858952 
0.42000677982 0.41999701805 0.41998869616 0.41998113521 0.42961516282 0.42963955488 0.42966108971 0.42967943546 0.42963587643 
0.42961887119 0.42959922388 0.42957764165 0.42955471822 0.42953112476 0.42950747988 0.42948464027 0.42946313664 0.42944329985 
0.42942552721 0.42941000772 0.42939646093 0.42938476495 0.42937454937 0.42936516633 0.43724288948 0.43726645889 0.4372876147 
0.43730620803 0.43726057797 0.43724347758 0.43722392712 0.43720256373 0.43718019151 0.43715689418 0.43713358668 0.43711075839 
0.43708882085 0.43706837052 0.43704960156 0.43703266945 0.4370174342 0.43700387467 0.43699173454 0.43698059169 0.44302236881 
0.44304508833 0.44306606911 0.44308506586 0.44303708107 0.44301965866 0.44300012033 0.44297908367 0.44295688062 0.44293403572 
0.44291080834 0.4428880469 0.44286558591 0.44284433288 0.44282456704 0.44280619409 0.44278935272 0.44277405236 0.44275998416 
0.44274699777 0.44689816315 0.4469202841 0.44694117681 0.44696060437 0.44691018163 0.44689211907 0.44687257541 0.44685166887 
0.44682963983 0.44680698871 0.44678399121 0.44676079001 0.44673797018 0.4467159194 0.44669491355 0.44667502913 0.44665655621 
0.4466394047 0.44662363827 0.44660895615 0.44883593094 0.44885756974 0.44887853106 0.44889840558 0.44884525599 0.4488267177 
0.44880702774 0.44878612022 0.4487641282 0.44874150823 0.44871843198 0.44869486379 0.44867147074 0.44864847312 0.44862619621 
0.44860484023 0.44858455006 0.44856551754 0.44854782621 0.44853164946 0.44881911019 0.44884037402 0.4488614999 0.44888211786 
0.44882613642 0.44880693751 0.44878683266 0.44876587569 0.44874398493 0.44872123407 0.44869779768 0.44867392602 0.44864967701 
0.44862560366 0.44860193819 0.44857897837 0.44855681548 0.44853586882 0.44851625513 0.44849852536 0.44683880444 0.44685948238 
0.44688027476 0.4469009182 0.44684195148 0.44682407409 0.44680533314 0.44678572656 0.44676500422 0.4467431587 0.44672014433 
0.44669630214 0.44667174715 0.44664688908 0.44662192962 0.44659746607 0.44657361012 0.44655067375 0.44652923821 0.44650991403 
0.44291684312 0.44293536159 0.44295440815 0.44297349775 0.44291705729 0.44290077389 0.44288367534 0.44286580324 0.44284682658 
0.44282635808 0.44280449924 0.44278128057 0.44275702775 0.44273192934 0.44270636687 0.44268080941 0.44265575068 0.44263144587 
0.44260882563 0.44258814325 0.4370912493 0.43710769131 0.43712511968 0.43714278044 0.43708895332 0.43707406337 0.43705863971 
0.43704243436 0.43702480407 0.43700566506 0.43698498176 0.43696239344 0.43693827542 0.43691284413 0.4368865375 0.43685989293 
0.43683341836 0.43680772462 0.43678364998 0.43676170686 0.4294175989 0.4294322556 0.42944799735 0.4294645446 0.42941300703 
0.42939966902 0.42938578793 0.42937093275 0.42935479433 0.42933690089 0.42931699773 0.42929505901 0.42927112973 0.42924532266 
0.42921805265 0.42919036523 0.42916254671 0.42913541427 0.42910998177 0.42908678094 0.4199764741 0.41998935949 0.42000367887 
0.420018894 0.41996991801 0.41995772835 0.41994518108 0.41993174873 0.41991700116 0.41990017852 0.41988115012 0.41985964777 
0.41983571637 0.41980952862 0.41978170022 0.41975269989 0.41972349903 0.41969515364 0.41966841826 0.41964411401 0.40887709655 
0.4088883024 0.40890127443 0.40891558 0.40886846553 0.40885731252 0.4088459056 0.40883378292 0.40882019346 0.40880445907 
0.40878608429 0.40876499925 0.40874107776 0.4087146877 0.40868615054 0.40865625412 0.40862586986 0.40859634267 0.40856846844 
0.40854321806 0.39625994105 0.39626957211 0.39628110977 0.39629429056 0.39624906486 0.3962388025 0.39622844403 0.3962173183 
0.39620467424 0.39618979236 0.39617208763 0.39615135449 0.3961275858 0.39610084472 0.3960717978 0.39604125971 0.39601020161 
0.39597957066 0.39595097375 0.39592506865 0.3822979409 0.38230592417 0.38231606741 0.38232812457 0.38228452989 0.38227483847 
0.38226516421 0.38225473928 0.38224287746 0.38222858376 0.38221160302 0.38219115884 0.38216753259 0.38214081257 0.38211147513 
0.38208054483 0.38204907996 0.38201820675 0.38198898709 0.3819627983 0.36719402425 0.36720057266 0.36720939268 0.36722030028 
0.36717809768 0.36716866751 0.36715941361 0.36714953195 0.36713812425 0.36712428719 0.36710762354 0.36708759262 0.36706427274 
0.36703770274 0.36700845527 0.36697758906 0.36694609595 0.36691521616 0.36688625634 0.36686026482 0.35405751816 0.35407968225 
0.35409847603 0.3541135908 0.35407732756 0.35406126345 0.35404269649 0.35402218376 0.35400072684 0.35397920315 0.35395839619 
0.35393903579 0.35392187813 0.35390722295 0.35389544929 0.35388635858 0.35387956382 0.35387463363 0.35387068223 0.35386702837 
0.36755358968 0.36757612608 0.36759536006 0.36761103594 0.36757366662 0.36755759895 0.3675390247 0.36751855484 0.36749694651 
0.36747514594 0.36745394807 0.3674340208 0.36741604374 0.36740039088 0.36738741019 0.36737688583 0.36736866698 0.36736229692 
0.3673569089 0.36735200244 0.38002573279 0.38004830973 0.38006790567 0.38008402789 0.38004536246 0.3800292787 0.38001072911 
0.3799902666 0.37996876575 0.3799468428 0.37992539286 0.37990500106 0.37988639912 0.37986985643 0.37985562569 0.37984376632 
0.37983409166 0.3798261348 0.37981927641 0.3798130327 0.3912986771 0.39132113169 0.39134087759 0.39135740667 0.39131719511 
0.39130107992 0.39128249674 0.39126213066 0.39124059594 0.39121870168 0.39119719304 0.39117645219 0.39115728806 0.39113984344 
0.39112461377 0.39111153201 0.39110035316 0.3910908249 0.39108240167 0.39107474137 0.40122044623 0.40124256421 0.40126225344 
0.40127926752 0.40123731086 0.40122094311 0.40120244642 0.40118207892 0.40116069597 0.40113883027 0.40111718248 0.40109632649 
0.4010765336 0.40105837696 0.40104217905 0.40102775208 0.4010152143 0.40100420195 0.40099430157 0.40098512831 0.40966431356 
0.4096860586 0.40970566372 0.4097228641 0.40967908424 0.40966239108 0.40964376982 0.40962355378 0.40960224539 0.40958051883 
0.40955885524 0.40953756717 0.40951743361 0.40949862795 0.40948138978 0.40946576181 0.40945182403 0.40943933058 0.40942798437 
0.40941743581 0.41652898057 0.41655022556 0.41656979278 0.41658739475 0.41654148091 0.4165243602 0.41650549972 0.41648528031 
0.41646404227 0.41644240667 0.41642045949 0.41639903743 0.4163786344 0.41635900482 0.41634077215 0.41632394204 0.41630859953 
0.41629467415 0.41628182722 0.41626988779 0.42173714052 0.42175797716 0.42177751314 0.42179536675 0.42174716426 0.42172960653 
0.42171040599 0.42168998686 0.42166885781 0.42164709303 0.42162512608 0.42160338861 0.42158233744 0.42156212398 0.42154284193 
0.42152481645 0.42150815287 0.4214927135 0.42147836544 0.42146514808 0.42523357568 0.42525397925 0.42527353531 0.42529182625 
0.42524109755 0.42522287579 0.42520338766 0.42518284418 0.4251614687 0.42513969297 0.4251175546 0.425095424 0.42507371387 
0.42505257184 0.42503241301 0.42501313394 0.42499501825 0.42497811478 0.42496240199 0.42494780347 0.4269827639 0.4270029837 
0.42702264405 0.42704155606 0.42698811663 0.42696900639 0.42694916656 0.42692845951 0.42690686919 0.42688487322 0.42686245894 
0.42683988495 0.4268173364 0.4267953226 0.42677408835 0.42675351548 0.42673394281 0.42671555937 0.42669848817 0.42668259821 
0.42696775368 0.42698782463 0.42700771722 0.42702731646 0.42697101719 0.42695117919 0.42693076178 0.42690962283 0.42688775127 
0.42686542813 0.42684260228 0.42681943985 0.42679611112 0.42677310112 0.42675058799 0.42672875872 0.42670767298 0.42668785841 
0.42666926906 0.4266522104 0.42518037842 0.42519992442 0.42521970593 0.42523920282 0.42517958703 0.42516083706 0.42514152864 
0.42512129299 0.4251002492 0.42507852407 0.42505606707 0.42503286231 0.42500930472 0.42498548134 0.42496197243 0.42493884889 
0.42491646326 0.42489517552 0.42487521515 0.4248568591 0.4216420045 0.42165956588 0.42167752007 0.4216954978 0.42163838149 
0.42162092071 0.42160288395 0.42158421367 0.42156452496 0.42154383372 0.42152219423 0.42149983189 0.42147653756 0.42145267993 
0.42142883517 0.42140505994 0.42138188405 0.42135959144 0.42133860171 0.42131940549 0.41639195805 0.41640769073 0.41642397703 
0.41644056669 0.41638577287 0.4163695407 0.41635287502 0.41633533124 0.41631694009 0.4162973407 0.41627653589 0.41625466839 
0.41623172674 0.41620785799 0.41618341893 0.41615899745 0.41613499711 0.4161117051 0.4160897331 0.41606972199 0.40948571212 
0.40949965624 0.409514444 0.40952967338 0.40947720912 0.40946203262 0.40944653978 0.40943020214 0.40941299047 0.40939436081 
0.40937434729 0.40935293032 0.40933015599 0.40930613504 0.40928142608 0.40925616873 0.40923125288 0.40920702116 0.40918421729 
0.40916339027 0.40100064937 0.4010130166 0.40102636823 0.40104059293 0.40099009487 0.40097587075 0.40096146085 0.40094626881 
0.40093003982 0.4009123781 0.40089309865 0.40087203286 0.4008493088 0.40082523218 0.40080006812 0.40077427228 0.40074841614 
0.40072342645 0.40069981633 0.40067827631 0.39103886794 0.39104961947 0.3910616834 0.39107463767 0.39102609823 0.39101284803 
0.39099932354 0.39098512894 0.39096974092 0.39095281664 0.39093420639 0.3909135808 0.39089101151 0.39086668687 0.39084119355 
0.39081485561 0.3907884972 0.39076262656 0.39073844275 0.39071635054 0.37972731497 0.37973665534 0.379747392 0.37975918389 
0.37971249356 0.37969976338 0.37968700431 0.37967360811 0.37965901009 0.37964279885 0.37962469563 0.37960446511 0.3795820436 
0.3795577526 0.37953203413 0.37950529292 0.37947845493 0.37945224659 0.37942750962 0.37940504897 0.36721840881 0.36722636618 
0.3672358617 0.36724660661 0.36720147122 0.36718916688 0.36717695983 0.36716418516 0.36715021988 0.36713457672 0.36711691661 
0.36709702282 0.36707493145 0.36705063505 0.3670248675 0.36699802957 0.36697099059 0.36694459198 0.36691979787 0.36689724949 
0.35368786797 0.35369447518 0.35370281153 0.35371251037 0.35366877209 0.35365671139 0.35364486509 0.35363245803 0.35361888403 
0.35360373043 0.35358650356 0.35356694321 0.35354499857 0.35352102355 0.35349544895 0.35346878056 0.35344181224 0.35341554159 
0.35339096879 0.35336870423 0.34134794535 0.3413675494 0.34138462436 0.34139898672 0.34136276555 0.34134754614 0.34133040725 
0.3413119672 0.3412927047 0.3412735282 0.34125471945 0.34123707692 0.34122104797 0.34120691673 0.34119477039 0.34118460605 
0.34117614597 0.34116898229 0.34116272166 0.34115674219 0.35346884897 0.35348872706 0.35350623725 0.35352110582 0.35348362447 
0.35346832521 0.3534510549 0.35343247543 0.35341291348 0.35339340348 0.35337408762 0.35335591096 0.35333913268 0.35332405994 
0.35331094009 0.35329969567 0.35329009668 0.35328177059 0.35327437855 0.35326732959 0.36466695272 0.36468693083 0.36470471213 
0.36472000504 0.36468111442 0.36466556183 0.36464821665 0.36462950167 0.36460978294 0.36458996229 0.36457035585 0.36455161692 
0.36453416557 0.36451830306 0.36450423734 0.36449183446 0.36448104844 0.36447152434 0.36446299986 0.36445486832 0.37479031506 
0.37481030028 0.37482822408 0.37484385512 0.37480347072 0.37478761873 0.37477008767 0.37475117783 0.37473142193 0.374711387 
0.37469146168 0.37467231575 0.37465427133 0.37463765443 0.37462252961 0.37460906246 0.37459712553 0.37458636997 0.37457673351 
0.37456746788 0.38370530074 0.38372520203 0.38374322324 0.3837591473 0.3837169975 0.38370081462 0.3836830511 0.38366396233 
0.38364403162 0.38362375983 0.38360371135 0.38358420979 0.38356562195 0.38354813709 0.38353219429 0.38351767714 0.38350458435 
0.38349264535 0.38348172645 0.38347138506 0.3912982723 0.39131803414 0.39133611653 0.39135241087 0.39130829883 0.39129169483 
0.39127358833 0.39125428 0.39123416205 0.3912137511 0.39119338895 0.39117358135 0.39115441216 0.39113628753 0.39111941516 
0.39110381933 0.39108962055 0.39107650938 0.39106436373 0.3910529361 0.39747658071 0.39749610417 0.39751420046 0.39753090621 