# vtk DataFile Version 5.1
vtk output
ASCII
DATASET STRUCTURED_POINTS
DIMENSIONS 30 30 30
SPACING 0.01 0.01 0.01
ORIGIN 1.555 -0.145 0.855
POINT_DATA 27000
FIELD FieldData 3
potential 1 27000 double
0.34765323649 0.34765261035 0.34765194062 0.34765140284 0.34765093333 0.34765049025 0.34765015247 0.34764981402 0.34764930556 
0.34764886788 0.34764848019 0.34764813987 0.34764785709 0.34764770605 0.34764743757 0.34764723844 0.34764697293 0.34764680687 
0.34764665329 0.34764652235 0.34764633485 0.34764632464 0.3476462383 0.34764622607 0.34764618601 0.34764618455 0.34764618426 
0.34764622649 0.34764631469 0.34764645131 0.34719922898 0.34719855983 0.34719794399 0.347197363 0.34719680608 0.34719637337 
0.34719589444 0.34719539852 0.34719494153 0.34719452093 0.34719407228 0.34719368172 0.34719340104 0.34719312169 0.34719289202 
0.34719255439 0.34719230025 0.34719209886 0.34719188701 0.34719178482 0.34719161876 0.34719152228 0.34719145261 0.34719135999 
0.34719127514 0.3471912249 0.34719123007 0.34719124576 0.34719128948 0.34719140951 0.34678488528 0.3467841638 0.34678348464 
0.34678290239 0.34678233273 0.34678175916 0.34678121548 0.34678063115 0.3467801801 0.3467797537 0.34677928962 0.3467788488 
0.34677849572 0.34677818015 0.34677785147 0.34677754187 0.34677725759 0.34677698032 0.34677676431 0.34677658381 0.34677648515 
0.34677631464 0.34677619933 0.34677605837 0.34677596682 0.34677585181 0.34677585715 0.34677586141 0.34677594084 0.34677599367 
0.34641047824 0.34640966218 0.34640891358 0.34640839228 0.34640774575 0.3464070939 0.3464064668 0.34640587008 0.34640533036 
0.34640480966 0.34640440678 0.34640395236 0.34640356103 0.34640314351 0.34640276411 0.34640240913 0.34640212395 0.34640183989 
0.34640153441 0.34640146364 0.34640124737 0.34640108777 0.34640090184 0.34640069313 0.34640054862 0.34640042666 0.34640044576 
0.34640050862 0.34640048092 0.34640051654 0.34607616729 0.34607539134 0.34607465627 0.34607410878 0.34607342308 0.34607272486 
0.34607205027 0.34607142916 0.34607084383 0.34607027911 0.34606976763 0.34606933145 0.34606885358 0.34606843915 0.34606800856 
0.34606761244 0.34606725477 0.34606698314 0.34606664125 0.34606653232 0.34606626638 0.34606606844 0.34606585753 0.34606565551 
0.34606546494 0.34606531465 0.3460652681 0.34606529439 0.34606528778 0.34606530096 0.34578256 0.3457817398 0.34578108957 
0.34578029561 0.34577956674 0.34577886946 0.34577825232 0.34577755487 0.34577691027 0.34577628622 0.34577566732 0.34577514454 
0.34577475224 0.34577423556 0.34577381651 0.34577338451 0.34577298969 0.34577262167 0.34577241067 0.34577210882 0.34577190609 
0.34577163592 0.34577138122 0.34577116688 0.34577098536 0.34577075055 0.34577076976 0.34577070152 0.34577063653 0.34577062731 
0.34552978209 0.34552902722 0.34552822352 0.34552738206 0.34552664723 0.34552590315 0.34552517715 0.34552447224 0.34552382443 
0.34552316625 0.34552256064 0.34552192443 0.34552132012 0.34552093624 0.34552041933 0.3455199973 0.34551956494 0.34551917818 
0.34551887091 0.34551862572 0.34551831266 0.34551803385 0.34551776873 0.3455175282 0.34551731628 0.34551718433 0.3455169899 
0.34551688898 0.34551679676 0.34551675034 0.34531807277 0.34531731447 0.34531646809 0.34531560049 0.34531477006 0.34531399828 
0.34531321421 0.3453124773 0.34531177447 0.34531104748 0.34531040611 0.34530980207 0.34530917547 0.34530864683 0.34530815986 
0.34530771957 0.34530725265 0.34530694516 0.34530648174 0.34530614947 0.34530583679 0.34530551351 0.34530525215 0.34530498349 
0.3453047474 0.34530457408 0.34530438448 0.3453042424 0.34530411821 0.34530405976 0.34514781474 0.34514691226 0.34514600094 
0.34514511021 0.34514421801 0.34514339638 0.34514257588 0.34514180235 0.34514104053 0.34514033549 0.34513963869 0.34513891825 
0.34513824275 0.34513770482 0.34513717132 0.34513666649 0.34513624684 0.345135892 0.34513549093 0.34513504395 0.34513467063 
0.34513431652 0.34513402901 0.3451337287 0.34513353388 0.34513330082 0.34513308604 0.3451329803 0.34513277803 0.34513269298 
0.34501894658 0.34501799587 0.34501703476 0.3450161088 0.34501519671 0.34501430853 0.34501344398 0.3450126313 0.34501183408 
0.34501108973 0.3450103597 0.34500962803 0.34500889064 0.34500827647 0.34500771069 0.34500717019 0.34500681844 0.34500633606 
0.34500592901 0.3450055022 0.3450050176 0.34500464224 0.3450042965 0.34500411724 0.34500384898 0.3450035648 0.34500330582 
0.34500311896 0.34500301578 0.3450028743 0.34493177778 0.34493076519 0.34492975855 0.34492878601 0.34492784799 0.34492690429 
0.34492599919 0.3449251544 0.34492432 0.34492352917 0.34492272692 0.34492199797 0.34492129748 0.34492055541 0.34491997081 
0.34491935654 0.34491901918 0.34491857312 0.34491800891 0.34491751207 0.34491709879 0.3449166927 0.34491638562 0.3449160402 
0.34491578853 0.34491550284 0.34491523929 0.34491503056 0.34491490991 0.34491478905 0.34488641094 0.34488535218 0.34488431027 
0.34488331731 0.34488231495 0.34488133761 0.34488038964 0.34487947421 0.34487863396 0.34487780531 0.34487697367 0.34487619989 
0.34487549858 0.3448747349 0.34487407795 0.3448735761 0.34487295137 0.34487248203 0.34487196383 0.34487145786 0.34487099405 
0.344870614 0.34487024705 0.34486989466 0.34486953483 0.34486928196 0.34486901988 0.344868796 0.34486858803 0.34486853543 
0.34488302311 0.34488190966 0.34488083269 0.34487978566 0.34487875458 0.34487775467 0.34487676851 0.34487580885 0.34487495732 
0.34487403869 0.34487321363 0.3448724044 0.34487162327 0.344870885 0.34487009928 0.34486958681 0.34486895728 0.34486843739 
0.3448678718 0.34486734476 0.34486694015 0.34486647282 0.34486605245 0.34486567615 0.34486533058 0.34486500001 0.34486472069 
0.34486449329 0.34486426573 0.34486419477 0.34492165639 0.34492050211 0.34491941408 0.34491831805 0.3449172534 0.34491623979 
0.34491520026 0.3449142133 0.34491326661 0.34491232253 0.34491147207 0.34491061707 0.34490979379 0.34490901829 0.3449083402 
0.34490768879 0.34490709575 0.34490645711 0.34490589595 0.34490533239 0.34490490783 0.34490440848 0.34490396749 0.34490353783 
0.34490312403 0.34490277736 0.34490251082 0.34490223412 0.34490198823 0.34490190191 0.34500243805 0.34500124534 0.34500009 
0.34499895565 0.34499785248 0.3449968026 0.34499571933 0.3449947166 0.3449937286 0.34499273323 0.34499183834 0.34499096403 
0.34499011602 0.34498929664 0.34498864077 0.34498789274 0.3449872786 0.34498660693 0.34498603102 0.34498550739 0.34498497284 
0.34498443954 0.34498400119 0.34498352092 0.34498308004 0.34498270972 0.34498235441 0.34498209711 0.34498186043 0.34498168207 
0.34512536223 0.34512413643 0.34512293161 0.34512175684 0.34512061645 0.34511953219 0.34511843239 0.34511737612 0.34511629046 
0.34511530455 0.34511438705 0.34511347951 0.34511258709 0.34511186995 0.34511105987 0.34511029048 0.34510962937 0.34510894036 
0.34510836311 0.34510781687 0.34510720391 0.34510665771 0.34510618392 0.34510572105 0.34510523198 0.345104836 0.34510445397 
0.34510413812 0.34510385604 0.34510366062 0.34529058278 0.34528930788 0.34528800855 0.34528679548 0.34528564321 0.34528451221 
0.34528336258 0.34528227572 0.3452811692 0.34528015828 0.34527917276 0.34527823415 0.34527726207 0.34527651375 0.34527567192 
0.34527492 0.34527418585 0.34527355401 0.3452728632 0.34527228876 0.34527166471 0.34527108892 0.3452705865 0.34527009467 
0.34526961545 0.34526913419 0.34526873668 0.34526839171 0.34526812624 0.34526790582 0.34549793376 0.34549656801 0.34549529727 
0.34549398227 0.34549278596 0.34549159959 0.34549045026 0.34548928424 0.34548817529 0.34548714871 0.34548612345 0.34548516312 
0.34548433217 0.34548341636 0.34548258134 0.3454817517 0.3454810577 0.34548032672 0.34547960827 0.34547895533 0.345478319 
0.34547773877 0.34547716377 0.3454766525 0.34547615718 0.34547569407 0.34547524043 0.3454748985 0.34547472573 0.34547443415 
0.34574739209 0.34574598843 0.34574466737 0.34574338726 0.34574218013 0.3457408881 0.3457396898 0.34573848871 0.34573734935 
0.34573628088 0.34573523217 0.34573422793 0.34573339531 0.34573243614 0.34573157546 0.34573080426 0.34572995474 0.34572922409 
0.3457284785 0.34572777163 0.34572715856 0.34572655354 0.34572598395 0.34572543349 0.34572487739 0.34572441335 0.34572410765 
0.34572367092 0.34572337162 0.34572311511 0.34603897127 0.34603756125 0.34603614256 0.34603485978 0.34603359488 0.34603233892 
0.34603105879 0.346029809 0.3460286586 0.34602753512 0.34602645497 0.34602541931 0.34602454381 0.34602364027 0.34602279362 
0.34602186286 0.34602102561 0.34602020367 0.34601945655 0.34601874583 0.34601805718 0.34601747048 0.34601687023 0.34601630432 
0.34601577958 0.34601539069 0.34601495512 0.34601451089 0.34601418179 0.34601386931 0.34637251649 0.3463711433 0.34636976591 
0.34636837748 0.34636705086 0.34636575485 0.34636442606 0.34636321348 0.34636198101 0.34636081435 0.3463597095 0.34635875949 
0.34635772782 0.34635688297 0.34635591619 0.34635500028 0.34635414298 0.34635323318 0.34635248753 0.34635175067 0.34635106001 
0.34635039707 0.34634981699 0.34634933577 0.34634877227 0.34634827087 0.34634780703 0.34634747733 0.3463470754 0.34634675998 
0.34674803935 0.34674666829 0.34674521637 0.34674384706 0.34674242827 0.34674110638 0.34673975284 0.34673849097 0.34673728092 
0.34673606807 0.34673489792 0.34673392339 0.34673295566 0.34673197476 0.3467310037 0.3467300491 0.34672916438 0.34672831261 
0.34672748952 0.34672668998 0.34672598182 0.34672540579 0.34672479914 0.34672419034 0.34672363226 0.34672312103 0.34672268039 
0.34672226497 0.34672187622 0.34672152561 0.34716540544 0.34716389448 0.34716248054 0.3471610555 0.3471596105 0.34715825971 
0.34715686961 0.34715559059 0.34715435584 0.3471531578 0.34715207731 0.34715098641 0.34714993864 0.34714888167 0.34714788797 
0.34714690713 0.34714599485 0.34714510141 0.3471442455 0.34714349125 0.3471428569 0.34714214559 0.34714146898 0.34714091538 
0.34714032673 0.3471397988 0.34713931649 0.3471389003 0.34713849874 0.34713814296 0.3476243914 0.34762284647 0.34762135796 
0.34761994113 0.34761852298 0.34761702917 0.34761564638 0.34761433762 0.34761306627 0.3476118383 0.34761086913 0.34760969186 
0.34760857413 0.34760746615 0.34760642592 0.34760543358 0.34760448994 0.34760358342 0.34760280934 0.3476020549 0.34760130403 
0.34760056935 0.34759987705 0.34759917911 0.34759865273 0.34759808651 0.34759758592 0.34759714837 0.34759673278 0.34759635896 
0.34812483589 0.34812326956 0.34812171517 0.34812028991 0.34811882805 0.34811735885 0.34811590879 0.34811456962 0.3481132684 
0.34811210338 0.3481110018 0.34810986281 0.34810866909 0.34810757823 0.34810645578 0.3481054151 0.34810457775 0.3481036369 
0.34810276324 0.34810192205 0.34810116696 0.34810042578 0.34809971207 0.34809906509 0.34809849687 0.34809791141 0.34809737337 
0.34809690876 0.34809646529 0.34809607039 0.34866654996 0.34866493394 0.34866337193 0.34866187599 0.34866041044 0.34865889928 
0.34865741936 0.34865614529 0.34865481379 0.34865352569 0.34865239626 0.34865121802 0.34865001488 0.34864890335 0.3486479137 
0.34864687121 0.34864583574 0.34864485703 0.34864394859 0.34864310239 0.34864231895 0.3486415561 0.34864084324 0.34864015991 
0.34863952019 0.34863896469 0.34863846132 0.34863798256 0.34863753262 0.34863707643 0.34924925651 0.34924762775 0.34924607819 
0.34924451323 0.34924294841 0.34924150304 0.34924016267 0.34923865165 0.3492372923 0.3492360979 0.34923481459 0.34923373568 
0.34923253372 0.3492313569 0.34923025281 0.34922917743 0.34922817338 0.34922718854 0.34922622768 0.34922537696 0.34922453057 
0.34922375606 0.34922299431 0.34922229134 0.34922164696 0.34922102275 0.34922054931 0.34922005457 0.34921959137 0.34921911428 
0.34987272249 0.34987108475 0.34986950616 0.34986791611 0.34986632305 0.34986489839 0.34986346148 0.34986196362 0.34986059044 
0.34985946186 0.34985817464 0.34985692236 0.34985569485 0.34985451509 0.34985335936 0.34985226921 0.34985123094 0.34985023656 
0.34984928103 0.34984840639 0.34984754409 0.34984672624 0.34984594466 0.3498452258 0.34984455756 0.34984392352 0.34984342782 
0.34984287758 0.34984240053 0.34984196722 0.35053668184 0.35053502313 0.35053340225 0.35053180982 0.35053028328 0.3505287526 
0.35052737577 0.35052589981 0.35052446565 0.3505232199 0.350521938 0.3505206445 0.3505194025 0.35051816863 0.35051698939 
0.35051588028 0.35051481822 0.35051379761 0.35051284335 0.35051194962 0.35051106433 0.35051024627 0.3505094253 0.35050868929 
0.35050793763 0.3505073307 0.35050675944 0.35050627559 0.35050577561 0.35050534864 0.35124094268 0.35123923475 0.35123760764 
0.35123616924 0.35123453208 0.35123299083 0.35123147724 0.35123002659 0.35122859117 0.35122714275 0.35122583933 0.35122452232 
0.35122325662 0.35122203387 0.35122086047 0.35121970582 0.35121861579 0.35121753867 0.35121658603 0.35121565972 0.35121480095 
0.3512139194 0.35121308391 0.35121244558 0.35121171204 0.35121107922 0.35121046387 0.35120990456 0.35120943681 0.3512089777 
0.34814266903 0.34814204523 0.34814143684 0.34814086665 0.34814033789 0.34813990034 0.34813956681 0.3481391938 0.3481387893 
0.34813841088 0.34813804616 0.34813767664 0.34813741931 0.34813713456 0.34813698718 0.34813676677 0.34813657901 0.34813636751 
0.34813622303 0.34813611435 0.34813600571 0.34813586626 0.34813589485 0.34813590167 0.34813587524 0.34813589153 0.34813595286 
0.34813603016 0.34813610656 0.34813630025 0.34770438004 0.34770373069 0.34770311336 0.34770251886 0.34770193836 0.34770141365 
0.3477010236 0.34770064656 0.34770019056 0.34769969989 0.34769929943 0.34769894009 0.34769858892 0.34769831914 0.34769808717 
0.34769791805 0.34769769213 0.34769741455 0.34769726713 0.34769709918 0.3476969714 0.34769685203 0.34769679838 0.34769676278 
0.34769670912 0.34769671375 0.34769674999 0.34769678636 0.34769693477 0.34769701941 0.34730466279 0.34730396724 0.34730329714 
0.34730264018 0.34730208477 0.34730158272 0.3473010452 0.34730055261 0.34730002381 0.34729957698 0.3472991449 0.34729872131 
0.34729834622 0.34729805475 0.34729777867 0.34729747171 0.34729720974 0.34729695254 0.34729674272 0.347296619 0.34729646534 
0.34729640462 0.3472963232 0.34729617118 0.34729608298 0.34729604745 0.34729607413 0.34729614554 0.34729619898 0.34729631843 
0.34694373735 0.34694302555 0.3469423531 0.34694169413 0.34694105912 0.34694055147 0.34693993544 0.34693934574 0.3469387909 
0.34693832523 0.34693789233 0.34693744568 0.34693700519 0.34693665685 0.34693629714 0.34693595219 0.34693565008 0.34693541444 
0.34693518011 0.34693497471 0.3469348934 0.34693469806 0.34693459217 0.34693448596 0.3469343308 0.34693426744 0.34693428179 
0.34693431391 0.34693434983 0.34693441373 0.34662205528 0.34662129749 0.34662056883 0.34661988311 0.34661930641 0.34661865491 
0.34661800453 0.34661738339 0.34661677593 0.34661620545 0.34661574834 0.34661526292 0.34661484625 0.3466144608 0.34661404973 
0.34661366591 0.34661331211 0.34661298345 0.3466127972 0.34661250672 0.34661241358 0.34661226854 0.34661206657 0.34661190894 
0.34661178453 0.34661163845 0.34661164999 0.34661166928 0.34661170465 0.34661172881 0.34633982275 0.3463390057 0.34633822101 
0.34633766919 0.34633693608 0.34633622469 0.34633555587 0.34633492425 0.34633424355 0.34633367376 0.34633306733 0.34633260781 
0.34633210743 0.34633169064 0.3463312344 0.34633086188 0.346330473 0.34633012637 0.34632981155 0.34632966472 0.34632940049 
0.3463292357 0.3463290222 0.34632883861 0.34632870523 0.34632865463 0.34632848507 0.34632851687 0.34632855217 0.34632856575 
0.34609736671 0.34609651366 0.34609574311 0.3460950329 0.34609426383 0.34609353244 0.3460928811 0.34609220309 0.34609147946 
0.34609086299 0.34609020615 0.34608964764 0.34608916717 0.34608867961 0.34608817293 0.34608776931 0.34608739168 0.3460870116 
0.34608666773 0.34608643169 0.34608618028 0.34608596707 0.34608575493 0.34608554406 0.34608543734 0.34608529816 0.34608518681 
0.34608508932 0.34608510263 0.34608509501 0.34589492172 0.34589403729 0.34589326872 0.34589243991 0.34589164144 0.34589086365 
0.3458901171 0.34588938379 0.34588872413 0.34588806861 0.34588743332 0.34588675218 0.3458861983 0.34588566299 0.34588517483 
0.34588467642 0.34588431034 0.34588388703 0.34588363007 0.3458833025 0.34588297652 0.34588269265 0.34588252757 0.34588228944 
0.34588215654 0.34588195829 0.34588182207 0.34588164499 0.34588158495 0.34588155343 0.34573266421 0.34573180972 0.34573094718 
0.34573006754 0.34572922675 0.34572840401 0.34572761187 0.34572681319 0.3457260973 0.3457254024 0.34572473716 0.34572411329 
0.34572344344 0.34572287424 0.34572241559 0.34572187697 0.34572135922 0.34572095813 0.34572070852 0.34572037 0.34572001982 
0.34571971421 0.34571942263 0.34571929587 0.34571899491 0.34571876856 0.34571862986 0.34571848767 0.34571846059 0.34571834974 
0.34561080664 0.34560995356 0.34560902384 0.34560810541 0.34560721005 0.34560633366 0.34560552025 0.34560469109 0.34560393362 
0.34560320171 0.34560250011 0.34560182809 0.34560112069 0.34560052983 0.34559993896 0.34559947489 0.34559897891 0.34559861665 
0.34559824613 0.34559784683 0.34559748874 0.34559711811 0.34559683247 0.34559652447 0.34559632358 0.34559607336 0.34559591198 
0.34559574644 0.34559562878 0.34559563171 0.34552963704 0.3455286581 0.34552766771 0.34552673234 0.34552579668 0.34552489736 
0.34552401282 0.34552315214 0.34552235299 0.34552158461 0.34552084921 0.34552008325 0.34551939639 0.34551878152 0.34551817019 
0.34551763822 0.34551711179 0.34551674873 0.34551634193 0.34551591192 0.34551542276 0.3455150986 0.34551480492 0.34551448588 
0.34551420391 0.34551399471 0.3455138348 0.34551362319 0.34551348989 0.34551347523 0.34548910373 0.34548807682 0.34548705782 
0.34548606912 0.34548510878 0.34548415089 0.34548322216 0.3454823438 0.34548153986 0.34548073738 0.34547995924 0.34547918048 
0.34547845698 0.34547775396 0.34547710987 0.34547652308 0.34547603482 0.3454755859 0.34547512008 0.34547465298 0.34547427417 
0.3454738681 0.34547349332 0.34547315923 0.34547289021 0.34547262429 0.34547243208 0.3454722342 0.34547211465 0.34547203982 
0.34548941446 0.34548834894 0.34548732059 0.34548629446 0.34548529 0.34548430101 0.34548333551 0.34548239585 0.34548153965 
0.34548069963 0.34547988185 0.34547906756 0.34547831948 0.34547758181 0.34547689281 0.34547626721 0.34547577097 0.34547527314 
0.34547480176 0.3454744055 0.3454739193 0.34547348376 0.34547307955 0.34547270283 0.34547239869 0.34547208096 0.3454718977 
0.34547167006 0.34547154017 0.34547137226 0.34553072787 0.34552958292 0.34552848849 0.34552742533 0.34552638407 0.34552538105 
0.34552438849 0.34552340092 0.3455225093 0.34552162634 0.34552072524 0.34551993295 0.34551915896 0.34551840236 0.34551763799 
0.34551707859 0.34551646737 0.34551593257 0.34551536973 0.34551501183 0.34551450228 0.34551404517 0.34551361198 0.34551320288 
0.34551288291 0.34551253379 0.34551226199 0.3455120413 0.345511912 0.34551173552 0.34561296511 0.34561180089 0.34561066822 
0.34560955747 0.3456084795 0.34560743243 0.34560644193 0.34560540014 0.34560445467 0.34560355355 0.34560262421 0.34560179956 
0.34560096594 0.34560018482 0.345599403 0.34559881464 0.34559822216 0.34559761036 0.34559710266 0.34559661381 0.34559611971 
0.34559560916 0.34559516268 0.3455947611 0.34559438246 0.34559402312 0.34559372143 0.34559344338 0.34559326375 0.34559306914 
0.34573634948 0.34573513778 0.34573389881 0.34573276076 0.34573164955 0.34573057669 0.34572952763 0.34572848216 0.34572748719 
0.345726493 0.3457255832 0.34572470447 0.34572386199 0.34572304897 0.34572239615 0.34572162962 0.34572100931 0.34572044158 
0.345719823 0.34571925283 0.34571877873 0.34571826424 0.34571777686 0.34571736579 0.34571697751 0.34571653493 0.34571621675 
0.34571592357 0.34571572722 0.34571554307 0.34590074767 0.34589949833 0.34589828071 0.3458970618 0.34589590226 0.34589479288 
0.34589371843 0.34589263993 0.345891601 0.34589057071 0.34588963343 0.34588873628 0.34588784779 0.34588700971 0.34588632145 
0.3458855673 0.34588491945 0.34588428629 0.3458836419 0.34588304604 0.34588251225 0.34588200113 0.34588147816 0.3458810345 
0.34588062452 0.34588022301 0.34587984805 0.34587953335 0.34587942277 0.34587919289 0.34610624424 0.34610498003 0.34610372928 
0.34610250154 0.34610126431 0.34610013553 0.34609902722 0.34609793181 0.34609682252 0.34609578551 0.34609476649 0.34609385119 
0.34609293292 0.34609216645 0.34609132915 0.34609063868 0.34608987632 0.34608921542 0.34608854535 0.34608790091 0.3460873181 
0.34608680762 0.34608628489 0.34608581412 0.34608537371 0.34608496033 0.34608461956 0.34608437933 0.34608410888 0.34608386382 
0.34635282481 0.34635148446 0.34635019742 0.34634892271 0.34634769905 0.34634653703 0.34634535961 0.34634422178 0.34634307838 
0.34634200764 0.34634101749 0.34634006102 0.34633912789 0.34633835385 0.34633762438 0.34633675421 0.3463359221 0.34633523272 
0.34633452629 0.3463338433 0.34633323298 0.34633265426 0.34633217523 0.34633169085 0.34633121638 0.34633087507 0.34633051304 
0.34633017968 0.34632987959 0.34632963179 0.3466403349 0.34663897818 0.34663766631 0.34663635971 0.34663511909 0.34663390805 
0.34663272943 0.3466315144 0.3466303427 0.34662926138 0.34662820707 0.34662720721 0.34662625503 0.34662554066 0.34662469784 
0.34662383679 0.34662299079 0.34662221129 0.3466215343 0.3466208541 0.34662020662 0.34661960267 0.3466191071 0.34661868976 
0.34661817508 0.34661771711 0.3466173317 0.34661700776 0.34661667727 0.34661640271 0.34696879378 0.34696742095 0.34696605539 
0.34696471228 0.34696344389 0.34696219007 0.34696098481 0.34695971973 0.34695857101 0.34695741342 0.34695633989 0.34695531072 
0.34695452823 0.34695363298 0.34695271569 0.34695184057 0.34695099437 0.34695018062 0.34694948085 0.34694873919 0.34694808593 
0.34694745741 0.34694699873 0.34694650416 0.34694600057 0.34694552756 0.34694511969 0.34694478062 0.34694445016 0.34694414532 
0.34733806904 0.34733666067 0.34733528884 0.34733391295 0.34733259886 0.34733131688 0.34733005599 0.34732877245 0.34732758661 
0.34732645614 0.34732532293 0.34732433489 0.34732343258 0.34732250996 0.34732156895 0.34732066459 0.34731979761 0.34731895378 
0.3473181989 0.34731749211 0.34731692929 0.34731626915 0.34731566327 0.34731513757 0.34731464843 0.34731416815 0.3473138427 
0.34731345267 0.34731309758 0.34731282179 0.34774803888 0.34774662327 0.34774518601 0.34774378477 0.34774244217 0.34774112881 
0.3477398522 0.34773853932 0.34773731294 0.3477361474 0.34773511843 0.34773415142 0.34773304155 0.3477320806 0.34773112525 
0.34773021062 0.34772932153 0.34772849978 0.34772777622 0.34772704886 0.34772636474 0.34772572241 0.3477250992 0.34772454145 
0.3477240129 0.34772353809 0.34772313942 0.34772275267 0.34772237503 0.3477220856 0.34819861801 0.34819713035 0.34819563879 
0.34819422227 0.3481928469 0.34819149322 0.34819013302 0.34818884732 0.34818760907 0.34818650858 0.34818536699 0.34818433582 
0.3481832874 0.34818226785 0.34818124079 0.34818029603 0.3481794826 0.34817863697 0.34817778976 0.34817704592 0.3481763694 
0.34817570179 0.34817505 0.34817445707 0.34817393376 0.34817346261 0.34817299818 0.34817259479 0.34817220287 0.34817187558 
0.34868952565 0.34868799748 0.3486865061 0.34868507942 0.34868364487 0.3486822564 0.3486808561 0.34867961692 0.34867834901 
0.34867712777 0.34867595868 0.3486749282 0.34867385905 0.34867278071 0.34867184271 0.34867085455 0.34866991871 0.34866907299 
0.34866821161 0.34866742568 0.34866670596 0.34866603675 0.34866536017 0.34866477052 0.34866420584 0.34866371861 0.34866328659 
0.34866286996 0.34866249115 0.34866208932 0.3492205816 0.34921900152 0.34921748757 0.34921604428 0.34921460539 0.34921318777 
0.34921185393 0.34921048427 0.34920918873 0.34920794063 0.34920685854 0.34920572776 0.34920467859 0.34920357603 0.34920253988 
0.34920155411 0.3492005868 0.34919964662 0.34919882826 0.34919797386 0.34919723978 0.34919654627 0.34919589088 0.34919525442 
0.34919467224 0.34919415375 0.34919371992 0.34919329049 0.34919289464 0.34919253729 0.34979158848 0.3497899682 0.3497884245 
0.34978695294 0.3497854853 0.34978409677 0.34978268681 0.34978132316 0.34977998226 0.34977879814 0.34977765506 0.34977650283 
0.34977537228 0.34977426688 0.34977318441 0.34977215986 0.34977118256 0.34977027086 0.34976938353 0.34976847072 0.34976773934 
0.34976702452 0.34976634096 0.3497656986 0.34976509286 0.34976456125 0.34976406828 0.34976366934 0.34976324161 0.34976288004 
0.35040225611 0.35040062187 0.35039904915 0.35039751974 0.35039613077 0.35039464174 0.35039320664 0.35039189411 0.35039052289 
0.35038922539 0.35038810969 0.35038694171 0.35038577106 0.350384619 0.35038353345 0.3503824777 0.35038147402 0.35038053164 
0.35037965668 0.35037881672 0.3503779601 0.35037718084 0.35037647929 0.35037581413 0.35037519961 0.35037469863 0.35037417028 
0.35037375706 0.35037332668 0.35037288873 0.351052401 0.35105074048 0.3510491474 0.35104769277 0.3510462446 0.35104471164 
0.35104327055 0.3510417786 0.3510403849 0.35103906446 0.35103795968 0.35103672427 0.35103553024 0.35103438058 0.35103330345 
0.35103222253 0.35103120557 0.35103021842 0.35102932795 0.35102846664 0.35102760163 0.35102684291 0.35102610531 0.35102539104 
0.35102490376 0.35102432776 0.35102374684 0.35102326535 0.35102286838 0.35102250941 0.35174155445 0.35174007876 0.35173845136 
0.35173688911 0.35173534864 0.35173381796 0.35173233465 0.35173092095 0.35172949507 0.35172825844 0.35172700567 0.35172574989 
0.35172453704 0.35172337345 0.35172224798 0.3517211672 0.35172011345 0.35171916034 0.3517182654 0.3517173616 0.35171648889 
0.35171570671 0.35171493921 0.35171425858 0.35171357805 0.35171294296 0.3517123876 0.35171187332 0.35171145184 0.35171112312 
0.34859394108 0.3485933591 0.34859277236 0.34859222679 0.34859169111 0.34859129901 0.3485907998 0.34859038005 0.34859010285 
0.34858972976 0.34858935672 0.34858905323 0.34858870739 0.34858847361 0.34858824009 0.34858806061 0.34858793301 0.34858779516 
0.34858763734 0.34858751491 0.34858744157 0.34858736542 0.34858727307 0.34858724576 0.34858740145 0.34858744701 0.34858751544 
0.3485876214 0.34858780695 0.34858800126 0.34817100229 0.34817038649 0.34816974166 0.34816912598 0.34816857815 0.3481680732 
0.34816766483 0.34816724889 0.34816679095 0.34816648683 0.34816608716 0.34816566615 0.34816534047 0.34816505967 0.34816477132 
0.34816456586 0.34816433978 0.34816422927 0.34816400998 0.34816387937 0.34816377771 0.34816367857 0.34816360444 0.34816364173 
0.34816362884 0.34816364234 0.34816368811 0.34816385411 0.34816393111 0.34816409996 0.34778556112 0.34778490568 0.34778421781 
0.347783605 0.34778297402 0.34778245856 0.34778200827 0.34778158538 0.34778104468 0.34778052604 0.34778013011 0.34777976679 
0.34777938759 0.34777904651 0.3477787657 0.34777857561 0.34777831916 0.34777805882 0.34777790766 0.34777770955 0.34777759441 
0.3477774719 0.34777746356 0.34777742111 0.34777732785 0.34777732394 0.34777740302 0.34777748256 0.34777753298 0.347777678 
0.3474379354 0.3474372075 0.34743651994 0.34743585271 0.34743524328 0.34743464037 0.34743419023 0.34743360956 0.34743307143 
0.34743256521 0.34743209899 0.34743165083 0.34743128031 0.34743090195 0.34743060411 0.3474302882 0.34743004455 0.34742972766 
0.34742950677 0.34742938019 0.34742922234 0.34742908031 0.3474290756 0.34742897219 0.3474289061 0.34742882262 0.34742885333 
0.3474288811 0.34742895605 0.34742907786 0.34712845875 0.34712765949 0.34712694988 0.34712624235 0.34712559649 0.34712506287 
0.347124454 0.34712383239 0.34712326929 0.34712271553 0.3471222053 0.3471217258 0.34712128741 0.34712090357 0.34712055263 
0.34712020126 0.34711986747 0.34711957932 0.34711932028 0.34711908144 0.34711892307 0.34711886184 0.3471187512 0.34711866039 
0.34711856491 0.34711856545 0.34711845956 0.34711849476 0.34711855258 0.3471186512 0.34685733946 0.34685654242 0.34685581766 
0.34685509302 0.34685448295 0.3468537881 0.34685310321 0.3468524594 0.34685188549 0.34685124819 0.34685073738 0.34685022114 
0.34684974633 0.34684929475 0.34684890925 0.34684850949 0.34684818819 0.34684785679 0.34684758389 0.34684731428 0.34684713853 
0.34684702831 0.34684689079 0.34684673507 0.34684668242 0.34684662689 0.34684658747 0.34684650514 0.34684657625 0.34684664116 
0.34662492844 0.34662409693 0.3466232801 0.34662257516 0.34662193466 0.3466211677 0.34662047238 0.34661979058 0.34661918131 
0.34661854858 0.34661792193 0.34661740693 0.34661689113 0.346616406 0.34661596427 0.34661550893 0.34661511077 0.34661482176 
0.34661452086 0.34661421275 0.34661402934 0.34661383328 0.34661373799 0.34661362751 0.34661347701 0.34661338431 0.34661328696 
0.34661323777 0.34661320365 0.34661330722 0.34643145859 0.34643059238 0.34642973592 0.34642903555 0.34642825754 0.34642748072 
0.34642678902 0.34642608586 0.34642538556 0.34642473103 0.34642407106 0.34642348938 0.34642297146 0.34642244964 0.34642192281 
0.34642147426 0.3464210441 0.34642069121 0.34642037893 0.34642018824 0.34641995014 0.34641966574 0.3464194416 0.34641936857 
0.34641919289 0.34641905446 0.34641892272 0.34641886374 0.34641887688 0.3464188803 0.34627715736 0.34627621454 0.34627546036 
0.34627458503 0.34627375354 0.3462729714 0.34627217124 0.34627143053 0.34627078061 0.34627007888 0.34626944821 0.34626876104 
0.34626817849 0.34626769534 0.34626708326 0.34626661155 0.34626617172 0.34626572831 0.34626539576 0.34626517913 0.34626494786 
0.34626461054 0.34626443737 0.3462642053 0.34626403623 0.34626390058 0.34626374876 0.34626358665 0.34626355096 0.34626359326 
0.34616215625 0.34616118585 0.34616038564 0.34615949312 0.34615862178 0.34615779187 0.34615695342 0.34615617029 0.34615541108 
0.34615469944 0.34615403679 0.34615338381 0.3461527633 0.34615216265 0.34615165762 0.34615112974 0.34615062113 0.3461501487 
0.34614989594 0.34614959241 0.34614922889 0.34614894143 0.34614868704 0.34614844361 0.34614815881 0.34614800218 0.34614787334 
0.34614777833 0.34614770957 0.34614767004 0.34608667183 0.34608576877 0.34608482911 0.34608388232 0.3460829807 0.34608210584 
0.34608125726 0.34608042967 0.34607962874 0.34607891379 0.34607820062 0.34607753009 0.34607682712 0.34607620202 0.34607561491 
0.34607509253 0.34607458539 0.34607407739 0.34607373897 0.3460734538 0.34607315001 0.34607279219 0.34607241475 0.34607214414 