# vtk DataFile Version 5.1
vtk output
ASCII
DATASET STRUCTURED_POINTS
DIMENSIONS 20 20 40
SPACING 0.05 0.05 0.05
ORIGIN 3.225 -0.475 0.525
POINT_DATA 16000
FIELD FieldData 1
potential 1 16000 double
0.0072489958395 0.007385043038 0.0075229607421 0.0076627238569 0.0079338511476 0.0080840727626 0.0082362969329 0.0083904177599 0.0085463070763 
0.0087038378195 0.0088628718903 0.0090232597064 0.0091848349861 0.009347424117 0.0095108446778 0.0096749101655 0.0098394275349 0.01000419904 
0.010169029535 0.010333713549 0.0074323971581 0.007574879446 0.0077194079314 0.0078659499135 0.0081418672762 0.0082994366198 0.0084591921573 
0.0086210221051 0.008784798872 0.0089503892313 0.0091176437431 0.0092864045691 0.0094564990249 0.0096277445366 0.0097999524638 0.0099729275747 
0.010146460389 0.010320349422 0.01049438338 0.010668348045 0.0076207870588 0.0077700415729 0.0079215218142 0.0080751950003 0.0083560101802 
0.0085213639374 0.0086891068718 0.0088591173274 0.0090312664163 0.0092054198338 0.0093814109361 0.0095590818829 0.0097382429571 0.00991871641 
0.010100298828 0.010282781506 0.010465952834 0.010649590533 0.010833472699 0.011017379114 0.007815499768 0.0079718965744 0.008130716755 
0.0082919241337 0.0085777660957 0.0087513965329 0.0089276330765 0.0091063564815 0.0092874285748 0.0094707052569 0.0096560193858 0.0098432007345 
0.010032064515 0.010222408246 0.010414022788 0.010606696784 0.010800201736 0.010994303126 0.011188765593 0.011383352984 0.0080178470089 
0.0081818025574 0.0083483933493 0.0085175818133 0.0088085977395 0.0089910496269 0.0091763543398 0.0093643796644 0.0095549889552 0.0097480218741 
0.0099433167717 0.01014069033 0.010339950161 0.010540886531 0.010743282048 0.010946908701 0.011151530329 0.011356894847 0.011562751398 
0.011768850133 0.0082290292014 0.0084010003489 0.0085758392657 0.0087535076354 0.0090498542718 0.0092417394852 0.0094367361633 0.0096347223582 
0.0098355407618 0.010039038771 0.010245044217 0.010453365779 0.010663799209 0.010876130747 0.011090135827 0.011305561708 0.011522163959 
0.011739678842 0.011957840754 0.012176367968 0.0084500936332 0.0086305857978 0.0088141940176 0.0090008839469 0.0093027331135 0.0095047097874 
0.0097100956728 0.0099187544552 0.010130529782 0.010345269344 0.010562786537 0.010782884167 0.011005350391 0.011229966819 0.011456482484 
0.011684646907 0.01191419525 0.012144845819 0.012376309441 0.012608276012 0.0086819375257 0.0088714912154 0.0090644375314 0.0092607386448 
0.0095682664781 0.0097810581414 0.0099975803718 0.010217692565 0.010441239096 0.010668060419 0.010897967215 0.011130748614 0.011366187186 
0.011604050597 0.011844084778 0.012086013099 0.012329555873 0.012574416772 0.012820274521 0.01306680581 0.0089253166284 0.0091245157505 
0.0093274098603 0.0095339574603 0.0098473456348 0.01007173013 0.01030019565 0.010532603992 0.010768806448 0.011008625686 0.011251868992 
0.011498319319 0.011747755463 0.011999923265 0.012254556208 0.012511371709 0.012770057757 0.013030301392 0.013291757262 0.01355407632 
0.0091808668115 0.0093903379806 0.009603833416 0.0098213145707 0.01014074387 0.010377549657 0.010618832879 0.010864450332 0.01111425185 
0.011368054331 0.011625662695 0.011886852692 0.012151388833 0.012419009717 0.012689427689 0.012962347914 0.013237433015 0.013514336282 
0.01379269868 0.014072139981 0.0094491191413 0.0096695330151 0.0098943289351 0.010123481304 0.010449122041 0.010699239629 0.010954267765 
0.011214069208 0.011478490095 0.0117473377 0.01202041799 0.012297501856 0.012578336426 0.012862644771 0.013150130681 0.013440469446 
0.013733315293 0.014028279755 0.014324982508 0.014623009626 0.0098783385426 0.010112009295 0.010350729073 0.010594500015 0.010943411014 
0.011206255716 0.011474098469 0.011746862544 0.012024415616 0.012306712829 0.0125935517 0.012884756729 0.013180111306 0.013479374607 
0.013782273114 0.01408849648 0.01439770609 0.014709528901 0.015023608608 0.01533943498 0.010181656465 0.010428636064 0.010681228394 
0.010939443709 0.011293207341 0.011570730854 0.011853819718 0.01214235506 0.012436331858 0.01273556948 0.013039923006 0.013349201457 
0.013663180693 0.01398160271 0.014304179048 0.014630572312 0.014960407746 0.015293336943 0.015628830631 0.015966470235 0.010498546235 
0.010759633616 0.011026940343 0.011300494216 0.011659835123 0.011953025322 0.012252360592 0.012557857157 0.012869372457 0.01318678711 
0.013509951477 0.013838662609 0.014172696802 0.014511774569 0.01485557923 0.015203757453 0.015555956017 0.015911647694 0.016270397085 
0.016631710098 0.010828767418 0.011104786202 0.011387681014 0.01167749723 0.012043210434 0.012353071951 0.012669836988 0.012993404401 
0.013323700455 0.013660599143 0.014003951217 0.014353546576 0.014709155045 0.0150704782 0.015437181765 0.015808892319 0.016185217162 
0.016565590465 0.016949553801 0.017336567231 0.011171768345 0.011463564858 0.011762955478 0.012069995991 0.012442889852 0.012770579283 
0.013105880548 0.013448753037 0.01379912926 0.01415688734 0.014521878679 0.014893899248 0.015272695793 0.015657955027 0.016049338217 
0.016446485038 0.016848847144 0.017255970105 0.017667206127 0.018082004927 0.011526662649 0.011835093333 0.012151893013 0.012477139926 
0.012858140725 0.013204738229 0.013559784684 0.013923244581 0.014295060398 0.014675121487 0.015063280144 0.015459332501 0.015863020706 
0.016274029077 0.016692032389 0.017116516631 0.017547040151 0.017982969524 0.018423737152 0.018868666917 0.011892193388 0.012218120744 
0.01255325847 0.012897707554 0.01328774063 0.013654408235 0.014030437481 0.014415812911 0.014810480908 0.015214354051 0.015627282426 
0.016049072709 0.016479459056 0.016918149169 0.017364745816 0.017818676272 0.018279480779 0.01874655686 0.01921922731 0.019696770058 
0.012266837536 0.012611128253 0.012965540348 0.013330201591 0.013730222585 0.014118151906 0.01451643514 0.01492509084 0.015344089363 
0.015773347356 0.016212723273 0.016662037754 0.017121047553 0.017589409048 0.018066608493 0.018552231873 0.019045694016 0.019546356466 
0.020053491946 0.020566330665 0.012648994168 0.013012507256 0.013387122493 0.013773013992 0.014184011056 0.014594417385 0.015016279071 
0.015449643571 0.015894496688 0.01635077604 0.016818366133 0.017297110745 0.017786734505 0.018286781271 0.018796902676 0.019316571273 
0.019845202335 0.020382089609 0.020926455116 0.021477439959 0.0078632518951 0.0080103875298 0.0081595242901 0.0083106181421 0.008599793412 
0.0087618794693 0.0089260723993 0.0090922541646 0.0092602986609 0.0094300689235 0.0096014210519 0.0097741879753 0.009948207523 0.010123300588 
0.01029927629 0.010475937364 0.010653083081 0.010830507446 0.011007996279 0.011185331096 0.0080649981894 0.0082191230811 0.008375432532 
0.008533884187 0.0088286574401 0.0089987080077 0.0091710644794 0.0093456073822 0.0095222010371 0.0097007026205 0.0098809591896 0.010062803433 
0.010246058339 0.010430533129 0.010616030159 0.010802344134 0.010989261204 0.01117655897 0.011364016846 0.01155140185 0.008272617714 
0.0084340930088 0.0085979526369 0.0087641528621 0.0090646696537 0.0092431608105 0.0094241748367 0.0096075862579 0.009793258845 0.0099810372168 
0.010170765713 0.010362267561 0.010555353751 0.010749826853 0.010945482922 0.011142098623 0.011339451295 0.011537308407 0.011735430635 
0.01193356905 0.0084871594205 0.0086563894705 0.0088282164005 0.0090025954451 0.0093090145873 0.0094964713274 0.00968669028 0.0098795373072 
0.010074872269 0.010272535852 0.010472364287 0.010674167903 0.010877751152 0.011082913235 0.011289431661 0.011497075906 0.01170560821 
0.011914781718 0.01212434282 0.012334023991 0.0087096932749 0.0088871186456 0.0090673712608 0.0092504075614 0.0095629018525 0.0097599047213 
0.0099599278756 0.010162835784 0.0103684803 0.010576700709 0.010787317071 0.011000142531 0.011214968483 0.011431575829 0.01164974025 
0.011869214263 0.012089747988 0.012311077996 0.012532934122 0.012755032931 0.0089412373346 0.0091273385178 0.0093165197532 0.0095087325877 
0.0098274892435 0.010034671195 0.010245158378 0.010458810637 0.010675481846 0.010894989665 0.011117158265 0.011341790304 0.011568672106 
0.011797566952 0.012028239375 0.012260430706 0.01249387663 0.012728291596 0.01296338732 0.013198867032 0.0091827148685 0.009378016786 
0.0095766696334 0.0097786289347 0.010103842312 0.010321893141 0.01054356024 0.010768706433 0.01099717319 0.011228775788 0.011463335462 
0.011700639076 0.011940461659 0.012182565158 0.012426696576 0.012672575642 0.012919927303 0.013168446364 0.013417826874 0.013667741612 
0.0094349432791 0.0096400101838 0.0098487250258 0.010061044707 0.010392918371 0.010622579824 0.010856209443 0.011093654293 0.011334756873 
0.011579332961 0.01182718904 0.012078101973 0.012331840894 0.01258815683 0.012846774597 0.013107407349 0.013369758275 0.013633501315 
0.013898304804 0.014163815231 0.0096986351495 0.0099140714798 0.01013348116 0.010356823397 0.010695559874 0.010937637908 0.011184062458 
0.011434681847 0.011689327863 0.011947821211 0.012209955112 0.012475499628 0.012744210022 0.013015826968 0.013290062505 0.013566604069 
0.013845140671 0.014125321488 0.014406791232 0.01468916327 0.0099743927594 0.010200845447 0.010431629623 0.010666705547 0.01101250642 
0.011267860757 0.011527978676 0.011792708556 0.01206187977 0.012335311282 0.012612779611 0.01289405612 0.013178885259 0.013466981274 
0.013758049182 0.014051760758 0.014347769586 0.014645716973 0.014945201762 0.015245823563 0.010262715643 0.01050087522 0.01074376138 
0.010991323387 0.011344391243 0.011613934482 0.011888708141 0.012168554212 0.012453300323 0.01274275824 0.013036707498 0.013334899619 
0.013637073456 0.013942929902 0.014252152377 0.014564392948 0.014879288431 0.015196430461 0.015515406027 0.015835782492 0.010717334852 
0.010969572499 0.011227204785 0.01149020669 0.011869645319 0.012152932623 0.012441544939 0.012735392189 0.013034324654 0.013338281643 
0.013647064623 0.013960456545 0.01427823739 0.014600142237 0.014925874076 0.015255105654 0.015587474839 0.015922581576 0.016260004942 
0.016599346011 0.011040650859 0.011307005687 0.011579341403 0.011857656621 0.012242903653 0.012541825592 0.012846660767 0.013157295807 
0.013473693105 0.013795666464 0.014123044724 0.014455630582 0.014793173712 0.015135396301 0.015481987236 0.015832584932 0.016186803539 
0.016544214571 0.01690439879 0.017266773718 0.011377352616 0.011658643385 0.011946551 0.012241092779 0.012632919075 0.012948491188 
0.013270591943 0.01359922433 0.013934236355 0.014275490092 0.014622807776 0.014975985363 0.015334756448 0.015698833427 0.016067879987 
0.016441511883 0.016819308385 0.017200858531 0.017585561541 0.017972937826 0.011727235179 0.012024308466 0.012328690762 0.012640418519 
0.01303964962 0.013372903683 0.013713484709 0.014061272947 0.01441617869 0.01477805616 0.015146732673 0.01552199188 0.01590356251 
0.016291139309 0.016684356824 0.017082814457 0.01748610577 0.017893626205 0.018304904713 0.01871935694 0.012089865978 0.012403596434 
0.012725383976 0.013055289186 0.013462777435 0.013814915162 0.014175118217 0.014543338139 0.014919479276 0.015303410872 0.015694951596 
0.016093878119 0.016499917666 0.016912746263 0.017331972186 0.017757219499 0.018187904358 0.018623545304 0.019063573428 0.019507250941 
0.0124645698 0.012795853344 0.013136009718 0.013485117446 0.013901846336 0.014273985536 0.014655068922 0.015045051577 0.015443845786 
0.015851328946 0.01626732401 0.016691604157 0.017123884098 0.017563825868 0.018011068634 0.018465087329 0.018925415885 0.019391376693 
0.019862393131 0.020337747295 0.012850469018 0.013200217156 0.01355972008 0.013929080716 0.014356029681 0.014749400786 0.01515266829 
0.015565806824 0.015988743444 0.016421359324 0.016863484359 0.017314897005 0.017775300838 0.018244392227 0.018721675104 0.019206728844 
0.019698889854 0.020197594302 0.020702138932 0.021211755794 0.013246531326 0.013615669746 0.013995520334 0.014386216901 0.014824426936 
0.015240287672 0.015667099026 0.016104849158 0.016553481911 0.017012899929 0.017482939229 0.017963376426 0.018453956698 0.018954303307 
0.0194638738 0.019982219631 0.02050874182 0.021042765087 0.021583531658 0.022130215475 0.013651708575 0.014041185714 0.014442411096 
0.014855554848 0.015306105489 0.015745774841 0.016197545008 0.016661436401 0.017137416188 0.017625399319 0.018125235895 0.018636745034 
0.019159630262 0.019693394818 0.020237664051 0.020791895141 0.021355431554 0.021927575617 0.022507496631 0.023094303287 0.0084705918135 
0.0086285246572 0.0087885773024 0.0089507022698 0.0092574933158 0.0094311210025 0.0096069524469 0.0097848647442 0.0099647257438 0.010146393541 
0.010329711297 0.010514512485 0.010700621687 0.0108878527 0.011076008313 0.011264888083 0.011454275556 0.01164395053 0.011833690415 
0.012023265714 0.0086895282533 0.0088549653289 0.0090227204459 0.0091927442604 0.0095059088925 0.0096880761018 0.0098726603371 0.010059534881 
0.010248561526 0.010439586513 0.010632449738 0.010826975001 0.011022977881 0.01122026496 0.01141862354 0.011617840496 0.011817692358 
0.012017945709 0.012218362035 0.01241869521 0.0089151051187 0.0090884402219 0.0092643040444 0.009442649256 0.0097623601473 0.0099535766356 
0.010147442029 0.01034382795 0.010542584295 0.010743552556 0.010946562911 0.011151436605 0.011357977152 0.011565976802 0.011775213977 
0.011985467178 0.012196493868 0.012408047929 0.012619877764 0.012831723406 0.0091481855719 0.0093298438068 0.0095142619167 0.0097013904864 
0.01002783398 0.010228658798 0.010432385046 0.010638877668 0.010847984446 0.011059538575 0.011273364008 0.011489271791 0.011707050656 
0.011926488916 0.012147353574 0.012369404659 0.012592388387 0.01281604511 0.01304010522 0.013264285992 0.0093896532774 0.0095801024178 
0.009773560244 0.0099699729365 0.010303350675 0.010514389724 0.010728610256 0.010945865346 0.011166000913 0.011388844487 0.011614212893 
0.011841902176 0.012071697965 0.012303372861 0.01253668109 0.012771371266 0.01300717635 0.013243815833 0.013481000897 0.013718431569 
0.0096403790958 0.0098401260528 0.01004314596 0.010249390915 0.01058991155 0.01081182614 0.011037224379 0.011265956719 0.011497861603 
0.011732765521 0.011970466589 0.012210760369 0.012453420852 0.012698204353 0.012944856532 0.013193110443 0.013442677248 0.013693264033 
0.013944558526 0.014196243382 0.0099011783589 0.01011076327 0.01032391499 0.010540584084 0.010888466943 0.011121969745 0.011359290696 
0.011600273401 0.011844755037 0.012092547985 0.012343446623 0.012597240069 0.012853688945 0.013112535526 0.013373511321 0.013636334328 
0.013900698022 0.014166288196 0.014432771563 0.014699807939 0.010172789948 0.010392797744 0.010616691214 0.010844423081 0.011199892235 
0.011445756268 0.011695797682 0.011949870376 0.012207795935 0.012469379203 0.012734416621 0.013002680633 0.013273917891 0.013547863009 
0.013824232006 0.014102720359 0.01438300455 0.014664749042 0.014947600336 0.015231183998 0.010455866568 0.010686924958 0.010922216933 
0.011161694851 0.011524978581 0.011784025772 0.012047657569 0.012315714428 0.012588018525 0.012864370401 0.013144556766 0.013428338643 
0.01371545438 0.014005620908 0.014298540184 0.014593886531 0.014891316776 0.015190475471 0.01549097449 0.015792412594 0.010750975905 
0.010993755088 0.011241144715 0.011493103377 0.011864423942 0.012137540194 0.012415683831 0.012698691531 0.012986378821 0.013278548249 
0.013574977028 0.013875406934 0.014179571029 0.014487176606 0.014797898562 0.015111392859 0.015427300001 0.015745232078 0.016064772106 
0.016385486234 0.011058593634 0.011313801138 0.011574032982 0.011839252332 0.012218833123 0.012506960352 0.012800602987 0.013099593407 
0.013403744982 0.013712854183 0.014026690736 0.014344992824 0.014667471212 0.014993821263 0.01532370246 0.015656746239 0.015992562621 
0.01633074398 0.016670836553 0.017012379759 0.011537529077 0.011807555369 0.012083269584 0.012364656997 0.012773883076 0.013076718963 
0.013385169562 0.013699142121 0.014018507221 0.014343075649 0.014672747769 0.015007255716 0.015346352002 0.015689766334 0.016037174491 
0.016388229643 0.016742548247 0.017099714641 0.017459279696 0.017820813291 0.011880271039 0.012165168234 0.012456374931 0.01275388143 
0.013169840224 0.013489201661 0.013814798 0.014146497719 0.014484256769 0.014827871048 0.015177155393 0.015531886864 0.015891804003 
0.016256611884 0.016625967233 0.016999499758 0.017376799685 0.017757403359 0.018140887079 0.01852662605 0.012236361467 0.012536972336 
0.01284456374 0.013159136852 0.013582630293 0.013919561861 0.014263374097 0.014614052183 0.014971423646 0.01533534421 0.015705619577 
0.016082010484 0.016464253298 0.016852028632 0.017244974421 0.017642693811 0.018044740399 0.018450674432 0.018859869318 0.019271822436 
0.012605660089 0.012922862361 0.0132477657 0.01358039181 0.014012288537 0.014367857162 0.014731130221 0.015101973587 0.015480280085 
0.015865891501 0.016258614568 0.016658204911 0.017064382973 0.017476813174 0.01789511411 0.018318853826 0.018747608139 0.019180753401 
0.019617779333 0.020058079492 0.012987859163 0.013322560487 0.013665740274 0.014017448169 0.014458640173 0.014834079318 0.015217996983 
0.015610324954 0.016010955137 0.016419727982 0.016836449747 0.017260874897 0.017692712773 0.018131605424 0.018577154892 0.019028938585 
0.019486368312 0.019948925567 0.020416008135 0.020886869486 0.013382491889 0.013735621561 0.014098076474 0.014469931038 0.014921449068 
0.015317929882 0.015723793767 0.016138987891 0.016563406767 0.016996901455 0.017439277279 0.017890281199 0.018349610513 0.018816897202 
0.01929176268 0.019773628149 0.020262061267 0.020756307993 0.021255768231 0.021759715722 0.013788958835 0.014161476416 0.014544237742 
0.014937344372 0.01540022929 0.015819028336 0.01624820676 0.016687717371 0.017137475294 0.017597342517 0.01806711961 0.018546556813 
0.019035341222 0.019533137627 0.020039422253 0.02055375357 0.02107544766 0.0216038905 0.022138366025 0.022678081912 0.014206586973 
0.01459947562 0.015003608873 0.015419111834 0.015894466541 0.016336916855 0.016790841562 0.017256208627 0.017732949559 0.018220927836 
0.018719972409 0.019229820819 0.019750203102 0.020280717674 0.020820778744 0.021369919002 0.021927511456 0.022492853752 0.023065154422 
0.023643550809 0.014634718876 0.015048998681 0.015475600751 0.015914696728 0.016403688183 0.016871187985 0.017351361017 0.017844201998 
0.01834965671 0.018867622901 0.019397916325 0.019940342993 0.020494567498 0.021060073732 0.021636449715 0.022223119325 0.022819417036 
0.023424578465 0.024037765995 0.024658035387 0.0090699306385 0.0092383430008 0.0094089898128 0.0095818125952 0.009905764074 0.010090574803 
0.010277684648 0.010466962627 0.01065827079 0.010851456915 0.011046358866 0.011242804312 0.011440608146 0.011639577752 0.011839506902 
0.012040183877 0.012241385295 0.012442882637 0.012644437959 0.012845809416 0.0093050717151 0.0094814742156 0.0096603186221 0.0098415486403 
0.010172607404 0.010366495973 0.010562907625 0.010761708555 0.010962751195 0.011165878763 0.01137091928 0.011577691273 0.01178600095 
0.011995644627 0.012206404949 0.012418058455 0.012630367756 0.012843089097 0.013055970964 0.013268753458 0.0095475245333 0.0097323329956 
0.0099198104218 0.010109897905 0.01044826553 0.010651771232 0.010858045654 0.011066947578 0.011278325338 0.011492013109 0.011707831283 
0.011925586622 0.012145081449 0.012366097013 0.012588403286 0.012811763646 0.013035927972 0.013260637844 0.013485622899 0.01371060931 
0.0097980141279 0.0099916817011 0.010188260683 0.010387691958 0.010733581478 0.010947289272 0.01116403315 0.0113836674 0.011606031489 
0.011830953314 0.012058244183 0.012287704632 0.012519125085 0.012752270759 0.012986904224 0.013222773074 0.01345961241 0.013697145349 
0.013935085325 0.014173141585 0.010057296867 0.010260310866 0.010466498651 0.010675802238 0.011029439027 0.011253981757 0.011481853655 
0.011712901627 0.011946959489 0.012183847607 0.012423371396 0.012665322214 0.012909469967 0.013155578191 0.013403393959 0.013652644588 
0.013903053764 0.014154325718 0.014406155168 0.014658228569 0.010326122564 0.010539007295 0.010755353732 0.010975099891 0.011336713703 
0.011572778134 0.011812491095 0.012055692185 0.012302212568 0.012551863559 0.012804445344 0.013059732394 0.013317488785 0.013577465558 
0.01383939064 0.014102979138 0.014367936213 0.014633946426 0.014900685427 0.015167813109 0.010605209615 0.01082853228 0.011055624487 
0.011286426317 0.011656258745 0.011904581085 0.012156901818 0.012413058486 0.012672869101 0.012936148023 0.013202675826 0.01347222271 
0.013744542278 0.014019368809 0.014296415319 0.014575381132 0.01485595143 0.015137789876 0.015420546782 0.015703861069 0.010895227626 
0.011129592089 0.011368062762 0.011610579685 0.01198887482 0.012250249479 0.012516004992 0.012785974007 0.013059974399 0.013337804388 
0.013619244256 0.013904050274 0.014191968393 0.014482707703 0.014775972254 0.015071443676 0.015368783751 0.015667634527 0.015967621977 
0.01626835827 0.011196778964 0.011442831387 0.011693355212 0.011948294636 0.012335299543 0.0126105761 0.012890649743 0.013175356395 
0.013464507401 0.013757891597 0.014055280083 0.014356425975 0.014661051473 0.01496885835 0.015279530716 0.015592731991 0.015908098359 
0.016225248077 0.016543779991 0.016863277879 0.01151039395 0.011768820092 0.012032117849 0.012300234903 0.012696196589 0.012986278157 
0.013281619576 0.013582053776 0.013887384815 0.014197397643 0.01451185413 0.014830498152 0.015153033973 0.01547915221 0.015808518998 
0.016140770953 0.016475523594 0.016812368903 0.017150878231 0.017490593775 0.011836523084 0.012108052848 0.012384890154 0.012666985257 
0.013072144706 0.013377998674 0.013689620299 0.014006836235 0.014329452107 0.014657245509 0.014989971804 0.015327354238 0.015669097813 
0.016014868796 0.016364312183 0.016717044313 0.017072655224 0.017430709735 0.017790742934 0.018152258824 0.012338677238 0.012625685345 
0.01291865411 0.013217555471 0.013655771914 0.013977243632 0.014304594618 0.014637715102 0.014976468641 0.0153206515 0.015670148545 
0.016024675067 0.016383974193 0.016747745165 0.017115656025 0.017487334944 0.017862382481 0.018240361594 0.01862079743 0.019003236601 
0.012700222532 0.013002811532 0.013312002924 0.013627780871 0.014073615723 0.01441244002 0.014757788314 0.015109548676 0.015467547011 
0.01583169566 0.016201740134 0.016577445534 0.016958531877 0.017344681856 0.01773554106 0.018130712608 0.018529763576 0.018932225569 
0.01933762857 0.019745335113 0.013075188394 0.013394226082 0.013720556979 0.014054184581 0.014508472299 0.014865724384 0.01523016748 
0.015601772271 0.015980355104 0.016365752792 0.016757751321 0.017156105509 0.017560520124 0.017970659311 0.018386146143 0.018806556619 
0.019231426271 0.019660289907 0.020092501943 0.020527529153 0.013463507337 0.013799894061 0.014144324552 0.014496816061 0.014960463034 
0.015337236172 0.015722052059 0.016114761505 0.016515237267 0.016923310764 0.017338764617 0.017761339927 0.018190731653 0.018626589917 
0.019068513245 0.019516042548 0.019968729919 0.02042593317 0.020887104311 0.021351582719 0.013864989591 0.014219659952 0.014583184763 
0.014955603555 0.015429539624 0.015827107336 0.01623351822 0.016648683642 0.01707248311 0.017504744923 0.017945247238 0.018393728005 
0.018849866516 0.01931329786 0.019783593752 0.020260315621 0.020742840641 0.02123062954 0.021723056393 0.02221934067 0.014279336959 
0.014653262406 0.01503691778 0.015430367242 0.015915665904 0.016335234629 0.016764587287 0.01720363927 0.01765227643 0.018110329088 
0.018577581645 0.019053763408 0.019538544573 0.020031537409 0.02053233937 0.021040341663 0.021555092971 0.022075810426 0.02260186219 
0.023132492732 0.014706172518 0.015100352462 0.015505213889 0.015920847237 0.016418596043 0.016861495168 0.017315198487 0.017779647515 
0.018254730353 0.018740287021 0.01923610144 0.019741904003 0.020257349225 0.02078208402 0.021315545608 0.021857303577 0.022406602514 
0.02296282678 0.023525220111 0.024092960936 0.015145076356 0.01556055034 0.015987736877 0.01642675631 0.016938117661 0.017405739726 
0.017885291062 0.018376730453 0.018879961506 0.019394841216 0.019921151513 0.020458625746 0.021006954484 0.02156565709 0.022134301352 
0.022712214973 0.023298796225 0.0238933104 0.024494944444 0.025102797447 0.015595671281 0.016033515649 0.016484185096 0.016947845873 
0.017474052901 0.017967864737 0.018474843034 0.018994966715 0.019528165141 0.020074300617 0.020633181924 0.021204571073 0.021788118125 
0.022383276675 0.022989607013 0.02360649985 0.024233258493 0.024869093856 0.025513124877 0.026164383361 0.0096603482293 0.0098389072354 
0.010019802965 0.01020297337 0.010543588336 0.010739205106 0.01093720685 0.011137458522 0.011339813053 0.011544111694 0.011750186063 
0.011957856897 0.012166930323 0.01237720556 0.01258846832 0.012800496274 0.013013060402 0.013225919155 0.013438825101 0.013651520964 
0.0099108231991 0.010097823506 0.010287382436 0.010479434894 0.010827859278 0.011033053993 0.011240868645 0.011451163525 0.011663783484 
0.011878563829 0.012095326425 0.012313881438 0.012534026424 0.012755549804 0.012978223279 0.013201815026 0.01342607797 0.013650754253 
0.01387558481 0.014100293183 0.010169195171 0.010365079057 0.010563757745 0.010765165707 0.011121625345 0.011336962899 0.011555177082 
0.011776121587 0.011999635232 0.012225545853 0.012453664843 0.012683794087 0.012915718778 0.013149218042 0.013384051722 0.013619970236 
0.013856711674 0.014094006468 0.014331573028 0.014569119929 0.010436091752 0.010641331646 0.010849621371 0.011060896834 0.011425626405 
0.011651716631 0.011880963879 0.012113215016 0.012348302085 0.012586043586 0.012826244233 0.01306869455 0.013313171327 0.013559439355 
0.013807242599 0.014056318396 0.014306392033 0.014557172929 0.01480836159 0.015059645922 0.010712168287 0.010927272452 0.011145704487 
0.011367395533 0.011740640283 0.011978141292 0.012219102703 0.012463368714 0.012710762224 0.012961096149 0.013214164347 0.013469747187 
0.013727612275 0.013987506568 0.014249162449 0.01451230446 0.014776634047 0.015041845649 0.01530762029 0.015573624288 0.010998085759 
0.011223599528 0.01145273959 0.011685440553 0.012067452333 0.012317071499 0.01257048392 0.012827527633 0.013088021744 0.013351766424 
0.013618552383 0.013888148363 0.014160302385 0.014434755246 0.014711226085 0.014989414754 0.015269008221 0.015549681284 0.015831090983 
0.016112879549 0.011294484237 0.01153099125 0.011771450098 0.012015794725 0.012406831624 0.012669327156 0.012935981472 0.01320662566 
0.01348107146 0.013759115167 0.014040537966 0.014325091972 0.014612517733 0.014902540752 0.015194861859 0.015489164889 0.015785115422 
0.016082367264 0.016380553449 0.016679290998 0.011601970256 0.011850092917 0.012102520452 0.01235918902 0.012759514948 0.013035699832 
0.013316443954 0.013601571994 0.013890888305 0.014184185353 0.014481228585 0.0147817657 0.015085521399 0.015392204853 0.015701500435 
0.016013073224 0.016326568631 0.016641612656 0.016957814369 0.017274763844 0.011921099557 0.012181502566 0.012446593727 0.01271631146 
0.013126191493 0.013416936066 0.013712676544 0.014013231804 0.01431840694 0.014627977133 0.014941706106 0.015259327923 0.015580555269 
0.01590507873 0.016232562906 0.016562655452 0.016894977928 0.01722913042 0.017564692476 0.017901226078 0.01225237292 0.012525759201 
0.012804253364 0.013087793743 0.013507492073 0.013813725052 0.01412542843 0.01444242266 0.014764507446 0.015091451413 0.015423007351 
0.015758898613 0.016098825304 0.016442457354 0.016789441986 0.017139405652 0.017491943258 0.01784662725 0.018203006513 0.01856061376 
0.012596220787 0.012883337905 0.013176017953 0.013474203355 0.013903981646 0.014226686476 0.014555386487 0.014889901544 0.015230021118 
0.015575513553 0.01592611937 0.016281552477 0.016641494877 0.017005603065 0.017373503318 0.017744794486 0.018119047917 0.018495802629 
0.01887458121 0.019254869277 0.013120465063 0.013423640517 0.013733015702 0.014048551586 0.014514909214 0.014854088395 0.015199376997 
0.015550658763 0.015907781889 0.016270529825 0.016638770998 0.01701220844 0.017390570219 0.017773538755 0.018160761772 0.018551854702 
0.018946392744 0.019343921153 0.019743945202 0.020145987488 0.013500134054 0.01381954952 0.014145825693 0.014478938125 0.014953760214 
0.01531105899 0.015675129056 0.016045851682 0.016423041532 0.016806593494 0.017196234433 0.017591716121 0.017992747222 0.018398990979 
0.018810068794 0.019225571855 0.019645042052 0.020067988412 0.020493926301 0.020922192056 0.013893369152 0.014229913093 0.014574032753 
0.01492571675 0.015409871961 0.015786385134 0.016170393812 0.016561748671 0.016960377932 0.017366040638 0.017778522495 0.018197551675 
0.018622821129 0.019053978268 0.01949062471 0.019932315386 0.020378562793 0.02082888621 0.021282611358 0.021739183462 0.014300171694 
0.014654769773 0.015017715336 0.01538901415 0.015883435603 0.016280323207 0.016685473704 0.017098834768 0.01752022614 0.017949461406 
0.018386310763 0.018830493848 0.019281689164 0.01973952503 0.020203576333 0.020673373621 0.021148437384 0.021628104162 0.022111810579 
0.022598859939 0.014720452823 0.015094068593 0.015476866678 0.015868872158 0.016374559661 0.016793019812 0.017220669137 0.017657380544 
0.018103005367 0.018557360765 0.019020209797 0.019491267078 0.019970195259 0.020456602324 0.020950041255 0.021450056121 0.021955994305 
0.022467298762 0.022983310647 0.023503230609 0.015154050983 0.015547687145 0.015951406157 0.01636526038 0.016883254411 0.017324633666 
0.017776131468 0.018237657124 0.018709073141 0.019190196669 0.019680787124 0.020180556242 0.020689153081 0.021206167215 0.021731171125 
0.022263541968 0.022802735161 0.023348114863 0.023898858746 0.024454239312 0.015600755412 0.016015451421 0.016441206986 0.016878103446 
0.017409564638 0.017875200155 0.018352002943 0.018839896705 0.019338756005 0.0198484018 0.020368598248 0.020899046147 0.021439390045 
0.021989242031 0.022548016532 0.023115262756 0.023690199645 0.024272184057 0.0248604277 0.025454083393 0.016060343457 0.016497177623 
0.016946132008 0.017407316598 0.01795345345 0.018444783246 0.018948432872 0.019464342591 0.019992404254 0.020532444903 0.021084235899 