# vtk DataFile Version 5.1
vtk output
ASCII
DATASET POLYDATA
POINTS 2462 double
58.611110687 -9.4444446564 1.258879255e-14 57.569446564 -9.4444446564 1.2347858264e-14 58.611110687 -12.222222328 1.258879255e-14 
58.611110687 -12.222222328 1.258879255e-14 57.569446564 -9.4444446564 1.2347858264e-14 55.833335876 -12.222222328 1.1946300237e-14 
55.833335876 -12.222222328 1.1946300237e-14 57.569446564 -9.4444446564 1.2347858264e-14 56.597221375 -9.4444446564 1.2122985028e-14 
55.833335876 -12.222222328 1.1946300237e-14 56.597221375 -9.4444446564 1.2122985028e-14 55.833335876 -9.4444446564 1.1946300237e-14 
56.597221375 -9.4444446564 1.2122985028e-14 57.569446564 -9.4444446564 1.2347858264e-14 56.597221375 -1.6319445372 1.2122985028e-14 
56.597221375 -1.6319445372 1.2122985028e-14 57.569446564 -9.4444446564 1.2347858264e-14 57.569446564 -1.6319445372 1.2347858264e-14 
56.597221375 -1.6319445372 1.2122985028e-14 57.569446564 -1.6319445372 1.2347858264e-14 55.416667938 -0.72916668653 1.1849925993e-14 
55.416667938 -0.72916668653 1.1849925993e-14 57.569446564 -1.6319445372 1.2347858264e-14 58.611110687 -1.6319445372 1.258879255e-14 
55.416667938 -0.72916668653 1.1849925993e-14 58.611110687 -1.6319445372 1.258879255e-14 55.416667938 0.72916668653 1.1849925993e-14 
55.416667938 0.72916668653 1.1849925993e-14 58.611110687 -1.6319445372 1.258879255e-14 58.611110687 1.840277791 1.258879255e-14 
55.416667938 0.72916668653 1.1849925993e-14 58.611110687 1.840277791 1.258879255e-14 -59.444450378 1.840277791 -1.4717161213e-14 
-59.444450378 1.840277791 -1.4717161213e-14 -59.444450378 0.72916668653 -1.4717161213e-14 55.416667938 0.72916668653 1.1849925993e-14 
-59.444450378 -0.72916668653 -1.4717161213e-14 -59.444450378 -1.6319445372 -1.4717161213e-14 55.416667938 -0.72916668653 1.1849925993e-14 
55.416667938 -0.72916668653 1.1849925993e-14 -59.444450378 -1.6319445372 -1.4717161213e-14 56.597221375 -1.6319445372 1.2122985028e-14 
4.5535728997 -1.12893709 8.5420290281e-17 -27.445438739 -1.3804408136 -7.3158704613e-15 -34.01389122 -0.72916668653 -8.835136967e-15 
-8.5803378094 1.3482428786 -2.9524201581e-15 -34.012394094 1.5942603348 -8.8347906855e-15 -34.01389122 0.72916668653 -8.835136967e-15 
4.5555496216 -1.6319445372 8.5877501067e-17 24.597221375 -1.6319445372 4.7214656706e-15 40.597221375 -1.6319445372 8.4222253491e-15 
-5.3888893127 1.840277791 -2.2142461635e-15 26.611110687 1.840277791 5.1872731935e-15 42.611110687 1.840277791 8.888032872e-15 
4.5525553693 1.221201599 8.5184938051e-17 -27.445947505 1.530739695 -7.3159881374e-15 29.984611654 0.97518414276 5.9675554655e-15 
17.268583512 1.0981928709 3.0263702018e-15 42.700639796 0.85217541465 8.9087407292e-15 -8.5833320618 -0.72916668653 -2.9531127211e-15 
23.416667938 -0.72916668653 4.4484066359e-15 -46.729170799 -1.1805556118 -1.177614909e-14 -8.5833320618 0.72916668653 -2.9531127211e-15 
23.416667938 0.88393935508 4.4484066359e-15 -46.729170799 1.1837197968 -1.177614909e-14 -21.299573111 1.1397114793 -5.8943472297e-15 
4.5535728997 -1.12893709 8.5420290281e-17 -27.444450378 -1.5061907333 -7.3156418559e-15 29.985120419 -0.92905188828 5.9676731416e-15 
-11.443956183 -1.4433118893 -3.6147678712e-15 -3.4427205865 -1.4118685827 -1.7641022417e-15 7.4166679382 0.72916668653 7.4764695742e-16 
23.416667938 0.72916668653 4.4484066359e-15 23.418165064 1.0387047826 4.4487529174e-15 0.55987506345 -1.3961391569 -8.3831195475e-16 
2.5651354451 -1.3882588718 -3.7450028191e-16 3.5757459356 -1.3842873683 -1.407486223e-16 7.4189136275 1.1934738306 7.4816637968e-16 
-3.4461800101 -1.1918130209 -1.7649023976e-15 -11.444450378 -1.6319445372 -3.6148821774e-15 -27.444450378 -1.6319445372 -7.3156418559e-15 
-27.445438739 -1.3804408136 -7.3158704613e-15 -0.58071209099 1.2708583546 -1.1021268892e-15 -11.44593292 -1.2546889518 -3.6152250855e-15 
-3.4444503784 -1.6319445372 -1.7645023382e-15 -0.58333206177 0.72916668653 -1.1027328818e-15 -11.446696068 1.375970647 -3.6154015997e-15 
-3.4470703492 1.298586123 -1.7651083308e-15 -27.444450378 1.840277791 -7.3156418559e-15 55.138893127 -0.45138889551 1.1805757178e-14 
-60.416667938 0.45138889551 -1.3853694803e-14 -61.111114502 -0.45138889551 -1.4034395729e-14 -61.111114502 -0.45138889551 -1.4034395729e-14 
-60.416667938 0.45138889551 -1.3853694803e-14 -60.416667938 27.083335876 -1.3076701911e-14 -61.111114502 -0.45138889551 -1.4034395729e-14 
-60.416667938 27.083335876 -1.3076701911e-14 -61.111114502 29.861114502 -1.3150021797e-14 -61.111114502 29.861114502 -1.3150021797e-14 
-60.416667938 27.083335876 -1.3076701911e-14 -58.333332062 29.861114502 -1.2532573898e-14 -58.333332062 29.861114502 -1.2532573898e-14 
-60.416667938 27.083335876 -1.3076701911e-14 -58.333332062 27.083335876 -1.2613616198e-14 55.138893127 -0.45138889551 1.1805757178e-14 
55.138893127 0.45138889551 1.1832095917e-14 -60.416667938 0.45138889551 -1.3853694803e-14 50.138889313 -27.083335876 1.0661321645e-14 
49.097225189 -27.083335876 1.0480621565e-14 50.138889313 -29.861114502 1.0661321645e-14 50.138889313 -29.861114502 1.0661321645e-14 
49.097225189 -27.083335876 1.0480621565e-14 48.402778625 -27.083335876 1.0360154184e-14 50.138889313 -29.861114502 1.0661321645e-14 
48.402778625 -27.083335876 1.0360154184e-14 47.361114502 -29.861114502 1.0179454104e-14 47.361114502 -29.861114502 1.0179454104e-14 
48.402778625 -27.083335876 1.0360154184e-14 47.361114502 -27.083335876 1.0179454104e-14 48.402778625 -27.083335876 1.0360154184e-14 
49.097225189 -27.083335876 1.0480621565e-14 48.402778625 -10.277778625 1.0360154184e-14 48.402778625 -10.277778625 1.0360154184e-14 
49.097225189 -27.083335876 1.0480621565e-14 49.097225189 -9.5833339691 1.0480621565e-14 48.402778625 -10.277778625 1.0360154184e-14 
49.097225189 -9.5833339691 1.0480621565e-14 6.4583334923 -9.5833339691 3.0839464228e-15 6.4583334923 -3.2986111641 3.0839464228e-15 
5.7638888359 -3.2986111641 2.9634793721e-15 6.4583334923 -9.5833339691 3.0839464228e-15 6.4583334923 -9.5833339691 3.0839464228e-15 
5.7638888359 -3.2986111641 2.9634793721e-15 5.7638888359 -10.277778625 2.9634793721e-15 6.4583334923 -9.5833339691 3.0839464228e-15 
5.7638888359 -10.277778625 2.9634793721e-15 48.402778625 -10.277778625 1.0360154184e-14 7.5000004768 -3.2986111641 3.2646469988e-15 
7.5000004768 -1.9097223282 3.2646469988e-15 6.4583334923 -3.2986111641 3.0839464228e-15 6.4583334923 -3.2986111641 3.0839464228e-15 
7.5000004768 -1.9097223282 3.2646469988e-15 4.7222223282 -1.9097223282 2.7827788787e-15 6.4583334923 -3.2986111641 3.0839464228e-15 
4.7222223282 -1.9097223282 2.7827788787e-15 5.7638888359 -3.2986111641 2.9634793721e-15 5.7638888359 -3.2986111641 2.9634793721e-15 
4.7222223282 -1.9097223282 2.7827788787e-15 4.7222223282 -3.2986111641 2.7827788787e-15 33.097225189 -9.5833339691 7.7050615644e-15 
21.763888836 -10.277778625 5.7390393731e-15 23.750001907 -27.083335876 4.8186764163e-15 23.750001907 -29.861114502 4.8186764163e-15 
24.791667938 -27.083335876 5.0596102794e-15 24.791667938 -27.083335876 5.0596102794e-15 23.750001907 -29.861114502 4.8186764163e-15 
26.527778625 -29.861114502 5.4611668651e-15 24.791667938 -27.083335876 5.0596102794e-15 26.527778625 -29.861114502 5.4611668651e-15 
25.486112595 -27.083335876 5.2202330019e-15 25.486112595 -27.083335876 5.2202330019e-15 26.527778625 -29.861114502 5.4611668651e-15 
26.527778625 -27.083335876 5.4611668651e-15 24.791667938 -27.083335876 5.0596102794e-15 25.486112595 -27.083335876 5.2202330019e-15 
24.791667938 -19.305555344 5.0596102794e-15 24.791667938 -19.305555344 5.0596102794e-15 25.486112595 -27.083335876 5.2202330019e-15 
25.486112595 -18.611112595 5.2202330019e-15 24.791667938 -19.305555344 5.0596102794e-15 25.486112595 -18.611112595 5.2202330019e-15 
-5.3472223282 -18.611112595 -1.9114140682e-15 -5.3472223282 -3.2986111641 -1.9114140682e-15 -6.0416669846 -3.2986111641 -2.0720367907e-15 
-5.3472223282 -18.611112595 -1.9114140682e-15 -5.3472223282 -18.611112595 -1.9114140682e-15 -6.0416669846 -3.2986111641 -2.0720367907e-15 
-6.0416669846 -19.305555344 -2.0720367907e-15 -5.3472223282 -18.611112595 -1.9114140682e-15 -6.0416669846 -19.305555344 -2.0720367907e-15 
24.791667938 -19.305555344 5.0596102794e-15 -5.0000004768 -3.2986111641 -1.8311028172e-15 -5.0000004768 -1.9097223282 -1.8311028172e-15 
-5.3472223282 -3.2986111641 -1.9114140682e-15 -5.3472223282 -3.2986111641 -1.9114140682e-15 -5.0000004768 -1.9097223282 -1.8311028172e-15 
-6.3888893127 -1.9097223282 -2.152348152e-15 -5.3472223282 -3.2986111641 -1.9114140682e-15 -6.3888893127 -1.9097223282 -2.152348152e-15 
-6.0416669846 -3.2986111641 -2.0720367907e-15 -6.0416669846 -3.2986111641 -2.0720367907e-15 -6.3888893127 -1.9097223282 -2.152348152e-15 
-6.3888893127 -3.2986111641 -2.152348152e-15 9.4861125946 -18.611112595 1.519486605e-15 9.9583330154 -19.305555344 1.6287096063e-15 
7.7777781487 3.5069446564 1.2649025699e-15 7.7777781487 2.118055582 1.2649025699e-15 8.8194446564 3.5069446564 1.505836433e-15 
8.8194446564 3.5069446564 1.505836433e-15 7.7777781487 2.118055582 1.2649025699e-15 10.555556297 2.118055582 1.9073930555e-15 
8.8194446564 3.5069446564 1.505836433e-15 10.555556297 2.118055582 1.9073930555e-15 9.5138893127 3.5069446564 1.666459082e-15 
9.5138893127 3.5069446564 1.666459082e-15 10.555556297 2.118055582 1.9073930555e-15 10.555556297 3.5069446564 1.9073930555e-15 
8.8194446564 3.5069446564 1.505836433e-15 9.5138893127 3.5069446564 1.666459082e-15 8.8194446564 24.027778625 1.505836433e-15 
8.8194446564 24.027778625 1.505836433e-15 9.5138893127 3.5069446564 1.666459082e-15 9.5138893127 24.722223282 1.666459082e-15 
8.8194446564 24.027778625 1.505836433e-15 9.5138893127 24.722223282 1.666459082e-15 -11.458333969 24.722223282 -3.1843436817e-15 
-11.458333969 27.083335876 -3.1843436817e-15 -12.152778625 27.083335876 -3.3449663306e-15 -11.458333969 24.722223282 -3.1843436817e-15 
-11.458333969 24.722223282 -3.1843436817e-15 -12.152778625 27.083335876 -3.3449663306e-15 -12.152778625 24.027778625 -3.3449663306e-15 
[...]
CELL_DATA 1697
FIELD FieldData 4
electrode_index 1 1697 int
0 0 0 0 0 0 0 0 0 
0 0 0 0 0 0 0 0 0 
0 0 0 0 0 0 0 0 0 
0 0 0 0 0 0 0 0 0 
0 0 0 0 0 0 0 0 0 
0 0 0 0 0 0 0 0 0 
0 0 0 0 0 0 0 0 0 
0 0 0 0 0 0 0 0 1 
1 1 1 1 1 2 2 2 2 
2 2 2 2 2 2 2 2 2 
2 2 2 3 3 3 3 3 3 
3 3 3 3 3 3 3 3 3 
3 4 4 4 4 4 4 4 4 
4 4 4 4 4 4 5 5 5 
5 5 5 5 5 5 5 5 5 
5 5 6 6 6 6 6 6 6 
6 6 6 6 6 6 6 7 7 
7 7 7 7 7 7 7 7 7 
7 7 7 7 7 7 7 7 7 
7 7 7 7 7 7 7 7 7 
7 7 7 7 7 7 7 7 7 
7 7 7 7 7 7 7 7 7 
7 7 7 7 7 7 7 7 7 
7 7 7 7 7 7 7 7 7 
7 7 7 7 7 7 7 7 7 
7 7 7 7 7 7 7 7 7 
7 7 7 7 7 7 7 7 7 
7 7 7 7 7 7 7 7 7 
7 7 7 7 7 7 7 7 7 
7 7 7 7 7 7 7 7 7 
7 7 7 7 7 7 8 8 8 
8 8 8 8 8 8 8 8 8 
8 8 8 8 8 8 8 8 8 
8 8 8 8 8 8 8 8 8 
8 8 8 8 8 8 8 8 8 
8 8 8 8 8 8 8 8 8 
8 8 8 8 8 8 8 8 8 
8 8 8 8 8 8 8 8 8 
8 8 8 8 8 8 8 8 8 
8 8 8 8 8 8 8 8 8 
8 8 8 8 8 8 8 8 8 
8 8 8 8 8 8 8 8 8 
8 8 8 8 8 8 8 8 8 
8 8 8 8 8 8 8 8 8 
8 8 8 8 8 8 8 8 8 
8 8 8 8 8 8 8 8 8 
8 8 8 8 8 8 8 8 8 
8 8 8 8 8 8 8 8 8 
8 8 8 8 8 8 8 8 8 
8 8 8 8 8 8 8 8 8 
8 8 8 8 8 8 8 8 8 
8 8 8 8 8 8 8 8 8 
8 8 8 8 8 8 8 8 8 
8 8 8 8 8 8 8 8 8 
8 8 8 8 8 8 8 8 8 
8 8 8 8 8 8 8 8 8 
8 8 8 8 8 8 8 8 8 
8 8 8 8 8 8 8 8 8 
8 8 8 8 8 8 8 8 8 
8 8 8 8 8 8 8 8 8 
8 8 8 8 8 8 8 8 8 
8 8 8 8 8 8 8 8 8 
8 8 8 8 8 8 8 8 8 
8 8 8 8 8 8 8 8 8 
8 8 8 8 8 8 8 8 8 
8 8 8 8 8 8 8 8 8 
8 8 8 8 8 8 8 8 8 
8 8 8 8 8 8 8 8 8 
8 8 8 8 8 8 8 8 8 
8 8 8 8 8 8 8 8 8 
8 8 8 8 8 8 8 8 8 
8 8 8 8 8 8 8 8 8 
8 8 8 8 8 8 8 8 8 
8 8 8 8 8 8 8 8 8 
8 8 8 8 8 8 8 8 8 
8 8 8 8 8 8 8 8 8 
8 8 8 8 8 8 8 8 8 
8 8 8 8 8 8 8 8 8 
8 8 8 8 8 8 8 8 8 
8 8 8 8 8 8 8 8 8 
8 8 8 8 8 8 8 8 8 
8 8 8 8 8 8 8 8 8 
8 8 8 8 8 8 8 8 8 
8 8 8 8 8 8 8 8 8 
8 8 8 8 8 8 8 8 8 
8 8 8 8 8 8 8 8 8 
8 8 8 8 8 8 8 8 8 
8 8 8 8 8 8 8 8 8 
8 8 8 8 8 8 8 8 8 
8 8 8 8 8 8 8 8 8 
8 8 8 8 8 8 8 8 8 
8 8 8 8 8 8 8 8 8 
8 8 8 8 8 8 8 8 8 
8 8 8 8 8 8 8 8 8 
8 8 8 8 8 8 8 8 8 
8 8 8 8 8 8 8 8 8 
8 8 8 8 8 8 8 8 8 
8 8 8 8 8 8 8 8 8 
8 8 8 8 8 8 8 8 8 
8 8 8 8 8 8 8 8 8 
8 8 8 8 8 8 8 8 8 
8 8 8 8 8 8 8 8 8 
8 8 8 8 8 8 8 8 8 
8 8 8 8 8 8 8 8 8 
8 8 8 8 8 8 8 8 8 
8 8 8 8 8 8 8 8 8 
8 8 8 8 8 8 8 8 8 
8 8 8 8 8 8 8 8 8 
8 8 8 8 8 8 8 8 8 
8 8 8 8 8 8 8 8 8 
8 8 8 8 8 8 8 8 8 
8 8 8 8 8 8 8 8 8 
8 8 8 8 8 8 8 8 8 
8 8 8 8 8 8 8 8 8 
8 8 8 8 8 8 8 8 8 
8 8 8 8 8 8 8 8 8 
8 8 8 8 8 8 8 8 8 
8 8 8 8 8 8 8 8 8 
8 8 8 8 8 8 8 8 8 
8 8 8 8 8 8 8 8 8 
8 8 8 8 8 8 8 8 8 
8 8 8 8 8 8 8 8 8 
8 8 8 8 8 8 8 8 8 
8 8 8 8 8 8 8 8 8 
8 8 8 8 8 8 8 8 8 
8 8 8 8 8 8 8 8 8 
8 8 8 8 8 8 8 8 8 
8 8 8 8 8 8 8 9 9 
9 9 9 9 9 9 9 9 9 
9 9 9 9 9 9 9 9 9 
9 9 9 9 9 9 9 9 9 
9 9 9 9 9 9 9 9 9 
9 9 9 9 9 9 9 9 9 
9 9 9 9 9 9 9 9 9 
9 9 9 9 9 9 9 9 9 
9 9 9 9 9 9 9 10 10 
10 10 10 10 10 10 10 10 10 
10 10 10 10 10 10 11 11 11 
11 11 11 11 11 11 11 11 11 
11 11 11 11 12 12 12 12 12 
12 12 12 12 12 12 12 12 12 
12 12 13 13 13 13 13 13 13 
13 13 13 13 13 13 13 13 13 
14 14 14 14 14 14 14 14 14 
14 14 14 14 14 14 14 14 14 
14 14 14 14 14 14 14 14 14 
14 14 14 14 14 14 14 14 14 
14 14 14 14 14 14 14 14 14 
14 14 14 14 14 14 14 14 14 
14 14 14 14 14 14 14 14 14 
14 14 14 14 14 14 14 14 14 
14 14 14 14 14 14 14 14 14 
14 14 14 14 14 14 14 14 14 
14 14 14 14 14 14 14 14 14 
14 14 14 14 14 14 14 14 14 
14 14 14 14 14 14 14 14 14 
14 14 14 14 14 14 14 14 14 
14 14 14 14 14 14 14 14 14 
14 14 14 14 14 14 14 14 14 
14 14 14 14 14 14 14 14 14 
14 14 14 14 14 14 14 14 14 
14 14 14 14 14 14 14 14 14 
14 14 14 14 14 14 14 14 14 
14 14 14 14 14 14 14 14 14 
14 14 14 14 14 14 14 14 14 
14 14 14 14 14 14 14 14 14 
14 14 14 14 14 14 14 14 14 
14 14 14 14 14 14 14 14 14 
14 14 14 14 14 14 14 14 14 
14 14 14 14 14 14 14 14 14 
14 14 14 14 14 14 14 14 14 
14 14 14 14 14 14 14 14 14 
14 14 14 14 14 14 14 14 14 
14 14 15 15 15 15 15 15 15 
15 15 15 15 15 15 15 15 15 
16 16 16 16 16 16 16 16 16 
16 16 16 16 16 16 16 17 17 
17 17 17 17 17 17 17 17 17 
17 17 17 17 17 17 17 17 17 
18 18 18 18 18 18 18 18 18 
18 18 18 18 18 18 18 18 18 
18 18 18 18 18 18 18 18 18 
18 19 19 19 19 19 19 19 19 
19 19 19 19 19 19 19 19 20 
20 20 20 20 20 20 20 20 20 
20 20 20 20 21 21 21 21 21 
21 21 21 21 21 21 21 21 21 
22 22 22 22 22 22 22 22 22 
22 22 22 22 22 
area 1 1697 double
1.4467556719 3.8580204234 1.3503127113 1.0609520401 3.7977547033 3.7977547033 0.43885168332 0.47019564926 2.3292812346 
5.5459077196 6.2768623818 6.7847195624 5.7395363843 7.222222805 8.2811326083 8.0481191542 5.7395363843 5.6230296573 
5.6230296573 3.9367756803 1.5090922561 5.5002940616 7.0640441685 5.4992306004 0.94322152122 8.3993432567 9.9984248707 
9.9052190725 6.9207491861 8.8888888359 2.0915319314 4.9526095363 5.2927925569 5.2927925569 6.2768623818 6.3963264559 
6.3963264559 5.7797698811 2.4763626967 5.2201918201 4.2162680984 5.0405550724 0.24617950071 2.0120608611 5.623141191 
1.0060304305 1.0060304305 0.75453059128 0.75453059128 1.2381813483 2.4763047681 1.2381813484 2.4763626967 0.94322152122 
0.44042392461 0.25216912064 0.25216912064 0.12708811336 0.12708811336 3.7142833665 2.0915319314 0.44042392461 2.4763047681 
0.88041258502 2.0120608611 1.509092256 0.88041258503 2.1667666721 1.8572285761 2.1667666721 5.1202772841 52.473962547 
9.2472320331 10.525206911 3.8580323443 2.8935229337 52.16049708 1.4467561686 0.96450941062 3.8580217479 1.4467561686 
5.8352807422 6.0764080948 9.2496179953 2.1821960844 2.4233227747 9.249617333 0.72337982279 1.9290125296 0.4822532152 
0.72337949166 5.555557251 5.555557251 1.4467588177 3.858024397 0.96450676153 1.4467588177 2.7006190647 2.9417450928 
5.1504509405 5.3168423971 5.5579684252 5.1504509405 0.24112627646 0.96450609925 0.4822532152 0.2411266076 5.5555419922 
5.5555419922 0.72337961583 1.9290128608 0.48225329798 0.72337994697 7.1252917471 7.3664184375 7.2820241952 0.81983101221 
1.0609577026 7.2820241952 1.4467601423 3.8580257216 0.96450676153 1.4467588177 0.72337994697 0.48225329798 1.9290128608 
0.72337961583 6.498362617 6.7394893074 7.8607276891 1.4467641159 1.6878914686 7.8607283514 1.4467574932 3.8580230725 
0.96450941062 1.4467561686 1.4467614668 3.8580270461 0.96450676153 1.4467588177 2.0736892724 2.3148159628 8.6805586186 
5.8714314711 6.1125580787 8.6805585358 0.24112664899 0.96450643039 0.48225313241 0.24112664899 0.30671307436 0.26534512444 
0.058699231542 0.034505215548 5.2445025563 2.7078508298 3.9448212966 2.7006116473 2.9417370131 3.9448207172 1.4467614668 
3.8580270461 0.96450411243 1.4467614668 2.7777709961 0.042941100214 0.0043805436625 0.0077969855733 0.020700522104 0.030278779682 
0.037329690547 0.036449331485 0.0090422598093 0.036449331485 0.0092603587904 0.0050410594315 0.0041507462824 0.025601825969 0.0043441935656 
0.012104010364 0.0040910553764 0.011947186342 0.0074240963751 0.013098428354 0.0044605071561 0.027560390433 0.0028294095357 0.030158328483 
0.13237850793 0.15614452911 0.15589720739 0.051391647905 0.022080759772 0.056589418832 0.040679469595 0.11042608527 0.092462380592 
0.041449942146 0.12611588669 0.073110809103 0.051283308354 0.0040931685727 0.0065761571114 0.003701621818 0.0076437752264 0.0061053242982 
0.0050992464354 0.0049030436014 0.0067853146718 0.013441237589 0.0067201373752 0.002677281603 0.0023437499142 0.0035543675323 0.0035342734977 
0.0042372280971 0.0041666673833 0.0055822268344 0.0055114700092 0.0057477267767 0.00875974371 0.0037223467027 0.0067108513119 0.0084782168978 
0.00084218361754 0.0038146583302 0.010735483593 0.0051225485805 0.0043820871345 0.0060431003042 0.0088941753345 0.0043805436625 0.038998004918 
0.0090632908935 0.010151125903 0.00803577767 0.0023722568504 0.0040292722263 0.013665037124 0.015314414996 0.0046227487692 0.0095667682131 
0.0086067752528 0.020570373157 0.012286949816 0.026049214955 0.019847686021 0.057228576211 0.030967729119 0.056802406361 0.021562882378 
0.094023719625 0.094726250512 0.018953134314 0.022333124543 0.012913489906 0.030158328483 0.013827330916 0.018013943976 0.021090405282 
0.02329076416 0.021986433593 0.021701391786 0.014960801567 0.020841283878 0.020839965011 0.016395061736 0.021493397899 0.016062499848 
0.014075360429 0.21690800797 2.7777776718 5.5555419922 2.7777709961 0.41666670704 0.0062372728087 0.019167543387 0.022918973516 
0.0097298438572 0.016173136708 0.10609600868 0.12559516844 1.1315927864 0.69444274902 0.51083275181 1.4467614668 1.3751737003 
0.96450411243 1.4467588177 0.34303338436 0.34303338436 0.019526998817 0.016621434074 1.3852532987 0.0081463962573 0.019526998817 
0.013981265055 0.022945306701 0.019869414091 0.010937938097 0.017932357565 0.017384852048 0.018396597301 0.01874157005 0.017981638142 
0.022058628623 0.020328792291 0.018948198472 0.0059509040534 0.030805692918 0.033253036958 0.089377295712 0.029178502275 0.012565025419 
0.015606235025 0.018921942888 0.062769000754 0.013680569017 0.01280425448 0.085277252997 0.57819252776 0.26217008204 0.43523160294 
0.098169452425 0.54324045129 0.61884160016 0.11888118352 0.12408621982 0.097221932412 0.10079576077 0.26026590337 0.22309872066 
0.1309702281 0.12408621982 0.06701213936 0.17715493226 0.18846295323 0.0528347159 0.0406235725 0.069591097588 0.024571342272 
0.22940190326 0.10785882565 0.089519802625 0.10785882565 0.1439040757 0.007298734302 0.0012144994098 0.003636169129 0.010748538814 
0.0026595325043 0.0019667453566 0.0028584826125 0.0030441491192 0.010113962725 0.0057990045898 0.0047730857443 0.0035064385263 0.0055102987942 
0.005063701272 0.0015086351332 0.0040361842078 0.0037192094932 0.0021169742135 0.0032138066717 0.0018322175575 0.0066255954031 0.0017224430171 
0.0068727924448 0.0033462433417 0.0040396754285 0.0078328413373 0.0017927477001 0.010962532203 0.0084421762931 0.01243275428 0.0017927477001 
0.0096340125027 0.0067203829028 0.0023457252491 0.004474371054 0.0080311557277 0.0056214223945 0.016801402056 0.0065563155402 0.018384679768 
0.011520811126 0.010641164697 0.011600333829 0.0073443778413 0.0011660339431 0.0085669874054 0.0085669874054 0.0069942663732 0.0011660339431 
0.0096738919307 0.016181097477 0.0086035360655 0.0078703774518 0.0093779204928 0.0067927608536 0.011826728312 0.01417534046 0.0093153221813 
0.011652376026 0.008986290882 0.018106270242 0.0044086195457 0.019502765347 0.019502765347 0.016725545323 0.01417534046 0.01524427093 
0.0064221080381 0.0062658884919 0.015868291263 0.020757829883 0.013182627349 0.0067297942852 0.012250457432 0.0077123579783 0.00679518984 
0.016487568451 0.0084945429858 0.0052209880984 0.012539350292 0.010533659829 0.0056514045422 0.0068109701371 0.013077307563 0.010372487698 
0.0056628339742 0.69444274902 0.019787014764 0.028951004184 0.014975944296 0.018321043227 0.01499453733 0.019473714078 0.019591308134 
0.020256905506 0.019321639321 0.023732015832 0.012163857638 0.015695208837 0.011078848451 0.020702990411 0.026311059589 0.02651766036 
0.023732015832 0.035454975435 0.027673989622 0.048219829156 0.029963329165 0.071703847037 0.03303455471 0.061401509147 0.052190712657 
0.039655790754 0.043477763304 0.039170070112 0.033552760421 0.045741729822 0.060584519114 0.04000330273 0.015098125105 0.030608801472 
0.04769434805 0.029524995031 0.050238900524 0.037496944515 0.035339861638 0.04508264776 0.033984218921 0.055323391684 0.10810110927 
0.069314569904 0.073768474245 0.086480887418 0.058504458977 0.052112750588 0.043240443709 0.058504458977 0.064860665563 0.0081537115928 
0.032520518914 0.049301813956 0.038027193652 0.0066120267203 0.024461134778 0.047658262591 0.027722619415 0.36821641445 0.20816567251 
0.23001395047 0.34779988389 0.19066554643 0.145287461 0.1771471621 0.18267157298 0.15876740087 0.0040275269184 0.016267423416 
0.013767320827 0.0095171221505 0.0090913310043 0.0082110236561 0.0096650387701 0.013767320827 0.013652282048 0.018212037447 0.011605916053 
0.015918068768 0.020322214589 0.0129482759 0.018093914822 0.0114520142 0.017177902161 0.006307647376 0.013652282048 0.01456756805 
0.020339610145 0.021623781187 0.0051139227474 0.014911844977 0.016978017969 0.0084362631511 0.011721046538 0.024271354235 0.015354565908 
0.0039285402799 0.012355307139 0.0062330865944 0.0025606218595 0.0026010266885 0.0025794905384 0.0051139227474 0.0026428330431 0.0037965864372 
0.0022083624671 0.0027728991155 0.0027728991155 0.0047116205409 0.01533883627 0.017916122349 0.01547814509 0.023265797885 0.010701956942 
0.009135715248 0.015510684423 0.0021150116976 0.0060939322278 0.013177778283 0.0084704811741 0.004876746557 0.0099193754359 0.0079382682111 
0.023314390118 0.0040434269992 0.014027456519 0.019272491164 0.016006724159 0.0070638462086 0.02233297296 0.017669413029 0.0074855877018 
0.0098061921001 0.01186324218 0.0044186869048 0.010893839741 0.010771167921 0.0038055317132 0.014054383864 0.011269399254 0.0058868778047 
0.0078713254165 0.0081416622122 0.010928765867 0.014956658067 0.016927261984 0.012930219758 0.019360229331 0.019186782581 0.020306454456 
0.016134879667 0.019074061629 0.015789842101 0.24285412271 0.19601907678 0.26404522034 0.39197929421 0.19601907678 0.25761536102 
0.36821637648 0.39743102851 0.085771221573 0.25761534203 0.42983872799 0.35963045408 0.47303217738 0.18478879575 0.026091877097 
0.026091877097 0.0086434258766 0.0061564830134 0.0059509040534 0.0026575919716 0.0067240191255 0.0045430561642 0.0043289261979 0.0019583878983 
0.00254105429 0.0023457252491 0.0038783220111 0.0034360221973 0.0079917204191 0.0030118854292 0.0017414768585 0.0040477041823 0.0033083466605 
0.0012515171912 0.0023253851341 0.0036335200788 0.0025681651078 0.0027286209793 0.0037790664954 0.0049327579634 0.0003871039357 0.0017927477001 
0.0097363006655 0.010110765862 0.0047830601891 0.0090450990585 0.0059706824869 0.0038414170228 0.0023867686908 0.0047436995885 0.0023867686908 
0.0040931217151 0.0050110219265 0.0015086351332 0.0021407789137 0.0018446248713 0.0029674016599 0.0015086351332 0.0013615672715 0.0032042371529 
0.0015584232843 0.0030300509826 0.0015086351332 0.0037605724448 0.0077987243008 0.0039766480369 0.0020901628864 0.0018446248713 0.0031429964579 
0.0063721656447 0.0034165729241 0.0013020832737 0.0024834726828 0.0027370989531 0.0022181152859 0.0023485941195 0.0020833332809 0.0013020832737 
0.0023011693672 0.0015906012735 0.0031429964579 0.00055300857002 0.0018322175575 0.0019391040315 0.0018779980565 0.0040300057929 0.0031110089645 
0.0025741938399 0.0026219430206 0.0062372728087 0.0037633496843 0.004812647453 0.0026283292395 0.0021534463 0.0014551122514 0.00047357087179 
0.0044633537191 0.0047478085892 0.0033446077512 0.0034066217395 0.0030048807882 0.0037089308276 0.0034948789248 0.0022675872926 0.0031067116414 
0.0038316147616 0.0024490368636 0.0035547214826 0.0045459890165 0.0088989609521 0.0096247035088 0.0061564830134 0.014784890789 0.010790524541 
0.0069278951829 0.0039622691012 0.0097895779899 0.0084725818913 0.007421120527 0.0098434075748 0.0055764110321 0.0069972261815 0.0046942955237 
0.012033726325 0.015727789815 0.010937567993 0.009183176487 0.0066128237243 0.00061275523792 0.0040087267435 0.0061223550487 0.0065982884367 
0.0082067178818 0.01094413124 0.0078970502019 0.007455413883 0.0055592957968 0.0058868778047 0.0061223550487 0.012329349178 0.008986290882 
0.0069894132142 0.016631650592 0.019455998203 0.017095248914 0.0064044415227 0.0067203829028 0.00087341622773 0.004474371054 0.0065286742113 
0.011222753032 0.0079417039333 0.0049087102315 0.0063489720814 0.0063489720814 0.011168980425 0.0064987308582 0.0065104172975 0.0055333028332 
0.0044951391165 0.0075786173508 0.0073726344031 0.0063020220913 0.0060482208121 0.006608927991 0.005173171753 0.0056502106643 0.0069230936488 
0.0055333028332 0.0065104172975 0.015811022125 0.006608927991 0.0010879868347 0.0084945429858 0.0064097541169 0.0069402712037 0.0095044409137 
0.008734612349 0.036848434095 0.039180198504 0.021199650141 0.019728665935 0.0063904311598 0.0090808680266 0.013177778283 0.012546896888 
0.0078713254165 0.0057594902138 0.003827857882 0.0038563454605 0.006930747471 0.0078010540451 0.0009967223299 0.0083828166394 0.011753661269 
0.0091363575656 0.0052358769977 0.003827857882 0.0054284638082 0.0029803014183 0.0027728991155 0.0057809375421 0.0027728991155 0.0043823509836 
0.0029501240118 0.00390087557 0.0021017988947 0.0033725294159 0.0029665756377 0.0031934389517 0.0029130300868 0.0094309174226 0.011653212853 
0.0037103238647 0.0053326924966 0.0053326924966 0.0039207802751 0.0060428322745 0.0026428330431 0.0059524635272 0.0043266133823 0.0014821807745 
0.0027676488288 0.0028369914768 0.0023880598475 0.0037869345267 0.0016990505861 0.0049538665466 0.002288367263 0.0020029663419 0.0014862187558 
0.0024876840229 0.0059809058158 0.0081280176876 0.0030148847823 0.0039285402799 0.0030489447887 0.0031977159658 0.0040841669101 0.0027363713429 
0.0037893458218 0.0017846165612 0.0019615031857 0.0018062791229 0.003235080896 0.0021118085557 0.0021882141382 0.0047116205409 0.0041998033499 
0.0024382554576 0.0026838563552 0.0020310279854 0.0022907705877 0.0027421047697 0.002219870933 0.0021792153196 5.2588839981e-05 0.003737820157 
0.0084362631511 0.0065170766759 0.0064974597825 0.0071771703208 0.0080813907378 0.0046277419145 0.00615410933 0.0060327277926 0.0038563454605 
0.0034293065103 0.0020040766161 0.0020815534795 0.0011902360001 0.0016945939559 0.0017880207713 0.0014844039568 0.0016945939559 0.014939534073 
0.018367274679 0.0064974597825 0.0039052231718 0.0086298234323 0.0087595932555 0.0062940366772 0.0040049097153 0.0038874238463 0.006973592691 
0.0039052231718 0.0049637215028 0.0038874238463 0.0045575513834 0.0038282588447 0.00026537114546 0.0037699379774 0.0059760986605 0.0041630434206 
0.0032452891425 0.00442265173 0.0035316537792 0.0038055317132 0.0061845403756 0.0038055317132 0.0061025862636 0.0038055317132 0.19604850645 
0.19604850645 0.073584406686 0.073451973154 0.19601907678 0.2268172094 0.010256299922 0.0077090524573 0.0092482342665 0.0023750870078 
0.0058988872337 0.0064097541169 0.01048835776 0.0058445732369 0.0056915560241 0.0058445732369 0.039419657663 0.026375891519 0.014698945228 
0.017938165504 0.049012126613 0.049041556287 0.0078312526309 0.0091847007643 0.0077090524573 0.0092724372616 0.010392275327 0.0053228487427 
0.021199650141 0.014698945228 0.097994823553 0.085771221573 0.0078459896636 0.0065618757833 0.0082473035285 0.0072315057139 0.0056514045422 
0.0056514045422 0.008946824161 0.0093511614164 0.011605916053 0.012380905542 0.016301062692 0.019423283646 0.015432607993 0.015170303581 
0.013182627349 0.020757829883 0.0078219621644 0.0076752630109 0.018093914822 0.015829057707 0.0019836346845 0.0019836346845 0.019294696608 
0.015352102899 0.018278117395 0.012545315814 0.010283691206 0.012758297678 0.014575043128 0.023370654265 0.010669137399 0.011535889837 
0.017351052661 0.012471468575 0.019294696608 0.014133914211 0.012291567986 0.01816748223 0.019891957724 0.013585179468 0.023531308914 
0.0025711627139 0.020915025834 0.01599730393 0.008491752694 0.014301963311 0.012319860435 0.016173136708 0.002466167886 0.018799236987 
0.010300468869 0.011984684742 0.014909992289 0.012718410746 0.019251886774 0.010300468869 0.019521740012 0.016580365786 0.019521740012 
0.015912164502 0.01404931821 0.015991251162 0.014298905952 0.015695208837 0.01280425448 0.016381287096 0.02355166339 0.015991251162 
0.004446582399 0.015991251162 0.023732015832 0.029273965935 0.019262070493 0.024106537339 0.014091643895 0.021585574142 0.043458889526 
0.043458889526 0.022910383675 0.023732015832 0.01564763082 0.012021122897 0.012795025846 0.0040594225552 0.014520606074 0.0073169379726 
0.0082246505695 0.016243014892 0.022058628623 0.017236549764 0.033927865216 0.038766728924 0.040533800231 0.01394684197 0.017138645254 
0.012630315441 0.0014175754398 0.00025479867714 0.002466167886 0.025440062393 0.021159115289 0.015098125105 0.040182793598 0.025274305067 
0.030657120539 0.020702990411 0.027112729908 0.023458386039 0.021547281568 0.01795667084 0.021159115289 0.04182560945 0.036612330589 
0.038902744473 0.031238687519 0.040757146612 0.017299155069 0.017918327892 0.023670655539 0.04769434805 0.013586596257 0.032721510165 