# vtk DataFile Version 5.1
vtk output
ASCII
DATASET STRUCTURED_POINTS
DIMENSIONS 30 30 30
SPACING 0.01 0.01 0.01
ORIGIN 1.555 -0.145 0.855
POINT_DATA 27000
FIELD FieldData 3
potential 1 27000 double
0.34886080077 0.34885545789 0.34884995245 0.34884422419 0.34883820177 0.34883195547 0.3488254375 0.34881871365 0.34881176422 
0.34880456933 0.34879710399 0.34878946265 0.34878165057 0.34877359991 0.34876529981 0.34875679439 0.34874808907 0.34873919278 
0.34873006945 0.34872083515 0.34871133162 0.34870168027 0.34869184369 0.34868183442 0.34867164097 0.34866121734 0.34865067583 
0.34863997809 0.34862911753 0.34861811686 0.34841370229 0.34840859336 0.34840333051 0.34839774136 0.34839193909 0.34838590186 
0.34837952438 0.34837297712 0.34836613918 0.34835912202 0.34835183001 0.34834430417 0.34833661692 0.3483287664 0.34832058075 
0.3483122032 0.34830357342 0.34829482306 0.34828585629 0.34827667161 0.34826728713 0.34825770469 0.34824792936 0.34823795953 
0.34822782157 0.34821741226 0.34820689502 0.34819620337 0.34818534571 0.34817433901 0.34800596305 0.34800115114 0.3479959658 
0.34799058325 0.34798506854 0.34797916666 0.34797299146 0.34796656414 0.34795990826 0.34795306334 0.34794598385 0.34793864405 
0.34793110291 0.34792338677 0.34791535174 0.34790712253 0.34789864293 0.34789000408 0.34788112092 0.34787204828 0.34786276415 
0.3478532213 0.3478435112 0.34783358623 0.34782348068 0.34781321415 0.34780263021 0.34779195943 0.34778109026 0.34777006977 
0.34763787136 0.34763327932 0.34762822746 0.34762309869 0.34761778125 0.34761212357 0.34760620263 0.34760001775 0.34759352762 
0.34758685112 0.34757991629 0.34757274194 0.34756535738 0.34755772925 0.34754988761 0.3475418045 0.34753345099 0.34752492856 
0.34751615447 0.34750717323 0.34749797794 0.34748854812 0.34747887047 0.34746902032 0.34745896693 0.34744872298 0.34743818318 
0.34742752762 0.34741668173 0.34740564681 0.34730985331 0.34730548449 0.34730079167 0.3472958289 0.34729071827 0.34728527522 
0.34727955107 0.34727356732 0.3472673514 0.34726083593 0.34725411043 0.34724705572 0.34723978052 0.3472323069 0.34722460674 
0.34721666546 0.34720841392 0.34720005888 0.34719141063 0.34718251708 0.34717341512 0.34716406859 0.34715449692 0.34714467946 
0.34713467858 0.34712447163 0.34711403786 0.34710333703 0.34709250771 0.34708149066 0.34702229435 0.34701808525 0.34701368655 
0.34700892174 0.34700402558 0.34699881201 0.34699328743 0.34698752094 0.34698148899 0.34697519621 0.34696861581 0.34696178732 
0.34695473067 0.3469473994 0.34693983998 0.3469319206 0.3469238396 0.34691556604 0.34690708188 0.34689830833 0.34688928389 
0.34688004397 0.34687055012 0.34686082942 0.34685085013 0.34684069462 0.346830306 0.34681960487 0.34680883563 0.34679779796 
0.34677534746 0.34677143586 0.34676721095 0.34676273348 0.34675798786 0.34675297658 0.34674769609 0.34674211881 0.34673629568 
0.34673019444 0.34672380117 0.34671715774 0.34671027567 0.34670311134 0.34669569287 0.34668793842 0.34668007319 0.34667187299 
0.34666345085 0.34665477341 0.34664586194 0.34663670983 0.34662731619 0.34661766237 0.34660777333 0.34659763958 0.34658728889 
0.34657664146 0.34656584952 0.34655483012 0.34656931665 0.34656565433 0.34656168695 0.34655742446 0.34655283214 0.3465481021 
0.34654304418 0.34653767383 0.34653203044 0.34652615117 0.34651997484 0.34651348791 0.34650678477 0.34649978995 0.34649253378 
0.34648492193 0.34647719712 0.34646915848 0.34646082386 0.34645229163 0.34644344538 0.34643438758 0.34642503436 0.34641545534 
0.34640566035 0.34639558981 0.34638528256 0.3463747254 0.34636385425 0.34635284055 0.34640438284 0.34640092893 0.34639723344 
0.34639319927 0.34638884525 0.34638428998 0.34637945638 0.34637430491 0.34636887154 0.34636319134 0.34635721099 0.34635094286 
0.34634439227 0.34633757044 0.34633048013 0.34632302098 0.3463153796 0.34630754355 0.34629936153 0.34629091144 0.34628222501 
0.34627324518 0.34626402 0.34625449214 0.34624471111 0.34623474284 0.34622448916 0.34621395343 0.34620305671 0.34619205749 
0.34628068237 0.34627752211 0.34627402086 0.34627026697 0.34626620905 0.34626186031 0.3462572255 0.34625225774 0.34624703036 
0.34624155613 0.34623577519 0.34622968635 0.34622332763 0.34621670125 0.34620972679 0.34620252594 0.34619497157 0.34618720862 
0.34617921467 0.34617088164 0.34616230809 0.34615342553 0.34614429107 0.34613486168 0.34612520888 0.34611524453 0.34610501568 
0.34609451065 0.34608372962 0.34607268011 0.34619840972 0.34619549299 0.34619225982 0.34618874324 0.34618492362 0.34618083239 
0.3461764269 0.34617175099 0.34616672088 0.34616143046 0.34615580889 0.34614993827 0.34614376657 0.34613731307 0.34613050824 
0.34612346919 0.34611607719 0.34610844095 0.34610051544 0.34609236494 0.34608387131 0.34607512296 0.3460660649 0.34605674582 
0.34604713453 0.34603722811 0.34602705117 0.34601660409 0.34600587756 0.34599484066 0.34615776044 0.34615510007 0.34615213091 
0.34614882935 0.3461452832 0.34614139788 0.34613721694 0.34613276662 0.34612797454 0.34612294615 0.34611753316 0.34611183641 
0.34610585387 0.34609954983 0.34609292541 0.34608604757 0.34607881592 0.3460713303 0.34606352773 0.34605550076 0.34604711717 
0.34603847325 0.34602949892 0.34602028265 0.34601073802 0.34600090327 0.34599077862 0.3459803625 0.3459696586 0.34595871694 
0.34615883601 0.34615643439 0.34615372769 0.34615067559 0.34614735429 0.34614371618 0.34613976962 0.346135541 0.34613099761 
0.34612615411 0.3461209667 0.34611546853 0.34610969496 0.34610360592 0.34609714588 0.34609041433 0.3460833162 0.34607597675 
0.34606832971 0.34606035556 0.3460521497 0.34604357244 0.34603476056 0.34602559718 0.34601612546 0.34600633541 0.34599625246 
0.34598589462 0.34597521883 0.34596429289 0.34620172229 0.34619958402 0.34619712893 0.34619434163 0.34619123384 0.34618785614 
0.34618413522 0.34618012119 0.34617580349 0.34617115848 0.34616619891 0.34616093763 0.34615534411 0.34614940103 0.34614317902 
0.34613659969 0.34612972673 0.34612250221 0.34611497127 0.34610713734 0.3460989798 0.34609060136 0.34608185483 0.34607277168 
0.34606336828 0.34605366292 0.34604361677 0.34603329602 0.34602265014 0.346011731 0.34628648734 0.34628458226 0.34628238218 
0.34627988378 0.34627705955 0.34627387893 0.34627047014 0.34626661799 0.34626252664 0.34625809627 0.3462533485 0.34624827215 
0.3462428726 0.34623715108 0.34623108158 0.3462246528 0.34621793584 0.34621085999 0.34620352021 0.34619582142 0.34618780952 
0.34617944218 0.34617081025 0.34616185457 0.3461525211 0.34614286743 0.34613290148 0.34612260688 0.34611200875 0.3461010945 
0.34641319256 0.34641157008 0.34640959232 0.34640735058 0.3464047662 0.34640184436 0.34639862406 0.34639505519 0.34639116375 
0.34638696924 0.34638244298 0.34637757146 0.34637236118 0.34636680138 0.34636095285 0.34635472942 0.34634812565 0.34634120204 
0.34633397307 0.34632644022 0.34631856438 0.34631029543 0.34630176159 0.34629284578 0.34628361886 0.34627403154 0.34626412688 
0.34625387012 0.34624330142 0.34623240526 0.34658177903 0.34658045377 0.34657876763 0.34657677838 0.34657443949 0.34657178928 
0.34656878421 0.34656552414 0.34656178665 0.34655780285 0.34655349319 0.34654882611 0.34654380703 0.3465384372 0.34653276822 
0.34652672852 0.34652031797 0.34651356547 0.34650641094 0.34649901017 0.34649121957 0.3464830791 0.34647456126 0.34646582788 
0.34645671185 0.34644718073 0.34643730288 0.34642708666 0.34641654773 0.34640567054 0.34679231426 0.34679121729 0.34678983264 
0.34678812357 0.34678604508 0.34678363074 0.34678090889 0.34677784808 0.34677433923 0.34677056457 0.34676649851 0.34676203709 
0.34675721449 0.34675202141 0.34674652097 0.3467406505 0.34673443127 0.34672780095 0.34672084947 0.34671354757 0.34670585295 
0.34669782295 0.34668942205 0.34668067373 0.3466716714 0.34666224925 0.34665244041 0.34664227702 0.34663174773 0.34662089656 
0.34704470845 0.34704394612 0.34704279469 0.34704131883 0.34703949449 0.34703737902 0.34703489153 0.34703204772 0.34702878458 
0.34702522772 0.34702136309 0.34701711533 0.3470125125 0.3470075147 0.34700218365 0.34699648897 0.34699044296 0.34698400305 
0.34697714975 0.3469699812 0.34696241121 0.34695448508 0.34694616604 0.34693751601 0.34692850803 0.34691918466 0.34690942217 
0.3468993416 0.34688885112 0.34687802068 0.34733901426 0.34733845167 0.34733762393 0.34733639946 0.34733482945 0.34733291789 
0.34733067936 0.34732805689 0.34732505103 0.34732173215 0.34731808013 0.34731403697 0.34730959709 0.34730481853 0.34729965398 
0.34729415135 0.34728829702 0.3472819994 0.34727530791 0.34726823053 0.34726080377 0.34725298349 0.34724479185 0.3472362496 
0.34722728998 0.34721797833 0.3472083153 0.34719825534 0.34718779298 0.34717702573 0.34767514593 0.34767477185 0.34767413614 
0.34767316809 0.34767191239 0.34767024415 0.34766824253 0.34766587258 0.34766319841 0.34765998106 0.3476565054 0.34765273077 
0.34764848801 0.34764387603 0.34763890709 0.34763357631 0.34762788403 0.34762173824 0.34761518946 0.34760824374 0.34760093053 
0.34759323042 0.34758516184 0.34757671621 0.34756784089 0.34755857602 0.34754892354 0.34753892947 0.34752849219 0.34751769869 
0.34805287156 0.34805285642 0.34805236124 0.34805166613 0.34805060785 0.34804924285 0.34804745967 0.34804532415 0.34804286397 
0.34803989875 0.34803662615 0.34803301868 0.3480289866 0.34802453091 0.3480197711 0.3480146461 0.34800907749 0.34800308169 
0.34799672251 0.34798987273 0.34798269155 0.34797509903 0.34796712514 0.34795873496 0.34794992801 0.34794074846 0.34793119079 
0.34792123127 0.34791078955 0.34790005601 0.3484721289 0.34847235397 0.34847222361 0.3484716728 0.34847086092 0.34846964443 
0.34846810274 0.34846623563 0.34846397173 0.34846128319 0.34845821051 0.34845477019 0.34845096929 0.34844673287 0.34844220399 
0.34843718931 0.34843178975 0.34842594204 0.34841969178 0.34841301277 0.34840590286 0.34839841714 0.34839054788 0.34838224435 
0.34837348967 0.34836436628 0.34835486006 0.34834489826 0.34833457273 0.34832387315 0.34893270066 0.34893321171 0.34893332611 
0.34893310667 0.34893245338 0.34893151387 0.34893016685 0.34892845352 0.34892641359 0.34892407296 0.34892115034 0.34891793734 
0.34891429128 0.3489102712 0.34890587702 0.3489010271 0.34889580368 0.34889010987 0.34888403481 0.34887748636 0.34887043292 
0.34886305667 0.34885526258 0.34884703787 0.34883837754 0.34882931094 0.34881982662 0.34880992684 0.34879957053 0.34878893834 
0.34943446698 0.34943519112 0.3494355665 0.34943558972 0.34943526152 0.34943456049 0.34943342359 0.34943193525 0.34943010972 
0.34942793855 0.34942526331 0.34942222042 0.34941870657 0.34941493749 0.3494106643 0.34940601955 0.34940094126 0.34939534872 
0.34938937323 0.34938298195 0.34937612926 0.34936888668 0.349361188 0.3493530293 0.34934444267 0.34933536856 0.34932592848 
0.34931607033 0.34930581768 0.34929507781 0.34997720383 0.34997816774 0.34997878579 0.3499790548 0.34997896255 0.34997852338 
0.3499776419 0.34997631284 0.34997467809 0.34997269245 0.34997020497 0.34996735455 0.3499641535 0.34996050627 0.34995637692 
0.34995187571 0.34994692177 0.34994150498 0.34993568549 0.34992941015 0.34992270223 0.34991551322 0.34990792379 0.34989988057 
0.34989135715 0.34988240941 0.3498730011 0.34986318038 0.34985295419 0.34984223645 0.35056068709 0.3505618722 0.3505627245 
0.35056326597 0.35056340535 0.35056316306 0.35056250483 0.35056148119 0.35055997196 0.35055817708 0.3505559269 0.35055323323 
0.35055011642 0.35054661109 0.35054275227 0.35053843803 0.35053360365 0.35052834681 0.35052265394 0.35051652383 0.35050992777 
0.35050281619 0.35049531002 0.35048732022 0.35047888187 0.35047002068 0.35046067593 0.35045092127 0.35044066425 0.35042995782 
0.35118459267 0.35118608794 0.35118715695 0.35118789333 0.35118825406 0.35118824048 0.35118780747 0.35118699564 0.35118578697 
0.35118404594 0.35118210278 0.35117952886 0.35117664281 0.35117328265 0.35116952786 0.35116532768 0.35116066779 0.35115554395 
0.35115000667 0.35114399277 0.35113749236 0.3511305747 0.35112310995 0.35111520026 0.35110681735 0.35109798354 0.35108868187 
0.35107898817 0.35106880548 0.35105810526 0.35184870699 0.35185041498 0.35185173587 0.3518526974 0.35185326722 0.35185346603 
0.35185325227 0.35185262496 0.35185161879 0.35185019847 0.35184825093 0.35184595782 0.3518432478 0.35184010708 0.35183652888 
0.35183241171 0.35182787398 0.35182286717 0.35181744842 0.3518115747 0.35180518207 0.35179830741 0.35179092579 0.35178311655 
0.35177479115 0.35176600461 0.35175674442 0.35174708007 0.3517368797 0.35172621927 0.35255267116 0.35255460184 0.35255614765 
0.35255734096 0.35255811463 0.35255849219 0.35255850378 0.3525581132 0.35255731029 0.35255608145 0.35255443655 0.35255220256 
0.35254966503 0.35254669099 0.35254325008 0.35253935219 0.35253489659 0.35253002192 0.3525247608 0.3525189581 0.35251266571 
0.35250586052 0.35249858702 0.35249078341 0.3524825401 0.35247379916 0.3524647172 0.35245497475 0.35244475202 0.35243409146 
0.34932733974 0.34932231573 0.34931702621 0.34931150217 0.34930568035 0.34929971639 0.34929343246 0.34928688118 0.34928017962 
0.34927325167 0.34926601137 0.34925863025 0.34925106897 0.34924335036 0.34923528284 0.34922703969 0.34921860401 0.34920995683 
0.34920114361 0.34919213639 0.34918295922 0.34917358017 0.34916401812 0.34915427831 0.34914427617 0.34913420132 0.34912396208 
0.34911353814 0.34910294717 0.34909222262 0.34889563365 0.34889086119 0.34888577578 0.34888038204 0.34887481081 0.34886892237 
0.34886286282 0.34885654592 0.34884995466 0.34884317787 0.34883607674 0.34882882957 0.34882140406 0.34881379871 0.34880593386 
0.34879776707 0.34878947855 0.34878087994 0.34877219159 0.34876326581 0.34875414467 0.34874482823 0.34873532142 0.34872562362 
0.34871567211 0.34870561138 0.34869538084 0.34868497975 0.34867439479 0.34866365852 0.34850227039 0.34849751685 0.34849264902 
0.34848747594 0.34848214019 0.34847652399 0.34847062226 0.34846447069 0.34845804257 0.34845143662 0.34844455712 0.34843745128 
0.3484301659 0.34842263473 0.34841495974 0.34840691264 0.34839873554 0.34839027753 0.34838166284 0.34837279605 0.34836375043 
0.34835450217 0.34834505447 0.34833541066 0.34832558821 0.3483154725 0.34830526204 0.34829486362 0.3482842952 0.34827354709 
0.34814755458 0.34814304358 0.34813837063 0.34813341135 0.34812826637 0.34812282704 0.34811713906 0.34811113015 0.34810492215 
0.34809848348 0.34809177836 0.34808479527 0.34807760394 0.34807019943 0.34806256151 0.34805471975 0.34804665059 0.34803831994 
0.34802980391 0.34802107176 0.34801207289 0.34800289689 0.34799351226 0.34798392218 0.3479741403 0.34796406289 0.34795387324 
0.34794347919 0.34793291147 0.34792217295 0.34783185744 0.34782761994 0.34782308371 0.34781833174 0.34781341302 0.34780814747 
0.3478026451 0.34779682528 0.34779078296 0.34778452834 0.34777798604 0.34777119516 0.34776419979 0.34775694574 0.34774940115 
0.34774162157 0.34773367652 0.34772547655 0.34771705367 0.34770843601 0.34769955605 0.34769042359 0.34768110587 0.34767157321 
0.3476618421 0.34765188883 0.34764164101 0.34763126747 0.34762071291 0.34760996022 0.34755543865 0.34755146367 0.34754708501 
0.34754254519 0.34753777232 0.34753276532 0.3475274542 0.3475218463 0.34751598221 0.34750990496 0.34750351831 0.34749689093 
0.34749002625 0.34748292194 0.34747557065 0.34746789865 0.34746015126 0.34745200472 0.34744368566 0.34743512804 0.3474263508 
0.34741734816 0.34740806991 0.34739859603 0.34738891765 0.34737900186 0.34736878944 0.34735843949 0.3473478809 0.34733716594 
0.34731853971 0.34731479333 0.34731074586 0.34730633628 0.34730174274 0.34729693944 0.34729181218 0.34728642602 0.34728076802 
0.34727484729 0.34726864046 0.34726219493 0.34725547326 0.34724853684 0.34724131629 0.34723385145 0.3472260571 0.34721818825 
0.34720999295 0.3472015388 0.34719283255 0.34718385165 0.34717467725 0.3471652399 0.34715561778 0.34714574932 0.34713565511 
0.34712526535 0.34711473683 0.34710400133 0.347121476 0.34711791316 0.34711408861 0.34710992719 0.34710555413 0.34710093676 
0.3470959977 0.34709081055 0.34708534217 0.34707960393 0.34707358139 0.3470673078 0.34706075409 0.34705397021 0.34704691525 
0.34703957309 0.34703191159 0.34702413093 0.34701606426 0.34700771128 0.34699912944 0.34699029374 0.34698119389 0.34697181761 
0.3469622205 0.3469523981 0.34694232459 0.34693197756 0.34692144813 0.34691070352 0.34696444478 0.34696107986 0.34695749554 
0.34695361395 0.34694940068 0.34694503315 0.34694030126 0.34693526942 0.34692999632 0.3469244468 0.34691860427 0.34691250592 
0.34690612199 0.34689950383 0.34689259513 0.34688537218 0.34687786855 0.34687015629 0.34686222502 0.34685398034 0.34684547432 
0.34683672511 0.34682770674 0.34681844856 0.34680893424 0.34679913153 0.34678914243 0.34677885038 0.34676826329 0.3467575434 
0.34684752219 0.34684443993 0.34684106472 0.3468374181 0.34683338664 0.34682917358 0.34682472257 0.34681994279 0.34681485063 
0.34680944886 0.34680383967 0.34679789565 0.34679169621 0.34678521557 0.34677847255 0.3467714014 0.34676404955 0.34675644892 
0.34674858728 0.34674053814 0.34673212773 0.34672347341 0.34671453102 0.34670532821 0.34669584557 0.34668616761 0.34667617064 
0.34666592191 0.34665535155 0.3466446295 0.34677096529 0.34676814088 0.34676498899 0.34676153596 0.34675784301 0.34675377907 
0.34674955549 0.3467449482 0.34674008052 0.3467348813 0.34672946201 0.34672370327 0.34671765101 0.34671133627 0.34670474828 
0.3466978276 0.34669066648 0.34668315404 0.34667541115 0.34666744269 0.34665916842 0.34665060858 0.34664175042 0.34663261711 
0.34662324324 0.34661358192 0.3466036398 0.34659341653 0.34658284989 0.34657213665 0.34673489155 0.34673229989 0.3467294003 
0.34672616758 0.34672267974 0.34671886182 0.3467148708 0.34671047607 0.3467058294 0.34670085108 0.34669562209 0.34669002686 
0.34668415014 0.34667796101 0.34667155772 0.34666478996 0.34665777067 0.34665040366 0.34664277408 0.34663485489 0.34662674356 
0.34661825792 0.34660950551 0.34660044735 0.34659115183 0.34658154305 0.3465716298 0.34656145854 0.34655101063 0.34654023553 
0.34673946091 0.3467371005 0.34673443996 0.34673149179 0.34672819008 0.34672456048 0.34672078511 0.34671659872 0.34671216389 
0.34670742316 0.34670237802 0.34669702284 0.346691354 0.3466852977 0.34667900377 0.34667239584 0.34666552341 0.34665829104 
0.34665080396 0.34664300386 0.3466349174 0.34662660734 0.34661795002 0.34660901346 0.3465997392 0.3465901898 0.34658031652 
0.34657018456 0.34655977994 0.34654899116 0.3467847311 0.34678259516 0.34678018776 0.34677747596 0.34677443636 0.34677108314 
0.34676739085 0.3467634967 0.34675924451 0.34675469553 0.34674982948 0.34674467838 0.34673922002 0.34673337755 0.34672721989 
0.34672079893 0.34671407047 0.34670695774 0.34669959119 0.3466919245 0.34668393374 0.34667568072 0.34666717874 0.34665828972 
0.34664910274 0.34663956151 0.34662975482 0.34661966422 0.34660927182 0.34659859666 0.34687076661 0.34686889967 0.34686671446 
0.34686421739 0.34686142954 0.3468582907 0.34685482593 0.3468511431 0.34684707754 0.34684275334 0.34683808619 0.34683312772 
0.34682784152 0.34682220167 0.34681620571 0.34680997628 0.34680337364 0.34679646639 0.34678919426 0.34678162509 0.34677375129 
0.34676558671 0.34675718678 0.34674836909 0.34673924138 0.34672977575 0.34672001469 0.34670996271 0.34669959451 0.34668894005 
0.34699759157 0.34699599324 0.34699405909 0.34699182495 0.34698924081 0.34698636968 0.34698309114 0.34697963759 0.34697579727 
0.34697164897 0.34696720199 0.34696243459 0.34695731499 0.34695185066 0.34694604508 0.34693991 0.34693348505 0.34692672222 
0.34691959522 0.34691216728 0.34690444117 0.34689636803 0.34688795498 0.34687928886 0.34687022017 0.3468608241 0.34685111079 
0.34684109464 0.34683075564 0.34682011387 0.34716526047 0.34716390006 0.34716222585 0.3471602459 0.34715793517 0.34715527833 
0.34715231303 0.34714898143 0.34714535921 0.34714141939 0.34713717915 0.34713258531 0.3471276498 0.34712236174 0.34711668656 
0.34711073626 0.34710447245 0.34709784999 0.3470908443 0.34708351356 0.34707593869 0.34706795546 0.3470596303 0.34705104456 
0.34704205913 0.34703272474 0.34702305678 0.3470130817 0.34700276866 0.34699214226 0.34737371072 0.34737267194 0.34737124269 
0.34736948272 0.34736740629 0.34736501351 0.34736226621 0.34735909854 0.3473557514 0.34735201821 0.34734797727 0.34734359696 
0.34733883179 0.34733370071 0.34732823481 0.34732247912 0.34731631237 0.34730983326 0.34730300231 0.34729579179 0.34728825922 
0.34728035339 0.3472721139 0.34726365845 0.34725471379 0.34724548146 0.34723584543 0.34722589729 0.34721561104 0.34720499054 
0.34762300126 0.34762214223 0.34762102447 0.34761953265 0.34761769223 0.34761552832 0.34761300762 0.34761007886 0.3476069304 
0.34760340628 0.34759953477 0.34759535797 0.34759080602 0.34758583412 0.34758055197 0.34757495481 0.34756893106 0.34756259182 
0.34755592743 0.347548829 0.34754140931 0.34753362719 0.34752548647 0.34751700825 0.34750817539 0.34749900223 0.3474894836 
0.3474795862 0.34746930047 0.34745869683 0.34791306289 0.34791244849 0.34791150195 0.34791022768 0.34790868353 0.3479067503 
0.34790448468 0.34790183089 0.34789887653 0.347895528 0.34789185478 0.34788786977 0.34788349015 0.34787870043 0.34787359049 
0.34786814421 0.34786231649 0.34785612771 0.34784956115 0.34784258553 0.34783526654 0.34782758658 0.34781958509 0.34781117024 
0.34780241699 0.34779325356 0.34778371198 0.34777393547 0.34776370693 0.34775311797 0.34824375459 0.34824338928 0.34824271547 
0.34824167032 0.34824030083 0.34823865443 0.34823658198 0.34823414496 0.34823140577 0.34822829588 0.34822482625 0.34822101079 
0.34821684573 0.34821221495 0.34820727534 0.34820197204 0.3481962972 0.34819025157 0.34818381506 0.34817700465 0.34816977008 
0.3481621986 0.3481542749 0.34814595525 0.348137261 0.34812816591 0.34811871375 0.3481089305 0.34809873788 0.34808816308 
0.34861500286 0.34861488028 0.34861442023 0.34861362194 0.34861248667 0.34861101424 0.34860922976 0.3486070646 0.34860447151 
0.34860162219 0.34859832029 0.34859468831 0.34859071172 0.34858630744 0.34858153583 0.34857639227 0.34857088165 0.34856494588 
0.34855863449 0.34855193928 0.34854480977 0.34853741085 0.34852953899 0.34852128763 0.34851265633 0.34850365389 0.3484942322 
0.34848442166 0.34847429264 0.34846372114 0.34902683833 0.34902693755 0.34902660384 0.34902604276 0.34902513899 0.34902389295 
0.34902225444 0.34902028446 0.34901793378 0.34901532351 0.34901226712 0.34900879479 0.34900495816 0.3490007138 0.34899615963 
0.34899119676 0.34898582249 0.34898009118 0.34897388774 0.3489673017 0.34896028736 0.34895290573 0.34894513772 0.34893695476 
0.34892838578 0.34891945447 0.3489100925 0.34890033328 0.34889014745 0.34887964317 0.34947880029 0.34947913245 0.34947915053 
0.34947873289 0.34947802136 0.34947699295 0.34947558339 0.34947382741 0.34947168303 0.3494692064 0.34946636782 0.34946309046 
0.34945940432 0.34945537544 0.34945100513 0.34944620906 0.34944096064 0.34943536012 0.34942929278 0.34942283768 0.34941601651 
0.34940868928 0.3494010051 0.34939288219 0.34938433612 0.3493754227 0.34936613038 0.34935640018 0.34934628509 0.34933574261 
0.34997078597 0.34997136817 0.34997164878 0.34997154558 0.34997100827 0.34997020061 0.34996896684 0.34996741986 0.34996548023 
0.34996314915 0.34996055905 0.34995746497 0.34995396804 0.34995012931 0.34994592336 0.34994123056 0.34993610212 0.34993065068 
0.34992473626 0.34991841782 0.34991164446 0.34990445003 0.34989684053 0.34988881822 0.34988038005 0.34987152018 0.34986228598 
0.34985259028 0.34984247775 0.34983202551 0.35050269215 0.35050351242 0.35050397968 0.35050410551 0.35050387892 0.3505031708 
0.3505022185 0.35050087988 0.35049918593 0.35049699287 0.35049458319 0.35049166751 0.35048833642 0.35048467127 0.35048064613 
0.35047610386 0.35047111976 0.35046573494 0.3504599413 0.3504537732 0.35044710686 0.35044006676 0.35043251822 0.35042454582 
0.35041619001 0.35040737698 0.35039819163 0.35038852772 0.35037843583 0.35036799257 0.35107422934 0.35107528012 0.3510759815 
0.35107632404 0.35107631683 0.3510759478 0.35107511479 0.35107398268 0.35107246158 0.35107052684 0.35106816691 0.35106546464 
0.35106234689 0.3510588363 0.35105488269 0.35105047681 0.35104565568 0.35104040577 0.35103474739 0.35102864324 0.35102213063 
0.3510151899 0.35100773465 0.35099989029 0.35099158947 0.35098282827 0.35097362642 0.35096402882 0.35095402238 0.35094355452 
0.35168517098 0.35168642559 0.3516873499 0.35168794869 0.35168814502 0.35168796475 0.35168741804 0.35168640311 0.35168507972 
0.35168333511 0.35168110377 0.35167860449 0.35167566389 0.35167227791 0.35166845498 0.3516642665 0.35165955811 0.35165443744 
0.35164897046 0.35164295984 0.35163647627 0.3516295827 0.35162223535 0.35161442899 0.35160620146 0.35159752332 0.35158837019 
0.35157883366 0.35156883985 0.35155832345 0.35233521382 0.35233671948 0.35233785524 0.3523386262 0.35233903198 0.35233905566 
0.35233870912 0.35233798558 0.35233684753 0.3523351336 0.35233312218 0.35233089934 0.35232809047 0.35232482818 0.35232116705 
0.35231705443 0.35231248979 0.35230750181 0.35230212283 0.35229626621 0.35228988058 0.35228308198 0.35227581415 0.35226804481 
0.35225986381 0.35225123637 0.35224217091 0.35223264663 0.35222266718 0.35221216573 0.35302402156 0.35302574923 0.3530271045 
0.35302807828 0.35302866865 0.35302891619 0.35302873862 0.35302820829 0.35302726179 0.35302584419 0.35302391946 0.35302182041 
0.35301919602 0.35301614009 0.35301259157 0.35300861278 0.35300417676 0.35299937193 0.35299402964 0.35298825378 0.35298199484 
0.35297526098 0.35296809092 0.35296039329 0.35295226069 0.35294368106 0.35293459223 0.35292513101 0.35291514525 0.35290469024 
0.34975619425 0.34975137588 0.3497462987 0.34974097068 0.34973543389 0.34972958337 0.34972357897 0.34971736295 0.34971085643 
0.3497041347 0.34969721849 0.34969012301 0.34968279146 0.34967517704 0.34966743941 0.3496594467 0.34965129657 0.34964293026 
0.34963436736 0.34962561997 0.34961668966 0.34960757356 0.34959827834 0.34958871703 0.34957908902 0.34956928171 0.34955930657 
0.34954914198 0.34953885014 0.3495284165 0.34933952568 0.34933489816 0.34932999999 0.34932484207 0.34931947664 0.34931388843 
0.34930810835 0.3493019896 0.34929566389 0.34928907675 0.34928227621 0.34927525157 0.34926805953 0.34926065295 0.34925301659 
0.34924511307 0.34923705596 0.34922879856 0.34922030358 0.34921163069 0.34920276334 0.34919370502 0.34918445908 0.349175029 
0.34916534632 0.34915555983 0.34914560298 0.34913545448 0.3491251509 0.3491146821 0.34896018168 0.3489557293 0.34895102656 
0.34894611139 0.34894095462 0.34893551368 0.34892986447 0.34892393952 0.34891776242 0.34891132289 0.34890465942 0.34889777038 
0.34889065004 0.34888339409 0.34887583947 0.3488681142 0.34886010015 0.3488519742 0.34884355003 0.34883495643 0.34882615965 
0.34881716342 0.34880797097 0.34879858567 0.34878893875 0.34877917877 0.34876923895 0.3487591043 0.34874880072 0.34873832505 
0.3486185766 0.3486142831 0.34860975951 0.34860500365 0.34860005387 0.348594764 0.34858927604 0.34858352537 0.34857751497 
0.34857123207 0.34856475982 0.34855803447 0.34855107183 0.34854388463 0.34853646699 0.34852882308 0.34852097245 0.34851286192 
0.34850454793 0.34849605584 0.34848733358 0.34847840322 0.34846926787 0.34845992374 0.34845040218 0.34844058796 0.34843065539 
0.34842054733 0.34841024892 0.34839975806 0.34831486984 0.3483107627 0.34830641581 0.34830184154 0.3482970082 0.34829200978 
0.34828663376 0.34828106473 0.34827522048 0.34826910627 0.34826279554 0.34825623012 0.34824941363 0.34824238864 0.34823510056 
0.34822760707 0.34821986575 0.34821179396 0.34820360812 0.34819514416 0.34818650079 0.34817765813 0.34816858357 0.34815929824 
0.34814982009 0.34814003813 0.34813013251 0.34812004077 0.34810972732 0.34809924452 0.34804932135 0.34804548995 0.34804131561 
0.34803693411 0.34803226413 0.34802744463 0.34802226983 0.34801686007 0.34801119249 0.34800525496 0.34799908849 0.34799266461 
0.34798599407 0.34797913747 0.34797193735 0.34796459962 0.34795691541 0.34794907454 0.34794099075 0.34793265245 0.34792399306 
0.34791520057 0.34790619056 0.34789696008 0.34788754453 0.34787779715 0.34786792019 0.34785784426 0.34784754314 0.34783706581 
0.34782225115 0.34781863337 0.34781467077 0.34781050487 0.34780606952 0.34780137438 0.34779639238 0.34779118174 0.34778568457 
0.34777991103 0.34777391031 0.3477676396 0.34776111939 0.34775438139 0.34774734059 0.34774008443 0.34773257536 0.34772483464 
0.34771683295 0.347708607 0.34770013094 0.34769138757 0.34768243752 0.34767324365 0.34766385908 0.34765419785 0.34764428703 
0.34763423098 0.34762393809 0.34761348699 0.34763393953 0.34763049234 0.34762682671 0.3476227795 0.34761854646 0.34761409217 
0.3476093149 0.3476042258 0.34759891805 0.347593319 0.34758747585 0.34758137673 0.34757501328 0.34756839347 0.34756153437 
0.34755439085 0.34754699917 0.3475393043 0.34753145857 0.34752335037 0.34751495509 0.34750632307 0.34749741833 0.34748831975 
0.34747896297 0.34746938107 0.3474594685 0.34744941982 0.34743918586 0.34742872399 0.34748449465 0.34748132191 0.34747782059 
0.34747400932 0.34746997071 0.3474656563 0.34746113312 0.34745627985 0.34745114391 0.34744568986 0.34744001759 0.34743408126 
0.34742787403 0.34742140534 0.34741468633 0.34740769042 0.34740037554 0.34739283266 0.34738504542 0.34737705617 0.34736877498 
0.34736023449 0.34735143222 0.34734236812 0.34733307021 0.34732353579 0.34731375425 0.34730367076 0.3472934258 0.34728294988 
0.34737428384 0.34737130459 0.34736798732 0.34736439384 0.34736058458 0.34735647029 0.34735213963 0.34734747859 0.34734254758 
0.34733730651 0.34733178052 0.34732598923 0.34731993962 0.34731362225 0.34730704922 0.34730018972 0.34729301197 0.34728554437 
0.34727786492 0.34726992313 0.34726178993 0.34725331211 0.3472445841 0.34723562946 0.34722636598 0.3472168798 0.34720714967 
0.34719707822 0.34718684471 0.34717638148 0.34730328988 0.3473005303 0.34729749054 0.34729412827 0.34729044197 0.3472865426 
0.34728240097 0.34727793635 0.34727316293 0.34726815833 0.34726281206 0.34725720542 0.347251302 0.3472451209 0.34723869583 
0.34723197525 0.3472249302 0.34721759539 0.34721005512 0.34720221669 0.34719417536 0.34718579267 0.3471771317 0.34716822381 