# vtk DataFile Version 5.1
vtk output
ASCII
DATASET STRUCTURED_POINTS
DIMENSIONS 26 14 26
SPACING 0.08 0.08 0.08
ORIGIN 2.7 -0.52 0
POINT_DATA 9464
FIELD FieldData 3
potential 1 9464 double
0.40672692133 0.40675093813 0.40684105856 0.40688357513 0.40677821787 0.40644738462 0.40587530434 0.40508905457 0.40417734248 
0.40333433971 0.40274444735 0.40246568862 0.40240576689 0.40238529972 0.40235365257 0.40244726987 0.40276407479 0.40319427069 
0.40352166935 0.40368298914 0.40361812525 0.40325370407 0.40276415426 0.40218926174 0.4013971157 0.40064776689 0.22529252103 
0.22521698678 0.22516392168 0.22507980787 0.22491346347 0.22463008495 0.22422054667 0.22370893079 0.22315004278 0.22262935755 
0.22222325142 0.22196110937 0.22181704746 0.22174138579 0.2217150913 0.221760335 0.22188757381 0.222052088 0.22217895942 
0.22221359469 0.22212154847 0.22189565332 0.22157184611 0.22117895883 0.22074308921 0.22036197532 0.089197315133 0.089078116351 
0.088964394588 0.088829604535 0.088647780526 0.088402180374 0.088090298529 0.087727833006 0.087346408156 0.086986470433 0.086684708588 
0.086458508483 0.086303050395 0.086203825418 0.086150988641 0.086142957188 0.086172655015 0.086216093688 0.086239337241 0.086211224505 
0.086114263645 0.085944328668 0.085716094664 0.085449488052 0.085174963137 0.084939299002 0.0028221900448 0.0026830836381 0.0025434533203 
0.0023901205336 0.0022096212094 0.0019942269092 0.0017441830966 0.0014685131664 0.001185480862 0.00091572880828 0.00067840454034 0.00048426354988 
0.0003343711018 0.00022377350516 0.00014801553807 0.00010105387466 7.4442812719e-05 5.4269458249e-05 2.2140762611e-05 -3.7882734812e-05 -0.00013705819733 
-0.00027686234123 -0.00045064709524 -0.00064368374555 -0.00083688125549 -0.0010069648869 -0.055308819737 -0.055457073452 -0.055606786224 -0.055765292252 
-0.055938717569 -0.05613104029 -0.056340961414 -0.05656257458 -0.056786339505 -0.057000614439 -0.057195996939 -0.057365532819 -0.057507084901 
-0.057622746591 -0.057715192129 -0.057788639231 -0.057849087664 -0.057906054545 -0.057968885891 -0.058047014796 -0.058146859612 -0.058269564446 
-0.058411567946 -0.058563918818 -0.058715010717 -0.058852225286 -0.091505133716 -0.091657292722 -0.091810810759 -0.091969172554 -0.092135210417 
-0.092309796952 -0.092491879926 -0.09267803917 -0.092862902864 -0.093040830499 -0.093206810961 -0.093357427402 -0.093491709656 -0.093610151931 
-0.093713770047 -0.093805584555 -0.093888540833 -0.093967660097 -0.094049022461 -0.094137507668 -0.094237848572 -0.09435053622 -0.094473678285 
-0.094603518599 -0.09473227766 -0.094853028458 -0.10851334178 -0.10866605563 -0.10882000662 -0.10897598604 -0.10913437393 -0.10929464166 
-0.10945565943 -0.10961540087 -0.10977133155 -0.10992146213 -0.11006440328 -0.11019961426 -0.11032751455 -0.11044755952 -0.11056014101 
-0.11066549214 -0.11076435685 -0.11085818785 -0.1109507679 -0.11104495942 -0.11114433266 -0.11125027144 -0.11136302629 -0.11147962689 
-0.11159647611 -0.11170915618 -0.10767015647 -0.10783048362 -0.10799142022 -0.10815197562 -0.10831065741 -0.10846539954 -0.10861486352 
-0.10875732905 -0.10889314835 -0.10902298071 -0.10914916411 -0.10927407815 -0.10939990306 -0.10952655076 -0.10965242746 -0.10977519357 
-0.10989136233 -0.11000019342 -0.11010310348 -0.1102029143 -0.1103031296 -0.11040718505 -0.1105161467 -0.11062901839 -0.11074306057 
-0.11085511087 -0.089099656066 -0.089268580313 -0.089438339633 -0.089605951724 -0.089767897685 -0.089920297978 -0.090060119927 -0.090186725553 
-0.090301402115 -0.090408565566 -0.090515410622 -0.090628472323 -0.090752316996 -0.090887937511 -0.091031167613 -0.091174751362 -0.091310178269 
-0.091433239913 -0.091543068624 -0.091643882951 -0.091741717833 -0.091842657191 -0.091949672439 -0.092062473505 -0.092178667502 -0.09229386312 
-0.051593934821 -0.051776155991 -0.051960716875 -0.05214351309 -0.052316492035 -0.052472160782 -0.052605445486 -0.052714845835 -0.052803867585 
-0.052881569169 -0.052960679463 -0.053056366376 -0.053179183122 -0.053330926858 -0.053503346129 -0.053680268074 -0.053844492342 -0.05398399289 
-0.05409698827 -0.054191385041 -0.054281001211 -0.054375879255 -0.054482346518 -0.054600418951 -0.054724756413 -0.054848867375 0.007651776351 
0.0074491673742 0.0072379396301 0.007026734993 0.0068296376117 0.0066608984421 0.006531002436 0.0064423025408 0.0063897213827 0.0063592735976 
0.0063266118726 0.0062615489615 0.0061410747443 0.0059590178531 0.0057326243323 0.0054949838276 0.0052830343855 0.005122298527 0.0050149067527 
0.0049408561844 0.004873819733 0.0047907331149 0.0046832438713 0.0045524348493 0.0044086123304 0.0042654931898 0.094977189895 0.094745265046 
0.094489969442 0.094224458882 0.093977453046 0.09377913751 0.093646316954 0.093584034055 0.093587516387 0.093639320432 0.093695178838 
0.093692797763 0.093578584946 0.093338655164 0.093004840595 0.092647370453 0.092347038872 0.092155861053 0.092075763145 0.092058691601 
0.092040895217 0.091979729886 0.091865442424 0.091706517976 0.091518365739 0.09133132504 0.23161340659 0.23134879892 0.2310199918 
0.23064498706 0.23029607977 0.23003702504 0.22989461398 0.22986710901 0.22995775079 0.23016141048 0.23040560195 0.23054646192 
0.2304575147 0.23010393286 0.22954931522 0.2289422905 0.22846366218 0.22823356186 0.22824688945 0.22838252382 0.22847763441 
0.22844869744 0.22831515351 0.2281045771 0.22782462297 0.22753565227 0.41318232026 0.4129375499 0.41247682479 0.41184677247 
0.41127319876 0.41089958162 0.41075098269 0.41076350227 0.41095746886 0.4114515976 0.41214054866 0.41263810257 0.41261968336 
0.41203007367 0.41099139893 0.40980644279 0.40893276047 0.40865076677 0.40894368947 0.40950360623 0.40985422442 0.40981500479 
0.40961520969 0.40934205998 0.40885987202 0.40829424354 0.41355750531 0.41355783144 0.41361155576 0.4136218673 0.4135011065 
0.41318357345 0.41265535961 0.411943207 0.41112901934 0.4103750287 0.40983578895 0.40956170564 0.40947783614 0.40944292942 
0.40941752915 0.40950377932 0.40977219849 0.41013029364 0.41040507878 0.4105302589 0.41045292668 0.41012793165 0.40968201569 
0.40915061816 0.4084610155 0.40782232075 0.28808841542 0.28800645016 0.28794318638 0.28785051699 0.28768222338 0.28740688294 
0.28701678613 0.28653463376 0.28601096721 0.28552222148 0.28513690608 0.28488180545 0.28473571302 0.28465651846 0.28462714684 
0.28466451802 0.2847744802 0.28491654351 0.28502396873 0.28504672789 0.2849535308 0.28473888971 0.28443379187 0.28406551145 
0.28366315674 0.2833134499 0.18016485593 0.18004427056 0.17992797104 0.17979151374 0.17961079165 0.17937036494 0.17906830353 
0.17871931659 0.17835311669 0.17800722833 0.17771554198 0.17749464578 0.17734031117 0.17724032202 0.17718514254 0.17717282359 
0.17719525253 0.17723010488 0.17724590487 0.17721351708 0.17711672318 0.17695187583 0.17673242874 0.17647746962 0.17621622998 
0.17599182605 0.1004487769 0.10030988877 0.10017015235 0.10001731827 0.099838445498 0.099626510609 0.099381858599 0.099113257785 
0.098837705496 0.098574998438 0.098343007964 0.09815226422 0.098003979744 0.09789350008 0.097816798815 0.097767797962 0.097737892893 
0.097714180046 0.097679075895 0.097617471914 0.097518954741 0.097381661243 0.09721233239 0.097024976947 0.096837634377 0.096672476281 
0.045041295392 0.044893876408 0.044744835461 0.044587360498 0.044415510917 0.044225639005 0.044018976088 0.043801264953 0.043581637555 
0.043371204506 0.043178992381 0.043011515599 0.042871112387 0.042756082234 0.042663372412 0.042589065546 0.042527329905 0.042468941122 
0.042404930461 0.042326305321 0.042226944529 0.042105745997 0.041966120749 0.041816746095 0.041668510903 0.041533643228 0.010132395325 
0.0099810956928 0.0098284326078 0.0096710757303 0.0095063999231 0.0093332988259 0.0091531902049 0.0089692590386 0.0087865816951 0.0086107304557 
0.0084464616999 0.0082971407343 0.0081636631424 0.0080456090571 0.007941994298 0.0078499432101 0.0077663336019 0.0076866025966 0.0076046990215 
0.0075158869709 0.0074159068087 0.0073039420608 0.0071819258871 0.0070535237775 0.0069261602323 0.0068065027781 -0.0064382859092 -0.0065924589003 
-0.0067476247145 -0.0069046456942 -0.0070638298262 -0.0072246864992 -0.0073861266122 -0.0075461857383 -0.0077023874491 -0.0078529235457 -0.0079963517689 
-0.0081320256349 -0.008260656389 -0.008381479327 -0.0084949238245 -0.0086012285665 -0.0087011207918 -0.0087961501989 -0.008889822807 -0.0089850688636 
-0.00908499034 -0.0091917208442 -0.0093046250697 -0.0094212627002 -0.0095381238864 -0.0096509285395 -0.0056830859946 -0.0058421568808 -0.0060018148302 
-0.0061610650498 -0.0063184765244 -0.0064720454525 -0.0066204729586 -0.0067620009324 -0.0068972571452 -0.0070265857906 -0.0071522762377 -0.007276753272 
-0.0074018321056 -0.0075276388749 -0.007652678792 -0.0077744365681 -0.0078898894614 -0.0079982400695 -0.0081007038502 -0.0082003742327 -0.0083004918203 
-0.0084041895061 -0.008512499078 -0.0086246121267 -0.0087378441148 -0.008849153727 0.012337159156 0.01217002894 0.012002149102 0.011836384433 
0.011676199213 0.01152523253 0.01138641921 0.011260428058 0.011145810315 0.011038475294 0.010931530886 0.010818607846 0.010695658849 
0.010561391565 0.010420021686 0.010278287957 0.010144463202 0.010022646397 0.0099133442318 0.0098127092978 0.0097149872031 0.0096143928562 
0.0095079770907 0.0093960242235 0.0092809591965 0.0091667175368 0.048556030325 0.048376266767 0.048194348244 0.048014508859 0.04784412488 
0.047690366299 0.047558153102 0.047448767072 0.04735888368 0.047279847216 0.047198974019 0.047102936235 0.046980863372 0.046831477637 
0.0466626445 0.046489511147 0.046328382046 0.046190771893 0.046077991346 0.045983150015 0.045893224527 0.04579824813 0.045692443711 
0.04557571427 0.045452991046 0.045330492878 0.10510363282 0.10490453167 0.10469801323 0.10449168791 0.10429908556 0.10413349267 
0.10400490793 0.10391513986 0.10386004067 0.10382532816 0.10378824635 0.10372046002 0.10360062554 0.10342307162 0.10320402376 
0.10297434922 0.10276861843 0.10261076947 0.10250281797 0.10242649083 0.10235710685 0.10227315997 0.10216660137 0.10203829781 
0.10189748868 0.10175752624 0.18582038127 0.18559404266 0.18534686796 0.18509114733 0.18485331511 0.18466112163 0.18453035166 
0.18446603108 0.18446294416 0.18450383672 0.18454732677 0.18453629105 0.18442183915 0.18419150379 0.18387472135 0.18353599321 
0.18324973335 0.18306333219 0.18297890557 0.18295291275 0.18292827541 0.18286458764 0.18275241217 0.18259851076 0.18241778496 
0.18223819759 0.29441493835 0.29415744724 0.29384486403 0.29349373199 0.293166805 0.29292109517 0.29278202027 0.29275018667 
0.2928270052 0.29300324632 0.29321119831 0.29332431266 0.29323127411 0.29290106897 0.29239081717 0.29183392405 0.29139116137 
0.29116915374 0.29116372519 0.2912687891 0.29134286295 0.29131046539 0.29118270195 0.2909829285 0.29072204892 0.290454848 
0.42025927025 0.42000686243 0.41958630108 0.41903179641 0.41852159387 0.41817899234 0.41803140497 0.41803692833 0.41821121681 
0.41862994661 0.41919446408 0.41959328531 0.41955891552 0.41903504905 0.41812789243 0.41710191676 0.41633664041 0.41606966354 
0.41628642432 0.41672675173 0.41700894024 0.41698318908 0.41680684358 0.41654809424 0.41612260952 0.41563636179 0.42190460105 
0.42186043118 0.42184553982 0.42179584667 0.42165013683 0.42136555542 0.42093265815 0.4203754457 0.41975728552 0.41918247111 
0.41874962395 0.41849322132 0.41837205734 0.41831134795 0.41828884877 0.41834962835 0.41851975357 0.41873925 0.41890666444 
0.41896344503 0.4188719376 0.41862081326 0.41826903932 0.41784572918 0.41735460445 0.41691970168 0.32564252172 0.32554694714 
0.32546191046 0.32535145693 0.32518082259 0.32492633068 0.32458380675 0.32417165299 0.32373044138 0.32331685041 0.32298150605 
0.32274554242 0.32259748484 0.32251054678 0.3224724765 0.32248936249 0.32255876898 0.32264950229 0.32271266734 0.32270905108 
0.32261476548 0.32242725998 0.3221671063 0.3218580886 0.32153229627 0.32125231934 0.24125200205 0.24112810366 0.24100631565 
0.24086647102 0.24068954387 0.24046291516 0.24018649276 0.23987210827 0.23954458255 0.2392343376 0.23896855056 0.23876146821 
0.23861112981 0.23850955337 0.23844861585 0.23842468619 0.23842889183 0.23844257748 0.23843970433 0.23839736845 0.23830159767 
0.23814972988 0.23795275603 0.23772723111 0.23749901812 0.23730222857 0.17409172637 0.17395359109 0.1738143416 0.17366294077 
0.17348890947 0.17328669036 0.17305653094 0.17280654676 0.17255103206 0.17230711615 0.17208968509 0.1719081763 0.17176416647 
0.17165417086 0.17157473992 0.17152011999 0.17148209382 0.17144915232 0.17140652232 0.17134101209 0.17124385269 0.1711139588 
0.17095620649 0.17078353744 0.17061187737 0.17045927337 0.12517011538 0.1250250906 0.12487816102 0.12472366013 0.1245564337 
0.12437332538 0.12417581878 0.1239688131 0.12376042775 0.12356044016 0.12337702779 0.12321572222 0.12307880613 0.12296510663 
0.12287172328 0.12279533232 0.12273004732 0.12266795673 0.12260094918 0.12252117365 0.12242316917 0.12230605445 0.12217306982 
0.12203151434 0.12189095966 0.1217627574 0.093613251902 0.093464848188 0.093314975145 0.093160811124 0.093000140726 0.092832098475 
0.092657853407 0.092480343527 0.092304272913 0.092134634382 0.091975562801 0.091830169639 0.091699496966 0.091583143536 0.091479992544 
0.091387528622 0.091302992307 0.091222007954 0.091139477109 0.091050297185 0.090951668014 0.090842256929 0.090723867498 0.090599889223 
0.090477130648 0.090360852362 0.078469702047 0.078318611881 0.078166575102 0.078012854064 0.077857233184 0.077700176558 0.077542770069 
0.07738670958 0.077234460408 0.077087501564 0.076947128243 0.076813967276 0.076687870018 0.076568717491 0.076456580389 0.076351246795 
0.076252157813 0.076157110213 0.076063638309 0.075968699813 0.075869705243 0.075764654752 0.075653915201 0.07554025009 0.075426047511 
0.075315612148 0.079198448964 0.079043263059 0.078887553885 0.078732281167 0.078578821691 0.078428804734 0.078283877391 0.078144537791 
0.078011645244 0.077884120508 0.07776026783 0.077637418991 0.077514434253 0.077391186566 0.077268983409 0.07715043064 0.077037059281 
0.076930373568 0.07682889686 0.076729904927 0.076630733764 0.076528333202 0.076422018354 0.076312162776 0.076201225408 0.076092337989 
0.09576682376 0.095604760278 0.095442197226 0.095281513234 0.095126304854 0.094979246998 0.094843242018 0.094718927729 0.094604857482 
0.094497062665 0.094390162261 0.094278057571 0.094157173745 0.094026791883 0.093890469202 0.093754125358 0.093624725706 0.093505907895 
0.093398138979 0.093298133296 0.093201016332 0.093101218001 0.092996704093 0.092887247018 0.092774932304 0.092663633021 0.12866118135 
0.12848834082 0.12831385093 0.1281419004 0.1279784252 0.12782985937 0.12770061056 0.12759144818 0.1274993151 0.12741641116 
0.12733199678 0.127234499 0.127114743 0.12697178471 0.12681216745 0.12664924181 0.12649640089 0.12636377983 0.12625238976 
0.12615655863 0.12606539104 0.12597056561 0.12586667208 0.12575352348 0.1256350793 0.12551656705 0.17879623952 0.17860711034 
0.1784127095 0.17821937381 0.17803827367 0.17788131411 0.17775611764 0.17766440584 0.17760225526 0.17755655222 0.17750831015 
0.17743377344 0.17731590742 0.17715014139 0.17695003321 0.17674101135 0.17655159149 0.17640143156 0.17629251805 0.17621066264 
0.17613552449 0.17604984748 0.17594564206 0.17582349463 0.17569104024 0.17555875498 0.2470837658 0.2468723027 0.24664583026 
0.24641486117 0.24620007856 0.24602321845 0.24589789281 0.2458279834 0.24580824215 0.24582245636 0.24583609068 0.245804287 
0.24569002384 0.24548359238 0.24520898595 0.24491662467 0.24466461654 0.2444906759 0.24439712193 0.24435123483 0.2443095718 
0.24423973722 0.24413220763 0.24399062296 0.243828296 0.24366671516 0.33235514334 0.33211787632 0.33184414225 0.33154782436 
0.33127181094 0.33105776807 0.33092739295 0.33088507116 0.33092793442 0.33104037399 0.33116767001 0.3312201836 0.33111938586 
0.33084297524 0.33043395759 0.32999090013 0.32963050297 0.32942872707 0.32938424301 0.32942416762 0.32945081538 0.32940761283 
0.32929177649 0.32911798269 0.32890084311 0.32868152632 0.42930473069 0.4290556781 0.4287166358 0.42830655744 0.42792339231 
0.42764854124 0.4275103059 0.42749813609 0.42761798698 0.42788342002 0.42821483489 0.42842862379 0.42836215216 0.42796986952 
0.42732495701 0.42660919824 0.42605838085 0.42582618812 0.42590202955 0.42612474667 0.42627492867 0.42625590269 0.42611935384 
0.4259015164 0.42558788457 0.42525005231 0.42586579501 0.4257872888 0.42572045695 0.42562702925 0.42546987677 0.42522455455 
0.42488615732 0.42447433624 0.42403019002 0.42361483586 0.42328249367 0.42305579486 0.42291839368 0.42283954497 0.42280659913 
0.42283087759 0.42291313861 0.42301824461 0.42309245201 0.42309478495 0.42300233562 0.42281342054 0.42255395711 0.42224722131 
0.42192108006 0.42164158698 0.35092648932 0.35081926358 0.35071537307 0.35059107736 0.35042309876 0.35019619814 0.34990871163 
0.34957513451 0.3492240945 0.34889267872 0.34861420322 0.3484047165 0.34825960003 0.34816637942 0.34811640016 0.34810799247 
0.34813392537 0.34817166025 0.34818948372 0.34816005858 0.34806763454 0.34791015285 0.34770131198 0.34745969061 0.34721303169 
0.34700203185 0.28417089216 0.28404528945 0.28391909593 0.28377815303 0.28360839016 0.28340155498 0.28315775879 0.2828867273 
0.2826071558 0.28234092788 0.28210841696 0.28192021746 0.28177695558 0.28167412767 0.28160634129 0.28156802764 0.28155058541 
0.28153971291 0.28151585337 0.28146256536 0.28136900737 0.28123369133 0.28106431225 0.28087536278 0.28068623167 0.28052132968 
0.22924703388 0.22911122061 0.22897364321 0.22882579918 0.22865962029 0.22847124477 0.22826132416 0.22803653559 0.22780802154 
0.22758908613 0.22739173186 0.22722329007 0.2270858065 0.22697744392 0.22689474878 0.22683297605 0.22678484069 0.2267403356 
0.22668871136 0.22661885408 0.22652456331 0.22640416151 0.22626202567 0.2261089049 0.2259571949 0.22582064629 0.1879523134 
0.18781142034 0.18766855122 0.18751905629 0.18735899446 0.18718614995 0.18700182327 0.18681017904 0.18661793211 0.18643290211 
0.18626206092 0.18610986654 0.18597835503 0.18586703129 0.18577319053 0.18569417668 0.18562436312 0.18555802439 0.18548743699 
0.18540658076 0.18531103799 0.18519987781 0.18507615473 0.18494546493 0.18481600394 0.18469651147 0.16075515289 0.16061157951 
0.16046654761 0.16031779178 0.16016358822 0.1600033662 0.15983808553 0.15967053966 0.15950455399 0.1593443056 0.15919342836 
0.15905411369 0.15892786755 0.15881452763 0.15871261019 0.15862041527 0.15853496884 0.15845279992 0.15836963116 0.15828089819 
0.15818459909 0.1580793966 0.15796647322 0.15784938291 0.15773309831 0.15762236644 0.1475915042 0.14744572364 0.14729908394 
0.14715102945 0.14700142297 0.14685069679 0.14670003907 0.14655076369 0.14640460404 0.146263613 0.14612846034 0.14599979423 
0.14587792483 0.14576204414 0.14565262086 0.14554928372 0.14545154479 0.14535765184 0.14526515428 0.14517151655 0.145074274 
0.1449721773 0.14486565591 0.14475623626 0.14464668495 0.14454039029 0.14832988455 0.14818084724 0.1480315588 0.14788264668 
0.14773536509 0.14759120647 0.14745130405 0.14731675645 0.14718779277 0.14706323422 0.14694195753 0.14682234711 0.14670308592 
0.14658401776 0.14646634129 0.14635212092 0.146242587 0.14613850082 0.14603909851 0.14594165787 0.14584439908 0.14574460152 
0.14564112913 0.14553496498 0.14542799466 0.1453227342 0.16295106726 0.16279670479 0.16264208606 0.16248930795 0.16234132463 
0.16220053909 0.16206905375 0.16194746309 0.16183449818 0.1617269129 0.16162031148 0.16150992512 0.16139265195 0.16126806192 
0.161139101 0.16101062016 0.16088750345 0.16077346641 0.1606682429 0.16056992003 0.16047347997 0.16037553899 0.16027391542 
0.16016811236 0.1600602075 0.15995304602 0.19155198568 0.19138932733 0.1912254868 0.19106481649 0.19091136343 0.19077047313 
0.19064543283 0.19053693128 0.1904422306 0.19035512871 0.19026672343 0.19016788245 0.19005193215 0.18991792435 0.18977115949 
0.18962192132 0.18948081867 0.18935511814 0.18924643714 0.1891498324 0.18905810194 0.18896359904 0.18886257335 0.18875472875 
0.18864238232 0.18852984805 0.23417106812 0.23399624081 0.23381824549 0.23364209607 0.23347698127 0.23333123901 0.23321089615 
0.2331172902 0.23304620949 0.23298753152 0.23292607943 0.23284447302 0.23272987575 0.23257965672 0.23240377085 0.23222129694 
0.23205293713 0.23191362606 0.23180486479 0.23171779214 0.23163628441 0.23154869602 0.23144792626 0.23133394934 0.23121210588 
0.23108979539 0.29039075658 0.29019993643 0.28999998891 0.28979935036 0.28961265633 0.28945488568 0.2893364919 0.28926010042 
0.28922072643 0.28920431903 0.2891847023 0.28913091495 0.28901857948 0.28884089957 0.28861565886 0.28837786989 0.28816682285 
0.28800955567 0.2879084297 0.28784224616 0.28778226537 0.28770561072 0.28760326112 0.28747663471 0.28733531449 0.28719446011 
0.35827541987 0.35806653395 0.3578373334 0.35759899495 0.35737704141 0.3571986678 0.35707956365 0.35702453295 0.35702831944 
0.35707426525 0.35712259212 0.35711793326 0.35701238894 0.35679329517 0.35648896965 0.35616285655 0.35588788002 0.35571123695 
0.35563445707 0.35561468272 0.35559497492 0.35553733712 0.35543264137 0.35528747593 0.35511514801 0.35494284484 0.43425679669 
0.43403490056 0.43377194179 0.4334808647 0.43320812487 0.43299928918 0.4328770932 0.43284481623 0.43289989329 0.4330296648 
0.43317834145 0.43325029289 0.43316035769 0.43288308619 0.43246210626 0.43200399655 0.43163552969 0.43144093712 0.43141599103 
0.43147892741 0.43152170661 0.43148689706 0.43137687758 0.43120708726 0.4309883792 0.43076436025 0.42643771417 0.4263421956 
0.42624847223 0.42613466109 0.42598018033 0.42577142713 0.4255075755 0.42520169755 0.42487994011 0.42457607891 0.42431969294 
0.4241261368 0.42399092793 0.42390299378 0.42385496847 0.42384576049 0.42386775146 0.42390003534 0.42391320241 0.42388292475 
0.42379581802 0.42365095625 0.42346098719 0.42324390254 0.42302358506 0.42283512009 0.36779585939 0.36768332018 0.36756967858 
0.36744062203 0.36728095747 0.36708249146 0.36684539344 0.36657932052 0.36630381991 0.36604183594 0.365814276 0.36563185977 
0.36549539342 0.36539929104 0.36533795656 0.36530686373 0.36529758721 0.36529470002 0.3652783324 0.36523096673 0.36514256939 
0.36501147017 0.36484670766 0.36466214481 0.36447709928 0.36431680704 0.31489056376 0.31476633207 0.31463985268 0.31450158648 
0.31434225466 0.31415690952 0.31394616683 0.31371748162 0.31348362028 0.31325994817 0.31305999772 0.3128923893 0.31275877914 
0.31265658095 0.31258236022 0.31253101219 0.31249440519 0.31246216927 0.31242096905 0.31235909258 0.31226905638 0.31215048027 
0.31200778088 0.31185236288 0.3116980748 0.31156104395 0.27054513824 0.2704138712 0.27028018317 0.27013806972 0.2699823804 
0.26981005149 0.26962236235 0.26942430049 0.26922411022 0.2690317603 0.26885582316 0.2687021583 0.26857286677 0.26846730583 
0.26838211644 0.26831383201 0.26825639606 0.2682018201 0.26814190145 0.268068925 0.26797791 0.26786796362 0.26774249128 
0.26760898354 0.26747679053 0.26735618715 0.23655868653 0.23642365564 0.2362866361 0.23614410505 0.23599322492 0.23583283237 
0.23566387069 0.23548967666 0.23531558348 0.23514761433 0.23499101701 0.23484969499 0.23472510579 0.23461707688 0.23452385551 
0.23444247358 0.23436904209 0.23429836694 0.23422480134 0.23414360568 0.2340512236 0.2339474439 0.23383407146 0.23371524423 
0.23359766455 0.23348739074 0.21385931225 0.21372228646 0.21358380289 0.21344228313 0.21329642083 0.21314598914 0.21299184808 
0.21283622606 0.21268219342 0.21253323868 0.21239213865 0.21226094646 0.21214032404 0.2120307435 0.21193102274 0.21183973203 
0.21175419764 0.2116715203 0.211587942 0.21150063835 0.21140743961 0.21130716029 0.21120129062 0.21109196603 0.21098348783 
0.21087916733 0.20283427495 0.20269551165 0.20255604515 0.20241541439 0.20227358979 0.20213102962 0.20198870488 0.20184787356 
0.20171008045 0.20157644122 0.20144807415 0.20132535858 0.20120836003 0.20109708523 0.20099142574 0.20089097242 0.20079554199 
0.20070345715 0.20061281055 0.20052107642 0.20042674274 0.20032863814 0.2002270316 0.20012320763 0.20001959817 0.19991823091 
0.2036029497 0.20346188671 0.20332061444 0.2031798124 0.20304044313 0.20290355882 0.20277063512 0.20264196271 0.20251787545 
0.20239783805 0.20228069093 0.20216552111 0.20205098084 0.20193736553 0.20182556897 0.20171640489 0.20161162106 0.20151131505 
0.20141476847 0.20132001114 0.20122499883 0.20112850591 0.20102925496 0.20092793654 0.20082588438 0.20072517133 0.21615505691 
0.21601022931 0.21586535672 0.21572222884 0.21558312505 0.21544998799 0.21532416672 0.21520664553 0.21509578277 0.21498939626 
0.21488427126 0.21477654559 0.21466393797 0.21454651532 0.21442603044 0.21430621127 0.21419108282 0.21408282983 0.21398102081 
0.21388476838 0.2137905758 0.21369507932 0.21359686756 0.21349600896 0.2133935955 0.21329156012 0.24035284016 0.24020210494 
0.24005104111 0.23990296387 0.2397610744 0.23962909409 0.23950944674 0.23940258214 0.23930632336 0.23921600902 0.23912459478 
0.23902552523 0.23891452966 0.23879059721 0.23865781789 0.23852334981 0.23839492567 0.23827759706 0.23817259355 0.23807681819 
0.23798520972 0.23789198539 0.23779474621 0.23769242481 0.23758687338 0.23748128956 0.2757968556 0.27563805986 0.27547791786 
0.2753204711 0.27517179149 0.27503812325 0.27492341489 0.27482865409 0.27475013535 0.27468026422 0.27460763035 0.27452100912 
0.27441102626 0.27427677684 0.27412490048 0.27396862232 0.27382171935 0.27369431107 0.27358788684 0.27349748061 0.27341204057 
0.27332341329 0.27322651122 0.27312073853 0.27300943915 0.27289727056 0.32162236464 0.32145338426 0.32128021263 0.32110847536 
0.32094788472 0.32080868054 0.32069755622 0.32061588568 0.32055971396 0.32051715249 0.3204712882 0.32040157764 0.32029305838 
0.32014223401 0.31996066935 0.31977073105 0.31959726938 0.31945750318 0.31935361626 0.31927359377 0.31920016597 0.31911832029 
0.31902091193 0.31890782714 0.31878519152 0.31866204548 0.3759103993 0.37573106082 0.3755417458 0.37535082627 0.37517309019 
0.37502457627 0.37491612256 0.37485012521 0.37482167881 0.37481670796 0.37480875091 0.3747653747 0.37466090745 0.37448773225 
0.37426467042 0.37402808023 0.37382009623 0.3736681802 0.37357492318 0.37351731585 0.37346570648 0.37339585996 0.37329894511 
0.37317682312 0.37303878157 0.37290075306 0.4359337001 0.43574679663 0.43554211344 0.43532927054 0.43513060263 0.43497025076 
0.43486318266 0.43481368157 0.43481630913 0.43485577185 0.4348959633 0.43488813365 0.43479029549 0.43459084107 0.43431500894 
0.43401943067 0.43376944137 0.43360777591 0.43353476932 0.43351261594 0.43349123087 0.43343626035 0.43334004361 0.43320704817 
0.43304947928 0.43289073801 0.42483465196 0.42473417933 0.42463088528 0.42451317209 0.42436890006 0.42419172552 0.42398212653 
0.42374858885 0.4235073434 0.42327712354 0.42307511372 0.42291081528 0.4227853627 0.42269496772 0.42263497345 0.42260120437 
0.42258588943 0.42257562262 0.42255395775 0.42250654788 0.42242548862 0.42231014213 0.42216729736 0.4220093893 0.42185220457 
0.42171431019 0.37877387593 0.3786620781 0.37854725114 0.37842051912 0.37827330578 0.37810121724 0.3779047578 0.37769114643 
0.37747251158 0.37726311705 0.37707606363 0.37691861713 0.37679316365 0.37669737677 0.37662806902 0.37658034867 0.37654659573 
0.37651701468 0.3764787995 0.376421194 0.37633771342 0.37622766468 0.37609583735 0.37595248197 0.375810322 0.37568386426 
0.33686136461 0.33674154436 0.3366188291 0.33648666365 0.33634009175 0.33617574481 0.33599473961 0.33580238017 0.33560727504 
0.33541978792 0.33524882596 0.33510057359 0.33497725861 0.33487781862 0.33479955689 0.33473812772 0.33468782872 0.3346401655 
0.33458702682 0.3345202682 0.33443489112 0.33433029091 0.33420985765 0.33408162393 0.33395465774 0.33383900595 0.30133144421 
0.30120664204 0.30107921711 0.30094519844 0.30080118097 0.30064551947 0.30047929837 0.30030632906 0.3001325281 0.29996470894 
0.29980928275 0.29967052142 0.29955032315 0.29944828112 0.2993623787 0.29928952307 0.29922510686 0.29916303361 0.2990974556 
0.29902302796 0.29893584874 0.29883593737 0.29872545824 0.29860934188 0.29849437514 0.29838754826 0.27378936789 0.27366172677 
0.27353209118 0.27339809882 0.27325791063 0.27311068962 0.27295751127 0.27280095684 0.27264495142 0.27249398748 0.27235212999 
0.27222185329 0.27210511859 0.27200153906 0.27190964819 0.27182738042 0.27175155535 0.27167814067 0.27160302428 0.27152230737 
0.27143415388 0.27133752288 0.27123394944 0.27112680359 0.27102054753 0.27091946069 0.25524865933 0.25511940442 0.25498885991 
0.25485583768 0.25471957418 0.25457996033 0.254437868 0.2542950387 0.25415363307 0.25401662952 0.25388614862 0.25376366981 
0.25364999792 0.25354500152 0.25344835744 0.25335867824 0.25327381755 0.25319153552 0.25310881201 0.25302364924 0.2529339678 
0.25283923387 0.25274051914 0.25263951196 0.25253871283 0.25244128401 0.24626539117 0.24613489607 0.2460037827 0.24587175038 
0.24573891099 0.24560560371 0.24547272149 0.24534123392 0.24521244106 0.24508722675 0.24496650335 0.24485060527 0.24473966067 
0.24463368015 0.24453264652 0.24443622871 0.24434373348 0.24425411544 0.24416586195 0.24407697332 0.24398616612 0.24389270268 
0.24379656956 0.24369901398 0.24360156655 0.24350564464 0.24707551056 0.24694349317 0.24681134057 0.2466796766 0.24654922136 
0.24642092078 0.24629563869 0.24617393651 0.24605605642 0.24594153008 0.24582964131 0.24571968559 0.24561102425 0.24550348236 
0.24539784161 0.24529481996 0.24519534196 0.24509915062 0.24500615502 0.24491487309 0.24482322081 0.24473058976 0.24463581492 
0.24453999138 0.24444347923 0.24434790764 0.25767529115 0.25754084358 0.25740667548 0.25727396822 0.25714459066 0.25701996682 
0.2569010556 0.25678826366 0.25668105546 0.2565771865 0.25647437852 0.25637031237 0.25626332467 0.25615341295 0.25604178953 
0.25593123785 0.25582410176 0.25572200282 0.25562497345 0.25553173019 0.25544040336 0.25534859576 0.25525454824 0.25515865002 
0.25506178612 0.25496525786 0.27782309309 0.27768517219 0.27754733111 0.27741189193 0.27728176824 0.27715918504 0.2770458568 