# vtk DataFile Version 5.1
vtk output
ASCII
DATASET STRUCTURED_POINTS
DIMENSIONS 26 14 26
SPACING 0.08 0.08 0.08
ORIGIN 2.7 -0.52 0
POINT_DATA 9464
FIELD FieldData 1
potential 1 9464 double
-0.00088698961192 -0.0008891966475 -0.00089087275893 -0.0008920318966 -0.00089267559468 -0.00089285108377 -0.00089256777798 -0.00089186476383 -0.00089079759247 
-0.00088946371615 -0.00088799019145 -0.00088648640252 -0.00088502648628 -0.00088364192922 -0.00088235402547 -0.00088114528383 -0.00088002597121 -0.00087899652595 
-0.00087804654197 -0.00087720582645 -0.00087646811268 -0.00087584381171 -0.0008753396039 -0.000874966309 -0.00087473165981 -0.00087463938049 -0.0013143903724 
-0.0013175844192 -0.0013202838864 -0.0013225079187 -0.0013242754726 -0.0013255965113 -0.001326525938 -0.0013270893953 -0.0013273319255 -0.0013273196581 
-0.0013271279676 -0.0013268215359 -0.0013264549722 -0.0013260645318 -0.0013256958052 -0.0013253014968 -0.0013249410371 -0.0013246100336 -0.001324303875 
-0.0013240563914 -0.0013238643289 -0.0013237381236 -0.0013236858739 -0.0013237159749 -0.0013238362158 -0.001324050386 -0.0015879823362 -0.0015918421764 
-0.0015952300333 -0.0015981693902 -0.0016006806238 -0.0016027750505 -0.0016045074887 -0.0016058994784 -0.0016069893252 -0.0016078233965 -0.0016084531851 
-0.0016089271753 -0.0016092830123 -0.0016095553918 -0.0016097677068 -0.0016099622952 -0.0016100934968 -0.0016102205765 -0.0016103304581 -0.0016104596391 
-0.0016106060163 -0.0016107790219 -0.0016109906893 -0.0016112450012 -0.0016115508391 -0.0016119121848 -0.0016650713088 -0.0016692978961 -0.0016730740679 
-0.001676416861 -0.0016793519997 -0.0016818892274 -0.001684082346 -0.0016859469823 -0.0016875174452 -0.0016888291232 -0.0016899210432 -0.0016908304316 
-0.0016915866716 -0.0016922210962 -0.0016927561057 -0.0016932365545 -0.0016936155796 -0.0016939560233 -0.0016942588683 -0.0016945235711 -0.0016947870221 
-0.0016950462753 -0.0016953119148 -0.0016955907259 -0.0016958887581 -0.0016962112515 -0.0016159617385 -0.0016202207238 -0.0016240424639 -0.0016274440509 
-0.0016304509158 -0.0016330861229 -0.0016353591113 -0.0016373249891 -0.0016389982128 -0.0016404095935 -0.0016415892662 -0.0016425680265 -0.0016433702906 
-0.0016440220439 -0.0016445465646 -0.0016449619719 -0.001645311367 -0.0016455442572 -0.0016457241046 -0.0016458386086 -0.0016459256612 -0.0016459822418 
-0.0016460187873 -0.0016460419067 -0.0016460577705 -0.0016460725268 -0.0014319153766 -0.0014356477828 -0.0014389521553 -0.0014418422028 -0.0014443413482 
-0.0014464746674 -0.0014482481306 -0.0014497153777 -0.0014508867221 -0.0014517884956 -0.0014524457537 -0.0014528848709 -0.0014531274531 -0.0014531949159 
-0.0014531097952 -0.0014528888442 -0.0014525766482 -0.0014521309786 -0.0014515825042 -0.0014509538827 -0.0014502710917 -0.0014495311176 -0.001448743132 
-0.0014479173764 -0.0014470560836 -0.0014461674353 -0.00095657609992 -0.00095552852856 -0.00095446066049 -0.00095329517736 -0.00095200518626 -0.00095057736435 
-0.00094899137512 -0.00094727450002 -0.00094542112053 -0.00094343991858 -0.0009413415115 -0.00093914008396 -0.00093684608504 -0.00093447296137 -0.00093203321683 
-0.00092954002374 -0.00092703328461 -0.00092446378056 -0.00092185961939 -0.00091924055465 -0.00091662904516 -0.00091401997716 -0.00091141986777 -0.00090883628439 
-0.00090627127398 -0.00090372988996 -0.00049840425501 -0.00050273547572 -0.00050668997562 -0.00051027108541 -0.0005135048855 -0.00051640931597 -0.00051899355046 
-0.00052130278724 -0.00052334529907 -0.0005251402034 -0.00052670876105 -0.00052806903041 -0.00052923932467 -0.00053023718259 -0.0005310794442 -0.00053178410056 
-0.00053236531079 -0.00053286771753 -0.00053324287328 -0.00053351036517 -0.00053373055992 -0.00053388892774 -0.00053399542699 -0.00053405951456 -0.0005340858968 
-0.0005340818446 -0.00025805622396 -0.00026342464084 -0.0002684154008 -0.00027305112496 -0.00027734072511 -0.00028130366583 -0.00028496395478 -0.00028832076866 
-0.00029142536613 -0.00029427981451 -0.00029690338723 -0.00029931226361 -0.00030152191057 -0.00030355099316 -0.00030541253151 -0.0003071245673 -0.00030870057367 
-0.00031018624735 -0.00031153025359 -0.00031276483494 -0.00031391648982 -0.00031500501996 -0.00031602928009 -0.00031699829816 -0.00031791880814 -0.00031879726389 
-0.00010120333573 -0.00010710497424 -0.00011263501886 -0.00011781990297 -0.00012267380153 -0.00012720703743 -0.00013144221456 -0.00013538087295 -0.00013907125295 
-0.00014251410354 -0.000145725301 -0.00014871931703 -0.00015151407123 -0.00015412218114 -0.00015655794473 -0.00015883572975 -0.00016097128717 -0.00016297598742 
-0.00016489873999 -0.00016667004736 -0.00016835102042 -0.00016996187139 -0.00017150171262 -0.00017297860512 -0.00017440374719 -0.00017577982047 -8.7609778038e-07 
-7.028842868e-06 -1.2823760919e-05 -1.8285197844e-05 -2.3427068876e-05 -2.8260161124e-05 -3.2803878674e-05 -3.705928919e-05 -4.1072022302e-05 -4.4842530184e-05 
-4.838278749e-05 -5.1708522535e-05 -5.4833879862e-05 -5.7770497799e-05 -6.0532295997e-05 -6.3132164726e-05 -6.5585419355e-05 -6.7903312532e-05 -7.0135910948e-05 
-7.2211261283e-05 -7.4203669144e-05 -7.6099793175e-05 -7.7932792435e-05 -7.9700619083e-05 -8.1414756376e-05 -8.3078233449e-05 5.137985624e-05 4.5186079483e-05 
3.9336064312e-05 3.3804784962e-05 2.8583625763e-05 2.3647217281e-05 1.8994305854e-05 1.4606611325e-05 1.048132055e-05 6.5767456434e-06 2.8976064058e-06 
-5.6956260087e-07 -3.8380564649e-06 -6.9177086245e-06 -9.8216044652e-06 -1.2561979185e-05 -1.5153305097e-05 -1.7607665523e-05 -1.9973809304e-05 -2.2180293082e-05 
-2.4302540658e-05 -2.6339208006e-05 -2.8290239921e-05 -3.0189008121e-05 -3.2034872132e-05 -3.3832143972e-05 4.7404083555e-05 4.1358160678e-05 3.5637222213e-05 
3.0221990307e-05 2.5092212805e-05 2.0239435368e-05 1.564658753e-05 1.1311107554e-05 7.2271915641e-06 3.3560837688e-06 -2.9660436347e-07 -3.7422116919e-06 
-6.9918512132e-06 -1.0053682702e-05 -1.2941513551e-05 -1.5664709088e-05 -1.8237888896e-05 -2.0673554488e-05 -2.2984070941e-05 -2.5208497502e-05 -2.7312370799e-05 
-2.933285791e-05 -3.127036254e-05 -3.3161566779e-05 -3.5003480903e-05 -3.6805804915e-05 -4.3702468677e-06 -1.0080739435e-05 -1.5491230958e-05 -2.0617194734e-05 
-2.5477936439e-05 -3.0080430187e-05 -3.444138786e-05 -3.8560408978e-05 -4.2441632699e-05 -4.6119459634e-05 -4.9587987084e-05 -5.2855209859e-05 -5.5932213137e-05 
-5.8823374237e-05 -6.1541852977e-05 -6.4097427188e-05 -6.6501541793e-05 -6.8769111878e-05 -7.0912403391e-05 -7.297251408e-05 -7.4914088007e-05 -7.67770875e-05 
-7.857594747e-05 -8.0313492749e-05 -8.2023487858e-05 -8.3704831763e-05 -0.00082033830113 -0.00082273774595 -0.00082461735338 -0.00082599235215 -0.00082686569072 
-0.00082728606454 -0.00082726412984 -0.00082683916705 -0.00082606373925 -0.00082502551435 -0.00082383510724 -0.00082258847441 -0.00082135613565 -0.00082017223124 
-0.00081906237402 -0.00081801313244 -0.00081703812885 -0.00081614045921 -0.00081531179554 -0.00081458354563 -0.00081395067713 -0.00081342453304 -0.00081301249677 
-0.00081272593103 -0.00081257302532 -0.00081255793979 -0.0010226382237 -0.0010259795487 -0.0010288317099 -0.0010312142768 -0.0010331466102 -0.0010346389679 
-0.0010357462486 -0.0010364934083 -0.0010369234977 -0.0010370988109 -0.0010370896058 -0.0010369561439 -0.0010367508491 -0.0010365098316 -0.0010362796115 
-0.0010360141683 -0.0010357741909 -0.0010355564054 -0.0010353571451 -0.0010352110033 -0.0010351153456 -0.001035081094 -0.0010351167306 -0.0010352309634 
-0.0010354318571 -0.0010357234689 -0.0011853770626 -0.0011893702171 -0.0011928943531 -0.0011959730875 -0.0011986268812 -0.0012008670269 -0.0012027481101 
-0.0012042910767 -0.0012055331077 -0.00120651886 -0.0012072977904 -0.0012079165661 -0.0012084116822 -0.001208817416 -0.0012091572655 -0.0012094739488 
-0.001209722288 -0.0012099620324 -0.0012101805544 -0.0012104147314 -0.0012106627871 -0.0012109344216 -0.0012112418887 -0.0012115893621 -0.0012119858967 
-0.0012124356476 -0.0012440848697 -0.0012484593157 -0.0012523852358 -0.0012558796952 -0.0012589683949 -0.0012616609813 -0.0012640110295 -0.0012660337564 
-0.0012677628322 -0.0012692327938 -0.0012704817164 -0.0012715459585 -0.001272454278 -0.0012732376749 -0.0012739184685 -0.0012745415982 -0.0012750603777 
-0.0012755378587 -0.0012759752384 -0.0012763721745 -0.0012767656899 -0.0012771531111 -0.0012775450397 -0.0012779484209 -0.00127836942 -0.001278813394 
-0.0011983566118 -0.0012028372214 -0.0012068825148 -0.0012105095801 -0.0012137438043 -0.0012166081595 -0.0012191119184 -0.0012213099257 -0.0012232162712 
-0.0012248613126 -0.0012262746963 -0.0012274867666 -0.0012285215893 -0.0012294049301 -0.001230159971 -0.0012308048313 -0.0012313826745 -0.0012318431063 
-0.0012322496975 -0.0012325902642 -0.0012329027998 -0.0012331843868 -0.0012334455556 -0.0012336930049 -0.001233932995 -0.0012341717666 -0.0010448551634 
-0.0010491448944 -0.0010530127309 -0.0010564724459 -0.0010595475022 -0.0010622629808 -0.0010646248204 -0.0010666865785 -0.0010684584384 -0.0010699665645 
-0.0010712358335 -0.0010722924611 -0.0010731579441 -0.0010738536529 -0.0010744021442 -0.0010748202499 -0.001075152675 -0.0010753573411 -0.0010754650835 
-0.0010754987359 -0.0010754844498 -0.0010754193964 -0.0010753129309 -0.0010751754813 -0.0010750094732 -0.0010748236159 -0.00078514050214 -0.00078928399319 
-0.00079302933891 -0.00079638053353 -0.00079936308723 -0.00080200029926 -0.00080429887422 -0.00080630686804 -0.00080803510828 -0.0008095056146 -0.00081074003954 
-0.00081176185858 -0.00081258946768 -0.00081324320116 -0.00081374160385 -0.00081410319744 -0.0008143726578 -0.00081450505431 -0.00081453236632 -0.00081447786049 
-0.0008143671915 -0.00081419817756 -0.00081398002774 -0.00081372279298 -0.00081343082235 -0.00081311131021 -0.00050917219213 -0.00051401893891 -0.00051848367117 
-0.00052256977286 -0.00052630336296 -0.00052970240973 -0.00053277609325 -0.00053556960704 -0.00053809120174 -0.00054035996315 -0.000542397115 -0.00054422068341 
-0.00054584895886 -0.00054729947274 -0.00054858907509 -0.00054973578202 -0.00055075379216 -0.00055168779605 -0.00055248940427 -0.0005531782667 -0.00055381480494 
-0.00055438455749 -0.00055489754845 -0.00055536330294 -0.00055578659911 -0.00055617478324 -0.00030092227573 -0.00030649123782 -0.00031168117273 -0.00031651469126 
-0.00032100068864 -0.0003251586075 -0.00032901242249 -0.00033256127322 -0.00033585637018 -0.00033889972993 -0.00034171057216 -0.00034430502549 -0.00034669851098 
-0.00034890965491 -0.00035095144951 -0.00035284191527 -0.00035459451248 -0.00035625492987 -0.00035777183211 -0.00035917746352 -0.00036049831986 -0.00036175420881 
-0.00036294399293 -0.00036407671126 -0.00036515911336 -0.00036619767432 -0.00015508520564 -0.00016110833218 -0.0001667590314 -0.00017206372254 -0.00017703656695 
-0.00018168787313 -0.00018604022539 -0.00019009508668 -0.00019390083109 -0.00019745801953 -0.00020078255135 -0.00020388886839 -0.00020679486135 -0.00020951312286 
-0.00021205792898 -0.00021444362791 -0.00021668595338 -0.00021879626111 -0.0002208234434 -0.00022269799509 -0.00022448100652 -0.00022619267867 -0.0002278321143 
-0.00022940736848 -0.0002309296384 -0.00023240161254 -5.8678209951e-05 -6.4924327705e-05 -7.0811807812e-05 -7.6364988069e-05 -8.1597779645e-05 -8.652096705e-05 
-9.1153953395e-05 -9.5497802371e-05 -9.9598138568e-05 -0.000103455411 -0.00010708158753 -0.00011049238775 -0.00011370194747 -0.00011672189532 -0.00011956613918 
-0.0001222475574 -0.00012478144977 -0.00012717905176 -0.00012949040666 -0.00013164354432 -0.00013371273664 -0.00013568461971 -0.00013759232605 -0.00013943378799 
-0.00014122047482 -0.00014295541168 -5.0727194364e-06 -1.1349636815e-05 -1.7281842432e-05 -2.2894361967e-05 -2.819581973e-05 -3.3211596644e-05 -3.7942967348e-05 
-4.2408231707e-05 -4.6610220665e-05 -5.059064137e-05 -5.4344793883e-05 -5.7886157281e-05 -6.1228037162e-05 -6.4380274276e-05 -6.7355955197e-05 -7.016731079e-05 
-7.2828802329e-05 -7.5352494486e-05 -7.7787107806e-05 -8.0061171129e-05 -8.2250060568e-05 -8.4352391568e-05 -8.6368066548e-05 -8.8330416479e-05 -9.0238772303e-05 
-9.2097429907e-05 8.9578884483e-06 2.8296507933e-06 -2.9723862968e-06 -8.4675118339e-06 -1.3676002108e-05 -1.8606347348e-05 -2.3275661589e-05 -2.7686557583e-05 
-3.1844885388e-05 -3.5789450409e-05 -3.9514687862e-05 -4.3031976814e-05 -4.6352465956e-05 -4.9484341362e-05 -5.2441427991e-05 -5.523309819e-05 -5.78739666e-05 
-6.0376516006e-05 -6.2753079097e-05 -6.5042668072e-05 -6.7210758728e-05 -6.9294450975e-05 -7.1294078823e-05 -7.3246256712e-05 -7.5147943544e-05 -7.7008806504e-05 
-4.504869477e-06 -1.0304686368e-05 -1.5802823695e-05 -2.1014784686e-05 -2.5959926092e-05 -3.064529249e-05 -3.5087677942e-05 -3.9286774303e-05 -4.3246808428e-05 
-4.7002271132e-05 -5.0547344986e-05 -5.3890101327e-05 -5.7041691377e-05 -6.0006549131e-05 -6.2797874819e-05 -6.5425471352e-05 -6.7900789879e-05 -7.023873045e-05 
-7.2451520504e-05 -7.4580194292e-05 -7.6589307738e-05 -7.851871857e-05 -8.0382747627e-05 -8.2184111499e-05 -8.3956483593e-05 -8.5698707038e-05 -0.00068842299233 
-0.00069134645373 -0.0006937757382 -0.00069572845451 -0.00069721002552 -0.00069827143292 -0.00069892472112 -0.00069920784648 -0.00069916540664 -0.00069886505875 
-0.00069838681701 -0.00069780055835 -0.00069716677658 -0.00069652188033 -0.0006958985407 -0.00069529104661 -0.00069471996864 -0.00069419422388 -0.00069371022481 
-0.00069330313243 -0.00069297087394 -0.00069272705839 -0.00069258079869 -0.00069254481072 -0.00069262844422 -0.00069283699493 -0.0008050017929 -0.00080875713138 
-0.00081203689878 -0.00081486154807 -0.00081725121409 -0.000819216583 -0.00082081216488 -0.0008220608412 -0.00082300061408 -0.00082368480796 -0.00082417211369 
-0.00082451261122 -0.00082475313651 -0.00082492872736 -0.00082508750441 -0.00082518612203 -0.00082528810672 -0.00082539282365 -0.0008254988994 -0.00082564281635 
-0.00082582349666 -0.00082605309676 -0.00082634108389 -0.00082669697646 -0.00082712956484 -0.00082764362535 -0.00089460336578 -0.00089897168973 -0.00090287872551 
-0.00090634836823 -0.00090940121025 -0.00091204837347 -0.00091434371555 -0.00091630653497 -0.00091797106841 -0.00091937764531 -0.00092057064369 -0.0009215921539 
-0.00092247564515 -0.00092325413134 -0.00092395117464 -0.00092461030926 -0.00092518749363 -0.00092574366564 -0.00092626732793 -0.00092679632733 -0.00092732973504 
-0.00092787795065 -0.00092845380843 -0.00092906199073 -0.00092971202052 -0.00093040852606 -0.00092600470619 -0.00093077798272 -0.00093510756798 -0.00093901056805 
-0.00094251257852 -0.00094562293648 -0.0009483945586 -0.00095084152271 -0.00095299577091 -0.00095488957763 -0.00095655850527 -0.00095803660855 -0.00095935094678 
-0.00096053156702 -0.00096160049375 -0.00096260282269 -0.0009634922845 -0.00096433245101 -0.00096512506777 -0.00096587031553 -0.00096660566363 -0.00096732885064 
-0.00096805083561 -0.00096877888814 -0.0009695194884 -0.00097027831368 -0.00088730298641 -0.00089230006002 -0.00089686564093 -0.00090101676823 -0.00090477866592 
-0.00090817400894 -0.00091121157025 -0.00091394543234 -0.00091638864923 -0.00091857031337 -0.0009205187139 -0.00092226293587 -0.00092382604859 -0.00092523316562 
-0.00092650714912 -0.0009276660611 -0.00092875318266 -0.00092971834176 -0.00093062536369 -0.00093146232024 -0.00093226752407 -0.00093303822942 -0.00093378521851 
-0.00093451540616 -0.00093523527118 -0.00093595128253 -0.00077903598587 -0.00078413957159 -0.00078882551494 -0.00079310751097 -0.00079700886751 -0.00080055440926 
-0.00080374971054 -0.00080664782024 -0.0008092582758 -0.00081160649037 -0.00081371655203 -0.00081561393532 -0.00081731952271 -0.00081885423831 -0.00082024036517 
-0.00082149461566 -0.00082266168291 -0.0008236995569 -0.00082463916615 -0.00082550351473 -0.00082631882881 -0.00082708243415 -0.00082780381628 -0.00082849353363 
-0.00082915415302 -0.00082979453372 -0.00061692708477 -0.00062218948655 -0.00062705363189 -0.00063152336871 -0.00063562400352 -0.00063937856481 -0.00064279342828 
-0.00064591624274 -0.0006487573544 -0.00065133825263 -0.0006536800434 -0.0006558056798 -0.00065773310231 -0.00065948227443 -0.00066107146569 -0.00066251901001 
-0.00066386946342 -0.00066507783375 -0.00066617606699 -0.00066718742081 -0.00066813753514 -0.00066902424313 -0.00066985676824 -0.00067064518214 -0.00067139386834 
-0.0006721100683 -0.00043918517101 -0.0004448061362 -0.00045004138246 -0.00045489422981 -0.00045939069538 -0.00046354862117 -0.00046737700254 -0.00047092082213 
-0.00047418807438 -0.00047719756634 -0.00047997023132 -0.00048252382246 -0.00048487638691 -0.00048704525949 -0.00048904714566 -0.00049089996282 -0.00049261785525 
-0.00049424548641 -0.00049573447267 -0.00049710448692 -0.00049841572342 -0.00049965445694 -0.00050083006357 -0.00050195235093 -0.00050302616361 -0.00050405892803 
-0.00028271084013 -0.00028874595558 -0.00029439947859 -0.00029969396804 -0.00030463824982 -0.00030925168243 -0.00031355812486 -0.00031755659044 -0.00032129813171 
-0.00032478460093 -0.00032803504476 -0.00033106542794 -0.00033389102123 -0.0003365303207 -0.00033899621941 -0.00034130665779 -0.00034347503996 -0.00034554701261 
-0.00034747122044 -0.00034927989488 -0.00035099950584 -0.00035264986131 -0.00035422983024 -0.00035574846787 -0.00035721255378 -0.00035862861005 -0.00016107792547 
-0.00016742752931 -0.00017340254 -0.00017902933099 -0.0001843220198 -0.00018929086932 -0.00019395840335 -0.00019832601133 -0.00020244199126 -0.00020630681673 
-0.00020993629738 -0.00021334478555 -0.00021655008485 -0.00021956471215 -0.00022240287607 -0.00022507886387 -0.0002276083548 -0.00023000265747 -0.00023231060966 
-0.00023446268031 -0.00023651989548 -0.00023850241996 -0.0002404093252 -0.00024224864617 -0.00024403157394 -0.00024576081454 -7.4825691983e-05 -8.1336803766e-05 
-8.7486974452e-05 -9.3300516e-05 -9.8791325728e-05 -0.00010397017874 -0.00010885647381 -0.00011345126152 -0.00011780015049 -0.00012190357943 -0.0001257734954 
-0.0001294255914 -0.0001328739765 -0.00013613024955 -0.00013920828227 -0.00014212091647 -0.00014488340441 -0.00014750692946 -0.00015004146443 -0.00015241498902 
-0.00015470167475 -0.00015688809121 -0.00015900729261 -0.00016105715304 -0.00016304910062 -0.00016498614869 -2.1383835364e-05 -2.7901673645e-05 -3.4072056093e-05 
-3.9920005504e-05 -4.5454169002e-05 -5.0699958514e-05 -5.5658707833e-05 -6.0348772218e-05 -6.4773032523e-05 -6.8973250265e-05 -7.294478194e-05 -7.6701144672e-05 
-8.0255672908e-05 -8.361822687e-05 -8.6801894528e-05 -8.9818891987e-05 -9.2683646167e-05 -9.5408165348e-05 -9.8041085689e-05 -0.00010051085415 -0.00010289270644 
-0.00010518513995 -0.000107387934 -0.0001095343012 -0.00011162349005 -0.00011365974994 3.1109741822e-06 -3.2569699682e-06 -9.2952277171e-06 -1.5023115616e-05 
-2.0460975036e-05 -2.5617395885e-05 -3.0509614357e-05 -3.5140387505e-05 -3.9515695622e-05 -4.3674484871e-05 -4.7611322757e-05 -5.1337702044e-05 -5.4864871655e-05 
-5.8201090725e-05 -6.1360231499e-05 -6.4351682995e-05 -6.7190041622e-05 -6.988773228e-05 -7.2456990296e-05 -7.4936689063e-05 -7.7292126119e-05 -7.9560206373e-05 
-8.1741062442e-05 -8.387111358e-05 -8.5947171188e-05 -8.7978808265e-05 4.971397555e-06 -1.0868558679e-06 -6.8387324872e-06 -1.2299776133e-05 -1.7488869217e-05 
-2.2415274822e-05 -2.7093920873e-05 -3.1525465101e-05 -3.5714378568e-05 -3.9695404664e-05 -4.3462964848e-05 -4.702534403e-05 -5.0393876762e-05 -5.3573153298e-05 
-5.6576691829e-05 -5.9413731611e-05 -6.2096361305e-05 -6.4639220012e-05 -6.7054416564e-05 -6.9382795704e-05 -7.15886547e-05 -7.3711547837e-05 -7.5765467447e-05 
-7.7752820098e-05 -7.9707018395e-05 -8.1626745486e-05 -0.00054454322613 -0.00054820861935 -0.00055140914385 -0.00055416097854 -0.00055647198316 -0.00055839399398 
-0.00055993855686 -0.00056114012926 -0.00056203404614 -0.00056267022175 -0.00056310444407 -0.00056338478079 -0.00056355989336 -0.00056366400239 -0.00056373307693 
-0.00056376681258 -0.00056379157116 -0.00056382165539 -0.00056385819425 -0.00056394025762 -0.00056406897588 -0.00056426046287 -0.00056452577952 -0.00056487920165 
-0.00056533147126 -0.00056588931979 -0.00061605488379 -0.00062042534447 -0.00062433657579 -0.0006278097192 -0.00063086536501 -0.00063351411991 -0.00063580934504 
-0.00063777083829 -0.00063943050139 -0.00064083197236 -0.00064202203986 -0.0006430400071 -0.00064392589442 -0.00064471227847 -0.00064544785978 -0.00064609145504 
-0.00064670930004 -0.00064730352085 -0.00064787528425 -0.00064846323054 -0.00064906811842 -0.00064970358436 -0.00065038029751 -0.00065110878717 -0.00065189877921 
-0.00065275601269 -0.00066657702008 -0.0006715053232 -0.00067598223551 -0.00068003184195 -0.00068367469648 -0.00068692145419 -0.00068982477357 -0.00069240162977 
-0.00069468245629 -0.0006967022854 -0.00069849941466 -0.00070011036671 -0.00070156467117 -0.00070289336017 -0.00070411961993 -0.000705287626 -0.00070635449708 
-0.00070738253453 -0.00070836146565 -0.00070933041867 -0.00071028948471 -0.00071125111548 -0.00071222539056 -0.00071322116252 -0.00071424741965 -0.00071530944924 
-0.00068005561119 -0.00068539539745 -0.00069029763338 -0.00069477939432 -0.0006988660245 -0.00070256632623 -0.00070593220683 -0.00070897611448 -0.00071172762775 
-0.0007142160146 -0.00071647353558 -0.0007185311873 -0.00072041369026 -0.00072214966354 -0.00072376055 -0.00072529147731 -0.00072669659384 -0.00072804006319 
-0.00072932429652 -0.00073055013291 -0.00073175560725 -0.00073293881911 -0.0007341117376 -0.00073528153596 -0.00073645530993 -0.00073763919233 -0.00064833494769 
-0.00065396780833 -0.00065917313081 -0.00066396715122 -0.0006683768241 -0.0006724223082 -0.00067611228328 -0.00067949970521 -0.00068259614039 -0.00068542889602 
-0.00068802435785 -0.00069040983229 -0.00069260694774 -0.00069463982732 -0.00069653078977 -0.00069829772012 -0.00069998397672 -0.00070153962758 -0.00070302879429 
-0.0007044399019 -0.00070581155771 -0.00070714134344 -0.00070844033614 -0.00070971573969 -0.00071097426484 -0.00071222290266 -0.00057269767745 -0.00057855338495 
-0.0005839937385 -0.00058903227695 -0.00059369199899 -0.00059799742275 -0.00060195343794 -0.00060561235625 -0.00060898275177 -0.00061208893 -0.00061495382117 
-0.00061760180614 -0.00062005284647 -0.00062232717595 -0.00062444662782 -0.00062642768652 -0.00062831497433 -0.00063006653371 -0.00063171340853 -0.00063327875446 
-0.00063478893648 -0.00063624146357 -0.00063764724132 -0.00063901326096 -0.00064034603204 -0.00064165338166 -0.00046442822709 -0.00047050351547 -0.00047618023505 
-0.00048146252058 -0.00048637529664 -0.00049094125417 -0.0004951663488 -0.00049909769588 -0.00050274500106 -0.00050612904415 -0.00050927019786 -0.00051219071498 
-0.00051490793011 -0.00051744044509 -0.00051980880182 -0.0005220284873 -0.00052414480772 -0.00052611273534 -0.00052796422328 -0.00052972257548 -0.0005314134687 
-0.00053303482343 -0.0005345959504 -0.00053610701995 -0.00053757253734 -0.00053899988651 -0.00034308519856 -0.00034942345522 -0.0003553740135 -0.00036094021763 
-0.000366147452 -0.00037101378821 -0.00037554776353 -0.00037979401634 -0.00038376012918 -0.00038746446488 -0.00039092749461 -0.00039416653512 -0.00039719923893 
-0.00040004261402 -0.000402713115 -0.0004052284753 -0.00040760272206 -0.00040988044217 -0.00041201322762 -0.00041402075443 -0.00041596318693 -0.00041782684001 
-0.0004196211279 -0.00042135591147 -0.0004230361127 -0.00042466925811 -0.00022821653006 -0.00023482139284 -0.00024104199085 -0.00024690078458 -0.00025240647519 
-0.00025757827522 -0.00026243984904 -0.00026699000209 -0.00027127953011 -0.00027531002052 -0.00027910024161 -0.0002826658936 -0.0002860221266 -0.00028918684672 
-0.00029217321186 -0.00029499871388 -0.00029767683285 -0.00030025287399 -0.00030267602107 -0.00030497787921 -0.0003071850551 -0.00030931734119 -0.00031137360129 
-0.00031336290206 -0.00031529205735 -0.00031716765118 -0.00013179076045 -0.00013860325488 -0.00014503812571 -0.00015112166625 -0.00015686791823 -0.00016228706715 
-0.00016740153645 -0.00017221259571 -0.00017676842027 -0.0001810693439 -0.00018513103294 -0.00018896931003 -0.00019259699654 -0.00019603132698 -0.00019928388867 
-0.00020237155157 -0.00020530721524 -0.00020810300129 -0.00021080765259 -0.0002133515912 -0.00021579573283 -0.00021816017917 -0.0002204439469 -0.0002226550346 
-0.00022480461964 -0.00022689543241 -5.8426702239e-05 -6.5340799756e-05 -7.1890421986e-05 -7.8099834446e-05 -8.3982907759e-05 -8.9550397787e-05 -9.4821646707e-05 
-9.9797819281e-05 -0.00010452435747 -0.000109001728 -0.00011324184291 -0.0001172603506 -0.00012107131509 -0.00012468628475 -0.00012811906981 -0.00013138244969 
-0.00013449159623 -0.00013745760553 -0.0001403303336 -0.00014303767852 -0.00014565364807 -0.00014816470559 -0.00015060377995 -0.00015296865289 -0.00015527068725 
-0.00015751287793 -8.5656482085e-06 -1.5461015691e-05 -2.2004647163e-05 -2.822155398e-05 -3.4120412722e-05 -3.9726677281e-05 -4.5041769548e-05 -5.0084126538e-05 
-5.4856743256e-05 -5.9401338946e-05 -6.3713478522e-05 -6.7806693264e-05 -7.1694358218e-05 -7.538635925e-05 -7.8895780801e-05 -8.2234809759e-05 -8.5417812938e-05 
-8.8456704134e-05 -9.139998128e-05 -9.4175960515e-05 -9.6859652451e-05 -9.9449369291e-05 -0.00010194469808 -0.00010437866685 -0.00010675039693 -0.0001090640666 
1.9657084982e-05 1.2910736712e-05 6.4994375257e-06 4.0384003763e-07 -5.3964578416e-06 -1.091027645e-05 -1.6154945735e-05 -2.1133467823e-05 -2.5852016371e-05 
-3.0349851314e-05 -3.462154574e-05 -3.8678729722e-05 -4.2533036824e-05 -4.6192718471e-05 -4.9671711105e-05 -5.2979419671e-05 -5.6130401774e-05 -5.9136982034e-05 
-6.2011235285e-05 -6.4791811773e-05 -6.7443726917e-05 -7.0003581431e-05 -7.2471196703e-05 -7.4882691312e-05 -7.7234651525e-05 -7.953650666e-05 2.9597536429e-05 
2.3135381813e-05 1.6986570069e-05 1.1135470945e-05 5.5630199917e-06 2.5968391972e-07 -4.7897926828e-06 -9.5864450452e-06 -1.4135101609e-05 -1.8470879214e-05 
-2.2588552526e-05 -2.649672032e-05 -3.0206983418e-05 -3.3724156266e-05 -3.7061905544e-05 -4.0229549615e-05 -4.3239170722e-05 -4.6105307407e-05 -4.8839866338e-05 
-5.1483384267e-05 -5.3999748997e-05 -5.6428043832e-05 -5.878175764e-05 -6.1062826563e-05 -6.3304267814e-05 -6.550452247e-05 -0.00040359932933 -0.00040812589356 
-0.00041220945081 -0.0004158667068 -0.0004191057022 -0.00042197778827 -0.00042449277222 -0.00042668108184 -0.00042857041848 -0.00043019860446 -0.00043160628012 
-0.00043282725524 -0.00043390064837 -0.00043485580644 -0.00043572888932 -0.00043652135853 -0.00043726247876 -0.00043797017782 -0.00043864845005 -0.00043933925982 
-0.00044004594602 -0.00044078708316 -0.00044157468012 -0.00044242444323 -0.0004433483046 -0.00044435433872 -0.00044881910722 -0.0004539356413 -0.00045860776163 
-0.00046285681628 -0.00046670330144 -0.00047015714683 -0.00047327001659 -0.00047605838756 -0.00047854860707 -0.0004807763559 -0.00048277907371 -0.0004845873586 
-0.00048623498129 -0.00048775129812 -0.00048918426514 -0.00049049354838 -0.0004917470069 -0.00049294871843 -0.00049410180884 -0.00049524663108 -0.00049638552589 
-0.00049753335071 -0.00049870183782 -0.00049990242929 -0.00050114574406 -0.00050243850031 -0.0004776027224 -0.00048321624704 -0.00048838799581 -0.00049314201248 
-0.00049749854196 -0.00050146746919 -0.00050509995404 -0.0005084104433 -0.00051142558933 -0.00051417544996 -0.00051669274356 -0.00051900879196 -0.00052114917175 
-0.00052314256209 -0.0005250112372 -0.00052679949647 -0.00052846515679 -0.0005300715509 -0.00053160951149 -0.00053311916907 -0.00053460157172 -0.00053606998664 
-0.00053753519919 -0.00053900671777 -0.0005404941795 -0.00054200358199 -0.00048131024384 -0.00048732058205 -0.00049289938884 -0.00049806358229 -0.0005028380778 
-0.00050723096024 -0.00051129291258 -0.0005150345523 -0.00051848293497 -0.00052166422542 -0.00052460731805 -0.00052734005406 -0.000529884636 -0.00053226799908 
-0.00053451072743 -0.00053665772807 -0.00053866336971 -0.00054059226009 -0.00054244738078 -0.00054423017286 -0.00054597918994 -0.00054769305899 -0.00054938422118 
-0.00055106030522 -0.00055272887794 -0.00055439658234 -0.00045541150337 -0.00046173652803 -0.0004676375225 -0.00047313050705 -0.00047824201132 -0.00048299156688 
-0.00048738691812 -0.00049147970952 -0.00049527983167 -0.00049881262041 -0.00050210237429 -0.00050517443313 -0.00050804878808 -0.00051074837492 -0.00051329478769 
-0.00051570558373 -0.00051802408352 -0.00052020056842 -0.00052229924853 -0.00052430903103 -0.00052626873992 -0.00052817628865 -0.00053004305777 -0.0005318765607 
-0.00053368384325 -0.0005354722622 -0.00040110636644 -0.00040768954412 -0.00041385888082 -0.00041962769393 -0.00042501862242 -0.00043005564977 -0.00043474296882 
-0.00043913196719 -0.00044323009358 -0.00044706037506 -0.00045064457466 -0.00045400531613 -0.00045716196951 -0.00046013376541 -0.00046294195833 -0.00046560270415 
-0.00046816047693 -0.00047057332227 -0.00047287236751 -0.00047508090377 -0.00047722541932 -0.00047930361621 -0.00048132658415 -0.00048330151599 -0.00048523515162 
-0.00048713557996 -0.00032540215308 -0.00033221298271 -0.00033862550093 -0.00034464194124 -0.00035028862452 -0.00035558725668 -0.00036054328132 -0.00036520317222 
-0.000369575872 -0.00037368133358 -0.00037753902864 -0.00038117041529 -0.00038459209088 -0.00038782211567 -0.00039088042889 -0.00039378238367 -0.00039657305364 
-0.00039920734194 -0.00040171718532 -0.00040412592387 -0.00040645925845 -0.00040871520683 -0.00041090317988 -0.00041303346664 -0.00041511072505 -0.00041714252177 
-0.00023934324988 -0.00024637255285 -0.00025301231288 -0.00025926570077 -0.00026515787904 -0.00027070662108 -0.00027592007997 -0.00028084246791 -0.00028548086009 
-0.00028985307611 -0.00029397902159 -0.00029787547815 -0.00030155960898 -0.00030504801031 -0.00030835681289 -0.00031150350342 -0.00031450194293 -0.0003173966002 
-0.00032013901695 -0.00032274885531 -0.00032528621902 -0.000327737461 -0.00033011203163 -0.00033241984972 -0.00033466592912 -0.0003368579198 -0.00015440571493 