# vtk DataFile Version 5.1
vtk output
ASCII
DATASET STRUCTURED_POINTS
DIMENSIONS 26 14 26
SPACING 0.08 0.08 0.08
ORIGIN 2.7 -0.52 0
POINT_DATA 9464
FIELD FieldData 1
potential 1 9464 double
0.028148852969 0.022949232775 0.018009365841 0.013428956063 0.0093221850842 0.0058200382747 0.0030712274114 0.001235461297 0.0004504403875 
0.00074393705452 0.0019266107867 0.0036354166468 0.0055207185512 0.0073472330839 0.0089830923398 0.010363130149 0.01146064887 0.012268555259 
0.012786850736 0.01301573334 0.012957784033 0.012635327786 0.012120152168 0.011530191221 0.010970709857 0.010493915794 0.034333409218 
0.029748773211 0.02539332706 0.021347457306 0.017699169446 0.014542804907 0.011974763785 0.010082382339 0.0089201782025 0.0084742139287 
0.0086365561809 0.0092262085146 0.010048764423 0.010944010135 0.011799553152 0.012544282105 0.013136748157 0.013554766917 0.013787917053 
0.013833767673 0.013699191931 0.013406287833 0.012998252441 0.012533465019 0.012066715646 0.011633766444 0.038183078674 0.034114340035 
0.030243895678 0.026635611175 0.023356380935 0.020473522809 0.018049815639 0.01613459456 0.014750592578 0.013879453566 0.013455270219 
0.013375126955 0.01352283404 0.013791575245 0.014096052412 0.014374255116 0.014584305793 0.0146998932 0.014706311349 0.014598350079 
0.014380019536 0.014066005478 0.013681494957 0.013258297007 0.012827255476 0.012411244263 0.040454447169 0.036823419678 0.033361278054 
0.030118539147 0.027146001422 0.024492042988 0.022198622301 0.020295457551 0.018792726681 0.017675227749 0.016900850386 0.016406218462 
0.016117809872 0.015963559136 0.015880877931 0.0158199825 0.01574407082 0.015627724554 0.015455255888 0.015219375049 0.01492049589 
0.014566439019 0.014171492952 0.013753371654 0.013330046909 0.012916043509 0.04157495247 0.038319417308 0.035206020318 0.032274783957 
0.029564570845 0.027110901015 0.024942901672 0.023079676114 0.02152651801 0.02027228383 0.019289261486 0.018536473415 0.017965442661 
0.017526606169 0.017174346509 0.016870175218 0.016583599998 0.016292179284 0.015980863397 0.015641307923 0.01527116677 0.014873512757 
0.014455688855 0.014027585345 0.013599555358 0.013180577087 0.041813234135 0.038883413748 0.036072109884 0.033411249328 0.030930955996 
0.028657934487 0.026613300615 0.024810333932 0.023252439437 0.021931921297 0.020830286544 0.019920181113 0.019168716209 0.018541193126 
0.018004398125 0.017528883375 0.017090196581 0.016669394936 0.016252816771 0.015831960747 0.015402870387 0.014965537814 0.014523026215 
0.014080439365 0.013643530042 0.01321759367 0.041301109591 0.038655682347 0.036108492968 0.033685160619 0.031409488915 0.029302013101 
0.027378682394 0.02564946931 0.024117084033 0.022776526192 0.021615387868 0.020615062325 0.019752836448 0.019004022923 0.01834432544 
0.017751390282 0.017205910738 0.016692207578 0.0161984739 0.015716525109 0.015241609513 0.014771914909 0.014307963441 0.013851900843 
0.013406529794 0.012974731422 0.040268929923 0.037878988649 0.035569687576 0.033361947797 0.031274871475 0.029324746107 0.027524092811 
0.025880832952 0.024397523859 0.023071203424 0.021893590371 0.020851949604 0.019930356349 0.019111179667 0.018376486699 0.01770942921 
0.01709483674 0.016519967258 0.015974759957 0.015451756298 0.014946017229 0.014454783157 0.013977081727 0.013513152812 0.013064094501 
0.012631171479 0.038871621418 0.036709362453 0.034612971102 0.032599729543 0.030685192155 0.028882542492 0.027202007259 0.025650160318 
0.024229619472 0.022938868026 0.02177250695 0.02072181999 0.019775607056 0.018921174395 0.018145316667 0.017435220775 0.016779110208 
0.016166726868 0.015589622909 0.015041205291 0.014516708925 0.014012973691 0.013528262815 0.013061665859 0.01261317993 0.012182963312 
0.03712299739 0.035166728095 0.033263908493 0.031428912458 0.029674712666 0.02801221355 0.026449927071 0.024993562184 0.023645787827 
0.022406155211 0.02127129432 0.020235305189 0.019290330606 0.018427226584 0.017636247933 0.016907701961 0.016232449502 0.015602311758 
0.015010339055 0.014450718662 0.013919118025 0.013412331067 0.012928191897 0.012465320162 0.012022874987 0.011600460606 0.035048802465 
0.033280822473 0.03155591301 0.029886199519 0.028282532498 0.026754140353 0.025308294496 0.023950075423 0.022682178714 0.021504919785 
0.020416386122 0.019412679976 0.018488343299 0.017636818368 0.016850939555 0.016123402377 0.015447143416 0.014815673556 0.014223262337 
0.013665074401 0.013137177518 0.012636544442 0.012160868523 0.011708496603 0.011278250329 0.010869217529 0.032661106239 0.031067077054 
0.029507432028 0.027992502835 0.026531519753 0.025132374079 0.02380140504 0.022543184541 0.021360451726 0.020254007097 0.019222988995 
0.018264956003 0.017376197754 0.016552075375 0.015787349204 0.015076553759 0.014414274599 0.013795399748 0.013215285108 0.012669893481 
0.01215577105 0.011670191751 0.01121090448 0.010776136253 0.010364568185 0.0099750348226 0.029974205912 0.028542770585 0.027138475425 
0.025770202841 0.024445893253 0.023172391846 0.021955272792 0.020798687516 0.019705329477 0.018676428857 0.017711832715 0.01681016169 
0.015968988847 0.01518510498 0.01445475665 0.013773897 0.013138414334 0.012544315205 0.011987907593 0.011465851934 0.010975199972 
0.010513508237 0.010078675831 0.0096690055453 0.0092830964348 0.008919753735 0.026892632932 0.025615288771 0.024359076164 0.023131659874 
0.021939939814 0.020789917972 0.01968653253 0.018633581301 0.017633704058 0.016688357672 0.015797923527 0.014961793803 0.014178521136 
0.013445983447 0.012761565274 0.012122354274 0.011525242596 0.010967188315 0.010445261139 0.0099567521015 0.0094992092831 0.009070490212 
0.0086687358574 0.0082923353841 0.0079399524026 0.0076103822074 0.029849774509 0.024669088609 0.019743570399 0.01517098114 0.011062503995 
0.0075443239549 0.0047572859486 0.002848539563 0.0019391109322 0.0020474087355 0.003004065286 0.0044880567795 0.0061784519729 0.0078472239744 
0.0093593475364 0.010643946109 0.011669027169 0.012423537841 0.012905240967 0.013114134557 0.013054605666 0.012750451256 0.012268488203 
0.011713737531 0.011181166091 0.010720701588 0.035418424074 0.030846644195 0.026500365236 0.022458575488 0.018807289508 0.015638006424 
0.013043180523 0.01110521086 0.0098741021394 0.0093354921852 0.0093887318642 0.0098655707428 0.010582820879 0.011386209853 0.012164934614 
0.012847209007 0.013390145455 0.013770143166 0.013975780671 0.014004165982 0.013861989316 0.013570552536 0.013170470504 0.012715942667 
0.012258037625 0.011830738081 0.038942531918 0.034882821922 0.031018484609 0.027412420156 0.024130257076 0.021237696039 0.018795586289 
0.016851309437 0.015426363316 0.014503008358 0.014018534002 0.013874951029 0.013960965922 0.014173258359 0.014428267684 0.01466452188 
0.014840009399 0.014928021092 0.014913426019 0.01479063274 0.01456320443 0.014245044781 0.01385999642 0.013438114396 0.01300862254 
0.012593366177 0.041017805997 0.037393321269 0.033935435468 0.030694015663 0.027719052482 0.025058075371 0.022752035403 0.02082988148 
0.01930149376 0.018152233898 0.017341565365 0.016808402101 0.016481612084 0.01629107533 0.016175482313 0.016085720044 0.015985226026 
0.015848566446 0.015659903212 0.015411709409 0.015104050839 0.014744222845 0.014345779749 0.013925575054 0.013500772912 0.013085306549 
0.042016698257 0.038766052723 0.035655768269 0.032725434795 0.030013427393 0.027554753366 0.025378066756 0.023502148614 0.021932267867 
0.02065768326 0.019651540161 0.01887404614 0.018277998344 0.017814963922 0.017440177804 0.017115702069 0.016811340573 0.016504760304 
0.016180880999 0.015831259698 0.015453307393 0.015049783642 0.01462761695 0.014196233506 0.013765545935 0.013344181563 0.042183675985 
0.039257684465 0.036448833463 0.033788762532 0.031307292618 0.029030834895 0.026980263929 0.025168729851 0.023599685947 0.022265710512 
0.021148811465 0.02022230185 0.019454021463 0.018809953476 0.018257443713 0.017767450938 0.017315781474 0.016883625355 0.016457350759 
0.016028413256 0.015592725586 0.015150094542 0.014703344634 0.014257316066 0.013817507064 0.013388996284 0.041688678671 0.039047771336 
0.036503906486 0.034082538957 0.031807299295 0.029698563875 0.027772165529 0.026038035222 0.024498948456 0.023150095574 0.021979380827 
0.020968600266 0.020095483511 0.019335772449 0.018665542779 0.018062732446 0.017508239783 0.016986509306 0.016485786292 0.015997877278 
0.015517969074 0.015044144395 0.014576788214 0.014117893077 0.013670110351 0.013236187934 0.040680664594 0.038293016565 0.035985175745 
0.033777933601 0.031690270604 0.02973837219 0.027934693011 0.026287140314 0.024798324638 0.023465411547 0.022280317645 0.02123055887 
0.020300488239 0.019472750389 0.018729661098 0.01805457676 0.01743248098 0.016850733758 0.016299327646 0.015770814501 0.015260228407 
0.014764752682 0.014283336005 0.013816127335 0.013364132291 0.01292853084 0.039270768364 0.037110150418 0.035014749301 0.033001759205 
0.031086655275 0.029282558878 0.027599659047 0.026044534615 0.02461984115 0.023324152305 0.022152200107 0.021095431857 0.020142828908 
0.019281880447 0.018499550805 0.017783172116 0.017121082465 0.016503105234 0.015920841565 0.015367717544 0.014838961048 0.014331383607 
0.013843204193 0.013373459132 0.012922088974 0.012489198289 0.037513326013 0.035558181961 0.033655976026 0.031821021186 0.030066237329 
0.028402490039 0.026838271676 0.025379296138 0.024028265527 0.022784793399 0.02164559874 0.020604891287 0.019654932629 0.018786708514 
0.017990592825 0.017256989186 0.01657684686 0.015942050734 0.015345693128 0.014781983207 0.014246591552 0.013736300187 0.013248919736 
0.012783038989 0.012337782825 0.011912721492 0.035437443277 0.033670100377 0.031945422969 0.030275493623 0.028671127129 0.027141526935 
0.025693953611 0.024333493933 0.023062868708 0.021882437733 0.020790350105 0.019782783282 0.018854362717 0.017998616587 0.017208461892 
0.016476668662 0.015796236414 0.015160725282 0.014564439682 0.014002565062 0.013471177257 0.012967246118 0.012488453671 0.012033129529 
0.011600074861 0.011188356223 0.033053676874 0.031459762142 0.029899909608 0.028384418963 0.026922495825 0.025522015017 0.024189309785 
0.022928958106 0.021743718241 0.020634422675 0.019600253076 0.018638820341 0.017746472089 0.016918629443 0.016150111176 0.015435505464 
0.014769444325 0.014146853425 0.013563116739 0.013014215503 0.012496705467 0.012007862256 0.011545430205 0.01110762727 0.010693122489 
0.010300737268 0.030345821367 0.028913877209 0.027508813037 0.026139488658 0.024813826909 0.023538661862 0.022319564416 0.021160691564 
0.020064751408 0.019032997452 0.018065307569 0.017160338914 0.016315704772 0.015528237608 0.014794224948 0.014109658176 0.013470459417 
0.012872663424 0.01231259996 0.011786944741 0.011292758677 0.01082760166 0.010389371736 0.0099763669618 0.0095871793226 0.0092206057156 
0.027227054511 0.025948361249 0.02469058782 0.023461381681 0.022267629597 0.021115325667 0.02000940639 0.018953674682 0.017950782056 
0.017002202978 0.016108340794 0.015268612591 0.014481597652 0.013745201369 0.013056835567 0.012413613808 0.011812451815 0.011250327608 
0.010724326765 0.010231751764 0.0097701577798 0.0093374054008 0.0089316352389 0.0085512334625 0.0081948586335 0.0078612999626 0.03430076015 
0.02917444502 0.024290267431 0.019740606302 0.015628537356 0.012067731042 0.0091795545842 0.0070823683695 0.0058629965204 0.0055246108049 
0.0059393997323 0.0068714710954 0.0080664701886 0.0093214937452 0.010500957208 0.011524084657 0.012347712791 0.012951639731 0.013328016169 
0.013475579841 0.013401128268 0.013129058004 0.012713650604 0.012232876389 0.011758922549 0.011334531331 0.038331199916 0.033796825404 
0.029477395328 0.025447995692 0.021789194356 0.018584921199 0.015917499127 0.013857262535 0.01244396041 0.011663106708 0.011431530649 
0.011611171786 0.012046764707 0.012600493192 0.013167397625 0.013675349549 0.014078565024 0.014350176337 0.01447616185 0.014452243306 
0.014284084325 0.013990352214 0.013604961601 0.01317194332 0.012733176741 0.012317868603 0.040980273168 0.036947081511 0.033100854734 
0.029501777513 0.026211972334 0.0232927494 0.020799843438 0.018775668019 0.017238731888 0.016173119949 0.015524329161 0.015207131318 
0.015123094295 0.015178338442 0.015294510587 0.015412071655 0.015489012823 0.015497765403 0.0154221248 0.015255421843 0.014999872146 
0.014667187405 0.014277563267 0.013856477114 0.013428891131 0.013013883588 0.042519548311 0.038914407154 0.035469266337 0.032232108041 
0.029250758275 0.026570224024 0.024228890424 0.022253624091 0.020653586414 0.019415724101 0.018503740372 0.017862729794 0.017428015613 
0.017134924286 0.016925774405 0.016753491726 0.016582329425 0.016386888914 0.016151056997 0.015866570109 0.01553253886 0.015154787738 
0.014744854763 0.014317250446 0.013886943521 0.01346622957 0.043177019053 0.03994086882 0.036839918391 0.033912522554 0.03119567694 
0.028722952378 0.02652170281 0.024609835667 0.022992587676 0.021660344651 0.020588636744 0.019740944981 0.019073609108 0.018541375082 
0.018101916437 0.01771890752 0.01736305066 0.01701237083 0.016651758412 0.016272440167 0.015871217598 0.015449950219 0.015014411634 
0.014572739162 0.014133619818 0.013704696374 0.043128118392 0.040213276727 0.037411560294 0.034753783054 0.03226890117 0.029982495328 
0.027914764899 0.026078506339 0.024477321338 0.023104568275 0.021943667213 0.020969809408 0.020152892569 0.019460838936 0.018862601233 
0.018330320822 0.01784056908 0.017374940352 0.016919915173 0.016466817691 0.016011219349 0.015552399523 0.015092511691 0.014635654679 
0.014186608977 0.013749845415 0.042508578171 0.039876388276 0.037338114257 0.034918658852 0.032641103019 0.030525345739 0.028586859927 
0.026835391396 0.025273964691 0.023898275857 0.022697109032 0.021653434175 0.020746133699 0.01995227805 0.019248975918 0.018615008292 
0.018031871166 0.017484373802 0.016960919387 0.016453295145 0.015956501629 0.015468366361 0.014988841449 0.014519499067 0.014062549504 
0.013620373501 0.041427506055 0.039046542553 0.03674289854 0.034537037988 0.032447589186 0.030490429239 0.028677865961 0.027017724936 
0.025512785827 0.024160582717 0.022953601348 0.021880079552 0.020925170263 0.020072313876 0.019304547026 0.018605818452 0.017961575463 
0.017359468386 0.016789654836 0.016244722955 0.015719634673 0.015211413213 0.01471878348 0.014241635546 0.013780704696 0.013336946091 
0.039967363072 0.037811654308 0.035719251238 0.033707090194 0.031790415805 0.029982169168 0.028292435626 0.026727794477 0.025291026087 
0.023980961104 0.022792710922 0.021718196248 0.020746924154 0.019866914913 0.019065626803 0.018330816286 0.017651157822 0.017016715551 
0.01641923711 0.015852208215 0.015310840111 0.014791865475 0.014293377881 0.01381426178 0.013354295618 0.012913429438 0.038181524693 
0.036229796925 0.034329500766 0.032494770824 0.030738372686 0.029071058662 0.027501264179 0.02603471775 0.024674218179 0.023419560447 
0.022267722389 0.021213234437 0.020248707927 0.019365495622 0.018554313251 0.017805869041 0.017111361236 0.016462863123 0.015853592087 
0.015277823828 0.014731240636 0.014210592283 0.01371362313 0.01323883395 0.012785251357 0.012352347688 0.036100798561 0.034335445137 
0.032611562359 0.030941106823 0.029334788544 0.027801737826 0.026349183497 0.024982230668 0.023703673807 0.02251400227 0.021411545001 
0.020392699089 0.019452334007 0.018584229296 0.017781544126 0.017037267369 0.016344583912 0.015697199494 0.015089522262 0.014516800336 
0.013975134933 0.013461489142 0.012973513482 0.012509488608 0.012068157016 0.011648524007 0.033737749601 0.032144312845 0.030583983593 
0.029066970913 0.027602407861 0.026198120797 0.024860425303 0.023593917047 0.022401410186 0.021283830808 0.020240487472 0.019269144381 
0.01836631926 0.017527609425 0.016748005508 0.016022253768 0.015345123421 0.014711651635 0.014117305985 0.013558123083 0.013030688095 
0.01253228292 0.012060639795 0.011613951275 0.011190852008 0.010790125755 0.031084438553 0.029651193546 0.02824405895 0.02687182804 
0.025542371918 0.024262491939 0.023037747816 0.021872317228 0.02076894667 0.019728959526 0.018752324218 0.017837805416 0.016983135035 
0.016185268612 0.015440614819 0.014745278303 0.014095273126 0.013486743307 0.012916058465 0.012379948893 0.011875520324 0.011400293901 
0.010952215706 0.010529554454 0.010130882479 0.0097549732202 0.028109953185 0.026827598732 0.025565568888 0.024331428786 0.023132026105 
0.021973332726 0.020860280251 0.019796686497 0.018785237311 0.017827458815 0.01692381926 0.016073809919 0.015276089883 0.014528647028 
0.013828975161 0.013174265703 0.012561505378 0.011987732519 0.011450081078 0.01094588895 0.010472733936 0.010028487643 0.0096112913807 
0.0092195244745 0.0088518325565 0.0085069888653 0.040244464221 0.035201806024 0.03038171788 0.025868838114 0.021755149274 0.018138208191 
0.015116422468 0.012778152824 0.011180282019 0.010317879095 0.010102105578 0.010373258479 0.010946963558 0.011658792044 0.012384241023 
0.013039147916 0.013571584441 0.013952351461 0.014167063096 0.014211520838 0.014091853321 0.013828654972 0.013461161385 0.013041527073 
0.012618998226 0.012225978669 0.042482838147 0.038007370346 0.033730781447 0.029722492423 0.026055449307 0.022803474822 0.020036220261 
0.017810146637 0.016154636332 0.015056730853 0.014453129566 0.014239303018 0.014293266357 0.014499917379 0.014765186416 0.015019592873 
0.015215693979 0.015323471223 0.015325891216 0.015216353777 0.014998177123 0.014685588959 0.014303916255 0.013885342429 0.013460868663 
0.013053276158 0.043988971796 0.039998290891 0.036181583289 0.032595130358 0.029296003308 0.026339452667 0.023774486263 0.021637330996 
0.019943260083 0.018679158803 0.017800993068 0.017239603603 0.016913309409 0.016741406564 0.016653668397 0.016594347383 0.016522362969 
0.016409548924 0.016238454857 0.016000883893 0.015696937224 0.015335049615 0.014930518142 0.014502889953 0.014071437405 0.013651508755 
0.044781149206 0.041207382423 0.037783341727 0.034554296446 0.031564805716 0.028856326929 0.026463711309 0.024411122904 0.022706932735 
0.021340419893 0.020281105477 0.019482440895 0.018888770047 0.018443122963 0.018093389002 0.017795819973 0.017516239837 0.017229637939 
0.016919541257 0.016576797584 0.016199075749 0.015790068818 0.015358472497 0.014915558697 0.014473240205 0.014041478039 0.044940423852 
0.041727967407 0.038642635957 0.035720913641 0.032997728475 0.030504607868 0.028267000947 0.026301654338 0.024613835675 0.023195612689 
0.022025923399 0.021072927706 0.020298072553 0.019660744098 0.019122427348 0.018649227201 0.018213387095 0.017793608354 0.017374838107 
0.016947868982 0.016508627492 0.016057666192 0.015599092004 0.015139190735 0.014684879892 0.014242368407 0.044557865915 0.041661248984 
0.038871420567 0.036217944586 0.033728459894 0.031427319905 0.029333729883 0.027459997552 0.025809977762 0.024378202623 0.023150181259 
0.022103879541 0.021212240109 0.020446107989 0.01977689039 0.019178579413 0.018629007601 0.018110365757 0.017609466343 0.017117429421 
0.01662934922 0.016143736263 0.015661759989 0.015186431402 0.01472147018 0.014270422747 0.043717710331 0.041099661404 0.038570567659 
0.036154492833 0.033873657136 0.031747225176 0.029790140277 0.02801199213 0.026416024088 0.024998781144 0.023750359445 0.022655432306 
0.021694851859 0.020847522097 0.020092201529 0.019408992144 0.018780317193 0.01819166427 0.017631633896 0.017092039868 0.016567643898 
0.016055837977 0.015555997686 0.015069044884 0.014596542003 0.014140292048 0.042492570225 0.0401225134 0.037825893069 0.035622580142 
0.033530662888 0.031565559196 0.029739292792 0.028059628659 0.02652959783 0.0251473004 0.023906095494 0.022795329667 0.021801386453 
0.020908888833 0.020102141807 0.019365887617 0.018686341659 0.018051644491 0.017452224611 0.016880745828 0.016332075535 0.015803004768 
0.015291925618 0.014798339446 0.014322581783 0.013865237003 0.040940891806 0.038793397251 0.036706149333 0.034695689219 0.032776863377 
0.030962375288 0.029262120276 0.027682697944 0.026227078896 0.024894494143 0.023680644528 0.022578186205 0.02157744484 0.020667270341 
0.019835896829 0.019071752422 0.018364047937 0.017703238341 0.017081308613 0.016491855232 0.015930073737 0.015392584556 0.014877294868 
0.014382860474 0.013908813093 0.013454865902 0.03910542409 0.037159527716 0.035262642372 0.033428666104 0.031669979188 0.029997295318 
0.028418914908 0.026940589589 0.025565270409 0.024293037083 0.023121273253 0.022045009748 0.021057415953 0.020150412604 0.019315260944 
0.018543152339 0.017825687874 0.017155234538 0.016525225262 0.015930045557 0.015365404263 0.01482800802 0.014315503805 0.013826259873 
0.013359153075 0.012913505276 0.037014659733 0.03525287689 0.033530626733 0.031859676007 0.030250567494 0.028712314995 0.027252096809 
0.025875046925 0.02458407613 0.023379878326 0.022261066423 0.02122438457 0.020265088445 0.019377356359 0.01855473292 0.017790556605 
0.017078310232 0.016411935163 0.015786009408 0.015195876003 0.014637712269 0.014108445855 0.013605692475 0.013127659726 0.012673000949 
0.012240627428 0.034685576624 0.033093333664 0.03153265493 0.030013606264 0.02854519688 0.027135182677 0.02578984819 0.024513816807 
0.02330996201 0.02217944592 0.02112169113 0.020134734921 0.019215366136 0.018359463533 0.017562293022 0.016818854939 0.016124140001 
0.015473366518 0.014862139146 0.014286586859 0.013743345899 0.013229712299 0.012743402955 0.012282573583 0.011845807219 0.011431830368 
0.032126164046 0.030691411044 0.029281532861 0.027905198979 0.026570202468 0.025283293253 0.024050013871 0.022874567687 0.02175976928 
0.020707050887 0.019716525644 0.018787130666 0.017916788735 0.017102653922 0.016341330591 0.01562910774 0.014962162318 0.014336775699 
0.013749425519 0.013196919381 0.012676411595 0.012185445582 0.011721967353 0.011284228994 0.010870774614 0.010480343048 0.029343126915 
0.028055908207 0.026787995093 0.025546872864 0.024339328395 0.023171297216 0.022047703213 0.020972387704 0.019948090781 0.018976420872 
0.01805795085 0.017192293026 0.016378237878 0.015613909665 0.014896937945 0.014224643243 0.013594130367 0.013002538623 0.012447083907 
0.011925165413 0.011434401951 0.010972687265 0.010538168789 0.010129219519 0.0097444689594 0.0093826692337 0.046670478356 0.041733409839 
0.036995169865 0.032531637171 0.028422888116 0.024750476909 0.02159222733 0.019013048559 0.017050527095 0.015698456596 0.014897038412 
0.014540266121 0.014499549155 0.014649747639 0.014886089217 0.015129819477 0.01532661409 0.015441934948 0.015456129872 0.015361043405 
0.015159180475 0.014864332904 0.01450189852 0.014104377515 0.013702960916 0.013319869093 0.047261679061 0.042862698104 0.03864281608 
0.034664912237 0.030993533083 0.027692034753 0.024817914582 0.022415635871 0.020507002595 0.01908204367 0.018094979209 0.017469996167 
0.017115518549 0.016940168073 0.016864125765 0.016824166458 0.016773979765 0.016681955796 0.016528716772 0.016304996509 0.016010664867 
0.015654635668 0.015253709234 0.014829303678 0.014402497834 0.013989340225 0.047600002543 0.04366569539 0.03988922359 0.036322169399 
0.033015909695 0.030019148232 0.027374038034 0.025110992736 0.023242770816 0.021759605881 0.020627851428 0.019794033853 0.019193400116 
0.018759584625 0.018432245599 0.018161194198 0.01790765433 0.017643695603 0.017351013834 0.01701969228 0.016647422901 0.016238832624 
0.015804062689 0.015356611644 0.014910089516 0.014475688048 0.047571497995 0.044040059195 0.040645383221 0.037429435424 0.034433020932 
0.031693569192 0.029242270227 0.027100324292 0.025275766603 0.023760522096 0.022530369873 0.021547687706 0.020766575195 0.020138831476 
0.019619036777 0.019167855029 0.018753440693 0.018351764667 0.017946169345 0.017526625081 0.017089170252 0.016635142387 0.016169926174 
0.015701452757 0.015238237627 0.014787631199 0.047154001591 0.043973893326 0.040910597589 0.037998309809 0.035269513972 0.032753279037 
0.030473045735 0.028444254623 0.02667236944 0.025151432205 0.023864263621 0.022784316273 0.021878848308 0.021112840975 0.020452173447 
0.019866239553 0.019329333353 0.018821189624 0.018327037455 0.017837198911 0.017346693554 0.016854528531 0.016362972096 0.015876178849 
0.015399053049 0.014936135655 0.046366911371 0.0434953682 0.040722468188 0.038076157887 0.035582515423 0.033264423727 0.031139925061 
0.029220801143 0.027511258506 0.026007248332 0.02469675243 0.023561006092 0.022576580956 0.021717839737 0.020959237266 0.020277081604 
0.01965087245 0.019063750558 0.018502902235 0.017959365529 0.01742768269 0.016905493033 0.016392817561 0.015891423537 0.015403760156 
0.014932301732 0.045245639656 0.042647169624 0.040131209441 0.037720739367 0.0354369333 0.03329804868 0.031318396161 0.02950736009 
0.027868544746 0.026399499253 0.025091939962 0.023932632325 0.022904752562 0.021989513194 0.021167742927 0.020421227189 0.019733639457 
0.019091277075 0.018483150374 0.017901127775 0.017339718846 0.016795826806 0.016268142469 0.015756811302 0.015262641907 0.014786715169 
0.043829054305 0.041474180016 0.039187762316 0.036988737544 0.034894579304 0.032920132108 0.031077058747 0.029373087392 0.027811541591 
0.026391239318 0.025106627366 0.023948429353 0.022904564211 0.02196120322 0.021104072547 0.020319126403 0.019593499448 0.018916048632 
0.018277529378 0.017670751585 0.017090495476 0.016533289656 0.015997138881 0.015481076466 0.014984993955 0.014508898312 0.042153276312 
0.04001740564 0.03793774289 0.035930306646 0.03400947844 0.032187603187 0.030474376071 0.028876402103 0.027396907715 0.026035626125 
0.024789006135 0.023650632878 0.022611869833 0.021662617496 0.020792126408 0.019989674622 0.019245185366 0.018549629196 0.017895328652 
0.017276038043 0.016686948683 0.016124639049 0.015586612516 0.015071416926 0.014578230038 0.014106472389 0.040248474763 0.038310994026 
0.036419356728 0.034587023601 0.032826081022 0.03114700877 0.029557994988 0.028064820702 0.026670633215 0.02537587708 0.024178455332 
0.0230740347 0.022056514809 0.021118536924 0.020252071939 0.019448941138 0.018701279573 0.018001908831 0.017344366011 0.016723383146 
0.016134656234 0.015574851194 0.015041503091 0.014532821353 0.014047499681 0.013584673472 0.038138440917 0.036382093066 0.034662710665 
0.032991794051 0.031379666014 0.029835187453 0.028365470928 0.02697568526 0.025668893534 0.024446053259 0.023306144425 0.022246360428 
0.021262458015 0.020349134627 0.019500438897 0.018710169376 0.017972203664 0.017280798803 0.016630764003 0.016017589871 0.015437524115 
0.014887498309 0.014365079651 0.013868389575 0.013395973016 0.012946625034 0.035842477778 0.034252623275 0.032692268187 0.031171277724 
0.02969852658 0.028281647165 0.026926892112 0.025638920192 0.024420718751 0.023273614945 0.022197381921 0.021190287008 0.020249503842 
0.01937128086 0.018551247684 0.017784741003 0.017067047282 0.016393628613 0.015760276621 0.015163216511 0.014599257186 0.014065633576 
0.013560051853 0.013080657086 0.012625960507 0.012194618757 0.033378754961 0.031943058594 0.030530563431 0.029149794139 0.027808435294 
0.026513166136 0.025269507102 0.024081693777 0.022952628319 0.021883886013 0.020875775429 0.019927444616 0.019037085971 0.018202112071 
0.017419388808 0.016685451384 0.015996697213 0.01534959392 0.014740785474 0.014167134067 0.01362591839 0.013114701887 0.012631431051 
0.012174347955 0.011741962655 0.011332974674 0.030771909542 0.029479857167 0.02820567495 0.026956841131 0.025740028485 0.024561124199 
0.023425041778 0.022335649649 0.021295760257 0.02030708879 0.019370346754 0.018485308402 0.017650944062 0.016865562209 0.016126997751 
0.015432690532 0.014779965213 0.014166082557 0.013588376247 0.013044323226 0.012531613932 0.012048174914 0.01159216883 0.011161966901 
0.010756183733 0.010373549513 0.052979199778 0.048163104278 0.043520219393 0.039117683454 0.03502437371 0.031307960989 0.028030161766 
0.025239777605 0.022963542726 0.021197160239 0.019901199482 0.019005220424 0.018420372859 0.018054586968 0.017824584637 0.017662333912 
0.017516640222 0.017351790509 0.017145114064 0.016884796152 0.016568599878 0.016203131512 0.015802585049 0.015385508084 0.014970145613 
0.014570180247 0.052202632826 0.047893890239 0.043742554785 0.039804838244 0.036137165019 0.032793446404 0.029821016685 0.027255336913 
0.025113613903 0.023389439102 0.022050904307 0.0210442389 0.020302381558 0.019755159262 0.019337683865 0.018995302619 0.018685369119 
0.01837678696 0.018048917872 0.017690141759 0.017296791593 0.016872558151 0.016426797822 0.015972276809 0.01552197174 0.015086112475 
0.051484331637 0.047618117536 0.043891749487 0.040351962644 0.037044434546 0.034011649655 0.031289729432 0.028904354924 0.026866764667 
0.025170598903 0.023791309373 0.022688925193 0.021813704643 0.021112837065 0.020536276621 0.020040487164 0.019590234604 0.019158861804 
0.018727805356 0.018285762833 0.017828039696 0.017355620518 0.016873921247 0.016391081868 0.015915641145 0.015454924173 0.050662170096 
0.047182821336 0.043825571811 0.040628888751 0.037629748382 0.034861589867 0.032352075721 0.030120096202 0.028173421446 0.02650676065 
0.025101814599 0.023929305991 0.022952639917 0.022132329954 0.0214300384 0.020811375026 0.020247592089 0.019716160912 0.019200618068 
0.01869027182 0.018179633322 0.017667685898 0.017156807971 0.016651642788 0.016157515741 0.015679199266 0.04965745185 0.046517717626 
0.043482992693 0.040584989555 0.037853597729 0.035315410284 0.032991796779 0.030897129259 0.029037140027 0.027407981662 0.025996264041 
0.024780802142 0.023734745936 0.022828684602 0.022033359797 0.021321845222 0.020670892107 0.020061632339 0.0194798086 0.018915429645 
0.018362676875 0.017819089612 0.017285069082 0.016762699898 0.016254877553 0.015764432297 0.048440826492 0.045600924663 0.04285022186 
0.040214922167 0.03771933391 0.035384822436 0.033228257093 0.031260908073 0.029487412725 0.027905240216 0.026504956982 0.025271203877 
0.02418436399 0.023222569475 0.022363562152 0.021586377996 0.020872330605 0.020205871686 0.019574697865 0.01896985858 0.01838542615 
0.017818179043 0.017266990481 0.016732349067 0.016215416138 0.015717530492 0.047009894412 0.044436353248 0.0419377913 0.039535942778 