# vtk DataFile Version 5.1
vtk output
ASCII
DATASET STRUCTURED_POINTS
DIMENSIONS 76 38 38
SPACING 0.002 0.002 0.002
ORIGIN 0.1914 -0.040672 0.03932
POINT_DATA 109744
FIELD FieldData 1
potential 1 109744 double
0.0013777372702 0.0013678766984 0.0013581160406 0.001348454442 0.0013388929199 0.001329430086 0.0013200666353 0.0013108013296 0.0013016344485 
0.001292565411 0.0012836220554 0.0012747463884 0.0012659663689 0.0012572825857 0.0012486930412 0.0012401972986 0.0012317939581 0.001223482687 
0.0012152612022 0.0012071292343 0.0011990845949 0.0011911258497 0.0011832517501 0.0011754601715 0.0011677500892 0.0011601196542 0.0011525667938 
0.0011450904143 0.0011376882362 0.001130359121 0.0011231009803 0.0011159119906 0.001108790583 0.0011017346133 0.0010947429868 0.0010878131227 
0.0010809438059 0.0010741349685 0.0010673819952 0.0010606867021 0.0010540479304 0.0010474647302 0.0010409357899 0.001034461057 0.0010280404896 
0.0010216741546 0.0010153626844 0.0010091069733 0.0010029069782 0.00099676062444 0.00099067286997 0.00098464309061 0.00097867190979 0.00097275958551 
0.00096690681667 0.00096111350279 0.00095538014053 0.00094968673756 0.00094407154052 0.00093851496642 0.0009330141178 0.00092756908645 0.00092217780644 
0.0009168381732 0.00091154905851 0.00090630745294 0.00090111171907 0.00089596009393 0.0008908508772 0.00088578219325 0.00088075306399 0.00087576266387 
0.00087080973898 0.00086589474484 0.00086101990673 0.00085617928029 0.0013841370847 0.0013741904638 0.001364345384 0.0013546011179 0.0013449583154 
0.0013354155931 0.0013259735058 0.00131663193 0.00130738951 0.001298246222 0.0012892012884 0.0012802820198 0.0012714321528 0.0012626791657 
0.0012540215254 0.0012454593885 0.00123699016 0.0012286135236 0.0012203291523 0.0012121338077 0.0012040273562 0.0011960078496 0.0011880732056 
0.0011802225367 0.0011724543032 0.0011647663188 0.0011571566535 0.0011496240392 0.0011421667851 0.0011347830219 0.0011274712374 0.0011202292556 
0.0011130556204 0.001105948113 0.0010989055727 0.0010919260374 0.0010850080394 0.0010781499357 0.0010713491762 0.0010646069878 0.0010579210357 
0.0010512910076 0.0010447167231 0.0010381969631 0.001031732083 0.0010253221835 0.0010189680961 0.0010126702875 0.001006428884 0.0010002441114 
0.0009941152779 0.00098804636477 0.00098203701726 0.0009760873051 0.00097019789551 0.00096436863527 0.00095859920736 0.00095288955214 0.00094722062841 
0.00094162906904 0.0009360946128 0.00093061582572 0.00092519102122 0.00091981805085 0.00091449587357 0.00090922148788 0.0009039935031 0.0008988098038 
0.00089366886026 0.00088856935226 0.00088350954091 0.00087848841727 0.00087350653318 0.00086856259265 0.00086365702927 0.000858790873 0.0013903670081 
0.0013803363032 0.0013704082337 0.0013605828576 0.0013508597916 0.0013412390707 0.0013317198084 0.001322302573 0.0013129859985 0.001303769299 
0.0012946534391 0.0012856635132 0.0012767446363 0.0012679234469 0.0012591993438 0.0012505708358 0.0012420370966 0.0012335965333 0.0012252488811 
0.0012169916537 0.0012088238379 0.0012007436421 0.0011927494921 0.0011848401805 0.0011770128828 0.0011692679103 0.0011616017926 0.0011540136938 
0.0011465013055 0.001139063799 0.0011316985299 0.0011244039999 0.0011171784103 0.0011100200105 0.001102927858 0.0010958983492 0.0010889314417 
0.0010820259106 0.0010751787294 0.001068389135 0.0010616573684 0.001054981915 0.0010483636048 0.0010417991139 0.0010352912383 0.0010288390853 
0.0010224433714 0.0010161046189 0.001009822806 0.001003598479 0.00099743296221 0.00099132535965 0.00098527852678 0.00097929230636 0.00097336674122 
0.00096750202502 0.00096169799722 0.00095595328154 0.00095025015305 0.00094462460424 0.00093905649708 0.00093354434707 0.00092808639039 0.00092268046763 
0.00091732547586 0.00091201903403 0.00090675892934 0.00090154389862 0.00089637174807 0.00089124138544 0.00088615122983 0.00088110078009 0.00087608960316 
0.00087111735443 0.00086618414964 0.00086128851435 0.0013964428779 0.0013863297336 0.0013763206465 0.0013664148919 0.001356613151 0.0013469154658 
0.0013373207632 0.0013278290621 0.0013184396793 0.0013091514121 0.0012999645721 0.0012909044826 0.0012819176277 0.0012730295447 0.001264239188 
0.0012555458082 0.0012469481344 0.0012384443809 0.0012300341307 0.0012217151208 0.0012134864469 0.0012053463091 0.0011972933212 0.0011893247116 
0.0011814401799 0.0011736376629 0.0011659159914 0.0011582724749 0.0011507054863 0.001143213829 0.0011357960681 0.0011284492384 0.0011211723648 
0.0011139641821 0.0011068216792 0.0010997436758 0.0010927287732 0.0010857758555 0.0010788820208 0.0010720470015 0.0010652700664 0.0010585505256 
0.0010518875218 0.0010452811517 0.0010387309834 0.0010322377098 0.0010258012737 0.0010194219686 0.0010131011602 0.0010068387602 0.001000635607 
0.00099449195999 0.00098840785578 0.00098238613021 0.0009764251739 0.00097052550907 0.0009646870325 0.00095890873701 0.00095319016219 0.00094751216721 
0.00094191079356 0.00093636568526 0.00093087473143 0.00092543641486 0.00092004869029 0.00091471020668 0.00090941867027 0.0009041721806 0.00089896926866 
0.00089380854824 0.00088868871216 0.00088360893174 0.0008785693288 0.00087356948368 0.00086860881659 0.00086368803626 0.0014023863019 0.0013921906899 
0.0013821015497 0.0013721174559 0.0013622388966 0.0013524654079 0.0013427955663 0.0013332309022 0.0013237696299 0.0013144110243 0.0013051547113 
0.00129599973 0.0012869710876 0.0012780164936 0.001269160806 0.0012604024311 0.0012517417457 0.0012431752523 0.0012347030368 0.0012263232484 
0.0012180339989 0.0012098337833 0.0012017217211 0.00119369532 0.0011857531608 0.0011778940968 0.0011701162492 0.0011624180289 0.0011547967937 
0.0011472519618 0.0011397810947 0.001132383072 0.0011250550579 0.0011177963194 0.0011106048907 0.0011034786596 0.0010964162749 0.0010894167087 
0.0010824774189 0.0010755967418 0.0010687759892 0.0010620127101 0.0010553072907 0.0010486587854 0.0010420676992 0.0010355341304 0.0010290583811 
0.0010226399559 0.0010162809513 0.0010099807248 0.0010037407524 0.00099756126317 0.00099144260698 0.00098538410212 0.00097938877375 0.00097345462446 
0.00096758192747 0.00096176985527 0.00095601805265 0.00095030689916 0.00094467205616 0.000939093839 0.00093357030559 0.00092809949269 0.00092267980687 
0.0009173092037 0.00091198605019 0.00090670851296 0.00090147525322 0.0008962841483 0.00089113509227 0.00088602686362 0.00088095915254 0.00087593179942 
0.00087094401629 0.0008659970817 0.0014082215161 0.0013979456668 0.0013877772024 0.0013777156491 0.0013677611554 0.0013579129112 0.0013481700726 
0.0013385331188 0.0013290002894 0.0013195718264 0.001310246779 0.0013010243461 0.0012919280512 0.0012829078054 0.0012739869591 0.0012651647438 
0.0012564402242 0.0012478116779 0.00123927739 0.0012308365009 0.0012224871927 0.0012142282588 0.0012060569138 0.0011979735792 0.001189974049 
0.0011820582257 0.0011742249316 0.0011664712631 0.0011587965107 0.0011511984788 0.0011436754438 0.0011362260622 0.0011288480407 0.001121539381 
0.0011142988176 0.0011071248432 0.0011000156089 0.0010929700173 0.001085984783 0.0010790600089 0.0010721953382 0.0010653892542 0.0010586419801 
0.0010519520848 0.0010453207573 0.0010387475714 0.0010322322094 0.001025776163 0.0010193793943 0.0010130428901 0.0010067667339 0.0010005513366 
0.00099439794502 0.00098830574667 0.00098227461329 0.00097630678945 0.00097040035979 0.00096455472127 0.00095876938677 0.00095304331019 0.00094735773537 
0.00094174623606 0.00093618967616 0.0009306868243 0.00092523494474 0.00091983241054 0.00091447795321 0.00090916988814 0.00090390565125 0.00089868533001 
0.00089350680425 0.00088836997854 0.00088327422502 0.00087821923278 0.000873205928 0.00086823341572 0.0014139778938 0.0014036224555 0.0013933756148 
0.0013832376387 0.001373207337 0.0013632855987 0.0013534699902 0.0013437611954 0.001334158333 0.0013246606043 0.0013152670243 0.0013059777602 
0.001296790677 0.0012877283289 0.0012787428059 0.001269856516 0.0012610692283 0.0012523782022 0.001243782489 0.001235280457 0.0012268713448 
0.0012185529278 0.0012103236572 0.0012021819694 0.0011941256275 0.0011861538121 0.0011782649615 0.0011704563576 0.0011627278972 0.0011550770457 
0.0011475021095 0.0011400014186 0.0011325732222 0.0011252155463 0.0011179266708 0.0011107051152 0.0011035491575 0.0010964571371 0.0010894271023 
0.0010824580368 0.0010755499017 0.00106870173 0.0010619129901 0.0010551828824 0.001048511366 0.0010418991392 0.0010353458007 0.0010288522041 
0.0010224186825 0.001016045852 0.0010097342706 0.0010034841129 0.00099729577329 0.00099116961627 0.00098510525856 0.00097910184945 0.00097316172999 
0.00096728291251 0.00096146411107 0.0009557048878 0.00094998627406 0.00094434230255 0.00093875261716 0.0009332173166 0.0009277333149 0.00092229883072 
0.0009169131717 0.00091157391794 0.00090627956145 0.00090102897214 0.0008958215328 0.00089065631712 0.00088553311481 0.00088045159387 0.00087541200168 
0.0008704135551 0.0014196859178 0.0014092513934 0.0013989273324 0.0013887121935 0.0013786072978 0.0013686114021 0.0013587241871 0.0013489447213 
0.0013392713374 0.0013297047265 0.0013202430255 0.001310886533 0.0013016330166 0.0012925046935 0.0012834546628 0.0012745048453 0.0012656541004 
0.001256901567 0.0012482441082 0.0012396816751 0.0012312121507 0.0012228346413 0.0012145468976 0.0012063475162 0.0011982342664 0.001190206334 
0.0011822622891 0.0011743993589 0.0011666168435 0.0011589128816 0.0011512861289 0.001143733518 0.0011362557658 0.0011288486984 0.0011215116369 
0.0011142429569 0.0011070401791 0.001099902094 0.0010928278558 0.0010858147901 0.0010788642378 0.0010719739778 0.0010651446091 0.0010583743736 
0.001051663538 0.0010450127026 0.0010384217089 0.0010318907965 0.0010254206199 0.0010190115612 0.0010126647571 0.0010063795246 0.0010001565571 
0.00099399613391 0.00098789808361 0.00098186235918 0.00097588699334 0.00096997415717 0.00096412208632 0.00095832954638 0.00095257794269 0.00094690062 
0.0009412791187 0.00093571015159 0.00093019370412 0.00092472776538 0.00091931056092 0.00091393991662 0.0009086155173 0.00090333565858 0.00089809924833 
0.00089290580887 0.00088775495214 0.00088264708414 0.00087758078014 0.00087255691264 0.00142536572 0.0014148623407 0.0014044608552 0.0013941700834 
0.001383990808 0.0013739211868 0.0013639613605 0.0013541097156 0.0013443675996 0.0013347325588 0.0013252031096 0.0013157795484 0.0013064603315 
0.0012972444475 0.0012881511758 0.0012791372639 0.0012702234878 0.0012614083228 0.0012526893816 0.0012440656971 0.0012355364833 0.0012270996809 
0.0012187534721 0.0012104961912 0.0012023259136 0.001194241255 0.0011862418152 0.0011783242685 0.0011704882697 0.0011627311302 0.0011550518882 
0.0011474487102 0.0011399204387 0.0011324641174 0.001125078785 0.0011177622875 0.0011105128804 0.0011033295991 0.0010962107561 0.0010891542882 
0.0010821614566 0.001075230011 0.0010683595528 0.001061549526 0.0010547997196 0.0010481102768 0.0010414819013 0.0010349137158 0.0010284074252 
0.0010219626759 0.0010155805191 0.0010092603137 0.0010030029997 0.00099680823433 0.00099067602443 0.00098460606699 0.00097859826896 0.00097265027115 
0.00096676418201 0.00096093831687 0.00095517047572 0.00094944297515 0.00094378799766 0.00093818640561 0.00093263722259 0.00092713913283 0.00092168995154 
0.00091628855047 0.00091093352489 0.00090562406831 0.00090035870999 0.00089513711764 0.00088995915488 0.00088482376065 0.00087973141961 0.00087468260498 
0.0014310683957 0.0014204862165 0.0014100073028 0.0013996401894 0.0013893862123 0.0013792431884 0.0013692110125 0.0013592884991 0.0013494760617 
0.0013397716238 0.0013301744615 0.0013206833998 0.0013112979761 0.0013020166807 0.0012928580691 0.0012837805649 0.0012748032587 0.0012659256259 
0.0012571445428 0.0012484593402 0.0012398696661 0.0012313729919 0.0012229680754 0.0012146526496 0.0012064259266 0.0011982847139 0.0011902292931 
0.0011822570891 0.0011743673141 0.0011665579199 0.0011588261974 0.0011511713621 0.0011435918606 0.0011360867651 0.001128652761 0.0011212885833 
0.0011139928324 0.0011067644122 0.0010996011427 0.001092501011 0.0010854652603 0.0010784915886 0.0010715804348 0.0010647305884 0.001057941593 
0.0010512143192 0.0010445481332 0.0010379436468 0.0010314011917 0.0010249203996 0.0010185027131 0.0010121475928 0.0010058553683 0.00099962613317 
0.00099345951267 0.00098735546207 0.00098131324745 0.00097533279596 0.00096941123823 0.00096355086655 0.00095774926937 0.00095198796621 0.00094629955819 
0.00094066486372 0.00093508325652 0.00092955253103 0.00092407158896 0.00091863882285 0.00091325348523 0.00090791406408 0.0009026195377 0.00089737012036 
0.00089216399325 0.00088700142458 0.00088188317173 0.00087680846574 0.0014368122103 0.0014261411249 0.0014155948497 0.0014051516598 0.0013948220635 
0.0013846049601 0.0013744998082 0.0013645058971 0.0013546233046 0.0013448492451 0.0013351832356 0.0013256249318 0.0013161724708 0.0013068246266 
0.0012976006828 0.0012884590297 0.0012794182047 0.0012704773192 0.0012616340362 0.0012528876753 0.0012442371339 0.0012356800074 0.0012272158937 
0.0012188422822 0.0012105576688 0.0012023601431 0.0011942485112 0.001186221627 0.0011782777524 0.0011704148744 0.0011626311109 0.0011549242753 
0.0011472947041 0.0011397396717 0.0011322570357 0.0011248448941 0.0011175021895 0.001110228004 0.0011030201622 0.0010958763774 0.0010887980085 
0.001081782241 0.0010748299207 0.0010679401652 0.0010611125732 0.001054346559 0.0010476426716 0.0010410011072 0.0010344222215 0.0010279054895 
0.0010214522467 0.0010150612852 0.0010087340002 0.0010024696249 0.00099626806 0.0009901290568 0.00098405255643 0.00097803737336 0.00097208261581 
0.00096618668755 0.0009603504978 0.00095457242404 0.00094883372892 0.00094316513291 0.00093755006711 0.0009319867085 0.00092647388676 0.00092100979706 
0.0009155934109 0.00091022367437 0.00090490012832 0.00089962131158 0.00089438760579 0.0008891977981 0.00088405289893 0.00087895229627 0.0014426245188 
0.001431874024 0.0014212493118 0.0014107292032 0.0014003238315 0.001390032252 0.0013798541105 0.0013697877424 0.0013598334089 0.0013499893251 
0.001340254566 0.0013306275367 0.0013211079366 0.0013116940815 0.001302384073 0.0012931961559 0.0012840912164 0.0012750867269 0.0012661812 
0.0012573729629 0.0012486610675 0.001240043852 0.0012315196779 0.0012230873146 0.0012147448257 0.0012064903376 0.0011983220544 0.0011902399862 
0.0011822412816 0.0011743249482 0.0011664886738 0.0011587307382 0.0011510490609 0.0011434438427 0.0011359121281 0.0011284519667 0.0011210626311 
0.0011137421899 0.0011064891323 0.0010993011319 0.0010921795636 0.0010851222418 0.0010781285002 0.0010711978399 0.0010643310681 0.0010575264802 
0.0010507845345 0.001044105198 0.0010374891978 0.0010309362869 0.001024446594 0.0010180200885 0.0010116572322 0.0010053574631 0.0009991205272 
0.00099294628652 0.00098683433082 0.00098078429206 0.00097479479844 0.00096886488006 0.00096299224699 0.00095717955533 0.00095140639893 0.00094570463845 
0.00094005578653 0.00093445952217 0.00092891418981 0.00092341819151 0.00091797094483 0.00091257061151 0.00090721718668 0.00090190950539 0.0008966468525 
0.00089142984465 0.00088625804508 0.00088113114522 0.0014485298409 0.0014376981955 0.0014269940519 0.0014163960283 0.001405914141 0.001395547639 
0.0013852948671 0.0013751558832 0.0013651293928 0.0013552140894 0.0013454091301 0.0013357134953 0.0013261252879 0.0013166438208 0.0013072675671 
0.0012980132277 0.001288843179 0.0012797744802 0.0012708061177 0.0012619358229 0.0012531620446 0.0012444832956 0.0012358993523 0.0012274079455 
0.0012190070203 0.0012106947521 0.001202469188 0.0011943315623 0.0011862781399 0.0011783072964 0.001170417537 0.0011626075336 0.0011548751077 
0.0011472192771 0.0011396380128 0.0011321295589 0.0011246925853 0.0011173254969 0.0011100267012 0.0011027945059 0.001095629044 0.0010885289929 
0.0010814933595 0.0010745222601 0.0010676151205 0.0010607710739 0.0010539905841 0.0010472735594 0.0010406202467 0.0010340299503 0.0010275039484 
0.0010210411934 0.0010146419144 0.0010083060643 0.0010020327664 0.00099582280047 0.00098967509976 0.00098358900209 0.00097756389958 0.00097159892701 
0.00096569236492 0.00095984256118 0.00095403482773 0.00094829843638 0.0009426158077 0.00093698637384 0.00093140826972 0.00092588016204 0.00092040078903 
0.00091496977157 0.00090958600614 0.0009042488081 0.00089895742551 0.00089371269472 0.00088851345616 0.00088335987066 0.0014545489286 0.0014436353504 
0.0014328408544 0.0014221746605 0.0014116145241 0.001401171359 0.0013908437008 0.00138063021 0.0013705303781 0.0013605437543 0.001350667804 
0.0013409015055 0.001331244515 0.0013216943505 0.0013122505232 0.001302911956 0.0012936934297 0.0012845598004 0.0012755269286 0.0012665934743 
0.0012577573347 0.0012490175355 0.0012403726458 0.001231820392 0.0012233607099 0.0012149903295 0.0012067084839 0.0011985140639 0.0011904050806 
0.0011823794844 0.0011744361577 0.001166573318 0.0011587892151 0.0011510823153 0.001143450658 0.0011358939087 0.0011284084452 0.0011209942908 
0.0011136493438 0.0011063719109 0.0010991626285 0.0010920193624 0.0010849413718 0.0010779287319 0.0010709808778 0.0010640968684 0.0010572772726 
0.0010505213383 0.0010438295569 0.0010372014935 0.0010306377236 0.0010241385099 0.0010177021888 0.0010113293099 0.0010050193231 0.00099877278688 
0.00099258853031 0.00098646566354 0.00098040429344 0.00097440341502 0.00096846124714 0.00096257546415 0.00095674849536 0.00095096154379 0.000945244635 
0.00093958108497 0.00093396945775 0.00092840869679 0.00092289710069 0.00091743489678 0.00091201995222 0.00090665261674 0.00090133255331 0.00089605920067 
0.00089083217263 0.00088565137513 0.0014607011593 0.0014497033825 0.0014388274748 0.0014280802995 0.0014174417622 0.0014069209207 0.001396516904 
0.00138622835 0.0013760548297 0.0013659943353 0.001356045964 0.0013462090859 0.0013364810193 0.0013268616222 0.001317349841 0.0013079436068 
0.0012986576627 0.0012894578373 0.0012803601304 0.0012713622883 0.0012624624221 0.001253661191 0.001244954521 0.0012363420869 0.0012278225078 
0.0012193939174 0.001211054259 0.0012028021801 0.0011946370987 0.0011865564043 0.0011785587928 0.0011706424576 0.0011628057605 0.0011550473943 
0.0011473657964 0.0011397592376 0.0011322249622 0.001124763353 0.0011173715486 0.0011100481376 0.0011027938937 0.0010956067366 0.0010884852803 
0.0010814305105 0.001074440844 0.0010675166919 0.0010606567894 0.0010538615219 0.0010471307007 0.0010404639218 0.0010338620331 0.0010273243367 
0.0010208503858 0.0010144396406 0.0010080921889 0.0010018084027 0.00099558673995 0.00098942700016 0.00098332875748 0.00097729078872 0.00097131249747 
0.00096539202205 0.00095952783107 0.0009537054657 0.00094795372887 0.00094225520076 0.00093660982144 0.0009310157108 0.00092547181195 0.0009199771247 
0.00091453116448 0.00090913319946 0.0009037833165 0.00089848097566 0.00089322552828 0.00088801707929 0.0014670005102 0.0014559182331 0.0014449590736 
0.00143412006 0.001423410845 0.001412810836 0.0014023291334 0.0013919641649 0.001381714775 0.0013715798963 0.0013615584918 0.001351649034 
0.0013418493579 0.0013321594547 0.0013225779922 0.0013131034936 0.0013037488299 0.0012944821592 0.0012853182713 0.0012762552708 0.0012672923206 
0.0012584268116 0.0012496579475 0.0012409847898 0.0012324043744 0.0012239163846 0.0012155183823 0.0012072086517 0.001198986365 0.0011908501686 
0.0011827974648 0.0011748271185 0.0011669375835 0.0011591272773 0.0011513945794 0.0011437373681 0.0011361537758 0.0011286435364 0.0011212041382 
0.0011138344269 0.001106534371 0.0010993022051 0.0010921373084 0.0010850394369 0.0010780072932 0.0010710416371 0.0010641409114 0.0010573049936 
0.0010505341887 0.0010438275855 0.0010371865526 0.0010306097127 0.0010240969238 0.0010176476604 0.0010112621114 0.0010049397669 0.00099867991042 
0.00099248253876 0.00098634679862 0.00098027137316 0.00097425549136 0.00096829854961 0.00096239936085 0.00095655541391 0.00095075276794 0.00094501896788 
0.00093933929596 0.00093371109409 0.0009281341677 0.00092260688474 0.00091712919638 0.00091170010917 0.00090631965276 0.00090098756755 0.00089570316349 
0.00089046610416 0.0014734605261 0.0014622914184 0.0014512473841 0.0014403255724 0.0014295339852 0.0014188538299 0.0014082922614 0.0013978490683 
0.0013875228054 0.0013773123307 0.0013672159867 0.0013572328179 0.0013473609957 0.0013375992736 0.0013279468602 0.0013184016135 0.0013089633449 
0.0012996434141 0.0012904125297 0.0012812835404 0.0012722556325 0.0012633258316 0.001254494195 0.0012457582527 0.0012371167671 0.0012285681577 
0.0012201114294 0.0012117431542 0.0012034636045 0.0011952708954 0.0011871629116 0.0011791379432 0.0011711941977 0.0011633314518 0.0011555462614 
0.0011478375157 0.0011402041538 0.0011326451467 0.0011251579605 0.0011177402863 0.0011103939124 0.0011031163054 0.001095906563 0.0010887645898 
0.0010816893891 0.0010746809872 0.0010677380226 0.0010608604643 0.0010540482439 0.001047301587 0.0010406199433 0.0010340031129 0.0010274502515 
0.0010209619204 0.001014537404 0.0010081755536 0.001001877477 0.00099564180525 0.00098946722479 0.00098335378881 0.0009772999512 0.00097130521122 
0.00096536909806 0.00095948974644 0.00095364996682 0.00094788129788 0.00094216561418 0.00093650316335 0.00093089238103 0.00092533252423 0.00091982199378 
0.00091436148787 0.00090894987398 0.00090358719641 0.00089827261578 0.00089300629445 0.001480091445 0.0014688340453 0.0014577032991 0.0014466965319 
0.0014358209915 0.0014250581918 0.0014144162303 0.0014038933728 0.0013934885462 0.0013832014079 0.0013730286223 0.001362970028 0.001353024149 
0.001343189696 0.0013334650987 0.001323849206 0.0013143399724 0.0013049504901 0.0012956518992 0.0012864560777 0.0012773612786 0.0012683665318 
0.0012594709546 0.0012506719686 0.001241968173 0.0012333583727 0.0012248416567 0.0012164140236 0.0012080763661 0.0011998264387 0.0011916622585 
0.001183581848 0.0011755836466 0.0011676669872 0.0011598297441 0.0011520693218 0.0011443851127 0.0011367757286 0.0011292390421 0.0011217737423 
0.0011143797648 0.0011070558889 0.0010998003137 0.0010926133259 0.0010854938205 0.0010784413185 0.0010714556422 0.0010645356387 0.0010576814959 
0.0010508929742 0.0010441696362 0.001037511707 0.0010309181467 0.001024388999 0.0010179241621 0.0010115234743 0.0010051855193 0.00099891004685 
0.00099269659142 0.00098654344254 0.00098045152192 0.00097441910635 0.00096844485568 0.00096252798115 0.00095665353692 0.00095084700877 0.00094509580383 
0.00093939834343 0.00093375339874 0.00092815993033 0.00092261656907 0.00091712332069 0.00091167983086 0.0009062857545 0.00090094075524 0.00089564394757 
0.00148693865 0.0014755527846 0.0014643344976 0.0014532408836 0.0014422708578 0.0014314331227 0.0014207085695 0.0014101044496 0.0013996197224 
0.0013892531803 0.0013790026526 0.0013688671975 0.0013588455978 0.0013489366472 0.0013391391372 0.0013294504985 0.0013198704458 0.0013103973864 
0.0013010420842 0.0012917779718 0.0012826166989 0.0012735558161 0.0012645945582 0.0012557314202 0.0012469650427 0.0012382932817 0.0012297149016 
0.0012212282841 0.0012128309881 0.001204522968 0.0011963013248 0.0011881649417 0.0011801119341 0.0011721407976 0.0011642495842 0.0011564366359 
0.0011487009715 0.0011410408571 0.0011334546514 0.0011259400228 0.0011184978345 0.0011111263076 0.001103824153 0.0010965915834 0.0010894268373 
0.0010823294427 0.0010752996878 0.0010683357589 0.0010614384725 0.0010546070758 0.0010478412233 0.0010411408187 0.0010345054619 0.0010279349084 
0.001021428307 0.001014986854 0.0010086084567 0.0010022925403 0.00099603910202 0.00098984665034 0.0009837156157 0.00097764431905 0.0009716320175 
0.00096567718112 0.00095977954235 0.00095392376493 0.00094813493811 0.00094240143633 0.00093672146206 0.00093109412447 0.00092551706229 0.00091999035957 
0.00091451448764 0.00090908850713 0.0009037113622 0.00089838351029 0.0014939322073 0.0014824943456 0.0014711456528 0.0014599634745 0.0014489057682 
0.0014379824846 0.0014271735685 0.0014164866913 0.0014059200547 0.0013954729121 0.0013851429412 0.0013749293333 0.0013648313037 0.00135484643 
0.0013449733868 0.0013352119592 0.0013255592566 0.0013160152539 0.0013065886736 0.0012972556093 0.0012880251044 0.0012788971092 0.0012698698565 
0.0012609414635 0.0012521111796 0.0012433766085 0.0012347367057 0.0012261889672 0.0012177321813 0.0012093652085 0.001201085583 0.0011928920491 
0.0011847827855 0.0011767563128 0.0011688108149 0.0011609443557 0.0011531557298 0.0011454449622 0.0011378077873 0.0011302429259 0.0011227517849 
0.0011153321019 0.0011079826018 0.0011007026017 0.0010934915198 0.0010863484359 0.0010792734075 0.0010722652964 0.0010653234071 0.0010584479172 
0.0010516382269 0.0010448945857 0.0010382162568 0.0010316029358 0.0010250545364 0.001018570729 0.001012150166 0.0010057931136 0.0009994985917 
0.00099326640326 0.00098709537851 0.00098098498837 0.00097493370867 0.00096894022222 0.00096300474134 0.00095711161095 0.00095128790585 0.00094551664202 
0.00093980098631 0.00093413801965 0.00092852739084 0.00092296713771 0.00091745752614 0.00091199826573 0.00090658880986 0.00090122880041 0.0015011137609 
0.0014895817854 0.0014781405381 0.0014668679286 0.0014557219969 0.001444710723 0.0014338154996 0.0014230438593 0.0014123939348 0.0014018642588 
0.0013914533624 0.001381160585 0.0013709835908 0.0013609206313 0.0013509719676 0.0013411352126 0.001331408992 0.0013217921861 0.0013122933673 
0.0013028891314 0.0012935903244 0.0012843943513 0.0012752991876 0.0012663049964 0.0012574093695 0.0012486103284 0.0012399079941 0.0012312987103 
0.0012227810881 0.0012143546367 0.0012060157646 0.0011977647703 0.0011895984445 0.001181516128 0.0011735155048 0.0011655950069 0.0011577537333 
0.0011499903876 0.0011423015457 0.0011346856511 0.0011271446514 0.0011196754331 0.0011122773868 0.0011049496273 0.0010976911246 0.0010905011689 
0.0010833795752 0.001076325675 0.0010693383115 0.0010624175186 0.0010555629729 0.0010487752975 0.001042052731 0.0010353956044 0.001028803572 
0.0010222764182 0.0010158135615 0.001009414717 0.0010030784154 0.00099680476579 0.00099059360879 0.0009844427706 0.00097835172273 0.0009723197176 
0.00096634553028 0.00096041485215 0.00095455325324 0.00094874510665 0.00094299368265 0.00093729485728 0.00093164876759 0.00092605440753 0.00092051089159 
0.00091501718038 0.00090957421733 0.00090418117686 0.0015084843802 0.0014968563736 0.0014853603175 0.0014739562343 0.0014627191097 0.001451610181 
0.0014406355262 0.0014297769866 0.0014190414229 0.0014084280987 0.0013979348118 0.0013875601359 0.0013773028789 0.0013671625197 0.0013571359798 
0.0013472231764 0.0013374220694 0.0013277305524 0.0013181485226 0.0013086827061 0.0012993126304 0.0012900474715 0.001280884448 0.001271822688 
0.0012628609187 0.0012539974137 0.0012452309095 0.0012365594534 0.0012279795734 0.0012194927442 0.0012110948627 0.001202784622 0.0011945606315 
0.0011864216163 0.0011783652334 0.0011703899581 0.0011624949555 0.0011546775729 0.0011469362033 0.0011392691498 0.0011316770053 0.0011241578587 
0.0011167098085 0.0011093329335 0.0011020262361 0.001094788562 0.0010876193128 0.0010805180807 0.0010734841179 0.0010665168216 0.0010596165081 
0.0010527832788 0.0010460157905 0.0010393139803 0.0010326774042 0.0010261058619 0.0010195996819 0.0010131577379 0.0010067789388 0.0010004632563 
0.00099421036794 0.00098801906079 0.00098188759857 0.00097581582105 0.0009698030256 0.00096384731522 0.0009579341809 0.00095209042558 0.00094630005403 
0.0009405651114 0.00093488273826 0.00092925316209 0.00092367485481 0.00091814650324 0.00091266874852 0.00090724165228 0.0015160477854 0.0015043166571 
0.0014927250339 0.0014812265185 0.0014698968599 0.0014586967918 0.0014476321064 0.0014366848044 0.0014258631422 0.0014151638075 0.0014045859172 
0.0013941286195 0.0013837904631 0.001373569431 0.0013634643701 0.0013534736793 0.0013435960578 0.0013338293399 0.0013241730803 0.0013146339817 
0.0013051926272 0.0012958572718 0.0012866246179 0.0012774949921 0.0012684663554 0.0012595366408 0.0012507057428 0.0012419703308 0.0012333283088 
0.0012247799058 0.0012163209397 0.0012079514504 0.0011996689554 0.0011914725826 0.0011833597245 0.0011753283264 0.0011673783481 0.0011595057413 
0.0011517119948 0.0011439922765 0.0011363483616 0.0011287779973 0.0011212794579 0.0011138524308 0.0011064963734 0.0010992098099 0.0010919918043 
0.0010848426253 0.0010777601674 0.001070745809 0.0010637987852 0.0010569185529 0.0010501048401 0.0010433568484 0.00103667472 0.0010300588837 
0.0010235080603 0.0010170218601 0.0010105999503 0.0010042420391 0.00099794639649 0.00099171316147 0.00098554112302 0.00097942894531 0.00097337594143 
0.00096738106186 0.00096143048004 0.00095554872549 0.00094972204964 0.0009439483739 0.0009382294177 0.00093256359211 0.00092694891848 0.00092138521382 
0.00091587193032 0.00091041002679 0.0015237931349 0.0015119679308 0.001500272427 0.0014887168564 0.0014772540478 0.0014659598315 0.0014548033587 
0.0014437668782 0.0014328567287 0.001422070299 0.0014114071786 0.0014008650333 0.0013904438144 0.0013801413136 0.0013699554243 0.0013598860293 
0.0013499299803 0.0013400869739 0.0013303554713 0.0013207414037 0.0013112274416 0.0013018202141 0.0012925174737 0.0012833189645 0.0012742224672 
0.0012652265136 0.0012563298476 0.0012475295421 0.0012388240655 0.001230212676 0.0012216929874 0.0012132629341 0.0012049216622 0.0011966666373 
0.0011884956671 0.0011804082701 0.0011724020456 0.0011644748183 0.0011566267492 0.0011488538084 0.001141157065 0.0011335338628 0.0011259841645 
0.0011185064648 0.0011110991294 0.0011037623307 0.0010964949901 0.001089296551 0.0010821659464 0.0010751030478 0.0010681074105 0.0010611794616 
0.0010543179035 0.0010475229593 0.0010407946418 0.001034132461 0.001027536429 0.0010210051783 0.0010145394201 0.0010081378206 0.0010017996579 
0.00099552375794 0.00098930991253 0.00098315655849 0.00097706359463 0.00097102901673 0.00096503952187 0.00095911970487 0.00095325458938 0.00094744462569 
0.00094168689342 0.00093598357192 0.0009303323144 0.00092473191511 0.00091918271485 0.00091368501208 0.001531720441 0.001519793783 0.0015079983616 