# vtk DataFile Version 5.1
vtk output
ASCII
DATASET STRUCTURED_POINTS
DIMENSIONS 26 14 26
SPACING 0.08 0.08 0.08
ORIGIN 2.7 -0.52 0
POINT_DATA 9464
FIELD FieldData 1
potential 1 9464 double
0.010373367104 0.010557585081 0.010727154826 0.010877712533 0.011010781105 0.011137687463 0.011269599043 0.011408281362 0.011543603793 
0.01165772354 0.011738028683 0.011785036695 0.011804666799 0.011803167841 0.011788249833 0.011764363106 0.011731539917 0.011691626024 
0.011645311714 0.011584520259 0.011498051946 0.011380588755 0.011233014603 0.011063009061 0.010882817854 0.010701172522 0.011965645503 
0.012180614607 0.01238241823 0.012569288232 0.012741965279 0.012903762863 0.013057743582 0.013203460192 0.013335983101 0.013447935916 
0.013533656643 0.013591702994 0.013623785731 0.013632960677 0.013622620497 0.013595239898 0.013552001415 0.013493453296 0.013418854886 
0.013325114698 0.013208396451 0.013066750345 0.012901247068 0.01271595554 0.012516495945 0.012307288241 0.013335505947 0.01358124498 
0.013813898209 0.014032069514 0.014235370568 0.01442422331 0.0145987512 0.014757731569 0.014898238601 0.015016501784 0.015109440148 
0.015175651145 0.015215346222 0.015229759429 0.015220486764 0.015188937473 0.015136013176 0.015062138897 0.014967006063 0.014849592954 
0.014708850732 0.014544557926 0.014357955598 0.014151685295 0.01392905137 0.013693056286 0.014545864229 0.014821883286 0.015084141843 
0.015331096534 0.015561597603 0.015774780769 0.015969600257 0.016144482192 0.016297215959 0.016425367412 0.016526860979 0.016600449412 
0.016645759256 0.016663141855 0.016653312433 0.01661706156 0.016555092863 0.016467877191 0.016355602267 0.016218343793 0.016056280952 
0.01587011392 0.015661277189 0.015431932941 0.015184614208 0.014921834609 0.015605454902 0.015911147036 0.016202142329 0.016476622541 
0.016732948579 0.016969542189 0.017184796526 0.017376895331 0.017543830071 0.017683619931 0.017794555775 0.017875413714 0.017925589658 
0.017944955388 0.017933786953 0.017892580589 0.01782191398 0.01772234322 0.017594508259 0.017439053274 0.017256856479 0.017049140281 
0.016817592598 0.016564291757 0.016291596061 0.016001904802 0.016515760988 0.016850488393 0.017169553779 0.017470866922 0.017752386118 
0.018012104913 0.018248016812 0.01845807813 0.01864025156 0.018792648017 0.018913583698 0.019001828794 0.019056586534 0.019077482677 
0.019064592488 0.01901823268 0.018938943885 0.018827473627 0.018684706243 0.018511722146 0.018309811888 0.018080605963 0.017826033265 
0.017548321407 0.017249892481 0.016933220513 0.017245971078 0.017608363242 0.017954305401 0.018281412776 0.018587295839 0.018869603454 
0.019125999416 0.019354152896 0.019551877206 0.019717153861 0.019848245428 0.019943785277 0.020002815837 0.020024862766 0.020009812098 
0.01995798735 0.019869941476 0.019746543974 0.019588950758 0.019398532664 0.019176940724 0.018926115664 0.01864832204 0.01834597324 
0.018021703851 0.017678161553 0.017838858266 0.018229784383 0.01860350544 0.018957392434 0.019288782991 0.019595000552 0.019873354971 
0.020121236797 0.02033619975 0.02051602067 0.020658793747 0.020762962734 0.020827483781 0.020851697955 0.020835501033 0.020779112288 
0.020683248798 0.020548958155 0.020377610947 0.020170816489 0.019930570425 0.019659107146 0.01935899455 0.019032978894 0.018684013443 
0.018314982256 0.018309853514 0.018727051549 0.019126595434 0.019505679195 0.019861346411 0.020190538576 0.020490209818 0.020757434961 
0.02098938653 0.021183560267 0.021337817102 0.021450413592 0.021520121853 0.021546187556 0.021528361236 0.021467044402 0.021363038062 
0.021217635373 0.021032406861 0.020809258803 0.020550407156 0.020258371656 0.019936085782 0.01958674148 0.019213653409 0.018820101683 
0.018605532091 0.019046376519 0.019469513863 0.019871927537 0.02025042958 0.020601625371 0.020922046574 0.021208233355 0.021456977762 
0.021665453977 0.021831177111 0.021952202692 0.022027075681 0.022054896162 0.022035363505 0.02196897921 0.021856878606 0.021700583959 
0.021501945901 0.021263040558 0.0209862791 0.020674481865 0.020330942917 0.019959383835 0.019563743505 0.019147835588 0.018677207149 
0.019137433714 0.019580344146 0.020002869057 0.020401709215 0.020773104804 0.021112971372 0.021417227591 0.021682059458 0.021904249553 
0.022081145167 0.022210471182 0.022290468333 0.022319843465 0.022298422524 0.022226882485 0.022106795649 0.021940189582 0.021729199799 
0.021475975927 0.021182954334 0.020853064814 0.020489982697 0.020098188109 0.019682672077 0.019248106157 0.018460714145 0.018933083135 
0.01938925152 0.019826396223 0.02024119157 0.020629611712 0.020986709724 0.021307204065 0.021586457165 0.021820977906 0.022008104678 
0.022145366211 0.022230337747 0.022261169131 0.022237413384 0.022160262557 0.022032308739 0.021856533343 0.021635420257 0.021370824535 
0.021064763393 0.02071993025 0.020340182582 0.019931165434 0.01949983603 0.01905266592 0.017875871157 0.018348002234 0.01880642533 
0.01924868317 0.019671800286 0.020072096322 0.020442982854 0.02077653689 0.021066852494 0.021310547387 0.021505867966 0.021650472963 
0.021740714863 0.021772822747 0.021745662198 0.021661540949 0.02152540473 0.021342621966 0.021116041887 0.0208459365 0.020533106765 
0.020179309888 0.01978748789 0.019364856922 0.018923251261 0.018473409501 0.016720349052 0.017169953527 0.01761208082 0.018042439093 
0.018459154348 0.018863719573 0.019244916843 0.019586628577 0.019880966884 0.020126501023 0.02032552109 0.020477493633 0.020575144281 
0.020608923354 0.02057571419 0.02048027176 0.0203331336 0.020147028485 0.019925515748 0.019661507942 0.019353656474 0.019003538982 
0.018606914628 0.018172029704 0.017725589832 0.017289641893 0.010566711471 0.010752521999 0.010924380685 0.011078715693 0.011216956851 
0.011348183661 0.011481448396 0.011618034074 0.01174916991 0.011859778775 0.01193912078 0.011987146037 0.012008765484 0.012009541395 
0.011995991546 0.011972053687 0.011938206323 0.011895897838 0.011845204266 0.011779334132 0.011689033376 0.011569699382 0.011422178571 
0.011253222254 0.011073432327 0.010890572592 0.012149758909 0.012366190686 0.012569672794 0.012758555205 0.012933407099 0.013096981993 
0.013251790703 0.013397257777 0.013528868439 0.013639975048 0.013725435346 0.013783820757 0.013816579961 0.013826447733 0.013816479534 
0.013788948605 0.013745007591 0.013685149477 0.013608645539 0.013512786501 0.013394240921 0.013251343385 0.013085159075 0.012899477514 
0.012699446833 0.012489236719 0.013517008257 0.013764051511 0.013998034469 0.014217571292 0.014422184768 0.014612121537 0.014787347611 
0.014946607111 0.015087108858 0.015205306895 0.015298293981 0.015364704647 0.015404676049 0.015419319198 0.015410103223 0.015378349562 
0.015324920477 0.015250233949 0.015154039805 0.015035443778 0.014893568074 0.014728297995 0.014540879402 0.014333856654 0.014110398975 
0.013873421015 0.01472084117 0.014998091573 0.015261542492 0.015509642701 0.015741200023 0.015955288497 0.01615080744 0.016326173475 
0.016479227429 0.016607604869 0.016709298495 0.016783081175 0.016828553905 0.016846023979 0.016836150445 0.016799682898 0.016737311743 
0.016649504974 0.016536481909 0.016398376736 0.016235436051 0.016048389492 0.015838693072 0.015608473766 0.015360219642 0.015096410644 
0.015779670712 0.01608663411 0.016378840739 0.016654458401 0.016911827555 0.017149342403 0.01736537395 0.017558102241 0.017725534483 
0.017865717533 0.017976965425 0.018058062294 0.018108398394 0.018127822093 0.018116589256 0.018075177009 0.01800415509 0.017904092246 
0.017775612599 0.017619422611 0.017436416024 0.017227831599 0.016995367431 0.016741099276 0.016467364418 0.016176554072 0.016697419979 
0.017033609634 0.017354064502 0.017656686174 0.017939412707 0.018200221478 0.018437098339 0.018647990628 0.018830866454 0.018983845018 
0.019105251013 0.019193856939 0.019248861833 0.019269883547 0.019256976962 0.019210476223 0.019130893658 0.019018987332 0.018875651098 
0.018701978276 0.018499277252 0.018269193142 0.018013656226 0.017734897773 0.017435337654 0.017117449891 0.017471008759 0.017835919526 
0.018184232611 0.018513557448 0.018821507556 0.019105712158 0.019363835962 0.019593543737 0.019792659571 0.019959157136 0.020091303429 
0.02018772597 0.020247495391 0.020270097427 0.020255441918 0.020203810031 0.020115797313 0.019992263754 0.01983435481 0.019643467641 
0.019421255064 0.019169683977 0.018891013912 0.018587667754 0.018262284872 0.017917516995 0.018105518907 0.018498527743 0.018874254421 
0.01923001516 0.019563140561 0.019870942579 0.020150712944 0.020399841725 0.020615872667 0.020796579691 0.020940055745 0.021044751212 
0.021109589843 0.021133939124 0.02111767407 0.021061029929 0.02096470329 0.020829749302 0.020657549687 0.020449706963 0.02020824423 
0.019935408807 0.01963375636 0.019306061593 0.018955277532 0.018584297648 0.018596954532 0.019016782288 0.019418832555 0.019800271591 
0.020158099328 0.020489273623 0.020790718333 0.021059490739 0.021292770457 0.021488036147 0.021643146204 0.021756365373 0.021826441178 
0.021852638505 0.021834690502 0.021772985271 0.021668345375 0.021522040597 0.021335658213 0.021111115432 0.020850643111 0.020556787946 
0.020232454842 0.019880897807 0.019505415559 0.019109276615 0.018916081335 0.019360421179 0.019786886502 0.020192421357 0.020573812829 
0.020927615729 0.021250373645 0.021538602135 0.021789099063 0.021999011002 0.022165874474 0.02228771211 0.022363083958 0.022391059687 
0.022371371378 0.022304505902 0.022191562439 0.022034070113 0.021833889359 0.021593117906 0.021314184822 0.020999943072 0.02065371683 
0.020279212487 0.019880374031 0.019461006268 0.019019378692 0.019484448815 0.019931961965 0.020358807496 0.020761605713 0.021136555272 
0.021479588617 0.021786618732 0.022053827422 0.022277990353 0.022456424845 0.022586861605 0.022667503539 0.022697136075 0.022675537856 
0.022603378933 0.022482182859 0.022313967673 0.022100850355 0.021845040926 0.021549036055 0.021215818062 0.020849087705 0.020453327075 
0.020033453897 0.019594118667 0.01884643275 0.019325809397 0.019788643809 0.020231997244 0.020652421956 0.021045828475 0.021407285644 
0.021731607172 0.022014187412 0.022251498114 0.022440789815 0.022579564666 0.022665416567 0.022696606837 0.022672697329 0.022594818286 
0.022465434179 0.022287414448 0.022063248061 0.021794915977 0.021484564646 0.021135039549 0.020750261318 0.020335829288 0.019898473147 
0.019444476797 0.018302925829 0.018785884552 0.019254508862 0.019706195717 0.020137735557 0.020545164115 0.020922085139 0.021261010663 
0.021556167453 0.021804025552 0.022002514997 0.022149153892 0.022240481872 0.02227308879 0.022245926082 0.022161164736 0.022023322275 
0.021837323721 0.021606020572 0.021330127647 0.021010778593 0.02065000242 0.020251115565 0.019821185945 0.019371196648 0.018911134234 
0.017216715219 0.017684970227 0.018143927228 0.01858993285 0.019020645799 0.019435474792 0.019824391667 0.020173590716 0.020475482627 
0.02072798371 0.020932073953 0.021086487926 0.021184816623 0.021219034488 0.021186537879 0.021091564561 0.020943316015 0.020752476101 
0.020522419853 0.020248472244 0.019929868658 0.019568104086 0.019161361588 0.018717966959 0.018260476484 0.017808000549 0.011071222941 
0.011261802369 0.011439786512 0.011602931246 0.011752213106 0.01189266738 0.012029300101 0.012162378275 0.012285852939 0.012389960852 
0.012467558393 0.012517812144 0.01254363914 0.012548982506 0.012538122964 0.012513921228 0.012477355118 0.012429194823 0.012368797557 
0.012291843366 0.012192758872 0.012068575442 0.011920115273 0.011752242741 0.011572291755 0.011385966302 0.012547817876 0.012768463971 
0.012976580288 0.013170740059 0.013351091297 0.01351916833 0.013676278886 0.013821570989 0.013951456638 0.014060902053 0.014145929181 
0.014205187355 0.014239546239 0.014250985378 0.014241786507 0.01421375139 0.01416789981 0.014104619785 0.014023323008 0.013922137115 
0.013798869796 0.013652533462 0.013484194741 0.013296965439 0.013094999572 0.012881816221 0.013868169214 0.014118970176 0.014356731887 
0.014580070289 0.014788297775 0.014981239013 0.015158481313 0.015318699101 0.015459416681 0.015577636487 0.015670869489 0.015737846991 
0.015778529386 0.01579372288 0.015784592529 0.015752218738 0.015697373546 0.01562046237 0.015521381465 0.015399578159 0.01525456836 
0.015086516164 0.0148966791 0.014687366683 0.014461431343 0.014221539935 0.015050735126 0.015331554553 0.015598448098 0.015849835628 
0.016084413392 0.016301097234 0.016498651288 0.016675476537 0.016829528651 0.0169586276 0.017060938174 0.017135283922 0.017181205446 
0.017198885399 0.017188851117 0.017151747235 0.01708821567 0.016998723152 0.016883583604 0.016743080168 0.016577602167 0.016388018804 
0.01617579117 0.015942981895 0.015691952942 0.015425109914 0.016106283598 0.016416934322 0.016712646378 0.016991551921 0.017251935076 
0.017492106531 0.0177103943 0.017904953591 0.018073841562 0.018215170171 0.018327324798 0.01840909353 0.01845986166 0.018479420274 
0.018467963472 0.01842592321 0.018353836756 0.018252296758 0.0181219637 0.01796362125 0.017778223791 0.017567084922 0.017331910998 
0.017074762504 0.016797941549 0.016503811562 0.017038208749 0.017378532481 0.017702909035 0.018009202397 0.0182953097 0.018559154355 
0.018798698685 0.019011870024 0.019196647198 0.019351173309 0.019473802092 0.019563295235 0.019618847957 0.019640058801 0.01962694776 
0.019579829929 0.019499205277 0.019385849139 0.019240661958 0.019064793348 0.018859593191 0.018626729768 0.018368164395 0.018086123708 
0.017783039983 0.01746137204 0.017845756315 0.018215576076 0.018568553937 0.01890225647 0.019214252665 0.019502126813 0.019763521477 
0.019996084036 0.020197623776 0.020366123442 0.020499845931 0.020597431877 0.020657933656 0.02068080785 0.020665963685 0.020613668664 
0.020524509989 0.020399363871 0.020239393163 0.020046020612 0.019820923177 0.019566106232 0.019283838019 0.018976570569 0.018646942792 
0.018297636964 0.018526037353 0.018925029331 0.01930644638 0.019667547482 0.020005619443 0.020317908915 0.020601698744 0.020854345103 
0.021073376597 0.021256554022 0.021401971331 0.021508071959 0.021573749537 0.021598388013 0.021581816398 0.021524320692 0.021426537504 
0.021289553289 0.021114749841 0.020903784291 0.020658668588 0.020381715272 0.02007549579 0.019742820349 0.019386632332 0.019009880814 
0.01906945358 0.019496877313 0.019906176513 0.020294421401 0.020658543805 0.020995454789 0.021302019944 0.021575276223 0.021812393142 
0.022010823432 0.022168413087 0.022283396263 0.022354523799 0.022381064409 0.02236273992 0.022299900564 0.022193381105 0.022044446587 
0.021854695779 0.02162608939 0.021360881496 0.021061689452 0.020731446266 0.02037341348 0.019990925646 0.01958727881 0.019454679758 
0.019909099001 0.020345180125 0.020759728457 0.021149445701 0.021510811777 0.021840311429 0.02213446699 0.022390025815 0.022604114908 
0.022774236032 0.022898421745 0.02297521922 0.023003647143 0.02298350006 0.022915185558 0.022799813155 0.022638861264 0.022434205074 
0.022188026029 0.021902820775 0.021581524713 0.021227489016 0.02084444352 0.02043633501 0.020006985846 0.019648529412 0.020127424371 
0.020588128119 0.021027332234 0.021441471098 0.021826666824 0.022178821432 0.02249382284 0.022767878236 0.022997727243 0.023180582069 
0.023314192699 0.023396746163 0.023427088687 0.02340495306 0.023330979787 0.023206576929 0.023033711197 0.0228144964 0.022551275776 
0.022246714969 0.021903914472 0.021526686879 0.021119481965 0.020687084914 0.020234087902 0.019604879625 0.020103966613 0.020585596752 
0.021046479437 0.021482880873 0.021890490587 0.0222644395 0.022599734226 0.02289183386 0.023137090135 0.023332554183 0.023475653969 
0.023564090276 0.023596287559 0.023571864789 0.023491805723 0.023358246072 0.023173817845 0.022941012929 0.022662120091 0.022339632991 
0.021976748046 0.021577593921 0.021147597469 0.020693027137 0.020219793155 0.019257632159 0.019770143026 0.020266768696 0.020744418644 
0.021199277859 0.021626878904 0.022021130734 0.022375422952 0.022684242654 0.022943706389 0.023151078934 0.023303628956 0.023398258196 
0.023432269786 0.023404912296 0.023317908395 0.023174851426 0.022979761138 0.022735500307 0.022443721732 0.022106369788 0.021726152428 
0.021307177809 0.020856153074 0.020382272533 0.019894056232 0.018522387107 0.019038253754 0.019541243724 0.020028064223 0.02049529032 
0.020939156686 0.02135157376 0.021722505062 0.022045073011 0.0223159179 0.022533589619 0.022695663904 0.022797247543 0.022833102316 
0.022801658852 0.022705960027 0.022552499951 0.022348393882 0.022096819916 0.0217971466 0.021450102097 0.021057779987 0.020622299774 
0.020151829819 0.019661789392 0.019165929286 0.011760326351 0.011958314917 0.012144674007 0.012317966653 0.012478487867 0.012628272421 
0.012769219045 0.012900781374 0.013019164304 0.013118792594 0.013195406703 0.013247921202 0.013277641675 0.013286866133 0.013278074057 
0.013253130092 0.013212970321 0.013157991931 0.013087511031 0.012999268604 0.012890552182 0.012759990261 0.012608441069 0.012439153019 
0.012256740546 0.012065064443 0.013112717181 0.013339795819 0.013554599146 0.013755849899 0.013943206447 0.014117056522 0.014277568369 
0.014423653678 0.014552637098 0.014661040063 0.014746042152 0.01480644917 0.014842565351 0.014855576421 0.014846953739 0.014817976858 
0.014769458141 0.014701727823 0.014614449613 0.014506642591 0.014377227972 0.014225941441 0.014053872312 0.013863462088 0.013657858767 
0.013439907007 0.014366640781 0.014623240557 0.014866702565 0.015095631348 0.015309069793 0.015506389377 0.01568676653 0.015848811732 
0.015990398872 0.016109131143 0.01620298857 0.016270826132 0.016312413774 0.01632820916 0.016319005754 0.016285613711 0.016228681219 
0.01614860831 0.016045489139 0.015919184487 0.015769650777 0.015597378093 0.015403647797 0.015190520709 0.014960474783 0.014715902358 
0.015518536199 0.015804933195 0.016077166583 0.016333601896 0.016572803038 0.016793481606 0.016994249455 0.017173474323 0.017329266203 
0.017459666058 0.017563041261 0.017638265502 0.017684823336 0.017702745141 0.017692383404 0.017654251145 0.017588930142 0.017496890706 
0.017378572687 0.0172344404 0.017065094022 0.016871544332 0.016655288828 0.016418284958 0.016162779111 0.015891061167 0.016568821757 
0.016885266992 0.017186473192 0.01747051916 0.017735594251 0.017979929818 0.018201758962 0.018399232428 0.018570455366 0.01871362561 
0.018827217713 0.018910038764 0.018961427601 0.018981137215 0.018969280093 0.018926194619 0.018852416962 0.018748541069 0.018615302844 
0.018453569997 0.018264398661 0.018049186379 0.017809661599 0.017547875219 0.017266079415 0.016966606266 0.017517093839 0.017863875882 
0.018194370834 0.01850637532 0.018797729686 0.019066291873 0.019309971316 0.019526678942 0.019714399137 0.019871298508 0.019995776208 
0.02008657258 0.020142881097 0.02016427914 0.020150742418 0.020102539543 0.020020165498 0.019904404116 0.019756208751 0.019576764399 
0.019367511183 0.019130132753 0.018866641289 0.018579278418 0.018270453371 0.01794265214 0.018361116294 0.018738547192 0.019098736364 
0.019439193601 0.01975742115 0.020050940763 0.020317337817 0.020554251982 0.020759474379 0.020930981094 0.021067042974 0.0211662998 
0.021227766595 0.021250915783 0.021235615029 0.021182084596 0.021090952993 0.02096310312 0.020799704619 0.020602231059 0.020372410723 
0.020112280738 0.019824144137 0.019510481628 0.019173967478 0.018817298537 0.019096222889 0.019504554194 0.019894823737 0.020264267654 
0.020610032912 0.020929324682 0.02121934857 0.021477459261 0.021701134253 0.021888133139 0.022036523957 0.022144748474 0.022211673677 
0.022236667616 0.022219548159 0.022160611904 0.022060448 0.021920165409 0.021741177961 0.021525198832 0.021274270168 0.020990731831 
0.0206772457 0.020336629953 0.019971843981 0.019585903654 0.019713468313 0.020152758624 0.020573372798 0.020972226519 0.021346171198 
0.021692017651 0.022006589135 0.022286845028 0.022529942841 0.022733309854 0.022894733309 0.023012478742 0.023085215964 0.023112231408 
0.023093273331 0.023028627755 0.022919133764 0.022766034885 0.022570980201 0.022335965678 0.0220633267 0.021755745647 0.021416214062 
0.021048006824 0.020654516894 0.020239102191 0.020197829792 0.020667819138 0.021118746454 0.021547257684 0.021949861504 0.022322954503 
0.022662935564 0.022966272497 0.023229696544 0.023450257417 0.023625453276 0.023753273476 0.023832225379 0.023861373325 0.023840473735 
0.023769888018 0.023650686993 0.023484322235 0.023272723201 0.023018156894 0.022723208488 0.022390933925 0.022024752533 0.021628437196 
0.021205922481 0.020761088284 0.020527870355 0.021027753146 0.021508534408 0.021966575898 0.022398079981 0.02279898402 0.023165141374 
0.023492411858 0.023777032759 0.024015598772 0.024205285156 0.024343777262 0.024429260526 0.024460638958 0.024437620982 0.02436077529 
0.024231405251 0.024051354626 0.023822812826 0.023548274136 0.023230588674 0.022873100665 0.022479729699 0.022054888501 0.021603278001 
0.021129451565 0.02067687023 0.021205155372 0.021714696031 0.022201685081 0.022662005986 0.023091088162 0.023484073505 0.023836095261 
0.024142639131 0.024399891353 0.024604725812 0.024754461641 0.024846867264 0.024880591396 0.024855226016 0.024771597076 0.024631514981 
0.024437349208 0.024191621054 0.023896982363 0.023556366294 0.023173377059 0.022752340132 0.022298615075 0.021817989131 0.021316072018 
0.020613808212 0.021168236139 0.021704806988 0.022219671564 0.022708358456 0.023165858675 0.023586333201 0.023963758854 0.024292802758 
0.024569271481 0.024789810003 0.024951433175 0.025051337886 0.025087508895 0.025059377692 0.024968196771 0.024816687164 0.024608068921 
0.024345258622 0.024030774813 0.02366749876 0.023258946064 0.022809898197 0.022326717323 0.021817153125 0.021288411787 0.020317648911 
0.02089571498 0.021457483141 0.021998992149 0.022515557015 0.023001757604 0.023450481572 0.023853983557 0.024205895454 0.024501823475 
0.02473856683 0.024912908701 0.02502108944 0.025059893202 0.025028368879 0.02492854942 0.024764613188 0.02454125967 0.024261735803 
0.02392801187 0.023542531977 0.023108682598 0.022631021664 0.022117257422 0.021578154181 0.021023684132 0.012543169411 0.012750117835 
0.012945731716 0.013128867755 0.013299212969 0.013457138436 0.013602844084 0.013735381772 0.013852303719 0.013950425264 0.01402719578 
0.014081620861 0.014114065388 0.014125678677 0.014117796267 0.01409156067 0.014047666853 0.013986394237 0.013907398204 0.013809691893 
0.013692276891 0.013554827869 0.013398295227 0.013224902175 0.013037626194 0.012839166258 0.013789084339 0.014024064233 0.014246710135 
0.014455783871 0.01465052565 0.01483052546 0.014995207186 0.015143346093 0.015272905694 0.015381501556 0.01546714546 0.015528804248 
0.015566406729 0.015580514687 0.015571997116 0.01554167786 0.015490167161 0.015417797162 0.015324526667 0.015210053092 0.0150741332 
0.014917038902 0.014739904213 0.014544689193 0.014333819763 0.014109630438 0.01497898241 0.015242863238 0.015493347102 0.015728987997 
0.015948595367 0.016151155914 0.016335541977 0.016500311335 0.016643637842 0.016763599484 0.016858542242 0.016927454805 0.016969962138 
0.01698621206 0.016976681162 0.016941931685 0.016882496599 0.016798801215 0.01669112415 0.016559679268 0.016404832272 0.016227332846 
0.016028504563 0.01581019989 0.015574595471 0.015323866862 0.016100106348 0.016393641492 0.01667265331 0.016935441782 0.017180440665 
0.017406158304 0.017611093476 0.017793572179 0.017951836719 0.018084135074 0.018188996127 0.018265362708 0.01831266019 0.018330771396 
0.018319893664 0.018280410491 0.018212837051 0.018117680893 0.01799548052 0.017846888166 0.017672708174 0.017474084543 0.017252553596 
0.017010006892 0.016748553672 0.0164704085 0.017146350635 0.01747027773 0.017778558467 0.018069199943 0.018340298041 0.018589987868 
0.01881641413 0.019017718492 0.019192048805 0.01933768562 0.0194531528 0.019537331687 0.019589496299 0.019609342908 0.019596878805 
0.019552422192 0.019476445435 0.019369587108 0.019232639304 0.019066557007 0.018872526443 0.018652006184 0.018406778239 0.018138871158 
0.017850505801 0.0175439864 0.018113959368 0.018469099293 0.018807493317 0.019126867062 0.0194249808 0.01969962898 0.019948648088 
0.020169934538 0.020361478214 0.020521452077 0.020648289747 0.020740756324 0.020798001081 0.020819584603 0.020805401972 0.020755728976 
0.020671056852 0.020552149563 0.020400015931 0.020215917954 0.020001342124 0.019758047821 0.019488084208 0.019193703983 0.01887732128 
0.018541439341 0.018999484137 0.019386723705 0.019756204908 0.020105357182 0.020431598988 0.020732378512 0.021005222504 0.021247731679 
0.021457676417 0.021633036896 0.021772077731 0.021873427513 0.021936094268 0.021959503642 0.021943520715 0.021888352829 0.021794609232 
0.02166318555 0.021495293502 0.021292452069 0.021056439024 0.020789370657 0.020493543778 0.020171511277 0.019825969075 0.019459662982 
0.019798538606 0.020218856723 0.020620525845 0.021000637781 0.021356277322 0.021684545804 0.021982579855 0.022247676734 0.022477301169 
0.022669175986 0.02282134606 0.022932248487 0.023000716848 0.023026125551 0.023008263889 0.022947352901 0.022844097795 0.022699518475 
0.022515117583 0.022292608872 0.022034132748 0.021742089278 0.021419155551 0.021068227278 0.020692313395 0.020294479008 0.020504942375 
0.020959373053 0.021394378245 0.021806756516 0.022193204654 0.022550437731 0.022875202312 0.023164383895 0.023415094855 0.023624724602 
0.023791047235 0.023912242637 0.023987041247 0.024014644149 0.023994813907 0.023927798479 0.02381444006 0.023656011307 0.023454146007 
0.023210930162 0.022928767317 0.022610426311 0.022258978401 0.021877744884 0.02147016739 0.021039685556 0.021110138617 0.02159970036 
0.022069282556 0.022515355883 0.022934198704 0.023322077779 0.023675280852 0.023990219342 0.02426355773 0.024492306285 0.024673908288 
0.024806284276 0.024887955106 0.024917968839 0.024896026674 0.024822523589 0.0246984298 0.024525203793 0.024304826232 0.024039656847 
0.023732421033 0.023386253947 0.023004695458 0.022591590221 0.022150872533 0.021686525152 0.021603800537 0.022129585164 0.02263511127 
0.023116410868 0.023569412864 0.023989840156 0.024373446731 0.024716055363 0.025013804248 0.025263238765 0.025461428787 0.025605976149 
0.025695146761 0.025727779545 0.02570355951 0.02562301544 0.025487325064 0.025298297046 0.025058186622 0.024769616153 0.024435685475 
0.024059930071 0.023646404102 0.023199544271 0.022724055406 0.022224487754 0.021976613157 0.022539858495 0.023082849374 0.02360123212 
0.02409047342 0.024545752189 0.024962093796 0.025334625402 0.025658832604 0.025930740545 0.026147031674 0.026304909887 0.026402290795 
0.02643779418 0.026411071974 0.02632278416 0.026174488914 0.025968367283 0.025707046331 0.025393439238 0.0250309268 0.024623465235 
0.024175649083 0.023692748106 0.023180339892 0.022643897023 0.022223396242 0.022825857019 0.023408366855 0.023966280931 0.024494520784 
0.024987561788 0.025439611658 0.02584487791 0.026198029737 0.026494586489 0.026730797035 0.026903479458 0.027010032196 0.02704874849 
0.027019166768 0.026922207995 0.026759940125 0.026535164168 0.02625085302 0.025910186662 0.025516784451 0.025074933512 0.024589828043 
0.024067712268 0.023515495358 0.022939789381 0.022356826567 0.023001601425 0.023627136602 0.024228364796 0.024799592147 0.025334542563 
0.025826333342 0.026268034126 0.026653416692 0.026977401078 0.027235901017 0.027425241295 0.027542254882 0.027584614966 0.027551723425 
0.02744486514 0.027266888131 0.02702132763 0.026711622369 0.026341092191 0.025913533039 0.025433546733 0.024906882016 0.024340962976 
0.02374440926 0.023125504647 0.013368926899 0.013585394963 0.013790344711 0.013982669068 0.014161639147 0.014326787167 0.014477507318 
0.014612716192 0.014730666358 0.014829367636 0.014907173319 0.014963217786 0.014997429616 0.015010258913 0.015002397454 0.014974510419 
0.014927096095 0.014860414728 0.014774473241 0.014669049421 0.014544019768 0.014399679771 0.014237034803 0.014057774358 0.013864020741 
0.013657843543 0.014534488039 0.014778129769 0.015009125617 0.015226191297 0.015428271494 0.015614484058 0.015783838467 0.015935044419 
0.016066465819 0.016176355506 0.016263228932 0.016326190939 0.016364942616 0.016379657864 0.01637078965 0.016338850041 0.016284305116 
0.016207517825 0.016108676221 0.015987958477 0.015845633728 0.015682332302 0.015499229818 0.015298005449 0.015080655054 0.014849160323 
0.015672876994 0.015944965942 0.016203253944 0.016446223533 0.016672504474 0.016880807614 0.017069814481 0.017238054785 0.017383902704 
0.017505749276 0.01760221301 0.017672355386 0.017715709396 0.017732219085 0.017722112832 0.017685771188 0.017623652383 0.017536179946 
0.017423809024 0.017287037225 0.017126489862 0.016943152813 0.016738356324 0.016513840575 0.01627157608 0.016013573546 0.016769633092 
0.017071373222 0.017358136711 0.017628142572 0.017879700667 0.018111183621 0.018320967757 0.018507378736 0.01866873407 0.0188034426 
0.018910151797 0.018987851997 0.019035930461 0.019054150396 0.019042588013 0.019001527825 0.01893141278 0.018832790003 0.018706329874 
0.018552795187 0.018373164837 0.018168706991 0.017940988193 0.017691851632 0.017423342186 0.01713758813 0.017816179435 0.018148811425 
0.018465293163 0.018763563254 0.019041622708 0.019297509794 0.019529315636 0.019735139568 0.0199131845 0.020061771806 0.020179488986 
0.020265227692 0.02031825134 0.02033819287 0.020324998479 0.02027890728 0.020200388843 0.020090109211 0.019948907086 0.019777833204 
0.019578174173 0.019351470835 0.019099520038 0.018824377846 0.01852823092 0.01821336998 0.018807250756 0.019172128582 0.01951971286 
0.019847648321 0.020153615313 0.020435334396 0.020690573338 0.020917209079 0.021113221176 0.021276805241 0.021406403043 0.021500779206 
0.021559085178 0.021580819823 0.021565861112 0.021514433083 0.021427050225 0.021304470987 0.021147776226 0.020958236126 0.020737448416 
0.02048722171 0.02020964479 0.019906993108 0.019581700776 0.019236279981 0.019739186805 0.020137833481 0.02051809731 0.020877327676 