# vtk DataFile Version 5.1
vtk output
ASCII
DATASET STRUCTURED_POINTS
DIMENSIONS 20 20 40
SPACING 0.05 0.05 0.05
ORIGIN 3.225 -0.475 0.525
POINT_DATA 16000
FIELD FieldData 1
potential 1 16000 double
0.0035015563706 0.0034418371288 0.0033835128444 0.0033264749289 0.0031801792065 0.0031306764939 0.0030820503171 0.0030342378339 0.0029871888546 
0.0029408936617 0.0028953413291 0.0028505463589 0.0028065304968 0.0027633196993 0.0027209301073 0.0026793545949 0.002638583188 0.0025986115463 
0.0025593965035 0.0025209232295 0.0035454866785 0.0034844255349 0.0034248184598 0.0033665587881 0.0032194440692 0.0031689142891 0.003119274342 
0.0030704636675 0.0030224265649 0.0029751505767 0.0029286383116 0.0028828984623 0.0028379488055 0.0027938174734 0.0027505211642 0.0027080671892 
0.0026664455878 0.0026256375986 0.0025856117036 0.0025463476205 0.0035890883635 0.0035266597649 0.0034657445595 0.003406243492 0.0032582927258 
0.0032067303387 0.0031560678715 0.0031062412021 0.0030572107828 0.0030089465105 0.0029614566824 0.0029147581864 0.002868867779 0.002823811743 
0.002779610257 0.0027362697975 0.0026937807835 0.0026521260163 0.0026112856782 0.0025712221832 0.003632946746 0.0035691234615 0.0035068549962 
0.0034460714234 0.0032973181526 0.0032447045868 0.0031929981655 0.0031421397157 0.0030920888364 0.0030428170306 0.0029943378017 0.0029466573521 
0.0028998086844 0.0028538090618 0.0028086827982 0.0027644453472 0.0027210623705 0.0026785499463 0.0026368744013 0.0025959980437 0.0036776707195 
0.003612383903 0.0035487115579 0.0034865882405 0.0033370914291 0.0032834030066 0.0032306307937 0.0031787101532 0.0031276097163 0.003077310557 
0.0030278062589 0.0029791264056 0.0029312905644 0.0028843217897 0.0028382433086 0.0027930680119 0.0027487843828 0.0027053793784 0.0026628308719 
0.0026211170473 0.0037237223761 0.0036568836972 0.0035917860498 0.0035282755968 0.0033781444731 0.0033233477457 0.003269469225 0.0032164569969 
0.0031642755336 0.0031129086284 0.0030623535402 0.003012637663 0.0029637826976 0.0029158092218 0.0028687427301 0.0028226010916 0.0027773694995 
0.0027330315287 0.002689585604 0.0026469902338 0.0037715105488 0.0037030696081 0.0036364296943 0.0035715017643 0.0034209162127 0.0033649725197 
0.0033099574587 0.0032558162162 0.0032025165163 0.0031500436775 0.0030984037673 0.0030476054004 0.0029976888284 0.0029486701281 0.0029005715836 
0.0028534170235 0.0028071824646 0.0027618795873 0.0027174758641 0.0026739473089 0.003821310314 0.0037512105149 0.0036829743591 0.0036165316004 
0.003465750403 0.0034086360221 0.0033524428391 0.0032971331492 0.0032426709047 0.0031890475243 0.0031362670354 0.0030843460304 0.0030333161715 
0.0029832017325 0.0029340214184 0.0028857961191 0.0028385147242 0.0027921770703 0.0027467669771 0.0027022682827 0.0038733135646 0.0038014819833 
0.0037316021861 0.003663591818 0.0035129173773 0.0034545912389 0.0033971843203 0.0033406614565 0.0032849924076 0.0032301679104 0.0031761948294 
0.0031230954181 0.0030708927837 0.003019622453 0.0029692987439 0.0029199480965 0.0028715532119 0.0028241286509 0.0027776590299 0.0027321241069 
0.0039276263377 0.0038539951988 0.0037824084174 0.0037127841711 0.0035625887798 0.0035030280326 0.0034443726408 0.0033865854532 0.0033296574208 
0.0032735763754 0.0032183549509 0.0031640096931 0.0031105678534 0.003058072449 0.0030065430429 0.0029559937492 0.0029064291919 0.0028578531932 
0.0028102600827 0.0027636325444 0.0039842885689 0.0039087881599 0.0038354266669 0.0037641285052 0.0036149136668 0.0035540597392 0.0034941149076 
0.0034350199843 0.0033767738538 0.0033193789797 0.0032628391503 0.0032071805675 0.0031524360986 0.0030986372926 0.0030458167552 0.0029940106122 
0.0029432054174 0.002893415868 0.002844636313 0.0027968641399 0.0040430588484 0.0039658317471 0.0038906306373 0.0038176052205 0.0036699466522 
0.0036077630018 0.0035464578165 0.0034860141489 0.0034263946109 0.0033676104548 0.0033096859764 0.0032526389072 0.00319651276 0.0031413345277 
0.0030871551578 0.0030340105374 0.0029818972379 0.0029308264245 0.0028808038691 0.0028318219166 0.0041042577085 0.004025021231 0.0039479119592 
0.0038730900281 0.0037276711383 0.0036641102866 0.0036014082726 0.0035395330735 0.0034784865484 0.003418250146 0.0033588562133 0.0033003459443 
0.0032427605725 0.0031861402331 0.0031305233718 0.0030759675409 0.0030224682946 0.0029700543671 0.0029187236538 0.002868469958 0.0041553347001 
0.0040718171515 0.003991029992 0.0039124728888 0.0037843068992 0.0037150950381 0.0036479047968 0.0035825649863 0.0035189241323 0.0034568704656 
0.0033962757945 0.0033370831945 0.0032792286036 0.0032226619068 0.003167323092 0.0031131800019 0.003060177369 0.0030082424748 0.0029573350455 
0.0029073781328 0.0042235321848 0.0041378609087 0.0040549985683 0.0039744284615 0.0038521073756 0.0037798084653 0.0037096767367 0.0036415342269 
0.0035752279616 0.0035106308087 0.0034476527706 0.0033861850743 0.0033261931853 0.003267618024 0.003210410686 0.0031545254958 0.0030998997506 
0.0030464895248 0.0029942123843 0.0029430175944 0.0042930570834 0.0042051494206 0.0041199141457 0.0040374793744 0.0039211988716 0.0038458496921 
0.003772807441 0.0037018901196 0.0036329398601 0.0035658255947 0.0035004454942 0.0034367323168 0.0033745968168 0.0033140132658 0.0032549168894 
0.0031972856357 0.0031410221071 0.0030860928767 0.0030324234652 0.0029799511687 0.004363334647 0.0042731295874 0.0041856733866 0.0041011008037 
0.0039909572508 0.0039126134389 0.0038367073932 0.0037630553794 0.0036914985284 0.0036219019326 0.0035541581374 0.0034881932595 0.0034239523611 
0.0033613704706 0.0033004019434 0.0032410075027 0.0031831195589 0.0031266574934 0.0030715711952 0.0030177762673 0.004433655001 0.0043411064621 
0.0042513802077 0.004164410101 0.0040606475202 0.0039793759636 0.0039006785011 0.0038243475889 0.0037502338351 0.0036782047318 0.0036081496019 
0.0035399889054 0.0034736750727 0.0034091230444 0.0033463084828 0.0032851670603 0.0032256408185 0.0031676646048 0.0031111458523 0.0030560212292 
0.0045032133065 0.0044082901579 0.0043162818956 0.0042271061512 0.0041294784609 0.0040453609174 0.0039639447264 0.0038850169015 0.0038084202625 
0.0037340215609 0.0036617179755 0.0035914254637 0.0035230752388 0.003456623217 0.0033919962157 0.0033291511834 0.0032680135386 0.0032085139744 
0.0031505817575 0.0030941132261 0.0045712574937 0.0044738946514 0.0043796024608 0.0042882178389 0.0041966390485 0.0041097825045 0.0040257366452 
0.0039443071003 0.003865312363 0.0037886389253 0.0037141663578 0.0036418142056 0.0035715124086 0.0035031986773 0.003436822371 0.0033723091803 
0.0033095934884 0.0032486002603 0.0031892564357 0.0031314579553 0.0037966618612 0.0037317397516 0.0036682910631 0.003606220617 0.0034528169836 
0.0033986635099 0.0033455125856 0.003293310878 0.0032420143513 0.0031915917751 0.0031420450103 0.0030933558188 0.0030455368122 0.0029985952778 
0.0029525389503 0.0029073545496 0.0028630260997 0.0028195488916 0.0027768963724 0.0027350451104 0.0038464730862 0.0037800414923 0.0037151513955 
0.0036517060794 0.0034971579682 0.0034418395835 0.0033875481747 0.0033342242441 0.0032818129099 0.0032303038178 0.0031796822143 0.003129935844 
0.0030810797608 0.0030331265586 0.0029860708387 0.002939911197 0.0028946396026 0.0028502400704 0.002806689143 0.0027639651946 0.0038962316931 
0.0038282671773 0.0037619019775 0.0036970548655 0.0035413528684 0.0034848664295 0.003429420364 0.003374956011 0.0033214277997 0.0032688105954 
0.0032171010165 0.0031662917421 0.0031163873966 0.0030673989321 0.0030193337737 0.002972197531 0.0029259662497 0.0028806315318 0.0028361717508 
0.0027925618501 0.003946350582 0.0038768228812 0.0038089498194 0.0037426760355 0.0035858349474 0.0035281648012 0.0034715493847 0.0034159297648 
0.0033612637295 0.0033075229188 0.0032547024114 0.0032028054515 0.0031518338063 0.0031018009194 0.0030527083044 0.0030045666535 0.0029573507466 
0.0029110630763 0.0028656760261 0.0028211594042 0.0039972879524 0.0039261410137 0.0038567117526 0.0037889549493 0.0036310391817 0.0035721707585 
0.0035143614201 0.0034575572792 0.0034017278765 0.0033468427479 0.003292885987 0.0032398749725 0.0031878082799 0.0031366986778 0.0030865524171 
0.0030373824321 0.0029891571001 0.0029418829895 0.0028955316499 0.0028500923228 0.0040494017223 0.0039765546477 0.0039055533136 0.0038362654578 
0.0036773840273 0.0036172836388 0.0035582522795 0.0035002420496 0.003443212249 0.0033871429002 0.0033320249371 0.0032778676002 0.0032246737846 
0.0031724531494 0.0031212157034 0.0030709769422 0.0030217133601 0.0029734137895 0.0029260732397 0.0028796700093 0.0041030250866 0.0040284207701 
0.0039557444931 0.003884909281 0.0037252263124 0.0036638658546 0.0036035816484 0.0035443254099 0.0034860646009 0.0034287799997 0.0033724651435 
0.0033171131455 0.0032627528218 0.0032093836334 0.0031570162812 0.0031056651047 0.0030553091503 0.0030059556524 0.0029575770893 0.0029101575508 
0.0041583846188 0.0040819771687 0.0040075731038 0.0039351118777 0.0037748680628 0.0037122142548 0.0036506411946 0.0035901034633 0.0035305701547 
0.0034720237176 0.0034144612381 0.0033578823409 0.0033023064793 0.0032477373034 0.0031941942299 0.0031416829949 0.0030901896483 0.0030397241479 
0.0029902565232 0.0029417870794 0.0042156496498 0.0041373701557 0.0040611808426 0.0039870034297 0.0038265401855 0.0037625606924 0.003699660643 
0.0036377988259 0.003576948372 0.0035170914377 0.0034582324731 0.003400372432 0.0033435236279 0.0032877080156 0.003232930088 0.0031792072996 
0.0031265224118 0.0030748879763 0.0030242900398 0.0029747138525 0.0042749108747 0.0041946914849 0.0041166626862 0.0040407431856 0.0038803997576 
0.0038150675214 0.0037508002955 0.0036875665404 0.0036253545497 0.0035641407566 0.003503927316 0.0034447280969 0.0033865487577 0.0033294213462 
0.0032733545319 0.0032183562191 0.0031644250768 0.0031115678731 0.00305978112 0.0030090402894 0.0043361937818 0.0042539658114 0.0041740314265 
0.0040963162178 0.0039365740549 0.0038698321415 0.0038041654871 0.0037395197649 0.0036758839524 0.0036132570416 0.0035516362967 0.0034910333637 
0.0034314626111 0.0033729574058 0.0033155269782 0.0032591976931 0.0032039582542 0.0031498200156 0.0030967777166 0.0030448293953 0.0043994647807 
0.0043151515632 0.0042332482911 0.0041536739197 0.0039951079225 0.0039269209978 0.0038597859619 0.0037936856352 0.0037285813507 0.0036644748543 
0.0036013836215 0.0035393117257 0.0034782878519 0.0034183330923 0.0033594749227 0.0033017436072 0.0032451322575 0.0031896517993 0.0031353000714 
0.0030820826566 0.0044643637417 0.0043781336769 0.0042941913796 0.0042126971407 0.0040559783092 0.003986300098 0.0039176604032 0.003850030708 
0.0037834067189 0.0037177664376 0.0036531305411 0.0035895317282 0.0035269804107 0.0034655175153 0.0034051657052 0.0033459641812 0.0032879094188 
0.0032310285293 0.0031753116867 0.0031207576601 0.0045189569041 0.0044288223383 0.0043411729241 0.0042561782879 0.0041151121349 0.0040398152684 
0.0039666847286 0.0038955504743 0.0038262651285 0.0037587119548 0.0036927583449 0.0036283344569 0.0035653662375 0.0035037747269 0.0034435121987 
0.0033845308082 0.0033267644082 0.0032701522782 0.0032146422387 0.0031601761072 0.0045902792096 0.0044976334506 0.0044079994928 0.0043208572126 
0.0041852031115 0.0041067442597 0.0040306005511 0.0039565987735 0.0038845914747 0.0038144462675 0.0037460642938 0.0036793271048 0.0036141831827 
0.0035505668569 0.0034883943131 0.0034276302933 0.0033682070359 0.0033100745734 0.0032531574668 0.003197401821 0.0046626332 0.0045676279497 
0.0044757092506 0.0043863581506 0.0042563343333 0.0041747529059 0.0040956271947 0.0040187884533 0.0039440799383 0.0038713703786 0.0038005450955 
0.0037315215451 0.0036642055882 0.0035985404246 0.003534460918 0.0034719112322 0.0034108100652 0.0033511183498 0.0032927713905 0.0032356867094 
0.0047355561441 0.0046381179949 0.0045436375335 0.0044522474302 0.0043279915063 0.0042433372267 0.0041612736328 0.0040816373541 0.0040042668662 
0.0039290230404 0.0038557917067 0.0037844909962 0.0037150139822 0.0036473154492 0.0035813203318 0.0035169821984 0.0034542130627 0.0033929475567 
0.0033331328798 0.0032746896666 0.0048085004109 0.0047085862077 0.0046117158043 0.0045180204059 0.0043995795458 0.0043119170216 0.0042269894453 
0.004144603731 0.0040646148537 0.0039868818319 0.0039112844419 0.0038377253209 0.0037661405083 0.0036964280841 0.0036285361811 0.0035624075717 
0.0034979679544 0.0034351397428 0.0033738498337 0.0033140356734 0.0048808636934 0.0047784461525 0.0046791584232 0.0045829127627 0.0044704917647 
0.0043798971468 0.0042921726557 0.0042071003949 0.0041245678474 0.0040443951193 0.0039664829867 0.0038907292931 0.0038170470809 0.0037453731623 
0.0036756214722 0.003607730462 0.0035416237111 0.0034772373432 0.0034144768652 0.0033532796136 0.0049521302798 0.0048471260656 0.0047454105408 
0.0046468255705 0.0045401328228 0.0044466998963 0.0043562542229 0.0042686000678 0.004183561919 0.004101035414 0.0040208695371 0.0039429757639 
0.0038672637322 0.003793654583 0.0037220812193 0.0036524600369 0.003584713998 0.003518771165 0.0034545608362 0.0033919802817 0.0040906807994 
0.0040206513337 0.0039521810484 0.0038851790211 0.0037249264931 0.0036661887253 0.0036085756743 0.003552030847 0.003496514829 0.0034419915556 
0.0033884498405 0.0033358661692 0.0032842440517 0.0032335737553 0.0031838645666 0.0031350793552 0.0030872185156 0.0030402692646 0.0029942078998 
0.0029490086384 0.0041459036404 0.0040742115058 0.004004148991 0.0039356292496 0.0037739325714 0.0037139066816 0.0036550303829 0.0035972430812 
0.003540500131 0.0034847809944 0.0034300617877 0.0033763209782 0.0033235621232 0.0032717822518 0.0032209847245 0.0031711473577 0.0031222542061 
0.0030743028269 0.0030272603632 0.0029811163568 0.0042013000918 0.0041279239875 0.0040562399788 0.0039861721748 0.003823017386 0.0037616951615 
0.0037015405932 0.0036424986328 0.0035845212944 0.003527582684 0.0034716692036 0.0034167601869 0.003362854854 0.0033099487389 0.0032580531691 
0.0032071330222 0.0031571972532 0.0031082150899 0.003060185453 0.0030130753198 0.0042571934377 0.0041820804608 0.0041087416435 0.0040370982056 
0.0038725007019 0.0038098676157 0.0037484199027 0.003688104145 0.0036288748338 0.003570700764 0.0035135647525 0.0034574677367 0.0034023924186 
0.0033483439201 0.0032953128226 0.0032433039711 0.0031922982935 0.003142277642 0.0030932298861 0.0030451305962 0.0043138736073 0.0042370015787 
0.0041619598314 0.0040887012397 0.0039227133962 0.0038587558963 0.0037959935116 0.0037343777259 0.0036738697349 0.0036144363571 0.0035560623319 
0.0034987427423 0.0034424707519 0.0033872463078 0.0033330639384 0.0032799358011 0.0032278204503 0.0031767317059 0.0031266438426 0.0030775311301 
0.0043716644744 0.0042929399745 0.0042161794573 0.0041412535993 0.0039739831371 0.0039086720908 0.0038445685953 0.003781631117 0.0037198127122 
0.0036590879367 0.0035994406847 0.0035408688861 0.0034833664775 0.0034269301433 0.0033715646829 0.0033172738542 0.0032640301364 0.0032118374841 
0.0031606642359 0.0031105130454 0.0044307916172 0.0043501729153 0.0042716001696 0.0041949925135 0.0040266020038 0.0039599096981 0.0038944366279 
0.0038301385555 0.0037669793555 0.0037049284616 0.003643973147 0.0035841091275 0.0035253392439 0.0034676576906 0.0034110659018 0.0033555715839 
0.003301152007 0.0032478090513 0.0031955234567 0.0031442883135 0.0044914659891 0.0044088972244 0.0043284608537 0.0042500981466 0.0040808155611 
0.004012713173 0.0039458383837 0.0038801466391 0.0038156026339 0.0037521842177 0.0036898821424 0.0036286844164 0.0035686019615 0.0035096249312 
0.003451766633 0.0033950255165 0.0033393848627 0.00328485248 0.0032314067161 0.0031790284551 0.0045538104313 0.004469229025 0.0043868783986 
0.0043066653821 0.0041368301608 0.0040672807551 0.0039989633878 0.003931837854 0.0038658700913 0.0038010386842 0.0037373377636 0.0036747582882 
0.003613313588 0.0035529971706 0.0034938175792 0.0034357811253 0.0033788703468 0.003323089266 0.0032684349747 0.0032148852526 0.0046178968808 
0.004531236382 0.0044469076038 0.0043648298857 0.0041947718819 0.0041237561459 0.0040539598692 0.0039853548961 0.0039179167392 0.003851625886 
0.0037864744629 0.0037224631053 0.0036595973992 0.0035978868922 0.0035373312529 0.0034779436992 0.0034197067888 0.00336263643 0.0033067178392 
0.003251940078 0.004683736102 0.0045949309783 0.0045085679679 0.0044245700236 0.0042547601822 0.0041822167606 0.0041109079643 0.0040407811787 
0.0039718188067 0.0039040195533 0.003837366196 0.0037718638433 0.0037075207867 0.00364435217 0.0035823640942 0.0035215683603 0.0034619573692 
0.0034035306302 0.0033462951514 0.0032902435609 0.0047512879587 0.0046602632583 0.004571801689 0.0044858225351 0.0043168252591 0.0042427210926 
0.0041698352584 0.0040981508303 0.0040276213886 0.0039582475107 0.0038900356493 0.0038229860873 0.0037571031445 0.0036924186232 0.0036289321033 
0.0035666697353 0.0035056172927 0.0034457876184 0.0033871782254 0.0033297880267 0.0048201919161 0.0047271176981 0.004636491538 0.004548473647 
0.0043809508812 0.0043052409786 0.0042307427588 0.00415742448 0.0040852839135 0.0040142845207 0.0039444529691 0.0038757973963 0.0038083224411 
0.0037420502939 0.0036770086971 0.0036132092561 0.0035506583003 0.0034893648378 0.0034293281426 0.0033705429852 0.0048784064583 0.0047815688648 
0.0046874158585 0.0045961110652 0.0044420833678 0.0043608589138 0.0042819304622 0.0042051331415 0.0041303184603 0.0040573685586 0.0039861461653 
0.0039165705319 0.0038485604987 0.0037820274509 0.0037169173022 0.0036531741262 0.003590732053 0.0035295289663 0.0034695111465 0.0034106235472 
0.0049531317903 0.0048536456119 0.0047573685768 0.0046637967782 0.0045147502097 0.0044302746321 0.0043482547123 0.0042685221896 0.0041909200602 
0.0041153165919 0.0040416113097 0.0039696760248 0.003899444311 0.0038308378626 0.0037637780927 0.0036982114976 0.0036340670736 0.0035712968107 
0.0035098250407 0.0034496026778 0.005028690236 0.0049267099337 0.0048280191524 0.0047320995712 0.0045882939459 0.0045006077353 0.0044155325398 
0.0043328879175 0.0042525209585 0.0041742971301 0.0040981059152 0.004023819565 0.0039513716079 0.0038806752481 0.0038116614082 0.0037442613079 
0.0036783991635 0.003614024158 0.0035510761454 0.003489476363 0.0051047223902 0.005000173889 0.0048987856307 0.0048006996309 0.004662280716 
0.0045714513689 0.0044833539301 0.004397837874 0.004314741071 0.0042339203312 0.004155252809 0.0040786487796 0.0040039875982 0.003931211929 
0.0038602334878 0.0037910005757 0.0037234179854 0.0036574260356 0.0035929642575 0.0035299725746 0.0051807989982 0.0050736373761 0.0049697287844 
0.0048692018808 0.004736254328 0.004642321285 0.0045512733536 0.0044629363872 0.0043771473106 0.0042937667663 0.0042126670665 0.0041337461454 
0.0040569125943 0.0039820713787 0.0039091465522 0.0038380743893 0.0037687716087 0.0037011563137 0.0036351765544 0.0035707547368 0.0052564729485 
0.0051466622585 0.0050401988008 0.0049369877216 0.0048097283174 0.0047127732774 0.0046188365932 0.0045277283107 0.0044393058077 0.0043534063047 
0.0042699196444 0.0041887281072 0.0041097374035 0.0040328652405 0.0039580122002 0.0038851176945 0.0038140934454 0.0037448742166 0.0036773631342 
0.0036115113817 0.0053313223153 0.0052188379924 0.0051097945601 0.0050041009235 0.0048822579685 0.0047823524801 0.004685594394 0.0045917966396 
0.0045007893121 0.004412439528 0.0043266107164 0.0042431966461 0.0041620922724 0.0040832140988 0.0040064633761 0.0039317666308 0.0038590387513 
0.0037882049745 0.0037191880935 0.0036518952263 0.0043831886914 0.0043081472448 0.0042347468396 0.0041632075824 0.0039960620141 0.0039328105879 
0.0038707951319 0.0038099570273 0.0037502572913 0.0036916668226 0.0036341494363 0.0035776888285 0.0035222761703 0.0034678911259 0.0034145457282 
0.0033621880817 0.0033108292473 0.0032604311642 0.0032109952154 0.0031624924185 0.0044434633728 0.0043666174003 0.0042914872297 0.0042179972441 
0.0040494284521 0.0039847703201 0.0039213754132 0.0038591804968 0.0037981494877 0.0037382565465 0.0036794602458 0.0036217493156 0.003565106182 
0.0035095264915 0.0034550042567 0.0034015129733 0.003349032279 0.0032975602551 0.0032470708056 0.0031975448736 0.0045041114226 0.00442543076 
0.0043485387235 0.004273364104 0.0041030544491 0.0040369785002 0.0039721863187 0.0039086271536 0.0038462491041 0.0037850317732 0.003724942992 
0.0036659613299 0.0036080754128 0.0035512843425 0.0034955697296 0.0034409148945 0.0033873032611 0.0033347289843 0.003283165418 0.0032325976181 
0.0045653591995 0.0044847952598 0.0044061111556 0.0043292237842 0.004157178109 0.0040896691284 0.0040234686429 0.0039585194643 0.0038947827923 
0.0038322179027 0.0037708078771 0.0037105369469 0.0036513887327 0.0035933526266 0.0035364305307 0.0034805815916 0.0034258185571 0.0033721168973 
0.0033194614079 0.0032678270628 0.0046274290988 0.0045449521626 0.0044644252296 0.0043857862842 0.0042120665994 0.0041431063186 0.0040754688531 
0.0040091089021 0.0039439815341 0.0038800472719 0.0038172950668 0.0037557039857 0.0036952593795 0.0036359530087 0.0035777737879 0.003520728469 
0.0034647827034 0.0034099264231 0.0033561454222 0.0033034181053 0.0046905479793 0.0046060865878 0.0045236961207 0.0044432579876 0.0042679563152 
0.0041975234697 0.0041284323388 0.0040606331408 0.003994085848 0.0039287572848 0.0038646254722 0.0038016836582 0.00373990808 0.0036793011693 
0.0036198482681 0.0035615518512 0.0035043837739 0.0034483440245 0.0033934026731 0.0033395594569 0.0047549043905 0.0046684187408 0.0045840954426 
0.0045018222256 0.0043250958969 0.0042531603425 0.0041825815681 0.0041133116038 0.0040453130235 0.0039785554314 0.003913010531 0.0038486763484 
0.0037855387803 0.0037235865272 0.0036628196311 0.0036032367199 0.0035448146455 0.0034875445415 0.0034314062985 0.0033764060967 0.004820665327 
0.0047320745892 0.004645739062 0.0045616120065 0.0043836848484 0.0043102187247 0.0042381213795 0.0041673461903 0.0040978570193 0.0040296252612 
0.0039626356271 0.0038968656896 0.0038323197943 0.0037689868998 0.0037068612412 0.003645947946 0.0035862191437 0.0035276812984 0.0034703099561 
0.0034141042774 0.0048879138336 0.0047971747825 0.0047087967143 0.0046226886478 0.0044438898571 0.004368860495 0.0042952075629 0.0042228899047 
0.0041518689918 0.0040821218187 0.0040136321518 0.0039463888583 0.0038803899277 0.0038156253836 0.0037520979861 0.003689802613 0.0036287275844 
0.0035688720465 0.0035102201184 0.0034527600552 0.0049567083776 0.0048637524763 0.0047732653311 0.0046851699879 0.0045058267338 0.0044292102845 
0.0043539601992 0.0042800569027 0.0042074620478 0.0041361552358 0.0040661197621 0.0039973468971 0.0039298438908 0.0038636015545 0.0037986169866 
0.0037348954032 0.0036724176243 0.003611192739 0.0035512091415 0.0034924550404 0.005027043185 0.0049318092076 0.0048391588386 0.004749018527 
0.004569594136 0.0044913309068 0.004414459417 0.0043389246002 0.0042647088033 0.0041917900131 0.0041201595584 0.0040498116424 0.0039807448337 
0.0039129617194 0.0038464679317 0.0037812630599 0.0037173391982 0.0036546899031 0.0035933249217 0.0035332225412 0.0050988684109 0.0050012876559 
0.0049064146431 0.0048141750622 0.0046352183448 0.0045552770856 0.004476717506 0.0043995187117 0.0043236256962 0.0042490457946 0.0041757703872 
0.0041037900594 0.0040331044224 0.0039637288835 0.0038956625396 0.0038289220301 0.0037634875954 0.0036993695362 0.0036365649735 0.0035750651482 
0.0051718479558 0.0050720722472 0.004974917874 0.004880514249 0.0047026871028 0.0046210270452 0.00454074266 0.0044618085756 0.0043842081132 
0.0043079115002 0.0042329285576 0.0041592586218 0.0040869073557 0.0040158719705 0.0039461786011 0.003877836936 0.0038108399622 0.0037451926119 
0.003680896425 0.0036179451362 0.0052337425859 0.0051303399352 0.0050298135595 0.0049323275001 0.0047653209888 0.0046783165302 0.0045937285869 
0.0045113956584 0.0044311810447 0.0043529278331 0.0042765318502 0.0042018920717 0.004128927849 0.004057531464 0.0039876554138 0.0039192337403 
0.0038521993197 0.0037864941242 0.0037220519015 0.0036588344196 0.0053120827217 0.0052058906644 0.0051031066839 0.0050032099124 0.0048407674159 
0.0047504278927 0.0046626663703 0.0045773215607 0.0044942386211 0.004413289138 0.0043343333771 0.0042572825622 0.0041820398302 0.0041085201049 
0.0040366446034 0.0039663501942 0.0038975655543 0.0038302403226 0.0037643036632 0.0036996972758 0.0053911293231 0.0052823059827 0.0051769693174 
0.0050746045643 0.0049169957894 0.0048233553639 0.004732457047 0.0046441247363 0.0045582040992 0.0044745555547 0.0043930668131 0.0043136015727 
0.0042360877169 0.0041604231913 0.0040865449222 0.0040143640362 0.0039438163692 0.0038748363811 0.0038073745517 0.0037413477987 0.0054706009999 
0.0053590702067 0.0052509037442 0.0051462350386 0.0049936453388 0.0048967604412 0.0048027606124 0.0047114773178 0.0046227502237 0.0045364341453 
0.0044524049501 0.0043705589243 0.0042907743809 0.0042129768642 0.0041370765888 0.0040630133518 0.0039906850437 0.003920042552 0.0038510123499 
0.0037835410826 0.0055501637081 0.0054358782112 0.0053250495694 0.0052178077204 0.0050703432384 0.0049702705349 0.0048732189235 0.0047790251087 
0.0046875276789 0.0045985762903 0.0045120411517 0.004427810943 0.0043457882119 0.0042658635247 0.0041879561619 0.0041119970051 0.0040378973042 
0.0039655771561 0.0038949756372 0.0038260215138 0.0056294846818 0.0055124010227 0.0053988781347 0.0052888092229 0.0051467074146 0.0050435046638 
0.0049434694832 0.0048464147548 0.0047521882954 0.0046606389214 0.0045716353726 0.0044850578112 0.0044008172293 0.0043187772494 0.0042388780951 
0.004161032083 0.0040851486941 0.0040111628117 0.0039389784525 0.0038685403076 0.0057082465287 0.0055883339008 0.0054720755739 0.0053593802054 
0.0052223912622 0.0051161270458 0.0050131628169 0.0049133118028 0.0048164071355 0.0047223056609 0.0046308737399 0.0045419874244 0.0044555376867 
0.0043714260508 0.0042895490715 0.0042098336142 0.0041321826888 0.0040565169905 0.0039827594869 0.0039108311281 0.0046738263883 0.004593867983 
0.0045156332014 0.0044393481 0.0042658654725 0.0041981695349 0.0041318095439 0.0040667349373 0.0040028988354 0.0039402710057 0.003878813567 
0.0038185026106 0.0037593248082 0.0037012535967 0.0036442963694 0.0035883981102 0.0035335597397 0.003479761727 0.0034269868455 0.0033751162305 
0.0047388709459 0.0046569763425 0.0045768792222 0.0044985212582 0.0043233536659 0.0042541370013 0.0041862856828 0.0041197466506 0.0040544791758 
0.0039904474663 0.0039276126686 0.0038659599342 0.0038054673834 0.003746115162 0.0036879034213 0.0036307863481 0.0035747633025 0.003519804006 
0.0034659027741 0.0034130312641 0.0048044593738 0.004720582861 0.0046385935953 0.0045584225615 0.004381248292 0.0043104937913 0.004241136066 
0.0041731237936 0.0041063995665 0.0040409456589 0.0039767217143 0.0039137061954 0.0038518761264 0.0037912213755 0.0037317309036 0.0036733751953 
0.0036161340189 0.0035600036431 0.0035049541882 0.003450971837 0.00487073912 0.0047848478045 0.0047009284742 0.0046189143631 0.0044397353157 
0.0043674290317 0.0042965446766 0.0042270306912 0.0041588365825 0.0040919338385 0.0040262957091 0.0039618925509 0.0038987058429 0.0038367233807 
0.0037759316118 0.0037163007893 0.0036578336337 0.003600497523 0.0035442737688 0.0034891522886 0.0049378737934 0.0048499332685 0.0047640409152 
0.0046801438522 0.0044990165777 0.0044251394837 0.0043527033701 0.0042816682178 0.0042119832364 0.0041436053296 0.0040765200116 0.0040106986926 
0.0039461260133 0.0038827824878 0.0038206632427 0.0037597362318 0.0036999981096 0.003641427796 0.0035840102502 0.0035277228129 0.0050060553883 
0.0049159810584 0.0048280893939 0.0047422679475 0.0045592814154 0.0044838110738 0.0044098080646 0.0043372214108 0.0042660079661 0.0041961301866 
0.0041275693449 0.0040603020065 0.0039943016546 0.0039295647123 0.0038660826749 0.0038038270398 0.0037427850593 0.003682948996 0.0036243022049 
0.0035668149205 0.0050753933378 0.0049831603478 0.004893209439 0.0048054183276 0.0046207242585 0.0045436321679 0.0044680274635 0.0043938599006 
0.004321088577 0.0042496782294 0.0041796008493 0.0041108470065 0.0040433926957 0.0039772228485 0.0039123291473 0.0038487073488 0.0037863341566 
0.0037251942156 0.0036652725103 0.0036065596852 0.0051460331767 0.0050515666365 0.0049594733756 0.0048696959568 0.004683510026 0.0046047689269 
0.0045275311233 0.0044517437783 0.0043773773462 0.0043043958042 0.0042327684638 0.0041624895867 0.0040935325268 0.0040258940152 0.0039595567338 
0.0038945226364 0.0038307648453 0.0037682787998 0.0037070466418 0.0036470627793 0.0052180289143 0.0051212723631 0.0050270046194 0.0049351430524 
0.0047477801404 0.0046673564529 0.0045884459906 0.0045110088402 0.0044350044631 0.0043604049308 0.0042871881167 0.0042153364044 0.004144836123 
0.0040756798696 0.0040078572407 0.0039413635014 0.0038761796978 0.0038123050332 0.0037497179448 0.0036884119399 0.0052914182048 0.0051923142082 
0.0050958140466 0.0050018299753 0.0048136360638 0.0047314964229 0.0046508742955 0.0045717446188 0.0044940624668 0.0044178007785 0.0043429417198 
0.0042694699951 0.0041973829299 0.0041266615316 0.0040573009241 0.003989304047 0.0039226452253 0.0038573291114 0.0037933425102 0.0037306717877 
0.0053661877256 0.005264671921 0.0051658781667 0.0050697313971 0.0048811374662 0.0047972489325 0.0047148840129 0.0046340113761 0.0045546077468 
0.0044766412803 0.0044000902734 0.0043249544782 0.0042512170283 0.004178879418 0.0041079312731 0.0040383786029 0.0039701968979 0.0039033884917 
0.0038379536916 0.0037738682717 0.0054422822861 0.0053382890977 0.0052371519317 0.0051387828813 0.0049503360057 0.0048646413613 0.0047804998509 
0.0046978462327 0.0046166632988 0.0045369415762 0.0044586536163 0.0043817931688 0.0043063574717 0.0042323449397 0.0041597584608 0.0040885906522 
0.0040188319232 0.0039504826131 0.0038835448015 0.0038180057432 0.0055193729618 0.0054130557488 0.0053095115349 0.0052088680549 0.0050212161697 
0.0049336871761 0.0048476967408 0.0047632255063 0.0046802228938 0.0045986855366 0.0045186103663 0.0044399753379 0.0043627851293 0.0042870422691 