# vtk DataFile Version 5.1
vtk output
ASCII
DATASET STRUCTURED_POINTS
DIMENSIONS 30 30 30
SPACING 0.01 0.01 0.01
ORIGIN 3.555 -0.145 0.855
POINT_DATA 27000
FIELD FieldData 1
potential 1 27000 double
0.00074455145262 0.000743712252 0.00074287532114 0.00074204068708 0.00074120841398 0.00074037842163 0.00073955073159 0.00073872527744 0.00073790209475 
0.0007370812121 0.00073626256738 0.00073544616348 0.00073463200392 0.0007338200579 0.00073301035739 0.00073220282195 0.00073139749299 0.00073059437286 
0.00072979340475 0.00072899461973 0.00072819798423 0.00072740355634 0.00072661123514 0.00072582106281 0.00072503301118 0.00072424708281 0.00072346327933 
0.00072268157878 0.00072190198758 0.00072112449045 0.00074402020061 0.00074318217951 0.00074234643174 0.00074151298787 0.00074068191909 0.00073985311091 
0.00073902655593 0.00073820232766 0.00073738031511 0.00073656058845 0.00073574312208 0.00073492787568 0.00073411489175 0.00073330408918 0.00073249551609 
0.00073168912887 0.00073088495894 0.00073008298301 0.00072928316791 0.0007284855149 0.0007276900477 0.00072689670354 0.00072610550576 0.00072531643934 
0.0007245294934 0.00072374470121 0.00072296198697 0.00072218138253 0.00072140288268 0.0007206264296 0.00074349094474 0.00074265409501 0.00074181955667 
0.00074098730172 0.00074015739838 0.00073932977711 0.00073850442406 0.00073768133357 0.00073686052351 0.00073604196504 0.00073522565068 0.00073441157743 
0.00073359973722 0.00073279011207 0.00073198265903 0.00073117745084 0.00073037440838 0.00072957354686 0.0007287748629 0.0007279783469 0.00072718402888 
0.00072639183327 0.00072560175066 0.00072481377764 0.00072402795834 0.00072324424868 0.00072246265297 0.00072168314635 0.00072090573956 0.00072013040636 
0.00074296370669 0.00074212807061 0.0007412947165 0.00074046367928 0.00073963495242 0.00073880847873 0.00073798433088 0.00073716241389 0.00073634277434 
0.00073552538271 0.00073471022644 0.00073389731754 0.00073308662219 0.00073227815019 0.00073147186862 0.0007306677961 0.00072986589321 0.00072906619188 
0.00072826863778 0.00072747323688 0.00072668001266 0.00072588891271 0.00072509993903 0.00072431312356 0.00072352841726 0.0007227458076 0.00072196530093 
0.00072118690086 0.00072041058887 0.00071963634936 0.00074243858157 0.00074160415111 0.00074077198974 0.0007399421606 0.00073911458454 0.00073828927207 
0.00073746629612 0.00073664555123 0.00073582708076 0.00073501085006 0.00073419688089 0.00073338512227 0.00073257559007 0.00073176825918 0.00073096314911 
0.00073016021137 0.00072935942826 0.00072856083045 0.00072776444686 0.00072697016673 0.00072617803581 0.00072538807549 0.00072460022562 0.00072381450003 
0.00072303089592 0.00072224938936 0.00072146998366 0.000720692698 0.00071991748125 0.00071914432323 0.00074191557214 0.00074108232022 0.00074025136704 
0.00073942272873 0.00073859636413 0.00073777226245 0.00073695043422 0.00073613086277 0.00073531352092 0.000734498455 0.00073368561488 0.0007328750232 
0.00073206660233 0.00073126045148 0.00073045647201 0.00072965466885 0.00072885505413 0.00072805760042 0.00072726233484 0.0007264691809 0.00072567817241 
0.00072488930564 0.0007241025943 0.00072331797567 0.00072253546874 0.00072175507064 0.0007209767779 0.00072020056372 0.00071942641661 0.00071865434499 
0.00074139466187 0.00074056262573 0.0007397328486 0.00073890542336 0.00073808023879 0.00073725733626 0.00073643666598 0.00073561823695 0.00073480208363 
0.00073398817459 0.00073317650378 0.00073236703276 0.00073155978756 0.00073075475981 0.00072995194413 0.00072915128025 0.00072835280187 0.00072755651783 
0.00072676234929 0.00072597030625 0.00072518042696 0.00072439267359 0.00072360704861 0.00072282357709 0.0007220421738 0.00072126287461 0.00072048563939 
0.00071971050568 0.00071893747599 0.00071816649274 0.00074087596597 0.00074004509613 0.00073921650424 0.00073839025931 0.00073756625336 0.00073674452627 
0.00073592504545 0.00073510780481 0.00073429280924 0.00073348005313 0.00073266953882 0.00073186125149 0.00073105517634 0.00073025128052 0.00072944958197 
0.00072865008132 0.00072785270455 0.00072705753787 0.00072626449633 0.00072547358682 0.00072468483773 0.00072389819473 0.00072311367989 0.00072233127858 
0.00072155099927 0.00072077277509 0.00071999665378 0.00071922260921 0.00071845067011 0.00071768076152 0.00074035941822 0.00073952976478 0.00073870236828 
0.00073787732019 0.00073705449744 0.00073623393715 0.00073541561909 0.00073459954076 0.00073378573026 0.00073297413593 0.00073216476956 0.00073135763914 
0.00073055269456 0.00072974994178 0.00072894938316 0.00072815100173 0.00072735484102 0.00072656077374 0.00072576887208 0.00072497908578 0.00072419144091 
0.00072340587923 0.00072262246289 0.00072184116219 0.00072106193774 0.00072028485396 0.00071950983071 0.00071873687327 0.00071796603022 0.00071719720046 
0.00073984513796 0.00073901667586 0.00073819046953 0.00073736659952 0.00073654495206 0.00073572555742 0.00073490840798 0.00073409351641 0.00073328084791 
0.00073247042039 0.00073166221393 0.00073085623327 0.00073005241612 0.00072925079926 0.00072845137121 0.00072765419118 0.000726859101 0.00072606618132 
0.00072527539295 0.00072448672434 0.00072370019349 0.00072291578143 0.00072213344263 0.00072135324425 0.00072057514001 0.00071979910934 0.00071902518959 
0.00071825331904 0.00071748351363 0.00071671577587 0.0007393331134 0.00073850582152 0.00073768082671 0.00073685810315 0.00073603763637 0.0007352193702 
0.00073440343352 0.00073358970382 0.0007327782076 0.00073196892173 0.00073116190037 0.0007303570332 0.00072955437245 0.00072875389683 0.00072795558128 
0.00072715950356 0.00072636556283 0.00072557377027 0.00072478408577 0.00072399654396 0.000723211126 0.00072242779956 0.00072164659411 0.00072086749106 
0.00072009050698 0.00071931557874 0.00071854274632 0.00071777199238 0.00071700326388 0.00071623659646 0.00073882335035 0.00073799724088 0.00073717341386 
0.00073635184569 0.00073553256807 0.00073471548164 0.00073390070913 0.00073308813372 0.00073227779964 0.00073146966709 0.00073066376387 0.00072986009758 
0.00072905856817 0.00072825923429 0.00072746210245 0.00072666711055 0.00072587429739 0.00072508361579 0.00072429506037 0.00072350863293 0.00072272430158 
0.00072194210475 0.00072116201795 0.00072038400404 0.0007196081054 0.00071883425904 0.00071806249351 0.00071729280827 0.00071652518277 0.00071575958662 
0.00073831584833 0.00073749091952 0.00073666826961 0.00073584786087 0.00073502976122 0.00073421384592 0.00073340022836 0.00073258882778 0.00073177963929 
0.00073097272309 0.00073016794931 0.00072936538843 0.00072856502735 0.00072776681116 0.00072697082279 0.00072617693911 0.00072538525353 0.00072459568262 
0.00072380824063 0.00072302291486 0.00072223971659 0.00072145863274 0.0007206796539 0.00071990273114 0.00071912790606 0.00071835515873 0.00071758447705 
0.00071681587261 0.00071604932345 0.00071528479855 0.00073781062792 0.0007369868779 0.00073616539661 0.00073534616652 0.00073452916934 0.00073371446985 
0.00073290204383 0.0007320917914 0.00073128377804 0.00073047798124 0.00072967438788 0.00072887294816 0.00072807371534 0.00072727668599 0.00072648177548 
0.00072568903837 0.00072489843884 0.00072410998191 0.00072332365573 0.00072253946156 0.00072175738318 0.00072097739748 0.00072019950409 0.00071942369655 
0.00071864995797 0.00071787829404 0.00071710869456 0.00071634116927 0.00071557566792 0.00071481223088 0.00073730768754 0.00073648512079 0.00073566480583 
0.000734846752 0.00073403091261 0.00073321737727 0.00073240610927 0.0007315970197 0.00073079017112 0.00072998552374 0.00072918306186 0.00072838278447 
0.00072758470865 0.00072678877856 0.00072599501683 0.00072520338592 0.00072441389036 0.00072362658171 0.00072284135814 0.000722058266 0.00072127728109 
0.00072049840719 0.0007197216111 0.00071894689673 0.00071817424718 0.0007174036732 0.00071663515103 0.0007158687029 0.00071510428132 0.00071434184624 
0.00073680704263 0.00073598566623 0.00073516650783 0.00073434961845 0.00073353495161 0.00073272255677 0.00073191245652 0.00073110455934 0.00073029882861 
0.0007294953262 0.00072869400421 0.00072789486609 0.00072709792152 0.00072630312434 0.00072551049268 0.0007247199802 0.00072393160482 0.00072314543302 
0.00072236132384 0.00072157932953 0.00072079944878 0.00072002166272 0.00071924597509 0.00071847235273 0.00071770079104 0.00071693129879 0.00071616382658 
0.00071539845168 0.00071463509157 0.00071387375951 0.00073630866792 0.00073548848231 0.00073467047818 0.00073385476091 0.00073304127408 0.00073223003868 
0.00073142107966 0.00073061432578 0.00072980977718 0.0007290073957 0.00072820721512 0.00072740924613 0.00072661342024 0.00072581974234 0.00072502819731 
0.00072423884308 0.00072345161466 0.00072266651358 0.00072188352431 0.00072110265588 0.00072032385775 0.00071954716993 0.00071877256406 0.0007180000129 
0.00071722954549 0.00071646112644 0.00071569476223 0.00071493046073 0.00071416816913 0.00071340790127 0.00073581262187 0.00073499357564 0.00073417676667 
0.00073336215278 0.00073254985357 0.00073173977629 0.00073093195594 0.00073012635768 0.0007293229576 0.00072852172898 0.00072772270525 0.00072692584122 
0.00072613114771 0.00072533860768 0.00072454820014 0.00072375995616 0.00072297384053 0.00072218985218 0.00072140797552 0.00072062820239 0.00071985050345 
0.0007190748924 0.00071830137899 0.00071752993483 0.00071676055142 0.00071599322433 0.00071522795793 0.00071446470485 0.00071370348558 0.00071294426893 
0.0007353187859 0.00073450092155 0.00073368530382 0.00073287186204 0.00073206072291 0.00073125180186 0.00073044512731 0.00072964064558 0.00072883837997 
0.00072803833376 0.00072724043954 0.00072644472032 0.0007256511333 0.0007248597248 0.00072407045584 0.00072328331502 0.00072249828455 0.00072171540715 
0.00072093464726 0.0007201559638 0.00071937939805 0.00071860490153 0.00071783245897 0.00071706210136 0.00071629380028 0.0007155275473 0.00071476335452 
0.00071400117865 0.00071324101718 0.00071248286497 0.00073482727584 0.00073401053899 0.00073319604793 0.00073238378458 0.00073157380421 0.00073076603809 
0.00072996054066 0.00072915721892 0.00072835610443 0.00072755718649 0.00072676041774 0.00072596579562 0.00072517333303 0.00072438305058 0.00072359490227 
0.00072280889444 0.00072202499144 0.00072124322116 0.00072046356975 0.00071968601115 0.00071891051496 0.0007181371117 0.00071736578151 0.00071659648883 
0.0007158292708 0.00071506409297 0.00071430096526 0.00071353986054 0.00071278076256 0.00071202366792 0.00073433794356 0.0007335223993 0.00073270902312 
0.00073189794759 0.00073108914036 0.00073028255087 0.00072947818383 0.0007286759881 0.00072787602201 0.00072707821763 0.00072628255978 0.00072548911668 
0.00072469780921 0.00072390862641 0.00072312159732 0.00072233670178 0.00072155392605 0.00072077323596 0.00071999470192 0.00071921823286 0.00071844383241 
0.00071767153528 0.00071690128897 0.00071613309933 0.00071536694145 0.00071460282931 0.00071384078108 0.00071308072994 0.00071232270237 0.0007115666761 
0.00073385085938 0.0007330364452 0.00073222422705 0.00073141431359 0.00073060664562 0.00072980122004 0.00072899801174 0.00072819700653 0.00072739815322 
0.00072660147027 0.00072580695927 0.00072501463532 0.00072422446289 0.00072343642813 0.00072265051646 0.0007218667347 0.00072108504976 0.00072030548077 
0.00071952803509 0.00071875266903 0.00071797938756 0.00071720814988 0.00071643898936 0.00071567188129 0.00071490680799 0.00071414375802 0.00071338278977 
0.00071262379763 0.0007118668214 0.00071111184687 0.00073336598607 0.00073255267134 0.00073174165543 0.00073093290475 0.00073012642113 0.00072932211018 
0.00072852007986 0.00072772019136 0.00072692245123 0.0007261269157 0.00072533355027 0.00072454234185 0.0007237533065 0.00072296638908 0.00072218160204 
0.00072139892266 0.00072061837301 0.00071983990737 0.00071906356196 0.00071828926436 0.00071751706385 0.00071674694024 0.00071597884749 0.00071521281861 
0.00071444882019 0.00071368689792 0.00071292694724 0.00071216899996 0.00071141308758 0.00071065915756 0.00073288327352 0.0007320711402 0.00073126130399 
0.00073045367966 0.00072964833743 0.00072884517541 0.00072804428744 0.00072724551649 0.00072644894044 0.00072565453918 0.00072486228971 0.00072407222148 
0.00072328428684 0.00072249851604 0.00072171484407 0.00072093327519 0.00072015382769 0.00071937646523 0.00071860120584 0.00071782803849 0.0007170569285 
0.00071628787107 0.00071552089345 0.00071475591225 0.00071399299438 0.00071323213493 0.00071247326171 0.00071171636127 0.00071096149028 0.00071020862509 
0.00073240271701 0.00073159174493 0.00073078305649 0.00072997658478 0.00072917240173 0.00072837040746 0.0007275705973 0.00072677299025 0.00072597756652 
0.00072518429806 0.00072439317963 0.00072360423884 0.0007228174256 0.0007220327555 0.00072125020907 0.00072046974931 0.00071969140645 0.00071891514568 
0.00071814098475 0.00071736893153 0.00071659889776 0.0007158309399 0.00071506503401 0.00071430116083 0.00071353927226 0.00071277948156 0.00071202167179 
0.00071126583889 0.00071051198749 0.0007097601733 0.00073192420661 0.00073111445546 0.00073030692881 0.00072950162364 0.00072869859403 0.00072789769953 
0.00072709905775 0.00072630259162 0.00072550828688 0.0007247161659 0.0007239261695 0.00072313833798 0.00072235265863 0.00072156909398 0.00072078765878 
0.00072000831776 0.00071923108032 0.00071845592631 0.00071768286152 0.00071691189941 0.00071614296363 0.0007153760719 0.00071461123949 0.00071384845072 
0.00071308765036 0.00071232892589 0.00071157212569 0.00071081736517 0.00071006460294 0.00070931381803 0.00073144783681 0.00073063924418 0.00072983287296 
0.00072902874696 0.00072822680144 0.00072742710041 0.00072662959424 0.00072583426322 0.00072504109228 0.00072425008096 0.0007234612274 0.00072267451834 
0.00072188994341 0.00072110750558 0.00072032716545 0.00071954896627 0.00071877282053 0.00071799876336 0.0007172267934 0.00071645691452 0.00071568906846 
0.00071492327156 0.00071415949376 0.00071339774674 0.00071263805434 0.00071188036267 0.00071112466308 0.0007103709707 0.00070961922387 0.00070886948339 
0.00073097352033 0.00073016608126 0.00072936088579 0.00072855788383 0.00072775708534 0.00072695852771 0.00072616215223 0.00072536795735 0.00072457591898 
0.00072378604829 0.00072299829941 0.0007222127279 0.00072142927691 0.0007206479521 0.0007198687213 0.00071909161076 0.00071831657805 0.00071754361008 
0.00071677273702 0.00071600395124 0.00071523718734 0.00071447243198 0.00071370974092 0.00071294907642 0.00071219049221 0.00071143383208 0.00071067917374 
0.0007099265419 0.00070917587955 0.00070842721299 0.00073050117058 0.00072969492734 0.00072889088405 0.0007280890131 0.00072728937358 0.00072649194313 
0.00072569671433 0.00072490365431 0.00072411274708 0.00072332399163 0.00072253737964 0.00072175291197 0.0007209705914 0.00072019037053 0.00071941225948 
0.00071863623454 0.00071786229846 0.00071709044189 0.00071632064463 0.00071555291653 0.00071478723904 0.00071402359825 0.00071326199362 0.00071250238804 
0.0007117448387 0.00071098928135 0.00071023571504 0.0007094841068 0.00070873449975 0.00070798687134 0.00073003082633 0.00072922572255 0.00072842280005 
0.00072762210282 0.00072682362259 0.00072602732499 0.00072523322409 0.00072444129772 0.00072365152732 0.00072286390236 0.00072207840455 0.00072129505899 
0.0007205138327 0.00071973473017 0.0007189576977 0.00071818279879 0.00071740996242 0.0007166391705 0.00071587047615 0.00071510386538 0.00071433926126 
0.00071357667876 0.00071281614781 0.00071205763241 0.00071130115646 0.000710546662 0.00070979415237 0.00070904359567 0.00070829503581 0.00070754841248 
0.00075270095087 0.000751852902 0.00075100711645 0.00075016371881 0.00074932262737 0.00074848383353 0.00074764737596 0.00074681320691 0.0007459813752 
0.00074515181233 0.00074432453565 0.0007434995064 0.00074267675811 0.00074185624479 0.00074103796725 0.00074022193018 0.00073940811891 0.00073859651984 
0.00073778712447 0.00073697991101 0.00073617491399 0.00073537205556 0.00073457137858 0.00073377287347 0.00073297651264 0.00073218228241 0.00073139023495 
0.0007306003076 0.00072981246502 0.00072902671753 0.00075216569127 0.00075131881043 0.00075047426985 0.00074963208046 0.0007487921412 0.00074795455341 
0.00074711931136 0.00074628632528 0.00074545567717 0.00074462729283 0.00074380118041 0.00074297734741 0.00074215574941 0.00074133640435 0.00074051928704 
0.00073970440512 0.00073889173178 0.00073808128818 0.00073727302403 0.00073646697956 0.00073566310309 0.00073486138818 0.00073406186652 0.00073326448617 
0.0007324692295 0.0007316761326 0.00073088517011 0.00073009635274 0.00072930963397 0.00072852503029 0.0007516323691 0.00075078669342 0.00074994337314 
0.00074910238692 0.00074826366099 0.00074742726182 0.00074659320859 0.00074576140599 0.00074493194079 0.00074410473411 0.00074327979445 0.0007424571237 
0.00074163671211 0.0007408185126 0.00074000255911 0.00073918883308 0.00073837731095 0.00073756802044 0.00073676090782 0.00073595601578 0.00073515325377 
0.00073435264891 0.00073355422108 0.00073275798684 0.00073196386733 0.00073117188497 0.00073038203467 0.00072959432542 0.00072880871389 0.00072802520981 
0.00075110113036 0.00075025667656 0.00074941451114 0.00074857467412 0.00074773714901 0.00074690194849 0.00074606905047 0.00074523846912 0.00074441017956 
0.00074358414861 0.00074276038164 0.0007419388989 0.0007411196532 0.00074030262408 0.00073948782008 0.00073867524408 0.00073786488386 0.00073705671316 
0.00073625073997 0.00073544696616 0.00073464533536 0.00073384588318 0.00073304858972 0.00073225344608 0.00073146045269 0.00073066958391 0.00072988084307 
0.00072909425415 0.00072830974879 0.0007275273414 0.00075057188748 0.0007497286205 0.00074888767744 0.00074804905068 0.000747212739 0.00074637872925 
0.00074554698328 0.00074471759324 0.0007438904689 0.00074306561323 0.00074224301284 0.00074142268354 0.00074060459124 0.00073978873541 0.00073897506207 
0.00073816365016 0.0007373544242 0.00073654739742 0.00073574259937 0.00073493993178 0.00073413945222 0.00073334112824 0.00073254495892 0.00073175093534 
0.0007309590574 0.00073016929801 0.00072938166894 0.00072859616088 0.00072781275509 0.00072703144275 0.00075004468496 0.00074920263851 0.00074836284952 
0.00074752547631 0.00074669036559 0.00074585753476 0.00074502699279 0.00074419878328 0.00074337283801 0.00074254912414 0.00074172766455 0.00074090849367 
0.00074009155435 0.00073927684347 0.00073846437233 0.00073765411195 0.00073684604151 0.00073604018562 0.0007352364892 0.00073443494408 0.0007336355866 
0.00073283840948 0.00073204336233 0.00073125045423 0.00073045969393 0.0007296710472 0.00072888451925 0.00072810011374 0.00072731782252 0.00072653759009 
0.00074951959945 0.00074867869907 0.00074784016134 0.00074700398031 0.00074617006201 0.00074533841524 0.00074450904607 0.00074368199739 0.00074285722017 
0.00074203470948 0.00074121445234 0.00074039644918 0.00073958065979 0.00073876711618 0.00073795575551 0.00073714664434 0.00073633971494 0.00073553501742 
0.00073473244695 0.00073393204393 0.00073313380715 0.00073233773109 0.0007315438258 0.00073075203989 0.00072996238799 0.00072917486626 0.00072838944276 
0.00072760613649 0.00072682490496 0.00072604578468 0.00074899658352 0.00074815691138 0.00074731958829 0.00074648457934 0.00074565184937 0.00074482137675 
0.00074399325241 0.00074316736281 0.00074234374732 0.00074152240632 0.00074070332632 0.00073988646391 0.00073907184314 0.00073825945853 0.00073744928377 
0.00073664130726 0.00073583556962 0.0007350319744 0.00073423054684 0.0007334312256 0.00073263411624 0.00073183916704 0.00073104637894 0.00073025572769 
0.00072946718637 0.00072868075715 0.00072789641416 0.00072711421296 0.00072633410563 0.00072555607528 0.00074847575118 0.00074763729861 0.00074680116899 
0.00074596733359 0.00074513580638 0.00074430651524 0.0007434795704 0.00074265488772 0.00074183242885 0.00074101222557 0.00074019431299 0.00073937862106 
0.0007385651571 0.0007377539253 0.00073694490073 0.0007361381054 0.00073533346034 0.00073453101045 0.00073373071641 0.00073293258965 0.00073213660836 
0.00073134277173 0.00073055108886 0.00072976152428 0.00072897410796 0.00072818874089 0.00072740551901 0.00072662442556 0.00072584538377 0.00072506843184 
0.00074795710354 0.0007471198559 0.00074628491745 0.0007454522706 0.00074462192789 0.00074379382875 0.00074296804416 0.00074214454074 0.00074132327043 
0.00074050423185 0.00073968746429 0.00073887293131 0.00073806063941 0.0007372505419 0.00073644266585 0.00073563700094 0.00073483350547 0.00073403220922 
0.00073323304734 0.00073243603309 0.00073164118761 0.00073084844326 0.000730057869 0.00072926939846 0.00072848309036 0.0007276989116 0.00072691678811 
0.00072613676396 0.00072535882157 0.00072458295113 0.00074744063935 0.00074660459125 0.00074577085437 0.00074493939422 0.00074411021776 0.00074328330834 
0.00074245870426 0.00074163635873 0.00074081624502 0.00073999840436 0.00073918278186 0.0007383694234 0.0007375582503 0.00073674932277 0.0007359426093 
0.00073513808635 0.00073433572888 0.00073353553036 0.00073273752583 0.00073194163678 0.00073114790913 0.00073035631812 0.00072956682047 0.00072877948834 
0.00072799427731 0.00072721115056 0.00072643014875 0.0007256512277 0.00072487437405 0.00072409959173 0.00074692638884 0.00074609151963 0.00074525897283 
0.00074442870677 0.00074360067353 0.00074277498645 0.00074195155019 0.00074113038112 0.00074031145982 0.00073949479659 0.00073868033474 0.00073786810878 
0.00073705811922 0.00073625033751 0.00073544473373 0.00073464134811 0.00073384011655 0.00073304105834 0.00073224416271 0.0007314494122 0.00073065680304 
0.00072986631339 0.00072907797014 0.00072829172391 0.00072750760193 0.00072672558439 0.00072594565397 0.0007251678498 0.00072439208313 0.00072361838357 
0.0007464143561 0.00074558070573 0.00074474930754 0.00074392022757 0.00074309338425 0.0007422688431 0.0007414466007 0.00074062660637 0.00073980885079 
0.00073899334304 0.00073818008465 0.00073736900195 0.00073656013118 0.0007357535238 0.00073494904333 0.00073414678843 0.00073334668969 0.00073254876455 
0.00073175299742 0.00073095935584 0.00073016787664 0.00072937850598 0.00072859126812 0.00072780613074 0.00072702311128 0.00072624219147 0.00072546337314 
0.00072468664354 0.00072391196069 0.00072313934228 0.00074590458045 0.00074507208335 0.00074424187081 0.0007434139562 0.00074258829249 0.00074176493519 
0.00074094388563 0.00074012503967 0.00073930845379 0.0007384941168 0.00073768200514 0.0007368721037 0.00073606441506 0.00073525889059 0.00073445556941 
0.00073365443403 0.00073285546022 0.00073205866716 0.00073126397679 0.00073047149075 0.00072968111824 0.00072889288396 0.00072810675505 0.00072732272665 
0.00072654080404 0.00072576098009 0.0007249832531 0.00072420758746 0.00072343401405 0.00072266244431 0.00074539700033 0.0007445656898 0.00074373665546 
0.00074290991962 0.00074208542133 0.00074126325334 0.00074044337786 0.00073962569741 0.00073881026786 0.00073799711573 0.00073718613994 0.0007363774136 
0.00073557085816 0.00073476647926 0.00073396427886 0.00073316427751 0.00073236644773 0.00073157075208 0.00073077722084 0.00072998584193 0.00072919658519 
0.00072840945034 0.00072762444109 0.00072684151613 0.00072606069618 0.00072528195313 0.00072450528869 0.00072373070928 0.00072295819189 0.00072218775413 
0.00074489164803 0.00074406152249 0.00074323366255 0.00074240807196 0.00074158480187 0.00074076378313 0.00073994507435 0.00073912858656 0.00073831433137 
0.0007375023082 0.00073669248506 0.00073588490308 0.0007350794912 0.00073427624511 0.00073347520152 0.00073267633315 0.00073187962179 0.00073108507338 
0.00073029264464 0.00072950237415 0.00072871424 0.00072792821451 0.00072714430026 0.00072636249688 0.00072558273492 0.00072480509574 0.00072402954852 
0.00072325605339 0.00072248461603 0.00072171522552 0.00074438852785 0.00074355957293 0.0007427329107 0.00074190848914 0.00074108638891 0.00074026654292 
0.00073944899541 0.0007386336689 0.00073782059694 0.00073700971077 0.00073620105604 0.00073539459117 0.00073459032317 0.00073378826148 0.00073298833762 
0.00073219057755 0.00073139500147 0.00073060157723 0.00072981027829 0.00072902111429 0.00072823406213 0.00072744914468 0.00072666633244 0.00072588561675 
0.00072510699278 0.00072433044484 0.00072355598676 0.00072278357249 0.000722013202 0.00072124490057 0.00074388763638 0.00074305986327 0.00074223435593 
0.00074141113407 0.00074059021116 0.0007397715331 0.00073895512057 0.00073814094721 0.00073732904133 0.00073651933783 0.00073571182439 0.00073490650592 
0.00073410339019 0.00073330244931 0.00073250364873 0.0007317070279 0.00073091259698 0.00073012024343 0.0007293300667 0.00072854203649 0.00072775610566 
0.00072697229461 0.0007261905846 0.00072541096697 0.00072463342498 0.0007238579666 0.00072308460731 0.00072231327798 0.00072154398895 0.00072077674919 
0.00074338896891 0.00074256235777 0.00074173801343 0.00074091600781 0.00074009621307 0.00073927870168 0.00073846345217 0.00073765047345 0.00073683969282 
0.0007360311559 0.00073522479293 0.00073442061867 0.00073361863363 0.00073281877586 0.00073202113948 0.00073122565562 0.00073043231241 0.000729641154 
0.00072885206766 0.00072806514059 0.00072728034208 0.00072649762574 0.00072571701634 0.00072493849512 0.00072416205346 0.00072338767934 0.00072261539284 
0.00072184514029 0.00072107693367 0.00072031076431 0.00074289249462 0.00074206705934 0.0007412438738 0.00074042303517 0.0007396044556 0.00073878810928 
0.0007379740214 0.00073716220068 0.00073635253278 0.00073554513828 0.00073473991142 0.00073393687982 0.00073313600835 0.00073233733922 0.00073154083314 
0.00073074647361 0.00072995427208 0.00072916421902 0.00072837627117 0.00072759043155 0.00072680673681 0.00072602514058 0.00072524561894 0.00072446819255 
0.00072369284149 0.00072291957213 0.00072214833622 0.0007213791554 0.00072061203776 0.00071984693076 0.00074239821204 0.00074157387127 0.00074075190783 
0.0007399322242 0.00073911482878 0.00073829964517 0.00073748674549 0.00073667608754 0.00073586758422 0.00073506130205 0.00073425725458 0.00073345531353 
0.00073265560269 0.0007318580658 0.00073106268937 0.00073026945516 0.00072947837564 0.00072868945586 0.0007279026076 0.00072711790174 0.0007263352826 
0.00072555479113 0.00072477638766 0.00072400003491 0.00072322577624 0.00072245359219 0.00072168343589 0.000720915331 0.0007201492793 0.0007193852445 
0.00074190607896 0.00074108293623 0.00074026212346 0.00073944360959 0.00073862737547 0.00073781337027 0.00073700164353 0.00073619211447 0.00073538476197 
0.00073457962737 0.00073377666281 0.0007329759466 0.00073217737459 0.00073138096684 0.00073058669635 0.00072979458502 0.00072900462504 0.00072821682635 
0.00072743108977 0.00072664749126 0.00072586596983 0.00072508657764 0.00072430926921 0.00072353402668 0.00072276084327 0.00072198974525 0.00072122067397 
0.00072045364802 0.00071968864285 0.00071892564931 0.00074141609969 0.00074059415866 0.0007397745032 0.00073895715732 0.00073814206935 0.00073732921592 
0.00073651867635 0.00073571028618 0.00073490409504 0.00073410006812 0.00073329827183 0.00073249869394 0.0007317012565 0.00073090597922 0.00073011285804 
0.00072932187355 0.00072853303196 0.00072774631994 0.00072696171002 0.00072617920383 0.00072539881037 0.00072462047984 0.00072384426747 0.00072307012484 
0.00072229804053 0.00072152799976 0.00072075999925 0.00071999403444 0.00071923011505 0.00071846820264 0.00074092821071 0.00074010748914 0.00073928901324 
0.00073847281729 0.00073765888945 0.00073684723763 0.00073603781099 0.00073523057274 0.00073442550433 0.00073362264692 0.00073282199143 0.00073202351683 
0.00073122725125 0.00073043310294 0.00072964110703 0.00072885124773 0.00072806351406 0.00072727793738 0.00072649443537 0.00072571304821 0.00072493372233 
0.00072415651481 0.00072338137372 0.00072260831973 0.00072183730534 0.00072106837661 0.00072030143221 0.00071953653706 0.00071877367135 0.00071801283264 
0.00074044245768 0.00073962290781 0.0007388056005 0.00073799058305 0.00073717782689 0.00073636730287 0.00073555901835 0.00073475292149 0.00073394902538 
0.00073314731596 0.0007323477998 0.00073155046069 0.00073075528431 0.00072996230082 0.00072917142456 0.00072838268933 0.00072759607032 0.00072681156676 
0.00072602921281 0.00072524892944 0.00072447074102 0.00072369461608 0.00072292056245 0.00072214856744 0.00072137867122 0.0007206107893 0.00071984493773 
0.000719081098 0.0007183192961 0.0007175595194 0.00073995876054 0.0007391403886 0.00073832425067 0.00073751041946 0.00073669882084 0.00073588944878 
0.00073508228542 0.00073427734636 0.00073347460791 0.0007326740345 0.00073187565607 0.00073107945116 0.00073028540496 0.00072949353611 0.00072870379387 
0.00072791617634 0.00072713067236 0.0007263472793 0.00072556603693 0.00072478686228 0.00072400976721 0.00072323474564 0.00072246178288 0.00072169089309 
0.00072092205926 0.00072015522574 0.00071939046134 0.00071862770536 0.00071786692104 0.00071710820408 0.00073947710488 0.00073865989222 0.00073784497977 
0.00073703225716 0.0007362218404 0.00073541358517 0.00073460758589 0.00073380378817 0.00073300219495 0.00073220277464 0.00073140553274 0.00073061046023 
0.00072981754366 0.00072902677711 0.00072823817849 0.00072745167819 0.0007266672913 0.00072588501385 0.00072510487247 0.00072432678936 0.00072355079119 
0.0007227768653 0.00072200499385 0.00072123517436 0.00072046742806 0.00071970166348 0.00071893796483 0.00071817625195 0.00071741658299 0.00071665890456 
0.00073899745173 0.00073818142559 0.00073736765325 0.00073655609224 0.00073574679905 0.0007349397353 0.00073413487507 0.00073333223262 0.00073253178152 
0.00073173348777 0.00073093739884 0.00073014345019 0.00072935166303 0.00072856201986 0.00072777452738 0.00072698916847 0.00072620588886 0.00072542470949 
0.00072464567233 0.00072386869209 0.00072309378939 0.00072232095479 0.00072155016692 0.00072078141238 0.00072001473148 0.0007192500714 0.00071848744619 
0.00071772682194 0.00071696819783 0.00071621152251 0.00073851974025 0.00073770488982 0.00073689228242 0.00073608187486 0.00073527375912 0.00073446783382 