# vtk DataFile Version 5.1
vtk output
ASCII
DATASET STRUCTURED_POINTS
DIMENSIONS 30 30 30
SPACING 0.01 0.01 0.01
ORIGIN 3.555 -0.145 0.855
POINT_DATA 27000
FIELD FieldData 1
potential 1 27000 double
0.00096445223794 0.0009628744092 0.00096130165323 0.00095973399352 0.00095817151623 0.00095661409051 0.00095506173893 0.0009535143587 0.00095197199321 
0.00095043467143 0.00094890229712 0.00094737486295 0.00094585236768 0.00094433475082 0.00094282204841 0.0009413141444 0.00093981108224 0.00093831285493 
0.00093681937652 0.00093533067844 0.000933846708 0.00093236753256 0.00093089300007 0.00092942316214 0.00092795796968 0.0009264974169 0.00092504149504 
0.00092359016555 0.00092214343127 0.00092070125307 0.00096361354152 0.00096203796182 0.00096046745482 0.00095890205928 0.00095734185795 0.00095578668081 
0.00095423650602 0.00095269143087 0.00095115128962 0.00094961617189 0.00094808602834 0.00094656079621 0.00094504052447 0.00094352508596 0.00094201453875 
0.00094050881623 0.00093900794588 0.0009375118895 0.00093602059158 0.00093453404331 0.00093305227337 0.00093157517368 0.00093010277164 0.00092863503802 
0.00092717194782 0.00092571353629 0.00092425968719 0.00092281043954 0.00092136577493 0.00091992560571 0.00096277721473 0.00096120386995 0.00095963565153 
0.00095807251359 0.00095651453499 0.00095496160938 0.00095341370562 0.00095187080864 0.00095033293803 0.00094880003923 0.00094727209167 0.00094574908052 
0.00094423098918 0.00094271777397 0.00094120937191 0.00093970586817 0.00093820714878 0.00093671322267 0.00093522407422 0.00093373968177 0.00093226008113 
0.00093078514861 0.00092931486618 0.00092784921822 0.00092638825777 0.00092493191267 0.00092348017865 0.00092203301365 0.00092059042275 0.00091915235741 
0.00096194328426 0.00096037223402 0.00095880626861 0.00095724542295 0.00095568968532 0.00095413895476 0.00095259332684 0.00095105265876 0.00094951701126 
0.00094798632876 0.00094646058437 0.00094493978169 0.00094342387174 0.00094191284644 0.00094040665584 0.00093890531412 0.00093740875991 0.00093591702514 
0.00093443002474 0.00093294776236 0.00093147025009 0.00092999741135 0.00092852923872 0.00092706576482 0.0009256069143 0.00092415265967 0.00092270299935 
0.00092125792717 0.00091981741118 0.00091838141665 0.00096111188088 0.00095954311388 0.00095797940771 0.00095642084501 0.00095486730662 0.00095331879507 
0.00095177539496 0.00095023695306 0.00094870352594 0.00094717505159 0.00094565154752 0.00094413293985 0.00094261922881 0.00094111037598 0.00093960639654 
0.00093810721561 0.000936612798 0.00093512317613 0.00093363838133 0.00093215824906 0.00093068282931 0.0009292121435 0.00092774610001 0.00092628470739 
0.000924827952 0.00092337579084 0.00092192821828 0.00092048524949 0.00091904680755 0.00091761286737 0.00096028300614 0.0009587164819 0.00095715505984 
0.00095559875616 0.00095404749999 0.00095250126898 0.00095096006382 0.00094942384877 0.00094789258748 0.00094636632445 0.00094484498267 0.0009433285853 
0.00094181700697 0.00094031037665 0.00093880855439 0.00093731153313 0.00093581931905 0.00093433186442 0.00093284919968 0.00093137120611 0.00092989791758 
0.00092842932199 0.00092696542642 0.00092550613683 0.00092405146833 0.00092260140753 0.00092115593657 0.00091971501288 0.0009182786128 0.00091684673157 
0.00095945663674 0.00095789240664 0.00095633321975 0.00095477920505 0.00095323018948 0.00095168622192 0.00095014721951 0.00094861319357 0.00094708417657 
0.00094556011448 0.0009440409874 0.00094252673796 0.00094101738142 0.00093951289934 0.0009380132755 0.00093651841875 0.00093502836301 0.00093354311336 
0.0009320625456 0.00093058666969 0.00092911552098 0.0009276490404 0.00092618722199 0.0009247300871 0.00092327751381 0.00092182953925 0.00092038610016 
0.0009189472334 0.00091751293347 0.00091608311415 0.00095863292587 0.00095707092008 0.00095551398372 0.00095396221113 0.00095241543348 0.00095087369782 
0.0009493369431 0.00094780516618 0.00094627835231 0.0009447564841 0.00094323955418 0.00094172753613 0.00094022038971 0.00093871806723 0.00093722057985 
0.00093572791864 0.00093423997358 0.00093275685414 0.00093127842712 0.00092980469784 0.00092833568726 0.00092687131794 0.00092541160775 0.00092395652607 
0.00092250607481 0.00092106015598 0.0009196188177 0.00091818201793 0.00091674978508 0.00091532200695 0.00095781178107 0.00095625207079 0.0009546974005 
0.00095314789031 0.00095160335543 0.00095006383972 0.0009485292978 0.00094699973055 0.00094547515482 0.00094395549197 0.00094244075108 0.00094093092243 
0.00093942593494 0.00093792578471 0.00093643046326 0.00093493993931 0.00093345426125 0.00093197324213 0.00093049697053 0.00092902537334 0.00092755846904 
0.0009260961707 0.00092463855211 0.00092318556294 0.00092173714201 0.00092029336144 0.00091885410493 0.00091741936863 0.0009159892084 0.00091456347708 
0.00095699337124 0.00095543591897 0.00095388350404 0.00095233623111 0.00095079392805 0.00094925663015 0.00094772430755 0.00094619698037 0.00094467458574 
0.00094315713388 0.00094164459345 0.00094013694931 0.0009386341144 0.00093713612668 0.00093564295831 0.00093415468105 0.00093267106823 0.00093119221646 
0.00092971806625 0.00092824859321 0.00092678380574 0.00092532367014 0.00092386811682 0.00092241722131 0.0009209709131 0.00091952915454 0.00091809198483 
0.00091665931294 0.00091523114516 0.00091380747671 0.00095617767464 0.00095462245181 0.00095307232356 0.00095152723974 0.00094998717675 0.00094845204045 
0.00094692199986 0.00094539688039 0.00094387670404 0.00094236143052 0.00094085112189 0.0009393456142 0.00093784497053 0.0009363491491 0.00093485810713 
0.00093337194251 0.00093189050153 0.000930413791 0.00092894175087 0.00092747441114 0.00092601173817 0.00092455368055 0.00092310026194 0.00092165144988 
0.00092020725714 0.00091876758632 0.00091733248221 0.00091590191091 0.00091447578903 0.00091305415458 0.00095536469793 0.00095381171998 0.00095226381514 
0.00095072093772 0.00094918312347 0.00094765022094 0.00094612239222 0.00094459946905 0.00094308149863 0.00094156841681 0.00094006025103 0.00093855699387 
0.00093705850584 0.00093556485401 0.00093407603844 0.00093259195938 0.00093111266139 0.00092963806957 0.000928168169 0.00092670294737 0.00092524235543 
0.00092378642906 0.00092233512834 0.00092088839043 0.00091944626404 0.00091800865222 0.00091657558485 0.00091514704989 0.00091372300813 0.00091230340818 
0.0009545544414 0.00095300370526 0.00095145803576 0.00094991736868 0.00094838178716 0.00094685110735 0.00094532547688 0.00094380477817 0.00094228899036 
0.00094077818465 0.00093927217359 0.00093777104021 0.00093627475628 0.00093478323967 0.0009332965924 0.00093181463179 0.00093033747571 0.00092886500169 
0.00092739721958 0.00092593410018 0.00092447564578 0.0009230218312 0.00092157263151 0.00092012796981 0.00091868789305 0.00091725236344 0.00091582135488 
0.00091439487207 0.00091297287365 0.00091155530742 0.00095374693153 0.00095219843398 0.00095065498838 0.00094911655573 0.00094758310111 0.00094605470634 
0.00094453132254 0.00094301281162 0.00094149924332 0.00093999058513 0.00093848679616 0.00093698780705 0.00093549367495 0.00093400438931 0.00093251981719 
0.00093104002546 0.00092956495438 0.00092809460431 0.00092662894313 0.00092516796276 0.00092371162934 0.00092225990397 0.00092081277435 0.00091937022134 
0.00091793221133 0.00091649874186 0.00091506978922 0.00091364535563 0.0009122253613 0.00091080985178 0.00095294216592 0.00095139591206 0.00094985468627 
0.00094831848445 0.00094678723391 0.0009452610507 0.00094373986976 0.00094222356424 0.00094071220141 0.00093920572762 0.00093770409835 0.00093620730599 
0.0009347153668 0.00093322818661 0.0009317457879 0.00093026811023 0.00092879515067 0.00092732696408 0.00092586340666 0.00092440452472 0.00092295027764 
0.00092150065917 0.00092005561544 0.00091861514023 0.00091717919993 0.0009157477987 0.00091432089469 0.00091289850701 0.00091148055863 0.0009100669879 
0.00095214016377 0.00095059616694 0.00094905714265 0.0009475231546 0.00094599412854 0.00094447012563 0.00094295115599 0.00094143709455 0.00093992787787 
0.00093842358178 0.00093692412173 0.00093542949552 0.0009339397099 0.00093245468307 0.00093097443186 0.00092949888677 0.00092802805527 0.00092656201929 
0.00092510057911 0.00092364378946 0.00092219164167 0.00092074409887 0.0009193011546 0.00091786275498 0.00091642888215 0.00091499953771 0.00091357464413 
0.00091215429642 0.0009107383706 0.00090932687389 0.0009513408926 0.00094979914667 0.00094826232463 0.00094673056189 0.00094520376746 0.0009436819685 
0.00094216517812 0.00094065329508 0.00093914631226 0.00093764415621 0.00093614686655 0.00093465444935 0.00093316679509 0.0009316839033 0.00093020574529 
0.00092873238051 0.00092726371313 0.00092579973802 0.00092434042168 0.00092288576214 0.00092143568413 0.0009199902296 0.00091854934973 0.00091711299549 
0.0009156811984 0.00091425389828 0.00091283109399 0.00091141278673 0.0009099988906 0.00090858941555 0.00095054442773 0.00094900486448 0.00094747029802 
0.00094594066193 0.00094441611731 0.00094289651991 0.00094138190395 0.00093987221458 0.00093836741488 0.00093686744612 0.00093537234984 0.00093388204815 
0.00093239654754 0.00093091581817 0.00092943981389 0.00092796856632 0.00092650201801 0.00092504015874 0.00092358295688 0.00092213038662 0.00092068239822 
0.00091923900261 0.00091780020022 0.00091636594213 0.00091493620612 0.00091351097448 0.00091209024638 0.00091067394279 0.00090926208177 0.00090785461117 
0.00094975061211 0.00094821328663 0.0009466809706 0.00094515355809 0.0009436312189 0.00094211381998 0.00094060138652 0.00093909383984 0.00093759120372 
0.00093609346451 0.00093460051895 0.00093311239041 0.00093162901071 0.00093015042699 0.000928676579 0.00092720743993 0.00092574297184 0.00092428322611 
0.00092282814433 0.0009213776538 0.0009199318025 0.00091849051584 0.0009170537614 0.0009156215698 0.00091419389207 0.00091277070604 0.00091135201989 
0.00090993775867 0.0009085279118 0.00090712246229 0.00094895960071 0.00094742443987 0.00094589428704 0.00094436910584 0.00094284896975 0.00094133376705 
0.00093982355644 0.00093831821471 0.0009368177593 0.00093532217407 0.00093383137716 0.00093234535734 0.0009308641159 0.00092938767411 0.00092791595879 
0.00092644896581 0.00092498663697 0.00092352899862 0.00092207602481 0.00092062766139 0.00091918386088 0.00091774465414 0.0009163100025 0.00091487984789 
0.00091345422907 0.00091203308883 0.00091061643142 0.00090920420521 0.00090779638019 0.00090639294213 0.00094817119179 0.00094663828542 0.00094511027325 
0.00094358734073 0.00094206942672 0.00094055644751 0.00093904839946 0.00093754521187 0.00093604694137 0.00093455348367 0.00093306481514 0.00093158100968 
0.00093010195174 0.00092862761728 0.00092715803224 0.00092569315706 0.0009242329647 0.00092277740103 0.00092132654366 0.00091988026015 0.0009184385449 
0.00091700143444 0.00091556884747 0.00091414078043 0.0009127171887 0.00091129808195 0.00090988347175 0.00090847325698 0.0009070674635 0.00090566604955 
0.00094738548464 0.00094585474329 0.00094432893613 0.00094280821133 0.00094129247327 0.00093978170134 0.00093827585336 0.00093677490718 0.00093527876694 
0.00093378745547 0.00093230095871 0.0009308192888 0.00092934238645 0.00092787022135 0.00092640276375 0.00092494000886 0.00092348190519 0.00092202846634 
0.00092057968936 0.00091913550304 0.00091769590371 0.00091626082649 0.00091483030603 0.00091340429733 0.00091198276683 0.00091056568616 0.0009091531245 
0.0009077449276 0.00090634113836 0.00090494172599 0.00094660242078 0.00094507380197 0.00094355026406 0.00094203174852 0.0009405182466 0.00093900961687 
0.00093750599433 0.00093600718524 0.00093451318118 0.00093302404499 0.00093153972046 0.00093006018112 0.0009285854364 0.00092711540026 0.00092565007845 
0.00092418942903 0.00092273347115 0.00092128213382 0.00091983545191 0.00091839331644 0.00091695578231 0.00091552281168 0.00091409433229 0.00091267037835 
0.00091125089428 0.00090983593056 0.00090842533159 0.00090701913324 0.00090561736453 0.00090421994472 0.00094582193837 0.00094429555561 0.00094277425423 
0.00094125789735 0.00093974657205 0.00093824012882 0.0009367386863 0.00093524201655 0.000933750211 0.00093226323418 0.00093078104318 0.00092930366657 
0.00092783102983 0.00092636316237 0.00092489996399 0.00092344142972 0.00092198757323 0.0009205383368 0.00091909372882 0.00091765372654 0.00091621826937 
0.0009147873417 0.0009133609669 0.00091193902691 0.00091052159587 0.00090910865894 0.00090770010435 0.00090629590637 0.00090489612792 0.00090350072786 
0.00094504403138 0.00094351985816 0.00094200074498 0.00094048658281 0.00093897745895 0.00093747322994 0.0009359738779 0.00093447940657 0.00093298978638 
0.00093150496668 0.00093002492901 0.00092854969823 0.0009270791973 0.00092561343525 0.00092415237422 0.00092269595293 0.00092124420127 0.00091979706345 
0.00091835454741 0.00091691665444 0.00091548325552 0.00091405441457 0.00091263008755 0.00091121023884 0.00090979479285 0.00090838389087 0.00090697736159 
0.00090557519103 0.00090417737664 0.00090278397689 0.00094426854324 0.00094274666451 0.00094122975984 0.00093971780949 0.00093821088342 0.00093670877453 
0.00093521162991 0.00093371933071 0.00093223185063 0.00093074920763 0.0009292713098 0.0009277982012 0.00092632985193 0.00092486620173 0.00092340725849 
0.00092195296302 0.00092050331687 0.00091905828361 0.00091761785615 0.0009161820439 0.00091475073116 0.00091332393156 0.00091190165379 0.00091048386477 
0.00090907048121 0.00090766161064 0.00090625703808 0.00090485690142 0.00090346113888 0.00090206971014 0.00094349561305 0.00094197593978 0.00094046123479 
0.00093895151645 0.00093744669268 0.00093594683048 0.00093445184716 0.00093296171096 0.00093147639079 0.00092999587337 0.00092852014388 0.0009270491741 
0.00092558293808 0.00092412142783 0.00092266457891 0.00092121243965 0.0009197648815 0.000918321941 0.00091688360016 0.00091544985664 0.0009140206184 
0.00091259589757 0.0009111756444 0.00090975986196 0.00090834856728 0.00090694168274 0.00090553918104 0.00090414107285 0.00090274726751 0.00090135783188 
0.00094272511813 0.00094120764375 0.00093969516749 0.00093818760695 0.00093668496362 0.0009351872796 0.00093369445609 0.0009322064847 0.00093072332265 
0.00092924497161 0.00092777135898 0.00092630254823 0.00092483845022 0.00092337906187 0.0009219243277 0.00092047427438 0.00091902883187 0.00091758797262 
0.00091615172082 0.00091472005854 0.00091329288544 0.00091187017638 0.00091045198828 0.00090903826208 0.00090762905868 0.00090622415759 0.00090482365104 
0.00090342756108 0.00090203580033 0.00090064839449 0.00094195694116 0.00094044172512 0.00093893144038 0.00093742604634 0.00093592560327 0.00093443007615 
0.00093293943303 0.00093145362463 0.00092997261869 0.00092849640116 0.00092702494748 0.00092555825017 0.00092409629981 0.00092263902212 0.00092118641603 
0.0009197384433 0.00091829509444 0.00091685634563 0.0009154221558 0.00091399253049 0.00091256742741 0.00091114682114 0.00090973069769 0.00090831899865 
0.00090691178725 0.00090550896479 0.00090411052066 0.00090271639899 0.00090132664657 0.0008999412229 0.00094119113768 0.00093967809867 0.00093816997004 
0.00093666679556 0.000935168558 0.00093367519033 0.00093218670312 0.00093070305606 0.00092922421325 0.00092775014865 0.00092628082509 0.0009248162663 
0.00092335641474 0.00092190126637 0.00092045073541 0.00091900489598 0.00091756364433 0.00091612694638 0.0009146948527 0.00091326733882 0.0009118442897 
0.00091042571441 0.00090901163936 0.00090760200598 0.00090619683817 0.0009047960418 0.00090339961297 0.00090200749708 0.00090061974183 0.00089923625387 
0.00097506977344 0.00097347531647 0.00097188593872 0.00097030180933 0.00096872279585 0.00096714887954 0.00096558009918 0.00096401638359 0.00096245778933 
0.00096090421341 0.00095935566627 0.00095781208672 0.00095627351298 0.00095473986391 0.00095321113468 0.00095168732131 0.00095016839348 0.00094865432181 
0.00094714508492 0.00094564064475 0.00094414104264 0.00094264615176 0.0009411560247 0.0009396706396 0.00093818994807 0.00093671392202 0.00093524262273 
0.00093377595406 0.00093231385832 0.00093085634362 0.00097422345601 0.00097263123857 0.00097104420762 0.00096946237075 0.00096788557347 0.00096631394164 
0.00096474746108 0.00096318599708 0.00096162965351 0.00096007831967 0.00095853199407 0.00095699067582 0.0009554543005 0.00095392287099 0.00095239634885 
0.00095087473351 0.00094935797819 0.0009478460998 0.00094633902299 0.00094483679493 0.00094333932816 0.00094184660503 0.00094035866036 0.00093887541321 
0.00093739682715 0.0009359229457 0.00093445372209 0.00093298916084 0.0009315291897 0.00093007381918 0.00097337942265 0.00097178950006 0.00097020477841 
0.00096862522529 0.00096705072676 0.00096548135704 0.00096391713724 0.00096235792492 0.00096080383033 0.00095925473658 0.00095771064253 0.00095617154515 
0.00095463741027 0.00095310816979 0.00095158385828 0.00095006444126 0.00094854987567 0.0009470401886 0.00094553529714 0.00094403525262 0.00094253991687 
0.00094104931454 0.00093956346721 0.00093808238564 0.00093660595305 0.0009351341898 0.00093366707849 0.00093220462138 0.00093074675006 0.00092929346687 
0.00097253787354 0.00097095026387 0.00096936776252 0.00096779042365 0.00096621819982 0.00096465110872 0.00096308909986 0.00096153219264 0.00095998033698 
0.00095843347987 0.00095689161647 0.00095535476883 0.00095382285144 0.00095229583237 0.00095077371193 0.00094925648468 0.00094774412113 0.00094623657849 
0.0009447338576 0.00094323594676 0.00094174276421 0.00094025434267 0.00093877064735 0.00093729165609 0.00093581735962 0.0009343477125 0.00093288270906 
0.00093142237209 0.00092996659817 0.00092851539726 0.00097169868775 0.00097011334193 0.00096853315485 0.00096695810536 0.00096538817979 0.00096382335234 
0.00096226355326 0.00096070890545 0.00095915927487 0.00095761465309 0.0009560750119 0.00095454036512 0.0009530106477 0.00095148585255 0.00094996589583 
0.0009484508755 0.00094694067796 0.00094543531127 0.00094393480802 0.00094243901772 0.00094094801414 0.00093946173796 0.00093798018003 0.0009365033181 
0.00093503114213 0.000933563605 0.00093210071152 0.00093064244088 0.0009291887552 0.00092773963364 0.00097086192281 0.00096927888808 0.00096770091818 
0.000966128221 0.00096456057374 0.00096299799215 0.0009614404725 0.00095988807048 0.00095834068113 0.0009567982474 0.00095526079194 0.00095372835281 
0.00095220083424 0.00095067822631 0.00094916053065 0.00094764770032 0.00094613969609 0.00094463654475 0.00094313815363 0.00094164450748 0.00094015564025 
0.00093867153387 0.00093719210994 0.00093571737075 0.00093424731722 0.0009327818932 0.00093132109512 0.00092986491887 0.00092841333914 0.00092696627864 
0.00097002768411 0.00096844685774 0.00096687123709 0.0009653008074 0.00096373542636 0.00096217509523 0.00096061981053 0.00095906962784 0.00095752446543 
0.00095598430446 0.00095444911729 0.00095291889765 0.0009513935732 0.00094987317964 0.0009483576203 0.00094684697552 0.00094534114559 0.00094384018733 
0.00094234394443 0.00094085246597 0.00093936573465 0.00093788373584 0.00093640647176 0.00093493386274 0.00093346591895 0.00093200262246 0.00093054392326 
0.00092908983652 0.00092764029453 0.0009261953317 0.00096919590119 0.00096761739581 0.0009660440766 0.00096447588387 0.0009629127627 0.0009613546687 
0.00095980172029 0.00095825375329 0.00095671080709 0.00095517287162 0.00095363992207 0.00095211188139 0.00095058877442 0.00094907058219 0.00094755726138 
0.0009460487832 0.00094454519676 0.00094304635239 0.00094155227972 0.00094006288729 0.00093857830046 0.00093709844254 0.00093562330224 0.00093415284026 
0.00093268700815 0.00093122579789 0.00092976916699 0.00092831717738 0.00092686975228 0.00092542685967 0.00096836673794 0.00096679053716 0.00096521948732 
0.00096365353644 0.00096209269295 0.00096053684699 0.00095898614218 0.00095744045265 0.00095589971666 0.00095436396324 0.00095283323367 0.0009513074143 
0.00094978650871 0.00094827051038 0.0009467593778 0.00094525313107 0.00094375164784 0.00094225497814 0.00094076306223 0.00093927590409 0.00093779346205 
0.00093631572517 0.00093484269503 0.0009333743144 0.00093191061257 0.00093045144922 0.00092899693603 0.00092754704535 0.000926101659 0.00092466081958 
0.00096754018706 0.00096596627217 0.0009643974879 0.00096283379747 0.00096127520723 0.00095972162241 0.00095817313554 0.00095662968612 0.00095509120039 
0.00095355766524 0.00095202912462 0.00095050551083 0.00094898682496 0.00094747299632 0.000945964049 0.000944459962 0.00094296066019 0.00094146617404 
0.0009399764123 0.00093849138114 0.00093701109292 0.00093553544814 0.00093406453146 0.00093259824388 0.00093113665008 0.00092967969626 0.00092822727164 
0.00092677942687 0.00092533612514 0.00092389734488 0.00096671624772 0.00096514461043 0.00096357810484 0.00096201667166 0.00096046031026 0.00095890898292 
0.00095736273895 0.00095582150083 0.00095428522242 0.00095275394739 0.00095122759603 0.00094970620663 0.00094818967107 0.00094667805857 0.00094517131818 
0.00094366939935 0.00094217226343 0.00094067988971 0.00093919231316 0.00093770942381 0.00093623126555 0.00093475779705 0.00093328895154 0.00093182481209 
0.00093036530912 0.00092891038243 0.00092746007722 0.00092601432422 0.00092457309188 0.00092313637729 0.00096589496062 0.00096432557279 0.00096276133002 
0.00096120216352 0.00095964799381 0.00095809897169 0.00095655495304 0.00095501595093 0.00095348192791 0.00095195289027 0.00095042874297 0.00094890952283 
0.00094739522092 0.00094588579352 0.00094438118112 0.00094288142921 0.00094138644312 0.00093989623489 0.00093841078139 0.00093693005023 0.00093545402174 
0.00093398266093 0.00093251598648 0.00093105392401 0.00092959650046 0.00092814367844 0.00092669542394 0.0009252517805 0.00092381261452 0.00092237795775 
0.00096507633042 0.00096350924846 0.00096194720847 0.000960390297 0.00095883838591 0.00095729156183 0.00095574980368 0.00095421303315 0.00095268122869 
0.00095115439456 0.00094963250869 0.00094811547276 0.00094660331971 0.00094509611108 0.00094359364811 0.00094209605424 0.00094060322519 0.00093911517316 
0.00093763186676 0.00093615325499 0.00093467937426 0.00093321013681 0.0009317455685 0.00093028561459 0.00092883028845 0.00092737955475 0.0009259334066 
0.00092449181328 0.00092305470907 0.00092162210731 0.00096426041302 0.00096269554104 0.00096113575656 0.0009595810722 0.00095803140373 0.00095648682864 
0.00095494732686 0.00095341275448 0.00095188317271 0.00095035856025 0.00094883886414 0.00094732405874 0.00094581414214 0.00094430902761 0.00094280876161 
0.00094131330916 0.00093982262581 0.00093833672803 0.00093685550525 0.00093537907129 0.00093390729962 0.00093244021167 0.00093097775393 0.00092951990812 
0.00092806667109 0.00092661802252 0.00092517395116 0.00092373439424 0.00092229938547 0.00092086879356 0.00096344711799 0.00096188450378 0.00096032696484 
0.0009587745232 0.00095722707972 0.00095568475895 0.00095414748901 0.00095261513547 0.00095108775887 0.00094956538491 0.00094804786348 0.00094653528637 
0.00094502753086 0.0009435245974 0.00094202647584 0.00094053318322 0.00093904467145 0.00093756088503 0.00093608184537 0.00093460752579 0.00093313787817 
0.00093167289058 0.00093021255646 0.00092875681063 0.00092730566999 0.00092585908566 0.0009244170507 0.00092297956001 0.00092154657386 0.00092011810493 
0.00096263649185 0.00096107613265 0.00095952083227 0.00095797058464 0.00095642545293 0.00095488533242 0.00095335028578 0.00095182018477 0.00095029504087 
0.00094877482928 0.00094725950305 0.00094574910822 0.00094424353156 0.00094274275975 0.00094124683065 0.0009397556979 0.00093826932551 0.00093678770765 
0.00093531077849 0.00093383857568 0.00093237105995 0.00093090818477 0.00092944994203 0.00092799631955 0.0009265472135 0.00092510272402 0.00092366279997 
0.00092222737234 0.00092079644074 0.00091936997976 0.00096182853938 0.00096027041497 0.00095871738414 0.00095716936709 0.00095562646529 0.00095408857553 
0.00095255574091 0.00095102785493 0.000949504948 0.00094798691348 0.00094647380586 0.00094496555258 0.00094346215467 0.00094196361521 0.00094046982916 
0.0009389808219 0.00093749660503 0.00093601712843 0.00093454234638 0.0009330722558 0.00093160681666 0.00093014605155 0.0009286899082 0.00092723836409 
0.00092579140092 0.00092434898865 0.00092291113635 0.00092147776657 0.00092004887209 0.00091862447392 0.00096102325784 0.00095946738085 0.00095791656413 
0.00095637081561 0.00095483015136 0.0009532944858 0.00095176383219 0.0009502381449 0.00094871745419 0.00094720165917 0.00094569072788 0.00094418465827 
0.00094268345113 0.00094118705488 0.00093969541705 0.00093820857359 0.00093672652818 0.00093524911958 0.00093377647301 0.00093230853135 0.00093084522299 
0.00092938656517 0.00092793252104 0.000926483068 0.00092503817238 0.00092359783454 0.0009221620654 0.00092073075911 0.00091930391948 0.00091788154749 
0.00096022063767 0.00095866698254 0.00095711837987 0.00095557492871 0.00095403643961 0.00095250299603 0.00095097455766 0.00094945112927 0.00094793259756 
0.00094641901603 0.00094491027644 0.000943406387 0.00094190733849 0.00094041303807 0.0009389235976 0.0009374389158 0.00093595896417 0.00093448379268 
0.00093301323893 0.00093154740521 0.00093008624069 0.00092862967326 0.00092717772565 0.00092573036095 0.00092428755663 0.00092284928567 0.00092141556574 
0.00091998631113 0.0009185615265 0.0009171411917 0.00095942063896 0.00095786922161 0.00095632283706 0.00095478161044 0.0009532454095 0.0009517141855 
0.00095018796007 0.00094866673783 0.0009471503538 0.00094563895094 0.00094413238084 0.00094263066905 0.00094113375978 0.00093964169269 0.00093815440701 
0.00093667186876 0.00093519408264 0.00093372102654 0.00093225262946 0.00093078888149 0.0009293298225 0.0009278753796 0.00092642551092 0.000924980232 
0.00092353950517 0.00092210332955 0.00092067162742 0.00091924441625 0.00091782169586 0.00091640338727 0.00095862325391 0.0009570739652 0.00095552988701 
0.00095399086927 0.00095245691483 0.00095092790641 0.00094940392907 0.00094788492326 0.00094637074703 0.00094486148506 0.00094335714322 0.00094185754297 
0.0009403628298 0.00093887292196 0.0009373877897 0.00093590739686 0.00093443174944 0.00093296084402 0.00093149455182 0.00093003295138 0.00092857596044 
0.0009271236215 0.00092567587112 0.0009242326491 0.00092279400149 0.00092135989324 0.00091993024809 0.00091850508627 0.00091708440051 0.00091566812922 
0.00095782843384 0.00095628141404 0.00095473954117 0.00095320275187 0.00095167101416 0.00095014424231 0.00094862249352 0.00094710565117 0.0009455936687 
0.00094408659421 0.00094258435412 0.00094108703648 0.00093959449317 0.00093810673994 0.00093662372997 0.00093514547883 0.00093367196642 0.00093220319615 
0.00093073902376 0.00092927953496 0.00092782463996 0.00092637439695 0.00092492873433 0.00092348761788 0.00092205102666 0.00092061898748 0.00091919140557 
0.00091776829638 0.00091634961643 0.00091493534417 0.00095703618057 0.00095549143634 0.00095395177696 0.00095241721333 0.00095088766903 0.00094936309715 
0.00094784359874 0.00094632893143 0.00094481915704 0.00094331421832 0.00094181418844 0.00094031904147 0.0009388286617 0.00093734306442 0.0009358622323 
0.00093438612824 0.00093291474893 0.00093144806723 0.00092998603402 0.00092852863719 0.00092707587877 0.00092562768158 0.00092418410779 0.00092274508192 
0.00092131057907 0.0009198805694 0.00091845503078 0.00091703395013 0.00091561732927 0.00091420510664 0.00095624640446 0.0009547039638 0.0009531665446 
0.00095163418294 0.00095010685195 0.00094858454807 0.00094706719464 0.00094555472388 0.00094404710768 0.00094254438248 0.00094104652831 0.00093955350478 
0.00093806533861 0.00093658189492 0.00093510320927 0.00093362924808 0.0009321599884 0.00093069545886 0.0009292355398 0.00092778026882 0.00092632956747 
0.00092488349741 0.00092344197949 0.0009220050296 0.00092057257544 0.00091914466674 0.00091772115258 0.00091630211168 0.00091488750758 0.00091347732377 
0.00095545917444 0.00095391896745 0.00095238377604 0.00095085365307 0.00094932855343 0.00094780841502 0.00094629324636 0.00094478296065 0.00094327756344 
0.00094177702572 0.00094028134505 0.00093879048782 0.00093730442374 0.00093582318113 0.00093434663295 0.0009328748153 0.00093140768322 0.00092994522484 
0.00092848747181 0.00092703430676 0.00092558575295 0.00092414175632 0.00092270231566 0.00092126740252 0.000919837062 0.00091841116541 0.00091698972472 
0.00091557270424 0.00091416012948 0.0009127519711 0.00095467437948 0.00095313641398 0.0009516034509 0.00095007557991 0.00094855268563 0.0009470347529 
0.00094552173966 0.0009440136551 0.00094251046008 0.00094101209279 0.00093951858331 0.00093802989041 0.00093654598323 0.00093506687437 0.00093359248404 
0.00093212280005 0.00093065779577 0.00092919745684 0.00092774182295 0.00092629076973 0.0009248443046 0.00092340240804 0.00092196504867 0.00092053223363 
0.00091910393005 0.0009176800502 0.00091626067537 0.0009148457134 0.00091343510789 0.00091202897002 0.00095389199913 0.00095235625083 0.00095082559447 
0.00094929986606 0.00094777921238 0.00094626343559 0.00094475263367 0.00094324673183 0.00094174572034 0.0009402495469 0.00093875820679 0.00093727167571 
0.00093578992446 0.00093431293315 0.00093284071289 0.00093137316172 0.00092991028845 0.0009284520751 0.00092699854482 0.00092554958183 0.00092410521058 
0.0009226654033 0.00092123012577 0.00091979936177 0.00091837312844 0.00091695129416 0.00091553395669 0.00091412099969 0.00091271248895 0.00091130834305 
0.00095311198168 0.00095157848855 0.0009500500188 0.00094852650664 0.00094700801956 0.00094549449216 0.00094398587126 0.00094248216931 0.00094098333853 
0.00093948932276 0.00093800017392 0.0009365157936 0.00093503619781 0.00093356135187 0.00093209125199 0.0009306258655 0.00092916510886 0.00092770899915 
0.00092625757725 0.0009248107179 0.00092336843851 0.00092193071503 0.00092049750889 0.00091906879028 0.00091764460028 0.00091622485356 0.00091480956253 
0.00091339866942 0.00091199216225 0.00091058996177 0.0009523342451 0.00095080298992 0.00094927674255 0.0009477554369 0.00094623918852 0.00094472783836 