# vtk DataFile Version 5.1
vtk output
ASCII
DATASET POLYDATA
POINTS 2489 double
58.611110687 -9.4444446564 1.258879255e-14 57.569446564 -9.4444446564 1.2347858264e-14 58.611110687 -12.222222328 1.258879255e-14 
58.611110687 -12.222222328 1.258879255e-14 57.569446564 -9.4444446564 1.2347858264e-14 55.833335876 -12.222222328 1.1946300237e-14 
55.833335876 -12.222222328 1.1946300237e-14 57.569446564 -9.4444446564 1.2347858264e-14 56.597221375 -9.4444446564 1.2122985028e-14 
55.833335876 -12.222222328 1.1946300237e-14 56.597221375 -9.4444446564 1.2122985028e-14 55.833335876 -9.4444446564 1.1946300237e-14 
56.597221375 -9.4444446564 1.2122985028e-14 57.569446564 -9.4444446564 1.2347858264e-14 56.597221375 -1.6319445372 1.2122985028e-14 
56.597221375 -1.6319445372 1.2122985028e-14 57.569446564 -9.4444446564 1.2347858264e-14 57.569446564 -1.6319445372 1.2347858264e-14 
56.597221375 -1.6319445372 1.2122985028e-14 57.569446564 -1.6319445372 1.2347858264e-14 55.416667938 -0.72916668653 1.1849925993e-14 
55.416667938 -0.72916668653 1.1849925993e-14 57.569446564 -1.6319445372 1.2347858264e-14 58.611110687 -1.6319445372 1.258879255e-14 
55.416667938 -0.72916668653 1.1849925993e-14 58.611110687 -1.6319445372 1.258879255e-14 55.416667938 0.72916668653 1.1849925993e-14 
55.416667938 0.72916668653 1.1849925993e-14 58.611110687 -1.6319445372 1.258879255e-14 58.611110687 1.840277791 1.258879255e-14 
55.416667938 0.72916668653 1.1849925993e-14 58.611110687 1.840277791 1.258879255e-14 -59.444450378 1.840277791 -1.4717161213e-14 
-59.444450378 1.840277791 -1.4717161213e-14 -59.444450378 0.72916668653 -1.4717161213e-14 55.416667938 0.72916668653 1.1849925993e-14 
-59.444450378 -0.72916668653 -1.4717161213e-14 -59.444450378 -1.6319445372 -1.4717161213e-14 55.416667938 -0.72916668653 1.1849925993e-14 
55.416667938 -0.72916668653 1.1849925993e-14 -59.444450378 -1.6319445372 -1.4717161213e-14 56.597221375 -1.6319445372 1.2122985028e-14 
4.5535728997 -1.12893709 8.5420290281e-17 -27.445438739 -1.3804408136 -7.3158704613e-15 -34.01389122 -0.72916668653 -8.835136967e-15 
-8.5803378094 1.3482428786 -2.9524201581e-15 -34.012394094 1.5942603348 -8.8347906855e-15 -34.01389122 0.72916668653 -8.835136967e-15 
4.5555496216 -1.6319445372 8.5877501067e-17 24.597221375 -1.6319445372 4.7214656706e-15 40.597221375 -1.6319445372 8.4222253491e-15 
-5.3888893127 1.840277791 -2.2142461635e-15 26.611110687 1.840277791 5.1872731935e-15 42.611110687 1.840277791 8.888032872e-15 
4.5525553693 1.221201599 8.5184938051e-17 -27.445947505 1.530739695 -7.3159881374e-15 29.984611654 0.97518414276 5.9675554655e-15 
17.268583512 1.0981928709 3.0263702018e-15 42.700639796 0.85217541465 8.9087407292e-15 -8.5833320618 -0.72916668653 -2.9531127211e-15 
23.416667938 -0.72916668653 4.4484066359e-15 -46.729170799 -1.1805556118 -1.177614909e-14 -8.5833320618 0.72916668653 -2.9531127211e-15 
23.416667938 0.88393935508 4.4484066359e-15 -46.729170799 1.1837197968 -1.177614909e-14 -21.299573111 1.1397114793 -5.8943472297e-15 
4.5535728997 -1.12893709 8.5420290281e-17 -27.444450378 -1.5061907333 -7.3156418559e-15 29.985120419 -0.92905188828 5.9676731416e-15 
-8.4460255787 -1.2311104777 -2.9213540776e-15 -9.4459946924 -1.2389699691 -3.1526444135e-15 7.4166679382 -0.72916668653 7.4764695742e-16 
23.418165064 1.0387047826 4.4487529174e-15 23.416667938 0.72916668653 4.4484066359e-15 -11.44593292 -1.2546889518 -3.6152250855e-15 
-7.4460564649 -1.2232509864 -2.6900637416e-15 -21.298611641 -0.72916668653 -5.894124844e-15 -3.4461800101 -1.1918130209 -1.7649023976e-15 
-11.44593292 -1.2546889518 -3.6152250855e-15 7.4166679382 0.72916668653 7.4764695742e-16 -27.445438739 -1.3804408136 -7.3158704613e-15 
-27.444450378 -1.6319445372 -7.3156418559e-15 -14.940971851 -0.72916668653 -4.4236187825e-15 -11.762151957 -0.72916668653 -3.6883657518e-15 
-0.58333206177 -0.72916668653 -1.1027328818e-15 -4.5833320618 -0.72916668653 -2.0279228014e-15 -6.5833320618 -0.72916668653 -2.4905177613e-15 
-5.4461182375 -1.2075320036 -2.2274830696e-15 23.417656299 -0.9806704101 4.4486352413e-15 0.55369644483 -1.1603750555 -8.3974105367e-16 
3.4166679382 -0.72916668653 -1.775429622e-16 -3.4444503784 -1.6319445372 -1.7645023382e-15 -11.444450378 -1.6319445372 -3.6148821774e-15 
3.7928695483 -1.2913757375 -9.0528477868e-17 0.55369644483 -1.1603750555 -8.3974105367e-16 3.553603786 -1.1367965814 -1.4587004571e-16 
4.0535883429 -1.1328668357 -3.0224877713e-17 2.5536346723 -1.1446560728 -3.7716038169e-16 -3.4461800101 -1.1918130209 -1.7649023976e-15 
4.6732161569 -1.3799745228 1.1309347416e-16 4.3035847444 -1.1314265523 2.7598659954e-17 4.4298261679 -1.2554384644 5.6797983067e-17 
3.9290058143 -1.1463982119 -5.9040502606e-17 4.117002137 -1.3821603362 -1.5557426926e-17 4.1785880548 -1.132408993 -1.3127593516e-18 
0.55554962158 -1.6319445372 -8.3931241855e-16 4.1165164981 -1.2495717085 -1.5669753998e-17 4.0652068251 -1.5018689768 -2.753755205e-17 
3.0536192291 -1.1407263271 -2.615152137e-16 3.6938530846 -1.3968227453 -1.1343073638e-16 3.8036927432 -1.1471322283 -8.8025100144e-17 
2.5555496216 -1.6319445372 -3.7671745874e-16 3.9385500377 -1.4707085665 -5.6832947798e-17 4.0555496216 -1.6319445372 -2.9771238885e-17 
3.5555496216 -1.6319445372 -1.4541997884e-16 3.6121793632 -1.5070179498 -1.3232166232e-16 3.6758337599 -1.2100662424 -1.1759856077e-16 
3.7304052676 -1.576560853 -1.0497630856e-16 3.9361478574 -1.2715097453 -5.738856604e-17 3.999948997 -1.3703542488 -4.2631523234e-17 
3.8212048604 -1.4171956014 -8.3974591581e-17 3.8885862641 -1.6300322649 -6.8389442712e-17 3.8342188308 -1.5301599256 -8.0964493016e-17 
3.6122493541 -1.3104487805 -1.3230547359e-16 2.9305496216 -1.5783242461 -2.8998090378e-16 3.0766680676 -1.453434973 -2.5618407545e-16 
3.3036115076 -1.1387614542 -2.036926297e-16 2.8055496216 -1.6319445372 -3.1889308877e-16 3.5143503445 -1.3983301022 -1.549492678e-16 
3.4289152348 -1.1769136791 -1.7471019337e-16 2.6544500944 -1.4137906549 -3.5384202861e-16 -19.443709073 -1.4747493692 -5.4650905547e-15 
-10.945948363 -1.2507592061 -3.4995799175e-15 3.3055496216 -1.5710166245 -2.0324434881e-16 -7.1944503784 -1.6319445372 -2.6318678878e-15 
3.1789012424 -1.1761158664 -2.3253779975e-16 2.9716819695 -1.3075255064 -2.8046709537e-16 2.9289476932 -1.1830082879 -2.9035142578e-16 
2.8036269507 -1.1426911999 -3.193377977e-16 2.786433363 -1.2927392102 -3.2331463121e-16 3.0555496216 -1.6319445372 -2.6106871879e-16 
2.8664271575 -1.4583724007 -3.0481226813e-16 3.1799244263 -1.306296339 -2.3230113989e-16 2.0555496216 -1.6319445372 -4.923661987e-16 
1.5536655586 -1.1525155641 -6.0845071768e-16 2.5080209751 -1.3106812546 -3.877107149e-16 2.6789683581 -1.1866199491 -3.4817101602e-16 
2.0536501154 -1.1485858184 -4.9280554969e-16 2.3037891445 -1.1652921407 -4.3494902264e-16 2.3439491278 -1.3866648741 -4.2566011971e-16 
2.3055496216 -1.6314039194 -4.3454182872e-16 2.501246634 -1.4758308768 -3.8927760292e-16 1.6776073048 -1.2400372666 -5.7978330411e-16 
2.1631646999 -1.389838539 -4.6747510228e-16 3.1691937706 -1.5548851434 -2.3478311352e-16 2.6805496216 -1.5571182234 -3.4780527376e-16 
3.3522650136 -1.3336808004 -1.9243919638e-16 3.2480164839 -1.4337616238 -2.1655161856e-16 3.3937760831 -1.4651169906 -1.8283779062e-16 
-10.944450378 -1.6319445372 -3.4992334375e-15 1.8036978431 -1.1556406965 -5.5061888038e-16 1.5555496216 -1.6319445372 -6.0801493865e-16 
1.6757110085 -1.3917541377 -5.8022191267e-16 1.0536810017 -1.1564453098 -7.2409588567e-16 1.8055496216 -1.6068613251 -5.5019056867e-16 
2.1731850326 -1.2398069365 -4.6515742457e-16 1.9342109677 -1.348287145 -5.2043152355e-16 1.9303188639 -1.2103910431 -5.2133175734e-16 
2.0293983979 -1.4753502108 -4.9841491083e-16 2.1803566779 -1.5424505191 -4.634986411e-16 1.527106878 -1.4675632252 -6.1459367356e-16 
1.6726189551 -1.5403593613 -5.8093709684e-16 1.8187698865 -1.452142717 -5.4713275472e-16 1.0819145815 -1.6292457956 -7.1756552981e-16 
1.3189735085 -1.5882277127 -6.627343974e-16 0.89908724395 -1.4196596774 -7.5985303225e-16 1.1744683768 -1.4586135984 -6.9615807021e-16 
1.4754737742 -1.3045672421 -6.2653628034e-16 0.80368872326 -1.1584101826 -7.8191846967e-16 1.3728498606 -1.4413224989 -6.5027293295e-16 
1.3036732801 -1.154480437 -6.6627330168e-16 1.2620077397 -1.3162913066 -6.7591043618e-16 1.0295247874 -1.4904112114 -7.2968315717e-16 
0.9294950863 -1.2605131445 -7.5281977494e-16 1.0844992861 -1.319351791 -7.1696769415e-16 0.6802028532 -1.3515453216 -8.1048044022e-16 
0.67912817911 -1.2148137138 -8.1072900963e-16 -1.4462417826 -1.1760940382 -1.3023217256e-15 0.73975403567 -1.5459264697 -7.9670640179e-16 
0.5570281706 -1.4646945393 -8.3897043389e-16 -0.1958505285 -1.2209613413 -1.0131093797e-15 -0.44445037842 -1.6319445372 -1.0706098985e-15 
-0.44627266889 -1.1682345468 -1.0710313897e-15 0.053711887969 -1.1643048012 -9.5538622166e-16 -0.024347431718 -1.3984350381 -9.7344114559e-16 
0.3037041664 -1.1623399283 -8.9756363766e-16 0.42798055142 -1.315515993 -8.68818823e-16 -8.4460255787 -1.2311104777 -2.9213540776e-15 
-1.4444503784 -1.6319445372 -1.3019073784e-15 -0.19445037842 -1.5772511805 -1.0127855285e-15 -5.4444503784 -1.6319445372 -2.227097298e-15 
-7.6960487434 -1.2252158592 -2.7478863256e-15 -2.9461954532 -1.1878832752 -1.6492572296e-15 0.055549621582 -1.6319445372 -9.5496115851e-16 
-0.37887508296 -1.3998282632 -1.0554424979e-15 0.20421531876 -1.3700608783 -9.205751574e-16 0.30554962158 -1.6007251556 -8.9713678853e-16 
-6.9444503784 -1.6319445372 -2.5740435178e-15 -3.1944503784 -1.5993922268 -1.7066779682e-15 -2.9444503784 -1.6319445372 -1.6488535982e-15 
-0.82807241683 -1.4015935217 -1.1593407092e-15 -0.94625722575 -1.1721642925 -1.1866765576e-15 -0.94445037842 -1.6319445372 -1.1862586384e-15 
-0.69618984438 -1.179754825 -1.1288366025e-15 -0.5653645115 -1.3012659507 -1.0985770327e-15 -0.56945037842 -1.4902056619 -1.0995220834e-15 
-0.69445037842 -1.6319445372 -1.1284342684e-15 -7.4460564649 -1.2232509864 -2.6900637416e-15 -1.9462263395 -1.1800237839 -1.4179668936e-15 
[...]
CELL_DATA 1654
FIELD FieldData 4
electrode_index 1 1654 int
0 0 0 0 0 0 0 0 0 
0 0 0 0 0 0 0 0 0 
0 0 0 0 0 0 0 0 0 
0 0 0 0 0 0 0 0 0 
0 0 0 0 0 0 0 0 0 
0 0 0 0 0 0 0 0 0 
0 0 0 0 0 0 0 0 0 
0 0 0 0 0 0 0 0 0 
0 0 0 0 0 0 0 0 0 
0 0 0 0 0 0 0 0 0 
0 0 0 0 0 0 0 0 0 
0 0 0 0 0 0 0 0 0 
0 0 0 0 0 0 0 0 0 
0 0 0 0 0 0 0 0 0 
0 0 0 0 0 0 0 0 0 
0 0 0 0 0 0 0 0 0 
0 0 0 0 0 0 0 0 0 
0 0 0 0 0 0 0 0 0 
0 0 0 0 0 0 0 0 0 
0 0 0 0 0 0 0 0 0 
0 0 0 0 0 0 0 0 0 
0 0 0 0 0 0 0 0 0 
0 0 0 0 0 0 0 0 0 
0 0 0 0 0 0 0 0 0 
0 0 0 0 0 0 0 0 0 
0 0 0 0 0 0 0 0 0 
0 0 0 0 0 0 0 0 0 
0 0 0 0 0 0 0 0 0 
0 0 0 0 0 0 0 0 0 
0 0 0 0 0 0 0 0 0 
0 0 0 0 0 0 0 0 0 
0 0 0 0 0 0 0 0 0 
0 0 0 0 0 0 0 0 0 
0 0 0 0 0 0 0 0 0 
0 0 0 0 0 0 0 0 0 
0 0 0 0 0 0 0 0 0 
0 0 0 0 0 0 0 0 0 
0 0 0 0 0 0 0 0 0 
0 0 0 0 0 0 0 0 0 
0 0 0 0 0 0 0 0 0 
0 0 0 0 0 0 0 0 0 
0 0 0 0 0 0 0 0 0 
0 0 0 0 0 0 0 0 0 
0 0 0 0 0 0 0 0 0 
0 0 0 0 0 0 0 0 0 
0 0 0 0 0 0 0 0 0 
0 0 0 0 0 0 0 0 0 
0 0 0 0 0 0 0 0 0 
0 0 0 0 0 0 0 0 0 
0 0 0 0 0 0 0 0 0 
0 0 0 0 0 0 0 0 0 
0 0 0 0 0 0 0 0 0 
0 0 0 0 0 0 0 0 0 
0 0 0 1 1 1 1 1 1 
2 2 2 2 2 2 2 2 2 
2 2 2 2 2 2 2 3 3 
3 3 3 3 3 3 3 3 3 
3 3 3 3 3 3 3 3 3 
4 4 4 4 4 4 4 4 4 
4 4 4 4 4 5 5 5 5 
5 5 5 5 5 5 5 5 5 
5 6 6 6 6 6 6 6 6 
6 6 6 6 6 6 7 7 7 
7 7 7 7 7 7 7 7 7 
7 7 7 7 8 8 8 8 8 
8 8 8 8 8 8 8 8 8 
8 8 9 9 9 9 9 9 9 
9 9 9 9 9 9 9 9 9 
10 10 10 10 10 10 10 10 10 
10 10 10 10 10 10 10 11 11 
11 11 11 11 11 11 11 11 11 
11 11 11 11 11 12 12 12 12 
12 12 12 12 12 12 12 12 12 
12 12 12 13 13 13 13 13 13 
13 13 13 13 13 13 13 13 13 
13 14 14 14 14 14 14 14 14 
14 14 14 14 14 14 14 14 14 
14 14 14 14 14 14 14 14 14 
14 14 14 14 14 14 14 14 14 
14 14 14 14 14 14 14 14 14 
14 14 14 14 14 14 14 14 14 
14 14 14 14 14 14 14 14 14 
14 14 14 14 14 14 14 14 14 
14 14 14 14 14 14 14 14 14 
14 14 14 14 14 14 14 14 14 
14 14 14 14 14 14 14 14 14 
14 14 14 14 14 14 14 14 14 
14 14 14 14 14 14 14 14 14 
14 14 14 14 14 14 14 14 14 
14 14 14 14 14 14 14 14 14 
14 14 14 14 14 14 14 14 14 
14 14 14 14 14 14 14 14 14 
14 14 14 14 14 14 14 14 14 
14 14 14 14 14 14 14 14 14 
14 14 14 14 14 14 14 14 14 
14 14 14 14 14 14 14 14 14 
14 14 14 14 14 14 14 14 14 
14 14 14 14 14 14 14 14 14 
14 14 14 14 14 14 14 14 14 
14 14 14 14 14 14 14 14 14 
14 14 14 14 14 14 14 14 14 
14 14 14 14 14 14 14 14 14 
14 14 14 14 14 14 14 14 14 
14 14 14 14 14 14 14 14 14 
14 14 14 14 14 14 14 14 14 
14 14 14 15 15 15 15 15 15 
15 15 15 15 15 15 15 15 15 
15 16 16 16 16 16 16 16 16 
16 16 16 16 16 16 16 16 16 
16 17 17 17 17 17 17 17 17 
17 17 17 17 17 17 17 17 17 
17 17 17 17 17 17 17 17 17 
17 17 17 17 17 18 18 18 18 
18 18 18 18 18 18 18 18 18 
18 18 18 18 18 18 18 18 18 
18 18 18 18 18 18 18 18 18 
18 18 18 18 18 18 19 19 19 
19 19 19 19 19 19 19 19 19 
19 19 19 19 19 19 19 19 20 
20 20 20 20 20 20 20 20 20 
20 20 20 20 20 20 20 20 20 
20 20 20 20 21 21 21 21 21 
21 21 21 21 21 21 21 21 21 
21 21 21 21 21 21 21 21 21 
21 21 21 21 21 21 21 21 21 
21 21 21 21 21 21 21 21 21 
21 21 21 21 21 21 21 21 21 
21 21 21 21 21 21 21 21 21 
21 21 21 21 21 21 21 21 21 
21 22 22 22 22 22 22 22 22 
22 22 22 22 22 22 22 22 22 
22 22 22 22 22 22 22 22 22 
22 22 22 22 22 22 22 22 22 
22 22 22 22 22 22 22 22 22 
22 22 22 22 22 22 22 22 22 
22 22 22 22 22 22 22 22 22 
22 22 22 22 22 22 22 22 22 
22 22 22 22 22 22 22 22 22 
22 22 22 22 22 22 22 22 22 
22 22 22 22 22 22 22 22 22 
22 22 22 22 22 22 22 22 22 
22 22 22 22 22 22 22 22 22 
22 22 22 22 22 22 22 22 22 
22 22 22 22 22 22 22 22 22 
22 22 22 22 22 22 22 22 22 
22 22 22 22 22 22 22 22 22 
22 22 22 22 22 22 22 22 22 
22 22 22 22 22 22 22 22 22 
22 22 22 22 22 22 22 22 22 
22 22 22 22 22 22 22 22 22 
22 22 22 22 22 22 22 22 22 
22 22 22 22 22 22 22 22 22 
22 22 22 22 22 22 22 22 22 
22 22 22 22 22 22 22 22 22 
22 22 22 22 22 22 22 22 22 
22 22 22 22 22 22 22 22 22 
22 22 22 22 22 22 22 22 22 
22 22 22 22 22 22 22 22 22 
22 22 22 22 22 22 22 22 22 
22 22 22 22 22 22 22 22 22 
22 22 22 22 22 22 22 22 22 
22 22 22 22 22 22 22 22 22 
22 22 22 22 22 22 22 22 22 
22 22 22 22 22 22 22 22 22 
22 22 22 22 22 22 22 22 22 
22 22 22 22 22 22 22 22 22 
22 22 22 22 22 22 22 22 22 
22 22 22 22 22 22 22 22 22 
22 22 22 22 22 22 22 22 22 
22 22 22 22 22 22 22 22 22 
22 22 22 22 22 22 22 22 22 
22 22 22 22 22 22 22 22 22 
22 22 22 22 22 22 22 22 22 
22 22 22 22 22 22 22 22 22 
22 22 22 22 22 22 22 22 22 
22 22 22 22 22 22 22 22 22 
22 22 22 22 22 22 22 22 22 
22 22 22 22 22 22 22 22 22 
22 22 22 22 22 22 22 22 22 
22 22 22 22 22 22 22 22 22 
22 22 22 22 22 22 22 22 22 
22 22 22 22 22 22 22 22 22 
22 22 22 22 22 22 22 22 22 
22 22 22 22 22 22 22 
area 1 1654 double
1.4467556719 3.8580204234 1.3503127113 1.0609520401 3.7977547033 3.7977547033 0.43885168332 0.47019564926 2.3292812346 
5.5459077196 6.2768623818 6.7847195624 5.7395363843 7.222222805 4.1405663041 0.067145771872 5.7395363843 5.6230296573 
5.6230296573 3.9367756803 0.30908190866 5.5002940616 7.0640441685 5.4992306004 0.0156578912 8.3993432567 9.9984248707 
9.9052190725 6.9207491861 8.8888888359 2.0915319314 4.9526095363 5.2927925569 5.2927925569 6.2768623818 0.2509718956 
4.0240595771 5.7797698811 1.870411892 2.4763626967 5.2201918201 4.2162680984 0.0072919849765 1.2381813484 2.0120608611 
5.623141191 1.2575613437 0.50306182623 0.12823890329 0.10806800622 2.0120297885 0.12155620212 0.11959132928 0.051922511112 
0.19491463203 2.4763626967 1.2381813483 0.31965309302 0.25774970044 0.83527031601 0.25150372357 0.417635158 3.5584003182 
0.24757397789 1.1059505243 0.067059387324 0.02621917687 2.0120608611 0.008459182708 0.037990352771 0.0085303036367 0.00080210634488 
0.0093538777096 1.5087659865 0.010225976302 0.02310004917 0.019056751811 0.0075308677861 0.00013115140512 0.013290832323 0.0077230559288 
0.0073118861272 0.009614060244 0.022966583901 2.5249501594 2.4857623038 0.011215209724 0.020769225027 0.0073084433377 3.2787995657e-05 
0.0078416764244 0.017818985627 0.025866575311 0.013348381974 0.0088808406702 0.032717786911 0.0077570908572 0.0093538777096 0.0061655446497 
0.0078416764244 0.015256795648 0.0030752249136 0.010328203561 0.032518890083 0.016130082264 0.012002565553 0.066856029358 0.0083879375099 
0.0078136846496 0.0098193263468 0.011361337762 0.008578656871 0.0073118861272 0.0092950832228 0.0090552123185 0.015597250155 0.01107264741 
0.0062797012494 0.00047806806445 0.006445401364 0.0068260097436 0.0084642814368 0.0096018082481 0.0061703738342 0.0098286148508 0.015231978154 
0.0067025363845 0.013507380514 0.017316978151 0.0081365308434 0.01459229945 0.0048919837581 0.011217379776 0.012440605992 0.011723036368 
1.2575613437 0.50306182623 0.026636148038 0.026034967197 0.015772087122 0.008928245789 0.025236725278 0.025606612074 0.0089747404943 
0.014828608475 0.014609297279 0.012767692584 0.0097486617264 0.0093295964306 0.014750252889 0.0086653209406 0.017896234924 0.020269680912 
0.0081365308434 0.015182517013 0.0045466374015 0.012886072793 0.0091011306271 0.0188226327 0.0092161229319 0.019686267099 0.010410486529 
0.011788749966 0.0046679429531 0.0053684549064 0.020960385992 0.0051626000031 0.015952351091 0.018929054255 0.015272349416 0.017383327068 
0.019499528968 0.0086237255823 0.00013515444228 0.010909479987 0.011788749966 0.019246312453 0.013822215542 0.0093532892183 0.013125879332 
0.011283940543 0.010051388853 0.011590286759 0.0088937138515 0.015925181314 0.0093101083608 0.048385740922 0.025298128502 0.0012725406034 
0.010723010633 0.010747958434 0.01092447215 0.0111530158 0.01410584646 0.0062708030196 0.010942227497 0.017383327068 0.013545788123 
0.017652877232 0.010723010633 0.0072891347065 0.0086237255823 0.012568196358 0.012277021357 0.017027684082 0.010942227497 0.012844514292 
0.018326753161 0.01092447215 0.0099799095245 0.01644747966 0.019573101598 0.0013493707958 0.012037457366 0.01003368106 0.0085459894389 
0.014505798219 0.017026317607 0.014068067418 0.019245354377 0.011894192032 0.01089452668 0.011522954277 0.018452951244 0.013360227794 
0.013994716494 0.020184800247 0.013228768636 0.01387149955 0.018452951244 0.013101050344 0.012497748537 0.011718941312 0.013673339155 
0.01534050297 0.006927850818 0.031579137645 0.022472915692 0.027003768363 0.022389888255 0.02156931739 0.01534050297 0.0085459894389 
0.04740328933 0.019268510356 0.02722126774 0.018273458944 0.031579137645 0.028570956805 0.027003768363 0.021829731797 0.016488328621 
0.025649291659 0.04467248985 0.025747502224 0.022055879132 0.02722126774 0.020527059459 0.025564053919 0.036891304647 0.049368192514 
0.025564053919 0.015471117691 0.022231623125 0.013673339155 0.030414831802 0.0078048453814 0.027534815765 0.027819292561 0.02092932943 
0.048876966718 0.049459034442 0.017132532201 0.048780055936 0.027052550705 0.034798500158 0.023866657184 0.028793876932 0.019154551437 
0.025359531727 0.017717359409 0.0023889251187 0.024157696392 0.015937430778 0.015986566508 0.028237840461 0.022523660591 0.033337123726 
0.024613015325 0.025465209796 0.025422509523 0.04740328933 0.02657717596 0.0081380775827 0.026106716461 0.026888065178 0.025353699342 
0.015986566508 0.025355530353 0.026888065178 0.032734426586 0.025353699342 0.025355530353 0.018249840207 0.048285841228 0.021217201643 
0.028306886504 0.005444007803 0.017548724939 0.028059480689 0.025046906164 0.028306886504 0.022788029123 0.016156359747 0.024114766779 
0.022262289664 0.018440528592 0.023927696327 0.021185630554 0.0040439905497 0.018137396165 0.021252309536 0.02248286204 0.01530959074 
0.024046440023 0.034798500158 0.02785996594 0.02396527884 0.02785996594 0.022600375504 0.30470869119 2.3215357201 0.40514320425 
5.1202772841 1.0833833361 3.7142833665 0.30470869119 2.1667666721 1.8572285761 0.13212440025 0.071555434136 0.11975782376 
0.12020127967 0.11789237042 0.11887480684 0.077229508082 0.038677987891 0.080666184297 0.081360034067 0.079218491419 0.025155744924 
0.091427039711 0.051713510506 0.034945490819 0.034945490819 0.11860889286 0.25774970044 0.11348277425 0.18257429936 0.062504908259 
0.12056659015 0.00074499505706 0.066243265409 0.10411646593 0.10976696508 0.10905044264 0.066016140085 0.044283101006 0.10566448696 
0.065899011848 0.09164849971 0.070319455355 0.066680021684 0.047414109644 0.074959863397 0.091568118282 0.073439557691 0.024130569468 
0.023366663486 0.047297502847 0.037578773406 0.025359531727 0.013972179494 0.026443250028 0.026570375222 0.025998547778 0.026507516128 
0.021517435538 0.0222715573 0.025427197146 0.026341983319 0.025298128502 0.0318358278 0.026096370421 0.031183399484 0.026341983319 
0.025317547574 0.026349613485 0.044148027904 0.025747502224 0.025747502224 0.047699028918 0.024408535799 0.047699028918 0.026034967197 
0.029354264093 0.025973563972 0.025973563972 0.026157773646 0.026280580095 0.026096370421 0.026157773646 0.026280580095 0.02621917687 
0.025564053919 0.042336093754 0.042336093754 0.04985941831 0.048970858245 0.025236725278 0.025113918829 0.025113918829 0.025175322053 
0.04985941831 0.025175322053 0.04750614759 0.048876966718 0.049274300987 0.049768576383 0.037578773406 0.049368192514 0.047994414819 
0.047791656866 0.035969833179 0.034548827134 0.025583781893 0.034548827134 0.024392711116 0.026507516128 0.037319257394 0.035042627969 
0.0039999970062 0.03123446384 0.038186295175 0.028530820188 0.025564113818 0.024151517287 0.026471569766 0.024926527204 0.026293603197 
0.003489044059 0.025461092605 0.025516435431 0.019426328664 0.047894515126 0.047894515126 0.048385740922 0.048482651704 0.10583721939 
0.048831129656 0.65296819609 0.027765850985 0.10681965581 0.077699613258 0.077215972625 0.049934785007 0.10413826054 0.017122957891 
0.10610313338 0.1070855698 0.10878452866 0.10780209223 0.069053548389 0.10485478297 0.072233461681 0.10512069696 2.4117723086 
1.1059505243 2.0915319314 2.4763047681 52.473962547 9.2472320331 10.525206911 3.8580323443 2.8935229337 52.16049708 
1.4467561686 0.96450941062 3.8580217479 1.4467561686 5.8352807422 6.0764080948 9.2496179953 2.1821960844 2.4233227747 
9.249617333 0.72337982279 1.9290125296 0.4822532152 0.72337949166 5.555557251 5.555557251 1.4467588177 3.858024397 
0.96450676153 1.4467588177 2.7006190647 2.9417450928 5.1504509405 2.5419159805 2.7801897997 5.1504509405 0.24112627646 
0.38429548429 0.4822532152 0.2411266076 5.5555419922 5.5555419922 2.7749264166 2.7777786255 0.39183066491 0.18837995005 
0.72337961583 1.9290128608 0.48225329798 0.72337994697 7.1252917471 7.3664184375 7.2820241952 0.81983101221 1.0609577026 
7.2820241952 1.4467601423 3.8580257216 0.96450676153 1.4467588177 0.72337994697 0.48225329798 1.9290128608 0.72337961583 
6.498362617 6.7394893074 7.8607276891 1.4467641159 1.6878914686 7.8607283514 1.4467574932 3.8580230725 0.96450941062 
1.4467561686 1.4467614668 3.8580270461 0.96450676153 1.4467588177 2.0736892724 2.3148159628 8.6805586186 5.8714314711 
6.1125580787 8.6805585358 0.24112664899 0.96450643039 0.48225313241 0.24112664899 0.7233797814 0.48225313241 0.9268302285 
0.7233797814 5.2445025563 5.4856285016 9.5003632888 2.7006116473 2.9417370131 9.5003627093 1.4467614668 3.8580270461 
0.96450411243 1.4467614668 0.94190067511 0.060281791598 0.7233797814 0.48225304963 1.9290126124 0.7233797814 4.6175728488 
4.8586987527 4.5235232426 3.3275390554 3.5686644213 4.5235227045 1.4467614668 3.858024397 0.96450411243 1.4467588177 
5.5555419922 5.5555419922 0.24112664899 0.96450626482 0.48225313241 0.24112648342 3.9906443954 4.2317706719 5.3433592169 
3.9544664636 4.1955921606 5.3433586374 1.4467614668 3.8580270461 0.96450411243 1.4467614668 5.5555496216 5.5555496216 
1.4467614668 3.8580270461 0.96450411243 1.4467614668 4.5813938718 4.8225198999 6.4043226845 3.3637163043 3.6048429947 
6.4043233468 0.24112664899 0.96450626482 0.48225329798 0.24112631785 5.555557251 5.555557251 1.4467561686 3.8580217479 
0.96450941062 1.4467561686 5.2083498902 5.4494772428 7.4652807183 2.7367871742 2.9779138646 7.465280056 0.24112598672 
0.96450593369 0.48225329798 0.24112664899 5.555557251 5.555557251 1.4467614668 3.8580270461 0.96450411243 1.4467614668 
5.8352486881 6.0763747162 8.5262374275 2.1098580441 2.3509847345 8.5262380897 0.24112598672 0.96450593369 0.48225329798 
0.24112664899 5.555557251 5.555557251 1.4467614668 3.8580323443 0.96450411243 1.446766765 6.4621764274 6.70330229 
9.5871878848 1.4829287485 1.7240552733 9.587188547 0.24112664899 0.96450593369 0.48225329798 0.24112598672 5.5555534363 
5.5555534363 69.444420073 197.0294163 746.95589762 514.47248557 40.046297864 99.826342 11.590947119 5.3240707406 
69.444420073 196.64359671 751.69635351 508.88792434 40.046304553 47.743084961 23.57977954 1.8518525583 7.2338048507 
25.077153084 11.188267572 4.8804017911 5.1890436634 10.532403875 7.2338048507 9.645037813 2.3148109295 2.3148109295 
0.77160276013 1.8518525583 0.7716048794 2.3148172873 2.3148172873 8.3912060437 6.2934102946 21.942509155 10.532403859 
10.069441332 10.062211271 9.560668229 6.2933872475 1.851850439 0.7716048794 1.8518514986 2.3148172873 2.3148172873 
7.1373471213 5.3529956385 18.807865227 10.069457557 9.4135927345 7.1952168929 6.8865744908 5.3530152418 2.3148172873 
2.3148172873 0.7716048794 1.851850439 0.7716048794 2.3148172873 2.3148172873 4.6296292764 3.4722187784 12.538575714 
5.8834888611 4.4126206857 15.673228252 9.413577171 8.5648117242 3.0743623966 2.9586217442 4.412612606 8.5648412616 
7.7160734306 3.4505200138 3.334778964 3.4722187784 1.851850439 0.7716048794 1.8518514986 2.3148172873 2.3148172873 
3.3757710162 2.5318213083 9.4039317855 7.7160727683 6.8673052022 3.8266859921 3.7109446774 2.5318305801 2.3148156978 
2.3148156978 0.77160434958 1.8518514986 1.8807873902 5.9799384776 2.1219112991 1.5914360241 6.8673052022 6.0185372388 
4.2028488826 4.0871074354 34.375027816 19.560183176 0.94039283417 3.7193780733 0.98379486689 26.335804379 3.4722163942 
3.4722163942 1.1574041402 1.8518546776 0.77160276013 2.3148109295 2.3148109295 12.152747446 9.1145939628 31.346442596 
20.10990389 20.109940712 60.26841904 5.4324980756 0.28934743807 129.31619334 36.053248765 81.013701632 0.64501372292 
10.05502559 12.114213852 11.265447876 1.1501772039 1.0344359555 9.1145939628 1.8518525583 0.7716048794 1.851850439 
2.3148172873 2.3148172873 10.898922564 8.1741994067 28.211797012 11.265428272 10.41666362 1.5263339684 1.410593051 
8.174169472 2.3148172873 2.3148172873 0.7716048794 1.851850439 0.7716048794 2.3148172873 2.3148172873 8.3912060437 
6.2933872475 21.942509155 9.6450643039 7.2337783597 25.077153084 10.416662428 9.5678975111 1.9024876947 1.7867470422 
7.2338048507 9.5678976436 8.7191327266 2.2786449144 2.162904262 6.2934102946 1.851850439 0.77160699868 1.851850439 
2.3148236451 2.3148236451 7.1373667246 5.3529956385 18.807865227 8.7191477602 8.0632829372 7.0794759258 6.7708335237 
5.3529956385 2.3148172873 2.3148172873 0.7716048794 1.851850439 0.7716048794 2.3148172873 2.3148172873 4.6296292764 
3.4722187784 12.538575714 5.8834888611 4.412612606 15.673219643 8.0632685658 7.6003060389 13.134163698 12.632620656 
4.412612606 7.6003321159 6.944466167 9.0856496852 8.7770067532 3.4722187784 1.8518514986 0.7716048794 1.851850439 
2.3148172873 2.3148172873 3.3757710162 2.5318305801 9.4039369512 6.944466167 6.2885998208 10.088740365 9.7800973003 
2.5318259442 2.3148172873 2.3148172873 0.7716048794 1.8518514986 1.8807856683 5.9799370206 2.1219127561 1.5914345671 
6.2885998208 5.8256353567 18.0242084 17.522663719 33.217619172 18.933254907 0.94039369512 11.049616919 6.43325297 
3.7796494475 3.7796494475 58.005356583 23.842583144 7.45081917 14.076954816 2.4305532045 0.63657118766 8.063254923 
127.14000266 36.05324004 2.0435464824 86.918901965 11.574073721 1.8518525583 0.77160276013 2.3148109295 2.3148109295 
12.152747446 9.1145939628 31.346442596 12.307115933 11.844152529 5.1721644622 4.6706206416 9.1145939628 1.8518525583 
0.7716048794 1.8518525583 2.3148172873 2.3148172873 10.898922564 8.174169472 28.211797012 11.844131137 11.188267572 
4.1859591099 3.8773171052 8.1741994067 6.4621764274 6.70330229 9.8283147407 1.4467614668 3.8580270461 0.96450411243 
1.4467614668 1.5552667887 1.7963933135 9.828315403 0.72337982279 1.9290125296 0.4822532152 0.72337949166 5.5555534363 
5.5555534363 5.2083212799 5.4494473081 8.4297864864 1.4467614668 3.8580270461 0.96450411243 1.4467614668 2.80912425 
3.0502508576 8.4297870659 0.2411266076 0.38429545842 0.48225304963 0.2411266076 5.555557251 5.555557251 0.39183062869 
0.18838017771 4.5813938718 4.8225198999 7.609956302 1.4467614668 3.8580270461 0.96450411243 1.4467614668 3.4360531649 
3.6771797725 7.6099568815 0.72337965722 0.16738549336 0.48225304963 0.30671297593 5.555557251 5.555557251 0.41666668129 
0.079033801094 0.11320525585 0.23141089693 0.1263810513 0.10154684667 0.039035934392 0.1263810513 0.15448661456 0.062409775491 
0.16738549336 0.24017470056 0.20305263714 0.039035934392 0.078086877675 3.9544881862 4.1956152077 7.0312431107 1.4467561686 
3.8580217479 0.96450941062 1.4467561686 4.0629817134 4.3041079484 7.0312423242 0.72337965722 0.096204611849 0.48225296684 
0.72337965722 5.5555496216 5.5555496216 0.097957656203 0.057301403368 0.094190040347 0.05930629613 0.075587509427 0.058868785323 
0.33812774235 0.12056326758 0.048978828101 0.057301403368 0.02833059711 0.061108798963 0.07515298402 0.057926886614 0.033913830296 
0.09139687324 0.24223210828 0.096204611849 0.0037675956444 0.063723784046 0.07086666718 3.3275481948 3.5686742229 6.2114048184 
1.4467588177 3.8580270461 0.96450676153 1.4467614668 4.6899116568 4.9310376021 6.2114047357 0.24112644203 0.23359132609 
0.48225304963 0.2411266076 5.5555419922 5.5555419922 0.23924272578 0.015070397453 0.24112652481 0.23547512512 2.0736835768 
2.3148096049 9.6450649662 1.4467614668 3.8580270461 0.96450411243 1.4467614668 1.5829964508 3.407119592 4.0895083775 
0.2411266076 0.38429519455 0.4822532152 0.24112594532 1.3851407227 1.297107821 0.74094435878 0.75401919038 5.555557251 
0.39183048899 0.18838008458 1.4806708045 1.4806708045 1.4467561686 1.6878821968 1.9415321083 1.4467614668 3.8580270461 