# vtk DataFile Version 5.1
vtk output
ASCII
DATASET STRUCTURED_POINTS
DIMENSIONS 20 20 20
SPACING 2e-05 2e-05 2e-05
ORIGIN 3.69981 -0.00019 0.99981
POINT_DATA 8000
FIELD FieldData 1
potential 1 8000 double
0.0066584849102 0.0066585294932 0.0066585740766 0.0066586186604 0.0066586632446 0.0066587078292 0.0066587524143 0.0066587969997 0.0066588415856 
0.0066588861719 0.0066589307586 0.0066589753458 0.0066590199333 0.0066590645212 0.0066591091096 0.0066591536984 0.0066591982876 0.0066592428772 
0.0066592874672 0.0066593320577 0.0066585129324 0.0066585575157 0.0066586020994 0.0066586466836 0.0066586912681 0.0066587358531 0.0066587804385 
0.0066588250243 0.0066588696105 0.0066589141971 0.0066589587842 0.0066590033716 0.0066590479595 0.0066590925478 0.0066591371365 0.0066591817256 
0.0066592263151 0.0066592709051 0.0066593154955 0.0066593600862 0.0066585409546 0.0066585855383 0.0066586301224 0.0066586747068 0.0066587192917 
0.006658763877 0.0066588084628 0.0066588530489 0.0066588976355 0.0066589422224 0.0066589868098 0.0066590313976 0.0066590759858 0.0066591205744 
0.0066591651635 0.0066592097529 0.0066592543428 0.0066592989331 0.0066593435238 0.0066593881149 0.006658568977 0.006658613561 0.0066586581454 
0.0066587027302 0.0066587473155 0.0066587919011 0.0066588364872 0.0066588810736 0.0066589256605 0.0066589702478 0.0066590148356 0.0066590594237 
0.0066591040122 0.0066591486012 0.0066591931906 0.0066592377804 0.0066592823706 0.0066593269612 0.0066593715522 0.0066594161437 0.0066585969995 
0.0066586415838 0.0066586861686 0.0066587307537 0.0066587753393 0.0066588199253 0.0066588645117 0.0066589090985 0.0066589536857 0.0066589982733 
0.0066590428614 0.0066590874499 0.0066591320388 0.0066591766281 0.0066592212178 0.0066592658079 0.0066593103984 0.0066593549894 0.0066593995808 
0.0066594441726 0.0066586250221 0.0066586696067 0.0066587141918 0.0066587587773 0.0066588033632 0.0066588479495 0.0066588925363 0.0066589371234 
0.006658981711 0.0066590262989 0.0066590708873 0.0066591154761 0.0066591600654 0.006659204655 0.0066592492451 0.0066592938355 0.0066593384264 
0.0066593830177 0.0066594276094 0.0066594722015 0.0066586530447 0.0066586976297 0.0066587422151 0.006658786801 0.0066588313872 0.0066588759739 
0.0066589205609 0.0066589651484 0.0066590097363 0.0066590543247 0.0066590989134 0.0066591435025 0.0066591880921 0.0066592326821 0.0066592772725 
0.0066593218633 0.0066593664545 0.0066594110461 0.0066594556381 0.0066595002306 0.0066586810675 0.0066587256528 0.0066587702386 0.0066588148248 
0.0066588594113 0.0066589039983 0.0066589485857 0.0066589931736 0.0066590377618 0.0066590823505 0.0066591269395 0.006659171529 0.0066592161189 
0.0066592607092 0.0066593052999 0.0066593498911 0.0066593944826 0.0066594390746 0.006659483667 0.0066595282598 0.0066587090904 0.0066587536761 
0.0066587982621 0.0066588428486 0.0066588874356 0.0066589320229 0.0066589766106 0.0066590211988 0.0066590657874 0.0066591103764 0.0066591549658 
0.0066591995556 0.0066592441458 0.0066592887365 0.0066593333275 0.006659377919 0.0066594225109 0.0066594671032 0.0066595116959 0.0066595562891 
0.0066587371133 0.0066587816994 0.0066588262858 0.0066588708726 0.0066589154599 0.0066589600476 0.0066590046356 0.0066590492241 0.006659093813 
0.0066591384024 0.0066591829921 0.0066592275823 0.0066592721728 0.0066593167638 0.0066593613552 0.006659405947 0.0066594505393 0.0066594951319 
0.006659539725 0.0066595843184 0.0066587651364 0.0066588097228 0.0066588543095 0.0066588988967 0.0066589434843 0.0066589880723 0.0066590326607 
0.0066590772496 0.0066591218388 0.0066591664285 0.0066592110186 0.0066592556091 0.0066593002 0.0066593447913 0.006659389383 0.0066594339752 
0.0066594785677 0.0066595231607 0.0066595677541 0.0066596123479 0.0066587931596 0.0066588377463 0.0066588823334 0.0066589269209 0.0066589715088 
0.0066590160972 0.0066590606859 0.0066591052751 0.0066591498647 0.0066591944547 0.0066592390451 0.0066592836359 0.0066593282272 0.0066593728188 
0.0066594174109 0.0066594620034 0.0066595065963 0.0066595511896 0.0066595957833 0.0066596403775 0.0066588211829 0.0066588657699 0.0066589103573 
0.0066589549452 0.0066589995334 0.0066590441221 0.0066590887112 0.0066591333007 0.0066591778907 0.006659222481 0.0066592670717 0.0066593116629 
0.0066593562545 0.0066594008465 0.0066594454389 0.0066594900317 0.006659534625 0.0066595792186 0.0066596238127 0.0066596684072 0.0066588492062 
0.0066588937936 0.0066589383814 0.0066589829696 0.0066590275582 0.0066590721472 0.0066591167366 0.0066591613265 0.0066592059167 0.0066592505074 
0.0066592950985 0.00665933969 0.0066593842819 0.0066594288742 0.006659473467 0.0066595180602 0.0066595626537 0.0066596072477 0.0066596518421 
0.006659696437 0.0066588772297 0.0066589218174 0.0066589664055 0.0066590109941 0.006659055583 0.0066591001723 0.0066591447621 0.0066591893523 
0.0066592339429 0.0066592785339 0.0066593231253 0.0066593677172 0.0066594123094 0.0066594569021 0.0066595014952 0.0066595460887 0.0066595906826 
0.0066596352769 0.0066596798717 0.0066597244668 0.0066589052533 0.0066589498413 0.0066589944298 0.0066590390186 0.0066590836079 0.0066591281976 
0.0066591727877 0.0066592173782 0.0066592619692 0.0066593065605 0.0066593511523 0.0066593957445 0.0066594403371 0.0066594849301 0.0066595295235 
0.0066595741173 0.0066596187116 0.0066596633062 0.0066597079013 0.0066597524968 0.006658933277 0.0066589778653 0.0066590224541 0.0066590670433 
0.0066591116329 0.006659156223 0.0066592008134 0.0066592454043 0.0066592899955 0.0066593345872 0.0066593791793 0.0066594237718 0.0066594683648 
0.0066595129581 0.0066595575519 0.006659602146 0.0066596467406 0.0066596913356 0.0066597359311 0.0066597805269 0.0066589613007 0.0066590058895 
0.0066590504786 0.0066590950681 0.0066591396581 0.0066591842484 0.0066592288392 0.0066592734304 0.006659318022 0.006659362614 0.0066594072065 
0.0066594517993 0.0066594963926 0.0066595409863 0.0066595855804 0.0066596301749 0.0066596747698 0.0066597193651 0.0066597639609 0.0066598085571 
0.0066589893246 0.0066590339137 0.0066590785031 0.006659123093 0.0066591676833 0.006659212274 0.0066592568651 0.0066593014566 0.0066593460486 
0.0066593906409 0.0066594352337 0.0066594798269 0.0066595244205 0.0066595690145 0.006659613609 0.0066596582038 0.0066597027991 0.0066597473947 
0.0066597919908 0.0066598365873 0.0066590173486 0.006659061938 0.0066591065278 0.006659151118 0.0066591957086 0.0066592402996 0.0066592848911 
0.006659329483 0.0066593740753 0.0066594186679 0.0066594632611 0.0066595078546 0.0066595524485 0.0066595970429 0.0066596416377 0.0066596862328 
0.0066597308284 0.0066597754245 0.0066598200209 0.0066598646177 0.0066586060914 0.0066586506751 0.0066586952593 0.0066587398439 0.0066587844289 
0.0066588290142 0.0066588736001 0.0066589181863 0.0066589627729 0.00665900736 0.0066590519475 0.0066590965353 0.0066591411236 0.0066591857124 
0.0066592303015 0.006659274891 0.006659319481 0.0066593640714 0.0066594086621 0.0066594532533 0.0066586341141 0.0066586786981 0.0066587232826 
0.0066587678675 0.0066588124529 0.0066588570386 0.0066589016247 0.0066589462113 0.0066589907983 0.0066590353857 0.0066590799735 0.0066591245617 
0.0066591691503 0.0066592137394 0.0066592583289 0.0066593029187 0.006659347509 0.0066593920997 0.0066594366909 0.0066594812824 0.0066586621368 
0.0066587067212 0.0066587513061 0.0066587958913 0.006658840477 0.006658885063 0.0066589296495 0.0066589742364 0.0066590188237 0.0066590634115 
0.0066591079996 0.0066591525882 0.0066591971771 0.0066592417665 0.0066592863563 0.0066593309465 0.0066593755372 0.0066594201282 0.0066594647197 
0.0066595093116 0.0066586901597 0.0066587347444 0.0066587793296 0.0066588239152 0.0066588685012 0.0066589130876 0.0066589576744 0.0066590022616 
0.0066590468493 0.0066590914374 0.0066591360258 0.0066591806147 0.006659225204 0.0066592697938 0.0066593143839 0.0066593589745 0.0066594035654 
0.0066594481568 0.0066594927486 0.0066595373408 0.0066587181826 0.0066587627677 0.0066588073532 0.0066588519391 0.0066588965255 0.0066589411122 
0.0066589856994 0.0066590302869 0.0066590748749 0.0066591194633 0.0066591640522 0.0066592086414 0.006659253231 0.0066592978211 0.0066593424116 
0.0066593870025 0.0066594315938 0.0066594761855 0.0066595207776 0.0066595653702 0.0066587462057 0.0066587907911 0.0066588353769 0.0066588799632 
0.0066589245499 0.0066589691369 0.0066590137244 0.0066590583124 0.0066591029007 0.0066591474894 0.0066591920786 0.0066592366682 0.0066592812581 
0.0066593258485 0.0066593704394 0.0066594150306 0.0066594596222 0.0066595042143 0.0066595488068 0.0066595933996 0.0066587742288 0.0066588188146 
0.0066588634008 0.0066589079874 0.0066589525744 0.0066589971618 0.0066590417496 0.0066590863379 0.0066591309265 0.0066591755156 0.0066592201051 
0.006659264695 0.0066593092853 0.0066593538761 0.0066593984672 0.0066594430588 0.0066594876508 0.0066595322432 0.006659576836 0.0066596214292 
0.0066588022521 0.0066588468382 0.0066588914247 0.0066589360116 0.006658980599 0.0066590251867 0.0066590697749 0.0066591143635 0.0066591589525 
0.0066592035419 0.0066592481317 0.006659292722 0.0066593373126 0.0066593819037 0.0066594264952 0.0066594710871 0.0066595156794 0.0066595602722 
0.0066596048653 0.0066596494589 0.0066588302754 0.0066588748619 0.0066589194487 0.006658964036 0.0066590086237 0.0066590532118 0.0066590978003 
0.0066591423892 0.0066591869785 0.0066592315683 0.0066592761585 0.006659320749 0.00665936534 0.0066594099314 0.0066594545233 0.0066594991155 
0.0066595437082 0.0066595883012 0.0066596328947 0.0066596774886 0.0066588582989 0.0066589028857 0.0066589474729 0.0066589920605 0.0066590366485 
0.0066590812369 0.0066591258258 0.006659170415 0.0066592150047 0.0066592595948 0.0066593041853 0.0066593487762 0.0066593933675 0.0066594379593 
0.0066594825514 0.006659527144 0.006659571737 0.0066596163304 0.0066596609242 0.0066597055185 0.0066588863225 0.0066589309096 0.0066589754971 
0.006659020085 0.0066590646734 0.0066591092622 0.0066591538513 0.0066591984409 0.0066592430309 0.0066592876214 0.0066593322122 0.0066593768035 
0.0066594213951 0.0066594659872 0.0066595105797 0.0066595551726 0.006659599766 0.0066596443597 0.0066596889539 0.0066597335484 0.0066589143461 
0.0066589589336 0.0066590035214 0.0066590481097 0.0066590926984 0.0066591372875 0.006659181877 0.006659226467 0.0066592710573 0.0066593156481 
0.0066593602392 0.0066594048308 0.0066594494228 0.0066594940153 0.0066595386081 0.0066595832013 0.006659627795 0.0066596723891 0.0066597169836 
0.0066597615785 0.0066589423699 0.0066589869577 0.0066590315459 0.0066590761345 0.0066591207235 0.0066591653129 0.0066592099028 0.0066592544931 
0.0066592990838 0.0066593436749 0.0066593882664 0.0066594328583 0.0066594774506 0.0066595220434 0.0066595666366 0.0066596112302 0.0066596558242 
0.0066597004186 0.0066597450134 0.0066597896087 0.0066589703937 0.0066590149819 0.0066590595704 0.0066591041593 0.0066591487487 0.0066591933385 
0.0066592379287 0.0066592825193 0.0066593271103 0.0066593717017 0.0066594162936 0.0066594608859 0.0066595054785 0.0066595500716 0.0066595946652 
0.0066596392591 0.0066596838534 0.0066597284482 0.0066597730433 0.0066598176389 0.0066589984177 0.0066590430061 0.006659087595 0.0066591321843 
0.006659176774 0.0066592213641 0.0066592659547 0.0066593105456 0.006659355137 0.0066593997287 0.0066594443209 0.0066594889135 0.0066595335065 
0.0066595781 0.0066596226938 0.0066596672881 0.0066597118828 0.0066597564779 0.0066598010734 0.0066598456693 0.0066590264417 0.0066590710305 
0.0066591156198 0.0066591602094 0.0066592047994 0.0066592493899 0.0066592939807 0.006659338572 0.0066593831637 0.0066594277558 0.0066594723484 
0.0066595169413 0.0066595615346 0.0066596061284 0.0066596507226 0.0066596953172 0.0066597399122 0.0066597845076 0.0066598291035 0.0066598736997 
0.0066590544659 0.006659099055 0.0066591436446 0.0066591882345 0.0066592328249 0.0066592774157 0.0066593220069 0.0066593665985 0.0066594111906 
0.006659455783 0.0066595003759 0.0066595449692 0.0066595895629 0.006659634157 0.0066596787515 0.0066597233464 0.0066597679418 0.0066598125375 
0.0066598571337 0.0066599017303 0.0066590824902 0.0066591270796 0.0066591716695 0.0066592162598 0.0066592608505 0.0066593054417 0.0066593500332 
0.0066593946252 0.0066594392175 0.0066594838103 0.0066595284035 0.0066595729971 0.0066596175912 0.0066596621856 0.0066597067805 0.0066597513757 
0.0066597959714 0.0066598405675 0.006659885164 0.006659929761 0.0066591105145 0.0066591551043 0.0066591996945 0.0066592442852 0.0066592888762 
0.0066593334677 0.0066593780596 0.0066594226519 0.0066594672446 0.0066595118377 0.0066595564312 0.0066596010252 0.0066596456196 0.0066596902143 
0.0066597348095 0.0066597794051 0.0066598240012 0.0066598685976 0.0066599131945 0.0066599577917 0.006659138539 0.0066591831291 0.0066592277197 
0.0066592723107 0.006659316902 0.0066593614938 0.0066594060861 0.0066594506787 0.0066594952717 0.0066595398652 0.0066595844591 0.0066596290534 
0.0066596736481 0.0066597182432 0.0066597628387 0.0066598074347 0.006659852031 0.0066598966278 0.006659941225 0.0066599858226 0.0066587272721 
0.0066587718566 0.0066588164415 0.0066588610268 0.0066589056126 0.0066589501987 0.0066589947853 0.0066590393723 0.0066590839597 0.0066591285475 
0.0066591731358 0.0066592177244 0.0066592623135 0.006659306903 0.0066593514928 0.0066593960832 0.0066594406739 0.006659485265 0.0066595298566 
0.0066595744485 0.0066587552952 0.0066587998801 0.0066588444653 0.006658889051 0.0066589336371 0.0066589782236 0.0066590228105 0.0066590673978 
0.0066591119856 0.0066591565737 0.0066592011623 0.0066592457513 0.0066592903407 0.0066593349305 0.0066593795207 0.0066594241113 0.0066594687024 
0.0066595132939 0.0066595578858 0.0066596024781 0.0066587833185 0.0066588279036 0.0066588724892 0.0066589170752 0.0066589616617 0.0066590062485 
0.0066590508357 0.0066590954234 0.0066591400115 0.0066591846 0.0066592291889 0.0066592737782 0.0066593183679 0.0066593629581 0.0066594075487 
0.0066594521396 0.006659496731 0.0066595413228 0.0066595859151 0.0066596305077 0.0066588113418 0.0066588559273 0.0066589005132 0.0066589450996 
0.0066589896863 0.0066590342735 0.0066590788611 0.0066591234491 0.0066591680375 0.0066592126264 0.0066592572156 0.0066593018053 0.0066593463953 
0.0066593909858 0.0066594355767 0.006659480168 0.0066595247598 0.0066595693519 0.0066596139445 0.0066596585374 0.0066588393652 0.0066588839511 
0.0066589285374 0.006658973124 0.0066590177111 0.0066590622986 0.0066591068866 0.0066591514749 0.0066591960637 0.0066592406528 0.0066592852424 
0.0066593298324 0.0066593744228 0.0066594190136 0.0066594636049 0.0066595081965 0.0066595527886 0.0066595973811 0.006659641974 0.0066596865673 
0.0066588673888 0.006658911975 0.0066589565616 0.0066590011486 0.006659045736 0.0066590903239 0.0066591349121 0.0066591795008 0.0066592240899 
0.0066592686794 0.0066593132693 0.0066593578596 0.0066594024504 0.0066594470416 0.0066594916331 0.0066595362251 0.0066595808175 0.0066596254103 
0.0066596700036 0.0066597145972 0.0066588954124 0.0066589399989 0.0066589845859 0.0066590291732 0.006659073761 0.0066591183492 0.0066591629378 
0.0066592075268 0.0066592521162 0.0066592967061 0.0066593412963 0.006659385887 0.0066594304781 0.0066594750696 0.0066595196615 0.0066595642538 
0.0066596088466 0.0066596534397 0.0066596980333 0.0066597426273 0.0066589234362 0.006658968023 0.0066590126103 0.006659057198 0.0066591017861 
0.0066591463746 0.0066591909635 0.0066592355529 0.0066592801427 0.0066593247328 0.0066593693234 0.0066594139144 0.0066594585059 0.0066595030977 
0.0066595476899 0.0066595922826 0.0066596368757 0.0066596814692 0.0066597260631 0.0066597706574 0.00665895146 0.0066589960472 0.0066590406348 
0.0066590852228 0.0066591298113 0.0066591744001 0.0066592189894 0.0066592635791 0.0066593081692 0.0066593527597 0.0066593973506 0.006659441942 
0.0066594865337 0.0066595311259 0.0066595757185 0.0066596203115 0.0066596649049 0.0066597094987 0.006659754093 0.0066597986877 0.0066589794839 
0.0066590240715 0.0066590686594 0.0066591132478 0.0066591578366 0.0066592024258 0.0066592470154 0.0066592916054 0.0066593361958 0.0066593807867 
0.0066594253779 0.0066594699696 0.0066595145617 0.0066595591542 0.0066596037472 0.0066596483405 0.0066596929343 0.0066597375284 0.006659782123 
0.006659826718 0.006659007508 0.0066590520959 0.0066590966841 0.0066591412728 0.006659185862 0.0066592304515 0.0066592750414 0.0066593196318 
0.0066593642226 0.0066594088138 0.0066594534054 0.0066594979974 0.0066595425898 0.0066595871827 0.0066596317759 0.0066596763696 0.0066597209637 
0.0066597655582 0.0066598101531 0.0066598547484 0.0066590355321 0.0066590801203 0.006659124709 0.006659169298 0.0066592138874 0.0066592584773 
0.0066593030676 0.0066593476583 0.0066593922494 0.0066594368409 0.0066594814329 0.0066595260252 0.006659570618 0.0066596152112 0.0066596598048 
0.0066597043988 0.0066597489932 0.0066597935881 0.0066598381833 0.006659882779 0.0066590635564 0.0066591081449 0.0066591527339 0.0066591973232 
0.006659241913 0.0066592865032 0.0066593310939 0.0066593756849 0.0066594202763 0.0066594648682 0.0066595094605 0.0066595540532 0.0066595986463 
0.0066596432398 0.0066596878337 0.0066597324281 0.0066597770228 0.006659821618 0.0066598662136 0.0066599108096 0.0066590915807 0.0066591361696 
0.0066591807589 0.0066592253486 0.0066592699387 0.0066593145293 0.0066593591202 0.0066594037116 0.0066594483034 0.0066594928956 0.0066595374882 
0.0066595820812 0.0066596266747 0.0066596712685 0.0066597158628 0.0066597604575 0.0066598050526 0.0066598496481 0.006659894244 0.0066599388404 
0.0066591196051 0.0066591641944 0.006659208784 0.006659253374 0.0066592979645 0.0066593425554 0.0066593871467 0.0066594317384 0.0066594763305 
0.0066595209231 0.006659565516 0.0066596101094 0.0066596547031 0.0066596992973 0.006659743892 0.006659788487 0.0066598330824 0.0066598776783 
0.0066599222745 0.0066599668712 0.0066591476297 0.0066591922192 0.0066592368092 0.0066592813996 0.0066593259904 0.0066593705816 0.0066594151732 
0.0066594597653 0.0066595043578 0.0066595489506 0.0066595935439 0.0066596381376 0.0066596827317 0.0066597273263 0.0066597719212 0.0066598165166 
0.0066598611123 0.0066599057085 0.0066599503051 0.0066599949022 0.0066591756543 0.0066592202442 0.0066592648345 0.0066593094253 0.0066593540164 
0.0066593986079 0.0066594431999 0.0066594877923 0.0066595323851 0.0066595769783 0.0066596215719 0.006659666166 0.0066597107604 0.0066597553553 
0.0066597999506 0.0066598445463 0.0066598891424 0.0066599337389 0.0066599783359 0.0066600229332 0.0066592036791 0.0066592482693 0.0066592928599 
0.006659337451 0.0066593820425 0.0066594266344 0.0066594712267 0.0066595158194 0.0066595604125 0.0066596050061 0.0066596496 0.0066596941944 
0.0066597387892 0.0066597833844 0.00665982798 0.0066598725761 0.0066599171725 0.0066599617694 0.0066600063667 0.0066600509644 0.0066592317039 
0.0066592762945 0.0066593208855 0.0066593654769 0.0066594100687 0.0066594546609 0.0066594992535 0.0066595438466 0.0066595884401 0.0066596330339 
0.0066596776282 0.006659722223 0.0066597668181 0.0066598114136 0.0066598560096 0.006659900606 0.0066599452027 0.0066599898 0.0066600343976 
0.0066600789956 0.0066592597288 0.0066593043198 0.0066593489111 0.0066593935028 0.006659438095 0.0066594826875 0.0066595272805 0.0066595718739 
0.0066596164677 0.0066596610619 0.0066597056566 0.0066597502516 0.0066597948471 0.006659839443 0.0066598840393 0.006659928636 0.0066599732331 
0.0066600178306 0.0066600624286 0.0066601070269 0.0066588484523 0.0066588930375 0.0066589376232 0.0066589822093 0.0066590267958 0.0066590713827 
0.0066591159701 0.0066591605578 0.006659205146 0.0066592497346 0.0066592943236 0.006659338913 0.0066593835028 0.006659428093 0.0066594726837 
0.0066595172748 0.0066595618662 0.0066596064581 0.0066596510504 0.0066596956432 0.0066588764759 0.0066589210615 0.0066589656475 0.0066590102339 
0.0066590548208 0.006659099408 0.0066591439957 0.0066591885838 0.0066592331723 0.0066592777612 0.0066593223506 0.0066593669403 0.0066594115305 
0.006659456121 0.006659500712 0.0066595453034 0.0066595898953 0.0066596344875 0.0066596790801 0.0066597236732 0.0066589044996 0.0066589490855 
0.0066589936719 0.0066590382587 0.0066590828459 0.0066591274334 0.0066591720215 0.0066592166099 0.0066592611987 0.006659305788 0.0066593503776 
0.0066593949677 0.0066594395582 0.0066594841491 0.0066595287405 0.0066595733322 0.0066596179244 0.0066596625169 0.0066597071099 0.0066597517033 
0.0066589325234 0.0066589771097 0.0066590216964 0.0066590662835 0.006659110871 0.006659155459 0.0066592000473 0.0066592446361 0.0066592892252 
0.0066593338148 0.0066593784048 0.0066594229953 0.0066594675861 0.0066595121773 0.006659556769 0.0066596013611 0.0066596459536 0.0066596905465 
0.0066597351398 0.0066597797335 0.0066589605474 0.006659005134 0.006659049721 0.0066590943084 0.0066591388963 0.0066591834846 0.0066592280732 
0.0066592726623 0.0066593172519 0.0066593618418 0.0066594064321 0.0066594510229 0.0066594956141 0.0066595402056 0.0066595847977 0.0066596293901 
0.0066596739829 0.0066597185761 0.0066597631698 0.0066598077639 0.0066589885714 0.0066590331583 0.0066590777457 0.0066591223335 0.0066591669217 
0.0066592115103 0.0066592560993 0.0066593006887 0.0066593452786 0.0066593898688 0.0066594344595 0.0066594790506 0.0066595236421 0.0066595682341 
0.0066596128264 0.0066596574191 0.0066597020123 0.0066597466059 0.0066597911999 0.0066598357943 0.0066590165955 0.0066590611828 0.0066591057705 
0.0066591503586 0.0066591949471 0.0066592395361 0.0066592841254 0.0066593287152 0.0066593733054 0.006659417896 0.006659462487 0.0066595070784 
0.0066595516703 0.0066595962626 0.0066596408552 0.0066596854483 0.0066597300418 0.0066597746357 0.0066598192301 0.0066598638248 0.0066590446197 
0.0066590892073 0.0066591337954 0.0066591783838 0.0066592229727 0.006659267562 0.0066593121517 0.0066593567418 0.0066594013323 0.0066594459233 
0.0066594905146 0.0066595351064 0.0066595796986 0.0066596242912 0.0066596688842 0.0066597134776 0.0066597580714 0.0066598026657 0.0066598472604 
0.0066598918555 0.006659072644 0.006659117232 0.0066591618204 0.0066592064092 0.0066592509984 0.006659295588 0.006659340178 0.0066593847685 
0.0066594293593 0.0066594739506 0.0066595185423 0.0066595631344 0.0066596077269 0.0066596523199 0.0066596969132 0.006659741507 0.0066597861012 
0.0066598306957 0.0066598752908 0.0066599198862 0.0066591006685 0.0066591452568 0.0066591898455 0.0066592344346 0.0066592790241 0.0066593236141 
0.0066593682045 0.0066594127953 0.0066594573865 0.0066595019781 0.0066595465701 0.0066595911625 0.0066596357554 0.0066596803487 0.0066597249424 
0.0066597695365 0.006659814131 0.0066598587259 0.0066599033212 0.006659947917 0.006659128693 0.0066591732816 0.0066592178707 0.0066592624601 
0.00665930705 0.0066593516403 0.006659396231 0.0066594408221 0.0066594854137 0.0066595300056 0.006659574598 0.0066596191908 0.006659663784 
0.0066597083776 0.0066597529716 0.006659797566 0.0066598421609 0.0066598867562 0.0066599313518 0.0066599759479 0.0066591567176 0.0066592013066 
0.006659245896 0.0066592904858 0.006659335076 0.0066593796666 0.0066594242577 0.0066594688491 0.006659513441 0.0066595580333 0.006659602626 
0.0066596472191 0.0066596918126 0.0066597364066 0.0066597810009 0.0066598255957 0.0066598701909 0.0066599147865 0.0066599593825 0.006660003979 
0.0066591847423 0.0066592293316 0.0066592739214 0.0066593185115 0.0066593631021 0.006659407693 0.0066594522844 0.0066594968762 0.0066595414684 
0.006659586061 0.0066596306541 0.0066596752475 0.0066597198414 0.0066597644357 0.0066598090304 0.0066598536255 0.006659898221 0.006659942817 
0.0066599874133 0.0066600320101 0.0066592127672 0.0066592573568 0.0066593019469 0.0066593465373 0.0066593911282 0.0066594357195 0.0066594803112 
0.0066595249034 0.0066595694959 0.0066596140889 0.0066596586823 0.0066597032761 0.0066597478703 0.0066597924649 0.0066598370599 0.0066598816554 
0.0066599262512 0.0066599708475 0.0066600154442 0.0066600600413 0.0066592407921 0.0066592853821 0.0066593299725 0.0066593745633 0.0066594191545 
0.0066594637461 0.0066595083382 0.0066595529307 0.0066595975235 0.0066596421168 0.0066596867106 0.0066597313047 0.0066597758992 0.0066598204942 
0.0066598650896 0.0066599096853 0.0066599542815 0.0066599988782 0.0066600434752 0.0066600880726 0.0066592688171 0.0066593134074 0.0066593579982 
0.0066594025893 0.0066594471809 0.0066594917728 0.0066595363652 0.006659580958 0.0066596255513 0.0066596701449 0.006659714739 0.0066597593334 
0.0066598039283 0.0066598485236 0.0066598931193 0.0066599377154 0.006659982312 0.0066600269089 0.0066600715063 0.0066601161041 0.0066592968422 
0.0066593414329 0.006659386024 0.0066594306154 0.0066594752073 0.0066595197997 0.0066595643924 0.0066596089855 0.0066596535791 0.0066596981731 
0.0066597427675 0.0066597873623 0.0066598319575 0.0066598765531 0.0066599211491 0.0066599657456 0.0066600103425 0.0066600549398 0.0066600995375 
0.0066601441356 0.0066593248675 0.0066593694584 0.0066594140499 0.0066594586417 0.0066595032339 0.0066595478266 0.0066595924196 0.0066596370131 
0.006659681607 0.0066597262013 0.006659770796 0.0066598153912 0.0066598599867 0.0066599045827 0.0066599491791 0.0066599937759 0.0066600383731 
0.0066600829707 0.0066601275688 0.0066601721672 0.0066593528928 0.0066593974841 0.0066594420759 0.006659486668 0.0066595312606 0.0066595758536 
0.006659620447 0.0066596650408 0.006659709635 0.0066597542297 0.0066597988247 0.0066598434202 0.0066598880161 0.0066599326124 0.0066599772091 
0.0066600218063 0.0066600664038 0.0066601110018 0.0066601556002 0.006660200199 0.0066593809182 0.0066594255099 0.006659470102 0.0066595146944 
0.0066595592874 0.0066596038807 0.0066596484744 0.0066596930686 0.0066597376632 0.0066597822581 0.0066598268535 0.0066598714493 0.0066599160456 
0.0066599606422 0.0066600052393 0.0066600498367 0.0066600944346 0.0066601390329 0.0066601836317 0.0066602282308 0.0066589696319 0.006659014218 
0.0066590588044 0.0066591033913 0.0066591479785 0.0066591925662 0.0066592371543 0.0066592817428 0.0066593263317 0.0066593709211 0.0066594155108 
0.006659460101 0.0066595046916 0.0066595492826 0.006659593874 0.0066596384659 0.0066596830581 0.0066597276508 0.0066597722438 0.0066598168373 
0.006658997656 0.0066590422424 0.0066590868292 0.0066591314164 0.006659176004 0.006659220592 0.0066592651804 0.0066593097693 0.0066593543585 
0.0066593989482 0.0066594435383 0.0066594881288 0.0066595327198 0.0066595773111 0.0066596219028 0.006659666495 0.0066597110876 0.0066597556806 
0.006659800274 0.0066598448678 0.0066590256802 0.0066590702669 0.0066591148541 0.0066591594416 0.0066592040295 0.0066592486179 0.0066592932067 
0.0066593377958 0.0066593823854 0.0066594269755 0.0066594715659 0.0066595161567 0.006659560748 0.0066596053397 0.0066596499318 0.0066596945243 
0.0066597391172 0.0066597837105 0.0066598283043 0.0066598728984 0.0066590537045 0.0066590982916 0.006659142879 0.0066591874669 0.0066592320552 
0.0066592766439 0.006659321233 0.0066593658225 0.0066594104125 0.0066594550028 0.0066594995936 0.0066595441848 0.0066595887764 0.0066596333684 
0.0066596779608 0.0066597225536 0.0066597671469 0.0066598117406 0.0066598563346 0.0066599009291 0.0066590817289 0.0066591263163 0.0066591709041 
0.0066592154923 0.0066592600809 0.00665930467 0.0066593492594 0.0066593938493 0.0066594384396 0.0066594830302 0.0066595276213 0.0066595722129 
0.0066596168048 0.0066596613972 0.0066597059899 0.0066597505831 0.0066597951767 0.0066598397707 0.0066598843651 0.0066599289599 0.0066591097534 
0.0066591543412 0.0066591989293 0.0066592435178 0.0066592881068 0.0066593326962 0.0066593772859 0.0066594218761 0.0066594664668 0.0066595110578 
0.0066595556492 0.0066596002411 0.0066596448334 0.006659689426 0.0066597340191 0.0066597786127 0.0066598232066 0.0066598678009 0.0066599123957 
0.0066599569909 0.0066591377781 0.0066591823661 0.0066592269546 0.0066592715434 0.0066593161327 0.0066593607224 0.0066594053126 0.0066594499031 
0.0066594944941 0.0066595390854 0.0066595836772 0.0066596282694 0.006659672862 0.006659717455 0.0066597620485 0.0066598066423 0.0066598512366 
0.0066598958313 0.0066599404264 0.0066599850219 0.0066591658028 0.0066592103911 0.0066592549799 0.0066592995692 0.0066593441588 0.0066593887488 
0.0066594333393 0.0066594779302 0.0066595225215 0.0066595671132 0.0066596117053 0.0066596562978 0.0066597008908 0.0066597454841 0.0066597900779 
0.0066598346721 0.0066598792667 0.0066599238617 0.0066599684571 0.006660013053 0.0066591938276 0.0066592384163 0.0066592830054 0.006659327595 
0.0066593721849 0.0066594167753 0.0066594613661 0.0066595059573 0.006659550549 0.006659595141 0.0066596397334 0.0066596843263 0.0066597289196 
0.0066597735133 0.0066598181074 0.0066598627019 0.0066599072969 0.0066599518922 0.006659996488 0.0066600410842 0.0066592218525 0.0066592664415 
0.006659311031 0.0066593556209 0.0066594002112 0.0066594448019 0.006659489393 0.0066595339846 0.0066595785766 0.0066596231689 0.0066596677617 
0.0066597123549 0.0066597569486 0.0066598015426 0.006659846137 0.0066598907319 0.0066599353272 0.0066599799229 0.006660024519 0.0066600691155 
0.0066592498775 0.0066592944669 0.0066593390567 0.0066593836469 0.0066594282376 0.0066594728286 0.0066595174201 0.006659562012 0.0066596066043 
0.006659651197 0.0066596957901 0.0066597403836 0.0066597849776 0.006659829572 0.0066598741668 0.006659918762 0.0066599633576 0.0066600079536 
0.00666005255 0.0066600971469 0.0066592779026 0.0066593224923 0.0066593670825 0.006659411673 0.006659456264 0.0066595008554 0.0066595454472 
0.0066595900394 0.0066596346321 0.0066596792251 0.0066597238186 0.0066597684125 0.0066598130068 0.0066598576015 0.0066599021966 0.0066599467921 
0.0066599913881 0.0066600359844 0.0066600805812 0.0066601251784 0.0066593059278 0.0066593505179 0.0066593951083 0.0066594396992 0.0066594842906 
0.0066595288823 0.0066595734744 0.006659618067 0.00665966266 0.0066597072534 0.0066597518472 0.0066597964414 0.006659841036 0.006659885631 