# vtk DataFile Version 5.1
vtk output
ASCII
DATASET STRUCTURED_POINTS
DIMENSIONS 20 20 20
SPACING 2e-05 2e-05 2e-05
ORIGIN 3.69981 -0.00019 0.99981
POINT_DATA 8000
FIELD FieldData 1
potential 1 8000 double
0.33390696933 0.33390696705 0.33390696476 0.33390696248 0.3339069602 0.33390695791 0.33390695563 0.33390695335 0.33390695107 
0.33390694878 0.3339069465 0.33390694422 0.33390694193 0.33390693965 0.33390693737 0.33390693509 0.3339069328 0.33390693052 
0.33390692824 0.33390692595 0.33390696805 0.33390696577 0.33390696349 0.3339069612 0.33390695892 0.33390695664 0.33390695435 
0.33390695207 0.33390694979 0.33390694751 0.33390694522 0.33390694294 0.33390694066 0.33390693838 0.33390693609 0.33390693381 
0.33390693153 0.33390692924 0.33390692696 0.33390692468 0.33390696661 0.33390696433 0.33390696205 0.33390695976 0.33390695748 
0.3339069552 0.33390695292 0.33390695063 0.33390694835 0.33390694607 0.33390694379 0.3339069415 0.33390693922 0.33390693694 
0.33390693465 0.33390693237 0.33390693009 0.33390692781 0.33390692552 0.33390692324 0.33390696501 0.33390696273 0.33390696045 
0.33390695816 0.33390695588 0.3339069536 0.33390695132 0.33390694903 0.33390694675 0.33390694447 0.33390694219 0.3339069399 
0.33390693762 0.33390693534 0.33390693306 0.33390693077 0.33390692849 0.33390692621 0.33390692392 0.33390692164 0.33390696325 
0.33390696097 0.33390695868 0.3339069564 0.33390695412 0.33390695184 0.33390694956 0.33390694727 0.33390694499 0.33390694271 
0.33390694043 0.33390693814 0.33390693586 0.33390693358 0.33390693129 0.33390692901 0.33390692673 0.33390692445 0.33390692216 
0.33390691988 0.33390696133 0.33390695904 0.33390695676 0.33390695448 0.3339069522 0.33390694992 0.33390694763 0.33390694535 
0.33390694307 0.33390694079 0.3339069385 0.33390693622 0.33390693394 0.33390693166 0.33390692937 0.33390692709 0.33390692481 
0.33390692253 0.33390692024 0.33390691796 0.33390695924 0.33390695696 0.33390695468 0.3339069524 0.33390695011 0.33390694783 
0.33390694555 0.33390694327 0.33390694099 0.3339069387 0.33390693642 0.33390693414 0.33390693186 0.33390692957 0.33390692729 
0.33390692501 0.33390692273 0.33390692044 0.33390691816 0.33390691588 0.333906957 0.33390695472 0.33390695243 0.33390695015 
0.33390694787 0.33390694559 0.33390694331 0.33390694102 0.33390693874 0.33390693646 0.33390693418 0.33390693189 0.33390692961 
0.33390692733 0.33390692505 0.33390692276 0.33390692048 0.3339069182 0.33390691592 0.33390691364 0.33390695459 0.33390695231 
0.33390695003 0.33390694775 0.33390694546 0.33390694318 0.3339069409 0.33390693862 0.33390693634 0.33390693405 0.33390693177 
0.33390692949 0.33390692721 0.33390692492 0.33390692264 0.33390692036 0.33390691808 0.3339069158 0.33390691351 0.33390691123 
0.33390695203 0.33390694974 0.33390694746 0.33390694518 0.3339069429 0.33390694062 0.33390693833 0.33390693605 0.33390693377 
0.33390693149 0.33390692921 0.33390692692 0.33390692464 0.33390692236 0.33390692008 0.33390691779 0.33390691551 0.33390691323 
0.33390691095 0.33390690867 0.3339069493 0.33390694702 0.33390694473 0.33390694245 0.33390694017 0.33390693789 0.33390693561 
0.33390693332 0.33390693104 0.33390692876 0.33390692648 0.3339069242 0.33390692191 0.33390691963 0.33390691735 0.33390691507 
0.33390691279 0.3339069105 0.33390690822 0.33390690594 0.33390694641 0.33390694413 0.33390694184 0.33390693956 0.33390693728 
0.333906935 0.33390693272 0.33390693044 0.33390692815 0.33390692587 0.33390692359 0.33390692131 0.33390691903 0.33390691674 
0.33390691446 0.33390691218 0.3339069099 0.33390690761 0.33390690533 0.33390690305 0.33390694336 0.33390694108 0.33390693879 
0.33390693651 0.33390693423 0.33390693195 0.33390692967 0.33390692739 0.3339069251 0.33390692282 0.33390692054 0.33390691826 
0.33390691598 0.33390691369 0.33390691141 0.33390690913 0.33390690685 0.33390690457 0.33390690228 0.3339069 0.33390694015 
0.33390693786 0.33390693558 0.3339069333 0.33390693102 0.33390692874 0.33390692646 0.33390692417 0.33390692189 0.33390691961 
0.33390691733 0.33390691505 0.33390691277 0.33390691048 0.3339069082 0.33390690592 0.33390690364 0.33390690136 0.33390689907 
0.33390689679 0.33390693677 0.33390693449 0.33390693221 0.33390692993 0.33390692765 0.33390692537 0.33390692308 0.3339069208 
0.33390691852 0.33390691624 0.33390691396 0.33390691168 0.33390690939 0.33390690711 0.33390690483 0.33390690255 0.33390690027 
0.33390689798 0.3339068957 0.33390689342 0.33390693324 0.33390693096 0.33390692868 0.3339069264 0.33390692411 0.33390692183 
0.33390691955 0.33390691727 0.33390691499 0.33390691271 0.33390691042 0.33390690814 0.33390690586 0.33390690358 0.3339069013 
0.33390689902 0.33390689673 0.33390689445 0.33390689217 0.33390688989 0.33390692954 0.33390692726 0.33390692498 0.3339069227 
0.33390692042 0.33390691814 0.33390691586 0.33390691357 0.33390691129 0.33390690901 0.33390690673 0.33390690445 0.33390690217 
0.33390689988 0.3339068976 0.33390689532 0.33390689304 0.33390689076 0.33390688848 0.33390688619 0.33390692569 0.33390692341 
0.33390692113 0.33390691884 0.33390691656 0.33390691428 0.333906912 0.33390690972 0.33390690744 0.33390690516 0.33390690287 
0.33390690059 0.33390689831 0.33390689603 0.33390689375 0.33390689147 0.33390688918 0.3339068869 0.33390688462 0.33390688234 
0.33390692167 0.33390691939 0.33390691711 0.33390691483 0.33390691255 0.33390691026 0.33390690798 0.3339069057 0.33390690342 
0.33390690114 0.33390689886 0.33390689658 0.33390689429 0.33390689201 0.33390688973 0.33390688745 0.33390688517 0.33390688289 
0.33390688061 0.33390687832 0.33390691749 0.33390691521 0.33390691293 0.33390691065 0.33390690837 0.33390690609 0.33390690381 
0.33390690152 0.33390689924 0.33390689696 0.33390689468 0.3339068924 0.33390689012 0.33390688784 0.33390688555 0.33390688327 
0.33390688099 0.33390687871 0.33390687643 0.33390687415 0.33390153885 0.33390153657 0.33390153428 0.333901532 0.33390152972 
0.33390152744 0.33390152515 0.33390152287 0.33390152059 0.3339015183 0.33390151602 0.33390151374 0.33390151146 0.33390150917 
0.33390150689 0.33390150461 0.33390150232 0.33390150004 0.33390149776 0.33390149547 0.33390153757 0.33390153529 0.33390153301 
0.33390153072 0.33390152844 0.33390152616 0.33390152388 0.33390152159 0.33390151931 0.33390151703 0.33390151474 0.33390151246 
0.33390151018 0.3339015079 0.33390150561 0.33390150333 0.33390150105 0.33390149876 0.33390149648 0.3339014942 0.33390153613 
0.33390153385 0.33390153157 0.33390152929 0.333901527 0.33390152472 0.33390152244 0.33390152015 0.33390151787 0.33390151559 
0.33390151331 0.33390151102 0.33390150874 0.33390150646 0.33390150417 0.33390150189 0.33390149961 0.33390149733 0.33390149504 
0.33390149276 0.33390153453 0.33390153225 0.33390152997 0.33390152769 0.3339015254 0.33390152312 0.33390152084 0.33390151855 
0.33390151627 0.33390151399 0.33390151171 0.33390150942 0.33390150714 0.33390150486 0.33390150257 0.33390150029 0.33390149801 
0.33390149573 0.33390149344 0.33390149116 0.33390153277 0.33390153049 0.33390152821 0.33390152592 0.33390152364 0.33390152136 
0.33390151908 0.33390151679 0.33390151451 0.33390151223 0.33390150995 0.33390150766 0.33390150538 0.3339015031 0.33390150081 
0.33390149853 0.33390149625 0.33390149397 0.33390149168 0.3339014894 0.33390153085 0.33390152857 0.33390152628 0.333901524 
0.33390152172 0.33390151944 0.33390151715 0.33390151487 0.33390151259 0.33390151031 0.33390150802 0.33390150574 0.33390150346 
0.33390150118 0.33390149889 0.33390149661 0.33390149433 0.33390149204 0.33390148976 0.33390148748 0.33390152877 0.33390152648 
0.3339015242 0.33390152192 0.33390151964 0.33390151735 0.33390151507 0.33390151279 0.33390151051 0.33390150822 0.33390150594 
0.33390150366 0.33390150138 0.33390149909 0.33390149681 0.33390149453 0.33390149225 0.33390148996 0.33390148768 0.3339014854 
0.33390152652 0.33390152424 0.33390152196 0.33390151967 0.33390151739 0.33390151511 0.33390151283 0.33390151054 0.33390150826 
0.33390150598 0.3339015037 0.33390150141 0.33390149913 0.33390149685 0.33390149457 0.33390149228 0.33390149 0.33390148772 
0.33390148544 0.33390148315 0.33390152411 0.33390152183 0.33390151955 0.33390151727 0.33390151499 0.3339015127 0.33390151042 
0.33390150814 0.33390150586 0.33390150357 0.33390150129 0.33390149901 0.33390149673 0.33390149444 0.33390149216 0.33390148988 
0.3339014876 0.33390148531 0.33390148303 0.33390148075 0.33390152155 0.33390151927 0.33390151698 0.3339015147 0.33390151242 
0.33390151014 0.33390150785 0.33390150557 0.33390150329 0.33390150101 0.33390149873 0.33390149644 0.33390149416 0.33390149188 
0.3339014896 0.33390148731 0.33390148503 0.33390148275 0.33390148047 0.33390147818 0.33390151882 0.33390151654 0.33390151426 
0.33390151197 0.33390150969 0.33390150741 0.33390150513 0.33390150284 0.33390150056 0.33390149828 0.333901496 0.33390149372 
0.33390149143 0.33390148915 0.33390148687 0.33390148459 0.3339014823 0.33390148002 0.33390147774 0.33390147546 0.33390151593 
0.33390151365 0.33390151137 0.33390150908 0.3339015068 0.33390150452 0.33390150224 0.33390149996 0.33390149767 0.33390149539 
0.33390149311 0.33390149083 0.33390148854 0.33390148626 0.33390148398 0.3339014817 0.33390147942 0.33390147713 0.33390147485 
0.33390147257 0.33390151288 0.3339015106 0.33390150832 0.33390150603 0.33390150375 0.33390150147 0.33390149919 0.33390149691 
0.33390149462 0.33390149234 0.33390149006 0.33390148778 0.3339014855 0.33390148321 0.33390148093 0.33390147865 0.33390147637 
0.33390147408 0.3339014718 0.33390146952 0.33390150967 0.33390150739 0.3339015051 0.33390150282 0.33390150054 0.33390149826 
0.33390149598 0.33390149369 0.33390149141 0.33390148913 0.33390148685 0.33390148457 0.33390148228 0.33390148 0.33390147772 
0.33390147544 0.33390147316 0.33390147087 0.33390146859 0.33390146631 0.3339015063 0.33390150401 0.33390150173 0.33390149945 
0.33390149717 0.33390149489 0.3339014926 0.33390149032 0.33390148804 0.33390148576 0.33390148348 0.33390148119 0.33390147891 
0.33390147663 0.33390147435 0.33390147207 0.33390146979 0.3339014675 0.33390146522 0.33390146294 0.33390150276 0.33390150048 
0.3339014982 0.33390149592 0.33390149363 0.33390149135 0.33390148907 0.33390148679 0.33390148451 0.33390148223 0.33390147994 
0.33390147766 0.33390147538 0.3339014731 0.33390147082 0.33390146853 0.33390146625 0.33390146397 0.33390146169 0.33390145941 
0.33390149907 0.33390149678 0.3339014945 0.33390149222 0.33390148994 0.33390148766 0.33390148538 0.33390148309 0.33390148081 
0.33390147853 0.33390147625 0.33390147397 0.33390147169 0.3339014694 0.33390146712 0.33390146484 0.33390146256 0.33390146028 
0.333901458 0.33390145571 0.33390149521 0.33390149293 0.33390149065 0.33390148837 0.33390148608 0.3339014838 0.33390148152 
0.33390147924 0.33390147696 0.33390147468 0.33390147239 0.33390147011 0.33390146783 0.33390146555 0.33390146327 0.33390146099 
0.3339014587 0.33390145642 0.33390145414 0.33390145186 0.33390149119 0.33390148891 0.33390148663 0.33390148435 0.33390148207 
0.33390147979 0.3339014775 0.33390147522 0.33390147294 0.33390147066 0.33390146838 0.3339014661 0.33390146381 0.33390146153 
0.33390145925 0.33390145697 0.33390145469 0.33390145241 0.33390145012 0.33390144784 0.33390148702 0.33390148473 0.33390148245 
0.33390148017 0.33390147789 0.33390147561 0.33390147333 0.33390147104 0.33390146876 0.33390146648 0.3339014642 0.33390146192 
0.33390145964 0.33390145736 0.33390145507 0.33390145279 0.33390145051 0.33390144823 0.33390144595 0.33390144367 0.33389610853 
0.33389610625 0.33389610397 0.33389610168 0.3338960994 0.33389609712 0.33389609484 0.33389609255 0.33389609027 0.33389608799 
0.3338960857 0.33389608342 0.33389608114 0.33389607885 0.33389607657 0.33389607429 0.333896072 0.33389606972 0.33389606744 
0.33389606515 0.33389610726 0.33389610497 0.33389610269 0.33389610041 0.33389609812 0.33389609584 0.33389609356 0.33389609127 
0.33389608899 0.33389608671 0.33389608443 0.33389608214 0.33389607986 0.33389607758 0.33389607529 0.33389607301 0.33389607073 
0.33389606844 0.33389606616 0.33389606388 0.33389610582 0.33389610353 0.33389610125 0.33389609897 0.33389609669 0.3338960944 
0.33389609212 0.33389608984 0.33389608755 0.33389608527 0.33389608299 0.3338960807 0.33389607842 0.33389607614 0.33389607385 
0.33389607157 0.33389606929 0.33389606701 0.33389606472 0.33389606244 0.33389610422 0.33389610193 0.33389609965 0.33389609737 
0.33389609508 0.3338960928 0.33389609052 0.33389608824 0.33389608595 0.33389608367 0.33389608139 0.3338960791 0.33389607682 
0.33389607454 0.33389607226 0.33389606997 0.33389606769 0.33389606541 0.33389606312 0.33389606084 0.33389610245 0.33389610017 
0.33389609789 0.33389609561 0.33389609332 0.33389609104 0.33389608876 0.33389608648 0.33389608419 0.33389608191 0.33389607963 
0.33389607734 0.33389607506 0.33389607278 0.3338960705 0.33389606821 0.33389606593 0.33389606365 0.33389606136 0.33389605908 
0.33389610053 0.33389609825 0.33389609597 0.33389609368 0.3338960914 0.33389608912 0.33389608684 0.33389608455 0.33389608227 
0.33389607999 0.33389607771 0.33389607542 0.33389607314 0.33389607086 0.33389606857 0.33389606629 0.33389606401 0.33389606173 
0.33389605944 0.33389605716 0.33389609845 0.33389609617 0.33389609388 0.3338960916 0.33389608932 0.33389608704 0.33389608475 
0.33389608247 0.33389608019 0.3338960779 0.33389607562 0.33389607334 0.33389607106 0.33389606877 0.33389606649 0.33389606421 
0.33389606193 0.33389605964 0.33389605736 0.33389605508 0.3338960962 0.33389609392 0.33389609164 0.33389608936 0.33389608707 
0.33389608479 0.33389608251 0.33389608023 0.33389607794 0.33389607566 0.33389607338 0.3338960711 0.33389606881 0.33389606653 
0.33389606425 0.33389606196 0.33389605968 0.3338960574 0.33389605512 0.33389605283 0.3338960938 0.33389609152 0.33389608923 
0.33389608695 0.33389608467 0.33389608239 0.3338960801 0.33389607782 0.33389607554 0.33389607326 0.33389607097 0.33389606869 
0.33389606641 0.33389606413 0.33389606184 0.33389605956 0.33389605728 0.33389605499 0.33389605271 0.33389605043 0.33389609123 
0.33389608895 0.33389608667 0.33389608438 0.3338960821 0.33389607982 0.33389607754 0.33389607525 0.33389607297 0.33389607069 
0.33389606841 0.33389606612 0.33389606384 0.33389606156 0.33389605928 0.33389605699 0.33389605471 0.33389605243 0.33389605015 
0.33389604786 0.3338960885 0.33389608622 0.33389608394 0.33389608166 0.33389607937 0.33389607709 0.33389607481 0.33389607253 
0.33389607024 0.33389606796 0.33389606568 0.3338960634 0.33389606111 0.33389605883 0.33389605655 0.33389605427 0.33389605198 
0.3338960497 0.33389604742 0.33389604514 0.33389608561 0.33389608333 0.33389608105 0.33389607877 0.33389607648 0.3338960742 
0.33389607192 0.33389606964 0.33389606736 0.33389606507 0.33389606279 0.33389606051 0.33389605823 0.33389605594 0.33389605366 
0.33389605138 0.3338960491 0.33389604681 0.33389604453 0.33389604225 0.33389608256 0.33389608028 0.333896078 0.33389607572 
0.33389607343 0.33389607115 0.33389606887 0.33389606659 0.33389606431 0.33389606202 0.33389605974 0.33389605746 0.33389605518 
0.33389605289 0.33389605061 0.33389604833 0.33389604605 0.33389604376 0.33389604148 0.3338960392 0.33389607935 0.33389607707 
0.33389607479 0.3338960725 0.33389607022 0.33389606794 0.33389606566 0.33389606338 0.33389606109 0.33389605881 0.33389605653 
0.33389605425 0.33389605197 0.33389604968 0.3338960474 0.33389604512 0.33389604284 0.33389604055 0.33389603827 0.33389603599 
0.33389607598 0.3338960737 0.33389607141 0.33389606913 0.33389606685 0.33389606457 0.33389606229 0.33389606 0.33389605772 
0.33389605544 0.33389605316 0.33389605088 0.33389604859 0.33389604631 0.33389604403 0.33389604175 0.33389603947 0.33389603718 
0.3338960349 0.33389603262 0.33389607244 0.33389607016 0.33389606788 0.3338960656 0.33389606332 0.33389606103 0.33389605875 
0.33389605647 0.33389605419 0.33389605191 0.33389604963 0.33389604734 0.33389604506 0.33389604278 0.3338960405 0.33389603821 
0.33389603593 0.33389603365 0.33389603137 0.33389602909 0.33389606875 0.33389606647 0.33389606419 0.3338960619 0.33389605962 
0.33389605734 0.33389605506 0.33389605278 0.33389605049 0.33389604821 0.33389604593 0.33389604365 0.33389604137 0.33389603909 
0.3338960368 0.33389603452 0.33389603224 0.33389602996 0.33389602767 0.33389602539 0.33389606489 0.33389606261 0.33389606033 
0.33389605805 0.33389605577 0.33389605348 0.3338960512 0.33389604892 0.33389604664 0.33389604436 0.33389604208 0.33389603979 
0.33389603751 0.33389603523 0.33389603295 0.33389603067 0.33389602838 0.3338960261 0.33389602382 0.33389602154 0.33389606088 
0.33389605859 0.33389605631 0.33389605403 0.33389605175 0.33389604947 0.33389604719 0.3338960449 0.33389604262 0.33389604034 
0.33389603806 0.33389603578 0.3338960335 0.33389603121 0.33389602893 0.33389602665 0.33389602437 0.33389602209 0.3338960198 
0.33389601752 0.3338960567 0.33389605442 0.33389605213 0.33389604985 0.33389604757 0.33389604529 0.33389604301 0.33389604073 
0.33389603845 0.33389603616 0.33389603388 0.3338960316 0.33389602932 0.33389602704 0.33389602475 0.33389602247 0.33389602019 
0.33389601791 0.33389601563 0.33389601335 0.33389067838 0.3338906761 0.33389067381 0.33389067153 0.33389066925 0.33389066696 
0.33389066468 0.3338906624 0.33389066011 0.33389065783 0.33389065555 0.33389065326 0.33389065098 0.3338906487 0.33389064641 
0.33389064413 0.33389064185 0.33389063956 0.33389063728 0.333890635 0.3338906771 0.33389067482 0.33389067253 0.33389067025 
0.33389066797 0.33389066568 0.3338906634 0.33389066112 0.33389065883 0.33389065655 0.33389065427 0.33389065199 0.3338906497 
0.33389064742 0.33389064514 0.33389064285 0.33389064057 0.33389063829 0.333890636 0.33389063372 0.33389067566 0.33389067338 
0.33389067109 0.33389066881 0.33389066653 0.33389066425 0.33389066196 0.33389065968 0.3338906574 0.33389065511 0.33389065283 
0.33389065055 0.33389064826 0.33389064598 0.3338906437 0.33389064141 0.33389063913 0.33389063685 0.33389063456 0.33389063228 
0.33389067406 0.33389067178 0.33389066949 0.33389066721 0.33389066493 0.33389066265 0.33389066036 0.33389065808 0.3338906558 
0.33389065351 0.33389065123 0.33389064895 0.33389064666 0.33389064438 0.3338906421 0.33389063981 0.33389063753 0.33389063525 
0.33389063296 0.33389063068 0.3338906723 0.33389067002 0.33389066773 0.33389066545 0.33389066317 0.33389066088 0.3338906586 
0.33389065632 0.33389065404 0.33389065175 0.33389064947 0.33389064719 0.3338906449 0.33389064262 0.33389064034 0.33389063805 
0.33389063577 0.33389063349 0.3338906312 0.33389062892 0.33389067038 0.33389066809 0.33389066581 0.33389066353 0.33389066125 
0.33389065896 0.33389065668 0.3338906544 0.33389065211 0.33389064983 0.33389064755 0.33389064526 0.33389064298 0.3338906407 
0.33389063842 0.33389063613 0.33389063385 0.33389063157 0.33389062928 0.333890627 0.33389066829 0.33389066601 0.33389066373 
0.33389066144 0.33389065916 0.33389065688 0.3338906546 0.33389065231 0.33389065003 0.33389064775 0.33389064546 0.33389064318 
0.3338906409 0.33389063862 0.33389063633 0.33389063405 0.33389063177 0.33389062948 0.3338906272 0.33389062492 0.33389066605 
0.33389066377 0.33389066148 0.3338906592 0.33389065692 0.33389065463 0.33389065235 0.33389065007 0.33389064779 0.3338906455 
0.33389064322 0.33389064094 0.33389063865 0.33389063637 0.33389063409 0.33389063181 0.33389062952 0.33389062724 0.33389062496 
0.33389062267 0.33389066364 0.33389066136 0.33389065908 0.33389065679 0.33389065451 0.33389065223 0.33389064995 0.33389064766 
0.33389064538 0.3338906431 0.33389064082 0.33389063853 0.33389063625 0.33389063397 0.33389063168 0.3338906294 0.33389062712 
0.33389062484 0.33389062255 0.33389062027 0.33389066107 0.33389065879 0.33389065651 0.33389065423 0.33389065194 0.33389064966 
0.33389064738 0.3338906451 0.33389064281 0.33389064053 0.33389063825 0.33389063597 0.33389063368 0.3338906314 0.33389062912 
0.33389062684 0.33389062455 0.33389062227 0.33389061999 0.3338906177 0.33389065835 0.33389065606 0.33389065378 0.3338906515 
0.33389064922 0.33389064693 0.33389064465 0.33389064237 0.33389064009 0.3338906378 0.33389063552 0.33389063324 0.33389063096 
0.33389062867 0.33389062639 0.33389062411 0.33389062183 0.33389061954 0.33389061726 0.33389061498 0.33389065546 0.33389065317 
0.33389065089 0.33389064861 0.33389064633 0.33389064405 0.33389064176 0.33389063948 0.3338906372 0.33389063492 0.33389063263 
0.33389063035 0.33389062807 0.33389062579 0.3338906235 0.33389062122 0.33389061894 0.33389061666 0.33389061437 0.33389061209 
0.33389065241 0.33389065012 0.33389064784 0.33389064556 0.33389064328 0.33389064099 0.33389063871 0.33389063643 0.33389063415 
0.33389063187 0.33389062958 0.3338906273 0.33389062502 0.33389062274 0.33389062045 0.33389061817 0.33389061589 0.33389061361 
0.33389061132 0.33389060904 0.33389064919 0.33389064691 0.33389064463 0.33389064235 0.33389064007 0.33389063778 0.3338906355 
0.33389063322 0.33389063094 0.33389062865 0.33389062637 0.33389062409 0.33389062181 0.33389061953 0.33389061724 0.33389061496 
0.33389061268 0.3338906104 0.33389060811 0.33389060583 0.33389064582 0.33389064354 0.33389064126 0.33389063898 0.33389063669 
0.33389063441 0.33389063213 0.33389062985 0.33389062756 0.33389062528 0.333890623 0.33389062072 0.33389061844 0.33389061615 
0.33389061387 0.33389061159 0.33389060931 0.33389060702 0.33389060474 0.33389060246 0.33389064229 0.33389064001 0.33389063772 
0.33389063544 0.33389063316 0.33389063088 0.3338906286 0.33389062631 0.33389062403 0.33389062175 0.33389061947 0.33389061719 
0.3338906149 0.33389061262 0.33389061034 0.33389060806 0.33389060577 0.33389060349 0.33389060121 0.33389059893 0.33389063859 
0.33389063631 0.33389063403 0.33389063175 0.33389062947 0.33389062718 0.3338906249 0.33389062262 0.33389062034 0.33389061806 
0.33389061577 0.33389061349 0.33389061121 0.33389060893 0.33389060664 0.33389060436 0.33389060208 0.3338905998 0.33389059752 
0.33389059523 0.33389063474 0.33389063246 0.33389063017 0.33389062789 0.33389062561 0.33389062333 0.33389062105 0.33389061876 
0.33389061648 0.3338906142 0.33389061192 0.33389060964 0.33389060735 0.33389060507 0.33389060279 0.33389060051 0.33389059823 
0.33389059594 0.33389059366 0.33389059138 0.33389063072 0.33389062844 0.33389062616 0.33389062387 0.33389062159 0.33389061931 
0.33389061703 0.33389061475 0.33389061247 0.33389061018 0.3338906079 0.33389060562 0.33389060334 0.33389060106 0.33389059877 
0.33389059649 0.33389059421 0.33389059193 0.33389058965 0.33389058736 0.33389062654 0.33389062426 0.33389062198 0.3338906197 
0.33389061742 0.33389061513 0.33389061285 0.33389061057 0.33389060829 0.33389060601 0.33389060372 0.33389060144 0.33389059916 
0.33389059688 0.3338905946 0.33389059231 0.33389059003 0.33389058775 0.33389058547 0.33389058319 0.33388524838 0.3338852461 
0.33388524382 0.33388524153 0.33388523925 0.33388523697 0.33388523468 0.3338852324 0.33388523012 0.33388522783 0.33388522555 
0.33388522327 0.33388522098 0.3338852187 0.33388521642 0.33388521413 0.33388521185 0.33388520957 0.33388520728 0.333885205 
0.33388524711 0.33388524482 0.33388524254 0.33388524026 0.33388523797 0.33388523569 0.33388523341 0.33388523112 0.33388522884 
0.33388522656 0.33388522427 0.33388522199 0.33388521971 0.33388521742 0.33388521514 0.33388521286 0.33388521057 0.33388520829 
0.333885206 0.33388520372 0.33388524567 0.33388524338 0.3338852411 0.33388523882 0.33388523653 0.33388523425 0.33388523197 
0.33388522968 0.3338852274 0.33388522512 0.33388522283 0.33388522055 0.33388521827 0.33388521598 0.3338852137 0.33388521142 
0.33388520913 0.33388520685 0.33388520457 0.33388520228 0.33388524407 0.33388524178 0.3338852395 0.33388523722 0.33388523493 
0.33388523265 0.33388523037 0.33388522808 0.3338852258 0.33388522352 0.33388522123 0.33388521895 0.33388521667 0.33388521438 
0.3338852121 0.33388520982 0.33388520753 0.33388520525 0.33388520297 0.33388520068 0.3338852423 0.33388524002 0.33388523774 
0.33388523546 0.33388523317 0.33388523089 0.33388522861 0.33388522632 0.33388522404 0.33388522176 0.33388521947 0.33388521719 
0.33388521491 0.33388521262 0.33388521034 0.33388520806 0.33388520577 0.33388520349 0.33388520121 0.33388519892 0.33388524038 
0.3338852381 0.33388523582 0.33388523353 0.33388523125 0.33388522897 0.33388522668 0.3338852244 0.33388522212 0.33388521983 
0.33388521755 0.33388521527 0.33388521298 0.3338852107 0.33388520842 0.33388520614 0.33388520385 0.33388520157 0.33388519929 
0.333885197 0.3338852383 0.33388523601 0.33388523373 0.33388523145 0.33388522917 0.33388522688 0.3338852246 0.33388522232 
0.33388522003 0.33388521775 0.33388521547 0.33388521319 0.3338852109 0.33388520862 0.33388520634 0.33388520405 0.33388520177 
0.33388519949 0.3338851972 0.33388519492 0.33388523605 0.33388523377 0.33388523149 0.3338852292 0.33388522692 0.33388522464 
0.33388522236 0.33388522007 0.33388521779 0.33388521551 0.33388521322 0.33388521094 0.33388520866 0.33388520638 0.33388520409 
0.33388520181 0.33388519953 0.33388519724 0.33388519496 0.33388519268 0.33388523365 0.33388523136 0.33388522908 0.3338852268 
0.33388522452 0.33388522223 0.33388521995 0.33388521767 0.33388521538 0.3338852131 0.33388521082 0.33388520854 0.33388520625 
0.33388520397 0.33388520169 0.3338851994 0.33388519712 0.33388519484 0.33388519256 0.33388519027 0.33388523108 0.3338852288 
0.33388522651 0.33388522423 0.33388522195 0.33388521967 0.33388521738 0.3338852151 0.33388521282 0.33388521054 0.33388520825 
0.33388520597 0.33388520369 0.3338852014 0.33388519912 0.33388519684 0.33388519456 0.33388519227 0.33388518999 0.33388518771 
0.33388522835 0.33388522607 0.33388522379 0.3338852215 0.33388521922 0.33388521694 0.33388521466 0.33388521237 0.33388521009 
0.33388520781 0.33388520552 0.33388520324 0.33388520096 0.33388519868 0.33388519639 0.33388519411 0.33388519183 0.33388518955 
0.33388518726 0.33388518498 0.33388522546 0.33388522318 0.3338852209 0.33388521861 0.33388521633 0.33388521405 0.33388521177 
0.33388520948 0.3338852072 0.33388520492 0.33388520264 0.33388520035 0.33388519807 0.33388519579 0.33388519351 0.33388519122 
0.33388518894 0.33388518666 0.33388518437 0.33388518209 0.33388522241 0.33388522013 0.33388521785 0.33388521556 0.33388521328 
0.333885211 0.33388520872 0.33388520643 0.33388520415 0.33388520187 0.33388519959 0.3338851973 0.33388519502 0.33388519274 
0.33388519046 0.33388518817 0.33388518589 0.33388518361 0.33388518133 0.33388517904 0.3338852192 0.33388521692 0.33388521464 
0.33388521235 0.33388521007 0.33388520779 0.33388520551 0.33388520322 0.33388520094 0.33388519866 0.33388519638 0.33388519409 
0.33388519181 0.33388518953 0.33388518725 0.33388518496 0.33388518268 0.3338851804 0.33388517812 0.33388517583 0.33388521583 
0.33388521355 0.33388521126 0.33388520898 0.3338852067 0.33388520442 0.33388520213 0.33388519985 0.33388519757 0.33388519529 
0.333885193 0.33388519072 0.33388518844 0.33388518616 0.33388518387 0.33388518159 0.33388517931 0.33388517703 0.33388517474 
0.33388517246 0.33388521229 0.33388521001 0.33388520773 0.33388520545 0.33388520316 0.33388520088 0.3338851986 0.33388519632 
0.33388519404 0.33388519175 0.33388518947 0.33388518719 0.33388518491 0.33388518262 0.33388518034 0.33388517806 0.33388517578 
0.33388517349 0.33388517121 0.33388516893 0.3338852086 0.33388520632 0.33388520403 0.33388520175 0.33388519947 0.33388519719 
0.33388519491 0.33388519262 0.33388519034 0.33388518806 0.33388518578 0.33388518349 0.33388518121 0.33388517893 0.33388517665 
0.33388517437 0.33388517208 0.3338851698 0.33388516752 0.33388516524 0.33388520474 0.33388520246 0.33388520018 0.3338851979 
0.33388519561 0.33388519333 0.33388519105 0.33388518877 0.33388518649 0.3338851842 0.33388518192 0.33388517964 0.33388517736 
0.33388517507 0.33388517279 0.33388517051 0.33388516823 0.33388516595 0.33388516366 0.33388516138 0.33388520073 0.33388519844 
0.33388519616 0.33388519388 0.3338851916 0.33388518932 0.33388518703 0.33388518475 0.33388518247 0.33388518019 0.33388517791 
0.33388517562 0.33388517334 0.33388517106 0.33388516878 0.33388516649 0.33388516421 0.33388516193 0.33388515965 0.33388515737 
0.33388519655 0.33388519427 0.33388519198 0.3338851897 0.33388518742 0.33388518514 0.33388518286 0.33388518057 0.33388517829 
0.33388517601 0.33388517373 0.33388517145 0.33388516916 0.33388516688 0.3338851646 0.33388516232 0.33388516004 0.33388515775 
0.33388515547 0.33388515319 0.33387981855 0.33387981627 0.33387981398 0.3338798117 0.33387980942 0.33387980713 0.33387980485 
0.33387980257 0.33387980028 0.333879798 0.33387979572 0.33387979343 0.33387979115 0.33387978886 0.33387978658 0.3338797843 
0.33387978201 0.33387977973 0.33387977745 0.33387977516 0.33387981727 0.33387981499 0.33387981271 0.33387981042 0.33387980814 
0.33387980586 0.33387980357 0.33387980129 0.333879799 0.33387979672 0.33387979444 0.33387979215 0.33387978987 0.33387978759 
0.3338797853 0.33387978302 0.33387978074 0.33387977845 0.33387977617 0.33387977388 0.33387981583 0.33387981355 0.33387981127 
0.33387980898 0.3338798067 0.33387980442 0.33387980213 0.33387979985 0.33387979757 0.33387979528 0.333879793 0.33387979072 
0.33387978843 0.33387978615 0.33387978386 0.33387978158 0.3338797793 0.33387977701 0.33387977473 0.33387977245 0.33387981423 
0.33387981195 0.33387980967 0.33387980738 0.3338798051 0.33387980282 0.33387980053 0.33387979825 0.33387979597 0.33387979368 
0.3338797914 0.33387978912 0.33387978683 0.33387978455 0.33387978227 0.33387977998 0.3338797777 0.33387977541 0.33387977313 
0.33387977085 0.33387981247 0.33387981019 0.3338798079 0.33387980562 0.33387980334 0.33387980105 0.33387979877 0.33387979649 
0.3338797942 0.33387979192 0.33387978964 0.33387978735 0.33387978507 0.33387978279 0.3338797805 0.33387977822 0.33387977594 
0.33387977365 0.33387977137 0.33387976909 0.33387981055 0.33387980827 0.33387980598 0.3338798037 0.33387980142 0.33387979913 
0.33387979685 0.33387979457 0.33387979228 0.33387979 0.33387978772 0.33387978543 0.33387978315 0.33387978087 0.33387977858 
0.3338797763 0.33387977402 0.33387977173 0.33387976945 0.33387976717 0.33387980846 0.33387980618 0.3338798039 0.33387980162 