# vtk DataFile Version 5.1
vtk output
ASCII
DATASET STRUCTURED_POINTS
DIMENSIONS 50 50 50
SPACING 0.002 0.002 0.002
ORIGIN 0.0482 -0.052672 0.02732
POINT_DATA 125000
FIELD FieldData 1
potential 1 125000 double
0.00054493220788 0.00054235098856 0.00053977172372 0.00053719660046 0.00053462391577 0.00053205451113 0.00052948841508 0.00052692455548 0.00052436331771 
0.00052180412433 0.00051924815858 0.00051669533779 0.00051414827365 0.00051160578163 0.00050907131358 0.00050654677369 0.00050403366424 0.00050153408329 
0.00049905029481 0.00049658562874 0.0004941402169 0.00049171546666 0.00048931230044 0.00048693164522 0.00048457377344 0.0004822390365 0.00047992671103 
0.00047763836404 0.00047537286431 0.00047313190293 0.00047091486295 0.00046872276492 0.00046655479588 0.00046441068705 0.00046228931029 0.00046018864869 
0.00045810761862 0.00045604209591 0.00045398976467 0.00045194900754 0.00044991647034 0.00044789071195 0.00044586982569 0.00044385304862 0.00044184071877 
0.0004398326366 0.00043782986481 0.00043583329541 0.00043384498374 0.00043186535397 0.00054430547657 0.00054173800169 0.00053917122106 0.00053660941786 
0.00053404884043 0.00053149105833 0.00052893614777 0.00052638360399 0.00052383240702 0.00052128243615 0.00051873614395 0.00051619358868 0.00051365472943 
0.00051112120594 0.00050859599498 0.00050608068221 0.00050357551493 0.00050108604007 0.00049861290801 0.00049615790705 0.00049372280082 0.00049130820981 
0.00048891513413 0.00048654417829 0.000484196261 0.00048187082706 0.00047956779709 0.00047728744401 0.00047503075 0.00047279786295 0.00047058892304 
0.00046840461702 0.00046624447868 0.00046410770163 0.00046199371894 0.00045990055481 0.00045782593344 0.00045576696276 0.00045372129091 0.00045168645026 
0.00044966033739 0.00044764007709 0.00044562510497 0.00044361401107 0.00044160715003 0.00043960449036 0.00043760705699 0.00043561637494 0.00043363347822 
0.00043165984557 0.00054350331779 0.00054094898149 0.00053839793888 0.00053584730868 0.00053329896128 0.00053075292634 0.00052820919755 0.00052566740789 
0.0005231266181 0.00052058801812 0.00051805159934 0.00051551837322 0.00051298908425 0.00051046602466 0.00050794932717 0.00050544297838 0.00050295019365 
0.00050047138934 0.00049800951641 0.00049556560793 0.00049314162959 0.00049073816812 0.00048835602418 0.00048599590547 0.00048365798227 0.0004813422643 
0.00047904890471 0.00047677807598 0.00047452990138 0.0004723049581 0.00047010418718 0.00046792788042 0.00046577515281 0.00046364537314 0.00046153800687 
0.00045945128079 0.00045738255009 0.00045532924425 0.00045328929112 0.00045126010118 0.00044923922064 0.00044722414343 0.00044521429046 0.0004432085907 
0.00044120698055 0.00043920982734 0.00043721823526 0.00043523354189 0.00043325703039 0.00043128979554 0.00054248587113 0.00053994591962 0.00053740902443 
0.00053487143404 0.00053233563177 0.00052980178045 0.00052726963275 0.00052473928546 0.00052220923712 0.0005196811278 0.00051715538585 0.0005146332473 
0.0005121133262 0.00050960112416 0.00050709495716 0.00050460057029 0.0005021189636 0.00049965234804 0.00049720243098 0.00049477076373 0.00049235885461 
0.00048996777155 0.00048759744844 0.00048524925198 0.00048292206629 0.00048061709243 0.0004783339101 0.00047607247878 0.00047383366186 0.00047161720486 
0.00046942513181 0.00046725613421 0.00046511052908 0.00046298739107 0.00046088642704 0.00045880538923 0.00045674224224 0.00045469452604 0.00045265966561 
0.00045063540777 0.00044861948748 0.00044660958533 0.00044460437537 0.00044260356147 0.00044060690029 0.00043861566868 0.00043663027858 0.00043465202243 
0.00043268230104 0.00043072207001 0.00054122266031 0.00053869763865 0.00053617447588 0.00053365060011 0.00053112842396 0.00052860771717 0.0005260877342 
0.00052356872331 0.00052104999927 0.00051853215256 0.00051601823398 0.00051350616634 0.00051099868377 0.00050849720357 0.00050600422953 0.00050352212354 
0.00050105243999 0.00049859829902 0.00049616200616 0.00049374396371 0.00049134535729 0.00048896759795 0.0004866107475 0.000484274671 0.00048195962509 
0.00047966568872 0.00047739339923 0.00047514208288 0.00047291227583 0.00047070518021 0.00046852123862 0.00046636028094 0.00046422173175 0.00046210557757 
0.00046001091168 0.00045793560903 0.0004558779902 0.00045383537186 0.00045180537055 0.00044978591207 0.00044777462044 0.00044576939366 0.00044376933137 
0.00044177385972 0.000439782747 0.00043779726521 0.00043581829316 0.00043384689811 0.000431884274 0.00042993188891 0.00053969316665 0.00053718386652 
0.00053467580379 0.00053216641209 0.00052965773823 0.0005271496709 0.00052464270312 0.00052213546766 0.0005196288227 0.00051712387999 0.00051462153961 
0.00051212169831 0.00050962520499 0.00050713630547 0.00050465619153 0.00050218733362 0.00049973188537 0.00049729192856 0.0004948698895 0.0004924656534 
0.00049008170643 0.00048771877204 0.00048537542775 0.00048305261586 0.00048075029153 0.00047846843448 0.000476207525 0.00047396698027 0.00047174684737 
0.00046954884369 0.00046737370229 0.00046522073811 0.00046308990113 0.00046098092462 0.00045889276618 0.00045682349085 0.00045477110291 0.00045273420179 
0.00045070917558 0.00044869472037 0.00044668800219 0.00044468780174 0.00044269267155 0.00044070252797 0.00043871749634 0.0004367381529 0.00043476598593 
0.00043280178977 0.00043084703381 0.00042890326458 0.00053789158251 0.00053539895046 0.00053290454122 0.00053040988898 0.00052791568915 0.00052542102561 
0.00052292721064 0.00052043370387 0.0005179398102 0.00051544873346 0.0005129583815 0.00051046989846 0.00050798689725 0.00050551153726 0.00050304492806 
0.00050059003287 0.00049814930242 0.00049572407934 0.00049331686338 0.00049092890527 0.00048856048136 0.00048621163239 0.00048388349107 0.00048157491543 
0.00047928610803 0.00047701720098 0.00047476781 0.00047253866453 0.00047032912405 0.00046814123841 0.00046597491376 0.00046383003166 0.00046170709636 
0.00045960544608 0.00045752413205 0.0004554614675 0.00045341552309 0.00045138412423 0.00044936491928 0.00044735577982 0.00044535415395 0.00044335945652 
0.00044136972703 0.00043938526303 0.00043740625916 0.00043543372162 0.00043346902084 0.00043151259971 0.00042956641279 0.00042763188938 0.00053582220065 
0.00053334612727 0.0005308673365 0.00052838679838 0.00052590734347 0.000523428172 0.0005209482403 0.00051846832226 0.00051598787871 0.00051351051977 
0.00051103247766 0.00050855797908 0.00050608889903 0.00050362736023 0.00050117529573 0.00049873544109 0.0004963101106 0.00049390061055 0.00049150952671 
0.00048913746188 0.00048678586627 0.00048445300894 0.00048214008805 0.00047984640336 0.00047757132411 0.00047531576784 0.00047307867803 0.00047086115245 
0.00046866306404 0.00046648528048 0.00046432807291 0.00046219231247 0.00046007798826 0.00045798399917 0.00045591030562 0.0004538545959 0.00045181526804 
0.00044979055935 0.00044777747081 0.0004457740637 0.00044377882542 0.00044178985505 0.00043980601677 0.00043782795846 0.00043585589869 0.00043389064337 
0.0004319333492 0.0004299858745 0.00042804899323 0.00042612409724 0.00053350378999 0.0005310432988 0.00052858046313 0.00052611701678 0.00052365303578 
0.00052118790342 0.00051872255047 0.00051625672784 0.00051379164118 0.00051132624369 0.00050886299654 0.00050640296496 0.00050394844378 0.00050150170753 
0.00049906512719 0.00049664087783 0.00049423142076 0.00049183865971 0.00048946430892 0.00048710972408 0.00048477382441 0.00048245772551 0.00048016057546 
0.00047788292068 0.00047562319216 0.00047338116464 0.0004711573017 0.00046895014835 0.00046676393939 0.00046459697675 0.00046244986067 0.00046032323031 
0.00045821761977 0.00045613219678 0.00045406676769 0.00045201875943 0.00044998711807 0.00044796944728 0.00044596333391 0.00044396670641 0.00044197789746 
0.00043999563199 0.00043801863163 0.00043604747294 0.00043408273968 0.00043212541557 0.00043017669531 0.00042823816294 0.00042631125159 0.00042439699709 
0.00053096960092 0.00052852316762 0.0005260758838 0.00052362798063 0.00052117902401 0.00051872922248 0.00051627848485 0.00051382754575 0.00051137714318 
0.00050892647772 0.00050647814518 0.00050403336686 0.00050159414388 0.00049916319185 0.00049674246836 0.00049433484572 0.00049194209242 0.00048956642853 
0.00048720948504 0.00048487137398 0.00048255245522 0.00048025303606 0.00047797236544 0.00047571033877 0.0004734655837 0.00047123782445 0.0004690271885 
0.00046683366342 0.00046465908144 0.0004625028693 0.00046036555633 0.00045824892575 0.00045615235307 0.00045407573956 0.00045201877208 0.00044997921578 
0.00044795587072 0.00044594595563 0.00044394765314 0.00044195858377 0.00043997739862 0.00043800235224 0.00043603322393 0.00043407038254 0.00043211385346 
0.00043016516047 0.00042822544074 0.00042629670363 0.00042438031644 0.00042247634566 0.00052825302367 0.00052582269669 0.00052339060186 0.00052095779264 
0.00051852384248 0.00051608940638 0.00051365374333 0.00051121870703 0.00050878245707 0.0005063469433 0.00050391416634 0.00050148529845 0.00049906209116 
0.00049664765033 0.0004942439549 0.00049185316436 0.0004894777917 0.00048711969568 0.00048477983312 0.00048245917106 0.0004801573841 0.0004778745371 
0.00047561004361 0.00047336340023 0.00047113386708 0.00046892058768 0.00046672351398 0.00046454272383 0.00046238031654 0.00046023615644 0.00045811054959 
0.00045600394785 0.00045391716991 0.00045184940189 0.00044980141435 0.00044777103437 0.00044575595675 0.00044375450904 0.0004417647159 0.00043978405686 
0.00043781117846 0.00043584449086 0.00043388372892 0.00043192940246 0.00042998193237 0.00042804292759 0.00042611317557 0.00042419507149 0.00042228930702 
0.00042039720827 0.00052539994541 0.00052298430646 0.00052056728974 0.00051814952901 0.00051573093496 0.00051331022873 0.0005108906887 0.00050847065608 
0.00050605004336 0.00050363053378 0.00050121382979 0.00049880151929 0.00049639492643 0.00049399719377 0.00049161058225 0.00048923743942 0.00048688002134 
0.00048453926202 0.00048221672665 0.0004799133751 0.00047762891946 0.00047536282826 0.00047311476163 0.00047088332057 0.00046866888073 0.00046647008234 
0.00046428679978 0.0004621192467 0.00045996919546 0.00045783649218 0.00045572200182 0.00045362632813 0.0004515497556 0.00044949285304 0.00044745447212 
0.00044543337387 0.00044342664472 0.00044143436844 0.00043945350941 0.00043748163256 0.0004355177254 0.0004335603244 0.00043160905772 0.00042966438687 
0.00042772686067 0.0004257980444 0.00042387932366 0.00042197180142 0.0004200782691 0.00041819820507 0.00052245574707 0.00052005483939 0.00051765269025 
0.00051524939287 0.00051284423044 0.00051043981412 0.00050803572239 0.00050563015933 0.00050322527064 0.00050082163582 0.00049842147625 0.00049602567829 
0.00049363667657 0.00049125639501 0.00048888725341 0.00048653250405 0.00048419249244 0.00048186944522 0.00047956438433 0.00047727824506 0.00047501054927 
0.00047276121014 0.00047052887036 0.00046831257018 0.00046611317251 0.00046392858965 0.00046175893031 0.00045960463983 0.00045746677403 0.00045534611561 
0.0004532432398 0.00045115861699 0.00044909279573 0.00044704605138 0.00044501751494 0.00044300625588 0.00044100992219 0.00043902697439 0.00043705553991 
0.00043509228952 0.00043313777053 0.00043119013001 0.00042924893658 0.00042731485288 0.00042538869283 0.0004234709352 0.0004215636185 0.0004196686438 
0.00041778665642 0.00041591846759 0.00051946591288 0.00051707909037 0.00051469084919 0.00051230071474 0.00050991117445 0.00050752075688 0.00050513123919 
0.00050274010717 0.00050035120244 0.00049796416212 0.00049558060861 0.00049320215521 0.00049083081353 0.00048846830745 0.00048611760647 0.00048378042405 
0.00048145832227 0.00047915313132 0.00047686548189 0.00047459607941 0.00047234506632 0.00047011159732 0.0004678948547 0.00046569354112 0.00046350822425 
0.00046133792451 0.00045918193342 0.00045704075132 0.00045491570269 0.00045280703426 0.00045071595111 0.00044864277995 0.00044658822397 0.00044455141966 
0.0004425331033 0.0004405314306 0.00043854484624 0.00043657142795 0.00043460952118 0.00043265707631 0.00043071259103 0.00042877547087 0.00042684495568 
0.00042492132849 0.00042300668519 0.00042110093224 0.00041920622116 0.00041732366517 0.00041545407145 0.0004135987923 0.00051647173352 0.00051409844255 
0.00051172267209 0.00050934726909 0.00050697088634 0.00050459588872 0.00050221956139 0.00049984363771 0.00049746994919 0.00049509912785 0.00049273222337 
0.00049037114461 0.00048801778594 0.00048567364726 0.00048334135627 0.00048102211611 0.00047871774408 0.00047642980911 0.00047415962641 0.00047190623387 
0.00046967129026 0.00046745317636 0.00046525118743 0.0004630648264 0.00046089310621 0.00045873622021 0.00045659408615 0.00045446668414 0.00045235438767 
0.00045025799521 0.0004481787893 0.00044611697814 0.00044407344864 0.000442047283 0.00044003923933 0.0004380473356 0.0004360705226 0.00043410684558 
0.00043215482182 0.00043021251346 0.00042827840157 0.00042635213533 0.00042443321137 0.0004225220603 0.00042061942106 0.00041872657819 0.00041684389121 
0.00041497404055 0.00041311716822 0.00041127471663 0.00051350954631 0.00051114815565 0.0005087866808 0.00050642391855 0.00050406092095 0.0005016994491 
0.00049933739394 0.00049697612593 0.0004946181321 0.00049226286248 0.00048991327163 0.00048756948621 0.00048523361732 0.00048290799614 0.00048059352168 
0.000478292182 0.00047600561768 0.00047373482901 0.00047148073473 0.00046924402667 0.0004670240679 0.00046482054622 0.00046263320999 0.00046046078398 
0.00045830286425 0.00045615964495 0.00045403045602 0.00045191656073 0.00044981703326 0.00044773299191 0.00044566594151 0.00044361611529 0.00044158347468 
0.0004395677856 0.00043756953353 0.0004355876739 0.00043362059403 0.00043166681727 0.00042972450694 0.00042779242526 0.00042586904239 0.00042395404509 
0.00042204693145 0.00042014786875 0.00041825818824 0.00041637839476 0.00041450951414 0.00041265320605 0.00041080992434 0.00040897999283 0.0005106071474 
0.00050826072348 0.00050591118913 0.00050356120571 0.0005012126814 0.00049886315117 0.00049651481211 0.00049416836467 0.00049182552072 0.00048948626923 
0.00048715280936 0.00048482618268 0.00048250879497 0.00048020047755 0.0004779035679 0.00047561978319 0.00047335014596 0.00047109599039 0.00046885868781 
0.00046663720245 0.00046443203653 0.00046224319867 0.00046006986395 0.00045791047947 0.00045576615029 0.00045363614702 0.00045152017739 0.00044941924303 
0.00044733234327 0.00044526085068 0.00044320583126 0.00044116745812 0.00043914600868 0.00043714129363 0.00043515301067 0.00043318083799 0.00043122340994 
0.00042927937777 0.00042734702808 0.0004254250871 0.00042351249266 0.00042160919081 0.00041971367903 0.00041782745004 0.00041595116245 0.00041408443613 
0.00041222933821 0.00041038627248 0.00040855632368 0.00040673944709 0.0005077931251 0.00050545838574 0.00050312090717 0.00050078329018 0.00049844743209 
0.00049611121416 0.00049377598817 0.00049144420059 0.00048911646564 0.00048679297178 0.00048447546833 0.00048216622048 0.00047986538695 0.00047757426312 
0.00047529460512 0.00047302811839 0.00047077508445 0.0004685376634 0.00046631532692 0.00046410889699 0.00046191811639 0.00045974284408 0.00045758321935 
0.00045543768833 0.00045330639607 0.00045118928895 0.00044908610668 0.0004469972738 0.00044492334259 0.00044286448375 0.00044082105358 0.00043879419384 
0.00043678379968 0.0004347898518 0.00043281183869 0.0004308493934 0.00042890156981 0.00042696672839 0.00042504464979 0.00042313330751 0.00042123164548 
0.00041933927309 0.00041745618761 0.00041558255066 0.00041371878775 0.00041186562043 0.00041002400773 0.00040819479157 0.00040637775931 0.00040457387484 
0.00050508254575 0.00050275798576 0.00050043350562 0.00049810926059 0.00049578444022 0.00049346101359 0.00049113943311 0.00048882156172 0.00048650863269 
0.00048420040461 0.00048189957147 0.00047960594938 0.00047732134116 0.00047504691212 0.00047278428776 0.00047053384785 0.00046829729751 0.00046607544673 
0.00046386836634 0.00046167612479 0.00045949924051 0.00045733784581 0.00045519080425 0.00045305846814 0.00045093986394 0.00044883540123 0.00044674495435 
0.00044466850395 0.00044260706021 0.00044056053099 0.00043852873796 0.00043651324286 0.00043451355749 0.00043253018067 0.00043056283573 0.0004286101624 
0.0004266716834 0.00042474659678 0.00042283432248 0.00042093262347 0.00041904184906 0.00041716070404 0.00041528980919 0.00041342894846 0.00041157825655 
0.000409738905 0.00040791059252 0.00040609401082 0.00040428962926 0.00040249851368 0.00050248669362 0.00050017390214 0.00049786129798 0.00049554869546 
0.00049323621535 0.0004909253225 0.00048861719194 0.00048631313992 0.00048401445708 0.00048172180439 0.00047943573392 0.00047715794143 0.00047488929884 
0.00047263080088 0.00047038404154 0.00046814962873 0.00046592879651 0.00046372187045 0.0004615291514 0.00045935076695 0.00045718777065 0.00045503916839 
0.00045290506459 0.0004507852079 0.00044867916182 0.00044658708924 0.00044450860951 0.00044244462456 0.0004403955511 0.00043836062093 0.00043634117885 
0.00043433657382 0.00043234774994 0.00043037486813 0.0004284170024 0.00042647396339 0.00042454512425 0.00042263002034 0.00042072676403 0.00041883543606 
0.00041695540123 0.00041508589349 0.0004132269668 0.00041137914454 0.0004095409107 0.0004077140141 0.00040589906108 0.00040409541262 0.00040230423668 
0.00040052493847 0.00050001389135 0.00049771255467 0.00049541170375 0.00049311084533 0.00049081031869 0.00048851224196 0.00048621700175 0.00048392665745 
0.00048164261967 0.0004793639181 0.00047709316806 0.00047483014096 0.00047257686112 0.00047033386358 0.00046810238263 0.00046588314089 0.00046367709266 
0.00046148450088 0.00045930552127 0.00045714101931 0.0004549912679 0.00045285501559 0.00045073358179 0.00044862598463 0.00044653193872 0.00044445165741 
0.00044238574391 0.00044033361436 0.0004382959758 0.00043627263528 0.00043426453444 0.00043227119808 0.00043029316726 0.0004283303598 0.00042638222393 
0.00042444898742 0.00042252980273 0.00042062370614 0.00041873049858 0.00041684971925 0.00041497981285 0.00041312186723 0.00041127534597 0.00040943890307 
0.00040761368583 0.00040579952894 0.00040399698631 0.00040220638597 0.0004004273201 0.00039865998368 0.0004976692091 0.00049538025611 0.00049308957172 
0.00049079945717 0.00048851223241 0.00048622657005 0.00048394423943 0.00048166823357 0.00047939714301 0.00047713251703 0.00047487581618 0.00047262784018 
0.00047038910297 0.00046816067003 0.0004659440835 0.00046373914187 0.00046154661172 0.00045936802546 0.00045720258095 0.00045505117223 0.00045291362082 
0.00045078975188 0.00044868000311 0.00044658437607 0.00044450243117 0.00044243388483 0.0004403793915 0.00043833894239 0.00043631282773 0.00043430090794 
0.00043230379704 0.00043032182229 0.00042835393768 0.00042640084444 0.00042446300082 0.00042253936597 0.00042062909692 0.0004187329729 0.00041684972044 
0.00041497915398 0.0004131212643 0.00041127391044 0.00040943817067 0.00040761378863 0.00040580078781 0.0004039992369 0.00040220900789 0.00040043039923 
0.00039866314507 0.00039690721325 0.00049545457154 0.00049317647214 0.00049089741229 0.00048861891212 0.0004863437899 0.00048407063717 0.0004818017512 
0.00047953761509 0.00047727983703 0.00047502895881 0.00047278595089 0.00047055173363 0.00046832678486 0.00046611329648 0.00046391018055 0.0004617186015 
0.00045953998201 0.00045737431025 0.00045522198758 0.00045308276928 0.00045095728899 0.00044884562752 0.00044674734473 0.00044466295467 0.00044259244243 
0.00044053518095 0.00043849213034 0.00043646304948 0.00043444808275 0.00043244706054 0.00043046091604 0.0004284890192 0.00042653183985 0.00042458943982 
0.00042266054212 0.00042074663043 0.00041884662997 0.00041696029745 0.00041508760418 0.0004132274427 0.00041137921699 0.0004095428599 0.00040771837501 
0.00040590541739 0.0004041045209 0.00040231503479 0.00040053638347 0.00039876910595 0.00039701361047 0.00039526888472 0.00049337044023 0.00049110214194 
0.00048883446361 0.00048656759622 0.00048430342082 0.00048204378051 0.00047978683845 0.00047753572264 0.00047529076953 0.00047305374177 0.00047082436721 
0.00046860350144 0.0004663922607 0.00046419132008 0.00046200153744 0.00045982364924 0.00045765753099 0.00045550430805 0.0004533639148 0.00045123703396 
0.0004491230885 0.00044702290062 0.00044493607049 0.00044286269678 0.00044080308532 0.00043875679412 0.0004367246467 0.00043470633014 0.00043270178117 
0.00043071163624 0.00042873612513 0.00042677445199 0.00042482711107 0.00042289493779 0.00042097653066 0.00041907205176 0.00041718247411 0.00041530614718 
0.00041344258278 0.00041159247515 0.00040975469135 0.00040792924404 0.00040611574449 0.0004043141091 0.00040252417519 0.0004007463274 0.00039897902128 
0.00039722315654 0.00039547872148 0.00039374493477 0.00049141542682 0.00048915827715 0.000486901637 0.00048464654916 0.00048239476594 0.00048014641722 
0.00047790169874 0.0004756628252 0.00047343072878 0.00047120575395 0.00046898916874 0.00046678163678 0.00046458291901 0.00046239500709 0.00046021764347 
0.0004580519253 0.00045589804 0.00045375693944 0.00045162810653 0.00044951200244 0.00044740972526 0.00044532034683 0.00044324461293 0.00044118176833 
0.0004391325624 0.00043709674759 0.00043507518131 0.00043306771193 0.00043107380516 0.00042909363338 0.00042712815934 0.0004251769323 0.00042323936452 
0.00042131729404 0.00041940914408 0.00041751456913 0.0004156342759 0.00041376721268 0.00041191419928 0.00041007381268 0.00040824661951 0.00040643184471 
0.00040462961904 0.00040283932229 0.00040106098294 0.00039929390147 0.00039753771072 0.00039579293388 0.00039405910846 0.00039233600548 0.0004895892057 
0.00048734358261 0.00048509809643 0.00048285511329 0.00048061397649 0.00047837658425 0.00047614517142 0.00047391812056 0.00047169821039 0.00046948552573 
0.00046728137169 0.00046508625994 0.00046289999388 0.00046072427092 0.00045855890136 0.0004564049791 0.00045426260163 0.00045213206377 0.00045001469097 
0.00044790945567 0.00044581754085 0.00044373899966 0.00044167366839 0.00043962130014 0.00043758180182 0.00043555676102 0.00043354536195 0.00043154770913 
0.0004295640258 0.00042759410395 0.0004256381871 0.00042369676711 0.00042177004968 0.00041985694293 0.00041795874608 0.00041607385814 0.00041420286205 
0.00041234593796 0.00041050242383 0.00040867247198 0.00040685523072 0.00040505178362 0.00040325981293 0.0004014808351 0.00039971258286 0.0003979563315 
0.00039621095465 0.00039447684648 0.00039275349518 0.00039104052013 0.00048789088675 0.00048565626679 0.00048342297493 0.00048119045609 0.00047896067686 
0.00047673468001 0.00047451549804 0.00047230049963 0.0004700924793 0.00046789141904 0.00046569889466 0.00046351529816 0.00046134123833 0.00045917714008 
0.00045702341063 0.00045488061812 0.00045274918643 0.00045062980105 0.00044852260916 0.00044642778466 0.00044434573404 0.00044227696629 0.00044022148929 
0.00043817936174 0.00043614996342 0.00043413465069 0.00043213266599 0.00043014493658 0.00042817071673 0.0004262101187 0.00042426484502 0.00042233312522 
0.00042041527818 0.00041851167309 0.00041662229027 0.00041474746509 0.00041288646411 0.00041103938566 0.0004092060182 0.00040738600763 0.00040557997609 
0.00040378617886 0.0004020052478 0.00040023660131 0.00039847947958 0.00039673395999 0.00039499929615 0.00039327522113 0.00039156181052 0.00038985848954 
0.00048631983943 0.00048409719311 0.00048187411262 0.00047965282638 0.00047743375526 0.00047521946451 0.00047301013442 0.00047080812989 0.00046861182691 
0.00046642247798 0.00046424170059 0.00046206943792 0.00045990663858 0.00045775359922 0.00045561076759 0.00045347880682 0.0004513573189 0.00044924801595 
0.00044715064786 0.00044506549231 0.00044299296061 0.00044093370186 0.00043888723521 0.0004368542187 0.0004348346849 0.00043282825284 0.00043083582192 
0.0004288572275 0.00042689291929 0.00042494275566 0.00042300602142 0.00042108377864 0.00041917540611 0.00041728153265 0.00041540143815 0.00041353616124 
0.00041168497872 0.00040984760503 0.00040802417884 0.00040621536363 0.00040441897753 0.00040263594462 0.00040086527239 0.0003991069578 0.00039736071287 
0.00039562574639 0.00039390137315 0.00039218725854 0.00039048358035 0.00038878940683 0.00048487670199 0.00048266434348 0.00048045204089 0.00047824175061 
0.00047603406526 0.00047383065601 0.00047163277298 0.00046944197136 0.00046725691331 0.00046507882961 0.00046290930961 0.0004607479546 0.00045859605463 
0.00045645338156 0.00045432082431 0.00045219876715 0.00045008758717 0.00044798744369 0.00044589912741 0.00044382305137 0.00044175957385 0.00043970895017 
0.00043767118716 0.00043564696179 0.00043363615899 0.00043163898483 0.00042965610334 0.00042768627681 0.00042573072215 0.00042378918443 0.00042186194693 
0.00041994867177 0.00041804934803 0.00041616506773 0.00041429462084 0.00041243869766 0.00041059744649 0.00040876999556 0.00040695748932 0.00040515823351 
0.0004033724463 0.00040159974386 0.00039984007573 0.00039809203636 0.00039635615409 0.00039463157383 0.00039291748983 0.00039121306593 0.00038951850727 
0.00038783307323 0.0004835595828 0.00048135762215 0.00047915617937 0.00047695671138 0.00047476020389 0.0004725683613 0.00047038124618 0.00046820007403 
0.00046602685639 0.00046385989715 0.00046170092774 0.0004595503562 0.00045740857027 0.0004552761072 0.00045315331274 0.00045104061011 0.00044893883316 
0.00044684731021 0.00044476735644 0.0004426999224 0.00044064474616 0.00043860207595 0.00043657249984 0.00043455586141 0.00043255415772 0.00043056526827 
0.0004285903431 0.00042662954962 0.00042468275259 0.00042275000654 0.00042083145895 0.00041892714118 0.00041703734767 0.00041516202334 0.00041330154694 
0.00041145516026 0.0004096234428 0.00040780709537 0.00040600435186 0.00040421540073 0.00040244051555 0.00040067854735 0.00039892935221 0.00039719223645 
0.00039546671112 0.00039375197037 0.00039204747208 0.00039035262079 0.00038866686974 0.00038698999382 0.00048236860497 0.00048017757008 0.00047798674805 
0.00047579784843 0.00047361227262 0.00047143127635 0.00046925533491 0.00046708494615 0.00046492250496 0.0004627658962 0.0004606171905 0.00045847678284 
0.00045634476377 0.00045422165707 0.00045210811108 0.00045000439663 0.0004479105572 0.00044582728917 0.00044375534555 0.00044169520486 0.00043964751361 
0.00043761258054 0.0004355913334 0.00043358240927 0.00043158717967 0.00042960617651 0.0004276400233 0.00042568715621 0.00042374881455 0.00042182474603 
0.00041991499171 0.00041801981417 0.00041613902926 0.00041427301336 0.00041242254852 0.00041058587 0.00040876469133 0.0004069582177 0.00040516562884 
0.00040338755095 0.00040162303849 0.00039987186701 0.00039813366386 0.00039640697186 0.00039469221256 0.00039298745609 0.00039129224998 0.00038960589778 
0.00038792879589 0.00038625977491 0.0004813047079 0.00047912333083 0.00047694282796 0.00047476514775 0.00047258995197 0.00047041981844 0.0004682544706 
0.00046609510623 0.00046394191392 0.00046179658702 0.0004596577833 0.00045752691099 0.00045540458294 0.00045329024295 0.00045118529275 0.00044908957349 
0.0004470026147 0.00044492691164 0.00044286242475 0.00044080908172 0.00043876876522 0.00043674081902 0.00043472552235 0.00043272360141 0.00043073583846 
0.00042876260754 0.00042680377106 0.00042485905254 0.00042292887629 0.0004210130415 0.00041911211468 0.000417225686 0.00041535426715 0.000413497643 
0.00041165649091 0.00040983076333 0.00040801951086 0.00040622279128 0.00040444148876 0.00040267404001 0.00040092052971 0.00039918034364 0.00039745297525 
0.00039573712516 0.00039403188094 0.00039233689854 0.00039065091859 0.00038897354054 0.00038730433123 0.00038564305748 0.00048036626184 0.00047819507409 
0.00047602493915 0.00047385687984 0.00047169307702 0.00046953344133 0.00046737890498 0.00046523005757 0.00046308722987 0.00046095125213 0.00045882205398 
0.00045670041157 0.00045458660198 0.00045248078746 0.00045038327779 0.00044829436571 0.00044621466662 0.00044414578107 0.00044208818142 0.00044004115966 
0.0004380061923 0.00043598395881 0.00043397517871 0.0004319797733 0.00042999884465 0.00042803283924 0.00042608114041 0.00042414446356 0.00042222209214 
0.000420314588 0.00041842212573 0.00041654448063 0.00041468213365 0.00041283535091 0.00041100446906 0.00040918845579 0.00040738759985 0.00040560172942 
0.00040383069117 0.00040207466908 0.00040033228717 0.00039860323666 0.0003968862854 0.00039518095139 0.00039348605942 0.00039180061181 0.00039012392408 
0.00038845495545 0.00038679380369 0.00038513985199 0.00047955215506 0.00047739059415 0.00047523047518 0.00047307304365 0.00047091925454 0.00046877058625 
0.00046662655036 0.00046448777775 0.00046235499533 0.00046022761163 0.00045810828752 0.00045599538178 0.00045388955767 0.00045179109589 0.00044970054683 
0.00044761877533 0.00044554596915 0.00044348259273 0.00044142979008 0.00043938805892 0.00043735840303 0.00043534182456 0.00043333872619 0.00043134944104 
0.00042937508804 0.00042741550984 0.00042547053907 0.00042354092162 0.00042162661308 0.00041972696052 0.00041784311511 0.00041597424142 0.00041412128115 
0.00041228480954 0.00041046314613 0.00040865723975 0.00040686750417 0.0004050926459 0.00040333270387 0.00040158814606 0.00039985686915 0.00039813881289 
0.00039643290895 0.00039473797388 0.00039305294061 0.000391377198 0.00038970915584 0.00038804847039 0.00038639449731 0.00038474752385 0.00047885879998 
0.00047670696043 0.000474557036 0.00047240940866 0.00047026627286 0.00046812756523 0.00046599346171 0.00046386521622 0.00046174176553 0.00045962399237 
0.00045751359779 0.00045540843091 0.00045331024804 0.00045121933772 0.00044913440199 0.0004470583118 0.00044499080199 0.00044293248518 0.00044088411966 
0.00043884741728 0.00043682287856 0.00043481144575 0.0004328130675 0.00043082974603 0.00042886101577 0.00042690756955 0.00042496924386 0.00042304642743 
0.00042113921682 0.00041924773083 0.00041737213394 0.00041551218895 0.00041366938837 0.00041184156826 0.0004100301266 0.00040823498698 0.00040645567585 
0.00040469258551 0.00040294417591 0.00040121057861 0.00039949103459 0.0003977843052 0.00039608900828 0.00039440458735 0.00039272935102 0.00039106275479 