# vtk DataFile Version 5.1
vtk output
ASCII
DATASET STRUCTURED_POINTS
DIMENSIONS 20 20 40
SPACING 0.05 0.05 0.05
ORIGIN 3.225 -0.475 0.525
POINT_DATA 16000
FIELD FieldData 3
potential 1 16000 double
0.38841809319 0.38839409996 0.3883801489 0.38837632479 0.3883799974 0.38839061088 0.38840688117 0.38842673296 0.38844760897 
0.38846699487 0.38848213984 0.38849125691 0.38849186939 0.38848306164 0.38846393661 0.38843489786 0.38839718993 0.38835307326 
0.38830581553 0.38825913207 0.37010936839 0.37008509762 0.37007023064 0.37006481292 0.37006534076 0.37007341121 0.37008731715 
0.37010484959 0.37012368747 0.37014148464 0.37015571388 0.37016493427 0.37016658056 0.3701595651 0.37014328339 0.37011812751 
0.37008473319 0.37004530605 0.37000284215 0.36996049239 0.35326125508 0.35323766896 0.35322262818 0.35321626649 0.35321363757 
0.35321892451 0.35322995498 0.35324442969 0.3532604903 0.35327606445 0.35328863698 0.35329681695 0.3532984455 0.35329284228 
0.35327902327 0.3532573146 0.35322832827 0.35319383262 0.35315645528 0.35311899606 0.33817873956 0.33815704299 0.33814260321 
0.33813573423 0.33812986032 0.3381325159 0.33814035923 0.33815159737 0.33816419423 0.33817678885 0.33818708064 0.33819369255 
0.33819500123 0.33819004482 0.33817824428 0.33815962158 0.33813477634 0.33810511987 0.33807271113 0.33804028489 0.32508830519 
0.32506893606 0.32505580818 0.32504886265 0.32504019237 0.32504025666 0.32504491916 0.32505261101 0.32506176853 0.3250709797 
0.32507862439 0.3250833185 0.32508391257 0.32507927156 0.32506882065 0.32505292541 0.32503192362 0.32500694042 0.32497943828 
0.32495179585 0.31414293068 0.31412635026 0.31411472246 0.31410808563 0.31409686329 0.31409457521 0.31409611742 0.31410045796 
0.31410608174 0.31411191718 0.31411698051 0.31411966261 0.3141190335 0.31411452025 0.31410567971 0.31409204146 0.31407437876 
0.31405357214 0.31403051333 0.31400742166 0.30543516456 0.30542147653 0.30541143409 0.30540523386 0.30539201664 0.30538753372 
0.30538629122 0.30538737148 0.3053896244 0.30539259755 0.30539497322 0.30539564491 0.30539399703 0.30538960174 0.30538167258 
0.30537023332 0.30535584552 0.30533889911 0.30532033195 0.3053008373 0.29901369042 0.2990027995 0.29899446126 0.29898908042 
0.29897361703 0.29896735171 0.29896337901 0.29896160561 0.2989609486 0.29896089014 0.29896089096 0.29896002408 0.29895755742 
0.29895317503 0.29894635313 0.29893702967 0.2989253752 0.29891192346 0.2988969291 0.29888104583 0.29489943756 0.29489121049 
0.2948847732 0.29487988092 0.2948622306 0.29485441943 0.29484810294 0.29484341325 0.29484007138 0.29483758063 0.29483538906 
0.29483301958 0.2948301922 0.29482589106 0.29482027523 0.29481315786 0.29480421759 0.29479395879 0.29478203058 0.29476956067 
0.29309936761 0.29309367832 0.29308874869 0.29308452473 0.29306491225 0.29305521991 0.2930466121 0.29303942554 0.29303370232 
0.29302893283 0.29302495436 0.29302135199 0.29301805503 0.29301448522 0.29301025052 0.29300543216 0.29299942222 0.29299208779 
0.29298348743 0.29297376732 0.29361642169 0.29361314182 0.29360957151 0.29360607859 0.29358407135 0.29357251262 0.29356174183 
0.29355222295 0.29354412968 0.29353720307 0.29353165536 0.29352745103 0.29352401428 0.29352124853 0.29351864106 0.29351604734 
0.29351312033 0.29350887797 0.29350354743 0.29349674988 0.29645189264 0.29645066355 0.29644831278 0.29644553901 0.29642527916 
0.29640998074 0.29639572269 0.29638270502 0.29637148641 0.29636210901 0.29635508401 0.29635022868 0.29634704876 0.29634565768 
0.29634550792 0.29634590832 0.29634631852 0.29634594323 0.29634438643 0.29634088544 0.30161355196 0.30161348199 0.30161169802 
0.30160865485 0.3015906674 0.30157423213 0.30155836394 0.30154358159 0.30153075013 0.30152016218 0.30151236375 0.30150755159 
0.30150569262 0.30150605338 0.30150868159 0.30151265642 0.30151682942 0.30152056011 0.30152273916 0.30152280353 0.30910041615 
0.30910149442 0.30910031013 0.30909677592 0.30908103877 0.30906335855 0.30904569691 0.30902911645 0.30901421508 0.30900245186 
0.30899424412 0.30898969557 0.30898884809 0.30899157393 0.30899715541 0.30900493348 0.30901332555 0.3090213144 0.30902767098 
0.30903131059 0.31889837246 0.31890092773 0.31890019975 0.31889616395 0.31888241517 0.31886330743 0.31884364973 0.3188247092 
0.31880834741 0.31879504897 0.31878596043 0.31878181602 0.31878256155 0.31878763115 0.31879653628 0.31880839789 0.31882118336 
0.31883379505 0.31884431668 0.31885164944 0.33096513857 0.33096898266 0.33096874162 0.33096432224 0.33095229315 0.33093169046 
0.33091023694 0.33088920327 0.33087077903 0.3308558627 0.33084631294 0.3308423884 0.3308443317 0.33085220778 0.33086460809 
0.33088040373 0.33089778872 0.3309149426 0.33092983043 0.33094093583 0.34521277634 0.34521806436 0.34521854909 0.34521411912 
0.34520374449 0.34518204006 0.34515865222 0.34513557018 0.34511514927 0.34509911281 0.34508873187 0.34508518221 0.34508877897 
0.34509861824 0.3451143702 0.34513414491 0.34515561784 0.34517710972 0.34519609134 0.34521051072 0.36149310992 0.36150028515 
0.36150167347 0.36149725493 0.36148900845 0.36146618755 0.36144144146 0.36141665439 0.36139463079 0.36137735565 0.36136650888 
0.36136327257 0.36136780434 0.36137995965 0.36139839319 0.36142139377 0.36144667474 0.36147167159 0.36149401963 0.36151131509 
0.37958479802 0.37959357789 0.37959606847 0.37959200859 0.37958606107 0.37956315365 0.37953755793 0.37951174659 0.37948860458 
0.37947044306 0.37945933223 0.37945627864 0.37946185371 0.37947540516 0.37949601341 0.37952137613 0.37954937933 0.37957720562 
0.37960189718 0.37962076698 0.39918737243 0.39919808663 0.39920177653 0.39919869524 0.39919563392 0.39917297416 0.39914737144 
0.39912145309 0.39909790669 0.39907943441 0.39906807933 0.39906550157 0.39907161484 0.39908608599 0.39910783829 0.39913461658 
0.39916384225 0.39919284335 0.3992184457 0.39923796859 0.38920156147 0.3891825539 0.38917077117 0.38916584756 0.38916686628 
0.38917090721 0.38917925078 0.38919009227 0.38920160491 0.38921175887 0.38921892868 0.38922133345 0.38921784767 0.38920729278 
0.38918952041 0.38916477824 0.38913399084 0.38909885084 0.38906166033 0.38902460741 0.37336951743 0.37335046732 0.37333811973 
0.37333246755 0.37333086838 0.37333338613 0.3733401588 0.37334961476 0.37335975593 0.37336896859 0.37337572068 0.37337832144 
0.37337561563 0.37336648178 0.37335076106 0.37332852672 0.37330069509 0.37326887773 0.37323478351 0.37320070121 0.35873803119 
0.3587196572 0.35870735406 0.358701112 0.35869691401 0.3586978537 0.35870273226 0.3587101103 0.35871850832 0.3587262437 
0.35873196751 0.35873414887 0.35873165587 0.3587235963 0.35870975331 0.35869001496 0.35866530839 0.35863674838 0.35860615679 
0.35857531974 0.34557657593 0.3455595724 0.34554787162 0.34554134352 0.34553474065 0.34553387988 0.34553666217 0.34554166852 
0.34554783824 0.34555375814 0.34555818725 0.34555959994 0.34555689839 0.34554960817 0.34553731854 0.34551989691 0.34549814099 
0.34547303144 0.34544597461 0.34541844326 0.33409690942 0.33408167184 0.33407083855 0.33406441769 0.33405560202 0.33405285829 
0.33405347159 0.33405621774 0.33406002345 0.33406381043 0.33406643381 0.33406677237 0.33406378973 0.33405689413 0.33404591418 
0.33403062134 0.33401177194 0.3339899545 0.33396624814 0.3339421744 0.32445478771 0.32444155622 0.32443183003 0.32442561561 
0.32441503947 0.32441064908 0.32440894802 0.32440938099 0.32441105231 0.32441252303 0.32441327401 0.32441227102 0.32440887695 
0.32440233974 0.32439232866 0.32437905036 0.3243628179 0.32434399528 0.32432369023 0.32430279959 0.31675768045 0.3167465812 
0.31673813066 0.31673249854 0.31671996711 0.31671418822 0.31671044431 0.3167085471 0.31670796298 0.31670721028 0.31670619858 
0.31670408809 0.31670007363 0.31669382688 0.31668501832 0.31667330943 0.31665938852 0.31664336081 0.31662609372 0.31660815969 
0.31107464439 0.31106587446 0.31105885589 0.31105379797 0.31103950774 0.31103225792 0.31102679356 0.31102270085 0.3110197783 
0.31101727693 0.31101473238 0.31101129358 0.31100684228 0.31100077075 0.3109927774 0.31098278587 0.3109712039 0.31095793357 
0.31094343937 0.31092812713 0.30744720766 0.30744059784 0.30743499829 0.30743086466 0.3074147037 0.30740602091 0.30739880653 
0.30739294185 0.30738781225 0.30738366038 0.30737942296 0.30737525192 0.30737035376 0.30736463248 0.30735779311 0.30734944483 
0.30733976421 0.30732899209 0.30731710896 0.30730421847 0.30589852565 0.3058938732 0.30588980989 0.30588638154 0.30586824896 
0.30585831881 0.30584950406 0.30584162369 0.30583465589 0.30582870615 0.30582334366 0.30581833653 0.30581326543 0.30580797533 
0.30580227974 0.30579586727 0.30578826683 0.3057798867 0.3057704044 0.3057599333 0.3064398897 0.30643728507 0.30643467042 
0.30643171876 0.30641172568 0.30640044676 0.3063900439 0.30638037051 0.30637155995 0.3063640303 0.30635761508 0.30635181542 
0.30634690091 0.30634230819 0.30633794586 0.30633327403 0.30632819176 0.30632206236 0.30631504022 0.30630677736 0.309072155 
0.30907122952 0.30907000886 0.30906799346 0.30905069417 0.3090362672 0.30902271263 0.30901017787 0.30899900297 0.30898940446 
0.30898165212 0.30897547435 0.30897073127 0.3089672919 0.30896467238 0.30896237056 0.30895999629 0.30895688677 0.30895256361 
0.30894677979 0.31379440972 0.31379484648 0.31379380299 0.31379179819 0.31377728436 0.31376226227 0.31374754352 0.31373401919 
0.31372186062 0.31371155885 0.31370322424 0.31369741446 0.31369359405 0.31369159156 0.31369110472 0.31369133023 0.31369194855 
0.31369185804 0.31369054475 0.31368726157 0.320589294 0.3205907916 0.32059029025 0.32058814191 0.32057605356 0.32056039712 
0.32054452005 0.32052965906 0.32051668621 0.32050557173 0.3204968968 0.32049154282 0.32048873847 0.32048842105 0.3204902312 
0.32049336672 0.32049687529 0.32050004801 0.32050169458 0.32050100417 0.32942167923 0.32942421291 0.32942424216 0.32942188816 
0.32941225218 0.32939577631 0.32937908633 0.32936293308 0.32934859333 0.32933667239 0.32932805582 0.32932285784 0.32932102471 
0.32932257612 0.3293268309 0.32933298824 0.3293397736 0.32934600271 0.32935080493 0.32935286338 0.34022850682 0.34023229929 
0.34023296362 0.34023058713 0.34022285536 0.3402057228 0.34018793272 0.34017074856 0.34015537589 0.34014267268 0.34013353302 
0.34012875974 0.34012815076 0.34013155329 0.34013807664 0.34014716974 0.3401569461 0.34016646491 0.34017436 0.34017882655 
0.35290836048 0.3529134065 0.35291458706 0.35291217648 0.3529066763 0.35288886413 0.35287014508 0.35285196269 0.35283547181 
0.35282207411 0.35281287536 0.35280825671 0.35280863536 0.35281378828 0.35282279006 0.35283437224 0.35284701999 0.35285946631 
0.3528699105 0.35287660036 0.36731040285 0.36731679609 0.36731887039 0.36731677524 0.36731330922 0.36729534527 0.36727591205 
0.36725676877 0.36723952624 0.36722558592 0.36721619916 0.36721198672 0.36721340597 0.36721988874 0.3672306127 0.36724459775 
0.36725976936 0.36727454867 0.36728718272 0.36729564716 0.383229466 0.38323730314 0.38324026498 0.38323845186 0.38323756358 
0.38321964986 0.38319992425 0.38318034988 0.38316261181 0.38314832716 0.38313876316 0.38313501388 0.38313710493 0.38314462928 
0.38315669143 0.38317218381 0.38318917979 0.38320562343 0.38321977615 0.38322938555 0.40040259441 0.40041165914 0.40041558477 
0.40041465 0.40041640494 0.40039888284 0.40037945176 0.40035978953 0.40034202401 0.40032768493 0.4003181908 0.40031462202 
0.40031712294 0.40032547375 0.40033832416 0.40035462171 0.4003723931 0.40038956499 0.40040438607 0.40041433863 0.38909428934 
0.38907924244 0.38906903043 0.38906388447 0.38906279879 0.38906233936 0.38906494611 0.3890692324 0.38907377569 0.38907737472 
0.38907880608 0.38907670925 0.38907019292 0.38905874628 0.38904196004 0.3890202801 0.3889945221 0.38896565736 0.38893521367 
0.38890495759 0.37541359911 0.37539861266 0.37538824554 0.37538257633 0.37537961119 0.37537824682 0.37537982505 0.37538310372 
0.37538696197 0.37539003192 0.37539125287 0.37538930261 0.37538335622 0.37537297871 0.37535760492 0.37533773372 0.37531393369 
0.37528715213 0.37525890654 0.37523064909 0.36272911073 0.36271475132 0.36270451814 0.3626985501 0.36269371185 0.36269106922 
0.36269139682 0.36269356292 0.36269628413 0.36269847358 0.36269897388 0.36269692117 0.36269145156 0.36268180979 0.36266781132 
0.36264978264 0.36262807929 0.36260366402 0.36257777014 0.36255170133 0.35127872471 0.35126523398 0.35125549026 0.35124935943 
0.35124275803 0.35123899223 0.35123790387 0.35123844311 0.35123978814 0.35124069712 0.35124045151 0.35123800171 0.35123240782 
0.35122351852 0.35121085523 0.35119448983 0.35117493339 0.35115294609 0.35112943887 0.35110575409 0.3412560851 0.34124397127 
0.34123486172 0.34122888346 0.34122043235 0.34121550684 0.34121285202 0.34121185272 0.34121167903 0.34121122971 0.3412100153 
0.34120688386 0.3412011345 0.34119268261 0.34118106842 0.34116637722 0.34114884624 0.34112916701 0.34110822393 0.34108683263 
0.33281219399 0.33280163729 0.33279335786 0.33278784738 0.33277773538 0.33277168777 0.33276761665 0.33276498493 0.33276313002 
0.33276126786 0.33275871804 0.33275495781 0.33274922336 0.33274098767 0.33273023373 0.33271703353 0.33270144354 0.33268411356 
0.33266542922 0.33264621383 0.32605910443 0.32605030998 0.32604307412 0.32603812693 0.32602635852 0.32601921209 0.32601370606 
0.32600946333 0.32600603707 0.32600280664 0.32599900268 0.32599440164 0.32598847386 0.32598060052 0.32597065419 0.32595883868 
0.3259450518 0.32592979524 0.32591337729 0.32589629471 0.32107548918 0.32106832784 0.32106249545 0.32105825748 0.32104476364 
0.32103663572 0.32102971521 0.32102403586 0.32101910816 0.32101435935 0.32100951841 0.32100421029 0.32099799236 0.3209904411 
0.3209814191 0.32097081601 0.32095871807 0.32094535038 0.320930994 0.3209159997 0.3179136706 0.31790837364 0.31790381219 
0.31790015107 0.31788524529 0.31787598511 0.31786790991 0.31786072716 0.31785434264 0.31784824304 0.31784254027 0.31783657158 
0.31783002877 0.3178228656 0.31781473287 0.31780541917 0.31779498963 0.31778359463 0.31777129881 0.31775808397 0.31660596575 
0.31660250158 0.31659916508 0.31659628153 0.31657962681 0.31656940394 0.31656023395 0.31655176296 0.31654374304 0.31653654042 
0.31652996671 0.3165234381 0.31651683552 0.31651014008 0.31650295022 0.31649492337 0.31648610596 0.31647656171 0.31646615405 
0.31645465186 0.31716881676 0.31716701978 0.31716494961 0.31716270899 0.31714449559 0.31713330227 0.31712282686 0.31711294606 
0.31710363009 0.31709527137 0.31708787885 0.31708100393 0.31707444141 0.3170681941 0.31706202636 0.3170554538 0.31704832222 
0.3170407064 0.31703211689 0.31702223776 0.31960242963 0.31960221184 0.31960129665 0.31960014881 0.31958535262 0.31957157501 
0.31955829953 0.31954612954 0.31953485423 0.31952498119 0.31951631615 0.3195090457 0.31950269205 0.31949738984 0.31949238732 
0.31948772358 0.31948278883 0.31947736604 0.31947081163 0.31946304779 0.32390122713 0.32390194965 0.3239016676 0.32390042535 
0.32388866408 0.32387456097 0.32386081249 0.32384774249 0.32383603579 0.32382569329 0.3238169363 0.32380982427 0.32380435265 
0.32380024951 0.32379699832 0.32379419773 0.32379161661 0.32378832278 0.32378398916 0.32377800161 0.33003803666 0.33003964696 
0.33003986899 0.33003857434 0.33002955594 0.33001516745 0.33000092858 0.32998724618 0.32997488718 0.3299640382 0.32995530891 
0.32994847447 0.32994382151 0.32994108629 0.32993958407 0.3299390016 0.32993867643 0.32993774763 0.3299355112 0.32993142362 
0.33796652252 0.33796922726 0.33796990443 0.33796880449 0.33796209304 0.33794746324 0.33793258618 0.33791838784 0.33790548735 
0.33789427286 0.33788541822 0.33787910407 0.33787531763 0.33787390531 0.33787411942 0.33787561925 0.33787764283 0.33787899461 
0.33787911325 0.33787676559 0.34761426763 0.34761793823 0.34761912344 0.34761810885 0.3476138763 0.34759903643 0.3475837062 
0.34756893064 0.34755538584 0.34754389346 0.34753499896 0.34752907498 0.34752602553 0.34752580934 0.34752795014 0.34753150119 
0.34753564673 0.34753927659 0.34754136636 0.34754083867 0.35887537013 0.35888018789 0.35888206932 0.3588811949 0.3588791499 
0.3588642407 0.35884860382 0.3588332533 0.35881928463 0.35880739667 0.35879839604 0.35879284928 0.35879063029 0.35879168274 
0.35879528961 0.35880082071 0.35880694061 0.3588126025 0.35881643207 0.3588174373 0.37160516518 0.37161094925 0.37161348579 
0.37161275984 0.37161315202 0.37159822223 0.37158240599 0.37156673604 0.37155237128 0.37154038213 0.37153147159 0.37152623107 
0.37152467316 0.37152677462 0.37153174568 0.37153864351 0.3715464237 0.37155366367 0.37155901016 0.3715611308 0.38561602841 
0.38562283929 0.38562607347 0.38562591402 0.38562879228 0.38561389135 0.38559799405 0.38558218461 0.38556772734 0.38555557925 
0.38554682947 0.38554194044 0.38554099367 0.38554389245 0.38554979032 0.38555775269 0.38556667659 0.38557506681 0.38558123294 
0.38558413064 0.40067746815 0.40068538107 0.40068961396 0.40068990539 0.40069525111 0.40068094608 0.40066530133 0.40064967025 
0.40063523835 0.40062315398 0.4006146165 0.40060986035 0.40060937458 0.40061262391 0.40061904703 0.40062767613 0.40063700456 
0.40064580042 0.40065233902 0.40065544795 0.38825834602 0.38824624643 0.38823756321 0.38823220623 0.38823003746 0.38822622642 
0.38822455 0.38822396272 0.38822358997 0.38822262878 0.38821985732 0.38821449568 0.3882058704 0.38819372837 0.38817779847 
0.38815836834 0.38813591032 0.38811132359 0.38808560998 0.38805988946 0.37645036537 0.37643843225 0.37642972156 0.37642417296 
0.3764205233 0.37641611565 0.37641386321 0.3764127284 0.37641189868 0.37641050579 0.37640771434 0.37640251712 0.37639438853 
0.37638297788 0.37636804326 0.37634986572 0.37632883383 0.37630569572 0.37628131802 0.37625690428 0.36547536103 0.36546389934 
0.3654553264 0.36544961692 0.36544456159 0.36543944523 0.36543634442 0.36543446086 0.36543295794 0.36543101926 0.36542782094 
0.36542256047 0.36541478112 0.36540412322 0.36539016504 0.36537317305 0.36535361895 0.36533206325 0.36530931019 0.36528647185 
0.35554238098 0.35553166668 0.35552343565 0.35551780247 0.35551121199 0.35550532077 0.35550125679 0.35549837383 0.35549599427 
0.35549341318 0.35548960933 0.35548413974 0.35547662005 0.3554664311 0.35545340676 0.35543770263 0.35541964734 0.35539981136 
0.35537877805 0.35535757641 0.34682714391 0.34681733811 0.34680962014 0.34680431638 0.34679625794 0.34678953377 0.34678450134 
0.34678061628 0.34677717196 0.34677362802 0.34676924086 0.34676351781 0.34675587722 0.34674611696 0.34673401808 0.34671948144 
0.34670293492 0.34668470877 0.34666544187 0.34664577748 0.33947137321 0.33946281761 0.33945594806 0.3394509539 0.33944136016 
0.33943391462 0.33942792892 0.3394228888 0.33941835258 0.33941381 0.3394087579 0.339402577 0.3393948714 0.33938544277 
0.33937405007 0.33936064962 0.33934555456 0.33932899518 0.33931134303 0.33929327918 0.33358508294 0.33357792361 0.33357215607 
0.33356773637 0.33355666348 0.33354832908 0.33354138773 0.33353534689 0.33352962068 0.33352416152 0.33351826662 0.33351161919 
0.33350392635 0.33349473318 0.33348398592 0.33347166098 0.33345793761 0.33344293274 0.33342695791 0.33341041972 0.32924999322 
0.32924437663 0.32923959908 0.32923569239 0.32922328076 0.32921420792 0.32920630426 0.32919910052 0.32919244994 0.32918590593 
0.32917934149 0.32917209806 0.32916440403 0.32915560042 0.32914546773 0.32913418819 0.32912171718 0.32910811019 0.32909375474 
0.32907879322 0.32652313873 0.32651894376 0.32651521013 0.32651195919 0.32649809311 0.32648848397 0.32647958867 0.32647135781 
0.32646366546 0.3264561912 0.32644877067 0.32644133818 0.32643347302 0.32642494434 0.32641557627 0.32640534633 0.32639407108 
0.32638194329 0.32636894468 0.32635537852 0.32544085666 0.32543815128 0.32543545857 0.32543298172 0.32541776105 0.325407414 
0.32539754842 0.32538830622 0.32537968179 0.325371364 0.32536328084 0.32535551827 0.32534760332 0.32533943327 0.32533074777 
0.32532147369 0.32531154063 0.32530083418 0.32528932469 0.32527692722 0.32602226461 0.3260210569 0.32601947087 0.32601765908 
0.32600100414 0.32598999127 0.32597933176 0.32596907335 0.32595937467 0.32595027218 0.32594169502 0.32593351756 0.32592571857 
0.32591792428 0.32590999786 0.32590174049 0.3258931171 0.32588378437 0.32587372611 0.32586250229 0.32826734526 0.32826747161 
0.32826711599 0.32826631697 0.32825370628 0.32824021164 0.32822725742 0.32821493408 0.32820351619 0.32819306763 0.32818374404 
0.32817525702 0.32816757517 0.32816039851 0.32815360075 0.32814668675 0.32813960227 0.32813210954 0.32812371831 0.32811395079 
0.33216797917 0.33216898673 0.33216905692 0.33216844973 0.33215887162 0.33214533975 0.33213220854 0.33211956064 0.33210772959 
0.3320971727 0.3320878275 0.33207973011 0.33207265583 0.33206649884 0.33206095968 0.33205567751 0.33205022743 0.33204440219 
0.33203749118 0.33202919317 0.33769209042 0.33769399278 0.33769450559 0.33769410755 0.33768725199 0.33767377212 0.33766035989 
0.33764739509 0.33763548138 0.33762475958 0.33761533883 0.33760756744 0.33760119373 0.33759608411 0.33759188356 0.33758815395 
0.33758446506 0.33758037112 0.33757505327 0.33756814231 0.34478880075 0.3447914672 0.34479258042 0.34479223469 0.34478812973 
0.34477449095 0.34476090169 0.34474782529 0.34473561153 0.34472473435 0.34471549897 0.34470800463 0.34470224661 0.34469816159 
0.34469542488 0.34469317447 0.34469119072 0.3446887151 0.34468495092 0.34467935865 0.3533827133 0.35338625107 0.35338785725 
0.35338785036 0.35338600647 0.35337249633 0.35335878673 0.35334548602 0.3533329755 0.35332202864 0.3533128618 0.35330573817 
0.35330070996 0.35329761184 0.35329596721 0.35329542407 0.35329507151 0.35329403786 0.35329167394 0.35328724446 0.36336984083 
0.36337426874 0.36337638516 0.36337645796 0.36337728248 0.36336391294 0.36335017719 0.36333662658 0.36332396136 0.36331290809 
0.36330393319 0.3632971522 0.36329274944 0.36329044197 0.36328999032 0.36329071408 0.36329182079 0.36329215024 0.36329104022 
0.36328761921 0.37461475717 0.374620055 0.37462284226 0.37462324207 0.37462645413 0.37461324934 0.37459951545 0.3745858918 
0.37457316942 0.37456207779 0.37455322214 0.37454677552 0.37454285877 0.37454145169 0.37454194557 0.37454367683 0.37454577064 
0.37454739376 0.37454714916 0.3745444563 0.3869484065 0.38695461941 0.38695811681 0.38695889558 0.38696446106 0.38695156739 
0.38693798682 0.38692449418 0.38691180586 0.3869008358 0.3868919562 0.38688585498 0.38688242258 0.38688148435 0.38688273409 
0.38688520648 0.3868880226 0.38689016142 0.38689069511 0.38688842688 0.4001694242 0.40017644092 0.40018058051 0.40018184555 
0.40018969462 0.40017725911 0.40016393453 0.4001505726 0.40013805382 0.40012730648 0.40011867624 0.40011279469 0.40010956816 
0.40010898389 0.40011056326 0.40011339957 0.40011659673 0.40011905116 0.40011960541 0.40011733787 0.3868214671 0.38681175008 
0.38680413927 0.38679874042 0.38679609695 0.38678988305 0.38678497096 0.38678096825 0.38677703149 0.38677247189 0.38676667074 
0.38675902016 0.38674896192 0.38673630618 0.3867208533 0.38670287065 0.38668278568 0.38666105823 0.38663856906 0.38661598387 
0.37664641208 0.3766368516 0.37662932329 0.37662391063 0.37662004592 0.37661349291 0.3766082593 0.37660385327 0.37659971371 
0.37659503492 0.37658920194 0.3765816925 0.3765719827 0.37655986105 0.37654512265 0.37652801739 0.37650880648 0.37648801794 
0.37646644522 0.37644463127 0.36717153209 0.36716238175 0.36715499863 0.36714970741 0.36714454403 0.36713753169 0.36713181149 
0.36712696078 0.3671222607 0.36711727255 0.36711128109 0.36710379494 0.36709433387 0.36708266984 0.36706872985 0.36705252464 
0.36703434721 0.36701469485 0.36699418282 0.36697330533 0.35858051483 0.35857194907 0.35856495651 0.35855983779 0.35855341954 
0.3585457951 0.35853953302 0.35853404848 0.35852890082 0.35852341617 0.35851705245 0.35850952437 0.35850019251 0.35848902711 
0.35847569252 0.35846034896 0.35844328732 0.3584248296 0.35840553148 0.35838575273 0.35103121976 0.35102348366 0.35101709711 
0.35101214843 0.35100446146 0.35099638803 0.35098938271 0.35098328276 0.35097742701 0.35097140276 0.35096468631 0.35095684281 
0.35094771621 0.35093686837 0.35092413822 0.35090975242 0.35089371762 0.35087642133 0.35085827972 0.3508397207 0.34465457003 
0.34464777441 0.3446421428 0.34463770168 0.34462863671 0.34462002598 0.34461236578 0.34460543672 0.34459886768 0.34459216465 
0.34458493857 0.3445770236 0.34456783558 0.34455724243 0.34454513688 0.34453159318 0.3445166161 0.34450046808 0.3444834896 
0.34446607751 0.33955502706 0.33954936999 0.33954446491 0.33954044346 0.33953013545 0.33952100291 0.33951272277 0.33950502242 
0.33949771082 0.33949028975 0.33948274862 0.33947445985 0.3394650531 0.33945484754 0.33944332468 0.33943059982 0.33941667284 
0.33940162499 0.33938585379 0.33936957117 0.33581248517 0.33580795821 0.33580393934 0.33580055247 0.33578896505 0.33577926901 
0.33577038379 0.33576202131 0.33575383621 0.33574583107 0.33573769701 0.33572914287 0.33571985003 0.33570974943 0.33569883813 
0.33568688448 0.3356738573 0.33565997812 0.33564539722 0.33563010882 0.33348463594 0.33348139669 0.33347829688 0.33347554756 
0.3334627249 0.3334525623 0.3334429423 0.33343378174 0.33342497081 0.33341623713 0.33340758012 0.33339877472 0.33338953684 
0.33337979746 0.33336927203 0.33335809973 0.3333460994 0.33333327865 0.33331971371 0.33330551275 0.33260950753 0.33260745576 
0.33260532546 0.332603173 0.33258911448 0.33257859579 0.33256823736 0.33255825743 0.33254874414 0.33253938131 0.33253022918 
0.33252116158 0.33251207506 0.33250259414 0.33249257572 0.33248216641 0.33247113737 0.33245935836 0.33244677437 0.33243350945 
0.33320679464 0.33320599548 0.33320487991 0.33320338856 0.33318803193 0.33317694952 0.33316597961 0.33315532796 0.33314511616 
0.33313515623 0.33312557648 0.3331163061 0.33310727291 0.33309810406 0.33308870385 0.33307896258 0.3330688913 0.33305806648 
0.3330465458 0.33303410127 0.33527607126 0.33527653313 0.33527643243 0.33527606875 0.33526525003 0.3352518806 0.33523883871 
0.33522649551 0.33521482374 0.33520374666 0.335193439 0.33518392388 0.33517488829 0.33516632968 0.33515777405 0.33514917305 
0.33514026852 0.33513072761 0.33512044173 0.33510919942 0.33880880934 0.33881001216 0.33881045169 0.3388102699 0.33880240872 
0.33878918848 0.3387762418 0.33876366289 0.33875185061 0.33874090926 0.33873084364 0.33872147384 0.33871302917 0.3387052394 
0.33869766916 0.33869025063 0.3386825807 0.33867441959 0.33866545908 0.33865520005 0.34377097837 0.34377288475 0.34377380746 
0.34377381971 0.34376882037 0.34375575071 0.34374274832 0.34373025869 0.34371833649 0.34370740278 0.34369747591 0.34368850465 
0.34368054043 0.34367347719 0.34366704599 0.34366077147 0.34365432037 0.34364748579 0.3436396991 0.34363042453 0.3501107348 
0.35011341145 0.35011479143 0.35011510044 0.350112719 0.35009986111 0.35008688242 0.35007434809 0.35006236423 0.35005147552 
0.35004169322 0.35003310741 0.35002570953 0.35001943888 0.35001385793 0.3500088468 0.35000369104 0.34999804509 0.34999128601 
0.3499829391 0.35775434859 0.3577577114 0.35775958246 0.35775993664 0.35776025357 0.35774759786 0.35773469148 0.35772209891 
0.35771015396 0.35769923668 0.35768958966 0.35768141785 0.35767464689 0.35766905318 0.35766442566 0.35766041439 0.35765647537 
0.35765185259 0.3576461053 0.35763858781 0.36660309698 0.36660724146 0.36660957105 0.36661030609 0.36661304276 0.36660052791 
0.36658776795 0.3665751731 0.36656329676 0.36655249514 0.36654299192 0.36653509913 0.3665288212 0.36652401928 0.36652023163 
0.36651712787 0.36651405422 0.36651053439 0.36650552828 0.36649868033 0.37653257985 0.37653745781 0.37654033383 0.37654141736 
0.37654648013 0.37653439491 0.37652178039 0.37650926308 0.37649742527 0.37648669806 0.37647738251 0.3764697805 0.37646393994 
0.37645966917 0.37645655035 0.37645426409 0.37645196293 0.37644904027 0.37644476316 0.37643841041 0.38739172497 0.38739728906 
0.38740074546 0.38740215144 0.3874095398 0.38739785924 0.38738547225 0.38737309949 0.38736133286 0.38735073102 0.38734161298 
0.38733426941 0.38732868087 0.38732488823 0.38732228638 0.38732047419 0.38731872147 0.38731627612 0.3873123038 0.38730618128 
0.39900400615 0.39901028205 0.3990141937 0.39901597735 0.39902557757 0.39901430411 0.3990022376 0.39899011755 0.39897857383 
0.3989680477 0.39895908015 0.39895192213 0.39894672349 0.398943083 0.39894070583 0.39893913636 0.39893767246 0.39893541429 
0.39893148786 0.39892533775 0.38488615401 0.3848781881 0.38487156717 0.38486642559 0.38486339924 0.38485535034 0.38484823154 
0.38484158524 0.38483503257 0.38482787066 0.38481987371 0.38481046363 0.38479927344 0.38478613122 0.38477104228 0.38475406475 
0.38473550985 0.38471580093 0.38469532832 0.38467465559 0.37613660954 0.37612884753 0.37612235661 0.37611726228 0.37611324465 
0.37610495819 0.37609764145 0.37609078123 0.37608416226 0.37607691734 0.37606901052 0.37605967009 0.3760487257 0.37603601094 
0.37602136661 0.37600492124 0.37598695227 0.37596784576 0.37594796606 0.37592783601 0.3679776842 0.36797030169 0.36796406328 
0.36795909942 0.36795401712 0.36794552212 0.36793784171 0.36793065247 0.36792375007 0.36791638444 0.36790831402 0.36789907564 
0.36788836193 0.36787595591 0.36786177326 0.36784599328 0.3678287343 0.36781035831 0.36779115201 0.36777170063 0.36057090537 
0.36056401246 0.36055817251 0.36055344712 0.36054718871 0.36053840174 0.36053035011 0.36052285757 0.36051549035 0.36050784199 
0.3604996289 0.36049033559 0.36047975245 0.36046764867 0.36045405556 0.36043890231 0.36042237622 0.36040482249 0.360386356 
0.36036769122 0.35405722952 0.35405095638 0.35404560785 0.35404122336 0.3540338513 0.35402470442 0.35401623738 0.35400829535 
0.35400050516 0.35399255453 0.35398396121 0.35397454673 0.35396405004 0.35395235906 0.35393917656 0.35392465283 0.35390887729 
0.35389213151 0.35387460605 0.353856726 0.34855580907 0.34855027655 0.34854550892 0.34854146876 0.34853299456 0.34852344793 
0.34851455238 0.34850613384 0.34849790301 0.3484894843 0.34848066337 0.34847105314 0.34846062479 0.34844913589 0.3484364417 
0.34842259505 0.34840754812 0.34839160841 0.34837498906 0.34835791631 0.34416364226 0.34415900576 0.34415493278 0.34415130656 