# vtk DataFile Version 5.1
vtk output
ASCII
DATASET STRUCTURED_POINTS
DIMENSIONS 30 30 30
SPACING 0.01 0.01 0.01
ORIGIN 1.555 -0.145 0.855
POINT_DATA 27000
FIELD FieldData 1
potential 1 27000 double
0.0084299481531 0.0084660322697 0.0085023197318 0.0085388111911 0.0085755085012 0.0086124110546 0.0086495227901 0.0086868430619 0.0087243738822 
0.0087621148735 0.0088000707739 0.0088382415375 0.0088766287674 0.0089152324471 0.0089540550776 0.0089930974191 0.0090323607081 0.0090718464449 
0.0091115572844 0.0091514933854 0.0091916569011 0.0092320484003 0.0092726685614 0.0093135192193 0.0093546025385 0.0093959193706 0.0094374715529 
0.009479259978 0.0095212862403 0.0095635511033 0.0084041002986 0.0084399918226 0.0084760846448 0.008512380857 0.0085488793993 0.0085855834641 
0.0086224924337 0.0086596087868 0.00869693444 0.0087344700884 0.0087722145284 0.0088101740796 0.0088483481221 0.0088867375501 0.008925342395 
0.0089641655509 0.0090032081346 0.0090424709372 0.0090819564601 0.009121665598 0.0091615989508 0.0092017601639 0.0092421465489 0.0092827620512 
0.0093236077997 0.0093646850178 0.0094059948538 0.0094475390216 0.0094893188011 0.0095313350258 0.0083783198565 0.0084140197776 0.0084499186896 
0.0084860189879 0.0085223217508 0.0085588260413 0.0085955346174 0.0086324484326 0.0086695685916 0.0087068978004 0.0087444361011 0.0087821832988 
0.0088201452897 0.0088583208483 0.0088967102482 0.008935314801 0.008974137431 0.0090131788293 0.0090524399465 0.0090919232919 0.0091316293787 
0.0091715586272 0.0092117136225 0.0092520948996 0.0092927039753 0.0093335418666 0.0093746114197 0.0094159126909 0.0094574469218 0.0094992163582 
0.0083526076625 0.0083881161364 0.0084238229944 0.0084597293663 0.0084958343222 0.0085321408501 0.0085686495881 0.0086053613433 0.0086422786056 
0.0086794014739 0.0087167326418 0.0087542725758 0.0087920216189 0.0088299832247 0.0088681579137 0.0089065465208 0.0089451499161 0.0089839710163 
0.0090230090844 0.009062267739 0.0091017459716 0.0091414459182 0.009181369355 0.0092215183549 0.0092618923316 0.0093024926702 0.0093433224766 
0.0093843820654 0.0094256723362 0.0094671957138 0.0083269646472 0.0083622831419 0.0083977977733 0.008433509556 0.0084694190231 0.008505527928 
0.0085418377856 0.0085783486376 0.0086150631843 0.0086519821195 0.0086891064736 0.0087264380965 0.0087639764277 0.0088017266225 0.008839687049 
0.0088778597231 0.0089162461206 0.0089548470463 0.0089936633411 0.0090326982781 0.0090719507827 0.0091114229475 0.0091511164703 0.0091910325908 
0.0092311732535 0.0092715374129 0.009312129095 0.009352948112 0.0093939957107 0.009435274236 0.0083013912778 0.008336520197 0.0083718445055 
0.0084073627403 0.0084430774302 0.008478989635 0.0085151006701 0.0085514119063 0.0085879248034 0.0086246402144 0.0086615596902 0.0086986843603 
0.0087360147065 0.0087735513853 0.0088112993462 0.0088492571885 0.0088874266406 0.0089258096025 0.0089644055851 0.0090032171912 0.0090422444224 
0.0090814900883 0.0091209550637 0.0091606403032 0.0092005471716 0.0092406774348 0.0092810320689 0.0093216116618 0.0093624180089 0.0094034529864 
0.0082758886459 0.0083108295312 0.0083459629375 0.0083812887499 0.0084168092906 0.0084525260553 0.0084884399217 0.0085245517733 0.0085608639585 
0.0085973765977 0.0086340915094 0.008671010234 0.008708132714 0.0087454610041 0.0087829946016 0.0088207392158 0.008858692929 0.0088968578077 
0.0089352351369 0.008973824373 0.0090126289263 0.0090516485927 0.0090908858679 0.0091303414295 0.0091700166796 0.0092099117776 0.0092500312396 
0.0092903737844 0.0093309400627 0.0093717327114 0.0082504571982 0.0082852111326 0.0083201539373 0.0083552885558 0.0083906162747 0.0084261382492 
0.0084618551607 0.0084977694427 0.0085338814242 0.0085701926514 0.0086067040257 0.0086434171446 0.0086803323805 0.0087174525611 0.0087547770777 
0.0087923063626 0.0088300454108 0.0088679946347 0.0089061529257 0.0089445217367 0.0089831037526 0.0090218994936 0.0090609097599 0.0091001368874 
0.0091395816145 0.0091792445952 0.0092191279769 0.0092592349169 0.0092995623095 0.0093401140644 0.0082250988269 0.0082596647238 0.0082944189564 
0.0083293633223 0.0083644986691 0.0083998268399 0.0084353483336 0.0084710651637 0.0085069779699 0.0085430883424 0.0085793970881 0.0086159056658 
0.0086526152087 0.008689526795 0.0087266422043 0.0087639597177 0.0088014848587 0.0088392188981 0.0088771589838 0.0089153092097 0.0089536700009 
0.0089922426517 0.0090310274 0.0090700272994 0.0091092424193 0.0091486744381 0.0091883244326 0.0092281948842 0.0092682858767 0.009308597919 
0.0081998126557 0.0082341921794 0.0082687584369 0.0083035131609 0.0083384572888 0.008373592383 0.0084089193357 0.0084444397857 0.0084801544582 
0.0085160649784 0.0085521720612 0.0085884769597 0.0086249816322 0.0086616863465 0.0086985929238 0.0087357016119 0.0087730139967 0.0088105325256 
0.008848255786 0.0088861868385 0.0089243280397 0.0089626786025 0.0090012403877 0.009040012972 0.0090790007774 0.0091182023134 0.0091576203091 
0.0091972557532 0.0092371101895 0.0092771851956 0.0081746005949 0.0082087938952 0.0082431730702 0.0082777389793 0.0083124929271 0.0083474358967 
0.0083825688762 0.0084178937493 0.008453411314 0.0084891228367 0.008525029088 0.0085611318269 0.0085974319041 0.0086339308802 0.008670629761 
0.0087075290474 0.0087446320475 0.0087819344195 0.0088194435706 0.0088571579388 0.0088950792219 0.0089332088248 0.0089715471351 0.0090100960972 
0.0090488557872 0.0090878290915 0.009127016027 0.0091664185313 0.009206037939 0.0092458748927 0.0081494618518 0.0081834704759 0.0082176632262 
0.0082520410836 0.0082866056404 0.0083213572734 0.0083562974482 0.0083914276919 0.0084267490828 0.0084622626449 0.008497969317 0.0085338704999 
0.0085699670195 0.0086062608304 0.0086427524289 0.0086794448216 0.0087163365986 0.008753429167 0.0087907221313 0.0088282204539 0.0088659241133 
0.0089038338431 0.0089419501883 0.0089802758496 0.0090188100981 0.0090575551993 0.0090965120739 0.0091356829982 0.0091750678558 0.0092146696849 
0.0081243974945 0.0081582222431 0.008192229486 0.0082264203693 0.0082607960606 0.0082953575355 0.0083301056816 0.0083650422305 0.00840016792 
0.0084354839347 0.0084709924669 0.0085066931932 0.0085425879396 0.0085786776256 0.008614963607 0.0086514485201 0.0086881309081 0.0087250121322 
0.0087620940896 0.0087993757899 0.0088368623228 0.0088745531617 0.0089124498082 0.0089505529513 0.0089888621887 0.009027381377 0.0090661094898 
0.009105050104 0.0091442025291 0.0091835698748 0.0080994081709 0.0081330498096 0.0081668720669 0.0082008768222 0.0082350645487 0.0082694367915 
0.0083039936346 0.0083387375295 0.0083736691534 0.0084087890106 0.0084440996945 0.008479601006 0.0085152945927 0.0085511813583 0.0085872634769 
0.0086235408331 0.0086600143731 0.0086966854032 0.0087335561348 0.0087706261427 0.0088078950374 0.0088453684289 0.0088830455404 0.0089209277136 
0.008959014233 0.0089973082346 0.0090358086527 0.0090745199894 0.0091134414324 0.0091525755775 0.0080744939017 0.0081079532249 0.0081415919316 
0.008175411271 0.0082094119903 0.0082435956546 0.008277962208 0.0083125144532 0.0083472525432 0.0083821772943 0.008417291206 0.0084525940849 
0.0084880872745 0.0085237721847 0.00855965056 0.0085957224663 0.0086319887613 0.0086684510175 0.0087051107675 0.0087419678889 0.0087790227475 
0.008816279853 0.0088537391514 0.0088914008226 0.0089292652722 0.0089673352866 0.0090056108813 0.009044093602 0.0090827845024 0.0091216858027 
0.0080496556707 0.0080829334992 0.0081163893321 0.0081500238788 0.0081838385409 0.0082178345408 0.0082520120284 0.0082863730862 0.0083209182594 
0.008355649371 0.0083905673119 0.0084256726908 0.0084609667522 0.0084964516807 0.008532126416 0.0085679929879 0.0086040541355 0.0086403084181 
0.00867675741 0.0087134040979 0.0087502472215 0.0087872875145 0.0088245295845 0.0088619720539 0.0088996161053 0.0089374633199 0.0089755142244 
0.0090137708959 0.0090522333371 0.0090909040246 0.0080248922623 0.008057989561 0.0080912640252 0.0081247148465 0.0081583444786 0.0081921534917 
0.0082261426224 0.0082603136624 0.0082946671297 0.0083292052593 0.0083639282049 0.0083988370559 0.0084339330609 0.0084692181018 0.0085046912306 
0.0085403543604 0.0085762104818 0.0086122575254 0.0086484983119 0.0086849345739 0.0087215654173 0.0087583932027 0.0087954178888 0.0088326426558 
0.0088700666231 0.008907693021 0.0089455204702 0.00898355173 0.009021787413 0.0090602278212 0.0080002060953 0.0080331236884 0.008066215847 
0.0080994847635 0.0081329300699 0.0081665530085 0.0082003546574 0.0082343363463 0.0082684994921 0.0083028454269 0.0083373743689 0.0083720875814 
0.0084069874125 0.0084420724207 0.0084773445779 0.0085128057901 0.0085484573511 0.0085842991845 0.0086203324567 0.0086565588785 0.008692979554 
0.0087295946945 0.0087664059632 0.008803412434 0.0088406181053 0.0088780235837 0.0089156292401 0.0089534363199 0.0089914452104 0.0090296582122 
0.0079755968154 0.0080083350638 0.0080412466004 0.0080743327327 0.0081075943508 0.0081410332064 0.0081746483345 0.0082084418613 0.0082424152338 
0.0082765698875 0.0083109058313 0.008345424544 0.0083801279487 0.0084150152587 0.0084500878696 0.0084853474287 0.0085207958566 0.0085564334144 
0.0085922604367 0.0086282788125 0.0086644894061 0.0087008928239 0.008737490311 0.0087742828982 0.0088112700668 0.0088484562641 0.008885840162 
0.0089234245187 0.0089612093164 0.0089991954216 0.0079510637192 0.0079836237639 0.0080163557616 0.0080492605579 0.0080823396411 0.0081155933498 
0.0081490236353 0.0081826299699 0.0082164148949 0.0082503787916 0.00828452276 0.0083188478838 0.0083533561265 0.0083880460898 0.0084229200364 
0.0084579801879 0.0084932265908 0.0085286605581 0.0085642824162 0.0086000935133 0.0086360947403 0.0086722880664 0.0087086731804 0.0087452515351 
0.0087820238738 0.0088189900831 0.0088561549723 0.0088935175837 0.0089310789606 0.008968839737 0.0079266070442 0.0079589901019 0.007991542775 
0.0080242677583 0.0080571647159 0.0080902353467 0.0081234794658 0.0081568999744 0.0081904978356 0.008224272388 0.008258225402 0.0082923589031 
0.0083266719115 0.0083611656047 0.0083958425141 0.0084307031508 0.0084657487218 0.0085009799906 0.008536398014 0.0085720031368 0.0086077971117 
0.0086437802413 0.0086799544625 0.008716319064 0.0087528765043 0.0087896281355 0.0088265731744 0.0088637149178 0.0089010541933 0.0089385907519 
0.0079022273807 0.0079344337 0.0079668084953 0.0079993538847 0.0080320700976 0.0080649582767 0.0080980184419 0.0081312536368 0.0081646637017 
0.0081982507272 0.0082320134927 0.0082659553406 0.0083000747337 0.0083343740318 0.0083688546187 0.0084035169683 0.0084383627624 0.0084733922775 
0.0085086072097 0.0085440078021 0.0085795951425 0.0086153693725 0.0086513334329 0.0086874868996 0.0087238305427 0.0087603667903 0.0087970957127 
0.0088340172383 0.0088711349553 0.0089084484987 0.0078779242089 0.0079099543704 0.0079421527018 0.0079745192246 0.0080070554838 0.0080397621025 
0.0080726393086 0.008105689907 0.0081389138976 0.0081723125501 0.0082058872984 0.0082396379557 0.0082735651663 0.0083076709863 0.008341956112 
0.0083764214121 0.0084110684748 0.008445897445 0.0084809102722 0.0085161071537 0.0085514882868 0.0085870562729 0.0086228109069 0.0086587538619 
0.0086948856472 0.0087312069519 0.0087677199551 0.0088044247814 0.0088413215382 0.0088784133189 0.0078536977264 0.007885552909 0.007917574476 
0.0079497636315 0.0079821204964 0.0080146460496 0.0080473418207 0.0080802088058 0.0081132477501 0.008146459785 0.0081798460106 0.0082134063395 
0.0082471430843 0.0082810562778 0.0083151469827 0.0083494163503 0.0083838656444 0.0084184952507 0.0084533059993 0.0084883005121 0.0085234780997 
0.0085588398451 0.0085943867162 0.0086301202563 0.0086660412538 0.0087021495929 0.0087384477291 0.0087749359189 0.0088116142035 0.0088484856303 
0.0078295474846 0.0078612287372 0.0078930748706 0.0079250873468 0.0079572656938 0.0079896113227 0.0080221259074 0.0080548102096 0.0080876649916 
0.0081206909178 0.0081538905039 0.0081872620333 0.0082208079638 0.0082545291428 0.008288427295 0.0083225018698 0.0083567539102 0.0083911852255 
0.0084257968181 0.0084605896438 0.0084955642391 0.0085307210514 0.0085660612911 0.0086015860205 0.0086372970129 0.0086731935322 0.0087092786635 
0.0087455516143 0.0087820134305 0.0088186646595 0.0078054738595 0.0078369818733 0.0078686531568 0.0079004891788 0.0079324907681 0.00796465733 
0.0079969916033 0.0080294936818 0.0080621652339 0.0080950068841 0.008128020257 0.0081612041523 0.0081945607499 0.0082280911708 0.0082617955812 
0.008295675942 0.0083297339459 0.0083639682645 0.0083983807608 0.0084329735294 0.0084677459871 0.008502699051 0.0085378337098 0.0085731514712 
0.0086086530495 0.008644339441 0.0086802117582 0.0087162704942 0.0087525162984 0.0087889514273 0.0077814762549 0.0078128115851 0.0078443095969 
0.0078759701897 0.007907794078 0.0079397835252 0.0079719380765 0.0080042598898 0.0080367491295 0.0080694079824 0.0081022351255 0.0081352314837 
0.0081684000118 0.0082017404789 0.008235254148 0.0082689417154 0.0083028044151 0.008336842704 0.0083710580047 0.008405451392 0.0084400233913 
0.0084747735875 0.0085097040737 0.0085448158236 0.0085801097268 0.0086155861828 0.0086512478011 0.0086870935728 0.0087231246572 0.0087593430984 
0.0077575552148 0.0077887185225 0.0078200435135 0.0078515297373 0.0078831778711 0.0079149896284 0.0079469662811 0.0079791078383 0.0080114156552 
0.0080438910466 0.0080765337123 0.008109345249 0.008142326498 0.0081754784171 0.0082088016125 0.0082422974087 0.0082759666396 0.0083098098325 
0.0083438282008 0.0083780227494 0.0084123954054 0.0084469443896 0.0084816718752 0.008516578839 0.0085516662382 0.0085869345034 0.0086223861208 
0.0086580205857 0.0086938381887 0.0087298408465 0.0077337092341 0.0077647021499 0.0077958547252 0.0078271675273 0.0078586403256 0.0078902761831 
0.007922074846 0.007954037047 0.0079861641262 0.0080184582191 0.0080509173376 0.0080835440594 0.0081163390919 0.0081493034599 0.008182437359 
0.0082157423686 0.0082492190309 0.0082828684473 0.0083166913293 0.0083506886928 0.0083848617963 0.0084192106914 0.0084537367712 0.0084884400837 
0.0085233227304 0.0085583841036 0.0085936262019 0.0086290502138 0.0086646554756 0.0087004442027 0.0077099380661 0.007740760783 0.0077717418871 
0.0078028811836 0.0078341803551 0.0078656406921 0.0078972627329 0.007929047308 0.0079609966368 0.0079931089475 0.0080253856642 0.0080578285405 
0.0080904382776 0.0081232156385 0.0081561615086 0.0081892764748 0.0082225618615 0.0082560186381 0.0082896470101 0.0083234485222 0.0083574233564 
0.0083915729623 0.0084258982977 0.0084603983784 0.0084950768601 0.0085299325677 0.0085649673307 0.0086001816782 0.0086355766705 0.0086711523455 
0.0085168148321 0.0085532426418 0.0085898745356 0.0086267132576 0.0086637583847 0.0087010124643 0.0087384751065 0.0087761501164 0.0088140366238 
0.0088521359357 0.0088904489591 0.0089289810715 0.0089677308784 0.0090066993235 0.0090458879096 0.0090852989222 0.009124932835 0.0091647900055 
0.0092048744442 0.0092451863492 0.0092857265338 0.0093264976131 0.0093674998661 0.0094087338077 0.0094502023927 0.0094919067301 0.009533847654 
0.0095760269448 0.0096184458983 0.0096611060902 0.0084907433281 0.0085269766209 0.0085634130326 0.0086000531797 0.0086369000488 0.0086739520924 
0.008711212668 0.008748681525 0.0087863597671 0.0088242509825 0.0088623530954 0.0089006719177 0.008939206648 0.0089779589806 0.0090169295559 
0.0090561187396 0.0090955300651 0.0091351629879 0.0091750199816 0.0092151027013 0.0092554123958 0.0092959493687 0.0093367173797 0.0093777140273 
0.009418943008 0.0094604054971 0.0095021024739 0.0095440354896 0.0095862061033 0.0096286156779 0.0084647389033 0.0085007787592 0.008537020371 
0.0085734633641 0.0086101106481 0.0086469631539 0.008684020519 0.0087212853023 0.0087587581625 0.0087964405453 0.0088343348675 0.0088724398205 
0.0089107604161 0.0089492968622 0.0089880500167 0.0090270201762 0.0090662088454 0.0091056185279 0.0091452503207 0.0091851044883 0.0092251841987 
0.0092654900688 0.0093060218761 0.0093467835736 0.0093877742694 0.0094289961234 0.0094704505235 0.0095121383167 0.0095540620947 0.0095962229374 
0.0084388019442 0.0084746497925 0.0085106965879 0.0085469438937 0.0085833927222 0.0086200450292 0.0086569011831 0.0086939624879 0.0087312299952 
0.0087687057316 0.0088063905172 0.0088442865903 0.0088823924226 0.0089207142519 0.0089592501358 0.0089980018258 0.0090369707736 0.0090761572741 
0.0091155644809 0.0091551921732 0.0091950438836 0.0092351182049 0.0092754171103 0.0093159427752 0.0093566972408 0.0093976798125 0.009438891859 
0.0094803369574 0.0095220149432 0.009563927294 0.0084129341771 0.0084485901173 0.0084844430469 0.0085204953001 0.0085567475687 0.0085932002497 
0.0086298554178 0.0086667143946 0.0087037773986 0.0087410475031 0.0087785246325 0.0088162107752 0.0088541061788 0.0088922125075 0.0089305324666 
0.0089690663754 0.009007815583 0.0090467816186 0.0090859652827 0.0091253673742 0.0091649910062 0.0092048350375 0.0092449027029 0.0092851946219 
0.0093257121019 0.0093664576406 0.0094074292499 0.0094486320679 0.0094900658072 0.0095317310484 0.0083871362409 0.0084226009471 0.0084582612447 
0.0084941195455 0.0085301744939 0.0085664292122 0.0086028844724 0.0086395415693 0.0086764015719 0.0087134663907 0.0087507366336 0.0087882136033 
0.0088258988628 0.0088637912542 0.0089018966711 0.0089402145297 0.0089787450774 0.0090174903796 0.0090564522542 0.009095630565 0.0091350271259 
0.0091746426074 0.0092144795853 0.0092545388082 0.0092948214642 0.0093353287333 0.0093760629265 0.0094170242294 0.0094582144855 0.0094996343478 
0.0083614083875 0.0083966828467 0.008432151368 0.0084678157449 0.0085036753146 0.0085397328059 0.0085759889552 0.0086124453769 0.0086491027497 
0.0086859630581 0.0087230276252 0.0087602968156 0.0087977720102 0.0088354553763 0.0088733452316 0.0089114464201 0.0089497600002 0.0089882859006 
0.009027026044 0.0090659818563 0.0091051528277 0.0091445413488 0.0091841483659 0.0092239761309 0.0092640250267 0.0093042960245 0.0093447920803 
0.0093855144607 0.0094264631847 0.0094676388826 0.0083357515339 0.0083708365345 0.0084061148565 0.0084415855187 0.0084772505277 0.0085131116618 
0.0085491699305 0.0085854263834 0.0086218820226 0.0086585389641 0.0086953979177 0.0087324606509 0.0087697275082 0.0088071991219 0.0088448789806 
0.0088827644228 0.0089208609877 0.0089591686224 0.0089976893342 0.0090364219518 0.0090753688425 0.0091145315357 0.00915390957 0.0091935070724 
0.0092333236491 0.0092733605911 0.0093136201561 0.0093541033841 0.0093948125591 0.0094357454087 0.0083101666927 0.0083450636411 0.0083801510695 
0.008415429572 0.0084509011586 0.008486566576 0.0085224277583 0.0085584850252 0.0085947404987 0.0086311949772 0.0086678496615 0.0087047058239 
0.0087417646076 0.0087790272615 0.0088164952551 0.0088541692298 0.0088920487244 0.0089301394965 0.008968440697 0.0090069519597 0.0090456754465 
0.009084613102 0.0091237656067 0.0091631327864 0.0092027189409 0.0092425227379 0.0092825474441 0.0093227925485 0.0093632612125 0.0094039535806 
0.0082846544288 0.0083193640154 0.00835426126 0.0083893487832 0.0084246274041 0.0084600983229 0.0084957631558 0.0085316223634 0.0085676781503 
0.0086039311471 0.0086403825763 0.0086770336105 0.0087138855026 0.0087509395697 0.0087881967383 0.0088256586613 0.0088633253007 0.0089011992066 
0.0089392815748 0.008977573084 0.009016074054 0.009054787936 0.0090937145111 0.0091328554285 0.0091722105009 0.00921178236 0.0092515730689 
0.0092915820773 0.0093318116747 0.0093722635211 0.0082592159641 0.0082937376519 0.0083284462653 0.0083633432223 0.0083984298547 0.0084337074506 
0.0084691766903 0.0085048388726 0.0085406958341 0.0085767482945 0.0086129974513 0.0086494438209 0.008686090417 0.0087229363888 0.0087599840129 
0.0087972348746 0.0088346886727 0.0088723474224 0.0089102127938 0.0089482854378 0.0089865665266 0.0090250573176 0.0090637586754 0.0091026725098 
0.0091417996953 0.0091811408732 0.009220697953 0.0092604721789 0.0093004649643 0.009340677844 0.0082338502559 0.0082681856591 0.0083027064144 
0.0083374139968 0.0083723095119 0.0084073942239 0.008442668985 0.0084781349578 0.0085137937124 0.0085496466049 0.0085856944566 0.0086219381137 
0.0086583792601 0.008695019131 0.0087318583021 0.008768898873 0.0088061417446 0.0088435871082 0.0088812351303 0.0089190900211 0.0089571508012 
0.0089954200544 0.0090338985249 0.0090725868691 0.009111485995 0.0091505979937 0.0091899236943 0.0092294640578 0.0092692214987 0.0093091963512 
0.0082085587805 0.0082427087261 0.0082770421188 0.008311561035 0.0083462664371 0.0083811590536 0.0084162402495 0.0084515110034 0.0084869731196 
0.0085226273481 0.0085584748438 0.0085945163941 0.0086307536226 0.0086671878564 0.0087038196944 0.0087406502198 0.0087776825835 0.0088149149233 
0.008852349962 0.0088899862336 0.008927828886 0.0089658776769 0.0090041334409 0.0090425980388 0.0090812718274 0.0091201551792 0.0091592498194 
0.0091985582738 0.0092380812688 0.009277818847 0.0081833420717 0.0082173068264 0.0082514542927 0.0082857853876 0.0083203013651 0.0083550030569 
0.0083898916724 0.0084249679013 0.0084602339703 0.0084956905409 0.0085313380598 0.0085671790084 0.0086032134552 0.0086394427882 0.0086758685149 
0.0087124920146 0.0087493132925 0.0087863336659 0.0088235546647 0.0088609776687 0.008898601545 0.0089364308023 0.0089744653436 0.0090127067837 
0.0090511555219 0.0090898117971 0.0091286784896 0.0091677550396 0.0092070445666 0.0092465473233 0.008158199897 0.0081919810323 0.0082259431127 
0.0082600873805 0.0082944146014 0.0083289260863 0.0083636232093 0.0083985059151 0.0084335769295 0.0084688366968 0.0085042857434 0.0085399265439 
0.0085757592737 0.0086117849357 0.0086480052422 0.0086844216227 0.0087210336205 0.0087578436225 0.0087948516848 0.0088320606575 0.0088694698066 
0.0089070795122 0.0089448940258 0.0089829131158 0.0090211383653 0.0090595688605 0.0090982078286 0.0091370552157 0.0091761131072 0.0092153817622 
0.0081331325482 0.0081667305247 0.0082005090409 0.0082344670636 0.008268606614 0.0083029289866 0.0083374351092 0.0083721255015 0.0084070021644 
0.0084420655736 0.0084773176884 0.0085127594522 0.0085483911778 0.0085842142453 0.0086202309169 0.0086564404824 0.0086928446307 0.0087294446434 
0.0087662416616 0.0088032367397 0.0088404314402 0.0088778256734 0.0089154198349 0.0089532184689 0.0089912203707 0.0090294269797 0.0090678393792 
0.0091064582036 0.0091452858638 0.0091843214785 0.0081081415426 0.0081415573171 0.0081751512613 0.0082089249132 0.0082428776849 0.0082770116594 
0.0083113277487 0.008345826604 0.0083805099901 0.0084153785606 0.0084504341781 0.0084856776183 0.0085211096008 0.0085567311884 0.0085925444728 
0.0086285486938 0.0086647454661 0.0087011378119 0.0087377244877 0.0087745074055 0.0088114882175 0.0088486665625 0.0088860448203 0.0089236223548 
0.0089614027981 0.0089993853539 0.0090375729043 0.0090759644629 0.0091145621549 0.0091533671574 0.0080832263164 0.0081164609093 0.0081498716947 
0.0081834600037 0.0082172275982 0.0082511741799 0.0082853011843 0.008319609368 0.0083541001843 0.0083887752232 0.0084236355028 0.0084586817538 
0.0084939146846 0.0085293368368 0.0085649468873 0.0086007466665 0.0086367381427 0.0086729230016 0.0087093004373 0.0087458725307 0.0087826400332 
0.00881960436 0.0088567657028 0.0088941249272 0.0089316849625 0.0089694454492 0.0090074084208 0.0090455741084 0.0090839442533 0.0091225193387 
0.0080583865297 0.0080914412719 0.0081246700098 0.0081580747389 0.0081916563946 0.0082254163611 0.0082593559674 0.0082934744511 0.0083277740633 
0.0083622560477 0.008396921822 0.0084317715569 0.0084668066661 0.0085020291492 0.0085374372294 0.0085730348874 0.0086088219254 0.0086448003906 
0.0086809695042 0.0087173318568 0.0087538875793 0.0087906379325 0.0088275848545 0.0088647278172 0.0089020673773 0.0089396063487 0.0089773465104 
0.0090152885618 0.0090534316251 0.0090917779837 0.0080336239075 0.0080664987111 0.0080995463379 0.008132768138 0.0081661657823 0.0081997398034 
0.0082334913594 0.0082674219476 0.0083015310104 0.0083358212308 0.0083702932737 0.0084049478485 0.0084397860394 0.0084748095939 0.0085100179367 
0.0085454133268 0.008580996792 0.0086167695909 0.0086527323952 0.0086888855769 0.0087252307273 0.0087617686968 0.0087985014315 0.0088354277364 
0.0088725509651 0.0089098694875 0.0089473880273 0.0089851061776 0.009023024265 0.0090611433882 0.0080089370981 0.0080416326161 0.0080745004463 
0.0081075402598 0.0081407547077 0.0081741439396 0.0082077090705 0.0082414504001 0.0082753705396 0.0083094705347 0.008343749827 0.0083782101561 
0.0084128530909 0.008447678172 0.0084826877079 0.0085178823918 0.0085532630188 0.0085888315304 0.0086245883645 0.0086605341403 0.0086966698574 
0.0087329965599 0.0087695151279 0.0088062278204 0.008843134182 0.0088802354598 0.0089175324234 0.0089550283109 0.0089927217904 0.0090306154715 
0.0079843268935 0.0080168443232 0.0080495317556 0.0080823914392 0.0081154232726 0.0081486284996 0.008182008306 0.0082155625959 0.0082492941844 
0.0082832032849 0.0083172918803 0.0083515582801 0.0083860067761 0.0084206353669 0.0084554468224 0.0084904416667 0.0085256209151 0.0085609862342 
0.0085965378345 0.0086322769021 0.0086682037971 0.0087043211221 0.0087406282242 0.0087771271412 0.0088138178086 0.008850701773 0.0088877809272 
0.0089250541333 0.0089625245792 0.0090001931376 0.0079597930647 0.0079921327985 0.008024641798 0.0080573214159 0.0080901716211 0.0081231937528 
0.0081563888793 0.008189757086 0.0082233011681 0.0082570211531 0.0082909177799 0.0083249935583 0.0083592477008 0.0083936808708 0.0084282951719 
0.0084630910405 0.0084980700138 0.0085332330157 0.0085685800992 0.0086041138584 0.0086398342622 0.0086757423207 0.0087118386966 0.0087481245366 
0.0087846021335 0.0088212699536 0.0088581313224 0.008895186115 0.0089324337632 0.0089698788258 0.0079353351578 0.0079674986255 0.0079998298838 
0.0080323296402 0.0080649997694 0.0080978395077 0.0081308503924 0.0081640339543 0.008197391235 0.0082309225558 0.0082646299273 0.0082985144613 
0.0083325746735 0.0083668136167 0.0084012325979 0.0084358310278 0.008470609897 0.0085055718997 0.0085407170031 0.008576046438 0.0086115607007 
0.008647260947 0.0086831477141 0.0087192224414 0.008755486029 0.0087919395892 0.0088285846769 0.008865420955 0.0089024494836 0.0089396709864 
0.0079109536556 0.0079429414082 0.0079750955224 0.0080074170877 0.0080399067135 0.0080725657983 0.0081053937336 0.0081383927287 0.0081715642605 
0.008204908764 0.0082384273425 0.0082721214022 0.0083059900183 0.0083400353933 0.0083742580921 0.0084086604574 0.0084432417189 0.0084780037411 
0.0085129472182 0.008548073104 0.0085833826584 0.0086188765243 0.0086545548972 0.008690419462 0.008726471268 0.0087627111908 0.0087991404348 
0.008835759396 0.0088725692163 0.0089095709547 0.0078866483487 0.0079184610907 0.0079504389521 0.0079825831307 0.0080148935623 0.0080473721874 
0.0080800177789 0.0081128339412 0.0081458206481 0.0081789788369 0.0082123105754 0.0082458139638 0.0082794914809 0.008313344414 0.0083473736866 
0.0083815798551 0.0084159641403 0.0084505280353 0.008485270844 0.0085201945261 0.0085553002071 0.0085905885134 0.008626059709 0.0086617154268 
0.0086975565616 0.0087335838422 0.0087697990897 0.008806202053 0.0088427940564 0.0088795757007 0.007862418773 0.0078940576345 0.0079258601132 
0.0079578275434 0.0079899598174 0.0080222573955 0.0080547236355 0.0080873573212 0.0081201598496 0.0081531320413 0.0081862771848 0.0082195922144 
0.0082530802553 0.0082867419751 0.0083205779883 0.0083545896648 0.008388777756 0.0084231432233 0.0084576868557 0.0084924102027 0.0085273132649 
0.0085623967149 0.0085976622063 0.0086331101604 0.008668741755 0.0087045578635 0.0087405596518 0.008776748309 0.0088131235887 0.0088496869454 
0.0078382652991 0.0078697308653 0.0079013587972 0.0079331502072 0.0079651049624 0.0079972239682 0.0080295097372 0.0080619619553 0.0080945813354 
0.0081273697109 0.0081603284936 0.0081934561924 0.0082267553874 0.008260226827 0.0082938710967 0.0083276890466 0.0083616819768 0.0083958505004 
0.0084301960012 0.0084647187655 0.0084994204058 0.0085343015475 0.008569362163 0.0086046035779 0.0086400269521 0.0086756331876 0.0087114227637 
0.0087473978769 0.0087835578373 0.0088199044509 0.0078141863792 0.0078454795255 0.0078769339108 0.0079085498143 0.0079403281432 0.0079722696483 
0.0080043760573 0.0080366487422 0.0080690860876 0.0081016909731 0.0081344644246 0.0081674060442 0.0082005173422 0.0082337992155 0.0082672521929 
0.0083008776283 0.008334676487 0.0083686497872 0.0084027978706 0.0084371217564 0.0084716226123 0.0085063009396 0.008541158304 0.0085761949043 
0.0086114106631 0.0086468081019 0.0086823876096 0.0087181498011 0.0087540962066 0.0087902263176 0.0077901829637 0.0078213037046 0.0078525850164 
0.0078840270293 0.0079156301894 0.0079473949546 0.007979323148 0.0080114150221 0.0080436718886 0.0080760950109 0.00810868358 0.0081414397397 
0.0081743641104 0.0082074575833 0.0082407209703 0.0082741551622 0.0083077608186 0.0083415392674 0.0083754913565 0.0084096173619 0.0084439188626 
0.0084783963222 0.0085130508251 0.0085478828493 0.0085828939843 0.0086180844314 0.0086534541465 0.008689005124 0.0087247384346 0.0087606550551 
0.0086034120063 0.0086401815805 0.0086771564827 0.00871433928 0.0087517315145 0.008789333492 0.0088271466453 0.0088651724664 0.0089034120841 
0.0089418673387 0.0089805366373 0.009019426987 0.0090585371094 0.0090978684175 0.0091374210183 0.0091771978642 0.0092171990374 0.0092574272506 
0.0092978818476 0.0093385665131 0.0093794819261 0.0094206291955 0.0094620104277 0.0095036254975 0.0095454770814 0.0095875656169 0.0096298930251 
0.0096724604955 0.0097152694947 0.0097583224406 0.0085771179308 0.0086136915425 0.008650468979 0.0086874525727 0.0087246429302 0.0087620423325 
0.0087996502118 0.0088374698859 0.0088755008468 0.0089137445105 0.0089522035946 0.0089908774807 0.0090297706168 0.0090688838386 0.0091082160987 
0.0091477705315 0.0091875478296 0.0092275489426 0.0092677754541 0.0093082287314 0.0093489115279 0.0093898237729 0.0094309669847 0.0094723440945 