# vtk DataFile Version 5.1
vtk output
ASCII
DATASET STRUCTURED_POINTS
DIMENSIONS 30 30 30
SPACING 0.01 0.01 0.01
ORIGIN 3.555 -0.145 0.855
POINT_DATA 27000
FIELD FieldData 1
potential 1 27000 double
0.00079853029083 0.0007975241371 0.00079652078692 0.00079552026813 0.00079452265616 0.00079352785244 0.00079253588122 0.00079154666351 0.00079056024026 
0.00078957664253 0.00078859579658 0.00078761770341 0.00078664236678 0.00078566974626 0.00078469987763 0.00078373266834 0.00078276816276 0.0007818063619 
0.00078084719904 0.00077989070798 0.00077893684956 0.00077798568784 0.0007770371035 0.00077609114486 0.00077514777734 0.00077420700249 0.00077326881998 
0.00077233320339 0.0007714001599 0.00077046966689 0.00079800510634 0.00079699989113 0.00079599748485 0.00079499792348 0.00079400128541 0.0007930074356 
0.0007920163631 0.00079102815336 0.00079004267528 0.00078906000929 0.00078808012235 0.00078710296728 0.00078612859149 0.00078515689739 0.00078418793946 
0.00078322166696 0.00078225811206 0.00078129724755 0.00078033903354 0.00077938346943 0.00077843058319 0.00077748029596 0.00077653263503 0.00077558758181 
0.00077464512208 0.00077370529192 0.00077276800172 0.00077183328816 0.00077090114315 0.00076997149891 0.00079748182757 0.00079647754227 0.00079547611313 
0.00079447750751 0.00079348180027 0.00079248890888 0.0007914988148 0.00079051151078 0.00078952701764 0.00078854529834 0.00078756634232 0.00078659014402 
0.00078561669415 0.00078464596667 0.00078367791251 0.00078271261207 0.00078174997403 0.00078079001342 0.00077983272418 0.00077887809404 0.0007779261576 
0.00077697682203 0.00077603007673 0.00077508591571 0.00077414438879 0.00077320544275 0.00077226908074 0.00077133527315 0.00077040403077 0.00076947532042 
0.0007969604774 0.000795957173 0.00079495669359 0.00079395907668 0.00079296431577 0.00079197233815 0.00079098322811 0.00078999687336 0.0007890133285 
0.00078803255568 0.00078705453875 0.00078607928858 0.00078510676735 0.00078413698008 0.00078316988903 0.00078220551332 0.00078124380678 0.00078028480363 
0.0007793284394 0.00077837472134 0.00077742367068 0.00077647522721 0.00077552939148 0.00077458619799 0.00077364558936 0.00077270754907 0.00077177208259 
0.00077083919185 0.00076990885518 0.00076898105134 0.00079644116506 0.00079543883366 0.00079443931329 0.00079344267731 0.00079244883253 0.00079145778801 
0.0007904696244 0.00078948421865 0.00078850162178 0.00078752179027 0.00078654474643 0.00078557043212 0.00078459885929 0.00078362999959 0.00078266387313 
0.00078170042272 0.00078073962611 0.00077978151656 0.00077882612646 0.00077787332547 0.00077692316319 0.00077597566364 0.00077503075576 0.00077408845364 
0.0007731487524 0.0007722116225 0.00077127706596 0.00077034510257 0.00076941567306 0.00076848876332 0.00079592389209 0.00079492250306 0.00079392396258 
0.00079292828919 0.00079193543167 0.00079094537689 0.00078995813329 0.00078897367929 0.00078799198596 0.00078701310106 0.00078603696574 0.00078506360516 
0.00078409292476 0.00078312503782 0.00078215983121 0.00078119730722 0.0007802374779 0.00077928030978 0.00077832583354 0.00077737395794 0.00077642471889 
0.00077547811171 0.00077453414978 0.00077359275958 0.00077265396093 0.00077171774903 0.00077078411681 0.00076985303316 0.00076892448396 0.00076799847461 
0.00079540863849 0.00079440823657 0.00079341063868 0.00079241595497 0.00079142405094 0.00079043497343 0.00078944866141 0.00078846512698 0.00078748440604 
0.00078650646038 0.0007855312805 0.00078455882253 0.00078358911029 0.0007826221337 0.0007816578851 0.0007806962939 0.00077973739623 0.00077878120159 
0.00077782761502 0.00077687664872 0.00077592834209 0.00077498265083 0.00077403957638 0.00077309914477 0.00077216125756 0.00077122595374 0.0007702931858 
0.00076936299355 0.00076843537848 0.00076751027334 0.00079489553433 0.00079389606343 0.00079289942177 0.00079190569084 0.00079091474005 0.00078992661458 
0.00078894127245 0.00078795871101 0.00078697892918 0.00078600191917 0.00078502768161 0.00078405619905 0.00078308744874 0.00078212139388 0.00078115805197 
0.00078019742206 0.00077923941776 0.00077828413677 0.00077733147698 0.00077638144688 0.00077543407417 0.00077448929712 0.00077354713863 0.00077260757975 
0.00077167062867 0.00077073620776 0.00076980436748 0.00076887507743 0.00076794836842 0.00076702415267 0.00079438450224 0.00079338602272 0.00079239035091 
0.00079139759254 0.00079040760136 0.00078942041958 0.00078843601898 0.00078745440065 0.00078647559041 0.00078549952761 0.00078452622544 0.00078355568715 
0.00078258785603 0.00078162273633 0.0007806603283 0.00077970061139 0.00077874363333 0.00077778924483 0.00077683752714 0.00077588842275 0.00077494195698 
0.00077399806231 0.00077305680758 0.00077211815724 0.0007711820651 0.00077024860143 0.00076931767297 0.00076838928402 0.00076746348833 0.00076654016815 
0.00079387568052 0.000792878164 0.00079188345654 0.00079089165103 0.00078990261198 0.000788916374 0.00078793292272 0.00078695227605 0.00078597439005 
0.0007849992817 0.00078402692838 0.00078305732964 0.00078209041481 0.00078112622369 0.00078016474035 0.00077920603148 0.00077824991299 0.0007772964744 
0.00077634567059 0.00077539748697 0.00077445193992 0.00077350900673 0.00077256863412 0.00077163089539 0.00077069573643 0.00076976313202 0.00076883312264 
0.00076790563672 0.00076698068839 0.00076605827966 0.00079336905315 0.00079237247688 0.00079137876085 0.00079038787154 0.00078939979288 0.00078841445543 
0.00078743200688 0.00078645230558 0.00078547537852 0.00078450119782 0.00078352982309 0.00078256112414 0.00078159516036 0.00078063190416 0.00077967132569 
0.00077871351283 0.00077775834579 0.00077680583594 0.00077585593745 0.0007749086853 0.0007739640569 0.0007730220143 0.00077208258703 0.00077114575314 
0.00077021152973 0.00076927984225 0.00076835073478 0.00076742418573 0.00076650013143 0.00076557861104 0.00079286462553 0.00079186900488 0.00079087623008 
0.00078988627089 0.00078889916286 0.0007879147875 0.00078693328591 0.00078595452248 0.00078497854498 0.0007840053059 0.00078303483514 0.00078206713652 
0.00078110209573 0.00078013977774 0.0007791801883 0.00077822325244 0.00077726901356 0.00077631741528 0.00077536845066 0.000774422118 0.0007734783805 
0.00077253727807 0.00077159878192 0.00077066284691 0.0007697295203 0.00076879872745 0.00076787049973 0.00076694483421 0.00076602170503 0.00076510107528 
0.00079236239657 0.00079136773092 0.0007903759095 0.00078938688601 0.00078840073709 0.0007874173158 0.0007864367518 0.00078545895154 0.0007844839059 
0.00078351168194 0.00078254212834 0.00078157532303 0.00078061124909 0.00077964984233 0.00077869119632 0.00077773516557 0.00077678185605 0.00077583117039 
0.00077488312335 0.00077393769763 0.00077299490341 0.00077205472465 0.00077111714817 0.00077018211572 0.00076924967344 0.00076831979636 0.00076739246894 
0.00076646770228 0.00076554546878 0.00076462573082 0.00079186238866 0.00079086867726 0.00078987780116 0.00078888973638 0.00078790446018 0.0007869220465 
0.00078594246331 0.00078496559704 0.00078399151752 0.00078302020018 0.00078205162313 0.00078108573052 0.00078012257957 0.00077916216615 0.00077820438801 
0.00077724930751 0.00077629688092 0.00077534711385 0.00077439998838 0.00077345550401 0.00077251363994 0.00077157436873 0.00077063768739 0.00076970358658 
0.00076877204475 0.00076784306671 0.00076691663896 0.0007659927705 0.00076507140111 0.0007641525758 0.00079136459916 0.00079037184841 0.00078938191627 
0.00078839480899 0.00078741047153 0.0007864290064 0.00078545036781 0.00078447445315 0.00078350132953 0.0007825309534 0.00078156329985 0.00078059836729 
0.00077963617481 0.00077867665309 0.00077771982701 0.00077676565164 0.00077581413119 0.00077486532092 0.00077391910346 0.00077297552814 0.00077203456601 
0.00077109621902 0.00077016044783 0.00076922725447 0.0007682966174 0.00076736854714 0.00076644301471 0.00076552004343 0.00076459957586 0.00076368156544 
0.0007908690444 0.00078987726558 0.00078888826583 0.00078790210376 0.00078691872371 0.00078593818206 0.00078496049876 0.00078398557084 0.0007830133525 
0.00078204391385 0.00078107719435 0.00078011319735 0.00077915193354 0.00077819334456 0.00077723745025 0.00077628419686 0.00077533360014 0.00077438573604 
0.00077344044126 0.00077249777123 0.0007715577242 0.00077062027608 0.00076968542871 0.00076875314275 0.00076782341037 0.00076689623984 0.00076597157251 
0.00076504949516 0.00076412991048 0.0007632128316 0.0007903756953 0.00078938488794 0.00078839682114 0.00078741161507 0.00078642920154 0.0007854496059 
0.00078447285076 0.00078349885495 0.0007825276176 0.00078155908846 0.00078059330604 0.0007796302813 0.00077866993137 0.00077771226116 0.00077675725192 
0.0007758049651 0.00077485532513 0.00077390833274 0.00077296396785 0.00077202223699 0.00077108308168 0.00077014654527 0.00076921259315 0.0007682811915 
0.00076735237259 0.00076642609311 0.00076550235886 0.00076458117727 0.00076366248408 0.00076274629391 0.00078988461694 0.0007888947242 0.00078790763805 
0.00078692330855 0.00078594187487 0.00078496322513 0.00078398739635 0.00078301434779 0.00078204405239 0.00078107647264 0.00078011164737 0.00077914952045 
0.00077819010316 0.00077723337512 0.00077627930803 0.00077532793507 0.00077437921422 0.00077343314294 0.00077248970116 0.00077154887613 0.00077061063229 
0.00076967498429 0.00076874194065 0.0007678114667 0.00076688355062 0.00076595818475 0.00076503537385 0.0007641150596 0.00076319726387 0.00076228194914 
0.00078939567354 0.00078840674475 0.00078742063663 0.0007864372659 0.00078545677938 0.00078447907478 0.00078350418135 0.00078253203777 0.00078156266949 
0.00078059607543 0.00077963217539 0.00077867099474 0.00077771248286 0.00077675668868 0.00077580356666 0.00077485310138 0.0007739052691 0.00077296011826 
0.00077201760636 0.00077107768113 0.00077014038967 0.00076920567467 0.00076827351603 0.00076734394713 0.00076641693329 0.00076549246272 0.00076457054815 
0.00076365113573 0.00076273422181 0.00076181979869 0.00078890899671 0.0007879209714 0.00078693576874 0.00078595336536 0.00078497382591 0.00078399706638 
0.00078302314536 0.00078205195946 0.00078108353694 0.00078011786676 0.00077915489028 0.00077819460324 0.00077723701634 0.00077628215249 0.00077532995689 
0.00077438043384 0.00077343354075 0.00077248930711 0.00077154771654 0.00077060873351 0.00076967232264 0.0007687385176 0.00076780729279 0.00076687860549 
0.00076595249607 0.00076502892292 0.00076410789593 0.00076318938016 0.00076227335605 0.00076135981798 0.0007884244154 0.00078743737074 0.00078645305894 
0.00078547163678 0.00078449306249 0.00078351727369 0.00078254427409 0.00078157400653 0.00078060653137 0.00077964176788 0.00077867969953 0.00077772039958 
0.00077676377568 0.00077580981375 0.0007748585443 0.00077390994126 0.00077296398772 0.0007720206436 0.00077107998458 0.00077014190476 0.000769206406 
0.00076827352671 0.00076734320459 0.00076641544386 0.00076549021376 0.00076456752888 0.00076364740702 0.00076272976942 0.00076181464459 0.0007609020047 
0.00078794201124 0.00078695587503 0.00078597250773 0.00078499203671 0.00078401438991 0.00078303955945 0.00078206751482 0.00078109824136 0.00078013167186 
0.00077916782858 0.00077820670916 0.0007772483298 0.00077629264734 0.00077533964334 0.00077438929938 0.00077344161979 0.000772496566 0.00077155415757 
0.0007706143998 0.00076967723973 0.00076874268125 0.00076781067556 0.00076688125957 0.00076595440218 0.00076503008141 0.00076410828114 0.00076318906683 
0.00076227231461 0.00076135806826 0.00076044630891 0.00078746173734 0.00078647647585 0.00078549410711 0.00078451458979 0.0007835379234 0.00078256399669 
0.00078159293098 0.00078062456684 0.00077965890706 0.00077869601305 0.00077773584348 0.0007767783821 0.00077582364471 0.00077487156531 0.0007739221561 
0.00077297538873 0.00077203128632 0.00077108979513 0.00077015095318 0.00076921467487 0.00076828101462 0.00076734994706 0.00076642141729 0.00076549546185 
0.00076457204011 0.00076365120219 0.0007627328245 0.00076181694299 0.00076090359063 0.00075999270538 0.00078698353812 0.00078599924786 0.00078501785247 
0.00078403924813 0.00078306351442 0.00078209053171 0.00078112040627 0.00078015295452 0.00077918826192 0.00077822630434 0.00077726705288 0.0007763105389 
0.000775356706 0.00077440558652 0.00077345710289 0.00077251125806 0.00077156807068 0.00077062749793 0.00076968955613 0.00076875423183 0.00076782148178 
0.00076689129896 0.00076596371169 0.00076503862396 0.00076411610881 0.00076319615927 0.0007622786889 0.0007613636814 0.00076045119877 0.00075954121218 
0.00078650740728 0.0007855240671 0.0007845436084 0.00078356594908 0.00078259117011 0.00078161915543 0.00078064989724 0.00077968341087 0.00077871967473 
0.0007777586534 0.00077680033859 0.00077584475915 0.00077489185614 0.00077394164482 0.00077299410034 0.0007720491779 0.00077110690993 0.00077016725533 
0.00076923023007 0.00076829584171 0.00076736398731 0.00076643472873 0.00076550803612 0.00076458388575 0.00076366222002 0.00076274316719 0.00076182658945 
0.00076091248098 0.00076000084569 0.00075909174311 0.00078603321549 0.00078505089705 0.000784071393 0.00078309469569 0.00078212086803 0.00078114974425 
0.00078018145649 0.00077921591279 0.00077825309613 0.0007772930295 0.00077633564214 0.00077538097837 0.0007744290207 0.00077347972452 0.00077253310415 
0.0007715891167 0.00077064777043 0.000769709041 0.00076877293105 0.00076783945476 0.00076690852176 0.00076598015051 0.00076505435574 0.00076413111699 
0.00076321036937 0.00076229221178 0.00076137646789 0.00076046326541 0.00075955255643 0.00075864431439 0.00078556107463 0.00078457970621 0.00078360115104 
0.00078262543282 0.00078165247802 0.00078068235406 0.00077971500012 0.00077875039353 0.00077778851497 0.00077682936098 0.00077587292676 0.00077491919485 
0.00077396815092 0.00077301979567 0.00077207408172 0.00077113105692 0.00077019061863 0.00076925280509 0.00076831761041 0.00076738503822 0.00076645501854 
0.00076552756832 0.00076460265168 0.00076368027889 0.0007627604736 0.00076184317401 0.00076092836666 0.00076001606679 0.00075910620285 0.00075819884087 
0.00078509088204 0.00078411045963 0.00078313287883 0.00078215807855 0.00078118606749 0.00078021688726 0.00077925046496 0.0007782867984 0.00077732585806 
0.00077636765351 0.00077541213002 0.00077445934891 0.00077350924199 0.00077256181369 0.00077161702459 0.00077067490343 0.00076973539868 0.0007687984934 
0.00076786421775 0.00076693256215 0.00076600344895 0.00076507686219 0.00076415286067 0.00076323140013 0.00076231253952 0.00076139609821 0.00076048216202 
0.00075957075762 0.00075866181726 0.00075775536946 0.00078462253773 0.00078364311225 0.0007826664784 0.0007816926052 0.00078072155467 0.00077975330147 
0.00077878783038 0.00077782510393 0.0007768651017 0.00077590781956 0.00077495324482 0.00077400137711 0.00077305221674 0.00077210570695 0.00077116185586 
0.00077022063598 0.00076928204745 0.00076834607718 0.00076741269841 0.00076648192167 0.00076555372102 0.00076462808002 0.00076370499488 0.0007627844219 
0.00076186642339 0.0007609509228 0.00076003791767 0.00075912736746 0.00075821931987 0.00075731374686 0.00078415608674 0.00078317759317 0.00078220187459 
0.0007812289772 0.00078025889106 0.0007792915709 0.00077832703145 0.0007773652453 0.00077640618904 0.00077544984797 0.00077449619824 0.0007735452667 
0.00077259701255 0.00077165143915 0.00077070848155 0.00076976821016 0.00076883054271 0.00076789545665 0.00076696300646 0.00076603317616 0.00076510587522 
0.00076418111851 0.000763258937 0.00076233928759 0.00076142219648 0.00076050759294 0.00075959547973 0.00075868581745 0.00075777865468 0.00075687391935 
0.00080776539324 0.0008067469384 0.00080573128671 0.00080471858338 0.00080370872809 0.00080270171047 0.00080169757154 0.0008006962562 0.00079969781872 
0.00079870217874 0.00079770935308 0.0007967192961 0.00079573204549 0.00079474754327 0.00079376579021 0.00079278678973 0.00079181052312 0.00079083697234 
0.00078986612628 0.00078889795859 0.00078793250888 0.00078696968161 0.00078600952595 0.00078505202964 0.00078409715871 0.00078314489602 0.00078219529959 
0.00078124829558 0.00078030384179 0.00077936194973 0.00080723489895 0.00080621737178 0.00080520274031 0.0008041910164 0.00080318207945 0.00080217604312 
0.0008011729005 0.00080017254568 0.00079917507191 0.00079818039229 0.00079718851332 0.00079619944139 0.00079521312604 0.00079422958157 0.00079324877956 
0.00079227072658 0.00079129538993 0.00079032279139 0.00078935287259 0.00078838567884 0.00078742114636 0.0007864592663 0.00078550007384 0.0007845435077 
0.00078358954482 0.00078263822633 0.00078168952059 0.00078074343811 0.00077979992405 0.0007788589948 0.00080670624024 0.00080568968687 0.00080467604741 
0.00080366529815 0.00080265735109 0.00080165227827 0.0008006501019 0.00079965070963 0.00079865420013 0.00079766048121 0.00079666955972 0.00079568143774 
0.00079469609801 0.00079371348699 0.00079273364126 0.00079175653798 0.00079078214789 0.00078981050072 0.0007888415332 0.0007878752937 0.00078691167469 
0.00078595070456 0.00078499240592 0.00078403679544 0.00078308378096 0.00078213338639 0.0007811856039 0.00078024044209 0.00077929784953 0.00077835783526 
0.00080617958427 0.00080516402399 0.00080415130296 0.00080314146973 0.00080213449715 0.00080113040224 0.00080012915358 0.00079913076971 0.00079813521774 
0.00079714245864 0.00079615249588 0.0007951653526 0.0007941809685 0.00079319932056 0.00079222041623 0.00079124425735 0.00079027082682 0.00078930009395 
0.0007883320661 0.00078736674199 0.00078640405694 0.00078544404777 0.00078448669077 0.00078353197392 0.00078257989604 0.00078163042555 0.00078068356447 
0.00077973933859 0.00077879766746 0.00077785856594 0.00080565482939 0.00080464022302 0.00080362850077 0.00080261965192 0.00080161367234 0.00080061054623 
0.0007996102247 0.00079861281458 0.00079761820999 0.00079662641156 0.0007956374021 0.00079465119887 0.00079366775756 0.00079268707704 0.00079170909362 
0.0007907338961 0.00078976139563 0.00078879160577 0.00078782455949 0.00078686013952 0.00078589841257 0.00078493933713 0.00078398291134 0.00078302912313 
0.00078207797065 0.00078112942082 0.00078018348493 0.00077924015126 0.00077829939545 0.00077736120607 0.00080513202478 0.0008041184132 0.00080310761125 
0.00080209980003 0.00080109479994 0.00080009262973 0.00079909329605 0.00079809684931 0.00079710320858 0.00079611233354 0.00079512424904 0.00079413899318 
0.00079315649548 0.00079217675228 0.00079119977319 0.00079022552428 0.00078925397929 0.00078828516602 0.00078731901648 0.00078635552173 0.00078539471953 
0.00078443660057 0.00078348110503 0.0007825282416 0.00078157801822 0.00078063039383 0.00077968537241 0.00077874295678 0.00077780313405 0.0007768658417 
0.00080461125804 0.00080359855686 0.00080258878849 0.00080158194552 0.00080057791647 0.00079957670954 0.0007985783285 0.0007975828244 0.00079659013679 
0.00079560025738 0.00079461316945 0.00079362887289 0.00079264731673 0.00079166853681 0.00079069245881 0.00078971915684 0.00078874855262 0.00078778070116 
0.00078681547899 0.00078585293234 0.00078489305557 0.00078393584188 0.0007829813005 0.00078202937047 0.00078108006707 0.00078013338297 0.00077918928098 
0.00077824778098 0.00077730883209 0.00077637247278 0.0008040924719 0.00080308077757 0.00080207200312 0.00080106610575 0.0008000630444 0.00079906279043 
0.0007980654483 0.00079707088576 0.00079607914475 0.00079509022367 0.0007941041065 0.00079312073843 0.00079214014612 0.00079116232086 0.0007901872316 
0.00078921486195 0.00078824525826 0.00078727830474 0.00078631403061 0.00078535236462 0.00078439342242 0.00078343714463 0.00078248352951 0.00078153254883 
0.00078058416905 0.0007796383905 0.00077869518273 0.00077775460633 0.00077681660386 0.00077588115452 0.00080357579958 0.00080256510203 0.00080155729758 
0.00080055235036 0.00079955027419 0.00079855098385 0.0007975546055 0.0007965610401 0.00079557024189 0.00079458224398 0.00079359708631 0.00079261468325 
0.00079163504282 0.00079065816714 0.00078968402671 0.00078871264493 0.00078774392756 0.00078677792375 0.00078581458818 0.00078485393161 0.00078389592613 
0.00078294056915 0.00078198786915 0.00078103778391 0.00078009034554 0.00077914544005 0.00077820317246 0.00077726352377 0.00077632640245 0.00077539185097 
0.00080306123834 0.00080205152295 0.0008010446873 0.00080004070834 0.00079903959824 0.00079804128481 0.00079704584997 0.0007960532516 0.00079506343333 
0.00079407639107 0.0007930921685 0.00079211071882 0.00079113204846 0.00079015610306 0.00078918291088 0.00078821245927 0.00078724469545 0.00078627965164 
0.00078531725436 0.00078435751635 0.00078340045742 0.00078244599922 0.0007814942193 0.00078054504018 0.00077959852536 0.00077865463593 0.0007777132846 
0.00077677452066 0.00077583832076 0.00077490467267 0.00080254878645 0.00080154004829 0.00080053419473 0.00079953118333 0.00079853102021 0.00079753368244 
0.00079653921502 0.00079554756088 0.00079455868762 0.00079357263967 0.00079258935399 0.00079160887627 0.0007906311175 0.0007896561441 0.00078868391882 
0.00078771440955 0.00078674758765 0.00078578344311 0.00078482201331 0.00078386320909 0.00078290707784 0.00078195359028 0.00078100269563 0.00078005447303 
0.00077910887013 0.00077816584278 0.00077722543578 0.00077628759681 0.00077535230732 0.00077441957083 0.00080203847774 0.00080103069461 0.00080002581139 
0.00079902377751 0.00079802453424 0.00079702821266 0.00079603469962 0.00079504401242 0.00079405612657 0.00079307105289 0.00079208872142 0.00079110916953 
0.00079013239672 0.00078915836989 0.00078818704976 0.00078721848091 0.00078625258878 0.00078528939206 0.00078432887721 0.00078337102294 0.00078241582126 
0.00078146324693 0.00078051332625 0.00077956600179 0.00077862130284 0.0007776792047 0.00077673968544 0.00077580278855 0.00077486840874 0.00077393657899 
0.00080153031575 0.00080052353617 0.00079951957578 0.00079851851153 0.00079752024481 0.00079652485199 0.00079553232472 0.00079454260338 0.00079355567576 
0.00079257155116 0.00079159022411 0.0007906116127 0.00078963575394 0.00078866270622 0.00078769230947 0.00078672467506 0.00078575972136 0.00078479746596 
0.00078383788908 0.00078288095299 0.00078192669627 0.00078097505414 0.00078002605345 0.00077907965491 0.00077813587673 0.00077719469589 0.00077625611296 
0.00077532011012 0.00077438663774 0.00077345571414 0.00080102434603 0.00080001849354 0.00079901550123 0.00079801538445 0.00079701808329 0.0007960236642 
0.00079503212212 0.00079404333885 0.00079305737518 0.0007920742179 0.00079109383383 0.00079011620571 0.00078914133645 0.00078816916395 0.00078719973313 
0.00078623302128 0.00078526899827 0.0007843076844 0.00078334899029 0.00078239302533 0.00078143968619 0.00078048899846 0.00077954092313 0.00077859545204 
0.00077765258943 0.00077671232501 0.00077577465549 0.00077483953627 0.0007739070019 0.00077297694835 0.00080052049424 0.00079951560986 0.00079851357879 
0.00079751442562 0.00079651807582 0.00079552463764 0.00079453406125 0.00079354623638 0.00079256122313 0.00079157905 0.00079059959795 0.00078962295006 
0.00078864901196 0.00078767778947 0.00078670928153 0.00078574351009 0.00078478044133 0.00078382003206 0.00078286231219 0.00078190726544 0.00078095485662 
0.00078000508295 0.00077905794618 0.00077811339747 0.00077717145838 0.00077623209453 0.00077529530647 0.0007743610979 0.00077342944139 0.00077250035494 
0.0008000187979 0.00079901488121 0.00079801380798 0.00079701558029 0.00079602025633 0.00079502775455 0.00079403813777 0.00079305130282 0.0007920672635 
0.00079108601186 0.00079010751182 0.00078913180879 0.00078815881683 0.00078718853023 0.00078622098826 0.00078525615766 0.0007842940162 0.00078333456685 
0.00078237775922 0.00078142363395 0.00078047216424 0.00077952331694 0.00077857709253 0.00077763348808 0.00077669242234 0.00077575398666 0.00077481814425 
0.00077388484538 0.00077295409563 0.0007720258804 0.00079951926083 0.00079851629672 0.00079751620949 0.00079651893787 0.00079552457331 0.00079453303613 
0.00079354437251 0.00079255849526 0.00079157543861 0.00079059512077 0.0007896175932 0.00078864280399 0.0007876707599 0.00078670146982 0.00078573485302 
0.00078477093709 0.00078380974107 0.00078285122798 0.00078189536548 0.00078094216015 0.00077999158452 0.00077904366342 0.00077809836034 0.00077715566321 
0.00077621556389 0.00077527804324 0.00077434311544 0.00077341072364 0.00077248086721 0.00077155357204 0.000799021879 0.00079801988105 0.00079702073327 
0.00079602445319 0.00079503105732 0.00079404048085 0.00079305274376 0.00079206781417 0.00079108572321 0.00079010639333 0.00078912980659 0.00078815596727 
0.00078718488232 0.00078621651683 0.00078525083082 0.00078428786485 0.0007833276286 0.00078236999145 0.00078141506635 0.00078046281389 0.00077951317911 
0.00077856618363 0.00077762180347 0.0007766800265 0.00077574083128 0.00077480422505 0.00077387022371 0.00077293874519 0.00077200979952 0.0007710833947 
0.00079852664534 0.00079752559273 0.00079652739133 0.00079553212586 0.00079453964532 0.00079355002953 0.00079256325129 0.00079157932004 0.00079059814888 
0.00078961978847 0.00078864415564 0.00078767126509 0.00078670111538 0.00078573363409 0.00078476892501 0.00078380690818 0.00078284756722 0.00078189095096 
0.00078093692812 0.00077998559507 0.00077903691486 0.00077809083261 0.00077714737482 0.00077620651746 0.00077526824847 0.00077433255185 0.00077339944928 
0.00077246887586 0.0007715408431 0.00077061533977 0.00079803352438 0.00079703343353 0.00079603617865 0.00079504187065 0.0007940504054 0.00079306174998 
0.00079207593045 0.00079109295605 0.00079011269346 0.00078913527589 0.00078816058141 0.00078718863927 0.000786219408 0.00078525293128 0.00078428916313 
0.00078332808217 0.00078236969933 0.00078141400232 0.00078046093855 0.00077951050776 0.0007785627509 0.00077761761264 0.00077667506389 0.00077573512566 
0.00077479777295 0.00077386301144 0.00077293078299 0.0007720011099 0.00077107399913 0.00077014938952 0.00079754251125 0.00079654329105 0.0007955470581 
0.00079455369543 0.00079356321158 0.00079257551513 0.00079159068583 0.00079060867681 0.0007896293808 0.00078865287392 0.00078767916901 0.00078670811865 
0.00078573985877 0.00078477432445 0.00078381149786 0.00078285135567 0.00078189390995 0.00078093916463 0.000779987017 0.00077903754335 0.00077809067904 
0.00077714646869 0.00077620486474 0.00077526582271 0.0007743293896 0.00077339554165 0.00077246422215 0.00077153545574 0.00077060924271 0.0007696855387 
0.00079705356019 0.00079605533102 0.00079506003809 0.00079406763928 0.00079307811216 0.00079209139434 0.00079110754023 0.00079012645666 0.00078914811447 
0.00078817255998 0.00078719973689 0.00078622973021 0.00078526241946 0.00078429782541 0.00078333591498 0.00078237671017 0.00078142020015 0.00078046639453 
0.00077951517781 0.00077856663221 0.00077762068686 0.00077667739942 0.00077573671556 0.00077479861301 0.00077386308131 0.00077293014962 0.00077199974627 
0.00077107189116 0.00077014655415 0.00076922372324 0.00079656667392 0.00079556944241 0.00079457509802 0.00079358366252 0.00079259507589 0.00079160930723 
0.00079062644719 0.00078964630135 0.00078866892669 0.0007876942813 0.0007867224369 0.00078575337796 0.00078478701288 0.00078382336199 0.00078286241808 
0.00078190415671 0.00078094858247 0.00077999567852 0.00077904541103 0.00077809777809 0.00077715278811 0.00077621038197 0.00077527062077 0.00077433344687 
0.00077339884556 0.00077246679819 0.00077153729598 0.00077061033331 0.0007696859188 0.00076876400673 0.00079608177726 0.00079508556679 0.00079409219728 
0.00079310170631 0.000792114078 0.0007911293176 0.00079014736609 0.00078916817601 0.00078819172707 0.000787218061 0.0007862471664 0.00078527901654 
0.00078431364139 0.00078335093339 0.00078239093029 0.00078143361127 0.00078047896268 0.00077952701712 0.00077857767907 0.00077763098994 0.00077668688808 
0.00077574543506 0.00077480656947 0.00077387031308 0.00077293661009 0.00077200551047 0.00077107689439 0.00077015083519 0.00076922730828 0.0007683063078 
0.0007955989251 0.00079460368051 0.00079361127569 0.0007926217628 0.0007916351085 0.0007906512724 0.00078967026442 0.00078869202081 0.00078771655363 
0.00078674384493 0.00078577389994 0.00078480669751 0.00078384221899 0.00078288049627 0.00078192142856 0.00078096505303 0.00078001133887 0.00077906028305 
0.00077811192101 0.00077716616008 0.0007762230265 0.00077528248189 0.0007743445324 0.00077340916102 0.00077247641306 0.0007715461875 0.00077061850111 
0.00076969333038 0.00076877070372 0.00076785060378 0.00079511802356 0.00079412375344 0.00079313231563 0.00079214379241 0.00079115809494 0.00079017521531 
0.00078919512811 0.00078821784873 0.00078724334942 0.00078627158567 0.00078530258997 0.00078433633496 0.0007833728015 0.00078241200807 0.00078145389423 
0.00078049845593 0.00077954567805 0.00077859555544 0.0007776481301 0.00077670330425 0.00077576109021 0.00077482147864 0.00077388445034 0.00077295001876 
0.00077201816242 0.00077108881521 0.00077016205333 0.00076923780516 0.00076831602807 0.00076739682683 0.00079463905521 0.00079364574003 0.0007926553362 
0.00079166771349 0.00079068300323 0.00078970104055 0.0007887219242 0.00078774559343 0.00078677204821 0.00078580125085 0.00078483320456 0.00078386789646 
0.00078290530887 0.0007819454324 0.00078098828465 0.00078003378449 0.00077908194694 0.00077813276461 0.00077718626494 0.00077624235662 0.00077530106781 
0.00077436238191 0.00077342627657 0.00077249274602 0.0007715618117 0.00077063336843 0.00076970750818 0.00076878413784 0.00076786332147 0.00076694499607 
0.00079416197497 0.00079316964804 0.00079218018014 0.00079119352115 0.00079020973466 0.00078922877315 0.00078825060191 0.00078727523668 0.00078630264432 
0.00078533278403 0.00078436570757 0.00078340133837 0.00078243969791 0.00078148076387 0.00078052454105 0.00077957100805 0.00077862010072 0.00077767184078 
0.00077672627213 0.00077578329511 0.0007748429314 0.00077390516781 0.00077296997811 0.00077203734438 0.00077110730992 0.00077017980998 0.00076925486115 
0.00076833242153 0.00076741248797 0.00076649499966 0.00079368671255 0.00079269536207 0.00079170686099 0.00079072115849 0.00078973835892 0.00078875833923 