# vtk DataFile Version 5.1
vtk output
ASCII
DATASET STRUCTURED_POINTS
DIMENSIONS 60 20 20
SPACING 0.05 0.05 0.05
ORIGIN -0.475 -0.475 0.525
POINT_DATA 24000
FIELD FieldData 1
potential 1 24000 double
0.027126381193 0.02790717875 0.028694333786 0.029486106715 0.030260740657 0.031059830356 0.031858271183 0.032654068237 0.033445263244 
0.034229806156 0.035005657092 0.035770706624 0.036523068281 0.037260668667 0.037981611348 0.038684061943 0.03936631219 0.040026513027 
0.040663075192 0.04127459748 0.041859496872 0.042416657296 0.042944898824 0.043442974731 0.04390986641 0.044344626004 0.044746232645 
0.04511398092 0.045447257686 0.045745768647 0.046009383201 0.046238269347 0.046432695132 0.046593000024 0.046712354508 0.046801371779 
0.04685721169 0.046879932508 0.046869600574 0.046826513923 0.04675061871 0.046641955879 0.046500769235 0.046326935741 0.046120308399 
0.045880955971 0.045608757803 0.045303812501 0.044966131401 0.044595931908 0.044193202231 0.043758112093 0.043291024467 0.042792154481 
0.042261985112 0.041701216799 0.041111066341 0.040492634687 0.039847721207 0.039178063889 0.025863027159 0.026583730651 0.027309505174 
0.02803883369 0.028755586062 0.029491681239 0.03022662248 0.030958751124 0.031686258524 0.032407421234 0.033120423752 0.033823377127 
0.034514651218 0.035192512046 0.035855171917 0.036500963522 0.037128265959 0.037735594826 0.038321377803 0.038884291856 0.03942302072 
0.039936401513 0.040423454142 0.040883027826 0.041314125724 0.041715694679 0.042086899823 0.042426978419 0.042735390184 0.043011791901 
0.043256090997 0.043468488082 0.043648964163 0.043797884687 0.043906189322 0.043988599382 0.044040295305 0.044061316176 0.044051737302 
0.044011876469 0.043941736455 0.043841351445 0.043710740638 0.043549817138 0.043358716092 0.043137250345 0.042885498094 0.042603457058 
0.042291196499 0.041949106981 0.041577099841 0.041175458699 0.040744350935 0.040284180477 0.039795265086 0.039278578686 0.038734955622 
0.038165549157 0.03757191883 0.036955754465 0.024664618393 0.025330335289 0.026000081261 0.026672442165 0.027336740192 0.028015546156 
0.028692850926 0.029367173538 0.030036918799 0.030700553767 0.031356501484 0.032003175743 0.032638991641 0.033262431197 0.03387194888 
0.034466085068 0.035043303842 0.03560222781 0.036141458089 0.036659819484 0.037156188146 0.037629403553 0.038078477865 0.038502410076 
0.038900290198 0.039271227221 0.039614268067 0.039928728346 0.040214084185 0.040469999487 0.040696324709 0.040893180062 0.041060740415 
0.041199214197 0.041297066362 0.041373584826 0.041421627265 0.041441334229 0.041432804324 0.041396086636 0.041331369052 0.041238600549 
0.04111787132 0.040969121808 0.040792330624 0.040587413601 0.040354522907 0.040093718111 0.03980505278 0.03948872806 0.039144951577 
0.038773939209 0.038375977333 0.037951204688 0.037500324306 0.037023877469 0.036522757207 0.035998120555 0.035451371574 0.034884014987 
0.02352978302 0.024145223612 0.024763777817 0.025384235541 0.026001032458 0.026627703889 0.027252604463 0.027874377873 0.028491670455 
0.029103070361 0.029707163998 0.030302590584 0.030887919577 0.031461821427 0.032022871638 0.03256979259 0.033101215689 0.033615848777 
0.034112495036 0.034590063797 0.035047413193 0.035483625227 0.035897740739 0.036288894484 0.036656090066 0.036998576374 0.037315569915 
0.037606322109 0.037870326819 0.038107261309 0.038317066209 0.038499746826 0.038655370911 0.038784237222 0.03887221835 0.038943410528 
0.038988244259 0.039006825485 0.038999289584 0.038965631125 0.038906015753 0.038820392486 0.038708851166 0.038571323873 0.038407795077 
0.038218324313 0.038002896035 0.037761614826 0.037494660504 0.037202198776 0.036884496294 0.036541633736 0.036173907275 0.035781848255 
0.035365703847 0.034926114193 0.034463938651 0.033980266977 0.033476347228 0.032953549495 0.022426556523 0.022996358391 0.023569167203 
0.024143999136 0.024724535124 0.025306090038 0.025885513488 0.026461624255 0.027033125736 0.027598746992 0.028157294671 0.028707416118 
0.029247944772 0.029777638892 0.030295291557 0.030799699433 0.031289762663 0.031764277241 0.032222231025 0.032662536453 0.03308435552 
0.03348683439 0.033869064525 0.034230248997 0.034569660271 0.034886419367 0.0351798407 0.035449327563 0.035694370141 0.035914649661 
0.036110026618 0.036280432144 0.036425867402 0.036546461292 0.036638587759 0.036700275506 0.036737194072 0.03674966061 0.036737776926 
0.03670177136 0.036641807599 0.036558010101 0.036450458232 0.036319290506 0.036164540543 0.035986125804 0.035784195857 0.035558901345 
0.035310394034 0.035038799064 0.034744239371 0.03442706492 0.034087357962 0.033725418568 0.033341617391 0.032936494349 0.032510746585 
0.03206528571 0.031601148897 0.031119496695 0.021418322445 0.021946588134 0.0224772911 0.0230095703 0.023547469999 0.024084945656 
0.024620243136 0.025152233075 0.025679858814 0.0262019687 0.026717437781 0.027225124174 0.02772387593 0.028212599179 0.028690206512 
0.029155659659 0.029607815285 0.030045726858 0.030468376842 0.030874925398 0.031264424492 0.031636064477 0.031989166569 0.032322900759 
0.032636499931 0.032929279098 0.033200514547 0.033449731856 0.033676355008 0.033880173874 0.034060951515 0.034218645075 0.034353222436 
0.03446469333 0.034549103501 0.034607235189 0.03464233979 0.034654628119 0.034644264514 0.034611400331 0.034556176661 0.034478745427 
0.034379272196 0.034257686545 0.034114112783 0.033948673408 0.03376153614 0.033552673801 0.033322318727 0.033070597524 0.03279782439 
0.032504137502 0.032189752693 0.031854912801 0.031500064084 0.031125673412 0.030732480947 0.030321277111 0.029893032065 0.029448798104 
0.020469368078 0.020959581564 0.02145179041 0.021945181449 0.022445223162 0.022942475611 0.023437552692 0.023929443699 0.024417155112 
0.024899591578 0.025375829175 0.025844777145 0.026305471816 0.026756887868 0.027197984343 0.027627830404 0.028045455435 0.028449913404 
0.028840335306 0.029215886514 0.029575756808 0.029919228366 0.030245569957 0.03055403409 0.030843952976 0.031114645905 0.031365529031 
0.031596015549 0.031805779267 0.031994444717 0.03216184034 0.032307822847 0.032432384755 0.032535527965 0.032613026216 0.032667868953 
0.032701256279 0.032713330452 0.032704274877 0.032674274149 0.032623469848 0.032551907408 0.032459771219 0.032347064333 0.032213977772 
0.032060538918 0.031886886307 0.031693083617 0.031479490031 0.031246212801 0.030993429404 0.030721311653 0.030430141745 0.030120212319 
0.02979192432 0.0294457994 0.029082413466 0.028702582221 0.028307141955 0.027897085969 0.019577629984 0.02003302623 0.020489979136 
0.020947765813 0.021414269128 0.02187483725 0.022333246412 0.022788577352 0.023239899784 0.023686285271 0.024126829798 0.024560467598 
0.024986465732 0.025403832122 0.025811613335 0.026209029216 0.026595120086 0.026969067095 0.027330054235 0.027677332606 0.028010105938 
0.028327718847 0.028629497124 0.028914814633 0.029182995312 0.029433462288 0.029665638239 0.029878989182 0.030073194501 0.030247915425 
0.030402964476 0.030538239231 0.030653612869 0.03074906634 0.030820481111 0.030872157566 0.0309038593 0.0309157479 0.030907909432 
0.030880508159 0.030833683936 0.030767482265 0.030682160558 0.030577689002 0.030454228597 0.03031181121 0.030150666401 0.02997089991 
0.029772703143 0.029556291345 0.029321832808 0.029069549423 0.028799751367 0.028512691369 0.02820873903 0.0278884484 0.027552376497 
0.027201225876 0.026835812841 0.026456962525 0.018740671506 0.019164154871 0.019588851578 0.020014096937 0.020450807874 0.020877935087 
0.02130288992 0.021724874544 0.022143032452 0.022556526142 0.022964497637 0.023366116917 0.023760486929 0.024146745822 0.024524217285 
0.024892012467 0.025249379068 0.025595474911 0.025929572914 0.026250990143 0.026559006682 0.026853030256 0.027132341689 0.027396450974 
0.02764473879 0.027876641853 0.028091622972 0.028289294719 0.028469234524 0.028631190395 0.028774940292 0.028900248911 0.029007196373 
0.029095572479 0.029161533684 0.029210256951 0.029240362358 0.029251952729 0.029245187974 0.029220123258 0.029176972301 0.029115781114 
0.029036681324 0.028939752867 0.028825161228 0.028692983483 0.02854337798 0.028376470205 0.028192510463 0.027991581735 0.02777399334 
0.02753997174 0.027289740364 0.027023613901 0.026742019441 0.026445393567 0.026134303521 0.025809375994 0.025471298041 0.025120964693 
0.017955749508 0.018349997367 0.018745138065 0.019140559255 0.019550918819 0.019947480339 0.020341910353 0.020733489705 0.021121411435 
0.021504899988 0.021883182875 0.02225549151 0.022621093282 0.022979158349 0.02332896648 0.023669774132 0.024000749584 0.024321425926 
0.024631007297 0.024928822572 0.025214253734 0.025486675666 0.02574554987 0.025990280177 0.02622034993 0.026435309329 0.026634612042 
0.026817857994 0.026984718786 0.027134901924 0.027268215936 0.027384494802 0.027483621642 0.02756551154 0.027626602522 0.02767249932 
0.027701049937 0.027712314888 0.027706458133 0.027683546606 0.027643696536 0.027587050381 0.027513691091 0.027423739353 0.027317324857 
0.027194559047 0.027055599447 0.026900555183 0.026729628173 0.02654304376 0.026340970666 0.026123703251 0.025891466773 0.025644588727 
0.025383444448 0.025108512203 0.024820207592 0.024519201386 0.024206147026 0.02388174113 0.017219952293 0.017587407833 0.017955480495 
0.018323555035 0.018710544805 0.019079222235 0.019445800963 0.019809592427 0.020169913229 0.020526034609 0.020877217414 0.021222811923 
0.021562074638 0.021894342782 0.022218926683 0.022535120882 0.022842274289 0.023139755285 0.023426951239 0.023703237158 0.023967915879 
0.024220670785 0.024460832833 0.024687896731 0.024901363661 0.025100765083 0.02528566169 0.025455786514 0.025610667155 0.025750110511 
0.025873840227 0.025981774219 0.026073718807 0.026149614546 0.026206356454 0.026249570651 0.026276589968 0.026287488772 0.026282381011 
0.026261384329 0.026224581337 0.026172106281 0.026104038875 0.026020482954 0.025921586919 0.025807501106 0.025678305299 0.025534179791 
0.025375323318 0.025201911439 0.02501415196 0.024812273238 0.02459656063 0.024367318196 0.024124947328 0.023869798021 0.02360237719 
0.023323221286 0.02303295316 0.022732221396 0.016530298004 0.016873180285 0.01721643768 0.017559471159 0.017925671923 0.018268843558 
0.018609970334 0.018948405372 0.019283494148 0.019614602195 0.019941117704 0.020262291553 0.020577558588 0.020886284274 0.021187809809 
0.021481525556 0.021766868028 0.022043190951 0.022309944961 0.022566562782 0.022812547099 0.02304732904 0.023270407347 0.023481340842 
0.023679648387 0.023864871877 0.024036686834 0.024194699219 0.02433861385 0.024468159936 0.024583129158 0.024683375407 0.02476872958 
0.024839116607 0.024891957447 0.024932562553 0.024958067013 0.024968599515 0.024964102916 0.02494478862 0.024910761935 0.024862045655 
0.024798807662 0.024721188429 0.02462922068 0.024523077928 0.024402905892 0.024268869876 0.024121115525 0.023959811396 0.023785212071 
0.023597532117 0.023397001069 0.023183968997 0.022958770164 0.022721760174 0.022473416374 0.022214227161 0.021944761259 0.021665612755 
0.015883844526 0.016204164658 0.016524612107 0.016844655684 0.017192353022 0.017512209272 0.017830072578 0.018145323838 0.018457388006 
0.018765656617 0.019069543096 0.019368457582 0.019661816595 0.01994900903 0.020229496976 0.020502725117 0.020768094889 0.021025107149 
0.021273216015 0.021511907727 0.021740678915 0.021959072395 0.022166596899 0.022362807875 0.02254728746 0.022719614586 0.022879444506 
0.023026448792 0.023160284059 0.023280787434 0.023387711967 0.023480896607 0.023560197365 0.023625516063 0.023674842406 0.023713002275 
0.023737035588 0.02374705272 0.023743118129 0.023725332449 0.023693745303 0.023648520585 0.023589735389 0.023517471644 0.023431886368 
0.023333095942 0.023221243858 0.023096460787 0.022958948467 0.022808840203 0.022646377345 0.022471735328 0.022285199234 0.022087030568 
0.021877580613 0.021657179856 0.021426274722 0.021185326293 0.020934832443 0.020675352889 0.015277555265 0.015577144967 0.015876630125 
0.016175577648 0.016506717461 0.016805247895 0.017101807414 0.01739587418 0.017686867942 0.017974254805 0.018257486903 0.01853602639 
0.018809342705 0.019076878599 0.019338125943 0.019592627386 0.019839807776 0.020079163738 0.020310240582 0.020532549752 0.020745633278 
0.020949050075 0.02114236612 0.021325146187 0.021496980038 0.021657527912 0.021806423204 0.021943352455 0.022068035077 0.022180231603 
0.022279769877 0.022366435535 0.022440178815 0.022500852035 0.022547024053 0.022582799857 0.022605419654 0.022614919569 0.022611408416 
0.02259495238 0.022565616538 0.022523545306 0.02246880011 0.022401528992 0.022321799937 0.022229778771 0.022125580953 0.022009352798 
0.021881248052 0.021741460259 0.021590150749 0.021427515777 0.021253822045 0.021069336449 0.020874325074 0.020669147775 0.02045420509 
0.020229896611 0.019996702487 0.019755175925 0.014708342401 0.01498888447 0.015269104884 0.015548585981 0.015864913645 0.016143904798 
0.016420958244 0.016695602747 0.016967321707 0.01723560728 0.017499941928 0.017759855697 0.018014839275 0.018264394538 0.018508090957 
0.018745410926 0.018975904491 0.019199132784 0.019414677039 0.019622023989 0.019820770464 0.020010499925 0.020190822092 0.020361326963 
0.020521652863 0.020671424883 0.020810337087 0.020938059849 0.021054338144 0.021158932456 0.021251652549 0.021332396911 0.021401018249 
0.021457420209 0.021500733114 0.021534239961 0.02155546984 0.021564441154 0.021561268111 0.021545984683 0.021518672703 0.021479472757 
0.021428444945 0.021365688733 0.021291361927 0.021205605884 0.021108469152 0.021000109136 0.02088069521 0.020750393555 0.020609356458 
0.020457804392 0.020295924392 0.020123984698 0.019942237835 0.019751010677 0.01955063845 0.019341545312 0.019124188177 0.018899036716 
0.014173047468 0.014436041114 0.014698529998 0.014960128561 0.015262978481 0.015524092609 0.015783286356 0.01604012978 0.016294178141 
0.016544949577 0.016791986384 0.017034829281 0.017273039042 0.017506146783 0.017733713678 0.017955346936 0.018170612373 0.018379093944 
0.018580361846 0.018774007884 0.018959638154 0.019136878839 0.019305316269 0.019464596754 0.019614377749 0.019754323761 0.019884081879 
0.020003383335 0.020111936573 0.02020955513 0.020296069324 0.020371341793 0.020435260749 0.020487772966 0.020528453123 0.020559805935 
0.020579674753 0.020588111896 0.020585188253 0.02057096665 0.020545494703 0.020508887051 0.020461257573 0.020402707884 0.020333361565 
0.020253311025 0.020162662011 0.020061580772 0.019950200752 0.01982863798 0.019697066169 0.019555689605 0.019404710781 0.019244299813 
0.01907472222 0.018896249802 0.018709250116 0.018514081797 0.018311178124 0.018100998589 0.013668379115 0.013915192821 0.01416132852 
0.014406420086 0.014697026861 0.014941671176 0.015184491015 0.015425013175 0.015662842386 0.015897560528 0.01612872306 0.016355913493 
0.016578711136 0.016796722356 0.017009538433 0.017216789475 0.017418069758 0.017613026718 0.017801252208 0.01798236653 0.018155981992 
0.018321762014 0.018479319001 0.018628330173 0.018768435149 0.01889932581 0.01902068252 0.0191322306 0.019233732769 0.019324966543 
0.019405751667 0.019476028326 0.019535682847 0.019584608324 0.019622895902 0.019652178884 0.019670753419 0.019678639398 0.01967588538 
0.019662558038 0.01963875055 0.019604539968 0.019560039912 0.019505339086 0.019440573291 0.019365818344 0.01928120476 0.019186821207 
0.019082820542 0.018969332656 0.018846506606 0.018714502323 0.018573481981 0.018423654995 0.018265250277 0.018098522729 0.017923776874 
0.017741364563 0.017551715775 0.017355251986 0.013190925535 0.013422762955 0.013653777092 0.013883651829 0.014162965879 0.014392505173 
0.014620248883 0.014845764783 0.015068688169 0.015288639502 0.015505206598 0.01571800282 0.015926665384 0.016130804241 0.016330070897 
0.016524096481 0.016712552756 0.016895075235 0.017071310145 0.01724090427 0.017403495348 0.017558743291 0.017706315155 0.017845861138 
0.017977077989 0.018099643358 0.018213277066 0.018317716977 0.018412711291 0.018498061129 0.018573652158 0.018639336039 0.018695059418 
0.018740775 0.018776836689 0.018804136429 0.018821441454 0.018828755112 0.018826131417 0.018813636042 0.018791334355 0.018759313454 
0.018717678355 0.018666537969 0.018605992374 0.018536134721 0.018457065189 0.018368890109 0.018271711071 0.018165671149 0.018050882392 
0.017927491687 0.017795671383 0.017655574126 0.017507441663 0.017351490985 0.0171879984 0.017017336538 0.016839853117 0.016655982875 
0.012737201249 0.01295516273 0.013172173169 0.013387933811 0.013656735392 0.013872355225 0.014086174748 0.01429789573 0.014507087684 
0.014713426807 0.01491655757 0.015116108809 0.015311734773 0.015503108471 0.015689884077 0.015871759767 0.01604839919 0.016219481843 
0.016384676909 0.016543649627 0.016696065713 0.016841592658 0.016979933847 0.017110756577 0.0172337637 0.017348670459 0.017455190764 
0.017553065474 0.017642065025 0.01772201553 0.017792799864 0.017854292442 0.017906429172 0.017949197768 0.01798318537 0.018008628038 
0.018024717122 0.018031464967 0.018028939303 0.018017172354 0.017996257729 0.017966262278 0.017927295452 0.01787944068 0.017822798936 
0.017757471556 0.01768352324 0.017601055276 0.017510169007 0.017410983648 0.017303602252 0.0171881679 0.017064816452 0.016933718743 
0.016795050912 0.01664902001 0.016495916055 0.01633605127 0.016169778557 0.015997486651 0.012303771129 0.012508839544 0.012712851815 
0.012915504685 0.013174367236 0.013377140788 0.013578138003 0.013777042284 0.013973582437 0.014167352406 0.014358061134 0.01454537913 
0.014728971998 0.01490855343 0.015083812293 0.015254455181 0.015420179758 0.015580685302 0.015735662738 0.015884801177 0.016027797366 
0.016164347431 0.016294133016 0.016416868872 0.016532274926 0.016640062919 0.016739980365 0.016831782966 0.016915264125 0.016990230484 
0.017056583647 0.017114232995 0.017163111241 0.017203189433 0.017235241617 0.017258911055 0.017273836217 0.017280061052 0.017277608548 
0.017266503998 0.017246866719 0.017218754037 0.017182256755 0.017137458492 0.017084439471 0.017023274855 0.016954056889 0.016876873283 
0.016791815957 0.016698958749 0.016598423573 0.016490328907 0.016374801822 0.016251978619 0.016122048885 0.015985199909 0.01584168762 
0.015691807424 0.015535892676 0.015374323614 0.029064941549 0.029892010303 0.03072582884 0.031564576218 0.032389734244 0.033236261718 
0.034081916912 0.034924652916 0.035762282311 0.036592710011 0.037413724276 0.038223161141 0.039018934377 0.039799003178 0.040561254615 
0.041303710659 0.042024624645 0.042722154188 0.043394580262 0.044040400716 0.044658043162 0.045246391711 0.045803964516 0.046329806759 
0.046822885282 0.047282079761 0.047706537708 0.048095558325 0.048448729186 0.048765735237 0.049046347292 0.049290564844 0.049498490143 
0.049670269663 0.04979884775 0.049895274891 0.049956123494 0.049981583914 0.049971806301 0.049926882515 0.049846916285 0.049731939334 
0.049581924672 0.049396992882 0.049177082135 0.048922223193 0.048632463142 0.048307718469 0.047948355125 0.047554335357 0.047126000072 
0.046663676759 0.046167596772 0.045638192095 0.04507617807 0.044482488194 0.043858306868 0.043204902187 0.042523825962 0.041816975688 
0.027736179831 0.028500612737 0.029270509967 0.030044191948 0.030809091693 0.031589936859 0.03236948459 0.033145870041 0.033917223039 
0.034681665953 0.035437278884 0.036182168087 0.036914404899 0.037632188921 0.038333662799 0.039017102607 0.039680860956 0.040323214155 
0.04094276915 0.04153809338 0.042107689817 0.042650469927 0.043165113238 0.043650784367 0.044106343752 0.044530910683 0.044923639514 
0.045283857064 0.045611048724 0.0459048425 0.046165053056 0.046391680738 0.04658479297 0.046744529659 0.046861445298 0.046950802994 
0.047007321497 0.047031063956 0.047022149262 0.046980606134 0.046906619806 0.046800128319 0.046661178775 0.046489920646 0.04628621047 
0.04605020576 0.045782003378 0.045481521468 0.045148895457 0.044784377987 0.044388332084 0.043960895264 0.04350254192 0.043013697115 
0.042494948311 0.04194726035 0.04137158192 0.040769157755 0.040141522807 0.03949026935 0.026477370533 0.027184529794 0.027896023399 
0.028610378557 0.029320667159 0.030041787666 0.030761220249 0.031477348346 0.032188511802 0.032893008364 0.033589176019 0.034275312908 
0.034949766444 0.035610862248 0.03625701854 0.0368866767 0.037498234482 0.038090255292 0.038661350899 0.039210210891 0.03973567183 
0.040236518637 0.040711781061 0.041160298193 0.041581308799 0.04197391473 0.042337260727 0.042670712812 0.042973775075 0.043246042448 
0.043487405201 0.043697743128 0.043877166526 0.044025762163 0.044131784921 0.044214806126 0.044267391685 0.044289641085 0.044281582174 
0.044243372666 0.044174928923 0.044076474521 0.043947978817 0.043789419658 0.043600824387 0.043382279365 0.043133834162 0.042855627243 
0.04254781841 0.042210605695 0.041844131872 0.041448934235 0.041025304055 0.040573572492 0.040094573847 0.039588933035 0.039057631648 
0.038501865401 0.037922985621 0.037322495052 0.0252858555 0.025940595597 0.026598733049 0.027258942837 0.027919772335 0.02858647093 
0.029251195183 0.029912491643 0.030568874815 0.031218880393 0.031860969709 0.032493620053 0.033115422702 0.03372487301 0.034320512777 
0.034900955745 0.0354648076 0.036010739961 0.036537498445 0.037043862079 0.037528775681 0.037991089454 0.038429950924 0.038844401146 
0.039233512929 0.039596482024 0.039932644294 0.040241310487 0.040522030906 0.040774425138 0.040998324812 0.041193670904 0.041360413813 
0.041498748731 0.041594466452 0.041671733927 0.041720829908 0.041741792686 0.041734643598 0.041699535866 0.041636479664 0.041545450039 
0.041426570571 0.041279831808 0.041105256501 0.040902935952 0.040672895723 0.040415340468 0.040130318289 0.039818225047 0.03947925546 
0.039113569587 0.038721784049 0.038304297527 0.037861626443 0.037394532849 0.036903856751 0.036390768364 0.035856458208 0.035302295648 
0.024126980138 0.024734175906 0.025344606021 0.025957220042 0.026579404219 0.027199066546 0.027816352443 0.028430051571 0.029038814894 
0.029641240206 0.030236004167 0.030821771541 0.031397136701 0.031960863162 0.032511652278 0.033048251522 0.033569442821 0.034074021264 
0.034560908295 0.035029019071 0.035477344267 0.035905020811 0.036311184017 0.036694917742 0.037055496658 0.037392067884 0.03770406469 
0.037990856395 0.038252004963 0.038487112882 0.038695975233 0.038878456265 0.03903449379 0.039164045002 0.039263402712 0.039330700285 
0.039371456241 0.039385908857 0.039374226326 0.039336536308 0.039273066461 0.039183923276 0.039069252824 0.038929102121 0.038763565349 
0.038572759689 0.038356796791 0.038115806127 0.037850024743 0.037559607231 0.037244715224 0.036905789765 0.036543037407 0.036156833414 
0.035747720521 0.035316302383 0.034863349803 0.034389758926 0.033896614031 0.033385055608 0.023066511168 0.023630248686 0.024196621762 
0.024764644071 0.025342158357 0.025915613616 0.026486734894 0.02705430435 0.027617092839 0.028173947746 0.028723633613 0.029264917394 
0.029796614727 0.030317505666 0.030826460258 0.031322312013 0.03180391478 0.032270245143 0.032720306883 0.033153098264 0.03356773629 
0.033963299501 0.034339012844 0.034694102105 0.035027809757 0.035339418503 0.035628277701 0.035893858147 0.036135722747 0.036353520583 
0.036546974125 0.036715996831 0.036860438166 0.036980296831 0.037071502178 0.03713482472 0.03717341479 0.037187507115 0.037177232521 
0.037142767148 0.037084216053 0.037001786942 0.036895517857 0.036765488139 0.03661185801 0.0364348018 0.036234373902 0.036010792593 
0.035764153341 0.035494792313 0.03520290079 0.034888795648 0.03455273186 0.034195111789 0.033816417918 0.033417226485 0.032998329359 
0.032560519597 0.032104804753 0.03163221378 0.022066350353 0.022590185483 0.023116154611 0.023643369396 0.024181063141 0.024712312224 
0.02524123032 0.02576669417 0.026287629105 0.026802860002 0.027311422331 0.027812132523 0.028303888229 0.028785660803 0.029256371209 
0.029714940374 0.030160440431 0.030591819892 0.031008171187 0.031408558372 0.031792213466 0.03215830986 0.032506047968 0.03283481996 
0.033143753159 0.033432306327 0.033699878511 0.033945934332 0.034170020334 0.034371854072 0.034551157404 0.034707771771 0.034841574732 
0.034952520609 0.035036394699 0.035095965099 0.03513256615 0.035146281235 0.03513732166 0.035105711984 0.035051711129 0.03497540889 
0.034876870004 0.034756321744 0.03461379432 0.034449429354 0.034263353104 0.034055728602 0.033826858145 0.033576918642 0.033306227227 
0.033014889037 0.032703354254 0.032371989428 0.032021247942 0.031651711311 0.031264052881 0.030859039081 0.030437620739 0.030000736942 
0.021124081013 0.021611317027 0.022100242229 0.022589994845 0.02309222369 0.023584905652 0.024075251785 0.024562277539 0.02504495222 
0.025522303841 0.025993321841 0.026456916356 0.02691225193 0.027358290494 0.027794055546 0.02821859202 0.028630975386 0.029030347326 
0.029415851031 0.029786624995 0.030141901396 0.030480912936 0.030803025804 0.031107488051 0.031393737317 0.031661107001 0.031909059372 
0.032137137853 0.032344901042 0.032532036398 0.032698244101 0.032843443348 0.032967435149 0.033070156149 0.033147505832 0.033203601419 
0.033238259808 0.033251615772 0.033243775577 0.033214849493 0.033165023536 0.033094393869 0.033003060454 0.032891134273 0.032758764199 
0.032606120173 0.03243335023 0.032240606788 0.032028070025 0.031796068457 0.031544749541 0.031274465827 0.030985504434 0.030678245856 
0.030353185309 0.030010842174 0.029651839261 0.029276917134 0.0288869022 0.028482655757 0.020237106114 0.020690744902 0.021145652529 
0.021601111762 0.022071714855 0.022529119029 0.022984248161 0.023436119219 0.023883850945 0.024326544058 0.024763259103 0.025193098386 
0.025615168151 0.026028550756 0.026432285978 0.026825732861 0.027207897548 0.027577977241 0.027935222036 0.028278849647 0.028608129681 
0.028922384403 0.0292209432 0.029503194792 0.029768541439 0.030016450234 0.030246396696 0.030457915226 0.03065065262 0.03082424592 
0.030978459345 0.031113092146 0.031228071401 0.031323259561 0.031394752167 0.031447555215 0.031480391568 0.031493310509 0.031486493172 
0.0314600026 0.031413969094 0.031348552065 0.031263816666 0.0311599397 0.031037027747 0.030895224465 0.030734689856 0.030555631512 
0.030358210623 0.030142648427 0.029909257935 0.029658294514 0.029390094994 0.029105015419 0.028803518022 0.028486116668 0.028153392055 
0.027805984712 0.027444690161 0.027070336647 0.019402680037 0.019825466676 0.02024916017 0.020673098097 0.021115559583 0.021540720478 
0.021963584592 0.022383338325 0.022799123884 0.023210104984 0.023615500126 0.02401444907 0.024406092456 0.024789661105 0.025164317611 
0.025529279763 0.025883799066 0.026226995329 0.026558372487 0.026877152296 0.027182609683 0.027474166897 0.027751179549 0.028013081358 
0.028259300524 0.028489330576 0.028702755022 0.028899109194 0.029077980387 0.029239120485 0.029382287803 0.029507259616 0.02961391901 
0.029702127132 0.029768392883 0.029818087381 0.029849112015 0.029861617025 0.029855674055 0.029831368308 0.029788875747 0.029728242668 
0.029649622522 0.029553137663 0.029438906238 0.029307085645 0.029157886312 0.028991385751 0.028807878319 0.028607553914 0.028390666083 
0.028157509902 0.027908379765 0.027643694016 0.027363847877 0.027069285288 0.026760634574 0.026438460807 0.026103461742 0.025756417001 
0.018617947717 0.019012381498 0.019407402139 0.019802423703 0.020219744878 0.020615393019 0.021008752362 0.021399107434 0.021785670341 
0.02216772034 0.022544434748 0.022915079315 0.023278924218 0.023635188839 0.023983158312 0.024322117351 0.024651335954 0.024970152763 
0.025277877349 0.025573912081 0.025857596894 0.0261282502 0.026385544094 0.026628777368 0.026857467142 0.02707111265 0.027269339703 
0.027451743911 0.027617925822 0.027767654547 0.027900647105 0.028016722248 0.028115730663 0.028197533519 0.028259101749 0.028305839247 
0.02833520664 0.028347220039 0.028342006962 0.028319713316 0.028280382062 0.028224164596 0.028151147314 0.02806145848 0.027955273547 
0.027832678003 0.027693872329 0.027539020491 0.027368335387 0.02718204613 0.026980376069 0.026763596673 0.026532007803 0.026286053421 
0.02602606408 0.025752468701 0.025465869985 0.025166778417 0.024855841062 0.024533756051 0.017879967091 0.018248283871 0.018616984822 
0.018985419889 0.019380298296 0.019748912286 0.020115264538 0.020478708529 0.020838534384 0.021194043669 0.021544551931 0.021889358866 
0.02222773784 0.022559039161 0.022882581268 0.023197725019 0.023503817264 0.02380022464 0.024086323002 0.024361501819 0.024625240934 
0.024876977932 0.025116185424 0.025342346399 0.025554974171 0.025753674766 0.025937986533 0.026107534898 0.026262075475 0.02640130426 
0.026524936946 0.026632813512 0.026724809252 0.026800701385 0.026858049785 0.026901959906 0.026929637473 0.026941173563 0.026936621647 
0.026916085603 0.026879658602 0.026827433712 0.026759582662 0.026676183019 0.026577374246 0.026463283716 0.026334065645 0.026189957082 
0.026031100439 0.025857735002 0.025670075064 0.025468405822 0.025253019571 0.025024261466 0.024782487206 0.024528168585 0.024261778324 
0.023983822007 0.023694912112 0.023395668547 0.01718582941 0.017530152852 0.01787456051 0.018218562139 0.018593338069 0.018937142347 
0.019278763268 0.019617583075 0.019952915952 0.020284146761 0.020610629622 0.020931735783 0.021246824037 0.021555295782 0.021856491549 
0.022149836948 0.022434752582 0.022710618492 0.022976909838 0.023233043603 0.023478538061 0.023712843703 0.023935513135 0.024146026197 
0.024343957533 0.024528896983 0.024700485689 0.024858350039 0.025002180802 0.025131735389 0.02524679324 0.025347144869 0.025432637298 
0.025503135411 0.025556715561 0.02559793614 0.025624009701 0.025634998643 0.025630971039 0.02561200547 0.025578254004 0.025529728433 
0.025466582642 0.025388949444 0.02529692606 0.025190687181 0.025070372926 0.024936146326 0.024788212091 0.024626769626 0.024452030018 
0.024264253505 0.024063743497 0.023850818859 0.023625817864 0.0233891638 0.023141292465 0.022882710582 0.022613934201 0.022335559104 