# vtk DataFile Version 5.1
vtk output
ASCII
DATASET STRUCTURED_POINTS
DIMENSIONS 30 30 30
SPACING 0.01 0.01 0.01
ORIGIN 1.555 -0.145 0.855
POINT_DATA 27000
FIELD FieldData 1
potential 1 27000 double
0.014914185871 0.01498542346 0.015056979925 0.015128852781 0.01520104251 0.015273544562 0.015346364209 0.015419496631 0.015492941997 
0.015566723469 0.015640791631 0.015715165684 0.015789854283 0.015864848458 0.015940150356 0.016015757142 0.016091667155 0.016167878442 
0.016244393426 0.016321207609 0.016398322268 0.016475731241 0.016553433374 0.016631427666 0.016709713117 0.016788287461 0.016867148741 
0.016946294141 0.017025721813 0.017105428355 0.014823331332 0.014893803693 0.014964587791 0.015035684641 0.015107088964 0.015178803378 
0.015250823384 0.015323151433 0.015395786911 0.015468727974 0.015541995873 0.015615544673 0.015689392102 0.015763545534 0.015837995887 
0.015912746454 0.015987794162 0.016063136272 0.016138774869 0.016214706937 0.016290929216 0.016367445461 0.016444244556 0.016521329974 
0.016598699699 0.016676351912 0.016754283032 0.016832492245 0.016910977086 0.016989734148 0.01473311057 0.014802826842 0.01487284756 
0.014943174033 0.015013805955 0.015084737568 0.015155971124 0.015227505017 0.015299337322 0.015371471297 0.015443902697 0.015516654092 
0.015589680315 0.015662996204 0.015736608888 0.015810512054 0.015884707743 0.015959192969 0.016033964903 0.016109025739 0.016184370979 
0.016259998003 0.016335908786 0.016412096615 0.016488561439 0.016565300974 0.016642315819 0.016719601017 0.01679715433 0.016874975327 
0.01464352097 0.01471248865 0.014781757333 0.014851324547 0.014921187081 0.01499134722 0.015061802081 0.015132550562 0.01520359372 
0.015274927647 0.015346555625 0.015418474131 0.015490706447 0.015563203093 0.015635982167 0.01570905201 0.015782404827 0.015856042931 
0.015929960667 0.016004159785 0.01607863651 0.01615338955 0.016228417561 0.016303721815 0.016379294044 0.016455133848 0.016531242483 
0.016607615338 0.016684249988 0.01676114593 0.014554561031 0.014622789827 0.014691311812 0.014760126384 0.014829231438 0.014898626902 
0.014968312866 0.015038285395 0.015108546583 0.015179094299 0.015249926372 0.015321044517 0.015392468429 0.015464153659 0.015536118894 
0.015608363599 0.015680880794 0.015753680155 0.01582675394 0.015900102963 0.015973723124 0.016047613587 0.016121772501 0.016196198313 
0.016270891754 0.016345843595 0.016421058324 0.016496530412 0.016572258118 0.016648240807 0.014466227449 0.014533725095 0.014601511631 
0.014669582223 0.01473793827 0.014806578471 0.014875502287 0.014944709058 0.015014197713 0.01508396682 0.015154015931 0.015224343702 
0.015294946759 0.015365849393 0.015437006203 0.015508435706 0.015580137617 0.015652104965 0.015724345088 0.01579685413 0.015869626933 
0.015942665346 0.016015966447 0.016089527834 0.016163347512 0.01623742609 0.01631175788 0.016386340759 0.016461173413 0.016536254696 
0.014378518469 0.014445294422 0.014512351738 0.01457968749 0.014647302717 0.014715197178 0.014783369298 0.014851817487 0.014920543163 
0.014989542608 0.015058816126 0.015128363033 0.015198180083 0.015268266759 0.015338643751 0.015409269295 0.015480159866 0.015551315631 
0.015622728004 0.015694406099 0.015766345662 0.015838541124 0.015910994547 0.015983702253 0.016056662652 0.016129871536 0.016203334219 
0.016277040954 0.016350989979 0.016425181414 0.014291431193 0.014357494163 0.014423829634 0.014490439652 0.0145573237 0.014624480707 
0.014691908799 0.014759609156 0.01482757939 0.014895819264 0.014964326506 0.015033100943 0.015102140001 0.015171445306 0.015241011896 
0.015310860107 0.015380949294 0.015451299172 0.015521904851 0.015592764552 0.01566387116 0.015735237398 0.015806852183 0.015878717209 
0.015950828592 0.016023183553 0.016095781666 0.016168626012 0.016241702675 0.016315016029 0.014204964841 0.014270320122 0.014335944212 
0.014401837213 0.014467997606 0.014534425881 0.014601119756 0.014668079838 0.014735304068 0.014802792115 0.014870542139 0.014938553844 
0.015006825034 0.015075354736 0.015144142796 0.015213205253 0.015282501807 0.015352054971 0.015421856161 0.0154919084 0.01556220851 
0.015632746808 0.015703534059 0.015774567087 0.015845840171 0.015917352304 0.015989100974 0.016061086795 0.016133306088 0.01620575257 
0.014119114852 0.014183771855 0.014248692226 0.014313875979 0.014379321733 0.014445029597 0.014510997931 0.014577226651 0.014643713889 
0.014710459432 0.014777461236 0.014844718448 0.01491223118 0.014979996127 0.015048013618 0.015116280095 0.015184817529 0.015253581515 
0.015322587901 0.015391839085 0.015461335767 0.015531072087 0.015601038962 0.015671247038 0.015741694312 0.015812372954 0.015883283263 
0.015954422927 0.01602579076 0.016097385694 0.014033880447 0.014097846117 0.014162071058 0.014226553756 0.014291293661 0.014356289395 
0.014421540062 0.014487045897 0.014552805093 0.01461881679 0.014685079244 0.014751592143 0.014818353767 0.014885363732 0.014952620174 
0.01502012033 0.015087866442 0.015155869916 0.015224095345 0.015292558629 0.015361258662 0.015430194973 0.015499363577 0.01556876427 
0.015638382924 0.015708240392 0.015778322698 0.015848629031 0.015919157838 0.015989904933 0.01394925676 0.014012540278 0.014076077381 
0.014139866885 0.014203908903 0.01426820099 0.014332742957 0.01439753442 0.014462574222 0.014527860987 0.014593393358 0.014659170296 
0.014725189907 0.014791452786 0.014857956153 0.01492470213 0.014991684239 0.015058902217 0.015126371807 0.015194055955 0.015261972374 
0.015330118838 0.015398491044 0.015467091502 0.01553591438 0.015604949033 0.015674213222 0.015743697187 0.01581339607 0.015883311412 
0.013865241775 0.013927850911 0.013990708349 0.014053813303 0.014117164893 0.014180761962 0.014244603354 0.01430868898 0.014373016829 
0.014437586487 0.014502398212 0.01456744828 0.014632736773 0.014698261921 0.014764022667 0.014830020437 0.014896249304 0.014962708231 
0.015029396108 0.015096328595 0.015163469546 0.015230835247 0.015298424593 0.01536623432 0.015434259515 0.015502504089 0.01557096064 
0.015639622972 0.01570850459 0.015777597358 0.013781833132 0.013843775549 0.0139059604 0.01396838857 0.01403105804 0.014093968469 
0.014157117044 0.014220505375 0.014284131446 0.014347993217 0.014412091836 0.014476423918 0.014540989126 0.014605785807 0.014670813979 
0.014736071168 0.014801554928 0.014867263762 0.014933198774 0.014999354534 0.015065747063 0.015132342608 0.015199156076 0.015266186181 
0.015333427113 0.01540088061 0.015468539308 0.015536409965 0.015604475145 0.015672756031 0.013699026893 0.013760310218 0.013821831761 
0.013883590855 0.013945586212 0.014007817538 0.01407028178 0.014132981204 0.0141959129 0.014259075415 0.014322469666 0.014386092379 
0.014449942658 0.01451401983 0.014578323272 0.014642850545 0.014707599218 0.014772568384 0.014837757751 0.014903162815 0.014968800382 
0.015034635476 0.01510068397 0.015166942707 0.01523340775 0.015300080267 0.015366956313 0.015434033748 0.015501311286 0.015568788943 
0.013616821559 0.013677453412 0.013738318749 0.013799416288 0.013860745547 0.013922305803 0.013984094498 0.014046112225 0.01410835742 
0.014170829729 0.014233527847 0.014296449652 0.014359594173 0.014422961771 0.01448654781 0.014550352456 0.01461437697 0.014678615136 
0.014743066256 0.014807732613 0.014872607492 0.014937708061 0.015003000215 0.015068497158 0.015134197437 0.015200098924 0.015266199021 
0.015332497399 0.015398989261 0.015465676029 0.013535209931 0.013595197981 0.013655417383 0.013715861319 0.01377653251 0.013837429253 
0.013898549927 0.013959894645 0.014021461738 0.014083251761 0.0141452621 0.014207491477 0.014269938792 0.014332604135 0.014395483004 
0.014458575425 0.014521883023 0.014585398489 0.014649123645 0.014713058265 0.014777196461 0.014841539159 0.014906100806 0.014970846595 
0.015035789416 0.015100931744 0.015166265869 0.015231793361 0.015297511154 0.01536341484 0.013454195151 0.013513546892 0.013573122071 
0.013632923005 0.013692943613 0.013753184632 0.013813645108 0.013874324588 0.013935222243 0.013996337831 0.014057668602 0.014119213645 
0.014180973786 0.014242943624 0.014305123508 0.01436751301 0.014430111399 0.014492914966 0.014555922361 0.014619133123 0.014682545862 
0.014746156732 0.014809965599 0.014873984415 0.014938180994 0.015002570239 0.015067149494 0.015131916006 0.015196866528 0.015262001714 
0.013373771556 0.013432493661 0.013491434895 0.013550594714 0.013609971929 0.013669568134 0.013729376282 0.013789398639 0.013849634444 
0.01391008365 0.013970743112 0.014031612366 0.014092691438 0.014153976396 0.014215466277 0.01427716022 0.014339058724 0.014401159075 
0.014463457986 0.014525955552 0.014588649905 0.014651537875 0.014714618533 0.014777889899 0.014841364477 0.014905011698 0.014968842346 
0.015032858543 0.015097054953 0.015161429464 0.013293934563 0.013352034792 0.013410349771 0.013468878289 0.013527620095 0.013586573183 
0.013645739362 0.013705112465 0.013764695123 0.013824485003 0.013884481342 0.01394468286 0.014005089653 0.014065696939 0.014126504574 
0.014187514113 0.014248721633 0.014310126557 0.014371725689 0.014433518095 0.014495501923 0.014557677269 0.014620039527 0.014682587798 
0.014745319798 0.01480824744 0.014871342979 0.014934617686 0.014998068304 0.015061692503 0.013214680623 0.013272167161 0.01332986217 
0.013387767756 0.013445880868 0.013504201638 0.013562727159 0.013621459415 0.013680398585 0.01373953805 0.013798879331 0.013858422643 
0.013918163731 0.013978101437 0.01403823675 0.01409856759 0.014159092776 0.01421981059 0.014280719274 0.014341815789 0.014403099997 
0.014464568911 0.014526222705 0.014588055483 0.014650068968 0.014712261376 0.014774643342 0.014837184905 0.014899900235 0.014962783792 
0.013136007693 0.013192886395 0.013249969586 0.013307258597 0.013364751208 0.013422446775 0.01348034257 0.013538440941 0.013596738942 
0.013655238524 0.013713932014 0.013772823576 0.013831907708 0.013891185686 0.013950656299 0.014010317322 0.014070168605 0.014130207378 
0.014190433348 0.014250843506 0.014311435997 0.014372207572 0.014433160792 0.014494290387 0.01455559448 0.014617073416 0.014678723581 
0.014740556342 0.014802543455 0.014864695893 0.013057911154 0.013114188316 0.013170668092 0.013227347377 0.01328422666 0.013341304304 
0.013398578039 0.013456049797 0.01351371681 0.013571578545 0.013629634097 0.01368788215 0.01374631851 0.013804944326 0.013863758015 
0.013922757825 0.013981943478 0.014041311966 0.014100863597 0.014160595 0.014220502894 0.014280589547 0.014340850019 0.014401284018 
0.014461888864 0.014522662117 0.014583603851 0.014644710434 0.014705992967 0.014767423433 0.012980387784 0.013036071205 0.013091952106 
0.013148030185 0.013204302794 0.013260769161 0.013317429057 0.013374281677 0.013431325467 0.013488559579 0.013545982588 0.013603592203 
0.013661390703 0.013719372168 0.013777536895 0.013835883797 0.013894411815 0.013953118538 0.014012001851 0.014071063754 0.014130298981 
0.014189706307 0.014249283948 0.014309031391 0.014368946131 0.014429024117 0.014489266186 0.014549669012 0.014610243208 0.014670961523 
0.012903433009 0.012958530018 0.013013820216 0.013069303657 0.013124976625 0.013180839346 0.013236891716 0.013293132586 0.01334956046 
0.013406173572 0.013462973455 0.013519954828 0.013577118185 0.013634462496 0.013691988875 0.013749690881 0.013807568218 0.013865621323 
0.013923848612 0.013982248372 0.014040818141 0.014099555379 0.014158458835 0.014217526784 0.014276759243 0.014336150726 0.014395703565 
0.014455412036 0.014515274505 0.014575301811 0.012827044437 0.012881561509 0.012936267192 0.012991161544 0.013046243915 0.013101509935 
0.013156961909 0.013212597358 0.013268416658 0.013324417997 0.013380601117 0.013436961741 0.013493500085 0.013550215601 0.013607105026 
0.013664169319 0.013721409342 0.013778817299 0.013836394533 0.01389414131 0.013952053597 0.014010129236 0.014068366756 0.014126765397 
0.014185322926 0.014244037858 0.014302907863 0.014361930502 0.014421103167 0.014480426515 0.012751217395 0.012805160706 0.012859290061 
0.012913602753 0.012968097643 0.013022776006 0.013077634061 0.013132673367 0.013187891318 0.013243288747 0.013298861076 0.01335460674 
0.01341052817 0.013466621847 0.0135228873 0.013579322521 0.013635926701 0.01369269747 0.013749635041 0.013806736368 0.013864000103 
0.013921421992 0.013979002499 0.014036739903 0.014094632353 0.014152677048 0.014210875199 0.014269220893 0.014327712769 0.014386350526 
0.01267594967 0.01272932519 0.012782883901 0.01283662202 0.012890538412 0.012944633061 0.012998906187 0.013053354601 0.013107978338 
0.013162776246 0.013217746559 0.01327288803 0.013328199551 0.013383679952 0.013439327223 0.013495140953 0.013551119443 0.013607260587 
0.013663563285 0.01372002625 0.013776650726 0.013833428117 0.013890359672 0.013947444345 0.014004680128 0.014062064365 0.01411959811 
0.014177276143 0.014235096018 0.014293057293 0.012601231642 0.012654051044 0.012707045277 0.012760215825 0.012813559578 0.012867079445 
0.012920772303 0.012974636897 0.013028672458 0.013082880732 0.0131372557 0.013191798431 0.013246507545 0.013301382145 0.01335641921 
0.013411618974 0.013466979272 0.013522498947 0.013578176225 0.013634009601 0.013689998396 0.013746139431 0.013802432489 0.013858872651 
0.013915460888 0.013972193081 0.014029069376 0.014086088392 0.014143244793 0.014200539185 0.012527065224 0.012579327789 0.012631764271 
0.012684374558 0.012737154101 0.012790104933 0.012843225476 0.012896514837 0.012949973924 0.013003597031 0.013057384284 0.013111335533 
0.013165449426 0.013219724465 0.013274159331 0.013328752 0.013383502083 0.013438408307 0.013493467649 0.013548679868 0.013604041718 
0.013659553577 0.013715213086 0.013771015108 0.013826964427 0.013883053415 0.013939282564 0.013995649384 0.014052152642 0.014108788101 
0.015049790588 0.015121533988 0.015193595033 0.015265976138 0.015338672648 0.015411686383 0.015485013134 0.015558657336 0.015632613984 
0.015706881886 0.015781486163 0.015856374279 0.01593157668 0.016007086362 0.016082902433 0.016159025978 0.01623545351 0.016312181208 
0.016389213672 0.016466546419 0.016544176855 0.016622106908 0.016700329824 0.016778844233 0.016857650397 0.016936745908 0.017016128149 
0.017095794754 0.017175743769 0.017255973062 0.014958313689 0.015029287799 0.015100574425 0.01517217218 0.015244083539 0.015316301985 
0.01538883053 0.015461665945 0.015534805772 0.015608254731 0.015682031565 0.015756090165 0.015830446979 0.015905111594 0.015980076285 
0.016055337592 0.016130899092 0.016206755467 0.016282906312 0.016359352231 0.016436090875 0.016513118058 0.016590437765 0.016668039334 
0.016745925548 0.016824094292 0.016902543257 0.016981269749 0.017060272125 0.017139548219 0.014867471743 0.01493768587 0.015008207075 
0.015079031665 0.015150162124 0.015221597426 0.015293333168 0.015365370923 0.015437708606 0.015510344911 0.015583282006 0.015656539394 
0.015730070556 0.015803898757 0.015878015793 0.015952429304 0.01602713289 0.016102127598 0.016177411259 0.016252979583 0.016328835999 
0.016404976008 0.016481395873 0.016558099172 0.016635077339 0.016712331124 0.016789858946 0.016867656803 0.01694572528 0.017024061377 
0.014777262471 0.014846725723 0.014916488336 0.014986549764 0.015056909467 0.015127567331 0.015198521655 0.015269770538 0.015341313134 
0.01541314965 0.015485277431 0.015557698766 0.015630431896 0.015703433848 0.015776722426 0.015850291838 0.015924151866 0.015998293461 
0.016072719003 0.016147423054 0.016222409377 0.01629767096 0.016373206969 0.01644901678 0.016525101245 0.016601451874 0.01667806808 
0.01675495203 0.016832098087 0.016909504443 0.014687684091 0.014756404175 0.014825417223 0.014894724041 0.01496432336 0.015034212858 
0.015104392793 0.015174862876 0.015245619575 0.015316665316 0.01538799675 0.015459613963 0.015531513074 0.015603720237 0.015676185636 
0.015748931746 0.015821950134 0.015895252784 0.015968830126 0.01604268089 0.016116805372 0.016191199454 0.016265863308 0.016340794145 
0.01641598982 0.016491452026 0.016567169838 0.016643149591 0.016719385497 0.016795874336 0.014598734369 0.014666719551 0.014734992242 
0.01480355361 0.014872398648 0.014941529705 0.015010945195 0.015080644139 0.015150625508 0.015220888724 0.015291431999 0.015362254349 
0.015433354889 0.015504751629 0.015576404776 0.015648332796 0.015720532212 0.015793003274 0.015865738546 0.015938746365 0.016012021067 
0.016085558638 0.016159360311 0.016233422838 0.016307744264 0.016382321897 0.016457157404 0.016532243391 0.016607580032 0.01668316389 
0.014510410145 0.014577669099 0.014645209763 0.014713032831 0.014781134239 0.014849515698 0.014918175394 0.014987112984 0.015056326388 
0.015125816146 0.0151955814 0.015265618949 0.015335928135 0.015406509168 0.015477379698 0.0155484956 0.015619881176 0.015691531236 
0.01576344557 0.015835615491 0.015908050941 0.015980744238 0.01605369299 0.016126898337 0.016200355855 0.016274063063 0.016348020906 
0.016422228652 0.016496679119 0.016571369547 0.014422709089 0.014489250015 0.014556068544 0.014623160883 0.0146905271 0.014758167531 
0.014826080789 0.014894265609 0.01496272057 0.015031446259 0.015100440634 0.015169703595 0.015239232026 0.015309023977 0.015379081942 
0.015449420489 0.01551999913 0.015590838366 0.015661937071 0.015733290447 0.015804889754 0.015876749538 0.015948855851 0.016021214813 
0.016093820023 0.016166669767 0.016239763447 0.01631309849 0.016386676598 0.016460485171 0.01433562949 0.014401461386 0.014467563754 
0.014533934798 0.014600574943 0.014667482441 0.014734657875 0.014802098417 0.014869804917 0.014937775505 0.015006009019 0.015074504353 
0.015143260595 0.015212275715 0.015281549511 0.015351078932 0.015420882442 0.015490921609 0.015561212257 0.015631752277 0.015702540322 
0.015773576253 0.015844848746 0.015916368583 0.01598813346 0.016060135912 0.016132377091 0.016204851898 0.016277561952 0.016350503544 
0.014249168492 0.014314299489 0.014379693514 0.014445352208 0.014511273899 0.014577457637 0.014643903421 0.014710608973 0.014777575057 
0.01484479955 0.014912281371 0.014980019271 0.015048012192 0.015116259225 0.015184758 0.015253508477 0.015322506123 0.015391774702 
0.015461268369 0.015531006139 0.01560098423 0.015671206811 0.015741667858 0.015812358134 0.015883289116 0.015954455026 0.016025853981 
0.016097480849 0.016169335236 0.016241415991 0.014163324474 0.014227760368 0.014292455463 0.014357409062 0.01442262082 0.014488089961 
0.014553814421 0.014619793759 0.014686028015 0.014752515255 0.01481925437 0.014886243072 0.014953483113 0.015020969567 0.015088703428 
0.015156684245 0.015224906964 0.015293393471 0.015362100096 0.01543104533 0.015500227572 0.015569645745 0.015639296162 0.015709179637 
0.015779293006 0.015849623282 0.015920188877 0.015990978693 0.016061990661 0.016133223345 0.014078091988 0.014141842108 0.014205846118 
0.014270103617 0.014334613648 0.014399375471 0.014464387524 0.014529649071 0.014595159349 0.014660918124 0.014726923416 0.014793173508 
0.014859667862 0.014926405353 0.014993383688 0.015060603312 0.015128061618 0.01519575587 0.015263703855 0.015331866375 0.015400259319 
0.015468883729 0.015537737098 0.015606816074 0.015676117808 0.015745643222 0.015815378517 0.015885341445 0.015955522184 0.016025917201 
0.013993470049 0.014056542203 0.014119862274 0.014183431385 0.014247248041 0.014311310818 0.014375618812 0.014440171082 0.014504967584 
0.014570006457 0.014635286608 0.014700806263 0.014766564757 0.014832561198 0.014898793364 0.014965259446 0.015031961707 0.015098893565 
0.015166056094 0.015233462514 0.015301077928 0.015368918634 0.015436982125 0.015505268237 0.015573772571 0.015642492346 0.015711424845 
0.015780563297 0.015849922776 0.015919489482 0.01390945548 0.013971856611 0.014034502115 0.014097390788 0.014160521886 0.014223894166 
0.014287506639 0.014351357481 0.014415447763 0.014479775406 0.014544338129 0.014609136889 0.014674168666 0.014739432566 0.014804927783 
0.01487065325 0.014936606156 0.015002784756 0.015069187957 0.015135815085 0.015202679362 0.015269745709 0.015337030085 0.015404531842 
0.015472246684 0.015540171672 0.015608307527 0.015676648356 0.015745196499 0.015813937877 0.013826044909 0.013887783901 0.013949761893 
0.014011978179 0.01407443147 0.014137121032 0.014200046345 0.014263204286 0.014326596802 0.014390221546 0.014454076278 0.014518161996 
0.0145824759 0.014647016415 0.014711783205 0.014776775238 0.014841989171 0.014907424489 0.014973078105 0.015038951889 0.015105040143 
0.015171359201 0.015237874283 0.01530460049 0.015371536939 0.015438677356 0.015506023567 0.015573571455 0.015641319912 0.015709266265 
0.013743233558 0.01380431734 0.013865638482 0.013927189882 0.013988973528 0.014050988714 0.014113234291 0.014175708131 0.014238410619 
0.014301339911 0.014364496099 0.014427877561 0.01449148174 0.014555307762 0.014619356095 0.014683622546 0.014748106979 0.014812807029 
0.014877721939 0.014942849733 0.015008189908 0.015073737832 0.01513950937 0.01520547143 0.015271636717 0.015338004431 0.015404571046 
0.015471334234 0.015538294181 0.015605444259 0.013661023013 0.013721459402 0.013782125515 0.013843022737 0.013904144594 0.013965493026 
0.014027066893 0.014088864357 0.014150885392 0.014213128467 0.014275593461 0.014338278636 0.014401182211 0.014464302601 0.014527639994 
0.014591190451 0.014654952696 0.014718929235 0.014783113775 0.014847506264 0.014912106357 0.01497690908 0.015041915388 0.015107137838 
0.015172543311 0.015238144436 0.015303942707 0.015369931405 0.015436110319 0.015502478006 0.013579407367 0.013639204163 0.013699225176 
0.013759470104 0.013819940356 0.01388063006 0.013941540214 0.014002669186 0.014064016678 0.014125582106 0.014187364485 0.014249361999 
0.014311572694 0.014373997629 0.014436631485 0.014499474138 0.014562525531 0.01462578552 0.014689248735 0.014752915595 0.014816783626 
0.014880852057 0.014945116869 0.015009593636 0.015074248587 0.015139094935 0.015204132034 0.015269356573 0.015334767263 0.015400360899 
0.013498382274 0.013557547895 0.013616931692 0.013676534658 0.013736355582 0.013796394072 0.01385665097 0.013917119428 0.01397780187 
0.014038697117 0.014099804977 0.014161122578 0.014222649208 0.014284384953 0.014346324097 0.014408470104 0.014470818869 0.014533371167 
0.01459612163 0.014659071524 0.014722217574 0.014785558375 0.014849093835 0.014912818877 0.014976747725 0.015040847319 0.015105134454 
0.015169606675 0.015234257271 0.01529908661 0.013417947336 0.013476487384 0.013535241556 0.013594209675 0.013653391883 0.013712786456 
0.013772392526 0.013832211085 0.013892235892 0.013952469678 0.014012910648 0.014073557115 0.014134407833 0.014195462277 0.014256717234 
0.014318172576 0.014379826993 0.01444167964 0.014503728049 0.014565969173 0.01462840244 0.01469102578 0.014753839185 0.014816836074 
0.014880019458 0.014943398746 0.015006945426 0.015070671352 0.015134573688 0.01519864926 0.013338096646 0.013396017799 0.013454150584 
0.013512491404 0.013571042335 0.01362980098 0.013688766395 0.013747936386 0.01380731246 0.013866894793 0.013926676856 0.013986660155 
0.014046843842 0.014107224989 0.014167803591 0.014228577895 0.014289545962 0.014350707917 0.014412061403 0.014473603861 0.014535333217 
0.014597248031 0.014659345834 0.014721628059 0.014784089191 0.014846727958 0.014909557441 0.014972547879 0.015035708988 0.015099041951 
0.013258827928 0.013316138114 0.013373653929 0.013431376669 0.013489303116 0.013547433078 0.013605765705 0.013664298197 0.013723032307 
0.013781965724 0.013841100065 0.013900426749 0.013959951679 0.014019668754 0.014079578937 0.014139680183 0.014199971004 0.014260451034 
0.014321117429 0.014381968847 0.014443001885 0.014504218583 0.014565613519 0.014627187115 0.014688934668 0.014750856205 0.014812950854 
0.014875227694 0.014937658213 0.015000255258 0.013180137282 0.013236842754 0.013293750764 0.013350861066 0.01340817055 0.013465679244 
0.013523386151 0.013581288722 0.013639388763 0.013697683617 0.013756171399 0.013814853673 0.013873727387 0.013932788512 0.013992038252 
0.01405147413 0.014111096122 0.014170902277 0.014230889105 0.014291058755 0.014351406909 0.014411931964 0.014472631708 0.014533504563 
0.014594551427 0.014655764762 0.014717147232 0.014778694829 0.014840417 0.014902288917 0.013102020264 0.013158129013 0.013214436107 
0.013270939741 0.013327640874 0.013384535187 0.013441622976 0.013498903849 0.013556376962 0.01361403986 0.013671893414 0.013729936181 
0.013788163285 0.013846576445 0.013905176274 0.013963956242 0.014022915664 0.014082056688 0.014141375684 0.014200871747 0.014260541961 
0.014320384884 0.014380398139 0.01444058067 0.014500930449 0.014561446166 0.014622126457 0.014682966649 0.014743965017 0.014805132829 
0.013024474375 0.013079992847 0.013135705347 0.013191610911 0.01324770833 0.013303997246 0.013360473725 0.013417138741 0.013473992543 
0.013531032845 0.013588258706 0.013645669418 0.013703261102 0.01376103382 0.013818985574 0.013877118984 0.01393542716 0.013993911263 
0.014052569044 0.014111399176 0.014170400376 0.014229570251 0.014288905783 0.014348406375 0.014408070386 0.014467896043 0.014527881106 
0.014588022889 0.014648319613 0.014708769618 0.012947495603 0.013002430453 0.013057555326 0.013112869797 0.013168371172 0.013224060357 
0.013279932117 0.01333599047 0.013392232292 0.01344865652 0.013505263681 0.013562048272 0.01361901065 0.013676150911 0.013733467525 
0.013790958297 0.013848622142 0.013906459655 0.01396446412 0.014022637007 0.014080977194 0.014139481872 0.014198148259 0.014256975848 
0.01431596262 0.014375106356 0.014434406798 0.014493859303 0.014553462743 0.014613214326 0.012871079741 0.012925438136 0.012979982338 
0.013034712159 0.013089624854 0.013144718579 0.013199996751 0.013255454146 0.013311090743 0.01336690482 0.013422899787 0.013479067619 
0.013535410361 0.01359192634 0.013648613558 0.013705471605 0.013762498593 0.01381969313 0.013877053227 0.013934579525 0.013992266813 
0.014050113801 0.014108120153 0.014166283044 0.014224601083 0.014283072345 0.014341695166 0.014400468333 0.014459387144 0.01451845068 
0.012795224377 0.012849012606 0.012902982854 0.012957134512 0.01301146492 0.013065972739 0.013120660368 0.013175524152 0.013230562811 
0.013285776773 0.013341165446 0.013396724021 0.013452453509 0.013508352706 0.013564419275 0.013620651777 0.013677049658 0.01373361081 
0.013790334422 0.013847217822 0.013904260623 0.013961461786 0.014018815763 0.014076322436 0.014133980458 0.014191787745 0.014249741994 
0.014307843446 0.014366086746 0.014424471369 0.012719919404 0.012773143999 0.012826549969 0.012880129497 0.012933884679 0.012987814597 
0.013041919222 0.013096198972 0.01315064717 0.013205266791 0.013260056802 0.013315013718 0.013370137329 0.013425426313 0.013480878147 
0.013536493136 0.013592269676 0.013648206544 0.013704300843 0.013760551392 0.013816956986 0.013873515507 0.01393022616 0.013987086781 
0.014044091647 0.014101243595 0.014158539153 0.014215976213 0.014273553855 0.014331266765 0.012645169672 0.012697835358 0.012750677355 
0.01280369298 0.012856883647 0.012910241842 0.012963770671 0.013017468265 0.013071334274 0.013125367678 0.013179565262 0.013233927312 
0.013288452293 0.013343138914 0.013397985683 0.013452991223 0.013508153587 0.013563472261 0.013618945656 0.013674570985 0.013730347839 
0.013786274067 0.013842348351 0.013898567764 0.013954931629 0.014011438271 0.014068082266 0.014124864455 0.014181783201 0.014238836782 
0.015184438728 0.015256679902 0.015329239143 0.015402117399 0.015475315086 0.01554882902 0.015622658619 0.015696803498 0.015771261269 
0.015846033893 0.01592114066 0.015996537308 0.016072239732 0.0161482567 0.016224579362 0.016301209966 0.016378143758 0.016455382888 
0.016532920986 0.016610761961 0.016688902064 0.01676733928 0.01684607419 0.01692509966 0.01700441725 0.017084023265 0.017163916507 
0.017244094802 0.017324555113 0.017405297385 0.01509234841 0.015163816965 0.015235597496 0.015307691099 0.015380095719 0.015452812626 
0.015525837302 0.015599172196 0.015672813647 0.015746759789 0.015821013617 0.015895595824 0.015970458584 0.016045621247 0.016121087399 
0.016196854682 0.016272920121 0.016349281046 0.016425937476 0.016502886403 0.016580130309 0.016657663906 0.016735485699 0.016813598054 
0.016891991762 0.016970667649 0.017049624097 0.017128858718 0.017208368864 0.017288154194 0.015000894447 0.015071599172 0.015142609634 
0.015213926727 0.015285548095 0.015357475331 0.015429707285 0.01550223899 0.015575072648 0.015648206596 0.015721640154 0.015795392358 
0.015869421929 0.015943747553 0.016018363529 0.016093278047 0.01616848326 0.016243979532 0.016319762744 0.016395834416 0.016472190381 
0.016548832535 0.016625756848 0.01670295995 0.016780444667 0.016858202387 0.016936233264 0.017014537082 0.017093109205 0.017171949831 
0.014910074389 0.014980022992 0.015050273021 0.015120822738 0.015191671322 0.015262817843 0.015334262556 0.015406002939 0.015478038353 
0.015550367315 0.015622990185 0.015695905124 0.015769130561 0.01584262618 0.015916411106 0.015990482189 0.016064833784 0.0161394744 
0.016214397354 0.016289599195 0.016365080707 0.016440841449 0.016516878127 0.016593187683 0.016669768809 0.016746622933 0.016823739488 
0.016901123348 0.016978770749 0.0170566788 0.014819886158 0.014889088309 0.01495858562 0.015028376699 0.015098460178 0.015168836644 
0.015239503369 0.015310460588 0.015381706739 0.015453241124 0.015525062608 0.015597169774 0.015669561961 0.015742256497 0.015815215272 
0.015888453907 0.015961971883 0.016035761222 0.016109833881 0.016184179605 0.016258797614 0.01633368792 0.016408846737 0.016484273135 
0.016559965431 0.016635920108 0.016712139101 0.016788613867 0.016865347118 0.016942334655 0.01473032683 0.014798791677 0.014867544513 
0.014936585863 0.015005914632 0.015075527884 0.015145427015 0.015215609827 0.015286076376 0.015356824139 0.01542785415 0.015499163217 
0.015570751226 0.01564261661 0.015714779968 0.015787193027 0.015859883093 0.015932843876 0.016006068892 0.016079569253 0.016153335797 
0.016227365454 0.016301657278 0.016376212197 0.016451025658 0.016526096299 0.016601421545 0.016677004207 0.016752835392 0.01682891413 