# vtk DataFile Version 5.1
vtk output
ASCII
DATASET STRUCTURED_POINTS
DIMENSIONS 50 50 50
SPACING 0.002 0.002 0.002
ORIGIN 0.0482 -0.052672 0.02732
POINT_DATA 125000
FIELD FieldData 1
potential 1 125000 double
0.0005438200284 0.00054118912777 0.00053857769631 0.00053598584664 0.00053341097517 0.00053085179744 0.00052830678396 0.00052577401132 0.0005232511922 
0.00052073769888 0.00051823295194 0.00051573613227 0.00051324855485 0.00051076927789 0.0005083028536 0.00050584653222 0.00050340396432 0.00050097696109 
0.00049856768711 0.0004961781433 0.00049380908622 0.00049146173003 0.0004891365964 0.0004868344573 0.00048455545623 0.00048229944067 0.00048006570945 
0.00047785554472 0.00047566782153 0.00047350365617 0.00047136264853 0.00046924541846 0.0004671511503 0.00046507955183 0.00046302921984 0.00046099780495 
0.00045898378464 0.00045698297154 0.00045499285019 0.00045301131015 0.0004510346705 0.00044906128418 0.00044708912397 0.00044511715204 0.00044314592627 
0.00044117564852 0.00043920725598 0.00043724175482 0.00043528159399 0.00043332729308 0.00054649830018 0.00054385175428 0.000541223861 0.0005386161462 
0.00053602486839 0.00053344916863 0.00053088755372 0.00052833801075 0.00052579817471 0.00052326720843 0.00052074553452 0.00051823209564 0.00051572705579 
0.00051323114663 0.00051074642324 0.00050827648503 0.00050581812058 0.00050337653134 0.00050095331138 0.00049854975755 0.00049616754603 0.00049380718887 
0.00049146937207 0.00048915437226 0.00048686307496 0.00048459430446 0.00048234803601 0.00048012417753 0.00047792390007 0.00047574667032 0.00047359285723 
0.00047146275205 0.00046935586768 0.00046727128335 0.00046520823532 0.00046316422235 0.00046113721496 0.0004591234583 0.00045712067112 0.00045512593098 
0.00045313679286 0.00045115009903 0.00044916528918 0.00044718081748 0.00044519694629 0.00044321391888 0.00044123284669 0.00043925549155 0.0004372830567 
0.00043531728021 0.00054896746075 0.00054630537326 0.00054366412674 0.00054104015876 0.00053843308342 0.00053584137751 0.00053326363357 0.00053069770125 
0.00052814124227 0.00052559462732 0.00052305652418 0.00052052680035 0.00051800581077 0.00051549480767 0.000512994524 0.0005105075041 0.00050803813153 
0.00050558322745 0.00050314754384 0.00050073179308 0.00049833771825 0.00049596571391 0.00049361635207 0.00049129000313 0.00048898632126 0.00048670575923 
0.00048444766436 0.00048221208241 0.00047999911977 0.00047780900132 0.00047564235833 0.00047349967441 0.00047137984928 0.00046928206945 0.00046720560284 
0.00046514820774 0.00046310736479 0.00046107978793 0.00045906350109 0.00045705522089 0.00045505239553 0.00045305224779 0.00045105403768 0.00044905662005 
0.00044705976162 0.00044506426358 0.0004430711918 0.00044108219556 0.00043909867983 0.00043712195803 0.00055118195238 0.00054850597484 0.00054585106057 
0.00054321260217 0.00054059110457 0.00053798449667 0.00053539129467 0.00053281019859 0.00053023816004 0.00052767592246 0.00052512242648 0.00052257797596 
0.00052004203817 0.00051751699963 0.00051500293607 0.00051250313697 0.00051001924785 0.0005075550205 0.00050510809589 0.00050268167435 0.00050027709396 
0.00049789513276 0.00049553548412 0.0004931989648 0.00049088464833 0.00048859334848 0.00048632411076 0.00048407693973 0.00048185236366 0.00047964989837 
0.00047747156559 0.00047531579031 0.00047318284704 0.00047107157054 0.00046898136723 0.00046691011596 0.00046485530375 0.00046281394492 0.00046078347971 
0.0004587611168 0.00045674450875 0.00045473090125 0.00045271888841 0.0004507080851 0.00044869804795 0.00044669065638 0.00044468618452 0.00044268610587 
0.00044069206592 0.00043870522661 0.00055310579628 0.00055041761224 0.00054774973384 0.00054509805634 0.00054246335911 0.00053984357682 0.00053723636932 
0.00053464057277 0.00053205418715 0.00052947739591 0.00052691021488 0.00052435139654 0.00052180206987 0.0005192639711 0.00051673818498 0.00051422705986 
0.00051173225577 0.00050925554821 0.00050680153174 0.00050436637219 0.00050195297634 0.00049956244737 0.00049719433101 0.00049484877766 0.00049252532962 
0.00049022379136 0.00048794457969 0.00048568668907 0.00048345063434 0.00048123692511 0.00047904634042 0.00047687853235 0.0004747326026 0.00047260847916 
0.00047050480814 0.00046841963326 0.00046635091663 0.00046429555873 0.00046225071776 0.00046021427208 0.00045818357083 0.00045615611576 0.00045413097319 
0.00045210740776 0.00045008531637 0.00044806578285 0.00044605025531 0.00044403980146 0.00044203573722 0.00044003982417 0.0005547157457 0.0005520171848 
0.00054933798314 0.00054667491146 0.00054402772069 0.00054139514849 0.00053877547835 0.00053616674957 0.00053356722906 0.00053097777748 0.00052839747804 
0.00052582622004 0.00052326453579 0.00052071488055 0.00051817853225 0.00051565746867 0.00051315352039 0.00051066856187 0.00050820455417 0.0005057637211 
0.0005033433299 0.00050094592118 0.00049857033917 0.00049621697039 0.00049388544423 0.00049157521872 0.00048928684567 0.00048701921721 0.00048477238165 
0.00048254759143 0.00048034570213 0.0004781659068 0.00047600791735 0.00047387115205 0.00047175474534 0.0004696562724 0.00046757347881 0.00046550480257 
0.0004634459339 0.0004613958534 0.00045935113407 0.0004573104238 0.00045527204575 0.00045323594252 0.00045120225858 0.00044917141346 0.00044714542573 
0.00044512505013 0.00044311194843 0.00044110792613 0.00055600465799 0.00055329697999 0.00055060683243 0.00054793336753 0.00054527570933 0.0005426320481 
0.0005400004211 0.00053738036553 0.00053476912536 0.00053216878641 0.00052957665269 0.00052699359303 0.00052442147829 0.00052186218611 0.00051931635503 
0.00051678659506 0.00051427504895 0.00051178278472 0.0005093119512 0.00050686557859 0.00050443960519 0.00050203570119 0.00049965438089 0.00049729460548 
0.00049495606729 0.00049263847272 0.00049034128338 0.00048806495586 0.00048580870209 0.00048357404006 0.0004813611999 0.00047916968752 0.00047700004844 
0.00047485119136 0.0004727223509 0.00047061133135 0.00046851606976 0.00046643397363 0.0004643623979 0.00046229914778 0.0004602411431 0.00045818787728 
0.00045613697382 0.00045408881274 0.00045204358634 0.00045000212558 0.00044796662178 0.00044593721623 0.00044391604321 0.00044190487131 0.00055697748774 
0.00055426262288 0.00055156375295 0.00054888070823 0.00054621350382 0.00054356019538 0.0005409186916 0.00053828807241 0.00053566649487 0.00053305584575 
0.00053045340943 0.00052786060933 0.00052527941434 0.0005227112619 0.00052015753619 0.00051762069284 0.00051510276561 0.00051260465152 0.00051012872326 
0.0005076751899 0.00050524688944 0.00050283828807 0.00050045187681 0.00049808669253 0.00049574213664 0.0004934178962 0.00049111300852 0.00048882853257 
0.00048656380684 0.00048431961887 0.00048209626131 0.00047989457873 0.00047771411897 0.00047555389799 0.00047341357276 0.00047129064695 0.00046918326459 
0.0004670893399 0.00046500542395 0.00046292953517 0.00046085987109 0.00045879461454 0.00045673187679 0.00045467261773 0.00045261710925 0.00045056612776 
0.00044852085042 0.00044648378525 0.00044445553219 0.00044243779142 0.00055765856582 0.00055493464012 0.00055222891864 0.00054953879494 0.00054686323602 
0.00054420060066 0.00054155020231 0.00053891030933 0.0005362803284 0.00053365954522 0.00053104841412 0.00052844748358 0.00052585838513 0.00052328278973 
0.00052072268441 0.00051817976598 0.00051565622086 0.00051315366791 0.00051067357271 0.00050821650049 0.00050578175862 0.00050337167648 0.00050098101294 
0.00049861184089 0.00049626231822 0.00049393182276 0.00049162046959 0.00048932716505 0.00048705495969 0.00048480247605 0.00048256996858 0.00048035800411 
0.00047816723703 0.00047599687751 0.00047384584926 0.00047171195042 0.00046959369424 0.00046748847783 0.00046539347112 0.00046330623445 0.0004612251114 
0.00045914866007 0.0004570752745 0.00045500555371 0.00045294024735 0.00045088032224 0.00044882693323 0.0004467823024 0.0004447478691 0.00044272478965 
0.00055808383314 0.0005553516704 0.00055263722129 0.00054993957914 0.00054725728306 0.00054458702852 0.00054192822664 0.0005392803271 0.0005366426373 
0.00053401365159 0.00053139506093 0.00052878709773 0.00052619119684 0.00052360966637 0.00052104376253 0.00051849617946 0.00051596824039 0.00051346200435 
0.00051097832049 0.00050851775695 0.0005060797286 0.00050366454891 0.00050127252559 0.00049889922747 0.00049654506239 0.00049420931786 0.0004918918528 
0.00048959225649 0.00048731236899 0.00048505117372 0.00048280970801 0.00048058879771 0.00047838822413 0.00047620769825 0.00047404692672 0.00047190297849 
0.00046977468117 0.00046765902347 0.00046555390633 0.0004634563855 0.00046136527196 0.00045927853449 0.00045719573352 0.00045511718557 0.00045304317782 
0.00045097514301 0.00044891427814 0.00044686318057 0.00044482322304 0.00044279482553 0.0005582959965 0.00055555699925 0.00055283535906 0.00055013023555 
0.00054743936631 0.00054476285414 0.00054209660411 0.00053944184075 0.00053679628667 0.00053416011679 0.00053153511932 0.00052892118468 0.00052631954042 
0.00052373290736 0.0005211631493 0.0005186113422 0.00051608007927 0.00051357034809 0.00051108372974 0.00050862046163 0.00050617957517 0.00050376084881 
0.00050136318969 0.00049898781831 0.00049662931605 0.00049428857463 0.00049196546126 0.00048965929099 0.00048737227952 0.00048510421319 0.0004828550697 
0.00048062538245 0.00047841587926 0.00047622598399 0.00047405557371 0.00047190270092 0.00046976456699 0.00046763935581 0.00046552475498 0.00046341805417 
0.00046131777955 0.00045922208525 0.0004571305079 0.00045504361045 0.00045296195045 0.00045088715579 0.0004488198944 0.00044676333331 0.00044471847351 
0.00044268584948 0.00055834769299 0.00055560160384 0.00055287281701 0.00055016042319 0.00054746244411 0.00054477686791 0.00054210512632 0.00053944296304 
0.00053679082621 0.00053414899882 0.00053151820223 0.00052889925564 0.00052629271218 0.0005237015085 0.00052112752436 0.00051857260038 0.00051603825205 
0.00051352577357 0.0005110362203 0.00050857006704 0.00050612671456 0.00050370493066 0.00050130398334 0.00049892216404 0.00049656138061 0.00049421579301 
0.00049188708853 0.00048957510837 0.00048728138271 0.00048500577878 0.00048274885754 0.00048051136405 0.00047829341174 0.00047609550339 0.00047391622829 
0.00047175433357 0.00046960702873 0.00046747310314 0.00046534982589 0.00046323423841 0.00046112560053 0.00045902185539 0.00045692279665 0.00045482879328 
0.00045274045031 0.00045065939093 0.00044858727246 0.00044652545496 0.00044447642364 0.00044244025108 0.00055829382045 0.00055554044825 0.00055280446361 
0.00055008429019 0.00054737832374 0.00054468603437 0.00054200609309 0.00053933784932 0.00053667942038 0.00053403138647 0.00053139541932 0.00052877143104 
0.00052616127326 0.00052356645691 0.00052098874067 0.00051843114176 0.00051589401956 0.000513378858 0.0005108864625 0.00050841746193 0.00050597085662 
0.00050354595224 0.00050114107931 0.00049875475623 0.00049638954981 0.00049403881454 0.00049170430691 0.00048938637034 0.00048708569326 0.00048480304514 
0.00048253906008 0.00048029388636 0.00047806802743 0.00047586174174 0.00047367403426 0.00047150379544 0.00046934831017 0.00046720599681 0.00046507441706 
0.00046295047166 0.00046083364053 0.00045872263891 0.00045661675824 0.00045451668038 0.00045242317004 0.00045033690423 0.00044826053651 0.0004461948132 
0.00044414177166 0.0004421018722 0.00055818824505 0.00055542710133 0.00055268289236 0.00054995421901 0.00054724051978 0.00054454018384 0.00054185269758 
0.00053917561872 0.0005365121902 0.00053385868093 0.00053121761686 0.00052858942948 0.00052597568745 0.00052337737923 0.00052079749822 0.00051823628396 
0.00051569636601 0.00051317875136 0.00051068342544 0.00050821087284 0.0005057608005 0.00050333183785 0.00050092269558 0.00049853157015 0.00049615874852 
0.0004938048614 0.00049146457806 0.00048914040186 0.00048683327042 0.00048454354252 0.00048227239453 0.00048001987069 0.00047778671869 0.0004755718095 
0.00047337591914 0.00047119696727 0.00046903320004 0.00046688230935 0.00046474268485 0.00046261165633 0.00046048751351 0.0004583698497 0.00045625772043 
0.00045415186827 0.00045205356324 0.00044996337801 0.00044788321675 0.00044581414092 0.00044375786365 0.00044171545777 0.00055808008722 0.0005553106077 
0.00055255718502 0.00054981981391 0.00054709708398 0.00054438904005 0.00054169291853 0.00053900867161 0.00053633720097 0.00053367896055 0.00053103263769 
0.00052840026926 0.00052578290652 0.00052318182283 0.00052059872363 0.00051803519129 0.00051549201096 0.00051297090629 0.00051047263977 0.00050799547128 
0.00050554110939 0.00050310734012 0.00050069287977 0.00049829670097 0.00049591763161 0.00049355518066 0.00049121126632 0.00048888129405 0.00048656764425 
0.00048427092307 0.00048199256964 0.00047973249576 0.00047749150886 0.00047526859813 0.00047306454326 0.00047087689005 0.00046870463764 0.0004665454397 
0.00046439768998 0.0004622593816 0.00046012818399 0.00045800424888 0.00045588679917 0.00045377623842 0.00045167363714 0.0004495800971 0.00044749633744 
0.00044542434733 0.00044336509871 0.00044132007785 0.00055801364012 0.00055523400323 0.00055247165307 0.00054972462563 0.0005469924788 0.0005442751133 
0.0005415705232 0.00053887820679 0.00053619986929 0.00053353379344 0.00053088363442 0.00052824656307 0.00052562505626 0.00052302072916 0.00052043435631 
0.00051786746423 0.00051532116865 0.0005127961896 0.00051029310777 0.00050781209484 0.00050535195265 0.00050291218304 0.00050049185377 0.00049808920452 
0.00049570378668 0.00049333489955 0.00049098186545 0.00048864783595 0.00048632736665 0.00048402351756 0.00048173801111 0.00047947078779 0.00047722169901 
0.0004749903859 0.0004727772493 0.00047058116676 0.00046840018729 0.00046623276405 0.00046407668104 0.00046193058953 0.00045979279385 0.00045766285144 
0.00045554019767 0.00045342519943 0.00045131893648 0.00044922207571 0.00044713573088 0.00044506171471 0.00044299998695 0.00044095192511 0.000558019972 
0.0005552345857 0.00055246212232 0.00054970480275 0.00054696338132 0.00054423532328 0.00054152113411 0.00053882070137 0.00053613456033 0.00053346168914 
0.00053080405264 0.00052816183528 0.00052553734006 0.00052292871565 0.00052033828981 0.00051776755633 0.00051521691947 0.00051268700308 0.00051017943188 
0.00050769250498 0.00050522621423 0.00050278019495 0.00050035302856 0.00049794276322 0.00049555002008 0.00049317398174 0.00049081395371 0.00048847282628 
0.00048614504224 0.00048383397911 0.00048154083394 0.00047926565685 0.00047700848456 0.00047476899518 0.00047254680656 0.0004703415262 0.00046815157861 
0.00046597544298 0.00046381109551 0.00046165713783 0.00045951216339 0.00045737659537 0.00045524869441 0.00045312952072 0.00045101971267 0.00044891955231 
0.00044683097902 0.00044475428147 0.00044269009796 0.00044063948211 0.0005581395211 0.00055534260218 0.00055255780495 0.0005497893717 0.00054703747698 
0.00054429900173 0.00054157425104 0.00053886480743 0.00053617036986 0.00053349003728 0.00053082530221 0.00052817716556 0.00052554619344 0.00052293325588 
0.00052033794019 0.00051776260585 0.00051520664397 0.00051267201361 0.00051015743554 0.00050766392248 0.00050519047576 0.0005027365233 0.00050030170674 
0.00049788430276 0.00049548361107 0.00049309955108 0.00049073158188 0.0004883797453 0.00048604688268 0.00048372838669 0.00048142681975 0.00047914330338 
0.00047687755779 0.0004746293372 0.00047239810803 0.00047018335225 0.00046798399513 0.00046579815351 0.00046362568383 0.00046146376224 0.00045931218002 
0.00045716950699 0.00045503657471 0.00045291302285 0.00045079927616 0.00044869623498 0.00044660487193 0.00044452570964 0.00044245895023 0.00044040564431 
0.00055838856072 0.00055557524897 0.00055278243206 0.00055000225234 0.00054723720752 0.00054448714594 0.0005417524283 0.00053903255897 0.00053632895235 
0.00053364007356 0.00053096794729 0.00052831258521 0.00052567449082 0.00052305457648 0.00052045459055 0.00051787255965 0.00051531070439 0.00051276936484 
0.00051024813994 0.00050774632092 0.00050526465859 0.00050280258459 0.0005003587509 0.00049793265684 0.0004955231647 0.00049313038011 0.00049075405467 
0.00048839365859 0.00048605020833 0.00048372566181 0.00048141529328 0.00047912291189 0.0004768477445 0.00047459027186 0.00047234978457 0.00047012519953 
0.00046791580808 0.00046572061137 0.00046353884458 0.00046136864574 0.00045920942242 0.00045705997754 0.00045492148958 0.00045279363586 0.00045067601619 
0.00044856977169 0.0004464754176 0.00044439320623 0.00044232335938 0.00044026722169 0.00055878289718 0.00055595678384 0.00055314742306 0.00055035763445 
0.00054757993648 0.00054481736372 0.00054207046806 0.00053933958307 0.00053662611429 0.00053392776437 0.00053124666919 0.00052858311206 0.00052593720739 
0.0005233094971 0.00052070112071 0.00051811290632 0.00051554372456 0.00051299452862 0.00051046477255 0.00050795437743 0.00050546367 0.00050299188486 
0.00050053857505 0.00049810263773 0.00049568357132 0.00049328129778 0.0004908951688 0.00048852582299 0.00048617320388 0.00048383695725 0.00048152037083 
0.00047921805428 0.00047693323129 0.00047466588214 0.00047241488378 0.00047017992034 0.00046796037948 0.0004657555489 0.00046356395605 0.0004613847508 
0.00045921772467 0.00045706175758 0.00045491724729 0.00045278416347 0.00045066228757 0.00044855211854 0.00044645442464 0.00044436893816 0.00044229636473 
0.00044023617434 0.00055933393818 0.00055649388106 0.00055367068546 0.0005508670868 0.00054807535858 0.00054529996673 0.00054254017509 0.00053979743972 
0.00053707192417 0.00053436354077 0.00053167283043 0.00052899908479 0.00052634412575 0.00052370769715 0.00052109047087 0.00051849259628 0.00051591545445 
0.00051335685287 0.00051081745311 0.00050829759079 0.00050579701039 0.00050331405462 0.00050085024065 0.00049840377012 0.00049597399919 0.00049356103284 
0.00049116513894 0.00048878553555 0.0004864228886 0.00048407646999 0.00048174981041 0.00047943747142 0.00047714240792 0.00047486417037 0.00047260221377 
0.00047035640958 0.0004681262545 0.00046591086702 0.00046370923334 0.00046152134258 0.00045934548556 0.00045718253006 0.00045503177291 0.00045289268357 
0.00045076595597 0.00044865170546 0.00044654970407 0.0004444606929 0.00044238432646 0.00044032014077 0.0005600491434 0.00055719477373 0.00055435613261 
0.00055153359683 0.00054873171982 0.0005459419959 0.00054316868951 0.00054041320754 0.00053767496987 0.00053495398607 0.00053225136456 0.0005295678952 
0.00052690216316 0.00052425518623 0.00052162802778 0.00051901982038 0.00051643064904 0.00051386275525 0.00051131257407 0.00050878180393 0.00050626964932 
0.00050377554116 0.00050129940525 0.00049884130165 0.0004964003053 0.00049397587339 0.0004915684717 0.00048917784611 0.00048680424029 0.00048444704959 
0.00048210707535 0.00047978650772 0.0004774797788 0.00047518983599 0.00047291687083 0.00047065991226 0.00046841843259 0.00046619214092 0.00046398030511 
0.00046178274202 0.00045959898452 0.00045742747433 0.00045526932574 0.00045312415859 0.00045099192468 0.00044887242124 0.0004467661148 0.00044467267142 
0.00044259176911 0.00044052288955 0.00056093273272 0.00055806217786 0.00055520809128 0.00055236992357 0.00054955272688 0.00054674798626 0.00054396012758 
0.00054118988287 0.00053843777481 0.0005357036208 0.00053298811 0.0005302913751 0.00052761335219 0.000524956156 0.00052231675764 0.00051969635405 
0.00051709595199 0.00051451492522 0.000511953859 0.00050941028913 0.00050688567411 0.00050437916533 0.00050189014618 0.00049941880627 0.00049696509976 
0.00049452804847 0.00049210849405 0.00048970584007 0.00048732016784 0.00048495109929 0.00048259922173 0.00048026410728 0.00047794826846 0.00047564704456 
0.00047336160053 0.00047109277346 0.00046883970392 0.00046660227077 0.00046437987418 0.00046217247586 0.00045997891038 0.00045779910336 0.00045563293619 
0.0004534806495 0.00045134225448 0.00044921723281 0.00044710515149 0.000445006475 0.00044292088087 0.00044084698082 0.00056198653393 0.00055909869775 
0.00055622803117 0.00055337329148 0.00055053562791 0.00054771871373 0.00054491498961 0.00054212959213 0.00053936223954 0.00053661390176 0.00053388467412 
0.00053117404981 0.00052848270741 0.00052581070994 0.00052315820756 0.00052052596945 0.00051791180231 0.00051531710205 0.00051274126734 0.00051018541996 
0.00050764667834 0.00050512634049 0.00050262374059 0.00050013835606 0.00049767044501 0.00049521991469 0.00049278680807 0.00049037075456 0.00048797176669 
0.00048558986337 0.00048322529275 0.00048087717613 0.00047854601959 0.00047623501022 0.00047393742292 0.00047165578601 0.0004693909007 0.00046714196937 
0.00046490787291 0.00046268973755 0.00046048618762 0.00045829736346 0.00045612272661 0.00045396287121 0.00045181716894 0.00044968590581 0.00044756762386 
0.000445462977 0.00044337208485 0.00044129307595 0.00056321237973 0.00056030574521 0.00055741711138 0.00055454516644 0.00055169018507 0.00054885597504 
0.00054603522474 0.00054323295386 0.00054044974248 0.00053768502402 0.0005349401793 0.00053221491367 0.00052950826954 0.00052682170351 0.00052415422288 
0.00052150642584 0.00051887752886 0.00051626870885 0.00051367771695 0.00051110517025 0.00050855256964 0.00050601688688 0.00050349924086 0.00050099890443 
0.00049851562573 0.00049605009567 0.0004936024356 0.00049117245643 0.00048875932128 0.00048636286873 0.00048398441142 0.00048162295245 0.00047927830798 
0.00047695383889 0.00047464290626 0.00047234862831 0.00047007105413 0.00046780914865 0.0004655643554 0.00046333434955 0.00046112053036 0.00045892197141 
0.0004567384962 0.00045457051872 0.00045241744881 0.00045027876733 0.00044815384284 0.00044604297373 0.00044394546072 0.00044186084043 0.00056460821179 
0.00056168545587 0.00055877686807 0.00055588642717 0.00055301273344 0.00055015627615 0.00054732182108 0.00054450144193 0.00054170076425 0.0005389189 
0.00053615720546 0.00053341529739 0.00053069239729 0.00052798959822 0.00052530586079 0.00052264176604 0.00051999643645 0.00051737010416 0.00051476361646 
0.0005121744405 0.00050960392684 0.00050705287789 0.00050451877447 0.00050200202077 0.00049950228868 0.00049702093637 0.00049455756776 0.0004921115714 
0.00048968327494 0.00048727214809 0.00048487840214 0.00048250261938 0.00048014387262 0.00047780203348 0.00047548036712 0.00047317236016 0.00047088095744 
0.00046860667436 0.00046634859393 0.00046410732828 0.00046188186014 0.00045967358745 0.0004574802677 0.00045530391932 0.00045314211521 0.00045099565527 
0.00044886342574 0.00044674582901 0.00044464157323 0.00044254997591 0.0005661752627 0.00056323317413 0.00056030745645 0.00055739603037 0.00055450269228 
0.00055162671427 0.00054877361234 0.00054593456482 0.00054311510791 0.00054031477448 0.0005375345224 0.00053477445861 0.00053203421903 0.00052931359399 
0.00052661237731 0.00052393041549 0.0005212672699 0.00051862323968 0.00051599799888 0.00051339078182 0.00051080251915 0.00050823208812 0.00050568084447 
0.00050314692148 0.0005006301051 0.00049813156797 0.00049565040592 0.00049318799558 0.00049074295815 0.00048831555695 0.00048590660585 0.00048351513097 
0.00048114099664 0.00047878415385 0.00047644462034 0.00047412541074 0.00047182042747 0.00046953270985 0.00046726196293 0.00046500808018 0.000462771794 
0.00046055200555 0.00045834877406 0.00045616254721 0.00045399200179 0.00045183724114 0.00044969725796 0.00044757150807 0.00044545962409 0.00044336051821 
0.0005679121501 0.0005649510905 0.00056200488668 0.00055907490439 0.00055615925298 0.00055326342196 0.0005503856233 0.00054753127287 0.00054469215385 
0.00054187214296 0.00053907282084 0.00053629344733 0.0005335340674 0.0005307943924 0.00052807405797 0.00052537307472 0.00052269014566 0.00052002660798 
0.00051738177982 0.00051475507518 0.00051214655125 0.00050955667239 0.00050698527217 0.00050443274537 0.00050189780536 0.000499380213 0.00049688129423 
0.00049440044391 0.00049193824564 0.00048949484413 0.0004870686049 0.00048466077012 0.00048227028999 0.00047989806147 0.00047754293676 0.00047520848532 
0.00047288931921 0.000470587391 0.00046830326481 0.00046603755483 0.00046378873797 0.00046155773812 0.00045934375026 0.00045714714911 0.00045496755077 
0.00045280396238 0.00045065543432 0.00044852127183 0.00044640130616 0.000444293881 0.0005698182846 0.00056683678134 0.00056386987183 0.00056091878895 
0.0005579842411 0.00055506557196 0.00055216713292 0.00054929179447 0.00054643199263 0.00054359140237 0.00054077183131 0.00053797196523 0.00053519230067 
0.00053243193322 0.00052969100583 0.00052696936189 0.0005242662889 0.00052158146731 0.00051891525798 0.00051626729768 0.00051363782508 0.00051102674602 
0.00050843384053 0.00050586066618 0.00050330635202 0.00050076946626 0.00049825129322 0.00049575170154 0.00049327062095 0.00049080835936 0.00048836476568 
0.00048593928113 0.00048353184516 0.00048114330264 0.00047877245109 0.00047642009927 0.00047408842046 0.00047177220737 0.00046947496881 0.00046719577378 
0.00046493486964 0.000462691835 0.00046046753208 0.00045825992499 0.00045607018929 0.00045389725592 0.00045173988768 0.0004495967403 0.00044746758431 
0.00044535099847 0.00057189191387 0.00056888884078 0.00056590074564 0.00056292840836 0.00055997243135 0.00055703440546 0.00055411259439 0.00055121129986 
0.00054833382999 0.00054547213141 0.00054263092897 0.0005398097272 0.00053700832736 0.00053422644207 0.00053146385811 0.00052871987688 0.00052599490556 
0.00052328748546 0.00052059840547 0.00051792822379 0.00051527610703 0.0005126423173 0.00051002724525 0.00050743074218 0.00050485410901 0.00050229787297 
0.00049975910343 0.00049723976094 0.00049473909127 0.0004922577094 0.00048979533073 0.00048735182197 0.00048492717796 0.00048252137368 0.00048013458803 
0.00047776621442 0.00047541676083 0.00047308908852 0.00047077780628 0.00046848521529 0.00046621197569 0.00046395739987 0.000461721486 0.00045950347233 
0.00045730338329 0.00045511992315 0.00045295239227 0.00045079973842 0.00044866064479 0.0004465343281 0.00057412927264 0.0005711062278 0.00056809640042 
0.00056510196532 0.00056212432145 0.00055916437384 0.00055622240501 0.00055329746396 0.0005503980653 0.00054751380402 0.00054465018697 0.00054180661596 
0.00053898245415 0.00053617763708 0.00053339231695 0.00053062518231 0.00052787604827 0.00052514492799 0.00052243176967 0.00051973663448 0.00051706040106 
0.00051440291959 0.00051176454989 0.00050914492593 0.00050654489908 0.00050396472139 0.00050140676329 0.00049886595052 0.00049634528184 0.0004938437271 
0.0004913621152 0.00048890023768 0.00048645748335 0.00048403425469 0.0004816313381 0.00047924677453 0.00047688217462 0.00047453985015 0.00047221422264 
0.00046990852419 0.0004676224089 0.00046535585533 0.00046310879125 0.00046087941047 0.00045866894648 0.00045647491476 0.0004542964624 0.0004521325071 
0.00044998298124 0.00044784541938 0.00057653116499 0.00057348419011 0.0005704520967 0.00056743751851 0.00056443731507 0.00056145539617 0.00055849117251 
0.00055554580175 0.00055261805046 0.00054971520778 0.00054682871172 0.00054396162239 0.00054111443289 0.00053828546862 0.00053547560411 0.00053268371521 
0.0005299087098 0.0005271521608 0.00052441377345 0.00052169312846 0.00051899144379 0.00051630897468 0.00051364521579 0.00051100130753 0.00050837756986 
0.000505774595 0.00050319311323 0.00050063071408 0.00049808933844 0.00049556749113 0.00049306604477 0.00049058489225 0.00048812407081 0.0004856832328 
0.00048326316319 0.00048086303263 0.00047848319991 0.00047612316964 0.00047378652976 0.00047146757181 0.00046916896258 0.00046689042925 0.00046463175757 
0.00046239135989 0.00046016873442 0.00045796317111 0.00045577342785 0.00045359827408 0.00045143680707 0.00044928796043 0.00057909115094 0.00057602205743 
0.00057296786435 0.00056992914479 0.00056690883933 0.00056390458158 0.00056091834676 0.00055795095137 0.00055500209762 0.0005520741486 0.00054916363959 
0.00054627266607 0.00054340067954 0.00054054702237 0.00053771130841 0.00053489291159 0.00053209174845 0.00052930875267 0.00052654365485 0.0005237963607 
0.00052106765298 0.00051835847132 0.00051566894548 0.00051299964171 0.00051035110555 0.00050772431983 0.00050511836928 0.00050253501465 0.00049997128268 
0.00049742910813 0.0004949077373 0.00049240680986 0.00048992732593 0.00048746925353 0.00048503236958 0.00048261617356 0.00048022107546 0.00047784665414 
0.00047549349652 0.00047316424965 0.00047085323931 0.0004685627494 0.00046629153157 0.0004640395189 0.00046180561353 0.0004595884119 0.00045738697819 
0.00045519962195 0.00045302604263 0.0004508646024 0.00058180453976 0.00057871269765 0.00057563612115 0.00057257595628 0.00056953208063 0.00056650643179 
0.00056349922516 0.00056050890795 0.00055753739382 0.00055458335136 0.00055165122013 0.00054873578105 0.00054583837102 0.00054295853536 0.00054009621126 
0.00053725084423 0.00053442278506 0.00053161161887 0.00052881830256 0.00052604287925 0.00052328653095 0.00052054986228 0.00051783368249 0.00051513806396 
0.00051246442564 0.00050981276765 0.0005071826257 0.00050457506938 0.00050199065305 0.00049942651303 0.00049688505031 0.0004943653129 0.00049186699882 
0.0004893916516 0.000486937606 0.00048450549763 0.00048209577704 0.00047970757416 0.00047734098896 0.00047499899338 0.00047267553647 0.0004703729653 
0.00046809039717 0.00046582643592 0.00046358036954 0.00046135126031 0.00045913701218 0.00045693697524 0.00045474967853 0.00045257480131 0.00058466340714 
0.00058154894867 0.00057845065354 0.00057536789532 0.00057230271032 0.00056925482856 0.00056622420623 0.00056321341145 0.00056021866795 0.00055724156074 
0.00055428699255 0.00055134448827 0.00054842134974 0.00054551494493 0.00054262461662 0.00053975138375 0.00053689481835 0.00053405486111 0.00053123234526 
0.00052842836204 0.00052564365073 0.00052287918328 0.00052013492285 0.00051741309904 0.00051471321023 0.00051203627846 0.0005093819076 0.00050675067137 
0.00050414246613 0.00050155823864 0.00049899613187 0.00049645674966 0.00049394100459 0.00049144739971 0.00048897701912 0.00048652965389 0.00048410492706 
0.00048170352125 0.00047932424016 0.00047696732711 0.00047463461263 0.00047232031418 0.00047002560012 0.00046774973999 0.00046549129233 0.00046324946942 