# vtk DataFile Version 5.1
vtk output
ASCII
DATASET STRUCTURED_POINTS
DIMENSIONS 30 30 30
SPACING 0.01 0.01 0.01
ORIGIN 1.555 -0.145 0.855
POINT_DATA 27000
FIELD FieldData 1
potential 1 27000 double
0.0034614039419 0.0034497747074 0.0034381989668 0.0034266760237 0.0034152062663 0.0034037887373 0.0033924233421 0.0033811099366 0.003369848371 
0.0033586379996 0.0033474788859 0.0033363706273 0.0033253128129 0.0033143056486 0.0033033484818 0.0032924412852 0.0032815834697 0.003270775254 
0.0032600159534 0.0032493058332 0.0032386442807 0.0032280309844 0.0032174657906 0.0032069484985 0.0031964788523 0.0031860564121 0.0031756813368 
0.0031653532355 0.0031550718395 0.003144836904 0.0034537356447 0.0034421529941 0.0034306234281 0.003419146749 0.0034077223166 0.0033963500206 
0.0033850296458 0.0033737610132 0.003362543668 0.0033513773362 0.0033402617675 0.0033291968004 0.0033181820762 0.0033072173508 0.0032963025412 
0.003285437586 0.0032746213949 0.0032638547169 0.0032531365452 0.0032424671442 0.0032318459947 0.0032212728896 0.003210747622 0.0032002699329 
0.0031898396549 0.0031794563467 0.0031691200269 0.0031588304103 0.0031485871931 0.0031383901608 0.0034460816804 0.0034345457378 0.0034230620815 
0.0034116311087 0.003400252128 0.0033889252062 0.0033776499235 0.0033664256577 0.0033552524785 0.0033441299316 0.0033330579616 0.0033220360544 
0.0033110642309 0.003300142129 0.0032892695253 0.003278446246 0.0032676718087 0.0032569464794 0.0032462694463 0.0032356408016 0.003225060158 
0.0032145271022 0.0032040416761 0.0031936035733 0.003183212516 0.0031728684439 0.0031625705523 0.0031523192952 0.0031421141293 0.0031319549364 
0.0034384425989 0.003426953008 0.0034155156429 0.0034041303411 0.0033927967187 0.0033815147481 0.003370283752 0.0033591037843 0.0033479747144 
0.0033368959731 0.003325867573 0.0033148888025 0.0033039597346 0.003293080218 0.0032822497712 0.0032714683007 0.0032607354311 0.0032500513604 
0.0032394153168 0.0032288272953 0.0032182870054 0.0032077940887 0.003197348319 0.0031869496552 0.0031765977641 0.0031662925334 0.0031560332648 
0.0031458203154 0.0031356531861 0.0031255317122 0.0034308181349 0.0034193747887 0.0034079833741 0.0033966434557 0.0033853552932 0.0033741180264 
0.003362931721 0.0033517960871 0.0033407108393 0.0033296756424 0.0033186904762 0.0033077549251 0.0032968687695 0.0032860316516 0.0032752432888 
0.0032645035993 0.0032538121121 0.0032431692907 0.0032325741463 0.0032220265927 0.0032115265657 0.003201073612 0.0031906675923 0.0031803082225 
0.0031699954091 0.0031597289764 0.003149508408 0.0031393334601 0.0031292042739 0.0031191204712 0.0034232086064 0.0034118113759 0.0034004657949 
0.0033891715385 0.0033779283639 0.0033667359802 0.0033555941541 0.0033445026862 0.0033334613437 0.0033224698165 0.0033115277597 0.0033006349717 
0.0032897913113 0.0032789964761 0.0032682502923 0.0032575523808 0.0032469024054 0.003236300587 0.0032257462468 0.003215239105 0.0032047791408 
0.0031943661693 0.0031839997296 0.0031736797128 0.0031634058283 0.0031531780889 0.0031429959593 0.0031328590735 0.0031227677504 0.0031127215365 
0.0034156143269 0.0034042630757 0.0033929634421 0.0033817146592 0.0033705162549 0.0033593686592 0.0033482713367 0.0033372239525 0.0033262263754 
0.0033152782989 0.0033043793862 0.0032935294542 0.0032827283594 0.0032719756855 0.0032612713744 0.0032506148698 0.0032400062029 0.0032294453362 
0.0032189319231 0.0032084652186 0.0031980452791 0.0031876720807 0.0031773450704 0.003167064259 0.0031568293406 0.0031466401432 0.0031364963389 
0.0031263974604 0.0031163438975 0.0031063352086 0.0034080355833 0.0033967305117 0.0033854761647 0.0033742726471 0.0033631193575 0.0033520163618 
0.0033409634158 0.0033299599941 0.0033190060038 0.0033081013537 0.0032972455646 0.0032864382924 0.0032756796418 0.0032649690618 0.00325430653 
0.0032436915155 0.0032331240395 0.0032226039434 0.0032121308856 0.003201704581 0.003191324796 0.0031809912968 0.0031707038546 0.0031604621381 
0.0031502660843 0.0031401153528 0.0031300096857 0.0031199490229 0.0031099329733 0.0030999615567 0.0034004728717 0.0033892134735 0.0033780046115 
0.0033668462405 0.0033557377842 0.0033446794744 0.0033336707004 0.0033227111917 0.0033118007714 0.0033009393875 0.0032901265377 0.0032793619619 
0.0032686455478 0.0032579770096 0.0032473561596 0.0032367825181 0.0032262562127 0.0032157768474 0.0032053441632 0.0031949579376 0.0031846180557 
0.0031743240605 0.0031640759321 0.0031538733142 0.0031437161062 0.0031336036983 0.0031235362124 0.0031135133991 0.0031035350378 0.0030936008952 
0.0033929261774 0.0033817123609 0.003370549011 0.0033594357013 0.0033483721156 0.0033373578785 0.0033263931578 0.0033154777272 0.0033046107341 
0.0032937924969 0.0032830224829 0.0032723003841 0.00326162627 0.0032509996895 0.0032404202444 0.0032298881286 0.0032194026936 0.0032089640706 
0.0031985716863 0.003188225556 0.0031779254616 0.003167670949 0.0031574620394 0.0031472982521 0.0031371795782 0.0031271056209 0.0031170762525 
0.0031070913677 0.0030971504919 0.003087253307 0.0033853957884 0.0033742276776 0.003363109532 0.0033520411344 0.0033410222133 0.0033300522133 
0.0033191314807 0.003308259506 0.0032974359326 0.0032866608033 0.0032759334683 0.0032652539668 0.0032546219237 0.0032440371478 0.0032334991941 
0.0032230082512 0.0032125637543 0.0032021656957 0.0031918136709 0.0031815074376 0.0031712469225 0.0031610319279 0.0031508621358 0.0031407371273 
0.0031306570241 0.0031206213056 0.0031106299344 0.0031006826902 0.0030907791935 0.0030809190982 0.0033778818463 0.0033667592156 0.0033556862727 
0.003344662782 0.0033336883477 0.0033227627915 0.003311885661 0.0033010572522 0.0032902768662 0.0032795445396 0.0032688598536 0.003258222679 
0.0032476326381 0.0032370896279 0.0032265930713 0.0032161432201 0.0032057394901 0.0031953819668 0.0031850701067 0.0031748037628 0.0031645828225 
0.003154407127 0.0031442762047 0.0031341900256 0.0031241483372 0.0031141507503 0.0031041972444 0.0030942875917 0.0030844213738 0.0030745986457 
0.0033703845834 0.0033593073139 0.0033482793954 0.003337300614 0.0033263706236 0.0033154891518 0.003304655789 0.0032938707714 0.0032831335535 
0.0032724441258 0.0032618018451 0.0032512068843 0.0032406586977 0.0032301573203 0.0032197020702 0.0032092930767 0.0031989301087 0.0031886129272 
0.0031783411862 0.0031681146683 0.0031579331528 0.003147796516 0.0031377045782 0.0031276570532 0.0031176536928 0.0031076941705 0.0030977784992 
0.0030879062668 0.0030780772504 0.0030682914387 0.0033629040926 0.0033518720736 0.0033408890795 0.0033299548908 0.0033190692188 0.0033082317917 
0.0032974420203 0.0032867004031 0.0032760062015 0.0032653593577 0.0032547595381 0.0032442065263 0.0032337001868 0.0032232402216 0.0032128263278 
0.0032024580873 0.0031921356881 0.0031818587097 0.0031716270304 0.0031614402109 0.0031512981555 0.0031412005155 0.0031311474168 0.0031211383883 
0.0031111732692 0.0031012517511 0.0030913736795 0.00308153882 0.0030717469247 0.0030619979115 0.0033554405472 0.0033444537051 0.0033335154413 
0.0033226257353 0.0033117841841 0.0033009906776 0.0032902446873 0.0032795460512 0.0032688947545 0.003258290494 0.0032477329566 0.0032372219626 
0.0032267571965 0.0032163385954 0.0032059658358 0.0031956383918 0.0031853564534 0.0031751196502 0.0031649276962 0.0031547804793 0.0031446776443 
0.0031346191677 0.0031246045796 0.0031146341038 0.0031047070915 0.0030948234987 0.0030849829599 0.0030751853335 0.0030654304766 0.003055718131 
0.0033479940448 0.0033370521497 0.0033261586347 0.0033153132957 0.0033045157721 0.0032937660239 0.0032830635453 0.0032724078633 0.0032617993129 
0.0032512374922 0.003240722205 0.0032302530745 0.0032198298959 0.0032094524748 0.0031991206523 0.0031888338919 0.0031785923325 0.0031683955882 
0.0031582434623 0.0031481356959 0.0031380720386 0.0031280523512 0.0031180763615 0.0031081441778 0.003098255311 0.0030884094716 0.0030786063595 
0.0030688458795 0.0030591279227 0.003049452228 0.0033405648327 0.0033296677144 0.0033188186697 0.0033080175541 0.003297264016 0.0032865577448 
0.0032758986855 0.0032652861876 0.0032547201021 0.0032442006346 0.0032337274347 0.0032233000498 0.0032129182937 0.003202582015 0.0031922910333 
0.003182044934 0.0031718436093 0.0031616866995 0.003151574221 0.003141505818 0.0031314813095 0.0031215004562 0.0031115630085 0.0031016687736 
0.0030918180062 0.0030820096375 0.0030722439769 0.0030625205834 0.0030528394272 0.0030432002571 0.0033331528622 0.0033223004846 0.0033114957963 
0.0033007387919 0.0032900289614 0.003279366207 0.0032687502524 0.0032581806547 0.0032476571168 0.0032371798542 0.0032267486244 0.0032163628696 
0.003206022557 0.0031957272464 0.0031854769791 0.0031752712938 0.0031651101813 0.0031549930259 0.0031449199722 0.0031348908597 0.0031249053926 
0.0031149632098 0.0031050642092 0.0030952082262 0.0030853951625 0.0030756242534 0.0030658957903 0.0030562093756 0.0030465649938 0.0030369622609 
0.0033257582386 0.0033149503285 0.0033041901096 0.0032934770654 0.0032828108932 0.0032721913219 0.0032616184457 0.0032510916919 0.0032406104771 
0.0032301753505 0.0032197858973 0.0032094416897 0.0031991425289 0.0031888881556 0.0031786784165 0.0031685130964 0.0031583920011 0.0031483145176 
0.0031382809214 0.0031282909486 0.0031183443324 0.0031084407266 0.0030985800638 0.003088762064 0.0030789867156 0.0030692533374 0.0030595620523 
0.0030499124588 0.003040304581 0.0030307382013 0.0033183807247 0.0033076175934 0.0032969013523 0.0032862321365 0.0032756095316 0.0032650333259 
0.0032545033475 0.0032440190971 0.0032335800827 0.003223187067 0.0032128393122 0.0032025364964 0.0031922783571 0.0031820648665 0.0031718955574 
0.0031617705005 0.0031516892333 0.0031416515098 0.0031316572444 0.0031217062293 0.0031117982603 0.0031019330523 0.0030921104664 0.0030823305821 
0.0030725927544 0.0030628967704 0.0030532423928 0.0030436295922 0.0030340582095 0.0030245279453 0.0033110206495 0.0033003019583 0.0032896298815 
0.0032790043851 0.0032684250771 0.0032578919608 0.0032474046424 0.0032369629528 0.0032265664676 0.0032162150712 0.0032059088467 0.0031956472314 
0.0031854300673 0.0031752571504 0.0031651283237 0.0031550433444 0.0031450018787 0.0031350036117 0.0031250485554 0.0031151364383 0.0031052671222 
0.0030954402979 0.0030856556942 0.0030759135641 0.003066213033 0.0030565542563 0.0030469371349 0.0030373609926 0.0030278259313 0.0030183318811 
0.0033036780692 0.003293003365 0.0032823754633 0.0032717933858 0.0032612575257 0.0032507672755 0.0032403226662 0.0032299233323 0.0032195689354 
0.0032092592645 0.0031989944629 0.0031887740627 0.0031785977813 0.0031684654932 0.0031583767979 0.0031483317376 0.0031383299811 0.0031283711408 
0.0031184551234 0.0031085817707 0.003098750939 0.0030889623478 0.0030792160078 0.0030695113483 0.0030598482164 0.0030502265275 0.0030406461488 
0.0030311065277 0.003021607887 0.0030121499613 0.003296352801 0.0032857222364 0.0032751377925 0.0032645995207 0.0032541068116 0.0032436596231 
0.0032332575529 0.0032229000451 0.0032125878262 0.0032023197107 0.0031920962979 0.0031819168862 0.0031717813653 0.0031616894182 0.0031516407829 
0.0031416355441 0.0031316732846 0.0031217537869 0.0031118768954 0.0031020422845 0.0030922497828 0.00308249931 0.0030727909426 0.0030631237258 
0.0030534978949 0.0030439132281 0.0030343695707 0.0030248664921 0.003015403819 0.0030059818418 0.0032890450936 0.0032784583482 0.0032679175536 
0.0032574224361 0.003246972929 0.0032365683452 0.003226208795 0.0032158936203 0.003205623195 0.0031953967625 0.0031852142231 0.0031750755536 
0.0031649805374 0.0031549290587 0.0031449205021 0.0031349549808 0.0031250323536 0.0031151517672 0.0031053136064 0.0030955175605 0.0030857635291 
0.0030760513661 0.0030663804485 0.0030567506836 0.0030471619539 0.0030376141838 0.0030281069963 0.0030186404286 0.0030092139374 0.0029998276402 
0.0032817546289 0.0032712117923 0.003260714506 0.0032502625894 0.0032398557895 0.0032294937922 0.0032191764749 0.0032089032807 0.0031986745363 
0.0031884895622 0.0031783480188 0.0031682502817 0.0031581957309 0.0031481844133 0.0031382158487 0.0031282900209 0.0031184064886 0.003108565059 
0.0030987657608 0.0030890082507 0.0030792921713 0.0030696176519 0.0030599843083 0.0030503919343 0.003040840249 0.003031329422 0.0030218587766 
0.0030124283696 0.0030030379508 0.0029936872896 0.0032744814815 0.0032639823004 0.0032535284009 0.0032431195121 0.0032327554747 0.0032224358199 
0.0032121604028 0.0032019294374 0.0031917421424 0.0031815985487 0.0031714980711 0.0031614407072 0.003151426467 0.0031414553411 0.0031315266314 
0.0031216403552 0.0031117960802 0.0031019934068 0.0030922327126 0.003082513499 0.0030728358038 0.0030631988554 0.0030536030221 0.0030440477084 
0.0030345329351 0.0030250585953 0.0030156243958 0.0030062301005 0.0029968755193 0.0029875604477 0.0032672254711 0.0032567699154 0.0032463592284 
0.0032359931704 0.0032256717348 0.0032153945013 0.0032051610907 0.0031949716551 0.003184825962 0.0031747235107 0.0031646637581 0.0031546470263 
0.0031446732919 0.0031347420452 0.0031248528564 0.0031150058245 0.0031052004537 0.0030954367502 0.0030857145537 0.003076033497 0.0030663937443 
0.0030567945442 0.0030472361134 0.0030377179583 0.0030282400112 0.0030188020531 0.0030094040648 0.0030000457549 0.0029907269933 0.0029814473878 
0.0032599866233 0.0032495743026 0.0032392068019 0.0032288836488 0.0032186046642 0.0032083696449 0.0031981781101 0.0031880302282 0.0031779256396 
0.0031678643618 0.0031578456737 0.0031478689529 0.0031379352022 0.0031280438783 0.0031181943776 0.0031083866751 0.0030986201912 0.0030888951479 
0.0030792112399 0.0030695686839 0.0030599665501 0.0030504047403 0.0030408833967 0.00303140221 0.0030219609899 0.0030125596276 0.003003197757 
0.0029938752229 0.0029845918921 0.0029753476546 0.0032527647655 0.0032423958546 0.0032320711936 0.0032217906822 0.0032115541139 0.0032013610838 
0.0031912113392 0.0031811050043 0.003171041553 0.0031610208596 0.0031510427974 0.003141106474 0.0031312127105 0.0031213609047 0.0031115508636 
0.0031017822457 0.0030920547412 0.0030823681736 0.0030727226265 0.0030631180266 0.0030535535671 0.0030440292682 0.0030345450706 0.003025100688 
0.0030156960576 0.0030063310182 0.0029970052529 0.0029877184529 0.0029784707609 0.0029692616522 0.0032455598966 0.0032352340979 0.0032249522401 
0.0032147142665 0.003204519915 0.0031943687685 0.0031842607631 0.0031741956332 0.0031641731894 0.003154193209 0.0031442553853 0.003134359409 
0.0031245054863 0.0031146932443 0.0031049224998 0.0030951927064 0.0030855039926 0.003075855843 0.0030662487478 0.003056681683 0.0030471548122 
0.0030376678879 0.0030282207764 0.0030188131679 0.0030094449241 0.0030001160927 0.002990826102 0.002981575024 0.0029723626378 0.0029631888707 
0.0034982540918 0.0034865087678 0.0034748171836 0.0034631794288 0.0034515945109 0.0034400626174 0.0034285837019 0.0034171572897 0.0034057826521 
0.0033944600169 0.0033831889741 0.0033719692981 0.0033608007506 0.0033496830729 0.0033386158354 0.0033275988826 0.0033166322479 0.0033057154653 
0.0032948482297 0.0032840302259 0.0032732612091 0.0032625411508 0.0032518696479 0.0032412464894 0.0032306711969 0.0032201441011 0.0032096645596 
0.0031992323778 0.003188847269 0.003178509148 0.0034905139649 0.0034788154659 0.0034671705341 0.0034555789066 0.0034440400396 0.0034325539671 
0.0034211203158 0.0034097383649 0.0033984086221 0.0033871303752 0.003375903262 0.0033647272289 0.0033536020758 0.0033425272585 0.0033315029143 
0.0033205282134 0.0033096037576 0.0032987284214 0.0032879027416 0.0032771258975 0.0032663978628 0.003255718326 0.0032450870781 0.0032345038972 
0.0032239683855 0.0032134805428 0.0032030400488 0.003192646659 0.0031823000676 0.0031720001558 0.0034827883689 0.0034711367906 0.0034595383773 
0.0034479926745 0.0034364995727 0.0034250590438 0.0034136702236 0.0034023331278 0.0033910479508 0.0033798138816 0.0033686305126 0.0033574980118 
0.0033464160945 0.0033353843142 0.0033244025011 0.0033134700782 0.0033025876142 0.0032917540548 0.0032809696402 0.0032702339469 0.003259546649 
0.0032489075821 0.0032383165052 0.0032277731785 0.0032172774823 0.0032068286855 0.0031964271899 0.0031860724772 0.0031757643374 0.0031655025714 
0.0034750766491 0.0034634716849 0.0034519196779 0.0034404200632 0.0034289728133 0.0034175774827 0.0034062338157 0.0033949414482 0.0033837005236 
0.003372510541 0.0033613709419 0.0033502820357 0.0033392433878 0.0033282544689 0.0033173151651 0.0033064250347 0.0032955844915 0.0032847924487 
0.0032740493498 0.0032633546633 0.0032527079598 0.0032421092745 0.0032315582809 0.0032210547411 0.0032105985212 0.0032001889438 0.0031898263748 
0.0031795102386 0.0031692404635 0.003159016861 0.0034673793866 0.0034558212841 0.0034443153543 0.0034328618904 0.0034214601413 0.0034101099718 
0.0033988113414 0.0033875636787 0.0033763669924 0.0033652210556 0.0033541251662 0.0033430794616 0.0033320837424 0.0033211374928 0.0033102408049 
0.0032993928179 0.0032885940694 0.0032778437417 0.0032671418097 0.0032564879462 0.0032458819187 0.0032353234425 0.0032248124432 0.0032143486019 
0.0032039317877 0.0031935615613 0.0031832375707 0.0031729599799 0.0031627284423 0.003152542775 0.0034596970003 0.0034481853461 0.0034367257881 
0.0034253180485 0.0034139619098 0.0034026569639 0.0033914031729 0.0033802001089 0.0033690475654 0.0033579455334 0.0033468932408 0.0033358908039 
0.0033249379641 0.0033140344173 0.0033031799429 0.0032923739438 0.003281616794 0.0032709081901 0.0032602472963 0.0032496342001 0.0032390687911 
0.0032285505285 0.0032180793552 0.0032076551133 0.0031972776281 0.0031869464336 0.0031766611677 0.0031664220339 0.003156228725 0.0031460808322 
0.0034520298303 0.0034405647623 0.003429151179 0.0034177890151 0.0034064783777 0.0033952185322 0.0033840094661 0.0033728508713 0.0033617425399 
0.0033506842402 0.0033396754607 0.003328716272 0.0033178061871 0.0033069452093 0.0032961329412 0.0032853691347 0.0032746533871 0.0032639858072 
0.0032533658559 0.0032427934851 0.0032322685799 0.003221790669 0.0032113593819 0.0032009745836 0.0031906363015 0.0031803440335 0.0031700976442 
0.0031598966412 0.0031497413509 0.0031396312793 0.0034443782751 0.0034329592779 0.0034215916236 0.0034102750766 0.0033990096727 0.0033877950066 
0.0033766305663 0.0033655163117 0.0033544520151 0.0033434373623 0.0033324720172 0.0033215559016 0.0033106885952 0.0032998700421 0.0032890999707 
0.0032783779284 0.0032677037063 0.0032570772308 0.003246498366 0.0032359665989 0.0032254819212 0.0032150437919 0.0032046522341 0.0031943070418 
0.0031840078505 0.0031737544273 0.0031635466879 0.0031533839617 0.0031432667195 0.0031331943304 0.0034367419693 0.0034253692561 0.0034140474935 
0.0034027766444 0.0033915562037 0.0033803862995 0.00336926643 0.0033581965468 0.0033471761698 0.0033362051192 0.0033252830665 0.0033144099208 
0.0033035852572 0.0032928091132 0.0032820810226 0.0032714006216 0.003260767903 0.0032501826352 0.0032396445635 0.0032291533121 0.0032187087315 
0.0032083107055 0.003197958783 0.0031876527581 0.0031773926768 0.0031671779524 0.0031570085723 0.0031468844194 0.0031368047856 0.0031267699521 
0.003429121858 0.0034177949733 0.0034065189057 0.0033952935121 0.0033841182854 0.0033729932027 0.0033619177225 0.0033508918324 0.0033399153255 
0.003328987707 0.0033181090392 0.0033072787213 0.0032964967088 0.0032857626624 0.0032750764984 0.0032644377476 0.0032538463658 0.003243302073 
0.0032328046393 0.0032223538198 0.0032119493647 0.0032015911582 0.003191278756 0.0031810120553 0.003170790975 0.0031606148552 0.0031504838303 
0.0031403977058 0.0031303558735 0.0031203586149 0.003421517623 0.0034102367935 0.0033990063331 0.0033878263006 0.003376696089 0.0033656154609 
0.003354584394 0.0033436024112 0.0033326696683 0.003321785429 0.0033109498766 0.0033001624118 0.0032894227669 0.0032787308539 0.003268086522 
0.0032574892955 0.00324693924 0.003236435765 0.0032259789251 0.0032155683348 0.003205203993 0.0031948855095 0.0031846125402 0.0031743849652 
0.0031642026697 0.0031540652722 0.0031439725491 0.0031339242999 0.0031239202097 0.0031139603799 0.003413929713 0.0034026947508 0.0033915099084 
0.0033803749778 0.0033692896696 0.003358253539 0.0033472666415 0.0033363285679 0.0033254393473 0.0033145983676 0.0033038057306 0.0032930610074 
0.0032823637048 0.0032717137966 0.0032611112546 0.0032505554488 0.0032400465014 0.0032295838701 0.0032191675486 0.0032087972502 0.003198472741 
0.0031881937753 0.00317796025 0.0031677717152 0.0031576281482 0.0031475292095 0.0031374747606 0.0031274644431 0.0031174981302 0.0031075753083 
0.003406358286 0.0033951690086 0.0033840295568 0.0033729397252 0.0033618991563 0.0033509074445 0.0033399647543 0.0033290704865 0.0033182247448 
0.0033074267844 0.0032966769347 0.0032859746648 0.0032753196721 0.0032647116055 0.0032541506872 0.0032436363361 0.0032331684078 0.0032227464921 
0.0032123706025 0.0032020403998 0.0031917556974 0.0031815162434 0.0031713219276 0.0031611724115 0.0031510674095 0.0031410068423 0.0031309904584 
0.0031210179515 0.0031110892029 0.0031012036753 0.0033988032678 0.0033876596468 0.0033765655126 0.0033655206295 0.0033545246185 0.0033435775231 
0.0033326786865 0.0033218280738 0.0033110256126 0.0033002708478 0.0032895636723 0.0032789038845 0.003268290947 0.0032577247212 0.0032472051758 
0.003236731972 0.0032263049538 0.00321592373 0.0032055881677 0.0031952979895 0.0031850529826 0.0031748530751 0.0031646977492 0.003154587108 
0.0031445207252 0.0031344984329 0.0031245199442 0.0031145851563 0.0031046937837 0.0030948456648 0.003391265077 0.0033801668615 0.0033691179526 
0.0033581179466 0.0033471665163 0.0033362635389 0.0033254086287 0.0033146015793 0.0033038422316 0.0032931305213 0.0032824659689 0.003271848502 
0.0032612775917 0.0032507531502 0.0032402747981 0.0032298426318 0.0032194564826 0.0032091157594 0.0031988202914 0.0031885701024 0.0031783647394 
0.003168203988 0.0031580878844 0.0031480159501 0.0031379880223 0.0031280038945 0.0031180632808 0.003108166096 0.0030983120158 0.0030885009537 
0.0033837438311 0.0033726909289 0.0033616869641 0.0033507316164 0.0033398246522 0.0033289657529 0.0033181546131 0.0033073909854 0.0032966748095 
0.0032860058597 0.0032753838357 0.0032648085696 0.0032542795997 0.0032437967456 0.0032333597842 0.0032229685723 0.0032126230319 0.0032023226833 
0.003192067303 0.0031818568316 0.0031716909228 0.0031615694162 0.003151492265 0.0031414590454 0.0031314695222 0.0031215233607 0.0031116205263 
0.0031017608171 0.0030919439893 0.0030821698611 0.003376239391 0.0033652317959 0.0033542727497 0.0033433619006 0.0033324992264 0.0033216842649 
0.0033109168668 0.0033001964398 0.0032895232674 0.0032788970188 0.0032683174099 0.0032577842503 0.0032472970608 0.0032368556868 0.0032264597657 
0.0032161095312 0.0032058045801 0.0031955445163 0.0031853291207 0.0031751584156 0.0031650318128 0.0031549494461 0.0031449109344 0.0031349165222 
0.0031249651864 0.0031150569838 0.0031051917734 0.0030953694475 0.0030855897367 0.0030758524515 0.0033687521322 0.003357789504 0.003346875275 
0.0033360089224 0.0033251903341 0.0033144192562 0.0033036952811 0.003293018142 0.0032823878136 0.0032718041553 0.0032612668268 0.003250775602 
0.0032403300364 0.003229929971 0.0032195752641 0.0032092659295 0.0031990011713 0.0031887812694 0.003178605824 0.0031684745732 0.0031583873802 
0.0031483440904 0.0031383442987 0.0031283882115 0.0031184749816 0.003108604602 0.0030987771015 0.0030889920879 0.003079249384 0.0030695488188 
0.0033612819295 0.003350364465 0.0033394947121 0.0033286725664 0.0033178979938 0.0033071706186 0.0032964900439 0.0032858558493 0.0032752684426 
0.0032647272587 0.0032542320319 0.0032437826642 0.0032333787376 0.0032230198257 0.0032127061122 0.0032024374109 0.0031922129867 0.0031820331425 
0.0031718974165 0.003161805594 0.0031517575752 0.0031417531007 0.0031317918671 0.0031218742511 0.0031119990986 0.0031021664204 0.0030923762352 
0.003082628445 0.0030729227053 0.0030632587708 0.0033538288118 0.003342956137 0.0033321310034 0.0033213532218 0.0033106224045 0.0032999386061 
0.0032893011461 0.0032787101043 0.0032681651617 0.0032576663531 0.0032472131742 0.0032368055393 0.0032264430005 0.0032161252599 0.0032058524094 
0.0031956242054 0.0031854401072 0.0031753000638 0.0031652040258 0.0031551515619 0.0031451425708 0.0031351768762 0.0031252544074 0.0031153746664 
0.0031055374487 0.0030957424917 0.003085989845 0.00307627896 0.0030666099944 0.0030569825957 0.003346392919 0.0033355649586 0.0033247840827 
0.003314050409 0.0033033634912 0.0032927230159 0.0032821288105 0.0032715806015 0.0032610781981 0.00325062149 0.0032402102198 0.0032298441395 
0.0032195229412 0.0032092462271 0.0031990140954 0.0031888262504 0.0031786823436 0.0031685821309 0.0031585256301 0.0031485124479 0.003138542367 
0.0031286153263 0.0031187313206 0.0031088896005 0.0030990901817 0.0030893327746 0.0030796172093 0.0030699434019 0.0030603111426 0.0030507201744 
0.0033389741748 0.0033281907864 0.0033174543079 0.0033067645429 0.003296121255 0.0032855242257 0.0032749727788 0.003264467167 0.0032540072227 
0.0032435926804 0.0032332232388 0.0032228986474 0.0032126183551 0.0032023826363 0.0031921910826 0.0031820435135 0.0031719396254 0.0031618791669 
0.0031518620573 0.0031418880425 0.0031319568289 0.0031220684062 0.0031122225199 0.0031024186489 0.0030926569427 0.003082937078 0.0030732587558 
0.0030636218533 0.0030540261031 0.0030444715105 0.0033315722574 0.0033208332611 0.0033101412112 0.0032994952659 0.0032888954807 0.0032783416457 
0.0032678332416 0.0032573704642 0.0032469528241 0.0032365798909 0.0032262520383 0.0032159688469 0.0032057297494 0.0031955348544 0.0031853836493 
0.0031752761529 0.0031652121269 0.0031551912789 0.0031452134057 0.0031352783889 0.0031253860392 0.0031155361737 0.0031057283679 0.0030959624026 
0.00308623831 0.0030765557592 0.0030669143882 0.0030573143504 0.0030477551903 0.0030382366961 0.0033241878774 0.0033134931349 0.0033028448146 
0.0032922427239 0.0032816864298 0.0032711756137 0.0032607100056 0.0032502896954 0.003239914188 0.0032295832974 0.0032192969256 0.0032090549859 
0.0031988567716 0.0031887025116 0.0031785915707 0.0031685241021 0.0031584997816 0.003148518464 0.0031385798143 0.0031286837034 0.0031188300595 
0.0031090183175 0.0030992485654 0.0030895204185 0.0030798338942 0.0030701884443 0.0030605842749 0.0030510207842 0.0030414978934 0.0030320155583 
0.003316820699 0.0033061701716 0.0032955655862 0.003285006872 0.0032744938782 0.0032640260084 0.0032536031489 0.0032432251629 0.0032328916931 
0.0032226025338 0.0032123575009 0.0032021564929 0.0031919991027 0.0031818854045 0.0031718150739 0.003161787583 0.0031518027723 0.003141860791 
0.0031319612754 0.0031221036751 0.0031122887628 0.0031025152889 0.0030927833063 0.0030830927356 0.0030734435163 0.0030638351621 0.0030542677553 
0.0030447408031 0.0030352542521 0.0030258080273 0.0033094705881 0.003298864115 0.0032883033304 0.0032777880014 0.0032673179399 0.0032568928531 
0.003246512577 0.0032361767787 0.0032258851696 0.0032156374689 0.0032054339029 0.0031952738873 0.0031851572435 0.0031750838276 0.0031650536209 
0.0031550659371 0.0031451206553 0.0031352180748 0.0031253575159 0.0031155388646 0.0031057619731 0.0030960265818 0.003086332363 0.0030766793631 
0.003067067369 0.0030574959654 0.0030479652343 0.0030384747119 0.0030290243225 0.0030196139891 0.0033021374813 0.003291574909 0.0032810577264 
0.0032705856778 0.0032601585671 0.0032497758659 0.0032394381208 0.0032291443874 0.0032188946428 0.003208688568 0.0031985259522 0.0031884069364 
0.0031783307923 0.0031682976338 0.0031583075826 0.0031483595008 0.0031384536879 0.0031285900909 0.0031187683718 0.0031089884989 0.00309924968 
0.0030895522709 0.0030798957336 0.0030702799906 0.00306070511 0.0030511705737 0.0030416764127 0.0030322223107 0.003022808064 0.0030134332963 
0.0032948212436 0.0032843025373 0.0032738288029 0.0032633997857 0.0032530154655 0.0032426754452 0.003232379714 0.0032221280994 0.0032119199874 
0.003201755254 0.0031916335078 0.0031815554799 0.0031715198194 0.0031615268494 0.0031515765144 0.0031416679873 0.0031318014529 0.0031219768639 
0.0031121940387 0.0031024524034 0.0030927517484 0.0030830922316 0.0030734734028 0.0030638949527 0.0030543571078 0.0030448591948 0.0030354014301 
0.0030259834119 0.0030166051147 0.0030072662141 0.0032875218911 0.0032770466675 0.0032666163989 0.0032562304725 0.0032458888483 0.0032355912289 
0.0032253375715 0.0032151275757 0.0032049609412 0.0031948375045 0.0031847568333 0.003174719143 0.0031647238688 0.0031547711851 0.0031448604087 
0.0031349914586 0.0031251640647 0.0031153783003 0.0031056341615 0.0030959306451 0.0030862679949 0.0030766461997 0.0030670648105 0.0030575236325 
0.0030480227154 0.0030385614872 0.0030291399542 0.0030197580229 0.0030104155513 0.0030011121113 0.0032802394181 0.0032698077393 0.0032594204734 
0.0032490773497 0.0032387783406 0.0032285230885 0.0032183114922 0.0032081431211 0.0031980178398 0.0031879351803 0.0031778954666 0.0031678981778 
0.0031579432308 0.0031480302941 0.0031381591793 0.0031283294637 0.0031185411712 0.0031087943903 0.0030990884213 0.0030894232156 0.0030797985709 
0.0030702142932 0.0030606701607 0.0030511660714 0.0030417019256 0.0030322771562 0.0030228920067 0.0030135462718 0.0030042392824 0.0029949711989 
0.0035350370595 0.0035231757804 0.003511368934 0.0034996159341 0.0034879168577 0.0034762712807 0.0034646786827 0.0034531391068 0.003441652167 
0.003430217377 0.0034188348664 0.003407504121 0.0033962250741 0.0033849973185 0.0033738202705 0.0033626943749 0.0033516190263 0.0033405938598 
0.0033296186821 0.0033186933387 0.0033078175684 0.0032969910437 0.0032862135576 0.0032754846495 0.003264804626 0.0032541728015 0.0032435890312 
0.0032330529708 0.003222564609 0.0032121236208 0.0035272250795 0.0035154110952 0.0035036511985 0.0034919447868 0.0034802919366 0.0034686920596 
0.0034571451358 0.0034456509448 0.003434208881 0.003422818667 0.0034114806524 0.0034001938788 0.0033889585818 0.0033777741876 0.0033666401985 
0.0033555568596 0.0033445237958 0.0033335408359 0.0033226074833 0.0033117236838 0.0033008890626 0.0032901034243 0.0032793665238 0.0032686781176 