# vtk DataFile Version 5.1
vtk output
ASCII
DATASET POLYDATA
POINTS 2427 double
58.611110687 -9.4444446564 1.258879255e-14 57.569446564 -9.4444446564 1.2347858264e-14 58.611110687 -12.222222328 1.258879255e-14 
58.611110687 -12.222222328 1.258879255e-14 57.569446564 -9.4444446564 1.2347858264e-14 55.833335876 -12.222222328 1.1946300237e-14 
55.833335876 -12.222222328 1.1946300237e-14 57.569446564 -9.4444446564 1.2347858264e-14 56.597221375 -9.4444446564 1.2122985028e-14 
55.833335876 -12.222222328 1.1946300237e-14 56.597221375 -9.4444446564 1.2122985028e-14 55.833335876 -9.4444446564 1.1946300237e-14 
56.597221375 -9.4444446564 1.2122985028e-14 57.569446564 -9.4444446564 1.2347858264e-14 56.597221375 -1.6319445372 1.2122985028e-14 
56.597221375 -1.6319445372 1.2122985028e-14 57.569446564 -9.4444446564 1.2347858264e-14 57.569446564 -1.6319445372 1.2347858264e-14 
56.597221375 -1.6319445372 1.2122985028e-14 57.569446564 -1.6319445372 1.2347858264e-14 55.416667938 -0.72916668653 1.1849925993e-14 
55.416667938 -0.72916668653 1.1849925993e-14 57.569446564 -1.6319445372 1.2347858264e-14 58.611110687 -1.6319445372 1.258879255e-14 
55.416667938 -0.72916668653 1.1849925993e-14 58.611110687 -1.6319445372 1.258879255e-14 55.416667938 0.72916668653 1.1849925993e-14 
55.416667938 0.72916668653 1.1849925993e-14 58.611110687 -1.6319445372 1.258879255e-14 58.611110687 1.840277791 1.258879255e-14 
55.416667938 0.72916668653 1.1849925993e-14 58.611110687 1.840277791 1.258879255e-14 -59.444450378 1.840277791 -1.4717161213e-14 
-59.444450378 1.840277791 -1.4717161213e-14 -59.444450378 0.72916668653 -1.4717161213e-14 55.416667938 0.72916668653 1.1849925993e-14 
-59.444450378 -0.72916668653 -1.4717161213e-14 -59.444450378 -1.6319445372 -1.4717161213e-14 55.416667938 -0.72916668653 1.1849925993e-14 
55.416667938 -0.72916668653 1.1849925993e-14 -59.444450378 -1.6319445372 -1.4717161213e-14 56.597221375 -1.6319445372 1.2122985028e-14 
4.5535728997 -1.12893709 8.5420290281e-17 -27.445438739 -1.3804408136 -7.3158704613e-15 -34.01389122 -0.72916668653 -8.835136967e-15 
-8.5803378094 1.3482428786 -2.9524201581e-15 -34.012394094 1.5942603348 -8.8347906855e-15 -34.01389122 0.72916668653 -8.835136967e-15 
4.5555496216 -1.6319445372 8.5877501067e-17 24.597221375 -1.6319445372 4.7214656706e-15 40.597221375 -1.6319445372 8.4222253491e-15 
-5.3888893127 1.840277791 -2.2142461635e-15 26.611110687 1.840277791 5.1872731935e-15 42.611110687 1.840277791 8.888032872e-15 
4.5525553693 1.221201599 8.5184938051e-17 -27.445947505 1.530739695 -7.3159881374e-15 29.984611654 0.97518414276 5.9675554655e-15 
17.268583512 1.0981928709 3.0263702018e-15 42.700639796 0.85217541465 8.9087407292e-15 -8.5833320618 -0.72916668653 -2.9531127211e-15 
23.416667938 -0.72916668653 4.4484066359e-15 -46.729170799 -1.1805556118 -1.177614909e-14 -8.5833320618 0.72916668653 -2.9531127211e-15 
23.416667938 0.88393935508 4.4484066359e-15 -46.729170799 1.1837197968 -1.177614909e-14 -21.299573111 1.1397114793 -5.8943472297e-15 
4.5535728997 -1.12893709 8.5420290281e-17 -27.444450378 -1.5061907333 -7.3156418559e-15 29.985120419 -0.92905188828 5.9676731416e-15 
14.576385498 -1.3410569849 2.4036715858e-15 -11.443956183 -1.4433118893 -3.6147678712e-15 -3.4427205865 -1.4118685827 -1.7641022417e-15 
3.6111106873 1.6225554619 -1.3256884437e-16 4.6111106873 1.840277791 9.8728635539e-17 -3.4470703492 1.298586123 -1.7651083308e-15 
6.6111106873 1.840277791 5.6132359535e-16 2.6111106873 1.840277791 -3.6386632427e-16 10.611110687 1.840277791 1.486513515e-15 
7.4189136275 1.1934738306 7.4816637968e-16 -11.446696068 1.375970647 -3.6154015997e-15 23.418165064 1.0387047826 4.4487529174e-15 
6.142058887 1.205825508 4.5283309602e-16 4.14582368 1.5719796367 -8.8910766671e-18 5.6111106873 1.840277791 3.3002611544e-16 
10.91056944 1.1596972349 1.5557775699e-15 18.611110687 1.840277791 3.3368933542e-15 7.7315624048 1.190449417 8.2048125398e-16 
14.611110687 1.840277791 2.4117034346e-15 9.3210659226 1.1750733259 1.1881294119e-15 5.1111106873 1.4806779707 2.1437737549e-16 
23.626597583 1.0366885068 4.4969628336e-15 16.611110687 1.840277791 2.8742983944e-15 8.6111106873 1.840277791 1.0239185552e-15 
14.089576476 1.1289450529 2.2910738858e-15 9.5623175605 -1.360761301 1.2439303078e-15 0.55987506345 -1.3961391569 -8.3831195475e-16 
7.0521237955 -1.3706258764 6.6332881588e-16 2.5651354451 -1.3882588718 -3.7450028191e-16 3.5757459356 -1.3842873683 -1.407486223e-16 
-4.5805249502 1.3095506166 -2.0272735236e-15 -7.5803845946 1.3385698131 -2.7211334994e-15 -8.0833320618 1.0362937007 -2.8374639811e-15 
-6.5804313798 1.3288967476 -2.4898468408e-15 -0.58071209099 1.2708583546 -1.1021268892e-15 12.611110687 1.840277791 1.9491084748e-15 
6.9368106459 1.1981374625 6.36657175e-16 10.116291663 1.2163830832 1.3720631216e-15 6.1111106873 1.7193171651 4.456748554e-16 
11.611110687 1.840277791 1.7178109949e-15 9.6111106873 1.840277791 1.2552160351e-15 10.52839424 1.3977102206 1.4673814092e-15 
7.6111106873 1.840277791 7.9262107526e-16 8.5263141637 1.1827613715 1.004305333e-15 9.1111106873 1.840277791 1.1395672951e-15 
8.4988828363 1.5205251456 9.9796053605e-16 8.9236900432 1.1789173487 1.0962173725e-15 9.7171317409 1.225509434 1.2797384376e-15 
8.1302343842 1.3205897351 9.1269307812e-16 8.1111106873 1.8361980846 9.0826981521e-16 8.3587121644 1.3391454515 9.655394129e-16 
8.3618453898 1.7481943816 9.6626412003e-16 8.161974649 1.5799257879 9.2003452138e-16 7.8596000329 1.6530954034 8.5009603468e-16 
7.5432147101 1.4916150331 7.7691690684e-16 8.8611106873 1.5729605808 1.0817429251e-15 8.6663038457 1.6413345364 1.0366845936e-15 
8.7059657055 1.3673474859 1.0458582818e-15 10.111110687 1.840277791 1.370864775e-15 9.4807709314 1.5012735886 1.225068778e-15 
7.8846766974 1.3971151689 8.5589620398e-16 8.8611106873 1.8235214982 1.0817429251e-15 9.1246592834 1.4128247994 1.1427010513e-15 
9.0732379501 1.625136158 1.1308074265e-15 9.9195161257 1.3436035669 1.3265494358e-15 9.3611106873 1.741838859 1.1973916651e-15 
9.7598341109 1.5885383591 1.2896153882e-15 10.224571899 1.5292511349 1.3971080673e-15 7.0804165232 1.6746450839 6.6987285251e-16 
12.500072958 1.1443211439 1.9234257279e-15 -1.3888893127 1.840277791 -1.2890562439e-15 -7.4468832084 1.337278385 -2.6902549653e-15 
23.416667938 0.72916668653 4.4484066359e-15 0.55274251003 1.259893861 -8.3996169638e-16 7.4166679382 0.72916668653 7.4764695742e-16 
0.61111068726 1.840277791 -8.2646128408e-16 -1.4471639196 1.279239992 -1.3025350136e-15 -0.58333206177 0.72916668653 -1.1027328818e-15 
-4.5833320618 0.72916668653 -2.0279228014e-15 -27.445438739 -1.3804408136 -7.3158704613e-15 -27.444450378 -1.6319445372 -7.3156418559e-15 
-11.44593292 -1.2546889518 -3.6152250855e-15 -11.444450378 -1.6319445372 -3.6148821774e-15 -3.4461800101 -1.1918130209 -1.7649023976e-15 
-3.4444503784 -1.6319445372 -1.7645023382e-15 14.576385498 -1.6319445372 2.4036715858e-15 17.269346659 -1.0289944892 3.0265467159e-15 
7.4166679382 -0.72916668653 7.4764695742e-16 -0.58333206177 -0.72916668653 -1.1027328818e-15 23.417656299 -0.9806704101 4.4486352413e-15 
3.4166679382 -0.72916668653 -1.775429622e-16 -11.44593292 -1.2546889518 -3.6152250855e-15 5.4166679382 -0.72916668653 2.8505199761e-16 
-3.4461800101 -1.1918130209 -1.7649023976e-15 0.55369644483 -1.1603750555 -8.3974105367e-16 55.138893127 -0.45138889551 1.1805757178e-14 
-60.416667938 0.45138889551 -1.3853694803e-14 -61.111114502 -0.45138889551 -1.4034395729e-14 -61.111114502 -0.45138889551 -1.4034395729e-14 
-60.416667938 0.45138889551 -1.3853694803e-14 -60.416667938 27.083335876 -1.3076701911e-14 -61.111114502 -0.45138889551 -1.4034395729e-14 
-60.416667938 27.083335876 -1.3076701911e-14 -61.111114502 29.861114502 -1.3150021797e-14 -61.111114502 29.861114502 -1.3150021797e-14 
-60.416667938 27.083335876 -1.3076701911e-14 -58.333332062 29.861114502 -1.2532573898e-14 -58.333332062 29.861114502 -1.2532573898e-14 
-60.416667938 27.083335876 -1.3076701911e-14 -58.333332062 27.083335876 -1.2613616198e-14 55.138893127 -0.45138889551 1.1805757178e-14 
55.138893127 0.45138889551 1.1832095917e-14 -60.416667938 0.45138889551 -1.3853694803e-14 50.138889313 -27.083335876 1.0661321645e-14 
49.097225189 -27.083335876 1.0480621565e-14 50.138889313 -29.861114502 1.0661321645e-14 50.138889313 -29.861114502 1.0661321645e-14 
49.097225189 -27.083335876 1.0480621565e-14 48.402778625 -27.083335876 1.0360154184e-14 50.138889313 -29.861114502 1.0661321645e-14 
48.402778625 -27.083335876 1.0360154184e-14 47.361114502 -29.861114502 1.0179454104e-14 47.361114502 -29.861114502 1.0179454104e-14 
48.402778625 -27.083335876 1.0360154184e-14 47.361114502 -27.083335876 1.0179454104e-14 48.402778625 -27.083335876 1.0360154184e-14 
49.097225189 -27.083335876 1.0480621565e-14 48.402778625 -10.277778625 1.0360154184e-14 48.402778625 -10.277778625 1.0360154184e-14 
49.097225189 -27.083335876 1.0480621565e-14 49.097225189 -9.5833339691 1.0480621565e-14 48.402778625 -10.277778625 1.0360154184e-14 
49.097225189 -9.5833339691 1.0480621565e-14 6.4583334923 -9.5833339691 3.0839464228e-15 6.4583334923 -3.2986111641 3.0839464228e-15 
5.7638888359 -3.2986111641 2.9634793721e-15 6.4583334923 -9.5833339691 3.0839464228e-15 6.4583334923 -9.5833339691 3.0839464228e-15 
5.7638888359 -3.2986111641 2.9634793721e-15 5.7638888359 -10.277778625 2.9634793721e-15 6.4583334923 -9.5833339691 3.0839464228e-15 
5.7638888359 -10.277778625 2.9634793721e-15 48.402778625 -10.277778625 1.0360154184e-14 7.5000004768 -3.2986111641 3.2646469988e-15 
7.5000004768 -1.9097223282 3.2646469988e-15 6.4583334923 -3.2986111641 3.0839464228e-15 6.4583334923 -3.2986111641 3.0839464228e-15 
7.5000004768 -1.9097223282 3.2646469988e-15 4.7222223282 -1.9097223282 2.7827788787e-15 6.4583334923 -3.2986111641 3.0839464228e-15 
4.7222223282 -1.9097223282 2.7827788787e-15 5.7638888359 -3.2986111641 2.9634793721e-15 5.7638888359 -3.2986111641 2.9634793721e-15 
[...]
CELL_DATA 1589
FIELD FieldData 4
electrode_index 1 1589 int
0 0 0 0 0 0 0 0 0 
0 0 0 0 0 0 0 0 0 
0 0 0 0 0 0 0 0 0 
0 0 0 0 0 0 0 0 0 
0 0 0 0 0 0 0 0 0 
0 0 0 0 0 0 0 0 0 
0 0 0 0 0 0 0 0 0 
0 0 0 0 0 0 0 0 0 
0 0 0 0 0 0 0 0 0 
0 0 0 0 0 0 0 0 0 
0 0 0 0 0 0 0 0 0 
0 0 0 0 0 0 0 0 0 
0 0 0 0 0 0 0 0 0 
0 0 0 0 0 0 0 0 0 
0 0 0 0 0 0 0 0 0 
0 0 0 0 0 0 0 0 0 
0 0 0 0 0 0 0 0 0 
0 0 0 0 0 0 0 0 0 
0 0 0 0 0 0 0 0 0 
0 0 0 0 0 0 0 1 1 
1 1 1 1 2 2 2 2 2 
2 2 2 2 2 2 2 2 2 
2 2 3 3 3 3 3 3 3 
3 3 3 3 3 3 3 3 3 
4 4 4 4 4 4 4 4 4 
4 4 4 4 4 4 4 4 4 
4 4 4 4 4 4 4 4 4 
4 4 4 4 4 4 4 4 4 
4 4 4 4 4 4 4 4 4 
4 4 4 4 4 4 4 4 4 
4 4 4 4 4 4 4 4 4 
4 4 4 4 4 4 4 4 4 
4 4 4 4 4 4 4 4 4 
4 4 4 4 4 4 4 4 4 
4 4 4 4 4 4 4 4 4 
4 4 4 4 4 4 4 4 4 
4 4 4 4 4 4 4 4 4 
4 4 4 4 4 4 4 4 4 
4 4 4 4 4 4 4 4 4 
4 4 4 4 4 4 4 4 4 
4 4 4 4 4 4 4 4 4 
4 4 4 4 4 4 4 4 4 
4 4 4 4 4 4 4 4 4 
4 4 4 4 4 4 4 4 4 
4 4 4 4 4 4 4 4 4 
4 4 4 4 4 4 4 4 4 
4 4 4 4 4 4 4 4 4 
4 4 4 4 4 4 4 4 4 
4 4 4 4 4 4 4 4 4 
4 4 4 4 4 4 4 4 4 
4 4 4 4 4 4 4 4 4 
4 4 4 4 4 4 4 4 4 
4 4 4 4 4 4 4 4 4 
4 4 4 4 4 4 4 4 4 
4 4 4 4 4 4 4 4 4 
4 4 4 4 4 4 4 4 4 
4 4 4 4 4 4 4 4 4 
4 4 4 4 4 4 4 4 4 
4 4 4 4 4 4 4 4 4 
4 4 4 4 4 4 4 4 4 
4 4 4 4 4 4 4 4 4 
4 4 4 4 4 4 4 4 4 
4 4 4 4 4 4 4 4 4 
4 4 4 4 4 4 4 4 4 
4 4 4 4 4 4 4 4 4 
4 4 4 4 4 4 4 4 4 
4 4 4 4 4 4 4 4 4 
4 4 4 4 4 4 4 4 4 
4 4 4 4 4 4 4 4 4 
4 4 4 4 4 4 4 4 4 
4 4 4 4 4 4 4 4 4 
4 4 4 4 4 4 4 4 4 
4 4 4 4 4 4 4 4 4 
4 4 4 4 4 4 4 4 4 
4 4 4 4 4 4 4 4 4 
4 4 4 4 4 4 4 4 4 
4 4 4 4 4 4 4 4 4 
4 4 4 4 4 4 4 4 4 
4 4 4 4 4 4 4 4 4 
4 4 4 4 4 4 4 4 4 
4 4 4 4 4 4 4 4 4 
4 4 4 4 4 4 4 4 4 
4 4 4 4 4 4 4 4 4 
4 4 4 4 4 4 4 4 4 
4 4 4 4 4 4 4 4 4 
4 4 4 4 4 4 4 4 4 
4 4 4 4 4 4 4 4 4 
4 4 4 4 4 4 4 4 4 
4 4 4 4 4 4 4 4 4 
4 4 4 4 4 4 4 4 4 
4 4 4 4 4 4 4 4 4 
4 4 4 4 4 4 4 4 4 
4 4 4 4 4 4 4 4 4 
4 4 4 4 4 4 4 4 4 
4 4 4 4 4 4 4 4 4 
4 4 4 4 4 4 4 4 4 
4 4 4 4 4 4 4 4 4 
4 4 4 4 4 4 4 4 4 
4 4 4 4 4 4 4 4 4 
4 4 4 4 4 4 4 4 4 
4 4 4 4 4 4 4 4 4 
4 4 4 4 4 4 4 4 4 
4 4 4 4 4 4 4 4 4 
4 4 4 4 4 4 4 4 4 
4 4 4 4 4 4 4 4 4 
4 4 4 4 4 4 5 5 5 
5 5 5 5 5 5 5 5 5 
5 5 5 5 5 5 5 5 5 
5 5 5 5 5 5 5 5 5 
5 5 5 5 5 5 5 5 5 
5 5 5 5 5 5 5 5 5 
5 5 5 5 5 5 5 5 5 
5 5 5 5 5 5 5 5 5 
5 5 5 5 5 5 5 5 5 
5 5 5 5 5 5 5 5 5 
6 6 6 6 6 6 6 6 6 
6 6 6 6 6 6 6 6 6 
6 6 6 6 6 6 6 6 7 
7 7 7 7 7 7 7 7 7 
7 7 7 7 7 7 7 7 7 
7 7 7 7 7 7 7 7 7 
7 7 7 7 7 8 8 8 8 
8 8 8 8 8 8 8 8 8 
8 8 8 8 8 8 9 9 9 
9 9 9 9 9 9 9 9 9 
9 9 9 9 10 10 10 10 10 
10 10 10 10 10 10 10 10 10 
10 10 11 11 11 11 11 11 11 
11 11 11 11 11 11 11 11 11 
12 12 12 12 12 12 12 12 12 
12 12 12 12 12 12 12 13 13 
13 13 13 13 13 13 13 13 13 
13 13 13 13 13 14 14 14 14 
14 14 14 14 14 14 14 14 14 
14 14 14 14 14 14 14 14 14 
14 14 14 14 14 14 14 14 14 
14 14 14 14 14 14 14 14 14 
14 14 14 14 14 14 14 14 14 
14 14 14 14 14 14 14 14 14 
14 14 14 14 14 14 14 14 14 
14 14 14 14 14 14 14 14 14 
14 14 14 14 14 14 14 14 14 
14 14 14 14 14 14 14 14 14 
14 14 14 14 14 14 14 14 14 
14 14 14 14 14 14 14 14 14 
14 14 14 14 14 14 14 14 14 
14 14 14 14 14 14 14 14 14 
14 14 14 14 14 14 14 14 14 
14 14 14 14 14 14 14 14 14 
14 14 14 14 14 14 14 14 14 
14 14 14 14 14 14 14 14 14 
14 14 14 14 14 14 14 14 14 
14 14 14 14 14 14 14 14 14 
14 14 14 14 14 14 14 14 14 
14 14 14 14 14 14 14 14 14 
14 14 14 14 14 14 14 14 14 
14 14 14 14 14 14 14 14 14 
14 14 14 14 14 14 14 14 14 
14 14 14 14 14 14 14 14 14 
14 14 14 14 14 14 14 14 14 
14 14 14 14 14 14 14 14 14 
14 14 14 14 14 14 14 14 14 
14 14 14 14 14 14 14 15 15 
15 15 15 15 15 15 15 15 15 
15 15 15 15 15 16 16 16 16 
16 16 16 16 16 16 16 16 16 
16 16 16 17 17 17 17 17 17 
17 17 17 17 17 17 17 17 17 
17 17 17 18 18 18 18 18 18 
18 18 18 18 18 18 18 18 18 
18 19 19 19 19 19 19 19 19 
19 19 19 19 19 19 19 19 20 
20 20 20 20 20 20 20 20 20 
20 20 20 20 21 21 21 21 21 
21 21 21 21 21 21 21 21 21 
22 22 22 22 22 22 22 22 22 
22 22 22 22 22 
area 1 1589 double
1.4467556719 3.8580204234 1.3503127113 1.0609520401 3.7977547033 3.7977547033 0.43885168332 0.47019564926 2.3292812346 
5.5459077196 6.2768623818 6.7847195624 5.7395363843 7.222222805 8.2811326083 0.81738710159 5.7395363843 5.6230296573 
5.6230296573 3.9367756803 0.58038393003 5.5002940616 7.0640441685 5.4992306004 0.94322152122 0.62815597805 9.9984248707 
1.0833833361 6.9207491861 8.8888888359 0.58038393003 8.3661277257 2.6463962784 0.55396643251 6.2768623818 2.0120297885 
4.0240595771 5.7797698811 0.21051350154 2.4763626967 5.2201918201 4.2162680984 3.0210317364 0.24617950071 2.0120608611 
5.623141191 4.1996716284 1.7242055936 1.0060304305 1.0060304305 0.75453059128 0.75453059128 0.0425188891 2.4003788222 
0.083497391732 0.17979991015 0.048790796777 0.083497391732 1.0457659657 0.053247127538 4.1830638629 0.21772232908 1.1694372291 
0.16529728892 0.56157524486 1.2381813484 0.51426832184 0.13616891245 2.4763626967 0.12650115748 0.71133273812 0.12340552714 
0.25407750938 3.2143571368 0.74208492015 0.025331356838 0.34029027805 1.3587413511 0.75581979814 0.94322152122 0.44042392461 
0.31566641428 0.31566641428 0.25216912064 0.25216912064 0.12708811336 0.12708811336 1.2381813483 0.58038393003 1.1607678601 
0.15356350707 0.15763993777 0.15356350707 1.1994601221 0.15430924012 2.1667666721 1.509092256 0.71133273812 0.25391907973 
0.038944733886 0.094412969233 0.13024467109 0.060480312955 0.54627838701 0.027336011876 0.02460973301 0.083692249945 0.037783537632 
0.034717265936 0.032871612463 0.034214243157 0.036884270409 0.026160030461 0.026575400797 0.026575400797 0.046914173299 0.011873354288 
0.024492737871 0.027336011876 0.0020398532115 0.034281758642 0.019420131319 0.022512387728 0.029890070554 0.04628871511 0.029331781156 
0.049673955834 0.031232750819 0.12370681892 0.11895193876 0.046860854631 0.025331356838 0.024405490469 0.037020327096 0.037000482545 
0.077756664031 0.062934857972 0.035960272118 0.060570937435 0.033055449383 0.0425188891 0.0041890732 0.024405490469 0.051018999223 
0.033559830204 0.023859982555 0.048125949295 0.054649792643 0.037670121439 0.028756780032 0.052181675033 0.041614760844 0.072671256301 
0.068909519909 0.086893748174 0.082816353542 0.34797832355 0.78445685892 1.0457659657 3.7142833665 1.8572285761 0.56157524486 
1.0833833361 2.0120608611 0.88041258502 1.5090922561 0.44042392461 0.88041258503 0.72926497467 0.39167444031 3.5584003182 
0.86241673788 2.0120297885 0.39977040349 4.0240595771 0.39977040349 1.8505853375 0.88026303249 52.473962547 9.2472320331 
10.525206911 3.8580323443 2.8935229337 52.16049708 1.4467561686 0.96450941062 3.8580217479 1.4467561686 5.8352807422 
6.0764080948 9.2496179953 2.1821960844 2.4233227747 9.249617333 0.72337982279 1.9290125296 0.4822532152 0.72337949166 
5.555557251 5.555557251 1.4467588177 3.858024397 0.96450676153 1.4467588177 2.7006190647 2.9417450928 5.1504509405 
5.3168423971 5.5579684252 5.1504509405 0.24112627646 0.96450609925 0.4822532152 0.2411266076 5.5555419922 5.5555419922 
0.010771333626 0.020934071412 0.040645537073 0.023068348479 0.017762305892 0.18069535414 0.11815613809 0.23630434201 0.12538635584 
0.091539781306 0.2314816625 0.36922517997 0.37561877983 0.23148145058 0.037063999151 0.017055190873 0.021910353734 0.018231156621 
0.042867962317 0.030595199929 0.018004559849 0.016982473131 0.067662547232 0.061090880278 0.20613920815 0.1705168354 0.1705168354 
0.052265371335 0.13062516048 0.13062516048 0.10271588774 0.091539781306 0.20518801572 0.17778325134 0.011515852877 0.006870787642 
0.0084876478647 0.016975295729 0.013409473961 0.0084876478647 0.014264358066 0.012069088451 0.024999998455 0.034505230151 0.015426320472 
0.029937796227 0.044943663407 0.025986701909 0.026153273858 0.01951796279 0.04258461023 0.021443620784 0.038927306651 0.039733837567 
0.013275651146 0.016268565481 0.034642642914 0.018687068964 0.020043689484 0.032833649443 0.026188203434 0.030504202996 0.021729836534 
0.041314559177 0.026772095949 0.031608274186 0.045574685655 0.027855356394 0.046374141806 0.042867962317 0.046861916227 0.058186152805 
0.067662547232 0.054824452477 0.039727661527 0.033837730936 0.062030457102 0.045435397649 0.041285372916 0.068553334439 0.068473097806 
0.058710156993 0.016915636808 0.023405375367 0.12419508989 0.10143062561 0.088148588136 0.12419508989 0.10143062561 0.088148588136 
0.11495215798 0.091074782594 0.062906868208 0.090142925327 0.048107928198 0.15805053093 0.09530006436 0.093108225787 0.13783748042 
0.13783748042 0.068473097806 0.064193529194 0.10743517591 0.0015910252549 0.025650273002 0.059441831738 0.048734241843 0.039693245531 
0.10252911429 0.085591372258 0.030659591714 0.025547653269 0.1177703031 0.11336117328 0.1177703031 0.11336117328 0.034296779311 
0.060159685267 0.0532527172 0.057312453795 0.050743679915 0.055031639134 0.06343363803 0.051935537717 0.01799469507 0.032774046315 
0.1177703031 0.091728619867 0.1177703031 0.091728619867 0.085591372258 0.051535355778 0.062822698352 0.04590710854 0.11554391791 
0.11554391791 0.031444634551 0.021265516883 0.051935537717 0.064193529194 0.068352719339 0.067026199648 0.031989003478 0.019128077816 
0.018071063253 0.019740104115 0.01951796279 0.016754795724 0.026580001821 0.022290553522 0.058849156922 0.057852734028 0.021244755038 
0.024833584216 0.026153273858 0.01433220051 0.04442283085 0.019740104115 0.01415027887 0.025984015953 0.00050873553995 0.011217615981 
0.015414301028 0.027826316063 0.033122570591 0.015763545543 0.024547587003 0.013002057438 0.015285691431 0.016077281543 0.020719562486 
0.016013012524 0.019804555562 0.018186064541 0.017719275169 0.01721611044 0.013322247154 0.016486057323 0.012696603119 0.021362466545 
0.017499289623 0.014107765156 0.015635553953 0.032253017619 0.020977531561 0.014045911149 0.0016583008565 0.014446839522 0.012441327177 
0.015718469172 0.017361115217 0.02743021176 0.017751439615 0.020710485298 0.01347691484 0.01433723779 0.020614761792 0.017920741305 
0.036195458212 0.027942682462 0.015506254514 0.046550666285 0.030896824933 0.0067086837669 0.0075326318663 0.016975295729 0.01139007039 
0.014169886473 0.0089966145813 0.01681733166 0.016309425137 0.016228081775 0.013730612662 0.0038023577747 0.0095531389679 0.0092271770529 
0.016190709008 0.0027624267824 0.0088824830517 0.021293961046 0.016994146687 0.0090422644452 0.016208309598 0.021421982692 0.02182616773 
0.016662783867 0.012293536719 0.0152467739 0.01045102407 0.012279271027 0.015471833611 0.01644657519 0.0083226386794 0.010408065467 
0.0051653380471 0.0083333322843 0.0083374571962 0.0083226386794 0.0051653380471 0.0052083321412 0.0052083321412 0.012770380481 0.0090422644452 
0.013906248735 0.0082517033981 0.0046549258613 0.012295923825 0.011215098613 0.019367114548 0.0046766921948 0.0090317732708 0.016070089304 
0.012770380481 0.017413418652 0.015328517416 0.013110886241 0.00063305677085 0.016936072087 0.028090065774 0.024346426288 0.011788819317 
0.01875000206 0.02497353075 0.016034913817 0.014264358066 0.01439645593 0.014723890782 0.030931384038 0.028495531032 0.026384636423 
0.023716683757 0.02065252637 0.026479168923 0.019231242311 0.01951796279 0.026479168923 0.036673209586 0.024201491097 0.019598970563 
0.021473963034 0.021923813271 0.021923813271 0.031204921109 0.062961477747 0.034882538611 0.061090880278 0.027855356394 0.029163257646 
0.044282633814 0.040442830159 0.033602699179 0.047295936487 0.048897499623 0.040442830159 0.063189527774 0.027761946545 0.020056446288 
0.030798404091 0.029605104913 0.027229454666 0.026876127829 0.0044332321508 0.030181795868 0.026772095949 0.031245860546 0.026802372472 
0.021898915352 0.0084215356955 0.028075771033 0.045211630581 0.024855225369 0.022138967525 0.021583968678 0.03181346505 0.032111103928 
0.032202401296 0.023070565117 0.024648174471 0.00045308380731 0.028376484865 0.03795602135 0.03550651491 0.030259473415 0.02803824581 
0.013613366038 0.023202822045 0.020945620473 0.023238469698 0.043133497721 0.058084104178 0.014714527814 0.051927565185 0.022599259577 
0.034644088013 0.034505230151 0.035955939272 0.017252615076 0.028942821357 0.034973351029 0.024526375495 0.030517568214 0.032346947924 
0.032115897238 0.024082692393 0.042718288663 0.028729396942 0.045522323378 0.057002953317 0.029397605582 0.033239930892 0.045145166292 
0.040960579601 0.057602943207 0.019664127586 0.027256961055 0.027604597085 0.017252615076 0.021728510285 0.029410813719 0.01940104412 
0.030685735777 0.035008551448 0.025548252843 0.021715223726 0.029578408142 0.029165392173 0.03035077411 0.022256277437 0.015546928277 
0.040502101342 0.027598536646 0.028027397092 0.026643953608 0.040174778252 0.02293286744 0.028700618318 0.027188228069 0.021764851755 
0.019146054571 0.029828008008 0.025904411132 0.028546093794 0.0044535221365 0.026789559559 0.037594987387 0.0052214038028 0.037973333521 
0.024768916728 0.011829549004 0.035056431974 0.022625085943 0.018865593011 0.02164551278 0.016343884144 0.018733333909 0.028663474316 
0.020909710776 0.027283751877 0.018301437095 0.035211740874 0.021729904114 0.028700618318 0.027064533968 0.0095776598748 0.036282038759 
0.022902462418 0.021708572842 0.021229904901 0.022858391669 0.028951890834 0.023930919787 0.020317582575 0.017873820065 0.022859099424 
0.022224288472 0.022279563551 0.03670356781 0.019853704092 0.028384308013 0.03044191147 0.029641280631 0.028920184266 0.016437990458 
0.024133192365 0.015221494003 0.016437990458 0.020889858423 0.016862866948 0.01783653014 0.027304657697 0.028551949341 0.014948181385 
0.014948181385 0.013102851487 0.011645165325 0.018338086173 0.031727435681 0.017055190873 0.012302396575 0.03336453119 0.034965037151 
0.01783653014 0.028846757707 0.0062306052271 0.022588946914 0.0254079847 0.034378632606 0.017762305892 0.022345022791 0.022037721286 
0.027108935218 0.017322545401 0.018910234297 0.022618426114 0.03760949794 0.024051825593 0.026678067618 0.033964946262 0.030859885647 
0.03459119569 0.019253191572 0.021218370776 0.022168003338 0.018272347823 0.018600327131 0.018600327131 0.02681446502 0.022788264604 
0.024088096076 0.012465218655 0.017645497093 0.019858611278 0.019471138909 0.011427632193 0.038645431949 0.056852862063 0.054208804031 
0.0063008051303 0.044342182455 0.022283156576 0.035801336844 0.026446438742 0.06246950508 0.056253208321 0.045184665072 0.045184665072 
0.14550476796 0.1439043622 0.1775700931 0.5888879817 0.039043436385 0.047822665985 0.027957055868 0.028538060013 0.032572537891 
0.019517962069 0.1394348697 0.17254215696 0.079471236913 0.029175124779 0.065690881417 0.13007301887 0.095921322215 0.11260617351 
0.093844367525 0.1060956378 0.087856970004 0.12444751818 0.10654876466 0.17514208482 0.17511317669 0.071067298809 0.17511317669 
0.071067298809 0.15407829329 0.14497065158 0.076212046242 0.070254376738 0.054895874405 0.00021503529201 0.087524767376 0.0071185177006 
0.096770258 0.0071185177006 0.11673687718 0.06335515345 0.077177422582 0.12407722076 0.053493076304 0.055425605734 0.044419564974 
0.052104550071 0.054883419247 0.061619181419 0.055158563419 0.046092284652 0.011983315762 0.06245909382 0.0093875834559 0.054937493768 
0.15365665265 0.11495215798 0.11628842098 0.1882877894 0.18919521698 0.067315319715 0.076048137597 0.063212747165 0.044395344974 
0.074375247272 0.065684641327 0.0019898539675 0.081543513226 0.0012845189017 0.063269897253 0.0090786471296 0.05469855549 0.061212213365 
0.066339663122 0.053735935563 0.05469855549 0.11400417973 0.081117589867 0.07552345333 0.081523800319 0.088843572664 0.085898581212 
0.10353265924 0.088072256018 0.19877965085 0.066882910955 0.096101701674 0.066882910955 0.041664708803 0.079471236913 0.1060956378 
0.097222328186 0.1439043622 0.097222328186 0.10604364119 0.10061333078 0.040617175313 0.12326143801 0.08351954415 0.02337470546 
0.098218388792 0.12327662445 0.03628946509 0.055409686954 0.099001228519 0.11962041689 0.15316392169 0.087962768695 0.070835284305 
0.20613920815 0.2100411482 0.17254215696 0.11815613809 0.1060956378 0.097222328186 0.090277502946 0.15365665265 0.1002870744 
0.15407829329 0.095597898571 0.10353265924 0.05274850245 0.07556734395 0.10206438675 0.11279611855 0.080251583113 0.082934148316 
0.15175849463 0.050120866431 0.094756488435 0.037738778085 0.090478020068 0.17182299035 0.09067853719 0.17556172079 0.32609007957 
0.17639987766 0.026430682512 0.029839467324 0.016915636808 0.029661640141 0.02220177331 0.016886598259 0.025366196959 0.02114454601 
0.016934992148 0.14108312004 0.14953817639 0.0072284506057 0.15605493734 0.2314816625 0.34527143556 0.1843750066 0.20232295827 
0.32609007957 0.30690808907 0.029365261503 0.016915636808 0.024316227911 0.033521588182 0.027283469038 0.02114454601 0.023112625855 
0.030659591714 0.028545137113 0.027692350588 0.028545137113 0.026430682512 0.032774046315 0.016915636808 0.0084626600088 0.0084626600088 
0.025329905698 0.029593896453 0.018539147701 0.025199257155 0.02220177331 0.0086324660933 0.021023575137 0.020087318709 0.020087318709 
0.024316227911 0.01799469507 0.0086324660933 0.17552099244 0.11279611855 0.18366160108 0.11445971853 0.15175849463 0.050120866431 
0.08351954415 0.12327662445 0.03628946509 0.055409686954 0.069715980012 0.080258105829 0.085436829303 0.074064618123 0.13410998058 
0.10960046435 0.11445971853 0.085741825018 0.04919376316 0.15417715791 0.11337216162 0.020592252925 0.12265087965 0.12966764168 
0.12594014184 0.085436829303 0.16234699665 0.13410998058 0.10960046435 0.11445971853 0.15417715791 0.12265087965 0.12966764168 
0.1071452774 0.06343363803 0.067662547232 0.067662547232 0.085621487462 0.059668235894 0.068473097806 0.068473097806 0.05080824019 
0.033863549134 0.067352861797 0.055031639134 0.025650273002 0.068473097806 0.068473097806 0.034256619821 0.034256619821 0.077186159634 
0.10234842306 0.085621487462 0.034296779311 0.068152151277 0.055634391968 0.055634391968 0.59528125042 0.25148752525 0.34379372517 
0.36922517997 0.36922517997 0.25148752525 0.34379372517 0.62071270522 0.34379372517 0.032498351351 0.11250641664 0.03014087769 
0.30671296983 0.46507299894 3.9617106819 1.0284162757 1.4467641159 1.6878914686 1.028416381 1.4467574932 3.8580230725 
0.96450941062 1.4467561686 0.40636559072 0.022433770714 0.030517568214 0.028613019677 0.2317075817 0.11585379085 0.042323685132 
0.021072070148 0.023088366613 0.01894994102 0.024025337125 0.026041673005 0.026350111365 0.029687769485 0.02531831086 0.01387136936 
0.019710446849 0.020687103612 0.010993187192 0.032874169068 0.024806767328 0.01691820651 0.026023550598 0.028574797196 0.022937829404 
0.016016410642 0.042323685132 0.030517568214 0.023287988262 0.017588240455 0.010585072107 0.014743580332 0.10845402306 0.31035551929 
0.27248507736 0.15283883522 0.10845402306 1.0656417235 0.39057453592 0.59328388929 0.4953045127 2.7777786255 0.94748262384 
0.94748262384 1.3888893127 1.3888893127 0.416666646 0.11585379085 0.23547519465 0.17378068628 0.11585379085 0.17378068628 
0.23547519465 0.23547519465 0.03014087769 0.23547519465 0.34298768565 0.29731789836 0.4953045127 0.36574171491 0.99792695763 
1.0121518699 0.80771293128 1.206251711 1.0284162757 0.4414066889 1.0121518699 1.615426073 1.028416381 0.83994570996 
1.4467614668 3.8580270461 0.96450676153 1.4467588177 2.0736892724 2.3148159628 3.1250013676 1.5468268996 3.3347804069 
3.1250012848 0.24112664899 0.23359139852 0.48225313241 0.24112664899 0.23924280501 0.015070418149 0.2411266076 0.23547520112 
1.3851083023 0.7329754425 0.74180458773 5.555557251 2.7777776718 2.7777786255 2.7777786255 1.4647162389 0.30671307436 
0.48225313241 0.058699231542 0.7233797814 2.4696561893 2.7078508298 3.9448212966 2.7006116473 2.9417370131 9.5003627093 
1.4467614668 3.8580270461 0.96450411243 1.4467614668 0.41666670704 0.11582214212 0.099841475701 0.13237850793 0.15614452911 
0.15589720739 0.21101782573 0.13816416495 0.20589822375 0.040679469595 0.11042608527 0.092462380592 0.19248714317 0.12611588669 
0.092978421688 2.774846367 2.7777776718 2.7777709961 2.7777709961 0.7233797814 0.48225304963 0.47306959113 0.7233797814 
4.6175728488 4.8586987527 4.5235232426 3.3275390554 3.5686644213 4.5235227045 1.4467614668 3.858024397 0.96450411243 