# vtk DataFile Version 5.1
vtk output
ASCII
DATASET STRUCTURED_POINTS
DIMENSIONS 30 30 30
SPACING 0.01 0.01 0.01
ORIGIN 1.555 -0.145 0.855
POINT_DATA 27000
FIELD FieldData 1
potential 1 27000 double
0.0020225136851 0.0020172331805 0.0020119738959 0.0020067355142 0.0020015183493 0.0019963219116 0.0019911462019 0.0019859912061 0.0019808568771 
0.0019757429661 0.0019706495286 0.0019655764216 0.0019605234383 0.001955490793 0.0019504781607 0.0019454855915 0.0019405128151 0.0019355600055 
0.0019306268496 0.0019257135581 0.0019208198395 0.0019159455778 0.0019110907549 0.0019062553128 0.0019014391679 0.0018966421205 0.0018918643438 
0.0018871056694 0.0018823660038 0.001877645276 0.0020204359923 0.0020151681052 0.0020099213625 0.0020046957086 0.0019994908596 0.0019943068093 
0.0019891434919 0.0019840008365 0.0019788787278 0.001973777007 0.0019686956031 0.0019636345008 0.0019585935404 0.0019535726421 0.001948571833 
0.001943591146 0.0019386299972 0.0019336888991 0.001928767329 0.0019238654911 0.0019189831577 0.0019141202772 0.001909276787 0.0019044525991 
0.0018996476834 0.0018948618334 0.0018900951446 0.0018853475062 0.0018806188049 0.0018759089854 0.002018361736 0.0020131066381 0.0020078723476 
0.002002659169 0.0019974667628 0.0019922952385 0.001987144379 0.0019820139577 0.0019769040456 0.0019718144272 0.0019667451493 0.0019616959761 
0.0019566669701 0.0019516579923 0.0019466689765 0.001941699893 0.0019367505112 0.001931821058 0.0019269111235 0.0019220208112 0.0019171499811 
0.0019122984399 0.0019074662822 0.0019026533899 0.001897859663 0.0018930851241 0.001888329376 0.0018835927476 0.0018788749843 0.0018741760767 
0.0020162912377 0.0020110487798 0.0020058272174 0.0020006265511 0.001995446592 0.0019902873779 0.001985148647 0.0019800304345 0.0019749327523 
0.0019698553126 0.0019647981936 0.0019597610487 0.0019547439734 0.0019497469518 0.0019447697484 0.0019398123984 0.0019348747261 0.0019299569179 
0.0019250585797 0.0019201797769 0.0019153204051 0.0019104803116 0.0019056594243 0.0019008577884 0.0018960752678 0.0018913118528 0.00188656721 
0.0018818416087 0.0018771348179 0.0018724468012 0.0020142243062 0.0020089944893 0.0020037855306 0.0019985972621 0.0019934298384 0.0019882829275 
0.001983156563 0.0019780506488 0.0019729650817 0.0019678997202 0.0019628546263 0.0019578296187 0.0019528246239 0.0019478394986 0.0019428741256 
0.0019379285432 0.0019330025243 0.0019280964045 0.0019232096718 0.0019183423371 0.001913494422 0.0019086657213 0.0019038562154 0.0018990657986 
0.0018942944815 0.0018895422149 0.0018848087703 0.0018800940605 0.0018753982337 0.0018707211144 0.0020121610906 0.0020069438903 0.0020017475353 
0.00199657185 0.0019914168206 0.001986282334 0.0019811682827 0.0019760746206 0.0019710012834 0.0019659481387 0.0019609150504 0.0019559019649 
0.0019509088618 0.0019459356186 0.0019409821996 0.0019360484269 0.0019311341937 0.0019262396811 0.0019213645472 0.0019165086962 0.0019116721715 
0.0019068549267 0.0019020567508 0.0018972776417 0.0018925174895 0.001887776357 0.0018830540052 0.0018783502698 0.0018736654051 0.0018689991953 
0.0020101017194 0.0020048971334 0.0019997134641 0.0019945503929 0.0019894076656 0.0019842855927 0.0019791839294 0.0019741025367 0.0019690414052 
0.0019640004039 0.0019589794014 0.0019539783565 0.0019489972378 0.0019440358676 0.0019390942654 0.0019341721533 0.0019292696403 0.0019243867548 
0.0019195233523 0.0019146790524 0.0019098539456 0.0019050480848 0.0019002612017 0.0018954933637 0.0018907444502 0.0018860144111 0.0018813031334 
0.0018766103873 0.0018719364752 0.0018672811838 0.002008046326 0.0020028544979 0.0019976832626 0.0019925327167 0.0019874025409 0.0019822928422 
0.0019772035524 0.0019721344174 0.0019670854416 0.001962056633 0.0019570477644 0.0019520586993 0.0019470895574 0.0019421400735 0.001937210285 
0.0019322999437 0.0019274091376 0.0019225378267 0.0019176858693 0.0019128531539 0.0019080396008 0.0019032451334 0.0018984696735 0.0018937130909 
0.0018889753977 0.0018842564685 0.0018795561982 0.0018748746199 0.0018702115524 0.0018655670815 0.0020059951221 0.0020008158953 0.0019956572472 
0.0019905192029 0.0019854014816 0.0019803042758 0.0019752273042 0.0019701704563 0.0019651336905 0.001960117036 0.0019551202508 0.0019501432477 
0.0019451860144 0.0019402484367 0.0019353304776 0.0019304318883 0.0019255528383 0.0019206931257 0.0019158526757 0.0019110314066 0.0019062293115 
0.0019014461754 0.0018966820462 0.0018919367733 0.0018872103511 0.0018825024813 0.0018778133037 0.0018731427218 0.0018684906594 0.0018638570499 
0.0020039481485 0.0019987814949 0.0019936355008 0.001988509971 0.0019834047884 0.0019783197752 0.0019732551102 0.0019682107175 0.0019631861384 
0.0019581816276 0.0019531969244 0.0019482319122 0.0019432866764 0.0019383610289 0.0019334547764 0.0019285681047 0.0019237006776 0.0019188526367 
0.0019140237014 0.0019092139447 0.0019044232901 0.0018996515243 0.0018948987207 0.0018901646516 0.0018854493588 0.0018807526883 0.0018760746113 
0.001871415116 0.0018667739951 0.0018621511116 0.0020019054934 0.0019967515425 0.0019916180899 0.0019865050579 0.0019814123513 0.0019763396904 
0.0019712873571 0.0019662550993 0.0019612427646 0.0019562504361 0.0019512777911 0.0019463248893 0.0019413915879 0.0019364778339 0.0019315834037 
0.001926708482 0.0019218527849 0.001917016364 0.0019121990435 0.0019074007301 0.0019026214461 0.001897861128 0.0018931196444 0.0018883967971 
0.0018836927169 0.0018790071646 0.0018743401677 0.001869691645 0.0018650614434 0.0018604494089 0.0019998671805 0.00199472587 0.0019896050215 
0.0019845045536 0.0019794242844 0.0019743641708 0.0019693239973 0.0019643040084 0.0019593038414 0.0019543235722 0.0019493630068 0.0019444221354 
0.0019395007824 0.0019345989591 0.0019297163546 0.0019248531931 0.0019200091764 0.00191518442 0.001910378651 0.0019055918378 0.0019008239757 
0.0018960750284 0.0018913447669 0.0018866332276 0.0018819403158 0.0018772658687 0.001872609924 0.0018679723968 0.0018633531061 0.0018587521413 
0.001997833319 0.0019927046446 0.0019875963602 0.0019825084001 0.0019774406089 0.0019723928887 0.001967365039 0.0019623572764 0.0019573693303 
0.0019524012363 0.0019474526879 0.0019425238322 0.0019376143996 0.0019327244793 0.0019278537036 0.0019230022212 0.0019181699477 0.0019133567875 
0.0019085626018 0.0019037873095 0.0018990308359 0.0018942931673 0.0018895742502 0.0018848739719 0.0018801922302 0.0018755289045 0.0018708840367 
0.0018662574612 0.001861649086 0.001857058968 0.0019958039154 0.0019906878783 0.0019855921656 0.0019805167099 0.0019754613897 0.0019704261012 
0.0019654105403 0.0019604150635 0.0019554393091 0.0019504832797 0.001945546838 0.0019406298973 0.0019357324429 0.0019308543524 0.001925995503 
0.0019211556936 0.0019163350998 0.0019115335135 0.0019067509368 0.0019019871454 0.0018972421427 0.0018925157689 0.0018878081701 0.0018831191076 
0.0018784485394 0.0018737963453 0.0018691624785 0.0018645468694 0.0018599494131 0.0018553701202 0.0019937790374 0.00198867566 0.0019835924741 
0.0019785295183 0.0019734866107 0.0019684637511 0.0019634606434 0.0019584772911 0.0019535137252 0.0019485698091 0.001943645427 0.0019387405101 
0.0019338549314 0.0019289887077 0.0019241417057 0.00191931366 0.0019145047414 0.0019097147727 0.0019049436489 0.0019001913575 0.001895457732 
0.0018907428256 0.0018860463955 0.001881368642 0.0018767092175 0.0018720681569 0.0018674453117 0.0018628406363 0.0018582541018 0.0018536856122 
0.0019917586946 0.0019866679106 0.0019815973285 0.0019765468754 0.0019715163928 0.0019665059134 0.0019615151911 0.0019565439911 0.0019515925821 
0.001946660769 0.0019417484841 0.001936855559 0.0019319819252 0.0019271275169 0.0019222923068 0.0019174760188 0.0019126787831 0.0019079004214 
0.0019031408814 0.001898400053 0.0018936778416 0.0018889742186 0.0018842890706 0.0018796225297 0.0018749743285 0.0018703443608 0.0018657325139 
0.0018611387782 0.0018565631336 0.001852005481 0.0019897430015 0.0019846647741 0.0019796066923 0.0019745687231 0.0019695507026 0.0019645525141 
0.0019595741759 0.0019546153357 0.0019496759831 0.0019447562769 0.0019398560639 0.0019349751226 0.0019301133952 0.0019252708446 0.0019204474276 
0.001915642939 0.0019108573579 0.0019060905364 0.0019013425248 0.001896613168 0.0018919024122 0.0018872101635 0.0018825363245 0.001877880816 
0.0018732438625 0.0018686248856 0.0018640241207 0.0018594413314 0.0018548765694 0.001850329734 0.0019877318862 0.0019826662659 0.0019776206784 
0.0019725951839 0.0019675895405 0.001962603732 0.0019576376483 0.0019526910685 0.001947763884 0.0019428562622 0.0019379681127 0.0019330991495 
0.0019282494091 0.0019234186698 0.0019186070301 0.0019138142556 0.0019090403803 0.0019042851016 0.0018995485431 0.0018948306763 0.0018901313667 
0.0018854504497 0.0018807879172 0.001876143708 0.0018715178225 0.0018669098695 0.0018623200676 0.0018577482228 0.001853194385 0.0018486583651 
0.0019857253614 0.0019806722502 0.0019756392988 0.0019706262757 0.0019656330394 0.0019606594696 0.0019557056939 0.0019507714074 0.0019458563179 
0.0019409608031 0.0019360846624 0.0019312276927 0.0019263898256 0.0019215709483 0.0019167710414 0.0019119900073 0.0019072277822 0.0019024840536 
0.0018977590333 0.0018930526213 0.0018883647005 0.0018836951185 0.0018790438806 0.0018744108652 0.0018697961104 0.0018651992811 0.0018606204939 
0.0018560595488 0.0018515165167 0.0018469913186 0.0019837232492 0.0019786828939 0.0019736623652 0.0019686617947 0.0019636809765 0.0019587198371 
0.0019537783266 0.0019488561959 0.0019439531901 0.0019390698289 0.0019342057171 0.0019293607097 0.0019245346942 0.0019197277117 0.0019149395371 
0.0019101702515 0.0019054196178 0.0019006875612 0.001895974065 0.0018912790553 0.0018866024631 0.0018819441653 0.0018773041243 0.0018726824158 
0.001868078749 0.0018634930207 0.0018589251366 0.0018543751295 0.0018498429577 0.0018453284864 0.0019817256925 0.0019766979824 0.0019716900497 
0.0019667019333 0.0019617334395 0.0019567846255 0.0019518553009 0.0019469454248 0.0019420547715 0.0019371833437 0.0019323312232 0.001927498122 
0.0019226839994 0.0019178887904 0.0019131124364 0.0019083548465 0.0019036158582 0.0018988953451 0.0018941933562 0.0018895097789 0.0018848445771 
0.0018801976112 0.0018755687628 0.0018709582179 0.0018663655457 0.0018617908579 0.0018572341509 0.0018526950577 0.0018481736927 0.0018436700675 
0.0019797327041 0.0019747174172 0.0019697221624 0.0019647463887 0.0019597903821 0.0019548538261 0.0019499367914 0.0019450391122 0.0019401606169 
0.0019353012439 0.0019304611176 0.0019256400069 0.0019208377879 0.0019160544458 0.0019112897634 0.0019065438334 0.001901816498 0.0018971075766 
0.0018924170484 0.0018877448784 0.0018830910225 0.0018784553591 0.0018738379262 0.0018692384511 0.0018646568927 0.001860093231 0.0018555474441 
0.0018510192345 0.0018465087941 0.0018420160236 0.0019777441254 0.001972741437 0.0019677584876 0.0019627953593 0.0019578517286 0.0019529276221 
0.0019480228401 0.0019431371077 0.0019382708957 0.0019334235366 0.0019285954518 0.0019237862551 0.0019189959297 0.0019142243409 0.0019094713518 
0.001904737091 0.0019000213377 0.0018953240208 0.0018906450787 0.0018859843654 0.001881341819 0.0018767174484 0.0018721113172 0.001867522946 
0.0018629525012 0.0018583998846 0.0018538650609 0.0018493478119 0.0018448480724 0.0018403660878 0.0019757600768 0.0019707698539 0.0019657994011 
0.0019608485924 0.0019559174409 0.0019510055705 0.0019461131023 0.0019412396874 0.001936385589 0.0019315503911 0.0019267341016 0.0019219367338 
0.0019171582214 0.0019123985225 0.0019076573176 0.0019029347252 0.0018982307019 0.0018935447857 0.0018888772399 0.0018842279369 0.0018795968564 
0.0018749839397 0.0018703888777 0.0018658116639 0.0018612522626 0.0018567106731 0.0018521867184 0.0018476804589 0.0018431916166 0.0018387203164 
0.0019737803085 0.0019688026923 0.0019638447192 0.0019589063322 0.0019539874253 0.0019490878534 0.0019442075849 0.0019393463441 0.0019345043544 
0.0019296812551 0.0019248769 0.001920091548 0.001915324884 0.0019105769608 0.001905847544 0.0019011366653 0.0018964441145 0.0018917698212 
0.0018871138261 0.0018824759773 0.001877856102 0.0018732542994 0.0018686704233 0.0018641043936 0.0018595560653 0.001855025585 0.0018505126006 
0.0018460171801 0.0018415392277 0.001837078636 0.0019718048323 0.0019668397328 0.0019618942405 0.0019569682417 0.0019520616863 0.0019471743271 
0.0019423061442 0.001937457292 0.0019326273447 0.0019278163728 0.00192302406 0.0019182504566 0.0019134955934 0.0019087595346 0.0019040418927 
0.00189934271 0.0018946617907 0.0018899989253 0.0018853543804 0.0018807279023 0.0018761195409 0.0018715289073 0.0018669562441 0.0018624012418 
0.0018578639632 0.0018533443815 0.0018488423692 0.0018443578138 0.0018398906572 0.0018354408086 0.0019698334959 0.0019648809709 0.0019599479252 
0.0019550342601 0.0019501400313 0.0019452650163 0.0019404090417 0.0019355722271 0.0019307544853 0.0019259555577 0.0019211751477 0.0019164135137 
0.0019116706619 0.0019069463393 0.0019022403277 0.001897552715 0.0018928832755 0.0018882320364 0.001883598941 0.0018789838126 0.0018743867763 
0.0018698074516 0.0018652459952 0.0018607021618 0.0018561759441 0.0018516672434 0.0018471761136 0.001842702412 0.001838246094 0.001833806969 
0.0019678662838 0.001962926153 0.0019580056139 0.0019531044141 0.0019482224892 0.0019433597613 0.0019385159849 0.0019336912969 0.0019288855236 
0.0019240987288 0.0019193304976 0.0019145805169 0.0019098494187 0.0019051369273 0.0019004427156 0.0018957668021 0.0018911088942 0.0018864691593 
0.0018818474454 0.0018772439157 0.0018726580907 0.00186808992 0.0018635395464 0.0018590068172 0.0018544916598 0.0018499940476 0.0018455138025 
0.0018410508723 0.0018366052234 0.0018321768191 0.0019659030376 0.0019609755015 0.0019560673256 0.0019511784957 0.0019463089294 0.0019414584224 
0.0019366268663 0.0019318143713 0.0019270206578 0.0019222456961 0.0019174894691 0.0019127514297 0.0019080321551 0.0019033313109 0.0018986488175 
0.0018939845277 0.001889338271 0.0018847099912 0.0018800997779 0.0018755076057 0.0018709330675 0.0018663761824 0.0018618369814 0.0018573153196 
0.0018528111988 0.00184832456 0.0018438552571 0.0018394031495 0.00183496834 0.0018305505626 0.00196394373 0.0019590286741 0.0019541329157 
0.0019492564666 0.0019443992152 0.0019395609424 0.001934741637 0.0019299411904 0.001925159527 0.0019203965541 0.0019156521415 0.0019109261031 
0.001906218631 0.0019015295327 0.0018968587354 0.0018922059569 0.0018875713123 0.00188295452 0.0018783558979 0.0018737749096 0.001869211672 
0.001864666064 0.0018601380642 0.0018556275107 0.0018511343594 0.0018466586849 0.0018422001956 0.0018377589403 0.0018333348365 0.0018289278831 
0.0020450923268 0.0020397566669 0.0020344423252 0.0020291494118 0.0020238774232 0.0020186265433 0.0020133968111 0.0020081879726 0.0020029997538 
0.0019978323047 0.0019926854486 0.0019875591326 0.0019824532855 0.001977367803 0.0019723025182 0.0019672574095 0.0019622325489 0.0019572277349 
0.0019522428545 0.0019472778046 0.0019423324982 0.0019374069744 0.0019325010773 0.0019276147435 0.0019227477564 0.0019179003718 0.0019130722952 
0.0019082634669 0.0019034737904 0.001898703277 0.0020429825422 0.0020376595808 0.002032357965 0.0020270776023 0.0020218182338 0.002016579994 
0.0020113626631 0.0020061659691 0.0020009902177 0.0019958350761 0.0019907003801 0.0019855861833 0.0019804924343 0.0019754188577 0.0019703656284 
0.0019653323036 0.0019603193155 0.0019553260581 0.0019503529255 0.0019453994996 0.00194046582 0.0019355517818 0.0019306573214 0.0019257823736 
0.0019209267614 0.0019160905677 0.001911273662 0.0019064759657 0.0019016973666 0.0018969378557 0.0020408763076 0.0020355661496 0.0020302772333 
0.002025009369 0.0020197625462 0.0020145368009 0.0020093317413 0.0020041474329 0.0019989840249 0.0019938411204 0.001988718549 0.0019836164617 
0.001978534773 0.0019734732654 0.0019684319204 0.001963410461 0.0019584092857 0.0019534278358 0.0019484663245 0.0019435245619 0.0019386024307 
0.001933699892 0.0019288168685 0.0019239532841 0.001919109125 0.0019142840384 0.0019094783234 0.0019046917364 0.0018999242218 0.0018951757229 
0.0020387732039 0.0020334757394 0.0020281995395 0.0020229443246 0.0020177101075 0.0020124967879 0.0020073042367 0.0020021322812 0.0019969810876 
0.0019918504315 0.0019867400376 0.0019816501553 0.0019765806004 0.0019715311144 0.0019665017056 0.0019614921665 0.0019565028167 0.0019515330715 
0.0019465832577 0.0019416531402 0.0019367425164 0.001931851476 0.0019269798882 0.0019221276767 0.0019172948178 0.0019124809914 0.0019076864741 
0.0019029109857 0.0018981545493 0.0018934171114 0.0020366735433 0.0020313889812 0.0020261253552 0.0020208828517 0.002015661173 0.0020104602863 
0.0020052802078 0.0020001206696 0.0019949817426 0.0019898633657 0.0019847651781 0.0019796873288 0.0019746297687 0.0019695922398 0.0019645748824 
0.001959577233 0.0019545996819 0.0019496418133 0.0019447036762 0.0019397851406 0.0019348861288 0.0019300065342 0.0019251463802 0.0019203055395 
0.001915483989 0.0019106815503 0.0019058980697 0.0019011337075 0.0018963883216 0.0018916618615 0.0020345775155 0.0020293056821 0.0020240548229 
0.0020188249219 0.0020136158843 0.0020084275045 0.0020032598543 0.0019981127305 0.0019929860723 0.0019878799506 0.0019827939615 0.0019777282398 
0.0019726826961 0.0019676572144 0.0019626517243 0.0019576659372 0.0019527001138 0.0019477541842 0.0019428276973 0.0019379207634 0.0019330333805 
0.0019281652904 0.0019233165199 0.0019184870417 0.0019136768048 0.001908885614 0.0019041133059 0.0018993600658 0.0018946257662 0.0018899102412 
0.0020324852899 0.0020272262856 0.0020219881008 0.0020167707497 0.0020115743225 0.0020063984576 0.0020012432234 0.0019961084986 0.0019909942151 
0.0019859003054 0.0019808265264 0.0019757729789 0.0019707394378 0.0019657259742 0.001960732404 0.0019557586449 0.0019508045168 0.0019458701603 
0.0019409553138 0.0019360600111 0.0019311842407 0.0019263277872 0.0019214904914 0.0019166723325 0.0019118733886 0.0019070934313 0.0019023324365 
0.0018975901715 0.0018928668856 0.0018881623685 0.0020303970118 0.0020251506764 0.0020199251799 0.0020147204379 0.0020095365387 0.0020043732948 
0.0019992304882 0.0019941081453 0.001989006189 0.0019839244987 0.0019788629434 0.0019738215255 0.0019688000641 0.0019637985863 0.0019588169842 
0.0019538550659 0.0019489127499 0.0019439900719 0.0019390870142 0.0019342033237 0.0019293390578 0.0019244939523 0.0019196680881 0.0019148614015 
0.0019100737266 0.0019053050054 0.0019005552386 0.0018958240861 0.0018911118877 0.0018864183412 0.0020283124985 0.0020230789881 0.0020178662123 
0.0020126742018 0.0020075027297 0.0020023519285 0.0019972215732 0.0019921116934 0.0019870220572 0.0019819526235 0.0019769032642 0.0019718739741 
0.0019668645679 0.0019618751223 0.0019569054299 0.0019519553241 0.0019470248686 0.0019421139927 0.0019372225981 0.0019323505225 0.0019274977361 
0.00192266423 0.0019178497952 0.0019130543663 0.0019082780291 0.0019035205068 0.0018987818424 0.0018940620238 0.001889360705 0.0018846781006 
0.0020262322503 0.0020210113479 0.0020158112341 0.0020106318775 0.0020054730537 0.0020003347985 0.001995216844 0.0019901192629 0.0019850419791 
0.0019799847655 0.0019749477151 0.0019699305192 0.001964933232 0.0019599557047 0.0019549979413 0.0019500597202 0.0019451410763 0.0019402419139 
0.0019353621492 0.0019305016896 0.0019256604545 0.0019208384282 0.0019160354074 0.0019112513896 0.0019064863785 0.0019017400464 0.001897012537 
0.0018923037842 0.0018876135004 0.0018829418988 0.0020241560284 0.0020189479324 0.0020137604921 0.0020085938024 0.0020034475601 0.0019983216896 
0.0019932162195 0.0019881309495 0.0019830660224 0.001978021055 0.0019729962087 0.0019679912003 0.0019630059228 0.0019580403864 0.0019530945537 
0.0019481681978 0.0019432614252 0.0019383739356 0.0019335058269 0.001928656922 0.0019238272856 0.001919016737 0.0019142251316 0.0019094524551 
0.0019046986883 0.001899963679 0.0018952473453 0.0018905496137 0.0018858703797 0.0018812097441 0.0020220840394 0.0020168887148 0.0020117140282 
0.0020065599143 0.0020014262553 0.0019963128555 0.0019912197896 0.0019861468946 0.0019810942334 0.0019760614941 0.0019710488105 0.0019660559801 
0.001961082758 0.001956129192 0.0019511953274 0.0019462808334 0.0019413858531 0.0019365101151 0.0019316536774 0.0019268164251 0.0019219982701 
0.0019171991324 0.0019124190027 0.0019076576705 0.0019029151677 0.0018981913701 0.0018934862387 0.0018887996268 0.001884131511 0.0018794816362 
0.0020200163527 0.0020148337532 0.0020096717493 0.0020045302711 0.0019994091709 0.0019943082593 0.0019892276854 0.0019841671655 0.001979126801 
0.0019741062239 0.0019691056805 0.0019641249064 0.0019591637817 0.0019542221511 0.0019493002108 0.0019443976676 0.0019395144837 0.001934650477 
0.001929805716 0.0019249800498 0.001920173426 0.0019153857431 0.001910617003 0.0019058670443 0.0019011357752 0.00189642319 0.0018917291937 
0.001887053671 0.0018823966001 0.0018777577153 0.0020179528668 0.0020127830496 0.0020076337505 0.0020025048876 0.0019973962963 0.0019923080596 
0.0019872398392 0.0019821916536 0.0019771635482 0.0019721552979 0.0019671668862 0.0019621982583 0.0019572491368 0.0019523195013 0.0019474093915 
0.0019425186638 0.0019376472708 0.0019327950432 0.0019279619527 0.0019231478894 0.001918352781 0.0019135766434 0.0019088192086 0.0019040806071 
0.0018993606431 0.0018946592613 0.0018899763582 0.0018853119216 0.0018806658321 0.0018760380528 0.0020158938021 0.0020107366794 0.0020056000978 
0.0020004838781 0.0019953878771 0.0019903120811 0.0019852563042 0.0019802204925 0.0019752046039 0.0019702086527 0.0019652324075 0.0019602758833 
0.0019553388125 0.0019504212013 0.0019455228793 0.00194064396 0.001935784392 0.0019309438825 0.0019261223776 0.0019213199572 0.001916536393 
0.0019117716109 0.0019070256917 0.0019022983981 0.0018975896977 0.0018928995119 0.0018882277366 0.001883574368 0.0018789392676 0.0018743224335 
0.0020138391861 0.002008694774 0.002003570807 0.0019984671602 0.0019933837511 0.0019883204258 0.0019832770854 0.0019782536117 0.0019732500391 
0.0019682662777 0.0019633022042 0.001958357777 0.0019534327689 0.0019485271247 0.0019436407698 0.0019387736739 0.0019339258351 0.0019290970284 
0.0019242871638 0.0019194962726 0.0019147241915 0.0019099708831 0.0019052363753 0.0019005204474 0.0018958230274 0.0018911439793 0.0018864833277 
0.0018818410081 0.001877216917 0.0018726110058 0.0020117888941 0.002006657251 0.0020015459565 0.0019964548578 0.0019913839843 0.0019863331341 
0.0019813022607 0.0019762910665 0.0019712997722 0.0019663282302 0.0019613763277 0.0019564440011 0.00195153102 0.0019466373408 0.0019417628039 
0.0019369076032 0.0019320715426 0.0019272544437 0.0019224562229 0.0019176769529 0.0019129163236 0.0019081744811 0.0019034512421 0.0018987467932 
0.001894060592 0.0018893927317 0.0018847431629 0.00188011188 0.0018754987737 0.0018709037831 0.0020097431015 0.0020046240951 0.0019995254691 
0.0019944469848 0.0019893886149 0.0019843502644 0.0019793317389 0.0019743329445 0.0019693538911 0.0019643945664 0.0019594548161 0.0019545345569 
0.0019496335683 0.0019447518095 0.0019398892592 0.0019350459656 0.0019302215103 0.0019254161057 0.0019206295675 0.0019158617819 0.0019111127342 
0.0019063823762 0.0019016705166 0.0018969773094 0.0018923023327 0.0018876456198 0.0018830072471 0.0018783870202 0.0018737848844 0.0018692007916 
0.0020077017014 0.0020025955118 0.0019975094368 0.0019924434546 0.0019873976058 0.0019823717127 0.0019773655888 0.0019723790464 0.0019674123526 
0.0019624652405 0.0019575375985 0.0019526294194 0.0019477405049 0.0019428706452 0.0019380200014 0.0019331885197 0.0019283758081 0.0019235820961 
0.0019188071549 0.0019140509099 0.0019093133548 0.0019045943838 0.0018998938638 0.0018952120435 0.0018905483302 0.001885902756 0.0018812753838 
0.0018766662126 0.0018720750821 0.0018675018883 0.0020056646478 0.0020005711394 0.0019954977648 0.0019904444584 0.0019854110413 0.0019803975993 
0.0019754037687 0.0019704296598 0.0019654751202 0.0019605402296 0.0019556247293 0.0019507286213 0.0019458516863 0.0019409937961 0.0019361550526 
0.001931335361 0.0019265344536 0.0019217523358 0.0019169890396 0.0019122443484 0.0019075182588 0.0019028107101 0.0018981216911 0.0018934509755 
0.0018887984943 0.0018841641271 0.0018795479573 0.001874949697 0.0018703695025 0.0018658072039 0.0020036320074 0.0019985511951 0.0019934903718 
0.0019884496538 0.0019834288248 0.0019784277483 0.0019734463734 0.0019684845812 0.0019635423045 0.0019586195266 0.0019537161497 0.001948832069 
0.0019439671518 0.001939121206 0.0019342943365 0.0019294864155 0.0019246972933 0.0019199268527 0.0019151751684 0.0019104420513 0.0019057274097 
0.0019010312643 0.0018963536329 0.0018916941614 0.0018870528844 0.0018824296773 0.0018778244804 0.0018732373006 0.0018686680567 0.0018641166439 
0.0020016036917 0.0019965355597 0.0019914874394 0.0019864592562 0.0019814509216 0.0019764623539 0.0019714931915 0.0019665436423 0.0019616136525 
0.001956703099 0.0019518118652 0.0019469398385 0.0019420867405 0.0019372527786 0.0019324377614 0.0019276416247 0.0019228642402 0.001918105502 
0.0019133654003 0.0019086438385 0.0019039406843 0.0018992559694 0.0018945895935 0.0018899413115 0.0018853112461 0.0018806992505 0.0018761051925 
0.001871529042 0.001866970685 0.0018624301766 0.0019995794487 0.0019945239621 0.0019894886377 0.0019844730077 0.0019794771605 0.0019745010185 
0.0019695443219 0.0019646072235 0.0019596894837 0.0019547908902 0.001949911715 0.0019450517569 0.0019402107249 0.0019353887159 0.0019305854709 
0.0019258010581 0.0019210353869 0.0019162883086 0.0019115597622 0.001906849718 0.001902158109 0.0018974848537 0.0018928297704 0.0018881927729 
0.0018835739179 0.0018789730541 0.0018743900043 0.0018698249155 0.0018652775585 0.0018607478438 0.0019975596857 0.0019925168312 0.0019874939451 
0.0019824909612 0.0019775076676 0.0019725439139 0.0019675995956 0.0019626747979 0.0019577692785 0.0019528829686 0.001948015858 0.0019431679432 
0.0019383388473 0.0019335287381 0.0019287372876 0.0019239646331 0.0019192106376 0.0019144752459 0.0019097583097 0.0019050597896 0.0019003796825 
0.0018957176978 0.001891073943 0.001886448239 0.0018818406228 0.0018772508176 0.0018726789915 0.0018681248285 0.0018635883224 0.0018590694967 
0.0019955441603 0.0019905139836 0.0019855036091 0.0019805130495 0.0019755422608 0.0019705909223 0.0019656590253 0.0019607465111 0.0019558532215 
0.0019509790837 0.0019461240049 0.0019412880133 0.0019364708755 0.0019316726919 0.0019268933031 0.0019221324514 0.0019173900815 0.0019126663211 
0.0019079610003 0.0019032738211 0.0018986053014 0.0018939547311 0.0018893221972 0.0018847076896 0.0018801112119 0.0018755325227 0.0018709717125 
0.0018664285268 0.0018619029777 0.0018573950732 0.0019935327346 0.0019885152149 0.0019835174741 0.0019785394182 0.00197358098 0.0019686420379 
0.0019637225194 0.001958822275 0.0019539411669 0.0019490790932 0.0019442362181 0.0019394122459 0.0019346070886 0.0019298207235 0.0019250531753 
0.0019203040807 0.0019155734102 0.0019108613899 0.0019061676402 0.0019014921293 0.001896834828 0.001892195613 0.0018875743509 0.001882971103 
0.0018783857801 0.0018738181759 0.0018692683854 0.0018647361683 0.0018602215231 0.0018557244552 0.0019915253383 0.0019865204537 0.0019815352945 
0.00197656975 0.0019716237486 0.0019666970135 0.0019617899239 0.0019569019451 0.0019520331101 0.0019471832728 0.0019423523581 0.0019375404666 
0.0019327472073 0.0019279727083 0.0019232170901 0.0019184796955 0.0019137607518 0.0019090602662 0.0019043780797 0.0018997141932 0.0018950682141 
0.0018904403694 0.0018858303903 0.0018812382643 0.0018766640828 0.0018721075729 0.0018675687988 0.0018630476021 0.0018585439138 0.001854057542 
0.0019895218456 0.0019845296526 0.0019795570544 0.0019746039356 0.001969670348 0.0019647560847 0.0019598611754 0.0019549855701 0.0019501289277 
0.0019452912215 0.0019404722723 0.0019356725385 0.0019308912429 0.0019261286421 0.0019213847397 0.0019166590769 0.0019119518092 0.0019072629414 
0.0019025924045 0.0018979398995 0.0018933053488 0.0018886888727 0.0018840902588 0.0018795093482 0.0018749463244 0.0018704008136 0.0018658730017 
0.0018613626888 0.0018568698902 0.0018523944498 0.0019875222291 0.0019825425604 0.0019775826109 0.0019726420407 0.0019677208785 0.0019628189867 
0.0019579363699 0.0019530728938 0.0019482284188 0.0019434029115 0.0019385961071 0.0019338081865 0.0019290388639 0.0019242882859 0.001919556074 
0.0019148422343 0.0019101466235 0.0019054693334 0.0019008103856 0.0018961692452 0.0018915460907 0.0018869409432 0.0018823535883 0.001877783938 
0.0018732320665 0.001868697666 0.0018641807914 0.0018596813975 0.0018551994724 0.0018507347788 0.001985526455 0.0019805594285 0.0019756119124 
0.0019706837867 0.0019657750792 0.0019608855996 0.0019560153441 0.0019511640777 0.0019463317644 0.0019415181794 0.0019367235333 0.0019319475456 
0.0019271902265 0.0019224514051 0.0019177310204 0.0019130288499 0.0019083449431 0.001903679378 0.0018990317899 0.0018944021967 0.0018897904938 
0.0018851966224 0.0018806204751 0.0018760620366 0.0018715212818 0.0018669979177 0.0018624921162 0.0018580037972 0.0018535325862 0.0018490786248 
0.0020676467266 0.0020622558965 0.0020568867042 0.0020515388805 0.002046212524 0.0020409074752 0.0020356234982 0.0020303606293 0.0020251188124 
0.0020198977635 0.0020146976403 0.0020095182085 0.0020043594901 0.001999221315 0.0019941034091 0.0019890061014 0.0019839291147 0.001978872291 
0.0019738355695 0.0019688189575 0.0019638223474 0.0019588456248 0.0019538887293 0.0019489514548 0.0019440340449 0.0019391361767 0.0019342578238 
0.0019293988504 0.0019245593171 0.0019197391 0.0020655047733 0.0020601268133 0.002054770421 0.0020494353164 0.0020441215953 0.0020388290083 
0.0020335575788 0.0020283073056 0.0020230778438 0.0020178691183 0.0020126813981 0.0020075141776 0.0020023676732 0.0019972416163 0.0019921357633 
0.0019870503318 0.0019819851811 0.0019769402713 0.0019719153607 0.0019669105021 0.0019619255415 0.0019569604237 0.0019520150704 0.0019470894044 