# vtk DataFile Version 5.1
vtk output
ASCII
DATASET STRUCTURED_POINTS
DIMENSIONS 20 20 40
SPACING 0.05 0.05 0.05
ORIGIN 3.225 -0.475 0.525
POINT_DATA 16000
FIELD FieldData 1
potential 1 16000 double
0.045377804361 0.045414299057 0.045453170245 0.045493602562 0.045575603412 0.045617964075 0.045660124535 0.045701858087 0.045743033496 
0.045784009006 0.045825124968 0.045867081396 0.045910580238 0.045955903539 0.046004365092 0.046055526068 0.046109396565 0.04616581557 
0.046224694795 0.046285444494 0.045049836917 0.045085788576 0.045124113318 0.045163952293 0.045258404971 0.045300341627 0.045342095029 
0.045383481664 0.045424263594 0.04546470598 0.045505366857 0.045546816575 0.045589422025 0.045634756513 0.045682587572 0.04573312911 
0.045786546521 0.045843013173 0.045901945075 0.045962639011 0.044731016135 0.044766189504 0.044803536005 0.044842390586 0.044948986555 
0.044990147179 0.045031167685 0.045071712008 0.045111799231 0.045151548905 0.045191500467 0.045232081428 0.045274418229 0.045318976585 
0.045366142284 0.045416072582 0.045469525813 0.045525870924 0.045584736811 0.045645552572 0.04442872032 0.0444626331 0.044498644276 
0.044536186457 0.044654602405 0.044694639348 0.044734590967 0.044774136555 0.044813282577 0.044852118647 0.044891081264 0.044931083371 
0.044972631494 0.045016386205 0.045062710411 0.045112613614 0.045165646951 0.045221798334 0.045280607908 0.045341487138 0.044149979708 
0.044182393914 0.044216712373 0.044252638625 0.044382427312 0.044421040944 0.044459685769 0.044498034859 0.044535985411 0.04457374002 
0.044611907168 0.044651065594 0.044691384768 0.044734584771 0.044780648962 0.044830030241 0.044882755443 0.044938614452 0.044997276095 
0.045058192601 0.043900750453 0.043931325701 0.043963999627 0.043997798666 0.044138899277 0.044175868168 0.044212953128 0.044250065315 
0.044286563477 0.044323377605 0.044360611707 0.044398460811 0.04443849742 0.044480985058 0.044526462986 0.044575344487 0.044627650288 
0.044683205419 0.044741765075 0.044802631563 0.043685875669 0.043714726458 0.043745128876 0.043776973412 0.043928963335 0.043964303433 
0.043999737448 0.044035337935 0.044070988606 0.044106694739 0.044142567775 0.044179964014 0.044219312006 0.044261143627 0.044306035362 
0.044354408132 0.044406225515 0.044461456389 0.044519726237 0.044580533011 0.043509053617 0.043535898548 0.043564239802 0.043593997341 
0.043756920253 0.043790365187 0.043824446656 0.04385865748 0.043893009419 0.043927243268 0.043962596514 0.043999343291 0.04403798656 
0.044079244876 0.044123570341 0.044171345485 0.044222686041 0.044277600047 0.044335484213 0.044396171296 0.043372377844 0.043397374581 
0.043423957482 0.043451614167 0.043624977866 0.043656855615 0.04368948091 0.043721865054 0.043755059177 0.04378869215 0.043823323982 
0.04385931109 0.043897354035 0.043937972013 0.043981739311 0.044029024833 0.044079839913 0.044134142798 0.044191722305 0.044251621138 
0.043277379079 0.043300614729 0.043325198053 0.043350770689 0.043534842281 0.043565280658 0.043595938986 0.043627694469 0.04365981128 
0.043692482813 0.043726324005 0.043761602343 0.043798925864 0.043838973089 0.043882189226 0.043928725879 0.04397894215 0.044032796058 
0.044089445942 0.044149558999 0.04322458464 0.043246070648 0.043268716485 0.043292681598 0.043487157114 0.043515795139 0.043545700981 
0.043576146998 0.043607297539 0.043639120756 0.043672127551 0.04370662056 0.043743341551 0.043782595491 0.043824974728 0.043870973197 
0.043920038477 0.043973382479 0.044030213981 0.044090151654 0.04321383601 0.043233603872 0.043254715684 0.043276506425 0.043481195504 
0.043509122641 0.043537845912 0.043567166073 0.043597423535 0.043628325907 0.043660328762 0.043694067268 0.04372987846 0.043768276491 
0.043809872948 0.043854706489 0.043903724369 0.043956649082 0.044013171861 0.044072997903 0.043244325224 0.043262518915 0.043281612621 
0.043302919013 0.043516772736 0.043543634228 0.043571408064 0.043599668664 0.043628734933 0.043658826452 0.043689836111 0.043722511155 
0.043757337995 0.043794493955 0.043835273346 0.043879927989 0.043928418163 0.043980947597 0.044037260126 0.044097023181 0.043342804839 
0.043364256617 0.043386676103 0.043410024238 0.043622933494 0.04365159172 0.043680991113 0.043710449619 0.043740244332 0.04377050153 
0.043801577711 0.043833857498 0.043867988614 0.043904567897 0.043944035098 0.043986853584 0.044032796981 0.04408288755 0.044136546923 
0.044193252714 0.04345649923 0.043478398863 0.043501359552 0.043525718851 0.043732324894 0.04376130256 0.043790503552 0.04382000483 
0.043849653965 0.043879730472 0.043910570794 0.043942797781 0.043976773736 0.044013184471 0.044052555897 0.044095340538 0.044141365934 
0.044191572342 0.044245275057 0.044302537736 0.043602781384 0.043625882901 0.043649361544 0.043673560335 0.043873851374 0.043902807627 
0.04393214828 0.043961684425 0.043991361773 0.044021407605 0.044052230511 0.044084396267 0.044118260542 0.044154601406 0.044193962534 
0.04423635629 0.044282720436 0.044333064746 0.04438737937 0.044445108656 0.043776865745 0.043799748478 0.04382373143 0.043848490007 
0.044041720252 0.044070829788 0.044100477941 0.044130179392 0.044160048582 0.04419021328 0.044221022247 0.044253113601 0.044287226677 
0.044323683166 0.044362672062 0.044405581405 0.044452378252 0.044503144219 0.044557647753 0.044615828674 0.043970704664 0.043994035388 
0.044018370051 0.044043838464 0.044229340432 0.044258885251 0.044288785752 0.044318798693 0.044348914161 0.044379344053 0.04441048777 
0.044442883733 0.044477206475 0.044513485822 0.044553027741 0.044596421587 0.044643732619 0.044694957399 0.044749945398 0.044808519306 
0.04417738123 0.044201123205 0.044225954462 0.044251891461 0.044429496663 0.044459394347 0.044489680352 0.044519954477 0.044550563072 
0.04458144958 0.044613111253 0.04464613789 0.044680433765 0.04471753521 0.044758247446 0.044802333234 0.044850194086 0.044901849288 
0.044957269719 0.045016103823 0.044389420601 0.0444134649 0.044438876566 0.044465340304 0.044634507784 0.044664845035 0.044695602452 
0.044726607783 0.044757811986 0.044789419859 0.044821904835 0.044855213056 0.044890625405 0.044928981106 0.044970530085 0.045015353093 
0.045063762733 0.045115935411 0.04517169741 0.045230796274 0.049194658505 0.049232885298 0.04927331599 0.049315329588 0.0493924764 
0.049436121453 0.049480156056 0.049524494116 0.049569045544 0.04961395445 0.049659664628 0.04970644425 0.049754500355 0.049804981843 
0.049858006759 0.04991337647 0.049971132104 0.050031151931 0.050093595025 0.050157868821 0.048866834681 0.048904576968 0.048944476042 
0.048985985938 0.04907502159 0.049118213959 0.04916186454 0.049205800321 0.049249909003 0.04929444844 0.0493396909 0.049386023212 
0.049433781358 0.049483836768 0.049536267014 0.04959115076 0.049648493156 0.049708554791 0.04977094388 0.049835167916 0.048552988372 
0.048590083895 0.048629111253 0.048669754355 0.048770642074 0.048813146231 0.048856154032 0.048899403912 0.048942908219 0.048986813325 
0.049031496168 0.049077131822 0.049124531539 0.04917405805 0.049225923331 0.049280179844 0.049337575546 0.049397550895 0.049459802149 
0.049524088503 0.048258264461 0.048294297944 0.04833224971 0.048371872525 0.048484302865 0.048525879944 0.048568034085 0.04861046995 
0.04865320194 0.048696353425 0.048740117299 0.048785284714 0.048832056559 0.048880587243 0.048932063077 0.048986336935 0.049043372643 
0.04910312617 0.04916532971 0.049229568637 0.047987773932 0.048022614529 0.048059224156 0.048097579547 0.048221243837 0.048261722022 
0.048302782421 0.048344212242 0.048385899379 0.048428248151 0.048471359844 0.048515823888 0.04856151199 0.048609869929 0.048660837148 
0.048714677276 0.048771394057 0.048830928458 0.048892954594 0.048957212504 0.047746022098 0.047779378938 0.047814716143 0.047851334585 
0.047986161496 0.048025479743 0.048065324138 0.048105534021 0.048146344193 0.04818771298 0.048230139435 0.048273434046 0.048318781845 
0.048366566362 0.048416986791 0.048470427414 0.048526795263 0.048586033192 0.048647974053 0.048712222325 0.047536926716 0.047568883583 
0.047602430279 0.047637466744 0.047783307009 0.047821380181 0.047859724778 0.047899032032 0.047938785823 0.047979283263 0.048020381905 
0.048063175123 0.04810801502 0.048155212548 0.048205139687 0.048258085182 0.048314053076 0.048373022382 0.048434814346 0.048498921736 
0.047363631177 0.047393903981 0.047425781213 0.047459091416 0.047616053747 0.04765226754 0.04768971537 0.047727724972 0.047766453922 
0.047805548006 0.047846175195 0.047888405229 0.047932633067 0.047979216802 0.04802865077 0.048081085768 0.048136648277 0.048195340772 
0.048256830369 0.048320873588 0.047227984691 0.04725675586 0.047287155972 0.047318794891 0.047486002575 0.047521085601 0.047557257382 
0.047593670455 0.047631338497 0.04766988916 0.04770983224 0.04775134047 0.047794884762 0.04784093575 0.047889823333 0.047941903584 
0.047996966747 0.048055256622 0.048116496812 0.04817995885 0.047131400032 0.047158689495 0.047187388713 0.047217207748 0.047395078846 
0.047428916882 0.047463285187 0.047499197484 0.047535901491 0.047573584473 0.047612710964 0.047653516571 0.047696377856 0.047741873197 
0.047790309279 0.047841691596 0.047896344919 0.0479537612 0.048014825847 0.048078456775 0.047074434496 0.047100134839 0.047127149692 
0.047155559731 0.047343706879 0.047375880752 0.047409627918 0.047444354587 0.047480157098 0.047517035616 0.047555405536 0.047595465855 
0.047637763087 0.047682568307 0.047730251704 0.047781164356 0.047834806373 0.047892366022 0.047953106298 0.048016796225 0.047056713407 
0.047080932226 0.047106561987 0.047132948661 0.047331154523 0.047362731947 0.047395406962 0.047429063718 0.047464090462 0.047500100501 
0.047537648478 0.047576911028 0.047618399294 0.047662548407 0.047709481599 0.047759382666 0.047813090383 0.047870369032 0.047930896571 
0.047994547965 0.047077619698 0.047100412816 0.047124079788 0.047150077678 0.047357391733 0.04738792689 0.047419671614 0.047452368935 
0.047486331256 0.047521594101 0.047558192898 0.047596668259 0.047637337205 0.04768026118 0.047726638678 0.04777645806 0.04782978466 
0.047886786188 0.047947155857 0.048010763544 0.047157224747 0.047183320783 0.047210579498 0.047238882092 0.047447276305 0.047479980394 
0.047513732295 0.047547971029 0.04758301714 0.047618960526 0.047656133756 0.047694686768 0.047735159816 0.047777988754 0.047823492009 
0.047872037947 0.047923763641 0.047978181021 0.048036300779 0.048097179844 0.047256857938 0.047283452 0.047311158987 0.047340380586 
0.047542317606 0.047575247414 0.047608830368 0.047643121089 0.047678095123 0.047713974698 0.047750956312 0.047789592412 0.047830075806 
0.047872927648 0.047918419081 0.047966980116 0.048018303901 0.048073421475 0.048131578404 0.048192922083 0.047387484304 0.047414670201 
0.047443330187 0.04747241451 0.047667879476 0.047700754174 0.047734510365 0.047768795201 0.047803867539 0.047839802339 0.047876850909 
0.047915585254 0.047956093897 0.047998933844 0.048044567618 0.048092774119 0.04814468121 0.048199846047 0.048258364382 0.048320124823 
0.047545351112 0.04757284481 0.047601468401 0.047630988823 0.047819327797 0.04785238163 0.047886284534 0.047920907819 0.047956184688 
0.047992273222 0.048029474742 0.048068173587 0.048108936 0.04815198011 0.048197230607 0.0482459979 0.048298117151 0.048353693992 
0.048412544127 0.048474594588 0.047724068257 0.047751922886 0.047780912363 0.047810921417 0.047991762566 0.048025172954 0.048059384053 
0.048094211624 0.048129753533 0.048166143061 0.048203622202 0.048242612884 0.04828360244 0.048326587506 0.048372396854 0.048421407622 
0.048473968931 0.048529933974 0.048589167578 0.048651597594 0.047918658894 0.047946996474 0.047976438148 0.048006958096 0.048179818522 
0.048213560659 0.048248131802 0.048283287277 0.048319149851 0.048355902085 0.048393865432 0.048433367906 0.048474221467 0.048517720825 
0.048564592421 0.048614323405 0.048667332217 0.04872369463 0.048783237602 0.048845890507 0.048123972713 0.048152573576 0.048182500709 
0.048213559318 0.048378067612 0.0484122188 0.048447188956 0.048482877811 0.048519325171 0.048556712996 0.048595233937 0.048634866298 
0.04867660197 0.048721174963 0.048768452825 0.048818956771 0.048872433536 0.04892912054 0.048989059438 0.04905191376 0.052999680327 
0.053040303524 0.053083019094 0.053127355539 0.053200180961 0.053245672019 0.05329205017 0.053339217974 0.053387150255 0.053435948072 
0.053485856766 0.053537143913 0.053589780454 0.053644808214 0.053702321179 0.053761816257 0.053823298923 0.053887553185 0.053953898924 
0.054022084533 0.052667470907 0.052707617634 0.052749820274 0.052793723655 0.052877992539 0.052923077946 0.052969093442 0.053015856502 
0.053063364424 0.053111812829 0.053161340792 0.053211835685 0.053264594339 0.053319192867 0.053376118359 0.053434950342 0.053496632663 
0.053560721119 0.053626823816 0.053695006521 0.052353377627 0.052393023452 0.052434511645 0.05247765581 0.052573410628 0.052617898006 
0.052663325349 0.052709525864 0.0527565207 0.052804385601 0.052853099162 0.052903646223 0.052955774618 0.053009959921 0.053065994613 
0.053124930156 0.053186347817 0.05325019128 0.053316289291 0.053384450114 0.052061136815 0.052099914656 0.052140462542 0.052182734596 
0.052289808308 0.05233352503 0.052378201169 0.052423733935 0.052470059976 0.052517005515 0.052565521212 0.052615401492 0.052667004849 
0.052720266434 0.052776336871 0.052834914125 0.052896117194 0.052959734591 0.053025698888 0.053093759521 0.051794324968 0.051832017148 
0.051871555717 0.05191288706 0.05203099302 0.052073789621 0.052117591371 0.052162272225 0.052207734245 0.052254243617 0.052301953859 
0.052351218498 0.052401914971 0.052455001628 0.052510613327 0.052568843029 0.052629685199 0.052693146393 0.05275898897 0.052827012925 
0.051556321461 0.051592850665 0.051631325161 0.051671199142 0.051800321583 0.051842227906 0.051885026489 0.051928697741 0.051973424816 
0.052019140079 0.052066248415 0.052114407421 0.052164729558 0.052217418002 0.052272562997 0.052330469793 0.052390991313 0.052454249573 
0.052519945658 0.052587988732 0.051350144488 0.051385555012 0.051422553837 0.051461136837 0.051601173486 0.051642132119 0.051683658077 
0.051726576139 0.051770419888 0.051815374754 0.051861208569 0.051909000461 0.051958916208 0.052011026999 0.052065720254 0.052123161594 
0.052183391651 0.052246353622 0.052311981182 0.05237997039 0.051178422495 0.051212311923 0.051248035812 0.051285194092 0.0514362773 
0.051475618325 0.051516478337 0.051558282849 0.051600753054 0.051644874968 0.051690356002 0.051737599 0.05178691073 0.051838491605 
0.0518927634 0.051949766453 0.052009644423 0.05207241212 0.052137861473 0.052205688693 0.051042839685 0.051075399044 0.051109808313 
0.051145550622 0.051306811876 0.051345203201 0.051384819125 0.051425359969 0.05146734856 0.051510648356 0.051555389128 0.05160197308 
0.05165067471 0.051701751953 0.051755566479 0.05181221112 0.051871739992 0.051934111439 0.051999354126 0.052066734789 0.050944212945 
0.050975564584 0.051008443063 0.05104259631 0.051214469078 0.05125179018 0.05128993773 0.051329943181 0.051371082117 0.051413469858 
0.051457561102 0.051503462715 0.051551591207 0.051602178633 0.051655503253 0.051711651931 0.051770742077 0.051832392957 0.051897513153 
0.051965163844 0.050883165605 0.05091306698 0.05094457496 0.050977572582 0.051159093561 0.051195385101 0.051233014452 0.051271913566 
0.051312217571 0.05135392731 0.051397268041 0.051442556067 0.051490109464 0.051540106138 0.051592828629 0.051648540396 0.051706847002 
0.051768559971 0.051833498713 0.051901243972 0.050859491495 0.050888175487 0.050918348759 0.050949463379 0.051141409789 0.051176701359 
0.051213353079 0.051251332167 0.051290699274 0.051331776841 0.051374440307 0.051419001539 0.051465802967 0.051515260004 0.051566901128 
0.051622138662 0.051680525368 0.051742201252 0.051806949452 0.051874645744 0.050872517403 0.050899378838 0.050928234896 0.050959090388 
0.051160097494 0.051194376015 0.051230133349 0.051267203417 0.051305872987 0.051346050772 0.051387900055 0.051431793341 0.051477891827 
0.051526206315 0.051577883696 0.05163266283 0.051690773755 0.051752251467 0.051816892989 0.051884609195 0.05093586443 0.050966758298 
0.05099890997 0.051032184644 0.05123654386 0.051273362098 0.051311501137 0.051350484535 0.051390589894 0.051431942981 0.051474863898 
0.051519205342 0.051565553185 0.051614212894 0.051665406851 0.051719384406 0.0517763121 0.051835616832 0.051898355289 0.051963628749 
0.051024932632 0.051056308233 0.051088801117 0.051123183412 0.051320698452 0.051357792909 0.051395690693 0.051434804401 0.051474920312 
0.051516117858 0.051558876685 0.051603446985 0.051649895687 0.051698618295 0.051749864368 0.051803955477 0.051860456974 0.051920404302 
0.051983152191 0.052048908068 0.051144366059 0.051176153476 0.051209665694 0.051243698534 0.051434780326 0.051471645535 0.05150981276 
0.051548873808 0.051589069493 0.051630509249 0.051673361699 0.051717842618 0.051764578285 0.051813373412 0.051864802255 0.051918515029 
0.05197566161 0.052035681858 0.052098726006 0.052164793871 0.051291160503 0.051323333719 0.051356634832 0.051391119002 0.051574870488 
0.051612122506 0.05165033293 0.051689665112 0.051730113231 0.051771731297 0.051814717101 0.051859417224 0.051906249344 0.051955246862 
0.052006284422 0.052060767693 0.05211784059 0.052178235974 0.052241716107 0.052307867582 0.051460249681 0.051492784647 0.051526496423 
0.051561346325 0.051737679358 0.051775079979 0.051813646958 0.051853241368 0.051893878652 0.051935750131 0.051978994022 0.052024005361 
0.05207097551 0.052119890769 0.052171611513 0.052226218589 0.052283780575 0.052344340759 0.05240805373 0.052474649163 0.05164825353 
0.051681140186 0.051715360149 0.051750633512 0.051919002896 0.05195674804 0.05199561351 0.052035459197 0.052076512211 0.052118545448 
0.052162224458 0.052207590291 0.052254490051 0.052303760905 0.052356244983 0.052411330634 0.052469423142 0.052530471178 0.052594389635 
0.052661205118 0.051851443177 0.051884677553 0.051919188302 0.051954990852 0.052115204106 0.052153145612 0.052192380191 0.052232647315 
0.052274088897 0.052316768561 0.0523608454 0.052406245196 0.052453766333 0.052504022786 0.052556795147 0.05261250924 0.052670975518 
0.052732327389 0.052796594209 0.052863584963 0.056787380284 0.056830767476 0.056876297228 0.056923368083 0.056992305175 0.057040094369 
0.057089111251 0.057139289601 0.057190612512 0.05724322108 0.057297174401 0.057352705743 0.057409694685 0.057469224681 0.057530851555 
0.057594682697 0.057660259269 0.057728529803 0.057799035899 0.057871400338 0.056447691065 0.056490773218 0.056535783065 0.056582575186 
0.056662446811 0.05670987169 0.056758560987 0.056808351832 0.0568592646 0.056911542489 0.056965122864 0.057019943713 0.057077063276 
0.05713607752 0.057197339025 0.057260427917 0.057326231 0.057394385821 0.057464666805 0.057536929054 0.056129902615 0.056172457017 
0.056216868224 0.056262992827 0.056354018713 0.056400954201 0.056449108156 0.056498419515 0.05654889615 0.056600666109 0.056653482143 
0.056708382315 0.056764911894 0.056823574564 0.056884009643 0.056947261255 0.057012785698 0.057080733211 0.057150879736 0.057223124477 
0.055836385085 0.055878241441 0.055921904307 0.055967305037 0.056069321617 0.056115576673 0.056163135131 0.056211852453 0.056261783783 
0.056312816297 0.056365451583 0.056419702486 0.056475852406 0.056533606715 0.056594174842 0.056657015919 0.056722354798 0.056790084103 
0.056860088416 0.056932233691 0.055569846434 0.055610731573 0.055653593809 0.055698124505 0.055811125692 0.055856612794 0.055903381948 
0.055951412533 0.056000580159 0.056051081762 0.056103129149 0.056156963114 0.056212174419 0.056269821541 0.056329895869 0.056392501711 
0.056457633093 0.056525170264 0.056595043986 0.056667119423 0.055332612374 0.055372583149 0.055414533289 0.055457928683 0.055581675608 
0.055626459125 0.055672407989 0.055719576219 0.055768147193 0.055818069734 0.055869502876 0.055922275915 0.055977247002 0.056034583153 
0.056094267635 0.056156564373 0.056221356215 0.056288717698 0.056358478739 0.056430616205 0.055127034903 0.055166131279 0.055206788911 
0.05524916481 0.055383694396 0.055427682446 0.055472652106 0.055519087613 0.055566883463 0.055615672891 0.05566644215 0.055718885184 
0.055773507232 0.055830294376 0.055889600341 0.055951523445 0.056016054321 0.056083220067 0.056152859676 0.056224946305 0.054955260042 
0.054993026683 0.055032606345 0.0550740923 0.055219266532 0.055261835508 0.055306190614 0.055351773598 0.055398329539 0.055446821265 
0.055496850584 0.055548812145 0.055602865247 0.055659216653 0.055718088076 0.055779665729 0.055843937202 0.055910853508 0.055980361802 
0.056052398572 0.054818536166 0.054855183116 0.054893732019 0.054933691807 0.055089179884 0.05513098008 0.055174257983 0.055218724352 
0.05526489353 0.055312639126 0.055361999395 0.055413408368 0.055466881817 0.055522755452 0.055581292566 0.055642481044 0.055706422022 
0.055773131415 0.055841985216 0.055914022271 0.054717547703 0.054753120265 0.054790172611 0.054828935858 0.054994925268 0.055035795608 
0.055077690044 0.055121764114 0.055167163549 0.055214101979 0.05526288025 0.055313627755 0.055366657853 0.05542210748 0.055480210995 
0.055540990247 0.055604555705 0.055670501856 0.055739782099 0.055811758772 0.054652752991 0.054687031236 0.054723009311 0.054760644182 
0.054936233159 0.054976159204 0.055017670786 0.055060715297 0.055105416811 0.055151725303 0.055199813031 0.05525009734 0.055302537402 
0.055357444003 0.055415014642 0.055475421404 0.055538290674 0.055604388215 0.055673602559 0.055745526908 0.054623984323 0.054657179987 
0.054691989941 0.054727862127 0.05491379164 0.054952821993 0.054993433033 0.055035746091 0.055079435953 0.055125278528 0.055172741491 
0.055222299176 0.055274161215 0.055328615031 0.055385166619 0.055445129973 0.055508188326 0.055574319669 0.055643394047 0.055715291379 
0.054630656001 0.054662133159 0.054695748845 0.054731473034 0.054926412336 0.054964564204 0.055004301304 0.055045770689 0.055088838499 
0.055133864093 0.055180656054 0.05522958683 0.055280949711 0.055334250787 0.05539093142 0.055450631627 0.055513409948 0.055579370134 
0.055648358835 0.055720332073 0.054680058243 0.054715802294 0.05475290338 0.054791247019 0.054991241196 0.055032908556 0.055075368293 
0.055119011943 0.055164077643 0.055210567091 0.055258858936 0.055308629561 0.055360649462 0.055414753769 0.055471412673 0.055530664519 
0.055592647213 0.055656876129 0.055724305384 0.055794187938 0.054761436308 0.054797570432 0.054835058173 0.054874356957 0.055067929006 
0.055109262414 0.055151529568 0.055195277511 0.055240394864 0.055286774067 0.055334919492 0.055385000703 0.055437036599 0.055491296505 
0.055548047354 0.055607370338 0.055668981077 0.055733808107 0.055801276053 0.055871602 0.054873078771 0.054909626469 0.054948005592 
0.054987065199 0.055173941458 0.055214968812 0.05525748376 0.055301261469 0.055346453663 0.055393048851 0.05544132151 0.055491345637 
0.05554363506 0.055598070982 0.055654943253 0.05571395744 0.055776204061 0.055841050301 0.055908766351 0.055979349074 0.055012142723 
0.055049593047 0.055087791606 0.055127200963 0.055306676818 0.055348047154 0.055390650832 0.055434642138 0.055480026464 0.055526838163 
0.055575256033 0.055625455926 0.055677933521 0.055732495469 0.05578899841 0.055848754603 0.055910843104 0.055976092593 0.056044176752 
0.056114914038 0.055176268671 0.055213591931 0.055252090129 0.05529184816 0.055463775223 0.055505342645 0.055548231701 0.055592453352 
0.05563802204 0.055685048532 0.055733676441 0.055784190847 0.055836745219 0.05589119617 0.055948515519 0.056008142993 0.056070720268 
0.05613626331 0.056204498415 0.056275465779 0.055361547196 0.055399159985 0.05543815467 0.055478314132 0.055642274665 0.055684053911 
0.05572722719 0.05577167845 0.055817542691 0.0558648785 0.055913725407 0.055964531193 0.056016944898 0.056071749347 0.05612945448 
0.056189714887 0.056252703207 0.056318482854 0.056386975649 0.056458129014 0.055565739788 0.055603699341 0.055642886354 0.055683508398 
0.055839398457 0.055881481907 0.055924817483 0.055969584811 0.056015819875 0.056063530224 0.056112888596 0.056163564467 0.05621647609 
0.056271976931 0.05633003922 0.056390820856 0.056454205136 0.056520226931 0.056588951757 0.05666033277 0.060553116016 0.060599643085 
0.06064820312 0.060698479675 0.060763713399 0.060814116829 0.060866009352 0.060919321719 0.06097406257 0.061030353302 0.061088251388 
0.061147847548 0.061209034403 0.061272794338 0.061338648592 0.061406673217 0.061476424781 0.061548927351 0.061623612682 0.061700240878 
0.060204013443 0.060250296792 0.060298510174 0.060348490959 0.06042427905 0.060474352229 0.06052590375 0.060578885243 0.060633312377 
0.060689249458 0.060746757298 0.060805716563 0.060867087058 0.06093036483 0.060995896888 0.061063185818 0.061133208357 0.061205536692 
0.061280030002 0.061356591382 0.059880058798 0.059925814672 0.059973558286 0.060023018358 0.060109536835 0.060159153683 0.060210297942 
0.060262876725 0.060316842061 0.060372384602 0.06042915984 0.060488265021 0.060549073531 0.060612007626 0.060676735597 0.060744248047 
0.060813981168 0.06088613061 0.060960486635 0.061036999986 0.059582640115 0.059627903488 0.059674933173 0.059723863573 0.059821074083 
0.059870130241 0.059920699658 0.059972736363 0.060026201464 0.060081107801 0.060137795195 0.060196295218 0.060256740499 0.060318991241 
0.060383750912 0.060450885835 0.060520520274 0.060592445549 0.060666619318 0.060743015826 0.059313743073 0.059358213046 0.059404601637 
0.059452738001 0.059560733408 0.059609154522 0.05965905154 0.059710508999 0.059763350009 0.059817810973 0.059874002791 0.059932061217 
0.059991715788 0.060053796361 0.060118286234 0.060185161115 0.060254518638 0.060326259233 0.060400358616 0.060476702779 0.059075082147 
0.059118768331 0.059164411414 0.059211605207 0.059330159391 0.059377990589 0.05942740186 0.059477955822 0.059530373919 0.059584264217 
0.059639474019 0.059697036172 0.059756441795 0.059818200007 0.059882341384 0.059948958442 0.060018070187 0.060089629248 0.060163667184 
0.060239997247 0.0588683716 0.058911282483 0.058955784027 0.059002175188 0.059131328176 0.059178387423 0.059226936504 0.05927701103 
0.059328691057 0.059381564119 0.059436647662 0.059493545236 0.059552663546 0.059613968237 0.059677715307 0.059744023418 0.059812871229 
0.05988436534 0.059958240595 0.060034530528 0.058695172571 0.058736956643 0.058780716108 0.058826181179 0.05896588083 0.059011805043 
0.059059712621 0.059109022278 0.059159578397 0.059212310451 0.059266768966 0.059323177548 0.059381766394 0.059442678837 0.059506065385 
0.059572082754 0.059640711524 0.05971191672 0.059785674831 0.059861444829 0.058556389353 0.058597293737 0.058640050991 0.05868420016 
0.05883427402 0.058879542103 0.058926481454 0.058974786357 0.05902510226 0.059077118955 0.05913096819 0.05918691595 0.05924498281 
0.059305504368 0.059368612448 0.059434234169 0.059502558642 0.059573644223 0.059646791464 0.059723125366 0.058452803502 0.058492711592 
0.058534148691 0.058577439685 0.058737753463 0.058781725309 0.05882784759 0.058875744534 0.058925487619 0.058976779143 0.05903005544 
0.059085487135 0.059143156993 0.059203287212 0.059265960971 0.059331311535 0.059399382133 0.059469685463 0.059543206626 0.059619569669 
0.058384541438 0.058423261076 0.058463753074 0.058505996578 0.05867587473 0.058719495688 0.058764875396 0.058811976319 0.058860933046 
0.058911715616 0.058964357426 0.059019300431 0.059076515517 0.059136172464 0.05919843013 0.059262973607 0.059330783624 0.05940140639 
0.059474927686 0.05955114836 0.058351458465 0.058389196974 0.058428154574 0.058469301802 0.058649415984 0.0586922183 0.058736853892 
0.058783218065 0.058831306986 0.058881624196 0.058933790647 0.058988077257 0.059044732377 0.05910398069 0.059165403475 0.059229968792 
0.059297581158 0.059368094069 0.059441627468 0.059517925357 0.05835305233 0.058389194912 0.058427578369 0.058468202156 0.058657245715 
0.058699290269 0.058743098563 0.058788754394 0.058836257588 0.058885706872 0.058937387895 0.058991182344 0.059046877489 0.059105542707 
0.059167092261 0.059231534626 0.059298929037 0.059369396194 0.059442769839 0.059519103973 0.058390449726 0.058431081709 0.058473134068 
0.058516645588 0.058713014864 0.058758844571 0.058805555893 0.058854033001 0.058903854002 0.058955349707 0.059008737572 0.05906374772 
0.059120991559 0.05918049478 0.059242350934 0.059306699844 0.059373646948 0.059442786046 0.059515032934 0.059589650455 0.058466411818 
0.058507418526 0.058549903184 0.058594209083 0.058783957274 0.058829252888 0.058876159204 0.058924478385 0.058974325991 0.059025886465 
0.059079049667 0.059134375754 0.059191696787 0.059251235429 0.059313196548 0.059377676475 0.059444309542 0.05951402899 0.05958626115 
0.059661252565 0.058572965587 0.058614299199 0.058657554135 0.058701683394 0.058884303804 0.05892977839 0.058976631984 0.059025073541 
0.05907499572 0.0591265978 0.059179999526 0.059235277283 0.059292838038 0.05935253965 0.059414690365 0.059478769392 0.059546051066 
0.059615731713 0.059688190101 0.059763399133 0.058707841806 0.05875007059 0.058793130607 0.058837493345 0.059012903452 0.059058354501 
0.059105346096 0.059153886267 0.059204003341 0.059255833962 0.059309353177 0.059364791026 0.059422418349 0.059482386052 0.059544106182 
0.059608981296 0.059676121685 0.05974609844 0.059818849486 0.059894180044 0.058869463407 0.058911503296 0.058954832598 0.058999581295 
0.059167276345 0.059212917459 0.059260139535 0.059308899519 0.059359217944 0.059411165471 0.059464885435 0.05952061201 0.059578389811 
0.059638082069 0.059700500099 0.05976524482 0.059832894269 0.059903028961 0.059975983772 0.060051484681 0.059054636721 0.059096972986 
0.059140718359 0.059185789711 0.059345546009 0.059391441453 0.059438882651 0.059487843563 0.0595383725 0.059590581131 0.059644599756 
0.059700542384 0.059757976955 0.059818252434 0.05988080021 0.059946034168 0.06001385837 0.060084399871 0.060157523659 0.060233223736 