# vtk DataFile Version 5.1
vtk output
ASCII
DATASET STRUCTURED_POINTS
DIMENSIONS 20 20 40
SPACING 0.05 0.05 0.05
ORIGIN 3.225 -0.475 0.525
POINT_DATA 16000
FIELD FieldData 1
potential 1 16000 double
0.00082682981855 0.00081901350706 0.00081132059904 0.00080373741908 0.00079625163543 0.00078884833332 0.00078151573426 0.00077424815824 0.00076703879845 
0.00075988700847 0.00075279515729 0.00074577133964 0.00073882480788 0.00073196783126 0.00072521377732 0.00071857549078 0.00071206264462 0.0007056843715 
0.00069944556281 0.00069853709861 0.00082946341658 0.00082158484563 0.00081382451618 0.0008061710739 0.00079861019792 0.00079113004806 0.00078371891675 
0.00077637162209 0.00076908263296 0.00076185264281 0.00075468602975 0.0007475913287 0.00074057774611 0.00073365872398 0.00072684693975 0.00072015567523 
0.00071359627358 0.00070717491452 0.00070089790942 0.00070041965068 0.00083182725834 0.0008238871404 0.0008160618465 0.00080833943928 0.00080070866628 
0.00079315521634 0.00078567154102 0.0007782511218 0.00077089065847 0.000763590528 0.00075635571627 0.00074919605845 0.00074212193634 0.00073514530781 
0.00072828067329 0.00072153822023 0.00071493051845 0.00070846477581 0.00070214513512 0.00070209697167 0.00083406518001 0.00082606227412 0.00081817211137 
0.00081038243906 0.00080268467659 0.00079506313642 0.00078751039942 0.00078002334678 0.00077259759435 0.00076523440913 0.00075793853295 0.00075071956989 
0.00074358975699 0.00073655914034 0.00072964296116 0.00072285023472 0.00071619219774 0.00070967642898 0.00070331063312 0.00070369086887 0.00083080268109 
0.00082293512296 0.00081520151759 0.00080758657401 0.00080007604473 0.00079265585753 0.00078531366392 0.00077804137782 0.00077083541581 0.00076369231313 
0.00075661517962 0.00074960769546 0.00074267881476 0.00073583706966 0.00072909225963 0.000722450392 0.00071591943728 0.00070950420394 0.00070320944763 
0.00071231501243 0.00083407459629 0.00082611851461 0.00081829965811 0.00081060234406 0.00080301311371 0.00079551794723 0.00078810504068 0.00078076604427 
0.00077349790154 0.00076629835571 0.00075916697862 0.0007521088224 0.0007451310451 0.00073824195231 0.00073144909992 0.00072476067513 0.00071818255406 
0.00071172045685 0.00070537776721 0.00071337068149 0.00083759906483 0.00082955320463 0.0008216487916 0.00081387024659 0.00080620378711 0.00079863544421 
0.00079115558293 0.00078375397869 0.00077642710704 0.00076917238375 0.0007619894558 0.00075488235463 0.00074785612847 0.00074091959306 0.0007340781399 
0.00072733908864 0.00072071020524 0.000714196098 0.00070780120993 0.00071467762123 0.00084146743809 0.00083332964648 0.00082533816388 0.00081747826564 
0.000809734918 0.00080209548957 0.0007945501966 0.00078708766515 0.00077970392321 0.00077239523446 0.00076516053079 0.00075800390603 0.00075092812767 
0.00074394050413 0.00073704820505 0.00073025594938 0.00072357113117 0.00071700052586 0.00071054818111 0.00071630418786 0.00084574554091 0.00083751354855 
0.00082943363572 0.00082149049276 0.00081367052246 0.00080596064768 0.00079834927743 0.00079082677908 0.00078338615087 0.00077602359149 0.00076873726761 
0.00076152835303 0.00075440012109 0.00074735774344 0.00074040973411 0.00073355952015 0.00072681560509 0.00072018338322 0.00071366923158 0.00071830148307 
0.00085047527274 0.00084214580905 0.00083397556315 0.00082594891623 0.00081805213305 0.00081027091902 0.00080259412212 0.00079501105099 0.00078751300405 
0.00078009480479 0.00077275370684 0.00076548932467 0.00075830449573 0.00075120484737 0.00074419493511 0.00073728332031 0.0007304745289 0.00072377684322 
0.00071719678085 0.00072070221862 0.00085567890788 0.00084724883125 0.0008389853225 0.00083087347914 0.00082289897876 0.00081504722313 0.00080730455378 
0.00079965826684 0.00079210238815 0.00078462637425 0.00077722730058 0.00076990359613 0.00076265797468 0.00075549469015 0.00074842012838 0.00074144134345 
0.00073456388955 0.0007277978254 0.00072114754185 0.00072352335368 0.00086135608781 0.00085282321553 0.00084446561045 0.00083626700882 0.00082821376515 
0.00082028924517 0.00081247867832 0.00080477037425 0.00079715229649 0.00078961623062 0.00078215475451 0.00077476835442 0.00076745733896 0.00076022641894 
0.00075308243992 0.00074603235967 0.00073908283248 0.00073224397338 0.00072552230999 0.00072676414766 0.00086748880616 0.00085885030981 0.00085039540614 
0.00084210928095 0.00083397609119 0.00082597754211 0.00081809859179 0.00081032449123 0.00080264130744 0.00079504122854 0.00078751519377 0.00078006108862 
0.00077268102763 0.00076537880222 0.00075816083698 0.00075103472656 0.0007440107215 0.00073709587146 0.00073029931552 0.00073040623439 0.00087403609752 
0.00086528982967 0.00085673675239 0.00084836140175 0.00084014515653 0.00083207209218 0.00082412204691 0.00081627898876 0.00080852761856 0.0008008595449 
0.00079326387208 0.00078573847584 0.00077828503365 0.00077090713038 0.00076361287 0.00075640872877 0.00074930701469 0.00074231349636 0.00073543911383 
0.00073440924161 0.00088093439479 0.00087207954573 0.00086342691915 0.00085495934004 0.00084665998269 0.00083850808853 0.00083048316755 0.00082256707819 
0.00081474362868 0.00080700283345 0.00079933250564 0.00079173147226 0.00078420017505 0.00077674428169 0.00076936968629 0.0007620862551 0.00075490428888 
0.00074783234403 0.00074087920927 0.0007387109514 0.00088809477177 0.00087913093649 0.00087037812658 0.00086181748561 0.00085343065974 0.0008451956308 
0.00083709098105 0.00082909651206 0.00082119521113 0.00081337493033 0.00080562764295 0.00079794648873 0.00079033357342 0.00078279600675 0.00077534017023 
0.00076797625222 0.00076071311163 0.00075356189296 0.00074653017372 0.00074322558522 0.00089540107137 0.00088633065213 0.00087747618963 0.00086882060074 
0.00086034269887 0.00085202018481 0.00084382957414 0.00083575087755 0.00082776524131 0.00081986083064 0.0008120283805 0.00080426263858 0.00079656555159 
0.0007889446138 0.00078140595923 0.00077396035312 0.00076661757647 0.00075938947268 0.00075228157494 0.00074784250992 0.00090271340358 0.0008935387724 
0.00088458441393 0.00087583152075 0.00086725867985 0.00085884243754 0.00085055974453 0.0008423901473 0.00083431345838 0.00082631780455 0.00081839576824 
0.000810540961 0.0008027570476 0.00079504966433 0.00078742834357 0.00077990289244 0.00077248272789 0.00076518043985 0.00075800202029 0.00075243490282 
0.00090987378177 0.00090059991357 0.0008915465679 0.00088269512285 0.00087402381658 0.00086550948572 0.00085712856307 0.00084886096728 0.00084068670178 
0.00083259488737 0.00082457645609 0.00081663006484 0.00080875679565 0.00080096255017 0.00079325933109 0.00078565647519 0.000778164427 0.00077079323056 
0.00076354997987 0.00075686274083 0.00091671934041 0.00090735141148 0.0008982017721 0.00088925219807 0.00088048085326 0.00087186487625 0.00086338231796 
0.00085501040911 0.00084673429288 0.00083854099179 0.00083042402738 0.00082238273414 0.00081441880629 0.0008065402084 0.00079875702986 0.0007910805308 
0.0007835205694 0.00077608664507 0.0007687883283 0.00076099020496 0.00089706988864 0.00088854172926 0.00088014776744 0.00087187787021 0.00086371917867 
0.00085566129462 0.00084769430327 0.00083981413759 0.00083201481853 0.00082429555191 0.00081665718444 0.00080910519006 0.00080164543248 0.00079428634172 
0.00078703701953 0.00077990818479 0.00077290585298 0.00076603670148 0.00075930540884 0.00075794045372 0.00090045061394 0.00089184930298 0.00088337887881 
0.00087503011699 0.00086679073994 0.00085865106672 0.00085060149149 0.00084263743389 0.00083475591266 0.00082695496563 0.00081923785436 0.0008116102611 
0.00080407770341 0.0007966500565 0.00078933572238 0.00078214476986 0.00077508586006 0.00076816369946 0.00076138205598 0.00076043890146 0.00090363864402 
0.0008949640944 0.00088641860704 0.00087799267361 0.00086967497362 0.00086145515954 0.00085332667733 0.00084528418352 0.00083732447372 0.00082944712142 
0.00082165504274 0.00081395512393 0.00080635424287 0.00079886019081 0.00079148385761 0.00078423217705 0.00077711512163 0.00077013850052 0.0007633048849 
0.00076278332491 0.00090673860815 0.00089798973243 0.00088936876198 0.00088086660311 0.00087247205597 0.00086417560883 0.000855969793 0.00084785231706 
0.00083981865732 0.00083186943628 0.00082400739113 0.00081623817438 0.00080857102939 0.00080101325546 0.00079357520787 0.00078626286515 0.00077908632254 
0.00077205026323 0.00076516232093 0.00076506327149 0.00090440859499 0.00089576866178 0.00088727837606 0.0008789242671 0.00087069384048 0.00086257436704 
0.00085455379783 0.00084662740154 0.00083878868422 0.0008310339449 0.0008233641935 0.0008157808038 0.00080828822443 0.00080089212561 0.00079359909121 
0.00078641222278 0.00077933697306 0.00077237669318 0.00076553491545 0.00077416068945 0.00090850670002 0.00089976772051 0.00089118185917 0.00088273538007 
0.00087441620401 0.00086621155144 0.00085811066767 0.00085010600763 0.00084219308456 0.0008343701723 0.00082663399301 0.0008189872478 0.00081143355586 
0.00080397852906 0.00079662823754 0.00078938570343 0.00078225531231 0.00077524165577 0.00076834766659 0.00077585194119 0.0009128012582 0.00090396263076 
0.00089528134333 0.00088674364071 0.00087833703147 0.0008700484738 0.00086186996058 0.00085379028499 0.00084580688123 0.00083791599 0.00083011549366 
0.00082240691638 0.00081479353253 0.00080728036538 0.000799870721 0.00079257008472 0.00078538293163 0.00077831203025 0.00077136144198 0.00077774238758 
0.00091736646967 0.00090842702806 0.00089964968423 0.00089102046548 0.000882527782 0.00087415670134 0.00086590063179 0.00085774808688 0.000849695582 
0.00084173735428 0.00083387315252 0.00082610324243 0.00081842889724 0.00081085484176 0.00080338591539 0.0007960238827 0.00078877595464 0.00078164446491 
0.00077463399053 0.00077988899659 0.00092225768666 0.000913215627 0.00090434092566 0.00089561965924 0.00088703911301 0.00087858761874 0.00087025421946 
0.0008620294824 0.00085390739147 0.00084588396611 0.00083795546024 0.00083012202751 0.00082238499705 0.0008147473659 0.00080721540126 0.00079979032776 
0.00079247808078 0.00078528245669 0.00077820820465 0.00078233477866 0.00092751053327 0.00091836403987 0.0009093909928 0.00090057658338 0.00089190950925 
0.00088337607707 0.00087496531666 0.00086666813219 0.00085847713468 0.00085038582114 0.0008423913159 0.00083449224105 0.00082668999697 0.00081898728289 
0.00081138747401 0.00080389621386 0.00079651649614 0.00078925294145 0.0007821113597 0.00078510738266 0.00093314453414 0.00092389071839 0.00091481682566 
0.00090590898996 0.00089715445689 0.00088853988554 0.00088005101241 0.00087167975526 0.0008634184449 0.0008552580917 0.00084719526796 0.00083922800758 
0.00083135701675 0.00082358481685 0.00081591599204 0.00080835397515 0.00080090294273 0.00079356921316 0.00078635713086 0.00078822036175 0.00093915812713 
0.00092979618731 0.00092062092841 0.0009116179855 0.0009027747506 0.00089407573043 0.0008855090217 0.00087706264834 0.00086872879009 0.00086049786385 
0.00085236317008 0.00084432533702 0.00083638256358 0.00082853778317 0.00082079541072 0.00081315987687 0.00080563533392 0.00079822833932 0.00079094393827 
0.00079167139364 0.00094553496237 0.00093606264445 0.00092678377798 0.00091768507634 0.00090875141429 0.0008999684332 0.00089132157353 0.00088279802603 
0.00087438922433 0.00086608346854 0.00085787556677 0.00084976372395 0.00084174607292 0.00083382615325 0.00082600670317 0.00081829356534 0.00081069380607 
0.00080321082039 0.00079585186892 0.00079544214986 0.0009522374226 0.00094265356904 0.00093327036317 0.00092407375978 0.00091504877369 0.00090617996006 
0.00089745108673 0.00088884770596 0.00088035965934 0.00087197790549 0.00086369355104 0.00085550319922 0.00084740795058 0.0008394093075 0.00083151149959 
0.00082371954549 0.00081604138481 0.00080848041122 0.00080104453452 0.00079949837763 0.00095920950445 0.00094951361904 0.00094002501643 0.00093072968143 
0.00092161188997 0.00091265442292 0.00090384053229 0.00089515451949 0.00088658518731 0.00087812262365 0.0008697575556 0.00086148633225 0.0008533102261 
0.00084523029146 0.00083725115805 0.00082937907002 0.00082162151493 0.00081398187649 0.00080646911163 0.00080378511199 0.00096637551975 0.00095656775677 
0.00094697384757 0.00093757879955 0.00092836561255 0.00091931688615 0.00091041412714 0.00090164159207 0.00089298729545 0.00088443872954 0.00087599105311 
0.0008676364737 0.00085937567794 0.00085121260496 0.00084315173316 0.00083519865938 0.00082736048609 0.00081964233129 0.00081205268626 0.00080823240125 
0.00097364072196 0.00096372331559 0.00095402416888 0.0009445275992 0.00093521700989 0.00092607367389 0.00091707863238 0.0009082159013 0.00089947188996 
0.00089083535335 0.000882299042 0.00087385726977 0.00086551049612 0.000857263022 0.00084911867708 0.00084108396398 0.00083316595587 0.00082537206127 
0.00081770700717 0.00081275333862 0.00098089521321 0.00097087026453 0.00096106698085 0.00095146916545 0.00094205914849 0.00093281780911 0.00092372679469 
0.00091476955052 0.00090593205047 0.0008972021143 0.00088857440875 0.00088004307392 0.0008716087426 0.00086327475742 0.00085504707623 0.00084693214751 
0.00083893671807 0.00083106819192 0.0008233320119 0.0008172489591 0.00098801976678 0.00097789161191 0.00096798580998 0.00095828633422 0.00094877548238 
0.00093943375963 0.00093024378082 0.00092118738708 0.00091225206265 0.00090342648069 0.00089470310867 0.00088608059994 0.00087755761587 0.00086913723132 
0.00086082711703 0.00085263375488 0.00084456443701 0.00083662593467 0.00082882287939 0.00082161728129 0.00099489511633 0.00098466832698 0.0009746627054 
0.00096486335042 0.00095525133053 0.00094580772401 0.00093651636136 0.00092735861761 0.00091832271298 0.000909398296 0.00090057870209 0.00089186283682 
0.00088325028674 0.00087474486736 0.00086635564887 0.00085808701131 0.00084994703819 0.00084194252095 0.00083408011107 0.00082575734527 0.00096745072037 
0.00095822047804 0.00094913612087 0.00094018723439 0.00093136318575 0.0009226558154 0.00091405867157 0.00090556559863 0.00089717402967 0.00088888095865 
0.00088068749139 0.00087259527413 0.00086460975459 0.00085673590036 0.00084898113035 0.0008413503858 0.00083385104533 0.00082648619198 0.00081926020274 
0.00081743045219 0.0009714918691 0.00096217843134 0.00095300858809 0.00094397325647 0.00093506243293 0.00092626838509 0.00091758258253 0.00090900213643 
0.00090052343229 0.00089214434559 0.00088386676414 0.00087569432497 0.00086763050267 0.00085968168617 0.00085185379953 0.00084415433653 0.00083658976635 
0.00082916335733 0.00082187790057 0.00082046182512 0.00097539972592 0.00096600249596 0.00095674753134 0.00094762739281 0.00093863037844 0.00092974949531 
0.00092097866705 0.00091231326 0.00090374962252 0.00089528851991 0.00088692947465 0.00087867878853 0.00087053865072 0.0008625154227 0.00085461773289 
0.00084684949834 0.00083921799166 0.00083172849278 0.00082438213111 0.00082338105909 0.00097925122868 0.0009697692775 0.0009604291243 0.00095122302333 
0.00094214127383 0.00093317550198 0.00092431964538 0.00091557152665 0.00090692677449 0.00089838515178 0.00088994777754 0.00088161874332 0.00087340430827 
0.00086530909969 0.00085734063405 0.00084950312267 0.00084180364971 0.00083424766491 0.00082683855023 0.00082625326855 0.00097774217422 0.00096834378056 
0.00095911004139 0.00095002901609 0.00094108806572 0.00093227556938 0.00092358211457 0.00091500227762 0.00090652952738 0.00089815941359 0.00088989093869 
0.0008817236514 0.00087366059216 0.00086570325481 0.00085785645348 0.00085012088829 0.00084250019787 0.00083499636667 0.00082761202122 0.00083575441856 
0.00098257211967 0.00097306531914 0.0009637265727 0.00095454261229 0.0009455037993 0.00093659752919 0.00092781349705 0.00091914666654 0.00091059014446 
0.00090214097948 0.00089379619138 0.00088555580937 0.0008774213934 0.00086939581861 0.00086148282764 0.00085368383521 0.0008460008516 0.00083843717947 
0.00083099500391 0.00083800829662 0.00098755862939 0.00097794293397 0.00096849929524 0.00095921495823 0.00095007950138 0.00094108079126 0.00093220859436 
0.00092345543581 0.00091481761306 0.00090629033102 0.00089787044266 0.00088955785947 0.00088135367216 0.0008732608227 0.00086528040816 0.00085741583756 
0.00084966989697 0.00084204362812 0.00083453987028 0.00084042205135 0.00099276033077 0.00098303515496 0.00097348675571 0.00096410189396 0.00095487047855 
0.00094577828427 0.00093681957097 0.00092798291803 0.00091926523324 0.00091065983486 0.00090216573867 0.00089378159179 0.00088550710705 0.00087734448487 
0.00086929671846 0.00086136439569 0.00085355246374 0.00084586119607 0.00083829396477 0.00084304390928 0.00099822277889 0.00098838694876 0.00097873264515 
0.00096924693653 0.0009599189136 0.00095073586182 0.00094169038485 0.00093277034521 0.00092397212555 0.00091529087672 0.0009067221326 0.00089826421915 
0.00088991825622 0.00088168447318 0.00087356726663 0.00086556574281 0.00085768497075 0.0008499262688 0.00084229194522 0.00084590781309 0.0010039750843 
0.00099402734781 0.00098426663523 0.0009746792459 0.00096525516862 0.00095598068071 0.00094684673019 0.00093784446906 0.00092896693825 0.00092020772306 
0.00091156301624 0.00090303125039 0.00089461143186 0.00088630499901 0.00087811529328 0.00087004218342 0.00086208940007 0.00085425988369 0.00084655634674 
0.00084903700155 0.0010100322691 0.00099997112369 0.00099010253122 0.00098041322191 0.00097089288847 0.00096152725896 0.00095230508528 0.00094321942511 
0.0009342604799 0.00092542232883 0.00091670031732 0.00090809181296 0.00089959626699 0.00089121511362 0.00088294970123 0.00087480236511 0.00086677593791 
0.00085887356454 0.00085109763901 0.00085244153881 0.0010163941108 0.0010062184846 0.00099624134062 0.00098644915897 0.00097683136146 0.00096737176776 
0.0009580618283 0.00094889003391 0.00093985015924 0.00093093173641 0.00092212961431 0.00091344292174 0.00090486953612 0.00089641074156 0.00088806725382 
0.00087984349916 0.00087174078018 0.00086376287192 0.00085591380367 0.00085611936091 0.0010230439514 0.0010127529885 0.0010026662115 0.00099277040666 
0.00098305252257 0.00097350074562 0.00096410119693 0.0009548425096 0.00094571778618 0.00093671608102 0.00092783332382 0.00091906615852 0.00091041236189 
0.00090187316184 0.00089344993829 0.00088514722677 0.00087696623862 0.00086891130426 0.00086098704644 0.00086005300485 0.001029950176 0.0010195432395 
0.0010093459727 0.000999345098 0.000989528074 0.0009798810666 0.0009703902009 0.00096104273826 0.00095183057744 0.00094274495989 0.00093377860531 
0.0009249272293 0.00091619108097 0.00090757001526 0.00089906497939 0.00089068024289 0.00088242054856 0.00087428722018 0.00086628558722 0.00086421324336 
0.0010370650283 0.001026541702 0.0010162337184 0.0010061271304 0.00099620968704 0.00098646586765 0.00097688156562 0.00096744325077 0.00095814195383 
0.0009489690356 0.00093991594314 0.00093097923887 0.00092215794207 0.00091345166488 0.00090486355865 0.00089639678198 0.00088805694515 0.00087984433557 
0.00087176570355 0.00086855447249 0.0010443255568 0.00103368649 0.0010232678052 0.0010130556124 0.001003035813 0.00099319356409 0.00098351356753 
0.00097398139732 0.00096458865828 0.00095532521807 0.0009461835687 0.00093715888087 0.00092824977532 0.00091945823106 0.00091078629071 0.00090223716336 
0.00089381593192 0.00088552427534 0.00087736871538 0.00087302044539 0.001051655508 0.0010409028747 0.0010303744956 0.0010200554761 0.0010099330979 
0.00099998961174 0.00099021106615 0.00098058407642 0.00097109633958 0.00096173948594 0.00095250663542 0.00094339183516 0.00093439421917 0.00092551640024 
0.0009167595662 0.00090812757683 0.00089962524254 0.00089125674126 0.00088302539107 0.00087754168966 0.0010589696367 0.00104810584 0.0010374686035 
0.0010270436017 0.0010168171894 0.001006771228 0.00099689262442 0.00098716663126 0.00097758288361 0.00096812985216 0.00095880330109 0.00094959697133 
0.00094050978229 0.00093154424427 0.00092270258321 0.00091398895377 0.0009054072881 0.000896963597 0.00088865897566 0.00088204357319 0.0010661787655 
0.0010552062176 0.0010444621284 0.001033931827 0.0010236006696 0.0010134514575 0.0010034711849 0.00099364441527 0.00098396086581 0.00097441091704 
0.00096498870738 0.00095568928432 0.00094651271008 0.00093745919418 0.00092853355121 0.00091973967872 0.00091108179657 0.00090256512465 0.0008941913996 
0.00088644941591 0.0010731936552 0.0010621169156 0.0010512684543 0.0010406340228 0.0010301987705 0.0010199471303 0.0010098630739 0.00099993418085 
0.00099015025514 0.00098050149359 0.00097098196197 0.00096159048713 0.0009523232535 0.00094318371968 0.00093417694726 0.00092530530682 0.00091657388422 
0.00090798814991 0.00089954947022 0.00089068477638 0.0010378787815 0.0010279551337 0.0010181880211 0.0010085683401 0.00099908679424 0.00098973566573 
0.00098051170823 0.00097140818724 0.00096242272929 0.00095355249443 0.00094479775119 0.00093615871903 0.00092763908213 0.0009192424579 0.00091097300781 
0.00090283459057 0.00089483224033 0.00088696813955 0.00087924656966 0.00087694315308 0.0010425165355 0.0010325004636 0.0010226397285 0.0010129264765 
0.0010033512813 0.00099390707106 0.00098458945093 0.00097539311929 0.00096631500094 0.00095735445225 0.00094851048589 0.00093978591075 0.00093118244625 
0.00092270455854 0.00091435569094 0.00090614215479 0.00089806714352 0.00089013363243 0.00088234392718 0.00088044733703 0.0010470668062 0.0010369573257 
0.0010270024636 0.0010171966401 0.0010075273136 0.0009979904981 0.00098858033178 0.00097929309038 0.00097012449504 0.00096107497497 0.00095214328696 
0.00094333393365 0.0009346473832 0.00092608848211 0.00091766195121 0.00090937190932 0.00090122345934 0.00089321857799 0.00088536061477 0.00088387252848 
0.0010515866 0.001041382661 0.001031333731 0.0010214333901 0.001011671302 0.0010020418753 0.00099253942331 0.00098316192534 0.0009739046705 
0.00096476677083 0.0009557497176 0.0009468544716 0.00093808599179 0.00092944673008 0.00092094236356 0.00091257520078 0.00090435078575 0.00089627401887 
0.00088834482444 0.00088726690906 0.0010508111589 0.0010406672704 0.001030701144 0.0010209026138 0.0010112598627 0.0010017620525 0.00099240070295 
0.00098317025329 0.00097406387801 0.00096507730723 0.00095620748472 0.00094745232334 0.00093881392647 0.0009302915398 0.00092188720679 0.0009136012869 
0.00090543467313 0.00089738838457 0.0008894642714 0.00089711861247 0.0010562987924 0.0010460372753 0.0010359572039 0.0010260480414 0.001016298105 
0.0010066978505 0.00099723709254 0.00098791083388 0.00097871202772 0.00096963710125 0.00096068171261 0.00095184536963 0.00094312673721 0.00093452843111 
0.00092605060388 0.00091769383972 0.00090945883938 0.00090134621296 0.00089335846516 0.00089987509978 0.001061913998 0.001051534678 0.001041341386 
0.0010313225975 0.0010214674469 0.0010117655565 0.001002206685 0.00099278565126 0.00098349649955 0.00097433424546 0.00096529484126 0.00095637702933 
0.00094758065767 0.00093890617321 0.00093035366326 0.00092192489719 0.00091362014808 0.00090544004669 0.00089738619537 0.00090276387339 0.0010677024751 
0.0010572059454 0.0010468989275 0.0010367711363 0.0010268108454 0.0010170072675 0.0010073521381 0.00099783832165 0.00098845894084 0.00097920965421 
0.00097008683446 0.0009610886108 0.00095221349564 0.00094346306458 0.00093483474262 0.00092633169775 0.00091795609267 0.00090970619006 0.00090158430864 
0.00090582330869 0.0010737007412 0.0010630854252 0.0010526648572 0.0010424271168 0.0010323621698 0.0010224582438 0.0010127076597 0.0010031007332 
0.00099363203316 0.00098429687239 0.00097509039484 0.00096600987175 0.0009570553624 0.00094822559255 0.00093952229509 0.00093094468314 0.00092249490516 
0.00091417320386 0.00090598128386 0.00090908041021 0.0010799320809 0.0010691976042 0.0010586628843 0.0010483147525 0.0010381457555 0.001028141589 
0.001018293747 0.0010085946413 0.00099903682485 0.00098961522951 0.00098032418958 0.00097116160794 0.0009621255903 0.00095321647508 0.0009444349416 
0.00093578053913 0.00092725488892 0.00091885920158 0.00091059464379 0.00091255349785 0.001086407616 0.0010755536405 0.0010649035486 0.0010544462815 
0.0010441725446 0.0010340673103 0.0010241227975 0.0010143310278 0.0010046834965 0.00099517317396 0.00098579681303 0.00097655006067 0.00096743184247 
0.00095844152516 0.00094957957328 0.00094084666984 0.00093224369584 0.00092377182571 0.00091543289304 0.00091625053346 0.0010931278462 0.0010821526191 
0.0010713875306 0.0010608198717 0.0010504397968 0.0010402331268 0.001030191602 0.0010203054702 0.0010105674798 0.001000968494 0.00099150526982 
0.00098217271506 0.00097297031507 0.00096389734851 0.0009549530848 0.00094613977138 0.00093745759428 0.0009289077892 0.00092049347629 0.00092016905812 
0.0011000770707 0.0010889810322 0.0010780999156 0.0010674213067 0.001056934052 0.0010466262059 0.001036486641 0.0010265045674 0.0010166740719 
0.0010069850495 0.00099743310368 0.00098801395118 0.00097872594958 0.00096956758279 0.00096053933595 0.00095164391824 0.00094288076499 0.00093425215584 
0.00092576089758 0.00092429373693 0.001107229039 0.0010960116608 0.0010850139473 0.0010742232116 0.0010636298837 0.0010532186701 0.0010429797341 
0.0010329012475 0.0010229766626 0.0010131955829 0.001003552798 0.00099404510887 0.00098466907184 0.00097542491867 0.00096631159466 0.00095733143573 
0.00094848724849 0.00093977846529 0.00093120870011 0.00092860037826 0.0011145435624 0.0011032051976 0.0010920910739 0.0010811886364 0.0010704875799 
0.0010599724445 0.0010496326554 0.0010394561552 0.0010294346481 0.0010195605345 0.0010098264425 0.0010002274053 0.00099076209199 0.00098142958855 
0.00097222969001 0.00096316556362 0.00095423855453 0.0009454490445 0.00093680045356 0.00093305154227 0.0011219700192 0.0011105112688 0.0010992811874 
0.0010882676296 0.0010774574805 0.00106683736 0.0010563952951 0.0010461188676 0.0010359993983 0.0010260301579 0.0010162016464 0.0010065101103 
0.0009969541635 0.00098753306854 0.00097824677102 0.0009690973679 0.00096008765763 0.00095121812449 0.00094249110441 0.0009376023758 0.0011294476364 
0.0011178706267 0.0011065256606 0.0010954002251 0.001084480918 0.0010737544137 0.0010632084756 0.0010528314839 0.0010426133138 0.0010325449859 
0.0010226219204 0.0010128371791 0.0010031892147 0.00099367821524 0.00098430529936 0.00097507116584 0.00096597881164 0.00095702893844 0.00094822514014 
0.00094219876323 0.0011369107689 0.0011252173317 0.0011137585515 0.0011025217971 0.0010914937812 0.0010806604349 0.0010700100731 0.0010595299119 
0.0010492108754 0.0010390436262 0.0010290234989 0.0010191443036 0.0010094043876 0.00099980377646 0.00099034343475 0.00098102481456 0.00097185020291 
0.00096282405813 0.00095394414807 0.00094678215465 0.0011442910668 0.0011324838703 0.0011209131838 0.0011095659919 0.0010984293366 0.0010874886705 
0.0010767334431 0.0010661489013 0.0010557278376 0.0010454609075 0.0010353433803 0.0010253690056 0.00101553714 0.0010058464549 0.00099629983417 
0.00098689826132 0.00097764419712 0.00096854145009 0.00095958950572 0.00095129646822 0.001151522888 0.0011396056993 0.0011279252477 0.0011164693801 
0.0011052247412 0.0010941783593 0.0010833160995 0.0010726277036 0.0010621042651 0.0010517371645 0.0010415214349 0.0010314519901 0.0010215277704 
0.0010117486193 0.0010021176756 0.00099263533741 0.00098330444093 0.0009741285006 0.00096510714871 0.00095568570695 0.001108280924 0.0010976723977 
0.0010872307308 0.0010769476371 0.0010668143646 0.0010568257644 0.0010469786365 0.0010372665798 0.0010276875396 0.0010182387873 0.0010089199965 
0.00099973007495 0.00099067120684 0.00098174630297 0.0009729571227 0.00096430647078 0.00095579791169 0.00094743240145 0.00093921339113 0.00093642828807 
0.001113467978 0.001102757829 0.0010922148076 0.0010818305888 0.0010715974174 0.0010615093675 0.0010515619662 0.0010417522944 0.0010320756297 
0.0010225309721 0.0010131177395 0.0010038366896 0.00099468850461 0.00098567605072 0.00097680151703 0.0009680692964 0.00095948112967 0.00095103956885 
0.00094274518791 0.0009403607241 0.0011186026068 0.0011077902341 0.0010971440623 0.0010866597455 0.001076325382 0.0010661380087 0.001056092286 
0.0010461847642 0.0010364112855 0.0010267708738 0.0010172643589 0.0010078919803 0.00099865414882 0.00098955473621 0.00098059554838 0.00097178026244 
0.00096311159941 0.00095459216662 0.00094622222753 0.00094424069652 0.0011237277196 0.001112811664 0.0011020629349 0.001091476543 0.0010810410771 
0.0010707534553 0.0010606087788 0.0010506035776 0.00104073442 0.0010309992698 0.0010213990786 0.0010119349713 0.0010026084429 0.00099342148106 
0.00098437705035 0.00097547735698 0.00096672622061 0.00095812818468 0.00094968119245 0.00094810303735 0.0011236167167 0.0011127382672 0.0011020502493 
0.0010915436807 0.0010812076952 0.0010710312331 0.0010610071378 0.0010511295789 0.001041391696 0.0010317884958 0.0010223163588 0.0010129727441 
0.0010037569351 0.0009946680955 0.0009857045628 0.00097686718336 0.00096815553361 0.00095956857935 0.00095110729971 0.00095826558908 0.0011297036044 
0.0011186988707 0.0011078886364 0.0010972634299 0.0010868123895 0.0010765247743 0.0010663931543 0.0010564122093 0.0010465738011 0.0010368738252 
0.0010273087573 0.0010178750909 0.00100857291 0.00099939997511 0.00099035624604 0.00098144156812 0.00097265499639 0.00096399616107 0.00095546576168 
0.00096147866681 0.0011358968205 0.0011247661753 0.0011138343047 0.0011030910883 0.0010925259822 0.0010821287966 0.0010718908521 0.0010618063632 
0.0010518692665 0.0010420735891 0.0010324163222 0.0010228940998 0.0010135052876 0.0010042496397 0.00099512430983 0.00098613120743 0.00097726882548 
0.00096853745966 0.00095993678888 0.00096480273007 0.0011422322541 0.0011309756774 0.0011199224463 0.0011090616664 0.0010983829515 0.0010878770145 
0.0010775334158 0.001067347279 0.001057310896 0.0010474207902 0.0010376717497 0.0010280606112 0.0010185855039 0.0010092464293 0.001000039615 
0.00099096622332 0.00098202783607 0.00097322142699 0.00096454816864 0.00096826900159 0.0011487370182 0.0011373546596 0.0011261797421 0.0011152016264 
0.0011044101975 0.0010937939757 0.0010833462798 0.0010730592412 0.0010629257772 0.0010529408597 0.0010430997341 0.0010333993229 0.0010238371332 