# vtk DataFile Version 5.1
vtk output
ASCII
DATASET STRUCTURED_POINTS
DIMENSIONS 20 20 20
SPACING 2e-05 2e-05 2e-05
ORIGIN 3.69981 -0.00019 0.99981
POINT_DATA 8000
FIELD FieldData 1
potential 1 8000 double
0.0061248682957 0.0061249121295 0.0061249559638 0.0061249997985 0.0061250436338 0.0061250874696 0.006125131306 0.0061251751428 0.0061252189802 
0.0061252628181 0.0061253066564 0.0061253504954 0.0061253943348 0.0061254381747 0.0061254820152 0.0061255258562 0.0061255696977 0.0061256135397 
0.0061256573822 0.0061257012253 0.0061248401372 0.0061248839705 0.0061249278044 0.0061249716389 0.0061250154738 0.0061250593092 0.0061251031452 
0.0061251469817 0.0061251908187 0.0061252346562 0.0061252784942 0.0061253223328 0.0061253661718 0.0061254100114 0.0061254538515 0.0061254976921 
0.0061255415333 0.0061255853749 0.0061256292171 0.0061256730598 0.0061248119786 0.0061248558116 0.0061248996452 0.0061249434792 0.0061249873138 
0.0061250311489 0.0061250749845 0.0061251188206 0.0061251626572 0.0061252064944 0.006125250332 0.0061252941702 0.0061253380089 0.0061253818481 
0.0061254256879 0.0061254695281 0.0061255133689 0.0061255572102 0.006125601052 0.0061256448943 0.0061247838201 0.0061248276528 0.006124871486 
0.0061249153196 0.0061249591538 0.0061250029886 0.0061250468238 0.0061250906595 0.0061251344958 0.0061251783326 0.0061252221699 0.0061252660077 
0.0061253098461 0.0061253536849 0.0061253975243 0.0061254413642 0.0061254852046 0.0061255290455 0.0061255728869 0.0061256167289 0.0061247556617 
0.006124799494 0.0061248433268 0.0061248871601 0.0061249309939 0.0061249748283 0.0061250186632 0.0061250624986 0.0061251063345 0.0061251501709 
0.0061251940078 0.0061252378453 0.0061252816832 0.0061253255217 0.0061253693607 0.0061254132003 0.0061254570403 0.0061255008809 0.0061255447219 
0.0061255885635 0.0061247275033 0.0061247713352 0.0061248151677 0.0061248590006 0.0061249028341 0.0061249466681 0.0061249905026 0.0061250343376 
0.0061250781731 0.0061251220092 0.0061251658458 0.0061252096829 0.0061252535205 0.0061252973586 0.0061253411972 0.0061253850364 0.0061254288761 
0.0061254727163 0.006125516557 0.0061255603982 0.0061246993449 0.0061247431765 0.0061247870086 0.0061248308412 0.0061248746743 0.0061249185079 
0.006124962342 0.0061250061767 0.0061250500119 0.0061250938476 0.0061251376838 0.0061251815205 0.0061252253577 0.0061252691955 0.0061253130338 
0.0061253568726 0.0061254007119 0.0061254445517 0.0061254883921 0.0061255322329 0.0061246711866 0.0061247150178 0.0061247588495 0.0061248026818 
0.0061248465145 0.0061248903478 0.0061249341815 0.0061249780158 0.0061250218506 0.006125065686 0.0061251095218 0.0061251533582 0.0061251971951 
0.0061252410324 0.0061252848704 0.0061253287088 0.0061253725477 0.0061254163872 0.0061254602272 0.0061255040677 0.0061246430284 0.0061246868592 
0.0061247306905 0.0061247745224 0.0061248183548 0.0061248621877 0.0061249060211 0.006124949855 0.0061249936895 0.0061250375244 0.0061250813599 
0.0061251251959 0.0061251690324 0.0061252128694 0.006125256707 0.0061253005451 0.0061253443836 0.0061253882227 0.0061254320624 0.0061254759025 
0.0061246148701 0.0061246587006 0.0061247025316 0.0061247463631 0.0061247901951 0.0061248340276 0.0061248778607 0.0061249216942 0.0061249655283 
0.0061250093629 0.006125053198 0.0061250970337 0.0061251408698 0.0061251847065 0.0061252285437 0.0061252723814 0.0061253162196 0.0061253600583 
0.0061254038976 0.0061254477373 0.006124586712 0.0061246305421 0.0061246743727 0.0061247182038 0.0061247620355 0.0061248058676 0.0061248497003 
0.0061248935335 0.0061249373672 0.0061249812015 0.0061250250362 0.0061250688715 0.0061251127073 0.0061251565436 0.0061252003804 0.0061252442177 
0.0061252880556 0.006125331894 0.0061253757328 0.0061254195722 0.0061245585538 0.0061246023836 0.0061246462138 0.0061246900446 0.0061247338759 
0.0061247777077 0.00612482154 0.0061248653728 0.0061249092062 0.0061249530401 0.0061249968744 0.0061250407093 0.0061250845448 0.0061251283807 
0.0061251722172 0.0061252160541 0.0061252598916 0.0061253037296 0.0061253475681 0.0061253914072 0.0061245303958 0.0061245742251 0.006124618055 
0.0061246618854 0.0061247057163 0.0061247495478 0.0061247933797 0.0061248372122 0.0061248810452 0.0061249248787 0.0061249687127 0.0061250125473 
0.0061250563823 0.0061251002179 0.006125144054 0.0061251878906 0.0061252317277 0.0061252755653 0.0061253194035 0.0061253632422 0.0061245022377 
0.0061245460667 0.0061245898962 0.0061246337263 0.0061246775568 0.0061247213879 0.0061247652195 0.0061248090516 0.0061248528842 0.0061248967174 
0.006124940551 0.0061249843852 0.0061250282199 0.0061250720551 0.0061251158908 0.0061251597271 0.0061252035638 0.0061252474011 0.0061252912389 
0.0061253350772 0.0061244740797 0.0061245179084 0.0061245617375 0.0061246055672 0.0061246493974 0.0061246932281 0.0061247370593 0.0061247808911 
0.0061248247233 0.0061248685561 0.0061249123894 0.0061249562232 0.0061250000575 0.0061250438924 0.0061250877277 0.0061251315636 0.0061251754 
0.0061252192369 0.0061252630743 0.0061253069123 0.0061244459218 0.00612448975 0.0061245335788 0.0061245774081 0.006124621238 0.0061246650683 
0.0061247088992 0.0061247527306 0.0061247965625 0.0061248403949 0.0061248842278 0.0061249280612 0.0061249718952 0.0061250157297 0.0061250595647 
0.0061251034002 0.0061251472362 0.0061251910728 0.0061252349098 0.0061252787474 0.0061244177639 0.0061244615918 0.0061245054202 0.0061245492492 
0.0061245930786 0.0061246369086 0.0061246807391 0.0061247245701 0.0061247684016 0.0061248122337 0.0061248560662 0.0061248998993 0.0061249437329 
0.006124987567 0.0061250314017 0.0061250752368 0.0061251190725 0.0061251629087 0.0061252067454 0.0061252505826 0.006124389606 0.0061244334336 
0.0061244772616 0.0061245210902 0.0061245649193 0.0061246087489 0.006124652579 0.0061246964097 0.0061247402409 0.0061247840725 0.0061248279047 
0.0061248717375 0.0061249155707 0.0061249594044 0.0061250032387 0.0061250470735 0.0061250909088 0.0061251347446 0.0061251785809 0.0061252224178 
0.0061243614482 0.0061244052754 0.0061244491031 0.0061244929313 0.00612453676 0.0061245805893 0.006124624419 0.0061246682493 0.0061247120801 
0.0061247559114 0.0061247997433 0.0061248435756 0.0061248874085 0.0061249312419 0.0061249750758 0.0061250189102 0.0061250627451 0.0061251065806 
0.0061251504166 0.0061251942531 0.0061243332904 0.0061243771172 0.0061244209446 0.0061244647724 0.0061245086008 0.0061245524297 0.0061245962591 
0.006124640089 0.0061246839194 0.0061247277504 0.0061247715819 0.0061248154138 0.0061248592464 0.0061249030794 0.0061249469129 0.006124990747 
0.0061250345815 0.0061250784166 0.0061251222522 0.0061251660884 0.0061249773967 0.0061250212311 0.0061250650661 0.0061251089016 0.0061251527376 
0.0061251965741 0.0061252404111 0.0061252842487 0.0061253280868 0.0061253719253 0.0061254157645 0.0061254596041 0.0061255034442 0.0061255472849 
0.006125591126 0.0061256349677 0.0061256788099 0.0061257226527 0.0061257664959 0.0061258103397 0.0061249492376 0.0061249930717 0.0061250369063 
0.0061250807414 0.0061251245771 0.0061251684132 0.0061252122499 0.0061252560871 0.0061252999248 0.006125343763 0.0061253876018 0.006125431441 
0.0061254752808 0.0061255191211 0.0061255629619 0.0061256068032 0.0061256506451 0.0061256944874 0.0061257383303 0.0061257821737 0.0061249210787 
0.0061249649124 0.0061250087466 0.0061250525814 0.0061250964166 0.0061251402524 0.0061251840887 0.0061252279256 0.0061252717629 0.0061253156008 
0.0061253594391 0.006125403278 0.0061254471175 0.0061254909574 0.0061255347978 0.0061255786388 0.0061256224803 0.0061256663223 0.0061257101648 
0.0061257540078 0.0061248929197 0.0061249367531 0.0061249805869 0.0061250244213 0.0061250682562 0.0061251120917 0.0061251559276 0.0061251997641 
0.0061252436011 0.0061252874386 0.0061253312766 0.0061253751151 0.0061254189541 0.0061254627937 0.0061255066338 0.0061255504744 0.0061255943155 
0.0061256381571 0.0061256819993 0.0061257258419 0.0061248647608 0.0061249085938 0.0061249524273 0.0061249962614 0.0061250400959 0.006125083931 
0.0061251277665 0.0061251716026 0.0061252154392 0.0061252592764 0.006125303114 0.0061253469522 0.0061253907909 0.0061254346301 0.0061254784698 
0.00612552231 0.0061255661508 0.006125609992 0.0061256538338 0.0061256976761 0.006124836602 0.0061248804346 0.0061249242677 0.0061249681014 
0.0061250119356 0.0061250557703 0.0061250996055 0.0061251434412 0.0061251872775 0.0061252311142 0.0061252749515 0.0061253187893 0.0061253626276 
0.0061254064665 0.0061254503058 0.0061254941457 0.0061255379861 0.006125581827 0.0061256256684 0.0061256695103 0.0061248084432 0.0061248522754 
0.0061248961082 0.0061249399415 0.0061249837753 0.0061250276097 0.0061250714445 0.0061251152799 0.0061251591158 0.0061252029522 0.0061252467891 
0.0061252906265 0.0061253344645 0.0061253783029 0.0061254221419 0.0061254659814 0.0061255098215 0.006125553662 0.006125597503 0.0061256413446 
0.0061247802844 0.0061248241163 0.0061248679487 0.0061249117817 0.0061249556151 0.0061249994491 0.0061250432836 0.0061250871186 0.0061251309541 
0.0061251747901 0.0061252186267 0.0061252624638 0.0061253063013 0.0061253501394 0.0061253939781 0.0061254378172 0.0061254816569 0.006125525497 
0.0061255693377 0.0061256131789 0.0061247521257 0.0061247959572 0.0061248397893 0.0061248836219 0.0061249274549 0.0061249712885 0.0061250151227 
0.0061250589573 0.0061251027925 0.0061251466281 0.0061251904643 0.006125234301 0.0061252781383 0.006125321976 0.0061253658142 0.006125409653 
0.0061254534923 0.0061254973321 0.0061255411725 0.0061255850133 0.006124723967 0.0061247677982 0.0061248116299 0.0061248554621 0.0061248992948 
0.0061249431281 0.0061249869618 0.0061250307961 0.0061250746309 0.0061251184662 0.006125162302 0.0061252061384 0.0061252499752 0.0061252938126 
0.0061253376505 0.0061253814889 0.0061254253278 0.0061254691673 0.0061255130072 0.0061255568477 0.0061246958084 0.0061247396392 0.0061247834705 
0.0061248273024 0.0061248711347 0.0061249149676 0.006124958801 0.0061250026349 0.0061250464693 0.0061250903043 0.0061251341397 0.0061251779757 
0.0061252218122 0.0061252656492 0.0061253094868 0.0061253533248 0.0061253971634 0.0061254410024 0.006125484842 0.0061255286821 0.0061246676498 
0.0061247114803 0.0061247553112 0.0061247991427 0.0061248429747 0.0061248868072 0.0061249306402 0.0061249744738 0.0061250183078 0.0061250621424 
0.0061251059775 0.0061251498131 0.0061251936493 0.0061252374859 0.0061252813231 0.0061253251608 0.0061253689989 0.0061254128377 0.0061254566769 
0.0061255005166 0.0061246394913 0.0061246833214 0.006124727152 0.0061247709831 0.0061248148147 0.0061248586469 0.0061249024795 0.0061249463127 
0.0061249901464 0.0061250339806 0.0061250778153 0.0061251216506 0.0061251654864 0.0061252093226 0.0061252531594 0.0061252969968 0.0061253408346 
0.0061253846729 0.0061254285118 0.0061254723512 0.0061246113328 0.0061246551625 0.0061246989928 0.0061247428235 0.0061247866548 0.0061248304865 
0.0061248743188 0.0061249181517 0.006124961985 0.0061250058188 0.0061250496532 0.0061250934881 0.0061251373235 0.0061251811594 0.0061252249958 
0.0061252688328 0.0061253126703 0.0061253565082 0.0061254003468 0.0061254441858 0.0061245831744 0.0061246270037 0.0061246708336 0.006124714664 
0.0061247584949 0.0061248023263 0.0061248461582 0.0061248899907 0.0061249338236 0.0061249776571 0.0061250214911 0.0061250653256 0.0061251091607 
0.0061251529962 0.0061251968323 0.0061252406689 0.006125284506 0.0061253283436 0.0061253721817 0.0061254160204 0.006124555016 0.006124598845 
0.0061246426745 0.0061246865045 0.006124730335 0.0061247741661 0.0061248179976 0.0061248618297 0.0061249056623 0.0061249494954 0.0061249933291 
0.0061250371632 0.0061250809979 0.0061251248331 0.0061251686688 0.006125212505 0.0061252563418 0.006125300179 0.0061253440168 0.0061253878551 
0.0061245268576 0.0061245706862 0.0061246145154 0.006124658345 0.0061247021752 0.0061247460059 0.0061247898371 0.0061248336688 0.006124877501 
0.0061249213338 0.0061249651671 0.0061250090009 0.0061250528352 0.00612509667 0.0061251405053 0.0061251843412 0.0061252281776 0.0061252720145 
0.0061253158519 0.0061253596898 0.0061244986993 0.0061245425276 0.0061245863563 0.0061246301856 0.0061246740154 0.0061247178458 0.0061247616766 
0.006124805508 0.0061248493398 0.0061248931722 0.0061249370051 0.0061249808386 0.0061250246725 0.006125068507 0.0061251123419 0.0061251561774 
0.0061252000134 0.00612524385 0.006125287687 0.0061253315246 0.006124470541 0.0061245143689 0.0061245581973 0.0061246020263 0.0061246458557 
0.0061246896857 0.0061247335161 0.0061247773471 0.0061248211786 0.0061248650107 0.0061249088432 0.0061249526763 0.0061249965099 0.006125040344 
0.0061250841786 0.0061251280137 0.0061251718493 0.0061252156855 0.0061252595222 0.0061253033594 0.0061244423828 0.0061244862104 0.0061245300384 
0.006124573867 0.006124617696 0.0061246615256 0.0061247053557 0.0061247491864 0.0061247930175 0.0061248368492 0.0061248806814 0.0061249245141 
0.0061249683473 0.006125012181 0.0061250560152 0.00612509985 0.0061251436853 0.0061251875211 0.0061252313574 0.0061252751942 0.006125086497 
0.0061251303322 0.0061251741679 0.006125218004 0.0061252618408 0.006125305678 0.0061253495157 0.006125393354 0.0061254371928 0.0061254810321 
0.0061255248719 0.0061255687122 0.0061256125531 0.0061256563944 0.0061257002363 0.0061257440787 0.0061257879216 0.0061258317651 0.006125875609 
0.0061259194535 0.0061250583375 0.0061251021723 0.0061251460076 0.0061251898435 0.0061252336798 0.0061252775167 0.0061253213541 0.006125365192 
0.0061254090304 0.0061254528693 0.0061254967088 0.0061255405487 0.0061255843892 0.0061256282302 0.0061256720717 0.0061257159138 0.0061257597563 
0.0061258035994 0.006125847443 0.0061258912871 0.0061250301781 0.0061250740125 0.0061251178475 0.006125161683 0.0061252055189 0.0061252493554 
0.0061252931925 0.00612533703 0.006125380868 0.0061254247066 0.0061254685457 0.0061255123853 0.0061255562254 0.0061256000661 0.0061256439072 
0.0061256877489 0.0061257315911 0.0061257754338 0.006125819277 0.0061258631207 0.0061250020187 0.0061250458528 0.0061250896874 0.0061251335225 
0.0061251773581 0.0061252211942 0.0061252650309 0.006125308868 0.0061253527057 0.0061253965439 0.0061254403827 0.0061254842219 0.0061255280617 
0.0061255719019 0.0061256157427 0.006125659584 0.0061257034258 0.0061257472682 0.006125791111 0.0061258349544 0.0061249738594 0.0061250176931 
0.0061250615273 0.006125105362 0.0061251491973 0.0061251930331 0.0061252368694 0.0061252807062 0.0061253245435 0.0061253683813 0.0061254122197 
0.0061254560585 0.0061254998979 0.0061255437378 0.0061255875783 0.0061256314192 0.0061256752607 0.0061257191026 0.0061257629451 0.0061258067882 
0.0061249457001 0.0061249895334 0.0061250333673 0.0061250772017 0.0061251210365 0.0061251648719 0.0061252087079 0.0061252525443 0.0061252963813 
0.0061253402187 0.0061253840567 0.0061254278952 0.0061254717343 0.0061255155738 0.0061255594139 0.0061256032544 0.0061256470955 0.0061256909372 
0.0061257347793 0.0061257786219 0.0061249175408 0.0061249613738 0.0061250052073 0.0061250490413 0.0061250928758 0.0061251367109 0.0061251805464 
0.0061252243825 0.0061252682191 0.0061253120562 0.0061253558938 0.006125399732 0.0061254435706 0.0061254874098 0.0061255312495 0.0061255750897 
0.0061256189305 0.0061256627717 0.0061257066135 0.0061257504558 0.0061248893816 0.0061249332142 0.0061249770474 0.006125020881 0.0061250647152 
0.0061251085498 0.006125152385 0.0061251962207 0.006125240057 0.0061252838937 0.006125327731 0.0061253715688 0.0061254154071 0.0061254592459 
0.0061255030852 0.0061255469251 0.0061255907654 0.0061256346063 0.0061256784477 0.0061257222896 0.0061248612225 0.0061249050547 0.0061249488875 
0.0061249927208 0.0061250365545 0.0061250803889 0.0061251242237 0.006125168059 0.0061252118949 0.0061252557313 0.0061252995682 0.0061253434056 
0.0061253872435 0.006125431082 0.0061254749209 0.0061255187604 0.0061255626004 0.0061256064409 0.006125650282 0.0061256941235 0.0061248330634 
0.0061248768952 0.0061249207276 0.0061249645605 0.006125008394 0.0061250522279 0.0061250960624 0.0061251398974 0.0061251837329 0.0061252275689 
0.0061252714054 0.0061253152425 0.00612535908 0.0061254029181 0.0061254467567 0.0061254905958 0.0061255344355 0.0061255782756 0.0061256221163 
0.0061256659575 0.0061248049043 0.0061248487358 0.0061248925678 0.0061249364004 0.0061249802334 0.006125024067 0.0061250679011 0.0061251117357 
0.0061251555709 0.0061251994065 0.0061252432427 0.0061252870794 0.0061253309166 0.0061253747543 0.0061254185925 0.0061254624313 0.0061255062706 
0.0061255501104 0.0061255939507 0.0061256377915 0.0061247767453 0.0061248205764 0.0061248644081 0.0061249082403 0.006124952073 0.0061249959062 
0.0061250397399 0.0061250835742 0.0061251274089 0.0061251712442 0.00612521508 0.0061252589164 0.0061253027532 0.0061253465905 0.0061253904284 
0.0061254342668 0.0061254781057 0.0061255219451 0.0061255657851 0.0061256096255 0.0061247485863 0.0061247924171 0.0061248362484 0.0061248800802 
0.0061249239125 0.0061249677454 0.0061250115787 0.0061250554126 0.006125099247 0.006125143082 0.0061251869174 0.0061252307534 0.0061252745898 
0.0061253184268 0.0061253622643 0.0061254061024 0.0061254499409 0.00612549378 0.0061255376195 0.0061255814596 0.0061247204273 0.0061247642578 
0.0061248080887 0.0061248519202 0.0061248957521 0.0061249395846 0.0061249834176 0.0061250272512 0.0061250710852 0.0061251149197 0.0061251587548 
0.0061252025904 0.0061252464265 0.0061252902632 0.0061253341003 0.006125377938 0.0061254217761 0.0061254656148 0.006125509454 0.0061255532938 
0.0061246922684 0.0061247360985 0.0061247799291 0.0061248237602 0.0061248675918 0.0061249114239 0.0061249552565 0.0061249990897 0.0061250429234 
0.0061250867576 0.0061251305923 0.0061251744275 0.0061252182633 0.0061252620995 0.0061253059363 0.0061253497736 0.0061253936114 0.0061254374497 
0.0061254812886 0.006125525128 0.0061246641096 0.0061247079393 0.0061247517695 0.0061247956002 0.0061248394315 0.0061248832632 0.0061249270955 
0.0061249709283 0.0061250147616 0.0061250585955 0.0061251024298 0.0061251462647 0.0061251901 0.0061252339359 0.0061252777724 0.0061253216093 
0.0061253654467 0.0061254092847 0.0061254531232 0.0061254969622 0.0061246359508 0.0061246797801 0.00612472361 0.0061247674403 0.0061248112712 
0.0061248551026 0.0061248989345 0.006124942767 0.0061249865999 0.0061250304334 0.0061250742674 0.0061251181019 0.0061251619369 0.0061252057724 
0.0061252496085 0.006125293445 0.0061253372821 0.0061253811197 0.0061254249578 0.0061254687965 0.006124607792 0.006124651621 0.0061246954505 
0.0061247392805 0.006124783111 0.006124826942 0.0061248707736 0.0061249146057 0.0061249584382 0.0061250022713 0.006125046105 0.0061250899391 
0.0061251337737 0.0061251776089 0.0061252214446 0.0061252652808 0.0061253091175 0.0061253529548 0.0061253967925 0.0061254406308 0.0061245796333 
0.0061246234619 0.0061246672911 0.0061247111207 0.0061247549508 0.0061247987815 0.0061248426127 0.0061248864444 0.0061249302766 0.0061249741093 
0.0061250179426 0.0061250617764 0.0061251056107 0.0061251494455 0.0061251932808 0.0061252371166 0.006125280953 0.0061253247898 0.0061253686272 
0.0061254124651 0.0061245514747 0.0061245953029 0.0061246391317 0.0061246829609 0.0061247267907 0.006124770621 0.0061248144518 0.0061248582832 
0.006124902115 0.0061249459474 0.0061249897803 0.0061250336137 0.0061250774476 0.0061251212821 0.006125165117 0.0061252089525 0.0061252527885 
0.006125296625 0.006125340462 0.0061253842995 0.0061251955968 0.0061252394327 0.0061252832691 0.006125327106 0.0061253709434 0.0061254147813 
0.0061254586198 0.0061255024588 0.0061255462982 0.0061255901382 0.0061256339788 0.0061256778198 0.0061257216614 0.0061257655034 0.006125809346 
0.0061258531891 0.0061258970328 0.0061259408769 0.0061259847216 0.0061260285668 0.0061251674369 0.0061252112724 0.0061252551084 0.0061252989449 
0.006125342782 0.0061253866196 0.0061254304577 0.0061254742963 0.0061255181354 0.006125561975 0.0061256058152 0.0061256496559 0.0061256934971 
0.0061257373388 0.006125781181 0.0061258250238 0.006125868867 0.0061259127108 0.0061259565551 0.0061260003999 0.006125139277 0.0061251831121 
0.0061252269478 0.006125270784 0.0061253146207 0.0061253584579 0.0061254022956 0.0061254461338 0.0061254899726 0.0061255338119 0.0061255776517 
0.006125621492 0.0061256653328 0.0061257091742 0.006125753016 0.0061257968584 0.0061258407013 0.0061258845447 0.0061259283886 0.0061259722331 
0.0061251111172 0.0061251549519 0.0061251987872 0.006125242623 0.0061252864594 0.0061253302962 0.0061253741336 0.0061254179715 0.0061254618099 
0.0061255056488 0.0061255494882 0.0061255933281 0.0061256371686 0.0061256810096 0.0061257248511 0.0061257686931 0.0061258125356 0.0061258563787 
0.0061259002222 0.0061259440663 0.0061250829574 0.0061251267918 0.0061251706267 0.0061252144622 0.0061252582981 0.0061253021346 0.0061253459716 
0.0061253898091 0.0061254336471 0.0061254774857 0.0061255213248 0.0061255651643 0.0061256090044 0.0061256528451 0.0061256966862 0.0061257405278 
0.00612578437 0.0061258282127 0.0061258720559 0.0061259158996 0.0061250547976 0.0061250986317 0.0061251424662 0.0061251863013 0.0061252301369 
0.006125273973 0.0061253178097 0.0061253616468 0.0061254054845 0.0061254493227 0.0061254931614 0.0061255370006 0.0061255808403 0.0061256246806 
0.0061256685213 0.0061257123626 0.0061257562044 0.0061258000468 0.0061258438896 0.0061258877329 0.0061250266379 0.0061250704716 0.0061251143058 
0.0061251581405 0.0061252019758 0.0061252458115 0.0061252896478 0.0061253334846 0.0061253773219 0.0061254211597 0.006125464998 0.0061255088369 
0.0061255526763 0.0061255965161 0.0061256403565 0.0061256841975 0.0061257280389 0.0061257718809 0.0061258157233 0.0061258595663 0.0061249984783 
0.0061250423116 0.0061250861454 0.0061251299798 0.0061251738147 0.00612521765 0.0061252614859 0.0061253053224 0.0061253491593 0.0061253929968 
0.0061254368347 0.0061254806732 0.0061255245122 0.0061255683517 0.0061256121918 0.0061256560323 0.0061256998734 0.006125743715 0.0061257875571 
0.0061258313997 0.0061249703187 0.0061250141516 0.0061250579851 0.0061251018191 0.0061251456536 0.0061251894886 0.0061252333242 0.0061252771602 
0.0061253209968 0.0061253648339 0.0061254086715 0.0061254525096 0.0061254963482 0.0061255401874 0.0061255840271 0.0061256278673 0.006125671708 
0.0061257155492 0.0061257593909 0.0061258032332 0.0061249421591 0.0061249859917 0.0061250298248 0.0061250736584 0.0061251174926 0.0061251613272 
0.0061252051624 0.0061252489981 0.0061252928343 0.006125336671 0.0061253805083 0.006125424346 0.0061254681843 0.0061255120231 0.0061255558624 
0.0061255997022 0.0061256435426 0.0061256873834 0.0061257312248 0.0061257750667 0.0061249139996 0.0061249578318 0.0061250016646 0.0061250454978 
0.0061250893316 0.0061251331659 0.0061251770007 0.006125220836 0.0061252646719 0.0061253085082 0.0061253523451 0.0061253961825 0.0061254400204 
0.0061254838588 0.0061255276978 0.0061255715372 0.0061256153772 0.0061256592177 0.0061257030587 0.0061257469003 0.0061248858401 0.006124929672 
0.0061249735044 0.0061250173373 0.0061250611707 0.0061251050046 0.006125148839 0.006125192674 0.0061252365095 0.0061252803455 0.006125324182 
0.006125368019 0.0061254118566 0.0061254556946 0.0061254995332 0.0061255433723 0.0061255872119 0.0061256310521 0.0061256748927 0.0061257187339 
0.0061248576807 0.0061249015122 0.0061249453442 0.0061249891767 0.0061250330098 0.0061250768433 0.0061251206774 0.006125164512 0.0061252083471 
0.0061252521828 0.0061252960189 0.0061253398556 0.0061253836928 0.0061254275305 0.0061254713687 0.0061255152074 0.0061255590467 0.0061256028864 
0.0061256467267 0.0061256905675 0.0061248295213 0.0061248733524 0.0061249171841 0.0061249610163 0.0061250048489 0.0061250486821 0.0061250925158 
0.0061251363501 0.0061251801848 0.0061252240201 0.0061252678559 0.0061253116922 0.006125355529 0.0061253993663 0.0061254432042 0.0061254870426 
0.0061255308814 0.0061255747208 0.0061256185608 0.0061256624012 0.006124801362 0.0061248451927 0.006124889024 0.0061249328558 0.0061249766881 
0.006125020521 0.0061250643543 0.0061251081882 0.0061251520226 0.0061251958575 0.0061252396929 0.0061252835288 0.0061253273653 0.0061253712023 
0.0061254150397 0.0061254588778 0.0061255027163 0.0061255465553 0.0061255903949 0.0061256342349 0.0061247732027 0.0061248170331 0.006124860864 
0.0061249046954 0.0061249485274 0.0061249923599 0.0061250361928 0.0061250800263 0.0061251238604 0.0061251676949 0.00612521153 0.0061252553655 
0.0061252992016 0.0061253430382 0.0061253868754 0.006125430713 0.0061254745511 0.0061255183898 0.006125562229 0.0061256060687 0.0061247450434 
0.0061247888735 0.006124832704 0.0061248765351 0.0061249203667 0.0061249641988 0.0061250080314 0.0061250518645 0.0061250956982 0.0061251395324 
0.0061251833671 0.0061252272023 0.006125271038 0.0061253148742 0.006125358711 0.0061254025483 0.0061254463861 0.0061254902244 0.0061255340632 
0.0061255779025 0.0061247168842 0.0061247607139 0.0061248045441 0.0061248483748 0.006124892206 0.0061249360378 0.00612497987 0.0061250237028 
0.0061250675361 0.0061251113699 0.0061251552042 0.0061251990391 0.0061252428744 0.0061252867103 0.0061253305467 0.0061253743836 0.006125418221 
0.006125462059 0.0061255058974 0.0061255497364 0.0061246887251 0.0061247325544 0.0061247763842 0.0061248202145 0.0061248640454 0.0061249078768 
0.0061249517087 0.0061249955411 0.006125039374 0.0061250832075 0.0061251270414 0.0061251708759 0.0061252147109 0.0061252585464 0.0061253023824 
0.006125346219 0.006125390056 0.0061254338936 0.0061254777317 0.0061255215703 0.006124660566 0.0061247043949 0.0061247482244 0.0061247920543 
0.0061248358848 0.0061248797158 0.0061249235474 0.0061249673794 0.006125011212 0.0061250550451 0.0061250988787 0.0061251427128 0.0061251865474 
0.0061252303825 0.0061252742182 0.0061253180544 0.0061253618911 0.0061254057283 0.006125449566 0.0061254934043 0.006125304696 0.0061253485326 
0.0061253923697 0.0061254362073 0.0061254800454 0.0061255238841 0.0061255677233 0.0061256115629 0.0061256554031 0.0061256992439 0.0061257430851 
0.0061257869268 0.0061258307691 0.0061258746119 0.0061259184552 0.006125962299 0.0061260061433 0.0061260499882 0.0061260938336 0.0061261376794 
0.0061252765357 0.0061253203719 0.0061253642086 0.0061254080459 0.0061254518836 0.0061254957219 0.0061255395607 0.0061255834 0.0061256272398 
0.0061256710802 0.0061257149211 0.0061257587625 0.0061258026044 0.0061258464468 0.0061258902897 0.0061259341332 0.0061259779771 0.0061260218216 
0.0061260656666 0.0061261095121 0.0061252483753 0.0061252922112 0.0061253360475 0.0061253798844 0.0061254237218 0.0061254675598 0.0061255113982 
0.0061255552371 0.0061255990766 0.0061256429166 0.0061256867571 0.0061257305981 0.0061257744397 0.0061258182817 0.0061258621243 0.0061259059674 
0.006125949811 0.0061259936551 0.0061260374997 0.0061260813449 0.0061252202151 0.0061252640505 0.0061253078865 0.0061253517231 0.0061253955601 
0.0061254393976 0.0061254832357 0.0061255270743 0.0061255709134 0.006125614753 0.0061256585932 0.0061257024338 0.006125746275 0.0061257901167 
0.0061258339589 0.0061258778016 0.0061259216449 0.0061259654886 0.0061260093329 0.0061260531777 0.0061251920548 0.0061252358899 0.0061252797256 
0.0061253235617 0.0061253673984 0.0061254112356 0.0061254550733 0.0061254989115 0.0061255427503 0.0061255865895 0.0061256304293 0.0061256742696 
0.0061257181104 0.0061257619517 0.0061258057936 0.0061258496359 0.0061258934788 0.0061259373222 0.0061259811661 0.0061260250105 0.0061251638946 
0.0061252077294 0.0061252515647 0.0061252954004 0.0061253392367 0.0061253830736 0.0061254269109 0.0061254707488 0.0061255145871 0.006125558426 
0.0061256022654 0.0061256461054 0.0061256899458 0.0061257337868 0.0061257776283 0.0061258214703 0.0061258653128 0.0061259091558 0.0061259529993 
0.0061259968434 0.0061251357345 0.0061251795689 0.0061252234038 0.0061252672392 0.0061253110751 0.0061253549116 0.0061253987486 0.0061254425861 
0.0061254864241 0.0061255302626 0.0061255741017 0.0061256179412 0.0061256617813 0.0061257056219 0.006125749463 0.0061257933046 0.0061258371468 
0.0061258809895 0.0061259248326 0.0061259686763 0.0061251075744 0.0061251514084 0.0061251952429 0.006125239078 0.0061252829136 0.0061253267497 
0.0061253705863 0.0061254144234 0.0061254582611 0.0061255020992 0.0061255459379 0.0061255897771 0.0061256336168 0.0061256774571 0.0061257212978 
0.0061257651391 0.0061258089809 0.0061258528232 0.006125896666 0.0061259405093 0.0061250794143 0.006125123248 0.0061251670822 0.0061252109169 
0.0061252547521 0.0061252985878 0.006125342424 0.0061253862608 0.0061254300981 0.0061254739359 0.0061255177742 0.006125561613 0.0061256054524 
0.0061256492923 0.0061256931326 0.0061257369735 0.006125780815 0.0061258246569 0.0061258684994 0.0061259123423 0.0061250512543 0.0061250950876 
0.0061251389214 0.0061251827558 0.0061252265906 0.006125270426 0.0061253142619 0.0061253580983 0.0061254019352 0.0061254457726 0.0061254896106 
0.006125533449 0.006125577288 0.0061256211275 0.0061256649675 0.0061257088081 0.0061257526491 0.0061257964907 0.0061258403328 0.0061258841754 
0.0061250230943 0.0061250669273 0.0061251107607 0.0061251545947 0.0061251984292 0.0061252422642 0.0061252860997 0.0061253299357 0.0061253737723 
0.0061254176094 0.0061254614469 0.006125505285 0.0061255491237 0.0061255929628 0.0061256368025 0.0061256806426 0.0061257244833 0.0061257683245 
0.0061258121662 0.0061258560085 0.0061249949344 0.006125038767 0.0061250826001 0.0061251264337 0.0061251702678 0.0061252141024 0.0061252579376 
0.0061253017733 0.0061253456094 0.0061253894462 0.0061254332834 0.0061254771211 0.0061255209594 0.0061255647981 0.0061256086374 0.0061256524772 
0.0061256963176 0.0061257401584 0.0061257839998 0.0061258278416 0.0061249667745 0.0061250106067 0.0061250544395 0.0061250982727 0.0061251421065 
0.0061251859407 0.0061252297755 0.0061252736108 0.0061253174467 0.006125361283 0.0061254051199 0.0061254489572 0.0061254927951 0.0061255366335 