# vtk DataFile Version 5.1
vtk output
ASCII
DATASET STRUCTURED_POINTS
DIMENSIONS 60 20 20
SPACING 0.05 0.05 0.05
ORIGIN -0.475 -0.475 0.525
POINT_DATA 24000
FIELD FieldData 1
potential 1 24000 double
0.0012464432315 0.0012590307458 0.0012718229217 0.0012848319515 0.0013058168648 0.0013229546139 0.0013401638007 0.0013574498426 0.0013748186492 
0.0013922764054 0.0014098281123 0.0014274793507 0.0014452359926 0.0014631037938 0.0014810880298 0.0014991945288 0.0015174270976 0.0015357888652 
0.0015542842354 0.001572916691 0.0015916919578 0.0016106159133 0.0016296942474 0.0016489299913 0.0016683283045 0.0016878916593 0.0017076238943 
0.0017275314673 0.0017476279875 0.0017679297248 0.0017884627156 0.0018092570237 0.0018303467186 0.0018517700291 0.0017159236247 0.0017380809227 
0.0017606711863 0.0017837348556 0.0018073125632 0.0018314436551 0.0018561683698 0.0018815230665 0.0019075461705 0.0019342714938 0.0019617309796 
0.0019899586299 0.0020189866484 0.0020488491573 0.0020795796791 0.0021112116124 0.0021437723397 0.0021772924751 0.0022117987496 0.0022473193726 
0.0022838872037 0.0023215465531 0.0023603416775 0.0024003330725 0.0024415881657 0.0024841784279 0.0012395975654 0.0012520814878 0.0012647708976 
0.0012776776641 0.0013030727207 0.0013203129412 0.0013376162809 0.0013549881889 0.0013724329996 0.0013899568963 0.0014075639652 0.0014252592287 
0.0014430476607 0.0014609352678 0.0014789264595 0.001497024547 0.0015152337232 0.0015335574014 0.0015519975578 0.0015705591083 0.0015892460375 
0.001608065318 0.0016270216569 0.0016461201666 0.0016653637304 0.0016847558875 0.0017042998472 0.0017240031057 0.0017438780472 0.0017639417609 
0.0017842182779 0.0018047381635 0.0018255344898 0.001846643333 0.0016966191246 0.0017184266881 0.0017406474242 0.001763320782 0.0017864879184 
0.0018101892342 0.0018344640205 0.0018593493728 0.0018848820854 0.0019110966053 0.0019380269926 0.0019657049639 0.0019941663849 0.0020234438779 
0.0020535728398 0.0020845870831 0.0021165187064 0.0021493957068 0.0021832475325 0.0022181039842 0.0022539991394 0.0022909758949 0.0023290857715 
0.0023683828079 0.002408938162 0.0024508209225 0.0012323407355 0.001244713623 0.0012572931785 0.0012700908041 0.0012999423902 0.0013172955547 
0.001334704048 0.0013521713409 0.0013697016584 0.001387299674 0.0014049694889 0.0014227152942 0.0014405413983 0.0014584524874 0.0014764522648 
0.0014945440846 0.0015127303525 0.0015310145331 0.0015493988928 0.0015678871758 0.0015864853674 0.0016051972117 0.0016240289422 0.0016429847985 
0.001662068468 0.00168128417 0.001700635382 0.0017201294134 0.0017397784006 0.00175959974 0.0017796163742 0.0017998575532 0.0018203560886 
0.0018411457439 0.0016769248169 0.0016983729092 0.0017202118077 0.0017424823035 0.0017652253139 0.0017884801139 0.0018122869808 0.0018366835119 
0.0018617047927 0.0018873866396 0.0019137634877 0.0019408680067 0.0019687364577 0.001997403759 0.0020269051282 0.0020572747014 0.0020885452029 
0.00212074855 0.0021539150934 0.0021880761835 0.0022232673985 0.0022595320866 0.0022969214272 0.0023354945876 0.0023753198076 0.0024164654471 
0.0012248495024 0.0012371057812 0.0012495698886 0.001262253553 0.0012966113601 0.0013140901175 0.0013316153317 0.0013491898014 0.0013668173043 
0.0013844995516 0.0014022411684 0.0014200457226 0.0014379161322 0.0014558562375 0.0014738696568 0.0014919595133 0.001510127368 0.0015283749706 
0.0015467058052 0.0015651237368 0.001583633246 0.0016022384093 0.0016209456243 0.0016397592704 0.0016586828925 0.0016777202647 0.0016968773447 
0.0017161613214 0.001735582923 0.0017551600941 0.0017749165599 0.0017948790625 0.0018150768592 0.0018355453725 0.0016571103754 0.0016781914999 
0.0016996391864 0.0017214965067 0.0017438031697 0.001766598527 0.0017899223666 0.0018138130975 0.0018383072565 0.0018634390385 0.0018892427575 
0.0019157550919 0.0019430103141 0.0019710454714 0.0019998952284 0.0020295972514 0.0020601845252 0.0020916889889 0.0021241433988 0.0021575832041 
0.0021920450341 0.0022275713289 0.0022642154447 0.0023020379994 0.0023411032763 0.0023814826811 0.0012260778561 0.0012386323056 0.0012513698401 
0.0012642982651 0.0013069780244 0.0013172532274 0.0013278222146 0.0013387045786 0.001349917135 0.0013614760323 0.0013733988175 0.0013856989542 
0.0013983911739 0.0014114877868 0.0014250013366 0.00143894085 0.0014533158732 0.0014681329294 0.0014834004452 0.0014991246262 0.0015153133838 
0.0015319721632 0.0015491050188 0.0015667173127 0.0015848115235 0.001603387373 0.0016224482784 0.0016419967213 0.0016620379039 0.0016825812793 
0.0017036414882 0.0017252352548 0.0017473790646 0.0017700949402 0.0016875274205 0.0017109954663 0.0017350158458 0.0017595901073 0.0017847156365 
0.0018103912291 0.0018366135396 0.0018633781536 0.0018906767932 0.0019185023976 0.0019468431741 0.0019756894179 0.0020050314063 0.0020348586218 
0.0020651600168 0.0020959214458 0.0021271314259 0.0021587720914 0.0021908255801 0.0022232798779 0.0022561195395 0.0022893378526 0.0023229333115 
0.0023569107805 0.0023912812945 0.0024260550808 0.0012188037577 0.0012312109539 0.0012438013416 0.0012565826193 0.0012951890227 0.0013055234295 
0.0013161382415 0.0013270526151 0.001338282036 0.001349843029 0.0013617520409 0.0013740232111 0.001386669714 0.0013997040726 0.0014131381346 
0.0014269823173 0.0014412446626 0.0014559337779 0.0014710564107 0.0014866207399 0.0015026329537 0.0015190992273 0.0015360259557 0.0015534166292 
0.0015712743891 0.0015896016225 0.0016084012836 0.0016276774554 0.0016474356749 0.0016676864005 0.0016884428885 0.0017097205059 0.0017315368057 
0.001753909842 0.0016783216351 0.0017014161498 0.0017250497119 0.0017492237458 0.0017739370343 0.001799188146 0.001824973097 0.0018512887096 
0.0018781293542 0.0019054857211 0.0019333496452 0.0019617116232 0.0019905647233 0.0020198965868 0.0020496981833 0.0020799585619 0.0021106655528 
0.0021418042714 0.0021733610552 0.0022053222806 0.002237678854 0.002270422867 0.0023035562047 0.0023370828072 0.0023710124415 0.0024053572937 
0.0012117970279 0.0012240614652 0.0012365095874 0.0012491478419 0.0012836206807 0.0012940124966 0.0013046722808 0.0013156163085 0.0013268617587 
0.0013384251885 0.0013503204477 0.0013625624423 0.0013751643791 0.0013881383473 0.0014014956028 0.0014152466255 0.0014294004298 0.0014439651492 
0.0014589482283 0.0014743578412 0.0014902003295 0.0015064817529 0.0015232089957 0.0015403855095 0.0015580161667 0.0015761028814 0.0015946505428 
0.0016136631965 0.0016331485636 0.0016531161582 0.0016735782252 0.001694549531 0.0017160468666 0.0017380879565 0.0016694840708 0.0016922188186 
0.0017154804565 0.0017392690102 0.0017635849748 0.0017884265941 0.0018137916436 0.0018396753276 0.001866073814 0.0018929792452 0.0019203851275 
0.0019482828446 0.0019766647761 0.002005521374 0.0020348448384 0.0020646251898 0.0020948501936 0.0021255089944 0.0021565890422 0.0021880798737 
0.0022199732001 0.0022522652432 0.0022849566555 0.0023180514224 0.0023515589442 0.002385491799 0.0012051427476 0.0012172701819 0.0012295804486 
0.0012420793451 0.0012723683974 0.0012828159642 0.0012935185652 0.0013044923156 0.001315753486 0.0013273179144 0.0013392007208 0.001351415036 
0.0013639738734 0.0013768898769 0.0013901736182 0.0014038360091 0.0014178859829 0.0014323322601 0.0014471823476 0.0014624441554 0.0014781243478 
0.00149422935 0.0015107660031 0.0015277384348 0.0015451514934 0.0015630084258 0.001581314882 0.001600075253 0.0016192974865 0.0016389920693 
0.0016591693614 0.001679844847 0.0017010333463 0.0017227521208 0.0016611396912 0.001683528592 0.0017064321418 0.0017298515253 0.0017537856402 
0.0017782346675 0.0018031964211 0.0018286661425 0.001854641621 0.0018811163681 0.0019080844217 0.0019355385809 0.0019634716382 0.0019918756843 
0.0020207424698 0.0020500648514 0.0020798321434 0.0021100340291 0.0021406607631 0.0021717049565 0.002203158121 0.0022350189548 0.0022672891343 
0.0022999714555 0.0023330779298 0.0023666176661 0.0011988975328 0.0012108932989 0.0012230706505 0.0012354357975 0.0012614978212 0.0012720001848 
0.001282744029 0.0012937465947 0.0013050228824 0.001316589203 0.0013284597081 0.0013406476355 0.0013531655073 0.0013660270287 0.0013792414694 
0.0013928201855 0.0014067722798 0.0014211063359 0.0014358304553 0.0014509528909 0.00146647967 0.0014824184637 0.001498773493 0.0015155527469 
0.0015327590322 0.0015503979467 0.0015684738983 0.0015869941336 0.0016059646567 0.0016253964977 0.0016453003966 0.0016656893331 0.0016865801397 
0.0017079857738 0.0016533719969 0.0016754293261 0.0016979902077 0.0017210545528 0.001744624139 0.0017686964782 0.0017932725213 0.0018183477918 
0.0018439203671 0.0018699845819 0.0018965353983 0.0019235672328 0.0019510744441 0.0019790489937 0.0020074844957 0.002036372019 0.0020657060845 
0.0020954758608 0.0021256740607 0.0021562943635 0.0021873314283 0.0022187832802 0.0022506526935 0.0022829440344 0.002315666457 0.0023488323659 
0.0011930946974 0.0012049647103 0.0012170146078 0.0012292500172 0.0012510511134 0.0012616061367 0.0012723905498 0.0012834207936 0.0012947128203 
0.0013062809133 0.0013181400924 0.0013303032638 0.0013427836126 0.001355592787 0.0013687420579 0.0013822419112 0.0013961013508 0.0014103305558 
0.0014249373031 0.0014399284508 0.0014553113993 0.0014710926372 0.0014872789886 0.0015038753456 0.0015208873981 0.0015383204913 0.0015561790807 
0.0015744694944 0.0015931999927 0.0016123801866 0.0016320199816 0.0016521339146 0.0016727360145 0.0016938399381 0.0016462311377 0.0016679718309 
0.0016902042052 0.0017129294737 0.0017361493961 0.0017598634316 0.0017840707982 0.0018087696481 0.0018339581584 0.0018596311432 0.0018857870513 
0.0019124198478 0.0019395232972 0.0019670913798 0.0019951182306 0.0020235985035 0.0020525225956 0.0020818859858 0.0021116812515 0.0021419029539 
0.0021725455845 0.0022036113155 0.0022351008244 0.0022670197546 0.002299377328 0.0023321850845 0.001187748593 0.001199498544 0.0012114264901 
0.0012235369604 0.0012410505023 0.001251656303 0.0012624799391 0.0012735375542 0.0012848442187 0.0012964153182 0.0013082640322 0.0013204043313 
0.001332848711 0.0013456096541 0.001358698217 0.001372124198 0.0013858979315 0.0014000285522 0.0014145253968 0.0014293942756 0.0014446425781 
0.0014602776755 0.0014763057298 0.001492731278 0.0015095607214 0.0015267982923 0.0015444512362 0.0015625256116 0.0015810267668 0.0015999663723 
0.0016193533149 0.0016392021344 0.0016595249692 0.0016803374147 0.0016397412788 0.0016611787406 0.001683097043 0.0017054983942 0.0017283841677 
0.0017517557047 0.0017756124211 0.0017999532865 0.0018247766126 0.0018500802108 0.001875861097 0.0019021157906 0.0019288383463 0.0019560227134 
0.0019836668217 0.002011761945 0.0020403026895 0.0020692835046 0.002098698155 0.0021285441533 0.0021588171714 0.0021895169578 0.0022206470105 
0.0022522125004 0.002284223869 0.0023166904011 0.0011828575512 0.0011944935406 0.001206304199 0.0012182945188 0.0012315008954 0.0012421560289 
0.0012530181508 0.0012641020834 0.0012754232489 0.0012869968059 0.0012988368743 0.0013109556783 0.0013233672555 0.0013360831235 0.0013491142061 
0.0013624712185 0.0013761660816 0.0013902058755 0.0014045992218 0.001419353616 0.0014344774755 0.0014499763189 0.0014658563429 0.0014821228626 
0.0014987815676 0.0015158368003 0.0015332951127 0.0015511636366 0.0015694468369 0.001588156084 0.0016073006396 0.0016268943676 0.0016469484367 
0.0016674801927 0.0016339035571 0.0016550510233 0.0016766692899 0.0016987619545 0.0017213283709 0.0017443730146 0.0017678955399 0.0017918950038 
0.0018163719494 0.0018413260319 0.001866752743 0.0018926490703 0.0019190117147 0.0019458366707 0.0019731193073 0.0020008536793 0.0020290345167 
0.0020576566388 0.00208671514 0.0021162065092 0.002146131126 0.0021764851942 0.0022072746482 0.0022385045769 0.0022701857955 0.0023023281029 
0.0011784048029 0.0011899322078 0.0012016308372 0.0012135052909 0.0012223918114 0.0012330954205 0.0012439937238 0.0012551029959 0.0012664386982 
0.001278015273 0.0012898468745 0.0013019465631 0.0013143269121 0.001327000123 0.0013399783047 0.0013532727463 0.0013668919494 0.0013808471357 
0.0013951447606 0.0014097939253 0.0014248011247 0.0014401733337 0.0014559160212 0.0014720338499 0.0014885328062 0.0015054173532 0.0015226924556 
0.0015403654158 0.0015584416596 0.0015769311019 0.0015958432413 0.0016151909031 0.0016349868269 0.0016552463969 0.0016286959329 0.0016495668031 
0.0016708982155 0.0016926945997 0.0017149579928 0.0017376905758 0.0017608939725 0.0017845698668 0.0018087190734 0.0018333395389 0.001858431267 
0.0018839892004 0.0019100132994 0.0019364984336 0.0019634418705 0.0019908374459 0.002018680121 0.0020469658987 0.0020756904689 0.0021048493491 
0.0021344438464 0.0021644714667 0.0021949382613 0.0022258496971 0.0022572156063 0.0022890495719 0.0011743569995 0.0011857803893 0.0011973711548 
0.0012091339945 0.0012136934707 0.0012244436151 0.001235377566 0.001246510888 0.0012578601988 0.0012694399989 0.0012812637083 0.0012933453198 
0.001305697024 0.0013183311671 0.0013312594718 0.0013444938349 0.0013580448318 0.0013719201247 0.0013861288451 0.0014006796885 0.0014155789652 
0.0014308328043 0.001446446707 0.0014624261501 0.0014787747334 0.0014954980374 0.0015126014368 0.0015300892387 0.0015479678604 0.0015662470498 
0.0015849354886 0.0016040454181 0.0016235926326 0.0016435914017 0.0016240729649 0.0016446784735 0.001665736617 0.0016872495731 0.0017092227585 
0.0017316585069 0.0017545582245 0.0017779254288 0.0018017613357 0.0018260670101 0.0018508395952 0.0018760787462 0.0019017829232 0.00192794836 
0.0019545708617 0.001981647395 0.002009172593 0.0020371411898 0.0020655501931 0.0020943977873 0.0021236804341 0.0021533981355 0.0021835579405 
0.0022141650684 0.0022452298466 0.0022767692237 0.0011706574949 0.0011819812765 0.001193467585 0.001205121544 0.0012053548256 0.0012161490619 
0.0012271158925 0.0012382728402 0.0012496352058 0.001261218135 0.0012730343711 0.0012850989919 0.0012974232674 0.0013100198005 0.0013229020277 
0.0013360801375 0.0013495644554 0.001363365627 0.0013774919968 0.0013919509651 0.0014067484218 0.0014218912847 0.0014373847554 0.0014532327906 
0.0014694405913 0.0014860122501 0.0015029518506 0.0015202638546 0.0015379533991 0.0015560295102 0.0015745022087 0.0015933845496 0.0016126914262 
0.0016324372549 0.0016199578919 0.0016403092858 0.0016611046232 0.0016823472966 0.0017040434843 0.0017261941154 0.0017488038391 0.0017718769058 
0.0017954146505 0.0018194176539 0.0018438883227 0.0018688253202 0.0018942262292 0.001920087588 0.0019464078429 0.0019731820231 0.0020004055581 
0.0020280753898 0.0020561868937 0.0020847372128 0.0021137241249 0.0021431472951 0.0021730121848 0.0022033270972 0.0022341051501 0.0022653614822 
0.0011672244312 0.0011784518666 0.0011898369436 0.0012013848862 0.0011972964058 0.001208132012 0.0012191303246 0.0012303084244 0.0012416829891 
0.0012532672439 0.0012650769201 0.0012771236887 0.0012894218155 0.0013019832412 0.0013148195828 0.0013279439905 0.001341366428 0.0013550976515 
0.001369145186 0.0013835163827 0.0013982174902 0.0014132558681 0.0014286344013 0.0014443579041 0.0014604314339 0.0014768575375 0.001493640068 
0.0015107829075 0.0015282905184 0.0015461712362 0.0015644355832 0.0015830978898 0.0016021715525 0.0016216735164 0.0016162367782 0.0016363448731 
0.0016568874065 0.0016778704314 0.0016992987941 0.0017211769209 0.0017435087906 0.0017662986697 0.0017895500542 0.0018132658782 0.0018374485835 
0.001862095573 0.0018872062456 0.0019127781484 0.0019388102841 0.0019652959906 0.0019922324332 0.0020196164194 0.0020474432264 0.0020757091986 
0.0021044122777 0.0021335518836 0.0021631338029 0.0021931674063 0.0022236683755 0.002254649591 0.0011639472575 0.0011750803092 0.0011863663492 
0.0011978108027 0.0011894104375 0.0012002844177 0.0012113111314 0.0012225080991 0.0012338919429 0.0012454779754 0.0012572785785 0.001269307764 
0.0012815788151 0.0012941045773 0.0013068970946 0.0013199688034 0.0013333306848 0.0013469939392 0.001360965002 0.0013752518974 0.0013898602479 
0.0014047965781 0.0014200642229 0.0014356679328 0.0014516102748 0.0014678952502 0.0014845248684 0.0015015022852 0.00151883324 0.0015365245064 
0.0015545869516 0.0015730351973 0.0015918836478 0.0016111482976 0.0016127575657 0.0016326301433 0.0016529295176 0.0016736606688 0.0016948307663 
0.001716444751 0.0017385076417 0.0017610247186 0.0017840005249 0.0018074384145 0.0018313425536 0.0018557105666 0.0018805420599 0.0019058350743 
0.0019315877537 0.0019577956483 0.0019844550413 0.0020115618838 0.0020391119939 0.0020671016039 0.0020955281307 0.0021243926772 0.0021536994477 
0.0021834606878 0.0022136904494 0.0022444067808 0.0011606885998 0.0011717273415 0.0011829145398 0.001194257693 0.001181558822 0.0011924674473 
0.0012035187855 0.0012147315078 0.0012261217369 0.0012377053867 0.0012494952481 0.0012615047403 0.0012737480023 0.0012862374596 0.0012989853711 
0.001312004186 0.0013253062878 0.0013389007131 0.0013527955352 0.0013669985616 0.0013815151361 0.0013963500992 0.0014115080846 0.0014269916764 
0.0014428047249 0.0014589488591 0.0014754274473 0.0014922430173 0.0015093997481 0.0015269045079 0.0015447706827 0.0015630090218 0.0015816368981 
0.001600669826 0.0016093272945 0.0016289695868 0.001649031341 0.0016695175883 0.0016904359217 0.001711792732 0.0017335945483 0.0017558453218 
0.0017785521313 0.0018017204149 0.0018253517672 0.0018494464023 0.0018740050044 0.0018990251602 0.0019245043429 0.0019504388328 0.0019768251478 
0.0020036588019 0.00203093635 0.002058652513 0.0020868070239 0.0021153994749 0.00214443576 0.0021739297607 0.0022038925951 0.0022343462352 
0.0011572895436 0.0011682329529 0.0011793215156 0.0011905620478 0.0011735828356 0.0011845199631 0.0011955914327 0.0012068156301 0.0012182081222 
0.0012297850589 0.0012415606669 0.0012535478933 0.0012657597303 0.0012782099592 0.0012909110084 0.0013038759708 0.0013171158762 0.0013306400964 
0.0013444568889 0.0013585735638 0.0013729952811 0.0013877266963 0.0014027719941 0.0014181338926 0.0014338150535 0.0014498181751 0.001466144386 
0.0014827971456 0.0014997797996 0.0015171002948 0.0015347706349 0.0015528027622 0.0015712121652 0.0015900170519 0.0016057223098 0.0016251381048 
0.0016449653218 0.0016652112267 0.0016858823229 0.0017069849309 0.0017285281713 0.0017505174395 0.0017729609088 0.001795861601 0.0018192232835 
0.0018430475705 0.0018673343787 0.0018920812136 0.0019172869281 0.0019429475324 0.0019690591033 0.0019956188794 0.0020226219541 0.0020500652731 
0.0020779472914 0.0021062665754 0.0021350325742 0.0021642566445 0.0021939540737 0.0022241433332 0.0011535844457 0.001164430521 0.0011754186045 
0.0011865544849 0.0011653151511 0.0011762754462 0.0011873609919 0.001198589712 0.0012099793084 0.0012215443722 0.0012333002323 0.0012452598228 
0.0012574358472 0.001269843122 0.0012824939422 0.0012954001826 0.0013085735908 0.0013220232512 0.0013357574469 0.0013497824715 0.001364104177 
0.00137872746 0.0013936545116 0.0014088890796 0.0014244337212 0.0014402902621 0.0014564602216 0.0014729470035 0.001489754141 0.001506889398 
0.001524363408 0.0015421889651 0.0015603826734 0.0015789605449 0.0016017101927 0.0016209009919 0.0016404938327 0.001660499426 0.0016809237401 
0.0017017742756 0.0017230607552 0.00174478933 0.0017669673656 0.0017896009219 0.0018126921344 0.0018362429897 0.0018602536607 0.0018847235399 
0.0019096515879 0.0019350319969 0.0019608638023 0.0019871427661 0.0020138660441 0.0020410279243 0.0020686306561 0.0020966733135 0.002125163914 
0.0021541145987 0.0021835408438 0.0022134644104 0.0013583844992 0.0013722666591 0.0013863909257 0.0014007694928 0.0014158534565 0.0014339135359 
0.0014520872224 0.0014703786106 0.0014887914764 0.0015073311726 0.001526001947 0.0015448083796 0.0015637555993 0.0015828492358 0.0016020939655 
0.0016214942862 0.0016410552505 0.0016607817383 0.0016806772728 0.0017007483038 0.0017209986374 0.0017414350833 0.0017620632918 0.0017828899472 
0.001803920308 0.0018251610376 0.0018466185798 0.0018683051079 0.0018902338845 0.0019124234279 0.001934897495 0.0019576835857 0.0019808130071 
0.0020043193827 0.0018724285548 0.0018968211703 0.0019216731971 0.0019470253552 0.0019729185461 0.0019993922187 0.0020264878194 0.0020542425385 
0.0020826937076 0.0021118793538 0.0021418344001 0.0021725939483 0.0022041943194 0.0022366687252 0.002270055556 0.0023043870617 0.0023396994216 
0.0023760241066 0.0024133968274 0.0024518504126 0.0024914273495 0.0025321730366 0.0025741361278 0.0026173743667 0.0026619539995 0.0027079428035 
0.0013513645619 0.001365136829 0.0013791514523 0.0013934190818 0.0014128655888 0.0014310190814 0.0014492787787 0.0014676472273 0.0014861281348 
0.0015047255174 0.0015234435031 0.0015422865903 0.0015612581379 0.0015803635794 0.0015996077372 0.0016189932781 0.0016385253143 0.0016582072417 
0.0016780437895 0.0016980387492 0.0017181974873 0.0017385269827 0.0017590304408 0.0017797159836 0.0018005884364 0.001821654256 0.0018429203536 
0.0018643976084 0.0018861001742 0.0019080455059 0.0019302561744 0.0019527603599 0.0019755868469 0.0019987703734 0.0018528750987 0.0018769112561 
0.0019013859223 0.0019263399145 0.0019518149266 0.0019778499062 0.0020044858102 0.0020317612756 0.0020597128007 0.0020883792666 0.00211779541 
0.0021479975498 0.0021790212937 0.0022109036114 0.0022436799698 0.0022773850864 0.0023120565808 0.0023477268961 0.0023844320248 0.0024222073702 
0.0024610952549 0.0025011408269 0.0025423957907 0.0025849193613 0.0026287741635 0.0026740277105 0.0013440093932 0.001357665283 0.0013715627301 
0.001385714104 0.0014095618669 0.001427820661 0.001446176699 0.0014646324707 0.0014831907791 0.0015018546521 0.0015206278296 0.00153951363 
0.0015585159675 0.0015776385206 0.0015968854334 0.0016162598491 0.0016357649497 0.0016554037097 0.0016751812559 0.001695100944 0.0017151683766 
0.0017353879836 0.0017557662071 0.0017763078112 0.0017970196626 0.0018179082093 0.001838979178 0.0018602443855 0.0018817173766 0.0019034143889 
0.0019253595038 0.0019475776673 0.0019700985177 0.0019929542473 0.0018330361963 0.0018567060861 0.0018807922852 0.0019053364658 0.0019303791936 
0.0019559609683 0.0019821220446 0.0020089009213 0.0020363351863 0.0020644627242 0.0020933190343 0.0021229418407 0.0021533670989 0.0021846324612 
0.0022167740351 0.0022498287682 0.002283831826 0.0023188201561 0.0023548311226 0.0023918998275 0.0024300702883 0.0024693886541 0.0025099060005 
0.0025516828146 0.0025947843651 0.0026392754849 0.0013364451389 0.0013499791621 0.001363754592 0.0013777838767 0.0014060764196 0.0014244525256 
0.0014429169761 0.0014614714068 0.0014801177405 0.0014988585048 0.0015176959849 0.0015366328809 0.0015556730417 0.0015748195136 0.0015940748499 
0.0016134425592 0.0016329253314 0.0016525255801 0.0016722478996 0.0016920953213 0.0017120726378 0.0017321849624 0.0017524382806 0.001772837846 
0.0017933893275 0.0018140990181 0.0018349746973 0.0018560270336 0.0018772694906 0.00189871808 0.0019203957348 0.0019423278049 0.0019645404759 
0.0019870663399 0.0018131075856 0.0018364028294 0.001860092397 0.0018842160693 0.0019088153739 0.0019339309624 0.0019596033538 0.0019858708749 
0.0020127722983 0.0020403440713 0.0020686234572 0.0020976491699 0.0021274564232 0.0021580849911 0.0021895703951 0.0022219522683 0.0022552667075 
0.0022895502434 0.002324840774 0.0023611782338 0.0023986062046 0.0024371714484 0.002476926398 0.0025179308647 0.0025602491899 0.0026039500646 
0.0013378892999 0.001351661092 0.0013656436599 0.0013798451067 0.0014167319125 0.0014282642479 0.0014401054306 0.0014522740507 0.0014647870502 
0.0014776603783 0.0014909107992 0.0015045532202 0.0015186001664 0.0015330662226 0.0015479631022 0.0015633018501 0.0015790919931 0.0015953419063 
0.0016120604949 0.0016292560421 0.0016469345461 0.0016651037335 0.0016837704265 0.0017029382834 0.0017226126216 0.0017427969634 0.0017634960033 
0.0017847163724 0.0018064648374 0.0018287513109 0.0018515894574 0.0018749944266 0.0018989828719 0.0019235726184 0.0018439732185 0.0018693721742 
0.0018953524078 0.0019219167796 0.0019490646375 0.0019767934735 0.0020051029976 0.002033988737 0.0020634466193 0.0020934690689 0.0021240485121 
0.0021551770777 0.0021868471433 0.0022190482267 0.0022517734425 0.0022850098922 0.0023187479243 0.00235297603 0.0023876802657 0.0024228517428 
0.002458483769 0.0024945699957 0.0025311114035 0.0025681125878 0.0026055825985 0.0026435320271 0.0013304809847 0.0013440998516 0.001357928312 
0.0013719739944 0.0014048635615 0.0014164457929 0.0014283237541 0.0014405143949 0.0014530355311 0.0014659022726 0.001479130737 0.0014927351113 
0.0015067296892 0.0015211271979 0.0015359394735 0.0015511772858 0.0015668499926 0.0015829670228 0.00159953667 0.0016165677671 0.0016340670891 
0.0016520418852 0.0016704979241 0.0016894411194 0.0017088770866 0.0017288095907 0.0017492434687 0.0017701864421 0.0017916454603 0.001813630038 
0.0018361542975 0.0018592328852 0.0018828806677 0.0019071158853 0.0018344040995 0.0018594182918 0.0018850011433 0.0019111549541 0.0019378795045 
0.0019651739431 0.0019930365815 0.0020214651067 0.0020504549532 0.0020799989493 0.0021100918304 0.0021407271479 0.0021718969004 0.0022035932962 
0.0022358093313 0.0022685337101 0.0023017578337 0.0023354722694 0.002369666379 0.0024043306974 0.0024394608861 0.0024750520792 0.0025111060236 
0.0025476285297 0.002584628031 0.0026221153158 0.0013232685893 0.0013367378691 0.001350416234 0.0013643098847 0.0013931441035 0.0014047739946 
0.001416686495 0.001428898273 0.0014414255922 0.0014542847574 0.0014674908432 0.0014810576932 0.0014949993107 0.0015093286395 0.0015240571709 
0.0015391952641 0.0015547541338 0.0015707416352 0.0015871666325 0.0016040374467 0.0016213621947 0.0016391465856 0.0016573983153 0.0016761241992 
0.0016953272876 0.0017150146466 0.0017351913224 0.0017558645041 0.0017770414088 0.0017987330256 0.0018209519554 0.0018437114902 0.0018670273403 
0.0018909168949 0.0018250966636 0.00184973896 0.0018749385788 0.0019006954327 0.0019270110196 0.0019538842039 0.0019813153169 0.0020093011577 
0.0020378371033 0.0020669206958 0.0020965448247 0.0021267036187 0.0021573914298 0.002188601275 0.0022203245805 0.0022525551018 0.0022852855711 
0.0023185045609 0.0023522058619 0.0023863822889 0.0024210286504 0.0024561435491 0.0024917285327 0.0025277895898 0.0025643351998 0.0026013763502 
0.0013163253989 0.0013296495898 0.0013431814257 0.0013569267084 0.0013816573155 0.001393332806 0.0014052780769 0.001417509273 0.0014300417168 
0.0014428923059 0.0014560758851 0.0014696061536 0.0014834959547 0.0014977585354 0.0015124054696 0.0015274471968 0.0015428947685 0.0015587565349 
0.0015750414995 0.0015917576177 0.0016089137524 0.0016265154081 0.0016445702776 0.001663084928 0.0016820647207 0.0017015151757 0.0017214426946 
0.0017418549775 0.0017627593219 0.001784166437 0.0018060880893 0.0018285378066 0.0018515311919 0.0018750839909 0.0018161603303 0.0018404444174 
0.0018652730281 0.0018906479701 0.0019165693981 0.0019430367867 0.0019700516222 0.0019976102401 0.002025710829 0.0020543497083 0.0020835225287 
0.0021132234476 0.0021434480263 0.0021741899814 0.0022054428562 0.0022371995465 0.0022694545747 0.0023022002339 0.0023354288977 0.0023691368142 
0.0024033200074 0.0024379773141 0.0024731121623 0.0025087298138 0.0025448391432 0.0025814517651 0.0013097025256 0.0013228866316 0.0013362760407 
0.0013498769839 0.0013704641471 0.001382183457 0.0013941598447 0.0014064085667 0.0014189459902 0.0014317878992 0.0014449486939 0.0014584419248 
0.0014722813566 0.0014864796599 0.0015010479402 0.0015159970638 0.0015313376162 0.0015470785088 0.0015632288132 0.0015797979152 0.0015967912289 
0.0016142184523 0.0016320842249 0.0016503960135 0.0016691612136 0.001688383976 0.0017080721276 0.0017282325364 0.0017488736749 0.0017700053029 
0.0017916390992 0.0018137885893 0.0018364689485 0.0018596945027 0.0018076720711 0.0018316117171 0.0018560840754 0.0018810900667 0.0019066314664 
0.0019327092664 0.001959323305 0.0019864724735 0.0020141547012 0.0020423675367 0.0020711075446 0.0021003697989 0.0021301515057 0.0021604456801 
0.0021912486458 0.0022225523972 0.0022543537381 0.0022866461236 0.0023194241396 0.0023526840624 0.002386424214 0.0024206437958 0.002455346946 
0.0024905384125 0.0025262289245 0.0025624309924 0.0013034328723 0.0013164814525 0.0013297332081 0.0013431936632 0.001359606067 0.0013713673931 
0.0013833724751 0.0013956378556 0.0014081789533 0.0014210114647 0.0014341502273 0.0014476081925 0.0014613990105 0.0014755351001 0.0014900278228 
0.0015048879408 0.0015201264053 0.0015357516287 0.0015517736601 0.0015682012647 0.001585039809 0.0016022991503 0.0016199855103 0.0016381049576 
0.0016566640334 0.0016756688722 0.0016951273047 0.0017150467041 0.00173543371 0.0017562995415 0.0017776554109 0.0017995143038 0.0018218906351 
0.0018447978463 0.0017996823863 0.0018232907977 0.0018474195939 0.0018720714617 0.0018972479378 0.0019229510171 0.001949181436 0.0019759377101 
0.0020032191462 0.0020310240325 0.0020593492678 0.0020881927701 0.0021175515496 0.0021474180311 0.0021777913706 0.0022086651089 0.0022400337724 
0.0022718948559 0.0023042426407 0.0023370762692 0.0023703941067 0.0024041949924 0.0024384847115 0.0024732691737 0.0025085580786 0.0025443639527 
0.0012975310239 0.0013104490621 0.0013235676819 0.0013368923296 0.0013491050371 0.0013609061088 0.0013729384734 0.0013852196699 0.001397764054 
0.0014105876265 0.0014237046695 0.0014371278148 0.0014508714759 0.0014649475121 0.0014793674157 0.0014941427102 0.0015092831325 0.0015247988446 
0.001540698653 0.0015569914954 0.0015736836612 0.0015907835461 0.001608299149 0.0016262348942 0.0016445978247 0.001663394807 0.0016826337151 
0.0017023208945 0.0017224637596 0.001743074096 0.0017641611883 0.0017857384143 0.0018078201907 0.0018304188437 0.0017922159093 0.0018155058864 
0.0018393056495 0.001863617531 0.0018884431301 0.0019137867875 0.0019396478801 0.0019660276392 0.0019929252041 0.0020203399346 0.0020482700885 
0.0020767144973 0.0021056686429 0.0021351292584 0.0021650927316 0.0021955569213 0.0022265158526 0.0022579661202 0.0022899052373 0.0023223326565 