# vtk DataFile Version 5.1
vtk output
ASCII
DATASET STRUCTURED_POINTS
DIMENSIONS 30 30 30
SPACING 0.01 0.01 0.01
ORIGIN 1.555 -0.145 0.855
POINT_DATA 27000
FIELD FieldData 1
potential 1 27000 double
0.014947027175 0.01501854001 0.01509036486 0.015162500273 0.015234955724 0.015307721177 0.0153807985 0.015454187447 0.015527888045 
0.015601921133 0.015676239191 0.015750864463 0.015825795059 0.01590103417 0.015976576196 0.016052423793 0.016128572514 0.01620502173 
0.016281770396 0.016358817604 0.016436161701 0.016513799106 0.016591729246 0.016669950458 0.016748460614 0.016827256827 0.016906338809 
0.016985704115 0.01706535015 0.01714527549 0.014856544763 0.014927291344 0.014998346209 0.015069709058 0.015141379322 0.01521335554 
0.015285639303 0.015358226008 0.015431118361 0.015504312409 0.015577831533 0.015651630501 0.015725723872 0.01580011827 0.015874810983 
0.015949803638 0.016025088591 0.016100669321 0.016176541235 0.016252705054 0.016329158105 0.016405898804 0.016482925437 0.01656023605 
0.016637829331 0.016715702256 0.016793853374 0.016872281112 0.016950982584 0.017029956528 0.014766689209 0.014836681939 0.01490697528 
0.014977570757 0.015048463771 0.015119661312 0.015191159642 0.015262954456 0.015335048472 0.01540743632 0.015480120101 0.015553121661 
0.01562639334 0.015699950775 0.01577380504 0.015847950559 0.015922383645 0.015997105603 0.016072112873 0.016147404627 0.016222979132 
0.016298834079 0.016374968555 0.016451380513 0.01652806794 0.016605029399 0.016682261069 0.016759762963 0.016837531956 0.016915566194 
0.0146774602 0.014746707026 0.014816249135 0.014886086411 0.014956215362 0.015026640855 0.015097358576 0.015168368439 0.01523967326 
0.01531126481 0.015383147767 0.015455316531 0.01552779546 0.01560053781 0.01567355586 0.015746866508 0.01582045791 0.015894331656 
0.015968484215 0.016042914747 0.016117621437 0.016192602283 0.016267855449 0.016343379841 0.016419173188 0.016495233685 0.016571558474 
0.016648146635 0.016724995492 0.0168021026 0.01458885165 0.014657361155 0.01472615946 0.014795246677 0.014864619973 0.014934283308 
0.015004232893 0.015074468386 0.015144989463 0.015215793784 0.015286881548 0.015358253663 0.015429928392 0.015501858448 0.015574063405 
0.015646548856 0.015719302857 0.01579233933 0.015865647819 0.015939227512 0.016013077197 0.016087194611 0.016161578188 0.016236226044 
0.016311136653 0.016386308032 0.016461737339 0.016537423297 0.016613363748 0.016689555818 0.014500862324 0.014568642844 0.014636706771 
0.014705053269 0.014773679464 0.014842589551 0.01491177988 0.01498124989 0.015050999611 0.015121026558 0.015191330135 0.015261909447 
0.015332764425 0.015403913248 0.015475313216 0.015546983894 0.015618923771 0.015691126182 0.01576360108 0.015836340802 0.015909343889 
0.015982608982 0.016056133671 0.016129916518 0.016203955443 0.016278248958 0.016352794517 0.016427589306 0.016502633246 0.016577922487 
0.014413490171 0.014480549537 0.014547888189 0.0146155033 0.014683390781 0.014751556277 0.014819996991 0.014888710523 0.014957697875 
0.015026956423 0.015096485544 0.015166284361 0.015236352627 0.015306687665 0.015377309472 0.015448172634 0.01551929993 0.015590692821 
0.015662340588 0.015734250741 0.015806418923 0.015878842022 0.015951517674 0.016024446319 0.016097624985 0.016171051662 0.01624472443 
0.01631864004 0.016392798733 0.016467197132 0.01432673463 0.01439308227 0.01445970141 0.014526592864 0.014593753954 0.014661181484 
0.014728880875 0.014796847202 0.014865080367 0.014933580223 0.015002344352 0.01507137184 0.015140663031 0.015210214897 0.015280026868 
0.015350115186 0.015420441352 0.015491025473 0.015561864194 0.015632955733 0.015704292202 0.015775884112 0.015847726413 0.015919811555 
0.015992139918 0.01606471109 0.016137521836 0.016210570462 0.016283855136 0.016357373352 0.014240567237 0.014306236545 0.014372145975 
0.014438320924 0.014504760258 0.014571462605 0.014638429186 0.01470565699 0.014773145783 0.014840895659 0.014908903741 0.014977169309 
0.015045692503 0.015114470754 0.015183503201 0.015252805738 0.01532234243 0.015392127536 0.01546216279 0.015532444986 0.015602972801 
0.015673736182 0.015744749072 0.015816002757 0.015887494201 0.01595922036 0.01603118015 0.016103372555 0.016175796586 0.01624844641 
0.014155037162 0.014219984592 0.014285218219 0.014350685983 0.014416412709 0.014482394529 0.014548636273 0.014615136912 0.014681890078 
0.01474889867 0.014816159764 0.014883672649 0.014951437458 0.015019451533 0.015087712832 0.015156222462 0.015224995162 0.015293994682 
0.015363234919 0.015432718198 0.015502441192 0.015572401627 0.015642590378 0.015713020727 0.015783683269 0.015854576165 0.015925697638 
0.015997045702 0.016068616796 0.01614040876 0.014070116768 0.014134376443 0.014198915463 0.014263684325 0.014328706558 0.014393978133 
0.014459504249 0.014525281777 0.014591309055 0.014657585964 0.014724108861 0.014790878466 0.014857892972 0.014925153199 0.014992653852 
0.015060396975 0.015128378666 0.015196619216 0.015265077953 0.015333770322 0.015402698289 0.015471858624 0.015541249339 0.015610867939 
0.015680704873 0.015750774584 0.015821067045 0.015891580219 0.015962310974 0.016033257975 0.013985801729 0.014049381393 0.014113210544 
0.014177313504 0.014241638898 0.014306211525 0.014371027604 0.014436092464 0.014501400656 0.014566952915 0.014632747451 0.014698782941 
0.014765057175 0.014831571485 0.014898321061 0.01496530744 0.015032526604 0.015099980476 0.01516768374 0.015235596928 0.015303740105 
0.015372110077 0.015440704471 0.01550952181 0.01557856024 0.015647808552 0.015717282803 0.015786972285 0.015856873546 0.015926986548 
0.013902090304 0.013964997783 0.014028149389 0.014091569146 0.014155206722 0.014219086145 0.014283203363 0.014347562733 0.014412161983 
0.014476999321 0.014542072376 0.014607382363 0.014672925195 0.014738703272 0.014804710721 0.014870949131 0.014937415437 0.015004110751 
0.015071031941 0.015138195003 0.015205561386 0.015273150593 0.015340959141 0.01540898536 0.015477226964 0.01554568207 0.015614348912 
0.015683215882 0.015752298558 0.015821587516 0.013818979594 0.01388122267 0.013943704604 0.014006424934 0.014069406682 0.01413260097 
0.014196027354 0.014259691362 0.014323589355 0.014387719037 0.014452080915 0.0145166724 0.014581492992 0.014646542937 0.01471181838 
0.014777318308 0.014843042115 0.014908986736 0.014975153576 0.015041539044 0.01510815933 0.015174975953 0.015242008673 0.015309253544 
0.015376708549 0.015444371755 0.015512241065 0.015580314903 0.015648580205 0.015717055603 0.013736466422 0.013798053429 0.013859873203 
0.013921926459 0.013984211617 0.014046752727 0.014109496965 0.014172472901 0.014235678003 0.014299109937 0.014362768453 0.014426651515 
0.014490757814 0.014555087892 0.014619640202 0.014684410518 0.014749399661 0.014814604427 0.014880025875 0.01494566112 0.01501152488 
0.015077582633 0.01514384727 0.015210321032 0.015276999343 0.015343880702 0.015410963244 0.015478244311 0.015545722374 0.015613394804 
0.013654548794 0.013715485881 0.013776652221 0.013838046244 0.013899667046 0.013961538246 0.01402361066 0.014085904341 0.014148424052 
0.014211166695 0.014274130561 0.014337313626 0.014400715136 0.014464333849 0.014528170378 0.014592220382 0.01465648487 0.014720958867 
0.014785644413 0.014850538471 0.014915639507 0.014980961951 0.015046470098 0.015112182193 0.01517809396 0.015244203497 0.015310508986 
0.015377007817 0.015443698612 0.01551057877 0.013573224136 0.013633518761 0.013694037597 0.013754779961 0.013815744642 0.013876930095 
0.013938360193 0.013999982496 0.01406182534 0.014123886438 0.014186163782 0.014248655262 0.01431136017 0.014374277265 0.014437407124 
0.014500745878 0.014564292589 0.014628045748 0.014692004181 0.0147561664 0.01482053071 0.014885095267 0.014949873866 0.015014831687 
0.015079986907 0.015145334056 0.015210872747 0.015276599552 0.015342513317 0.015408611442 0.013492488009 0.013552148642 0.013612028044 
0.013672125946 0.013732441172 0.013792973226 0.013853720955 0.013914702924 0.013975877249 0.014037263941 0.014098863633 0.014160671829 
0.014222689455 0.01428491304 0.014347344822 0.014409980573 0.014472819565 0.014535859661 0.014599098849 0.014662538548 0.014726176397 
0.014790008306 0.014854034021 0.014918266627 0.014982672692 0.015047267401 0.015112048727 0.015177013226 0.015242160172 0.015307486891 
0.013412339269 0.013471371129 0.013530619006 0.013590080585 0.013649754363 0.013709639364 0.0137697365 0.013830042266 0.013890576118 
0.013951297711 0.014012226709 0.014073360336 0.014134697317 0.014196236224 0.014257978287 0.014319919414 0.01438205947 0.014444395189 
0.014506925728 0.014569651667 0.014632570409 0.014695678974 0.014758977509 0.014822461765 0.01488614637 0.014949997089 0.01501403123 
0.015078243631 0.015142633169 0.015207198135 0.01333277128 0.013391185211 0.013449806885 0.013508639209 0.013567679112 0.013626925971 
0.01368637952 0.01374603705 0.013805917613 0.013865982037 0.01392624886 0.013986715532 0.014047380408 0.014108243765 0.014169303313 
0.014230559551 0.014292008664 0.014353649558 0.014415481197 0.01447750095 0.014539709353 0.014602103395 0.014664681504 0.014727442428 
0.014790384843 0.014853518364 0.014916812419 0.014980282182 0.015043924402 0.015107737063 0.013253782827 0.013311584283 0.013369590138 
0.013427800491 0.013486212438 0.013544828113 0.013603645006 0.013662662914 0.013721876747 0.013781313016 0.013840924855 0.013900733126 
0.013960734467 0.014020929427 0.014081316704 0.014141895424 0.014202662428 0.014263616065 0.014324756273 0.014386079952 0.014447587688 
0.014509276434 0.014571144253 0.014633190498 0.014695412015 0.014757807464 0.014820390425 0.01488312592 0.014946030054 0.015009100809 
0.01317537205 0.013232567134 0.013289963394 0.013347557159 0.013405351581 0.013463342162 0.013521530885 0.013579915987 0.013638492574 
0.013697264902 0.013756251785 0.013815408689 0.013874754836 0.013934290139 0.013994012461 0.014053921651 0.014114015173 0.014174290976 
0.014234748127 0.014295384389 0.014356199551 0.014417191781 0.014478359376 0.014539699601 0.01460121107 0.014662891825 0.014724740589 
0.014786765643 0.014848943484 0.014911282278 0.013097532378 0.013154128852 0.013210921129 0.013267909328 0.013325091679 0.013382467346 
0.0134400351 0.01349779112 0.013555741439 0.013613877029 0.01367222504 0.013730738134 0.013789437184 0.013848319871 0.013907384984 
0.013966632405 0.014026061147 0.014085667562 0.014145450774 0.014205409322 0.014265540396 0.014325844848 0.014386320465 0.014446963451 
0.014507773843 0.014568749112 0.014629887945 0.014691187048 0.014752655994 0.014814272101 0.013020262239 0.013076266496 0.013132462637 
0.013188849809 0.013245427672 0.013302193774 0.01335914818 0.013416288791 0.013473616666 0.013531124955 0.013588819827 0.013646716936 
0.013704776174 0.013763015274 0.013821431527 0.01388002593 0.013938797294 0.013997741312 0.014056858106 0.014116146129 0.014175603466 
0.014235229575 0.014295020983 0.014354976628 0.014415094578 0.014475373369 0.014535810419 0.014596404925 0.014657165567 0.014718066352 
0.012943557611 0.012998976978 0.01305458364 0.013110377213 0.013166356747 0.013222520669 0.013278868478 0.013335398374 0.013392111141 
0.013449001196 0.01350607151 0.013563321178 0.013620768115 0.013678371162 0.013736147434 0.013794096307 0.013852217354 0.013910508283 
0.013968967435 0.014027593504 0.014086384214 0.014145337867 0.01420445422 0.014263730803 0.014323165242 0.014382757707 0.014442503649 
0.014502401651 0.014562450526 0.014622659257 0.012867415215 0.012922255884 0.012977279949 0.013032486622 0.013087875199 0.013143443605 
0.013199191549 0.013255118849 0.013311223092 0.013367504306 0.013423957265 0.013480585931 0.013537386383 0.013594381642 0.013651525264 
0.013708837874 0.013766318207 0.013823962162 0.013881771779 0.01393974359 0.013997877065 0.014056167422 0.014114617404 0.014173222985 
0.014231982591 0.01429089469 0.014349957664 0.01440916841 0.0144685259 0.014528027512 0.012791830946 0.012846099881 0.012900547794 
0.012955174045 0.013009978423 0.013064958986 0.013120114532 0.013175444914 0.01323094904 0.013286625902 0.013342469866 0.013398485877 
0.013454670714 0.013511043542 0.013567561242 0.013624244126 0.013681089767 0.013738097765 0.013795265653 0.013852590809 0.013910074349 
0.0139677115 0.014025503397 0.014083446715 0.014141539968 0.014199781328 0.014258169701 0.014316702397 0.014375377189 0.014434192317 
0.012716801032 0.012770504103 0.012824382838 0.012878436166 0.012932662894 0.012987062278 0.013041632367 0.013096373191 0.013151283391 
0.013206362473 0.013261606432 0.013317015335 0.013372590747 0.0134283301 0.013484251266 0.013540312479 0.013596531708 0.01365290983 
0.013709443715 0.013766132775 0.013822974056 0.013879964173 0.013937104958 0.013994394327 0.014051829775 0.014109409648 0.014167132139 
0.014224994839 0.01428299536 0.014341132932 0.012642318553 0.012695466412 0.012748781966 0.01280226841 0.012855924532 0.012909749094 
0.012963740657 0.013017899254 0.013072222855 0.013126710678 0.013181362652 0.01323617121 0.013291144298 0.01334627681 0.013401567553 
0.013457034383 0.013512636256 0.013568391322 0.013624299397 0.013680358678 0.013736565925 0.013792919957 0.0138494191 0.013906061811 
0.013962847697 0.014019774156 0.014076839464 0.014134040768 0.014191376699 0.014248845161 0.01256838621 0.01262097843 0.012673737424 
0.012726666829 0.012779758988 0.012833015433 0.01288643535 0.012940017776 0.012993761695 0.013047665926 0.013101729948 0.013155947843 
0.013210325727 0.013264859202 0.013319547193 0.013374387596 0.013429397695 0.013484538234 0.013539828853 0.013595265065 0.013650846231 
0.01370657039 0.013762436793 0.013818442068 0.013874586375 0.013930867692 0.013987282879 0.014043831099 0.014100510265 0.014157318983 
0.015083130549 0.015155151229 0.015227487269 0.015300139474 0.015373104136 0.015446383737 0.015519978632 0.015593884085 0.015668099842 
0.015742627099 0.015817486797 0.015892626993 0.015968080907 0.016043837257 0.016119898958 0.016196265947 0.01627293604 0.016349908247 
0.016427178544 0.01650474752 0.016582612292 0.016660772733 0.016739226252 0.01681797104 0.016897004721 0.016976326224 0.017055933283 
0.017135823052 0.017215993705 0.017296443186 0.014992017733 0.015063269787 0.015134832463 0.015206704637 0.015278881092 0.015351370901 
0.015424163834 0.01549726172 0.015570667087 0.015644375007 0.015718408413 0.015792720106 0.015867329269 0.015942239582 0.016017450235 
0.016092955471 0.016168759302 0.016244855793 0.016321246901 0.016397928957 0.016474900792 0.01655216065 0.016629706791 0.016707537508 
0.016785650305 0.016864043793 0.016942715865 0.017021664176 0.017100886488 0.017180380696 0.014901535082 0.014972030807 0.015042828888 
0.015113928451 0.015185327303 0.015257030593 0.015329032437 0.015401333554 0.015473936366 0.015546834383 0.015620027709 0.015693538653 
0.015767323015 0.015841398653 0.015915759624 0.015990416059 0.016065363888 0.016140598019 0.016216119532 0.016291925775 0.016368014941 
0.016444385476 0.016521035604 0.016597963478 0.016675167325 0.016752644231 0.016830393507 0.01690841204 0.01698669842 0.017065249781 
0.014811676016 0.014881421591 0.01495146403 0.015021801178 0.015092431578 0.015163359306 0.015234580901 0.015306094319 0.015377900296 
0.015449997985 0.015522384246 0.015595062512 0.015668051056 0.015741300758 0.015814836149 0.015888646203 0.015962749923 0.016037130833 
0.016111793767 0.016186734983 0.016261952185 0.016337444482 0.016413209814 0.01648924633 0.016565552139 0.016642124691 0.016718962966 
0.016796063738 0.016873425852 0.016951047044 0.014722439781 0.014791445135 0.014860739981 0.01493032413 0.015000195289 0.015070356418 
0.015140806032 0.015211541298 0.015282562527 0.015353869475 0.015425458599 0.015497330653 0.015569485529 0.015641940566 0.015714656273 
0.015787644734 0.015860905322 0.015934446793 0.016008262876 0.01608234857 0.016156705179 0.016231329932 0.016306221556 0.016381377934 
0.016456797183 0.016532477213 0.016608415594 0.016684610528 0.016761060293 0.016837762497 0.014633824856 0.014702097174 0.014770653857 
0.0148394941 0.01490861715 0.014978019216 0.01504770582 0.015117671862 0.015187917469 0.01525844292 0.015329244504 0.015400322695 
0.015471676336 0.01554332584 0.015615226351 0.015687396213 0.015759835892 0.015832550663 0.015905521503 0.015978764186 0.016052271945 
0.016126039478 0.016200068105 0.016274355361 0.016348899347 0.01642369777 0.016498748141 0.016574048844 0.016649598133 0.016725393229 
0.014545830836 0.014613378999 0.014681204478 0.014749308896 0.014817690406 0.01488634442 0.014955276228 0.015024482925 0.015093962433 
0.015163715471 0.015233738837 0.015304032852 0.015374595807 0.015445427924 0.015516546149 0.015587909232 0.015659533692 0.015731421543 
0.015803571675 0.015875974343 0.015948643029 0.016021569147 0.016094746064 0.01616817496 0.016241853912 0.016315781843 0.016389956043 
0.016464373809 0.016539033568 0.016613933765 0.014458428629 0.01452528635 0.014592390094 0.014659765871 0.014727413015 0.014795329582 
0.014863516083 0.014931971595 0.015000694234 0.01506968341 0.015138938297 0.015208457337 0.015278239355 0.015348284491 0.015418589546 
0.015489173492 0.015559993001 0.015631069557 0.015702403086 0.015773989622 0.015845820777 0.015917908395 0.015990244268 0.016062828141 
0.016135654355 0.016208722935 0.016282033003 0.016355579233 0.016429362013 0.016503378455 0.01437166694 0.014437816808 0.014504207288 
0.014570863923 0.014637785576 0.014704969905 0.014772419782 0.014840134654 0.014908109132 0.014976344317 0.015044839553 0.015113592888 
0.015182603119 0.015251870873 0.015321392439 0.015391166431 0.015461211205 0.015531488622 0.015602013555 0.015672787205 0.015743806551 
0.015815070186 0.015886567768 0.015958313087 0.016030297135 0.01610251765 0.016174972003 0.016247659599 0.016320575766 0.016393719369 
0.014285519755 0.014350943392 0.01441665315 0.014482598946 0.014548804342 0.014615268942 0.014681988417 0.014748967969 0.01481620401 
0.014883694577 0.014951439538 0.015019436183 0.015087684546 0.015156183685 0.015224931483 0.015293925897 0.015363165962 0.015432671037 
0.015502400345 0.015572369601 0.015642580363 0.015713029579 0.015783714833 0.015854626381 0.015925778779 0.015997161006 0.016068772058 
0.016140609904 0.016212671115 0.016284954692 0.01419998151 0.014264713712 0.014329701468 0.014394969674 0.014460466095 0.014526216585 
0.014592216826 0.01465847058 0.014724976006 0.014791730527 0.01485873371 0.014925983704 0.014993478752 0.015061219098 0.01512920262 
0.015197426925 0.015265892829 0.015334614287 0.015403556411 0.015472732711 0.015542145075 0.015611790021 0.01568166537 0.015751769512 
0.015822100541 0.015892647816 0.015963426305 0.016034425332 0.01610564271 0.016177076723 0.014115050903 0.01417909952 0.014243398365 
0.014307971386 0.014372768456 0.014437813329 0.014503101973 0.014568639279 0.014634422607 0.014700448783 0.014766718886 0.014833230903 
0.014899981935 0.014966972116 0.015034201564 0.015101665163 0.01516936477 0.015237296112 0.015305478882 0.015373873822 0.015442495847 
0.01551134636 0.015580422275 0.0156497211 0.015719241171 0.015788980775 0.015858928552 0.015929100182 0.015999485029 0.016070079369 
0.014030725608 0.014094098102 0.014157715719 0.014221577576 0.014285706995 0.01435005437 0.014414641422 0.014479470714 0.014544540539 
0.014609847177 0.014675392835 0.01474117418 0.014807190284 0.014873440106 0.014939923027 0.015006636571 0.015073579293 0.015140748328 
0.015208145347 0.015275784609 0.015343629462 0.015411694138 0.015479980218 0.015548483799 0.015617203324 0.01568613688 0.015755282266 
0.015824627791 0.015894190419 0.015963957227 0.013947001146 0.01400970646 0.014072650814 0.014135834041 0.014199255025 0.014262937861 
0.014326832693 0.014390959902 0.014455324021 0.014519921746 0.014584751105 0.014649811855 0.01471510152 0.014780618926 0.014846365206 
0.014912336277 0.014978531443 0.015044947768 0.015111586725 0.015178444856 0.01524553771 0.015312829889 0.015380334237 0.015448052939 
0.015515982128 0.015584119857 0.01565246394 0.015721012824 0.015789763543 0.015858704074 0.013863877231 0.013925921323 0.013988200851 
0.014050713501 0.014113458642 0.014176459836 0.014239668496 0.014303104336 0.014366771509 0.014430667707 0.014494790006 0.014559138747 
0.014623710917 0.014688505758 0.014753522427 0.014818760099 0.014884217904 0.014949891842 0.015015780121 0.015081884279 0.015148200936 
0.015214744459 0.015281479616 0.015348422885 0.015415571798 0.015482923797 0.015550476968 0.01561822973 0.015686179094 0.015754323587 
0.013781350618 0.01384274125 0.01390436201 0.013966211502 0.014028289333 0.014090593579 0.014153147558 0.014215900039 0.014278878875 
0.01434208081 0.014405505196 0.014469150175 0.014533013632 0.014597094461 0.014661392445 0.01472590576 0.014790632974 0.014855572187 
0.014920721718 0.014986080853 0.015051647143 0.015117419357 0.015183411809 0.015249588736 0.015315966872 0.015382543093 0.015449315487 
0.015516282366 0.015583440832 0.015650789197 0.013699416751 0.013760162532 0.013821132906 0.013882326486 0.013943743594 0.014005382954 
0.014067242883 0.014129343528 0.014191641855 0.014254158498 0.0143168926 0.014379842641 0.014443005764 0.014506381245 0.014569967638 
0.014633766323 0.0146977734 0.01476198717 0.014826405177 0.014891029877 0.01495585522 0.015020881906 0.015086107288 0.015151546145 
0.0152171622 0.015282972663 0.015348973948 0.015415164859 0.015481542543 0.015548105142 0.013618075052 0.013678181151 0.013738508632 
0.013799054828 0.013859819175 0.013920800862 0.013981998224 0.014043433722 0.014105057668 0.014166897224 0.014228949318 0.014291211642 
0.014353682786 0.014416360956 0.014479246251 0.01454233852 0.014605633263 0.014669130396 0.01473282826 0.014796724283 0.014860818688 
0.014925110209 0.014989594357 0.015054286264 0.015119152474 0.015184205628 0.015249446509 0.015314871635 0.015380478745 0.015446265568 
0.013537319241 0.013596796303 0.013656486689 0.013716392301 0.013776511592 0.013836843413 0.013897386096 0.013958139038 0.014019121611 
0.014080292108 0.014141669512 0.01420325364 0.014265041788 0.014327031035 0.014389223207 0.014451617329 0.014514209093 0.01457699846 
0.014639983425 0.014703161539 0.014766533605 0.014830096771 0.014893848754 0.014957790236 0.015021929661 0.015086237324 0.015150725246 
0.015215394607 0.015280240734 0.015345261922 0.013457147416 0.013516000916 0.013575064599 0.013634337655 0.013693817861 0.013753507416 
0.013813402801 0.013873503813 0.013933807718 0.013994339266 0.014055050869 0.014115964385 0.014177076884 0.014238386637 0.01429989404 
0.014361598527 0.014423495798 0.014485585558 0.014547866954 0.01461033653 0.01467299521 0.014735840336 0.014798870101 0.014862082236 
0.014925474949 0.014989060025 0.015052809243 0.015116730471 0.01518082573 0.015245091254 0.013377557959 0.013435795079 0.013494236198 
0.013552883756 0.013611735275 0.01367078862 0.013730044851 0.013789501811 0.013849157144 0.013909034761 0.013969088364 0.014029338372 
0.014089784285 0.014150422392 0.014211253291 0.014272275572 0.014333488044 0.014394887717 0.014456473991 0.014518244592 0.014580197636 
0.014642333598 0.014704649758 0.014767143456 0.014829813176 0.014892656753 0.014955685733 0.015018870508 0.015082225562 0.015145745181 
0.013298544694 0.013356172444 0.013414001316 0.013472030378 0.013530258987 0.013588686289 0.013647308717 0.013706127956 0.013765144678 
0.013824352889 0.013883777889 0.013943373327 0.014003158937 0.01406313353 0.014123295992 0.01418364527 0.014244180495 0.014304898412 
0.014365798069 0.014426878063 0.014488135543 0.014549570919 0.014611181897 0.014672965936 0.014734921849 0.014797047399 0.014859340457 
0.014921812309 0.014984432938 0.015047216516 0.013220104657 0.013277129888 0.013334352654 0.013391770506 0.013449383453 0.01350719066 
0.013565190097 0.013623381902 0.013681764395 0.013740332689 0.013799093667 0.013858063425 0.013917198205 0.013976517212 0.014036019092 
0.014095702998 0.014155568709 0.014215612855 0.014275834144 0.014336231567 0.014396803926 0.014457547554 0.014518462521 0.014579546288 
0.014640797495 0.014702213354 0.014763792434 0.014825533849 0.014887446037 0.014949501254 0.013142236427 0.013198665669 0.013255287997 
0.013312102077 0.013369106846 0.013426300856 0.013483683294 0.013541253544 0.013599009999 0.013656950276 0.013715075501 0.013773405804 
0.013831896223 0.013890567916 0.013949416679 0.01400844349 0.014067647243 0.014127026688 0.014186578724 0.014246301921 0.014306195458 
0.014366255689 0.01442648345 0.014486875826 0.014547432046 0.014608147949 0.014669023745 0.014730055546 0.014791241273 0.014852592371 
0.013064935204 0.013120775871 0.013176804896 0.013233021319 0.013289424691 0.013346013036 0.01340278578 0.01345974174 0.013516879675 
0.013574199114 0.013631695353 0.013689372977 0.013747246742 0.013805278687 0.013863484977 0.013921863791 0.01398041424 0.014039135777 
0.014098026383 0.014157082517 0.014216306612 0.014275692585 0.014335241448 0.014394950658 0.014454818927 0.014514843465 0.014575023388 
0.01463535534 0.014695837833 0.014756469649 0.012988197553 0.013043456486 0.01309889917 0.013154525137 0.013210333522 0.01326632306 
0.013322493072 0.013378841874 0.013435368262 0.013492071345 0.013548949188 0.013606002879 0.013663228847 0.013720646881 0.013778216872 
0.013835954866 0.013893860318 0.013951933728 0.014010170976 0.014068570179 0.014127131327 0.014185852406 0.014244729953 0.014303764966 
0.014362954632 0.014422296344 0.014481789158 0.014541430228 0.014601217752 0.014661150497 0.012912019541 0.012966703073 0.013021566442 
0.013076608672 0.013131829314 0.013187226214 0.013242800671 0.013298549448 0.013354472058 0.013410567109 0.013466832298 0.013523269666 
0.013579874943 0.013636648317 0.013693610148 0.013750714872 0.013807982966 0.013865413945 0.013923006172 0.013980757541 0.014038664104 
0.01409672662 0.014154942387 0.014213311118 0.014271830828 0.014330498558 0.014389313551 0.014448272763 0.014507374854 0.014566616386 
0.012836397448 0.012890512347 0.012944802825 0.012999267742 0.013053907321 0.013108719769 0.013163704535 0.013218860869 0.013274186412 
0.013329680341 0.013385341401 0.013441168877 0.013497160808 0.013553317137 0.013609655955 0.013666136302 0.013722775182 0.013779572717 
0.013836527659 0.013893636872 0.013950898652 0.014008312364 0.014065876086 0.014123585539 0.014181443769 0.014239445757 0.014297591169 
0.014355876625 0.014414301465 0.014472862407 0.012761324576 0.012814876682 0.012868604401 0.012922499227 0.012976564482 0.013030798734 
0.013085201259 0.013139771029 0.013194506376 0.013249406732 0.013304470076 0.013359694599 0.013415080969 0.013470628076 0.013526333286 
0.013582215115 0.013638232121 0.013694403704 0.013750729357 0.013807204535 0.013863828647 0.01392060068 0.013977518917 0.014034580212 
0.014091785333 0.014149129389 0.014206613366 0.014264234158 0.014321990329 0.014379878418 0.012686803628 0.012739799981 0.012792964122 
0.012846294923 0.012899795842 0.012953458769 0.013007286244 0.013061276567 0.013115428686 0.013169741117 0.013224213935 0.013278842688 
0.013333631568 0.013388575615 0.013443674354 0.013498925916 0.013554348114 0.013609902227 0.013665604403 0.013721454324 0.013777449243 
0.013833587677 0.01388986829 0.013946288565 0.014002848502 0.014059544475 0.014116376255 0.014173341598 0.014230435534 0.014287659632 
0.015218289384 0.015290812295 0.015363651791 0.015436806651 0.015510275381 0.015584062563 0.015658161547 0.015732572531 0.015807298175 
0.015882332266 0.015957700609 0.016033353781 0.016109311378 0.016185582632 0.016262154194 0.016339031436 0.016416213283 0.01649369642 
0.016571478688 0.016649560464 0.01672793921 0.016806613058 0.016885580293 0.016964838723 0.017044387225 0.017124223168 0.017204344534 
0.017284748475 0.017365434127 0.017446398679 0.015126554868 0.01519830677 0.015270369045 0.015342740134 0.015415418692 0.015488406049 
0.015561700013 0.01563530445 0.015709211055 0.015783421752 0.015857939453 0.015932778878 0.016007897766 0.01608331286 0.01615902923 
0.016235041513 0.016311352624 0.01638795894 0.016464857485 0.016542048753 0.016619529962 0.016697299536 0.016775355677 0.016853696515 
0.016932319799 0.017011224117 0.017090407073 0.017169866144 0.017249599354 0.017329604844 0.015035449411 0.015106439889 0.015177733486 
0.015249329321 0.015321224959 0.015393425165 0.015465926854 0.015538727406 0.015611827008 0.015685224105 0.015758922455 0.015832934869 
0.015907222206 0.015981802618 0.01605666757 0.016131826522 0.016207279185 0.016283018173 0.016359043576 0.016435355012 0.016511949847 
0.016588826366 0.016665982766 0.016743417172 0.016821127329 0.016899111831 0.01697736824 0.017055894153 0.017134687443 0.017213746361 
0.014944969868 0.015015206263 0.015085740863 0.015156571701 0.015227695152 0.01529911642 0.015370833051 0.015442842423 0.015515144411 
0.01558773744 0.015660622461 0.015733796076 0.015807279617 0.015881032679 0.015955067044 0.016029388773 0.01610398186 0.016178866231 
0.016254030203 0.016329471697 0.016405191119 0.016481185678 0.016557453565 0.016633992946 0.016710801926 0.016787877767 0.016865219222 
0.016942824079 0.017020689527 0.017098814051 0.014855114698 0.01492460655 0.014994390762 0.015064465203 0.015134827965 0.015205477854 
0.015276417345 0.01534764548 0.015419159204 0.015490957877 0.01556304168 0.015635407969 0.015708056417 0.015781008149 0.015854216388 
0.015927703737 0.016001463902 0.01607549991 0.01614981243 0.016224397665 0.016299252486 0.016374375053 0.016449765521 0.016525421012 
0.01660133971 0.016677518863 0.016753957236 0.016830652562 0.016907602155 0.016984804184 0.014765884521 0.014834640402 0.014903680911 
0.014973005811 0.01504261607 0.015112505426 0.015182678672 0.015253133741 0.015323868307 0.015394881594 0.015466174125 0.015537742983 
0.015609587647 0.015681708265 0.015754120537 0.015826785677 0.015899718872 0.015972920093 0.016046385116 0.016120122004 0.016194126666 
0.016268390983 0.016342914969 0.016417697685 0.016492736421 0.016568030149 0.016643577067 0.016719374441 0.016795419743 0.016871711238 