# vtk DataFile Version 5.1
vtk output
ASCII
DATASET STRUCTURED_POINTS
DIMENSIONS 26 14 26
SPACING 0.08 0.08 0.08
ORIGIN 2.7 -0.52 0
POINT_DATA 9464
FIELD FieldData 1
potential 1 9464 double
0.0058672117119 0.0056057359775 0.0053696157491 0.0051574245857 0.0049677506017 0.0047991560192 0.0046502039212 0.0045194707889 0.0044055418601 
0.0043069893568 0.0042224159662 0.0041504383489 0.004089695289 0.0040388500682 0.003996591642 0.0039616359125 0.0039327156451 0.0039085775709 
0.0038880061937 0.003869729828 0.0038525132933 0.0038350971795 0.0038162378371 0.0037947122191 0.0037693817323 0.0037392215285 0.0061001049041 
0.0058289569519 0.0055850911047 0.0053669102796 0.0051728695989 0.0050013716689 0.0048508314997 0.0047196584319 0.004606284828 0.0045091309527 
0.0044266359439 0.0043572554552 0.0042994638534 0.0042517615564 0.0042126690997 0.004180741807 0.0041545553812 0.0041327178952 0.004113853043 
0.0040966441286 0.0040797453098 0.0040618841296 0.0040418359845 0.0040184376185 0.0039906314418 0.0039574951985 0.0062617398632 0.0059843991181 
0.005736297716 0.0055156912142 0.0053208388026 0.0051500215171 0.0050014780184 0.0048734650235 0.0047642201819 0.0046720274092 0.0045951479673 
0.0045318678975 0.0044804906103 0.0044393432119 0.0044067816134 0.0043811878143 0.0043609826259 0.0043446221175 0.0043306057245 0.004317487968 
0.0043038607942 0.0042884007892 0.0042698574081 0.0042470934317 0.0042190837132 0.0041849535119 0.0063776837727 0.0060977869403 0.0058491215444 
0.0056297934831 0.005437897927 0.0052715110588 0.0051287425175 0.0050076526 0.0049063198337 0.0048228417531 0.0047553032738 0.0047018175893 
0.0046605054725 0.0046295113509 0.004607013255 0.0045912165333 0.0045803733799 0.0045727800838 0.0045667935391 0.0045608488882 0.0045534267966 
0.0045431334286 0.0045286836424 0.0045089187719 0.0044828152485 0.0044495281625 0.006429257739 0.0061507075123 0.0059054056828 0.0056913271968 
0.0055063846085 0.005348471162 0.0052155187372 0.0051054060303 0.0050160343157 0.0049452983368 0.0048911156424 0.0048513941764 0.0048240722222 
0.0048070975919 0.0047984559845 0.0047961629057 0.0047982853001 0.0048029456859 0.0048083384129 0.0048127432491 0.0048145526607 0.0048122460145 
0.004804467078 0.0047900239554 0.0047678752924 0.0047371718789 0.0064199404857 0.0061469159479 0.0059092978026 0.0057048234966 0.0055312163804 
0.0053862065501 0.0052674898726 0.0051727984126 0.0050998256529 0.0050462701725 0.0050098498161 0.0049882723662 0.0049792597083 0.0049805657273 
0.004989956329 0.0050052432251 0.0050242854022 0.0050450095927 0.0050654235473 0.0050836371789 0.0050978941005 0.0051065491548 0.0051081566962 
0.0051014355224 0.0050853286712 0.00505896633 0.006389911121 0.0061279692986 0.0059035175174 0.0057141105396 0.0055573116501 0.0054306368718 
0.0053315901361 0.0052576859847 0.0052064495957 0.0051753649732 0.0051619404833 0.0051636676028 0.0051780513142 0.0052026125595 0.0052348948872 
0.0052724765222 0.0053129865698 0.0053541257292 0.0053936864073 0.0054295766928 0.0054598597883 0.0054827350613 0.0054966297199 0.0055001756931 
0.0054922546411 0.0054719808817 0.0062615203639 0.0060130287246 0.0058043636487 0.0056328498405 0.0054958280562 0.005390609602 0.0053144834296 
0.0052647280456 0.0052386589448 0.0052335424796 0.005246640093 0.0052752241641 0.0053165553046 0.0053678994764 0.0054265395116 0.0054897958703 
0.0055550308916 0.0056196808215 0.0056812816244 0.005737497312 0.0057861680202 0.0058252961144 0.005853149883 0.0058682411544 0.0058693748977 
0.0058556420739 0.0059852078808 0.0057567163852 0.0055703674104 0.0054232810366 0.0053125510452 0.0052352852084 0.0051885618087 0.0051694702396 
0.0051750316571 0.0052023155683 0.0052483391017 0.0053101229196 0.0053846655518 0.0054689580208 0.0055600008912 0.005654810898 0.0057504515113 
0.0058440491125 0.005932833914 0.006014174776 0.0060856257909 0.0061449779215 0.0061902640922 0.0062198524323 0.0062324578119 0.0062271338899 
0.0055984782562 0.0053961915548 0.005238443457 0.0051221170658 0.0050440882879 0.0050012287911 0.0049903996784 0.0050084408844 0.0050521921949 
0.0051184102049 0.0052038914378 0.0053053806691 0.0054195914416 0.0055432123575 0.0056729229619 0.0058054038765 0.0059373600754 0.0060655575549 
0.0061868548876 0.006298260333 0.0063969823397 0.0064805041523 0.006546598302 0.006593442453 0.0066196158259 0.0066241440029 0.0051168123546 
0.0049475841839 0.0048253636438 0.0047468095993 0.0047085465605 0.0047072260644 0.0047394636546 0.0048018684759 0.0048910174786 0.0050034557496 
0.0051356650718 0.0052841104287 0.0054452027971 0.0056152954897 0.0057907069606 0.0059677311153 0.0061426607169 0.0063118225283 0.0064716286999 
0.0066186340095 0.0067496128386 0.0068616497242 0.0069521760148 0.0070191246912 0.0070609083013 0.0070765083329 0.0045616924182 0.0044332094569 
0.0043542930357 0.0043213193479 0.00433073425 0.004378906189 0.0044622239106 0.0045770567972 0.0047197229868 0.0048864982737 0.0050736095661 
0.0052771732034 0.0054932849799 0.0057179294231 0.0059470203566 0.0061764069429 0.0064018964601 0.0066192924984 0.0068244520847 0.0070133612338 
0.0071822325175 0.0073276252128 0.0074465311738 0.0075365309206 0.0075958402729 0.0076233826973 0.0039761953865 0.0038970644167 0.0038701231924 
0.0038915293782 0.0039574383302 0.0040640031304 0.0042073924892 0.0043836911812 0.0045889788309 0.00481925017 0.0050704231341 0.0053383407404 
0.0056186765189 0.0059070448025 0.0061988986815 0.0064895800158 0.0067743251722 0.0070483042012 0.0073066844269 0.0075447238612 0.0077579002945 
0.0079420559744 0.0080936050087 0.0082096217352 0.0082880661434 0.0083277867637 0.0034445681796 0.0034244274179 0.0034591898266 0.0035447616195 
0.0036770571137 0.0038519934296 0.0040654812365 0.0043133736492 0.0045914708272 0.0048955028666 0.0052210817536 0.0055636841846 0.0059186566555 
0.0062811161863 0.006646048952 0.0070082074668 0.0073621537137 0.0077022913604 0.0080229241822 0.0083183676427 0.0085831074774 0.0088120278925 
0.0090006645645 0.009145431043 0.0092438936852 0.0092948359042 0.0059474320368 0.0056849628344 0.0054478391305 0.0052346364632 0.0050439447915 
0.0048743281091 0.004724351247 0.0045925924263 0.0044776386219 0.0043780637811 0.0042924722333 0.0042194821694 0.0041577337459 0.0041058914305 
0.0040626451894 0.0040267118088 0.003996824926 0.0039717323214 0.0039502199844 0.0039310186047 0.0039128966945 0.0038946003095 0.003874893192 
0.0038525612284 0.0038264752293 0.0037956187485 0.0062445534546 0.0059724514677 0.0057276187436 0.0055084605876 0.005313434373 0.0051409449179 
0.0049894094045 0.0048572393342 0.0047428692312 0.0046447215015 0.0045612373978 0.0044908746385 0.0044321095896 0.0043834445936 0.0043434020595 
0.0043105391601 0.0042834335153 0.0042606952916 0.0042409506322 0.0042228858144 0.0042051587537 0.004186501627 0.0041656953209 0.0041415826204 
0.0041131119463 0.0040793662916 0.0064372389172 0.006158943405 0.0059098715965 0.005688281778 0.0054924357849 0.0053206172432 0.0051710674041 
0.0050420455637 0.0049317919807 0.0048385931715 0.0047607130262 0.0046964402194 0.004644080801 0.0046019645233 0.0045684499602 0.0045419218209 
0.0045208037126 0.0045035546477 0.0044886772282 0.0044747294486 0.004460307083 0.0044440909263 0.0044248349128 0.0044014063495 0.0043727843306 
0.0043380976598 0.0065559166833 0.006275027182 0.0060253506659 0.0058049960958 0.0056120616475 0.0054446264964 0.0053008032614 0.0051786552747 
0.0050762641205 0.0049917271078 0.0049231423431 0.0048686162463 0.0048262762387 0.0047942701338 0.0047707794192 0.0047540129924 0.0047422266907 
0.0047337205612 0.0047268553749 0.0047200702725 0.0047118500266 0.0047008049424 0.0046856539302 0.0046652421287 0.0046385492992 0.0046047331302 
0.0066048684278 0.0063252436324 0.0060788458719 0.00586365341 0.0056775821757 0.0055185288002 0.0053844285629 0.0052731636497 0.0051826388854 
0.0051107526706 0.0050554263247 0.0050145716958 0.0049861311029 0.0049680565396 0.0049583380189 0.0049549954972 0.0049561004829 0.0049597801503 
0.004964233556 0.0049677451701 0.0049687120696 0.0049656180437 0.004957110941 0.00494200245 0.0049192541355 0.0048880188808 0.0065864030204 
0.006312126437 0.0060732307008 0.0058674570155 0.0056925324938 0.0055461909639 0.0054261321452 0.0053300920246 0.0052557681583 0.0052008633538 
0.005163099865 0.0051401900907 0.0051298607532 0.0051298707867 0.0051379913743 0.0051520396954 0.0051698803656 0.0051894458439 0.0052087496248 
0.0052259072693 0.0052391678078 0.0052468911182 0.0052476360194 0.005240125051 0.005223304081 0.0051963037456 0.0065004544296 0.0062359638688 
0.006009031845 0.0058171966667 0.0056580124629 0.0055289902322 0.0054276313956 0.0053514496623 0.0052979706782 0.0052646799453 0.0052490881701 
0.0052486899204 0.0052609939391 0.005283525536 0.0053138331838 0.0053495005134 0.005388162433 0.0054275257253 0.0054653890128 0.0054996665511 
0.005528427444 0.0055498764687 0.0055624455038 0.0055647701803 0.0055557347102 0.0055344546849 0.0063242265356 0.0060742112984 0.0058639934127 
0.0056909020815 0.005552282595 0.005445450897 0.0053677007987 0.0053163158456 0.0052886167953 0.0052818756268 0.0052933597873 0.0053203480848 
0.0053601080272 0.0054099129685 0.0054670536261 0.005528858805 0.0055926995866 0.0056560212297 0.005716368806 0.0057714152925 0.005819009356 
0.005857161155 0.0058841456712 0.005898480044 0.0058989729237 0.0058847171738 0.0060369699154 0.005806832674 0.0056188137102 0.0054700234171 
0.0053575654423 0.0052785527065 0.005230082819 0.0052092088909 0.0052130000543 0.005238518285 0.0052827876772 0.005342836463 0.0054156714019 
0.0054982924624 0.0055877098851 0.0056809507987 0.005775089704 0.0058672645087 0.0059547172087 0.0060348283812 0.0061051633524 0.0061635233682 
0.0062079501869 0.0062368188617 0.0062488489195 0.0062430962183 0.0056422489382 0.0054381004271 0.0052784522159 0.0051601927091 0.0050802032493 
0.0050353611924 0.0050225335446 0.0050385668905 0.0050803067445 0.0051445181731 0.0052280054063 0.005327522105 0.005439791626 0.0055615134102 
0.0056893789201 0.0058200817959 0.0059503410691 0.0060769376661 0.0061967456756 0.006306789008 0.0064042913153 0.0064867498684 0.0065519493006 
0.0065980767163 0.0066237175526 0.0066279000803 0.0051494828299 0.0049781098036 0.0048537047749 0.0047729220988 0.0047324024737 0.0047288001782 
0.0047587372885 0.0048188299716 0.0049056628021 0.0050157892868 0.0051457006049 0.0052918721579 0.0054507266449 0.0056186305546 0.0057919171035 
0.005966896636 0.0061398800244 0.0063072136652 0.0064653305156 0.0066108067594 0.0067404379133 0.0068513282959 0.0069409264679 0.0070071788387 
0.0070485066769 0.007063894948 0.0045740567405 0.0044430824573 0.0043616323924 0.0043260831371 0.0043328868719 0.0043784188258 0.0044590749618 
0.0045712315337 0.00471121795 0.004875316963 0.0050597671383 0.0052606972276 0.0054742170205 0.0056963271321 0.0059229597864 0.0061499850829 
0.0063732339001 0.0065885360295 0.0067917769469 0.0069789726305 0.0071463658993 0.0072905448798 0.0074085268639 0.0074979123399 0.0075569299557 
0.0075845079542 0.003944612375 0.0038626025443 0.0038327292841 0.0038511569556 0.0039140478704 0.0040175624691 0.0041578773896 0.004331086187 
0.0045332781592 0.0047604590782 0.0050085594776 0.0052734368925 0.0055507818739 0.0058362284655 0.006125252889 0.0064132239136 0.0066954090373 
0.0069670138258 0.0072232452885 0.0074594044359 0.0076710136936 0.0078539589536 0.0080046935479 0.0081203229605 0.0081988270993 0.0082390614936 
0.0033146437262 0.0032912000013 0.0033226029489 0.0034047661586 0.0035336116313 0.0037050647154 0.0039150449974 0.0041594155952 0.004433985005 
0.0047345046948 0.0050565930131 0.0053957469829 0.0057473337273 0.0061064949537 0.006468247991 0.0068273749082 0.0071784848988 0.0075160287993 
0.0078343669687 0.008127878331 0.0083911167982 0.0086190354113 0.00880723342 0.0089521757661 0.0090514618192 0.009103886204 0.0061548789413 
0.0058894754481 0.0056493876227 0.0054331969763 0.0052394990395 0.0050668631546 0.0049138594201 0.0047790712844 0.0046610909284 0.0045584974645 
0.0044699001348 0.0043939217213 0.0043292065149 0.0042744225898 0.0042282630262 0.004189447378 0.0041567120431 0.004128808104 0.0041045261313 
0.0040826039639 0.0040618210041 0.0040409391696 0.0040187434029 0.0039940450055 0.0039657414351 0.0039328400751 0.0064520159885 0.0061770885709 
0.0059293919864 0.0057073387031 0.0055093928519 0.0053339658872 0.0051794815044 0.0050443576782 0.0049270354005 0.0048259434818 0.0047395294993 
0.0046662573498 0.004604609391 0.0045530937462 0.004510238466 0.004474606304 0.0044447806687 0.0044193780376 0.0043970318961 0.0043764373631 
0.0043562634291 0.0043352558029 0.0043122112833 0.0042859900654 0.0042555578345 0.0042200126559 0.0066526496541 0.0063715229682 0.0061195731693 
0.0058950667121 0.0056962733524 0.0055214844695 0.0053689490648 0.0052369341488 0.0051236877782 0.0050275042399 0.0049466552739 0.0048794374206 
0.004824164616 0.0047791745209 0.00474283367 0.0047135348755 0.0046897101003 0.0046698271401 0.0046523980226 0.0046359910422 0.0046192132704 
0.0046007578601 0.004579391834 0.0045539956712 0.0045235607731 0.004487226217 0.0067709478976 0.0064871172696 0.0062344444655 0.0060110476048 
0.0058150338494 0.0056444913242 0.0054975415543 0.0053722569405 0.0052667281963 0.005179061924 0.0051073657017 0.0050497556224 0.0050043689758 
0.0049693636696 0.0049429314927 0.0049232919152 0.0049087116167 0.0048975018188 0.0048880348004 0.0048787615489 0.0048681789725 0.0048549095797 
0.0048376841861 0.0048153590804 0.0047869237616 0.0047515435003 0.0068128698133 0.0065300846258 0.0062804629721 0.0060619930372 0.0058726008404 
0.0057101931394 0.0055727153725 0.0054580601501 0.0053641428958 0.0052888729249 0.0052301828015 0.0051859960096 0.0051542668915 0.0051329598897 
0.0051200778512 0.0051136539667 0.0051117733024 0.0051125768524 0.0051142776291 0.005115174027 0.0051136767581 0.0051082826708 0.0050976516454 
0.0050806059219 0.0050561156485 0.0050233398559 0.0067790019273 0.0065012137139 0.0062587334962 0.0060493137094 0.005870692834 0.0057206158936 
0.0055967941787 0.0054969754522 0.0054188694901 0.0053601917778 0.0053186777763 0.0052920537021 0.0052780607411 0.005274472914 0.0052790771566 
0.005289706956 0.0053042437002 0.0053206368981 0.0053369171307 0.00535121675 0.0053618008819 0.0053670443596 0.0053655192629 0.0053559592585 
0.0053373186473 0.0053087335367 0.0066647598207 0.0063963117056 0.0061653409931 0.0059693983566 0.0058060502445 0.0056728203973 0.0055672232521 
0.0054867858216 0.0054290476758 0.0053915089692 0.0053716958257 0.0053671191297 0.0053753048856 0.0053937966342 0.0054201620478 0.005452004827 
0.0054869806529 0.0055228175138 0.0055573352894 0.0055884690559 0.0056143077029 0.0056330741258 0.0056432159558 0.0056433815601 0.0056324643605 
0.0056095852735 0.0064591952201 0.0062048387584 0.0059901892773 0.0058125894728 0.0056693982257 0.005557945372 0.0054755392681 0.0054194785266 
0.0053870996272 0.0053756913381 0.0053825390011 0.005404940563 0.005440184034 0.0054855647189 0.0055383967195 0.0055960335578 0.0056558721775 
0.0057153844682 0.0057721423809 0.0058238453276 0.0058683671048 0.0059037408139 0.0059282611322 0.0059404605214 0.0059391593795 0.0059234552731 
0.0061515641828 0.0059165775686 0.0057236073268 0.0055697785431 0.0054522097846 0.0053680293327 0.0053143506715 0.0052882485159 0.0052867961081 
0.0053070883187 0.0053461653773 0.0054010779716 0.0054688572452 0.0055465296394 0.0056311339904 0.0057197281047 0.0058094189951 0.005897378497 
0.0059808832481 0.0060573482257 0.0061243717019 0.0061797850492 0.0062216558836 0.0062483795112 0.0062586890702 0.0062516464114 0.0057373864848 
0.0055277063669 0.0053624153757 0.0052384077002 0.0051525909358 0.0051018560467 0.0050830876208 0.0050931510157 0.0051289118093 0.0051871571887 
0.0052647127717 0.0053583659594 0.0054648617102 0.0055809339501 0.0057033092871 0.0058287196923 0.0059539255228 0.0060757515236 0.0061911172478 
0.0062970923941 0.006390945026 0.0064702133309 0.0065327172022 0.0065766712162 0.0066006788758 0.0066037762326 0.0052165655458 0.0050387928682 
0.0049078936733 0.0048204880969 0.0047732515853 0.0047628567794 0.0047859451853 0.0048391538327 0.0049190899237 0.0050223319201 0.0051453988172 
0.0052847968088 0.0054369831908 0.005598363276 0.0057653137058 0.0059341930914 0.0061013653751 0.0062632343766 0.0064162937838 0.0065571821337 
0.0066827563852 0.0067901782572 0.0068769461666 0.0069410453486 0.0069809222251 0.0069955717088 0.0045912448933 0.0044528632576 0.0043638613469 
0.0043206343187 0.0043196531515 0.0043573079682 0.0044300318832 0.0045342083793 0.0046661976461 0.0048223108114 0.0049988182464 0.005191885286 
0.0053976628973 0.0056121989462 0.0058314795968 0.0060514361988 0.0062679685134 0.0064769826234 0.0066744466305 0.0068564633096 0.0070193628693 
0.0071598165721 0.0072749148287 0.007362315369 0.0074202834615 0.0074477607637 0.003864707689 0.0037740927714 0.00373545355 0.0037449742029 
0.0037988376012 0.0038932316251 0.0040243391489 0.0041882967351 0.004381216427 0.0045991364446 0.0048380255961 0.0050937800527 0.0053621441556 
0.0056388081621 0.0059193157732 0.0061991140491 0.0064735608321 0.006737964463 0.0069876464353 0.0072180313869 0.0074247696271 0.0076038716478 
0.0077519023462 0.0078660554209 0.0079443667957 0.0079857109657 0.0030359857367 0.0030026031815 0.0030238923244 0.0030957884483 0.0032142366982 
0.0033751830167 0.0035745765813 0.0038083082666 0.0040722190466 0.0043620975056 0.004673605283 0.0050022900089 0.0053435785136 0.005692683898 
0.0060447080995 0.006394534329 0.00673689155 0.0070663710645 0.0073774947933 0.0076648221044 0.0079230998662 0.0081474749602 0.0083337246699 
0.0084784568654 0.0085793615755 0.0086352623741 0.0064502043854 0.006180056323 0.0059351615955 0.0057141508913 0.0055155900014 0.0053380703198 
0.0051801707831 0.0050404835704 0.0049176095194 0.0048101363086 0.0047166813299 0.0046358750115 0.0045663685947 0.0045068363124 0.0044559766859 
0.0044125142378 0.0043751904021 0.0043427622213 0.0043140282572 0.0042877382975 0.0042626892832 0.0042376679362 0.0042114916202 0.0041830099226 
0.0041511601356 0.0041149853104 0.0067265997455 0.0064470793628 0.0061947267572 0.0059679655566 0.0057652711555 0.0055850660671 0.0054257848252 
0.0052858561568 0.0051637317775 0.005057851106 0.0049666721935 0.0048886691837 0.0048223343984 0.0047661856132 0.0047187603409 0.0046786307323 
0.0046443899521 0.0046146650714 0.0045881017766 0.004563409661 0.0045392755398 0.0045144665346 0.0044878042631 0.0044581757819 0.0044245732464 
0.0043861178065 0.0069178654949 0.0066321246895 0.0063754830129 0.0061462204667 0.0059426199489 0.0057629856998 0.0056055795693 0.0054686813422 
0.0053505519766 0.0052494986031 0.0051638059322 0.0050917835004 0.0050317582787 0.0049820810081 0.0049411316781 0.0049073156733 0.0048790796087 
0.0048549052696 0.0048333207816 0.0048129105785 0.0047923001776 0.0047701987269 0.0047454052589 0.0047168096718 0.004683426364 0.004644410428 
0.0070285612033 0.0067399372715 0.0064823797004 0.0062540217738 0.0060529855317 0.0058773739124 0.0057253231737 0.0055949207061 0.0054842722989 
0.0053914998878 0.0053147266658 0.0052520846618 0.0052017274147 0.0051618294416 0.0051305994709 0.0051062743402 0.0050871385145 0.0050715215063 
0.0050578143761 0.0050444873682 0.0050300570253 0.0050131654916 0.0049925626336 0.0049671224904 0.0049358499985 0.0048979224071 0.0070607411409 
0.006772820538 0.0065179681199 0.0062941795262 0.0060993956598 0.0059315418263 0.0057885796465 0.0056684189384 0.0055689926048 0.0054882279411 
0.0054240760157 0.0053744794394 0.0053374122961 0.0053108594441 0.0052928447537 0.0052814230618 0.0052747015778 0.0052708441198 0.0052680855214 
0.0052647476587 0.0052592630184 0.005250149524 0.0052360864132 0.005215912851 0.0051886127151 0.0051533548417 0.0070130404782 0.0067296423228 
0.0064814325225 0.006266182187 0.0060816486733 0.0059255949605 0.0057957520092 0.0056898868065 0.0056057292541 0.0055410156896 0.0054935032682 
0.0054609408712 0.0054410933751 0.0054317594721 0.0054307518205 0.0054359304913 0.0054452041694 0.0054565500632 0.0054680264636 0.005477792904 
0.0054841405178 0.0054854682616 0.005480365546 0.0054675949832 0.00544611536 0.0054150725583 0.0068805438615 0.0066058654049 0.0063685299597 
0.0061661086092 0.005996198335 0.0058563144243 0.005744019852 0.0056568568318 0.0055923866309 0.0055481334406 0.0055216486383 0.0055104697911 
0.0055121510848 0.0055242657711 0.0055444127562 0.0055702283298 0.0055994018416 0.0056296955869 0.0056589637732 0.0056851750412 0.0057064501241 
0.0057210410354 0.0057274206867 0.0057242578611 0.0057104572076 0.0056851587091 0.0066552877627 0.0063939536332 0.0061721759681 0.0059873197583 
0.0058367663227 0.0057178685643 0.0056279583454 0.0055643595236 0.0055244342507 0.0055054988267 0.0055048678833 0.0055198706333 0.0055478285113 
0.0055860725329 0.005631954778 0.0056828687539 0.005736253254 0.005789623099 0.0058405934985 0.005886906324 0.0059264756631 0.0059573713465 
0.0059779195406 0.005986677668 0.0059824834205 0.0059644433244 0.0063284659198 0.006085578915 0.0058845394047 0.0057224969954 0.0055965946125 
0.0055039859359 0.0054418105735 0.0054071711831 0.0053971703632 0.0054089342549 0.0054395369508 0.0054860657353 0.0055455913973 0.0056151833161 
0.0056919263247 0.00577292853 0.0058553484739 0.0059364130229 0.0060134533752 0.0060839403633 0.0061455244636 0.0061960849687 0.0062337305552 
0.0062568886453 0.0062643139323 0.0062550784031 0.0058920703402 0.0056733397291 0.0054988088416 0.0053653982062 0.0052700418322 0.0052096589105 
0.0051811626725 0.0051814493504 0.0052074173618 0.0052558900251 0.0053237318469 0.0054077729639 0.0055048054136 0.0056116148498 0.0057249845183 
0.0058417079744 0.0059586117616 0.0060725905826 0.0061806363469 0.0062798914018 0.0063676940716 0.0064416471038 0.0064996258979 0.0065398881831 
0.0065610657694 0.0065622068193 0.0053382240111 0.0051499889825 0.0050084140687 0.0049101523289 0.0048518956492 0.0048303592154 0.0048422125613 
0.0048841287077 0.0049527444505 0.0050446868264 0.0051565172666 0.0052847918317 0.0054260236791 0.0055766806081 0.005733208914 0.0058920443505 
0.0060496345029 0.0062024768445 0.0063471584315 0.0064804167822 0.006599205177 0.0067007749987 0.0067827022892 0.006843032536 0.0068802510329 
0.0068933678481 0.0046563487326 0.0045057976441 0.0044043862672 0.0043485462776 0.0043347663153 0.0043594728783 0.004419142514 0.0045101914637 
0.0046290213339 0.0047719876933 0.0049354169816 0.0051155288329 0.0053085418997 0.0055105796716 0.0057177143116 0.0059259744157 0.0061313686242 
0.0063299230399 0.0065177351074 0.006691042793 0.0068463117373 0.0069803414187 0.0070903344908 0.0071740361275 0.0072297671512 0.0072564890244 
0.0038279796141 0.0037231648632 0.0036700554778 0.003664867935 0.0037038187278 0.0037831303232 0.0038990192069 0.0040476785905 0.004225251087 
0.0044278321986 0.0046514499965 0.0048920686581 0.0051455141112 0.0054075613276 0.0056738672967 0.0059400000251 0.0062014587617 0.0064537118029 
0.0066922577355 0.0069127112 0.0071109177477 0.0072830768374 0.0074259214349 0.0075367771726 0.0076137627945 0.0076557796076 0.0028146502745 
0.0027647070563 0.0027691324995 0.0028238962863 0.0029249792265 0.003068365311 0.0032500448022 0.0034659495871 0.0037119868918 0.0039839889296 
0.0042776905101 0.0045887188173 0.0049125943069 0.0052446417321 0.0055800948184 0.0059139936358 0.0062412518776 0.0065566761187 0.0068550340749 
0.0071311574055 0.0073800816019 0.0075972408267 0.0077786736779 0.007921195479 0.008022625363 0.0080818242916 0.0068083784122 0.0065318700537 
0.0062805463945 0.0060530521977 0.005847966674 0.005663893307 0.0054994253566 0.0053531685241 0.0052237268797 0.0051097094685 0.0050097420346 
0.0049224651984 0.0048465400602 0.0047806510535 0.0047235033121 0.0046738294495 0.0046303787267 0.0045919173162 0.00455725553 0.0045251598324 
0.0044944505015 0.004463945998 0.0044325039444 0.0043990204998 0.0043624808926 0.0043219711357 0.0070577956041 0.0067720750395 0.0065134331198 
0.0062803101181 0.0060711971746 0.0058845322559 0.0057187650181 0.0055723391552 0.0054437212769 0.0053313655155 0.005233744452 0.0051493464694 
0.0050766780209 0.0050142697133 0.0049606731021 0.0049144734139 0.0048742776359 0.0048387277697 0.0048064864459 0.0047762829848 0.0047468278824 
0.0047169161542 0.0046854010517 0.0046512044069 0.0046133482169 0.0045709854151 0.0072323691194 0.006940373273 0.0066773663435 0.0064416497773 
0.0062315238606 0.0060453107036 0.0058812899915 0.005737759219 0.005612997205 0.0055053288418 0.0054130567653 0.0053345084724 0.0052680289562 
0.005211987056 0.0051647809957 0.005124834707 0.0050906139733 0.005060620417 0.0050334033245 0.0050075698264 0.0049817698054 0.0049547384648 
0.0049253018162 0.0048923764233 0.004855001265 0.0048123518134 0.0073311879323 0.0070360610572 0.0067718612495 0.006536760797 0.0063288963625 
0.0061463914048 0.0059874025734 0.0058500379828 0.005732424239 0.0056327044231 0.0055490232368 0.005479534638 0.0054224145039 0.0053758601646 
0.005338103588 0.0053074054035 0.0052820744296 0.0052604649764 0.0052409937168 0.0052221568379 0.005202492248 0.0051806830782 0.00515548948 
0.005125813714 0.0050906808299 0.0050492836028 0.007352785098 0.0070579115483 0.00679596032 0.0065649499673 0.0063628444892 0.0061875923395 
0.0060371783253 0.005909536007 0.0058026223689 0.0057143894415 0.0056428107407 0.0055858640082 0.0055415414508 0.0055078587974 0.0054828685945 
0.0054646551495 0.0054513557468 0.0054411645009 0.005432347588 0.0054232566251 0.0054123539147 0.0053981855233 0.0053794564243 0.0053550281883 
0.0053239027971 0.0052852619637 0.0072939396293 0.0070029543708 0.0067469916578 0.0065238484259 0.0063313089787 0.0061671585222 0.0060291577179 
0.0059150991724 0.0058227404602 0.0057498465389 0.0056942042807 0.0056535935504 0.0056258115419 0.0056086905267 0.0056000780942 0.0055978703617 
0.0056000128118 0.0056045200862 0.0056094877034 0.0056131116494 0.0056137178442 0.0056097382432 0.005599788237 0.0055826566188 0.0055573192987 
0.0055229337511 0.0071492034442 0.006866108864 0.006620171047 0.0064089892878 0.0062301884556 0.006081313341 0.0059599559143 0.0058636886518 
0.0057901042131 0.005736759708 0.0057012410176 0.0056811220781 0.0056739953891 0.0056774742672 0.0056892005225 0.0057068537295 0.0057281687417 
0.0057509538706 0.0057731092451 0.0057926482956 0.0058077341476 0.0058166575015 0.0058179247969 0.0058102318528 0.0057925028407 0.0057638889498 
0.0069110133553 0.0066402233744 0.0064087807719 0.0062140819188 0.0060535391022 0.0059245368036 0.0058244398664 0.0057506061721 0.0057004332541 
0.0056712750368 0.0056604860728 0.0056654380666 0.0056834977442 0.0057120443625 0.0057484811227 0.0057902552701 0.0058348615309 0.0058798720118 
0.0059229594496 0.0059619220199 0.0059947271007 0.0060194929988 0.0060345873613 0.00603860045 0.0060303913042 0.0060090823714 0.0065703118553 
0.0063166794826 0.0061046612064 0.0059314401391 0.0057941931611 0.0056901088017 0.0056163625647 0.0055700954146 0.0055484500882 0.0055485953566 
0.0055676513394 0.0056027548992 0.0056510303499 0.0057096048344 0.0057756251956 0.0058462656355 0.0059187543096 0.0059903902593 0.0060585779234 
0.0061208604362 0.0061749571438 0.0062188100184 0.0062505809888 0.0062687403049 0.0062720696974 0.0062596546354 0.0061165877063 0.005885523684 
0.0056983978734 0.0055521696387 0.0054438020418 0.0053702601973 0.0053284944878 0.0053154573622 0.0053280413747 0.005363186388 0.0054177703595 
0.0054886894866 0.0055727991037 0.0056669541239 0.0057680132997 0.0058728517166 0.0059783839906 0.0060815962075 0.0061795752179 0.0062695580674 
0.0063489742957 0.0064155101505 0.006467112597 0.0065020948452 0.0065191249941 0.0065172666211 0.0055368018324 0.0053342916317 0.0051781469725 
0.0050650604734 0.0049917640388 0.0049550138736 0.0049515232409 0.0049780115809 0.0050311663466 0.0051076692032 0.0052041426974 0.0053172098929 
0.0054434586755 0.0055794400427 0.0057216925672 0.0058667536674 0.0060111816914 0.0061515928029 0.0062846984229 0.0064073625287 0.0065166618813 
0.0066099622421 0.0066849382394 0.0067397115601 0.0067728164208 0.0067832816641 0.0048123293067 0.0046451430098 0.0045267643115 0.004453666483 
0.0044223807741 0.0044293790437 0.004471184162 0.0045442644251 0.0046450772465 0.0047700402043 0.0049155486943 0.0050779011682 0.0052534041669 
0.0054382811729 0.0056287174118 0.005820868547 0.0060108845623 0.0061949463038 0.0063693168043 0.0065304058789 0.0066748501214 0.0067996097821 
0.0069020273925 0.0069799564435 0.0070317860281 0.0070565012283 0.0039135479892 0.0037892478133 0.0037162730621 0.003690888014 0.0037093474359 
0.0037679395955 0.0038629146565 0.0039905273765 0.0041469824166 0.0043284448946 0.0045310217627 0.0047507672719 0.0049836118663 0.0052254504752 
0.005472078632 0.0057192236417 0.0059625661482 0.0061977779428 0.0064205809381 0.006626827197 0.0068126040064 0.0069743530218 0.0071089807104 
0.0072140027838 0.0072876218163 0.0073287828903 0.0027899126736 0.0027170511731 0.0026981256187 0.0027291530488 0.0028061610407 0.0029251899523 
0.0030822693525 0.0032734073841 0.0034945740213 0.003741678796 0.0040105458577 0.0042969211943 0.0045964024721 0.004904503194 0.005216611465 
0.005527967231 0.0058337175139 0.0061289377828 0.0064087009672 0.0066681706297 0.0069027313372 0.0071081601253 0.0072808037461 0.0074177191209 
0.0075168729607 0.0075771649599 0.00721287024 0.006928618428 0.0066694685552 0.0064340661093 0.006221025177 0.0060289599105 0.0058564796306 
0.0057022057369 0.0055647578453 0.0054427600475 0.0053348525965 0.0052396898799 0.0051559458099 0.0050823166701 0.005017518649 0.0049602950423 
0.0049094062157 0.0048636310918 0.0048217957171 0.0047826877014 0.0047451554047 0.0047080538211 0.0046702853266 0.0046307966098 0.0045886242213 
0.0045429001635 0.0074355431529 0.007142210003 0.0068758408536 0.0066348972453 0.0064178904721 0.0062232782796 0.0060495296468 0.005895107348 
0.005758496936 0.0056381712332 0.0055326212802 0.0054403535888 0.005359892372 0.0052897856524 0.0052286022138 0.0051749445696 0.0051274376457 