# vtk DataFile Version 5.1
vtk output
ASCII
DATASET POLYDATA
POINTS 4256 double
58.611110687 -9.4444446564 1.258879255e-14 57.569446564 -9.4444446564 1.2347858264e-14 58.611110687 -12.222222328 1.258879255e-14 
58.611110687 -12.222222328 1.258879255e-14 57.569446564 -9.4444446564 1.2347858264e-14 55.833335876 -12.222222328 1.1946300237e-14 
55.833335876 -12.222222328 1.1946300237e-14 57.569446564 -9.4444446564 1.2347858264e-14 56.597221375 -9.4444446564 1.2122985028e-14 
55.833335876 -12.222222328 1.1946300237e-14 56.597221375 -9.4444446564 1.2122985028e-14 55.833335876 -9.4444446564 1.1946300237e-14 
56.597221375 -9.4444446564 1.2122985028e-14 57.569446564 -9.4444446564 1.2347858264e-14 56.597221375 -1.6319445372 1.2122985028e-14 
56.597221375 -1.6319445372 1.2122985028e-14 57.569446564 -9.4444446564 1.2347858264e-14 57.569446564 -1.6319445372 1.2347858264e-14 
56.597221375 -1.6319445372 1.2122985028e-14 57.569446564 -1.6319445372 1.2347858264e-14 55.416667938 -0.72916668653 1.1849925993e-14 
55.416667938 -0.72916668653 1.1849925993e-14 57.569446564 -1.6319445372 1.2347858264e-14 58.611110687 -1.6319445372 1.258879255e-14 
55.416667938 -0.72916668653 1.1849925993e-14 58.611110687 -1.6319445372 1.258879255e-14 55.416667938 0.72916668653 1.1849925993e-14 
55.416667938 0.72916668653 1.1849925993e-14 58.611110687 -1.6319445372 1.258879255e-14 58.611110687 1.840277791 1.258879255e-14 
55.416667938 0.72916668653 1.1849925993e-14 58.611110687 1.840277791 1.258879255e-14 -59.444450378 1.840277791 -1.4717161213e-14 
-59.444450378 1.840277791 -1.4717161213e-14 -59.444450378 0.72916668653 -1.4717161213e-14 55.416667938 0.72916668653 1.1849925993e-14 
-59.444450378 -0.72916668653 -1.4717161213e-14 -59.444450378 -1.6319445372 -1.4717161213e-14 55.416667938 -0.72916668653 1.1849925993e-14 
55.416667938 -0.72916668653 1.1849925993e-14 -59.444450378 -1.6319445372 -1.4717161213e-14 56.597221375 -1.6319445372 1.2122985028e-14 
56.098491275 -11.258016637 1.2007630012e-14 56.893333599 -10.526225622 1.2191475039e-14 57.075477509 -5.4750625165 1.2233604466e-14 
57.09119043 -5.6013266771 1.2237238825e-14 4.5535728997 -1.12893709 8.5420290281e-17 57.083333969 -7.4895118362 1.2235421646e-14 
57.083333969 -3.5868773573 1.2235421646e-14 -43.444944559 -1.5061926754 -1.1016515837e-14 -55.444573924 -1.6005065717 -1.3791999869e-14 
-53.086810589 -0.72916668653 -1.3246655151e-14 -51.444697469 -1.5690686063 -1.2866838525e-14 -27.445438739 -1.3804408136 -7.3158704613e-15 
57.920569266 -10.380774111 1.242907206e-14 -8.5803378094 1.3482428786 -2.9524201581e-15 -37.191401129 1.6250125168 -9.5700870014e-15 
-56.265630484 0.72916668653 -1.3981908182e-14 -14.940971851 0.72916668653 -4.4236187825e-15 -53.086436307 1.778773427 -1.3246568581e-14 
-34.012394094 1.5942603348 -8.8347906855e-15 57.002758733 -0.44316197031 1.2216784797e-14 4.5555496216 -1.6319445372 8.5877501067e-17 
56.104015879 0 1.2008907839e-14 56.686491968 -1.0880302187 1.2143633091e-14 24.597221375 -1.6319445372 4.7214656706e-15 
40.597221375 -1.6319445372 8.4222253491e-15 48.597221375 -1.6319445372 1.0272605188e-14 52.597221375 -1.6319445372 1.1197795108e-14 
54.597221375 -1.6319445372 1.1660390068e-14 57.222223282 -12.222222328 1.2267546394e-14 56.70139122 -10.833333492 1.214707925e-14 
57.920569266 -10.380774111 1.242907206e-14 57.916666985 -11.432437777 1.2428169472e-14 4.5535728997 -1.12893709 8.5420290281e-17 
-11.44593292 -1.2546889518 -3.6152250855e-15 29.985120419 -0.92905188828 5.9676731416e-15 2.5629641607 -1.3882674046 -3.7500249454e-16 
9.5659675598 -1.6319445372 1.2447745435e-15 -3.4444503784 -1.6319445372 -1.7645023382e-15 17.269346659 -1.0289944892 3.0265467159e-15 
-3.4461800101 -1.1918130209 -1.7649023976e-15 -27.445438739 -1.3804408136 -7.3158704613e-15 42.700894179 -0.82910928741 8.9087995672e-15 
36.343007299 -0.87908058784 7.4382363544e-15 44.597221375 -1.6319445372 9.3474152687e-15 39.521950739 -0.85409493763 8.1735179608e-15 
32.597221375 -1.6319445372 6.5718455099e-15 41.111422459 -0.84160211252 8.541158764e-15 36.597221375 -1.6319445372 7.4970354295e-15 
37.932479019 -0.86658776274 7.8058771576e-15 34.597221375 -1.6319445372 7.0344404697e-15 38.597221375 -1.6319445372 7.9596303893e-15 
49.058781058 -0.77913798697 1.037936278e-14 45.879837619 -0.80412363719 9.6440811736e-15 50.597221375 -1.6319445372 1.0735200148e-14 
47.469309338 -0.79163081208 1.0011721977e-14 44.290365899 -0.8166164623 9.2764403704e-15 46.597221375 -1.6319445372 9.8100102285e-15 
42.597221375 -1.6319445372 8.8848203089e-15 33.164063859 -0.90406623806 6.702954748e-15 31.574592139 -0.91655906317 6.3353139448e-15 
34.753535579 -0.89157341295 7.0705955512e-15 28.597221375 -1.6319445372 5.6466555902e-15 30.597221375 -1.6319445372 6.10925055e-15 
14.576385498 -1.6319445372 2.4036715858e-15 23.627233539 -0.97902318872 4.4971099288e-15 10.91145978 -1.0789657896 1.5559835031e-15 
26.806176979 -0.9540375385 5.2323915352e-15 19.586803436 -1.6319445372 3.5625686282e-15 25.216705259 -0.96653036361 4.864750732e-15 
22.092012405 -1.6319445372 4.1420171494e-15 28.395648699 -0.94154471339 5.6000323384e-15 26.597221375 -1.6319445372 5.1840606304e-15 
20.448290099 -1.0040088389 3.7618283223e-15 22.037761819 -0.99151601383 4.1294691256e-15 17.081594467 -1.6319445372 2.983120107e-15 
14.090403219 -1.0539801394 2.2912651095e-15 52.237724498 -0.75415233675 1.1114644386e-14 53.827196218 -0.74165951164 1.148228519e-14 
50.648252778 -0.76664516186 1.0747003583e-14 7.0607585907 -1.3705919434 6.6532602226e-16 12.071176529 -1.6319445372 1.8242230646e-15 
57.013889313 1.2847222388 1.2219359272e-14 57.025019892 -0.45961588032 1.2221933747e-14 58.611110687 0.36805546284 1.258879255e-14 
57.971920393 1.1041666269 1.2440949446e-14 56.423346573 0.40874942818 1.2082768224e-14 58.123944007 -0.63194453716 1.2476112125e-14 
-5.3888893127 1.840277791 -2.2142461635e-15 56.597221375 -5.6319445372 1.2122985028e-14 57.569446564 -5.4444446564 1.2347858264e-14 
26.611110687 1.840277791 5.1872731935e-15 42.611110687 1.840277791 8.888032872e-15 50.611110687 1.840277791 1.0738412711e-14 
54.611110687 1.840277791 1.1663602631e-14 4.5525553693 1.221201599 8.5184938051e-17 56.611110687 1.840277791 1.2126197591e-14 
29.984611654 0.97518414276 5.9675554655e-15 55.611110687 1.7177086492 1.1894900111e-14 42.700639796 0.85217541465 8.9087407292e-15 
49.058653867 0.79067105059 1.0379333361e-14 36.342625725 0.91367977871 7.4381480973e-15 46.611110687 1.840277791 9.8132227916e-15 
39.52163276 0.88292759668 8.1734444133e-15 38.611110687 1.840277791 7.9628429523e-15 52.237660903 0.75991886856 1.1114629677e-14 
53.82716442 0.74454277755 1.1482277835e-14 56.722117201 1.1832362336 1.2151873117e-14 45.879646832 0.82142323262 9.6440370451e-15 
52.611110687 1.840277791 1.1201007671e-14 51.611110687 1.5812247291 1.0969710191e-14 53.611110687 1.7274245773 1.1432305151e-14 
50.648157385 0.77529495958 1.0746981519e-14 48.611110687 1.840277791 1.0275817751e-14 44.611110687 1.840277791 9.3506278318e-15 
49.611110687 1.6464514597 1.0507115231e-14 47.469150349 0.80604714161 1.0011685203e-14 47.611110687 1.7968707552 1.0044520271e-14 
45.611110687 1.7862090964 9.5819253117e-15 44.290143314 0.83679932363 9.2763888871e-15 43.611110687 1.6070618539 9.1193303519e-15 
34.611110687 1.840277791 7.0376530327e-15 33.163618689 0.94443196073 6.7028517814e-15 40.611110687 1.840277791 8.4254379121e-15 
34.753122207 0.92905586972 7.0704999394e-15 30.611110687 1.840277791 6.1124631131e-15 28.611110687 1.840277791 5.6498681533e-15 
31.574115172 0.95980805175 6.3352036234e-15 36.611110687 1.840277791 7.5002479925e-15 32.611110687 1.840277791 6.5750580729e-15 
37.932129243 0.89830368769 7.8057962553e-15 41.111136278 0.86755150566 8.5410925712e-15 17.268583512 1.0981928709 3.0263702018e-15 
23.626597583 1.0366885068 4.4969628336e-15 26.805604618 1.0059363248 5.2322591495e-15 24.611110687 1.840277791 4.7246782337e-15 
28.395108136 0.99056023378 5.5999073075e-15 10.611110687 1.840277791 1.486513515e-15 18.611110687 1.840277791 3.3368933542e-15 
14.611110687 1.840277791 2.4117034346e-15 20.447590547 1.0674406888 3.7616665177e-15 16.611110687 1.840277791 2.8742983944e-15 
18.858087029 1.0828167799 3.3940183597e-15 22.611110687 1.840277791 4.2620832738e-15 22.037094065 1.0520645978 4.1293146757e-15 
25.2161011 1.0213124158 4.8646109916e-15 20.611110687 1.840277791 3.799488314e-15 10.91056944 1.1596972349 1.5557775699e-15 
12.611110687 1.840277791 1.9491084748e-15 7.7315624048 1.190449417 8.2048125398e-16 9.3210659226 1.1750733259 1.1881294119e-15 
14.089576476 1.1289450529 2.2910738858e-15 15.679079994 1.1135689619 2.6587220438e-15 12.500072958 1.1443211439 1.9234257279e-15 
2.6111106873 1.840277791 -3.6386632427e-16 -27.445947505 1.530739695 -7.3159881374e-15 -11.446696068 1.375970647 -3.6154015997e-15 
-3.4470703492 1.298586123 -1.7651083308e-15 0.55274251003 1.259893861 -8.3996169638e-16 -1.3888893127 1.840277791 -1.2890562439e-15 
-7.4468832084 1.337278385 -2.6902549653e-15 2.5526489396 1.24054773 -3.7738837917e-16 -3.3888893127 1.840277791 -1.7516512037e-15 
-1.4471639196 1.279239992 -1.3025350136e-15 0.61111068726 1.840277791 -8.2646128408e-16 -5.4469767788 1.317932254 -2.227681648e-15 
-27.444450378 1.840277791 -7.3156418559e-15 -35.444450378 1.840277791 -9.1660216952e-15 -21.930560112 1.840277791 -6.0402929328e-15 
-43.445198941 1.685508743 -1.1016574675e-14 -16.416669846 1.840277791 -4.7649440097e-15 -43.444450378 1.840277791 -1.1016401534e-14 
-10.902779579 1.840277791 -3.4895950866e-15 -13.659724712 1.840277791 -4.1272695482e-15 -8.145834446 1.840277791 -2.8519206251e-15 
6.6111106873 1.840277791 5.6132359535e-16 6.142058887 1.205825508 4.5283309602e-16 8.6111106873 1.840277791 1.0239185552e-15 
4.6111106873 1.840277791 9.8728635539e-17 -19.446321786 1.453355171 -5.4656948686e-15 -19.173614979 1.840277791 -5.4026184713e-15 
-23.446134645 1.492047433 -6.390841503e-15 -15.446508927 1.414662909 -4.5405482341e-15 -8.5833320618 0.72916668653 -2.9531127211e-15 
[...]
CELL_DATA 3823
FIELD FieldData 1
electrode_index 1 3823 int
0 0 0 0 0 0 0 0 0 
0 0 0 0 0 0 0 0 0 
0 0 0 0 0 0 0 0 0 
0 0 0 0 0 0 0 0 0 
0 0 0 0 0 0 0 0 0 
0 0 0 0 0 0 0 0 0 
0 0 0 0 0 0 0 0 0 
0 0 0 0 0 0 0 0 0 
0 0 0 0 0 0 0 0 0 
0 0 0 0 0 0 0 0 0 
0 0 0 0 0 0 0 0 0 
0 0 0 0 0 0 0 0 0 
0 0 0 0 0 0 0 0 0 
0 0 0 0 0 0 0 0 0 
0 0 0 0 0 0 0 0 0 
0 0 0 0 0 0 0 0 0 
0 0 0 0 0 0 0 0 0 
0 0 0 0 0 0 0 0 0 
0 0 0 0 0 0 0 0 0 
0 0 0 0 0 0 0 0 0 
0 0 0 0 0 0 0 0 0 
0 0 0 0 0 0 0 0 0 
0 0 0 0 0 0 0 0 0 
0 0 0 0 0 0 0 0 0 
0 0 0 0 0 0 0 0 0 
0 0 0 0 0 0 0 0 0 
0 0 0 0 0 0 0 0 0 
0 0 0 0 0 0 0 0 0 
0 0 0 0 0 0 0 0 0 
0 0 0 0 0 0 0 0 0 
0 0 0 0 0 0 0 0 0 
0 0 0 0 0 0 0 0 0 
0 0 0 0 0 0 0 0 0 
0 0 0 0 0 0 0 0 0 
0 0 0 0 0 0 0 0 0 
0 0 0 0 0 0 0 0 0 
0 0 0 0 0 0 0 0 0 
0 0 0 0 0 0 0 0 0 
0 0 0 0 0 0 0 0 0 
0 0 0 0 0 0 0 0 0 
0 0 0 0 0 0 0 0 0 
0 0 0 0 0 0 0 0 0 
0 0 0 0 0 0 0 0 0 
0 0 0 0 0 0 0 0 1 
1 1 1 1 1 2 2 2 2 
2 2 2 2 2 2 2 2 2 
2 2 2 2 2 2 2 2 2 
2 2 2 2 2 2 2 2 2 
2 2 2 2 2 2 2 2 2 
2 2 2 2 2 2 2 2 2 
2 2 2 2 2 2 2 2 2 
2 2 2 2 2 2 2 2 2 
2 2 2 2 2 2 2 2 2 
2 2 2 2 2 2 2 2 2 
2 2 2 2 2 2 2 2 2 
2 2 2 2 2 2 2 2 2 
2 2 2 2 2 2 2 2 2 
2 2 2 2 2 2 2 2 2 
2 2 2 2 2 2 2 2 2 
2 2 2 2 2 2 2 2 2 
2 2 2 2 2 2 2 2 2 
2 2 2 2 2 2 2 2 2 
2 2 2 2 2 2 2 2 2 
2 2 2 2 2 2 2 2 2 
2 2 2 2 2 2 2 2 2 
2 2 2 2 2 2 2 2 2 
2 2 2 2 2 2 2 2 2 
2 2 2 2 2 2 2 2 2 
2 2 2 2 2 2 2 2 2 
2 2 2 2 2 2 2 2 2 
2 2 2 2 2 2 2 2 2 
2 2 2 2 2 2 2 2 2 
2 2 2 2 2 2 3 3 3 
3 3 3 3 3 3 3 3 3 
3 3 3 3 3 3 3 3 3 
3 3 3 3 3 3 3 3 3 
3 3 3 3 3 3 3 3 3 
3 3 3 3 3 3 3 3 3 
3 3 3 3 3 3 3 3 3 
3 3 3 3 3 3 3 3 3 
3 3 3 3 3 3 3 3 4 
4 4 4 4 4 4 4 4 4 
4 4 4 4 4 4 4 4 4 
4 4 4 4 4 4 4 4 4 
4 4 4 4 4 4 4 4 4 
4 4 4 4 4 4 4 4 4 
4 4 4 4 4 4 4 4 4 
4 4 4 4 4 4 4 4 4 
4 4 4 4 4 4 4 4 4 
4 4 4 4 4 4 4 4 4 
4 4 4 4 4 4 4 4 4 
4 4 4 4 4 4 4 4 4 
4 4 4 4 4 4 4 4 4 
4 4 4 4 4 4 5 5 5 
5 5 5 5 5 5 5 5 5 
5 5 5 5 5 5 5 5 5 
5 5 5 5 5 5 5 5 5 
5 5 5 5 5 5 5 5 5 
5 5 5 5 5 5 5 5 5 
5 5 5 5 5 5 5 5 5 
5 5 5 5 5 5 5 5 5 
5 5 5 5 5 5 5 5 5 
5 5 5 5 5 5 5 5 5 
5 5 5 5 5 5 5 5 5 
5 5 5 5 5 5 5 5 5 
5 5 5 5 5 5 5 5 5 
5 5 5 5 5 5 5 5 5 
5 5 5 5 5 5 5 5 5 
5 5 5 5 5 5 5 5 5 
5 5 5 5 5 5 5 5 5 
5 5 5 5 5 5 5 5 5 
5 5 5 5 5 5 5 5 5 
5 5 5 5 5 5 5 5 5 
5 5 5 5 5 5 5 5 5 
5 5 5 5 5 5 5 5 5 
5 5 5 5 5 5 5 5 5 
5 5 5 5 5 5 5 5 5 
5 5 5 5 5 5 5 5 5 
5 5 5 5 5 5 5 5 5 
5 5 5 5 5 5 5 5 5 
5 5 5 5 5 5 5 5 5 
5 5 5 5 5 5 5 5 5 
5 5 5 5 5 5 5 5 5 
5 5 5 5 5 5 5 5 5 
5 5 5 5 5 5 5 5 5 
5 5 5 5 5 5 5 5 5 
5 5 5 5 5 5 5 5 5 
5 5 5 5 5 5 5 5 5 
5 5 5 5 5 5 5 5 5 
5 5 5 5 5 5 5 5 5 
5 5 5 5 5 5 5 5 5 
5 5 5 5 5 5 5 5 5 
5 5 5 5 5 5 5 5 5 
5 5 5 5 5 5 5 5 5 
5 5 5 5 5 5 5 5 5 
5 5 5 5 5 5 5 5 5 
5 5 5 5 5 5 5 6 6 
6 6 6 6 6 6 6 6 6 
6 6 6 6 6 6 6 6 6 
6 6 6 6 6 6 6 6 6 
6 6 6 6 6 6 6 6 6 
6 6 6 6 6 6 6 6 6 
6 6 6 6 6 6 6 6 6 
6 6 6 6 6 6 6 6 6 
6 6 6 6 6 6 6 6 6 
6 6 6 6 6 6 6 6 6 
6 6 6 6 6 6 6 6 6 
6 6 6 6 6 6 6 6 6 
6 6 6 6 6 6 6 6 6 
6 6 6 6 6 6 6 6 6 
6 6 6 6 6 6 6 6 6 
6 6 6 6 6 6 6 6 6 
6 6 6 6 6 6 6 6 6 
6 6 6 6 6 6 6 6 6 
6 6 6 6 6 6 6 6 6 
6 6 6 6 6 6 6 6 6 
6 6 6 6 6 6 6 6 6 
6 6 6 6 6 6 6 6 6 
6 6 6 6 6 6 6 6 6 
6 6 6 6 6 6 6 6 6 
6 6 6 6 6 6 6 6 6 
6 6 6 6 6 6 6 6 6 
6 6 6 6 6 6 6 6 6 
6 6 6 6 6 6 6 6 6 
6 6 6 6 6 6 6 6 6 
6 6 6 6 6 6 6 6 6 
6 6 6 6 6 6 6 6 6 
6 6 6 6 6 6 6 6 6 
6 6 6 6 6 6 6 6 6 
6 6 6 6 6 6 6 6 6 
6 6 6 6 6 6 6 6 6 
6 6 6 6 6 6 6 6 6 
6 6 6 6 6 6 6 6 6 
6 6 6 6 6 6 6 6 6 
6 6 6 7 7 7 7 7 7 
7 7 7 7 7 7 7 7 7 
7 7 7 7 7 7 7 7 7 
7 7 7 7 7 7 7 7 7 
7 7 7 7 7 7 7 7 7 
7 7 7 7 7 7 7 7 7 
7 7 7 7 7 7 7 7 7 
7 7 7 7 7 7 7 7 7 
7 7 7 7 7 7 7 7 7 
7 7 7 7 7 7 7 7 7 
7 7 7 7 7 7 7 7 7 
7 7 7 7 7 7 7 7 7 
7 7 7 7 7 7 7 7 7 
7 7 7 7 7 7 7 7 7 
7 7 7 7 7 7 7 7 7 
7 7 7 7 7 7 7 7 7 
7 7 7 7 7 7 7 7 7 
7 7 7 7 7 7 7 7 7 
7 7 7 7 7 7 7 7 7 
7 7 7 7 7 7 7 7 7 
7 7 7 7 7 7 7 7 7 
7 7 7 7 7 7 7 7 7 
7 7 7 7 7 7 7 7 7 
7 7 7 7 7 7 7 7 7 
7 7 7 7 7 7 7 7 7 
7 7 7 7 7 7 7 7 7 
7 7 7 7 7 7 7 7 7 
7 7 7 7 7 7 7 7 7 
7 7 7 7 7 7 7 7 7 
7 7 7 7 7 7 7 7 7 
7 7 7 7 7 7 7 7 7 
7 7 7 7 7 7 7 7 7 
7 7 7 7 7 7 7 7 7 
7 7 7 7 7 7 7 7 7 
7 7 7 7 7 7 7 7 7 
7 7 7 7 7 7 7 7 7 
7 7 7 7 7 7 7 7 7 
7 7 7 7 7 7 7 7 7 
7 7 7 7 7 7 7 7 7 
7 7 7 7 7 8 8 8 8 
8 8 8 8 8 8 8 8 8 
8 8 8 8 8 8 8 8 8 
8 8 8 8 8 8 8 8 8 
8 8 8 8 8 8 8 8 8 
8 8 8 8 8 8 8 8 8 
8 8 8 8 8 8 8 8 8 
8 8 8 8 8 8 8 8 8 
8 8 8 8 8 8 8 8 8 
8 8 8 8 8 8 8 8 8 
8 8 8 8 8 8 8 8 8 
8 8 8 8 8 8 8 8 8 
8 8 8 8 8 8 8 8 8 
8 8 8 8 8 8 8 8 8 
8 8 8 8 8 8 8 8 8 
8 8 8 8 8 8 9 9 9 
9 9 9 9 9 9 9 9 9 
9 9 9 9 9 9 9 9 9 
9 9 9 9 9 9 9 9 9 
9 9 9 9 9 9 9 9 9 
9 9 9 9 9 9 9 9 9 
9 9 9 9 9 9 9 9 9 
9 9 9 9 9 9 9 9 9 
9 9 9 9 9 9 9 9 9 
9 10 10 10 10 10 10 10 10 
10 10 10 10 10 10 10 10 10 
10 10 10 10 10 10 10 10 10 
10 10 10 10 10 10 10 10 10 
10 10 10 10 10 10 10 10 10 
10 10 10 10 10 10 10 10 10 
10 10 10 10 10 10 10 10 10 
10 10 10 10 10 10 10 10 10 
10 10 10 10 10 10 10 10 11 
11 11 11 11 11 11 11 11 11 
11 11 11 11 11 11 11 11 11 
11 11 11 11 11 11 11 11 11 
11 11 11 11 11 11 11 11 11 
11 11 11 11 11 11 11 11 11 
11 11 11 11 11 11 11 11 11 
11 11 11 11 11 11 11 11 11 
11 11 11 11 11 11 11 11 11 
11 11 11 11 11 11 12 12 12 
12 12 12 12 12 12 12 12 12 
12 12 12 12 12 12 12 12 12 
12 12 12 12 12 12 12 12 12 
12 12 12 12 12 12 12 12 12 
12 12 12 12 12 12 12 12 12 
12 12 12 12 12 12 12 12 12 
12 12 12 12 12 12 12 12 12 
12 12 12 12 12 12 12 12 12 
12 12 12 12 12 12 12 12 12 
12 12 13 13 13 13 13 13 13 
13 13 13 13 13 13 13 13 13 
13 13 13 13 13 13 13 13 13 
13 13 13 13 13 13 13 13 13 
13 13 13 13 13 13 13 13 13 
13 13 13 13 13 13 13 13 13 
13 13 13 13 13 13 13 13 13 
13 13 13 13 13 13 13 13 13 
13 13 13 13 13 13 13 13 13 
13 13 13 13 13 13 13 13 13 
13 14 14 14 14 14 14 14 14 
14 14 14 14 14 14 14 14 14 
14 14 14 14 14 14 14 14 14 
14 14 14 14 14 14 14 14 14 
14 14 14 14 14 14 14 14 14 
14 14 14 14 14 14 14 14 14 
14 14 14 14 14 14 14 14 14 
14 14 14 14 14 14 14 14 14 
14 14 14 14 14 14 14 14 14 
14 14 14 14 14 14 14 14 14 
14 14 14 14 14 14 14 14 14 
14 14 14 14 14 14 14 14 14 
14 14 14 14 14 14 14 14 14 
14 14 14 14 14 14 14 14 14 
14 14 14 14 14 14 14 14 14 
14 14 14 14 14 14 14 14 14 
14 14 14 14 14 14 14 14 14 
14 14 14 14 14 14 14 14 14 
14 14 14 14 14 14 14 14 14 
14 14 14 14 14 14 14 14 14 
14 14 14 14 14 14 14 14 14 
14 14 14 14 14 14 14 14 14 
14 14 14 14 14 14 14 14 14 
14 14 14 14 14 14 14 14 14 
14 14 14 14 14 14 14 14 14 
14 14 14 14 14 14 14 14 14 
14 14 14 14 14 14 14 14 14 
14 14 14 14 14 14 14 14 14 
14 14 14 14 14 14 14 14 14 
14 14 14 14 14 14 14 14 14 
14 14 14 15 15 15 15 15 15 
15 15 15 15 15 15 15 15 15 
15 15 15 15 15 15 15 15 15 
15 15 15 15 15 15 15 15 15 
15 15 15 15 15 15 15 15 15 
15 15 15 15 15 15 15 15 15 
15 15 15 15 15 15 15 15 15 
15 15 15 15 15 15 15 15 15 
15 15 15 15 15 15 15 15 15 
15 15 15 15 15 15 15 15 15 
15 15 15 15 15 15 15 15 15 
15 15 15 15 15 15 15 15 15 
15 15 15 15 15 15 15 15 15 
15 15 15 15 15 15 15 15 15 
15 15 15 15 15 15 15 15 15 
15 15 15 15 15 15 15 15 15 
15 15 15 15 15 15 15 16 16 
16 16 16 16 16 16 16 16 16 
16 16 16 16 16 16 16 16 16 
16 16 16 16 16 16 16 16 16 
16 16 16 16 16 16 16 16 16 
16 16 16 16 16 16 16 16 16 
16 16 16 16 16 16 16 16 16 
16 16 16 16 16 16 16 16 16 
16 16 16 16 16 16 16 16 16 
16 16 16 16 16 16 16 16 16 
16 16 16 16 16 16 16 16 16 
16 16 16 16 16 16 16 16 16 
16 16 16 16 16 16 16 16 16 
16 16 16 16 16 16 16 16 16 
16 16 16 16 16 16 16 16 16 
16 16 16 16 16 16 16 16 16 
16 16 16 16 16 16 16 16 16 
16 16 16 16 16 16 16 16 16 
16 16 16 16 16 16 16 16 16 
16 16 16 16 16 16 16 16 16 
16 16 16 16 16 16 16 16 16 
16 16 16 16 16 16 16 16 16 
16 16 16 16 16 16 16 16 16 
16 16 16 16 16 16 16 16 16 
16 16 16 16 16 16 16 16 16 
16 16 16 16 16 16 16 16 16 
16 16 16 16 16 16 16 16 17 
17 17 17 17 17 17 17 17 17 
17 17 17 17 17 17 17 17 17 
17 17 17 17 17 17 17 17 17 
17 17 17 17 17 17 17 17 17 
17 17 17 17 17 17 17 17 17 
17 17 17 17 17 17 17 17 17 
17 17 17 17 17 17 17 17 17 
17 17 17 17 17 17 17 17 17 
17 17 17 17 17 17 17 17 17 
17 17 17 17 17 17 17 17 17 
17 17 17 17 17 17 17 17 17 
17 17 17 17 17 17 17 17 17 
17 17 17 17 17 17 17 17 17 
17 17 17 17 17 17 17 17 17 
17 17 17 17 17 17 17 17 17 
17 17 17 17 17 17 17 17 17 
17 17 17 17 17 17 17 17 17 
17 17 17 17 17 17 17 17 17 
17 17 17 17 17 17 17 17 17 
17 17 17 17 17 17 17 17 17 
17 17 17 17 17 17 17 17 17 
17 17 17 17 17 17 17 17 17 
17 17 17 17 17 17 17 17 17 
17 17 17 17 17 17 17 17 17 
17 17 17 17 17 17 17 17 17 
17 17 17 17 17 17 17 17 17 
17 17 17 17 17 17 17 17 17 
17 17 17 17 17 17 17 17 17 
17 17 17 17 17 17 17 17 17 
17 17 17 17 17 17 17 17 17 
17 17 17 17 17 17 17 17 17 
17 17 17 17 17 17 17 17 17 
17 17 17 18 18 18 18 18 18 
18 18 18 18 18 18 18 18 18 
18 18 18 18 18 18 18 18 18 
18 18 18 18 18 18 18 18 18 
18 18 18 18 18 18 18 18 18 
18 18 18 18 18 18 18 18 18 
18 18 18 18 18 18 18 18 18 
18 18 18 18 18 18 18 18 18 
18 18 18 18 18 18 18 18 18 
18 18 18 18 18 18 18 18 18 
18 18 18 18 18 18 18 18 18 
18 18 18 18 18 18 18 18 18 
18 18 18 18 18 18 18 18 18 
18 18 18 18 18 18 18 18 18 
18 18 18 18 18 19 19 19 19 
19 19 19 19 19 19 19 19 19 
19 19 19 19 19 19 19 19 19 
19 19 19 19 19 19 19 19 19 
19 19 19 19 19 19 19 19 19 
19 19 19 19 19 19 19 19 19 
19 19 19 19 19 19 19 19 19 
19 19 19 19 19 19 19 19 19 
19 19 19 19 19 19 19 19 19 
19 20 20 20 20 20 20 20 20 
20 20 20 20 20 20 20 20 20 
20 20 20 20 20 20 20 20 20 
20 20 20 20 20 20 20 20 20 
20 20 20 20 20 20 20 20 20 
20 20 20 20 20 20 20 20 20 
20 20 20 20 20 20 20 20 20 
20 20 20 20 20 20 20 21 21 
21 21 21 21 21 21 21 21 21 
21 21 21 21 21 21 21 21 21 
21 21 21 21 21 21 21 21 21 
21 21 21 21 21 21 21 21 21 
21 21 21 21 21 21 21 21 21 
21 21 21 21 21 21 21 21 21 
21 21 21 21 21 21 21 21 21 
21 21 22 22 22 22 22 22 22 
22 22 22 22 22 22 22 22 22 
22 22 22 22 22 22 22 22 22 
22 22 22 22 22 22 22 22 22 
22 22 22 22 22 22 22 22 22 
22 22 22 22 22 22 22 22 22 
22 22 22 22 22 22 22 22 22 
22 22 22 22 22 22 22 
