# vtk DataFile Version 5.1
vtk output
ASCII
DATASET STRUCTURED_POINTS
DIMENSIONS 50 50 50
SPACING 0.002 0.002 0.002
ORIGIN 0.0482 -0.052672 0.02732
POINT_DATA 125000
FIELD FieldData 1
potential 1 125000 double
0.0061384771756 0.0062414955816 0.0063469369703 0.0064548116393 0.0065651777851 0.0066780712619 0.0067935346815 0.0069122745913 0.0070330368913 
0.0071565302293 0.0072828455281 0.0074119448891 0.0075442720148 0.0076796385334 0.0078182212645 0.0079600610234 0.0081053261517 0.0082541165137 
0.0084065654788 0.0085628035524 0.0087229104957 0.0088870584742 0.0090552392052 0.0092276665355 0.0094044087374 0.0095856090381 0.0097713344059 
0.0099617928478 0.010157037008 0.010357238467 0.010562485554 0.010772942106 0.010988640804 0.011209691949 0.011436162799 0.011668091732 
0.011905576526 0.0121486139 0.012397127092 0.012651279686 0.012911057691 0.013176552373 0.013447787755 0.013724819483 0.014007764639 
0.014296626464 0.014591645946 0.014892831196 0.015200322065 0.01551414186 0.006082007639 0.0061832504622 0.0062868266534 0.006392802379 
0.0065011595011 0.0066119526732 0.0067252307542 0.0068411563712 0.0069595389707 0.007081103845 0.0072048602489 0.0073314029135 0.0074607373609 
0.0075933398019 0.0077289238782 0.0078676879706 0.0080097345391 0.0081552071986 0.0083042087389 0.0084567847737 0.0086131531 0.0087733488559 
0.0089375217107 0.0091056993034 0.0092780585534 0.0094546347254 0.0096356054839 0.0098210125734 0.010011093331 0.010205860241 0.010405474547 
0.010609994798 0.010819577605 0.011034222225 0.011254024753 0.011478994489 0.011709201794 0.011944626701 0.012185354011 0.012431261427 
0.012682499901 0.012939065695 0.013201023689 0.013468406316 0.013741379949 0.014019889351 0.014304043068 0.014594003309 0.014889801464 
0.015191528852 0.0060237226444 0.0061231741935 0.0062248956786 0.0063289079806 0.0064352506892 0.0065439468214 0.0066550579948 0.0067687001089 
0.0068847226531 0.0070032912167 0.0071244843441 0.0072489152459 0.0073756037778 0.0075050842356 0.0076378243537 0.0077735434848 0.0079124299656 
0.0080546013176 0.0082001820207 0.0083492514509 0.0085019203063 0.0086582224251 0.0088183854814 0.0089823903012 0.0091503835928 0.009322446895 
0.0094986750056 0.0096792168666 0.0098641262475 0.010053601817 0.010247650168 0.010446403251 0.010649920731 0.010858298352 0.011071555399 
0.011289717669 0.011512825258 0.011740850082 0.011973873923 0.012211805435 0.012454717561 0.012702601985 0.012955575237 0.013213622862 
0.013476847537 0.013745297397 0.01401910467 0.014298244372 0.014582855056 0.014872960056 0.0059630583136 0.0060607060859 0.0061605592614 
0.0062626149069 0.006366926578 0.006473508926 0.0065823984596 0.0066936466987 0.0068074068376 0.0069235136642 0.0070421631455 0.0071634088353 
0.007287345339 0.0074139929334 0.0075442566133 0.007676925975 0.0078126923911 0.0079515799737 0.0080937749196 0.0082393153637 0.0083883165758 
0.0085408793629 0.0086970778632 0.0088568820032 0.009020561057 0.0091881687114 0.0093597396862 0.009535408079 0.0097152859911 0.0098994529423 
0.010088065778 0.010281107124 0.010478695317 0.010680853654 0.010887683243 0.011099148043 0.011315270412 0.011536062499 0.011761563824 
0.011991652833 0.012226442049 0.01246591706 0.012710111141 0.012959060041 0.013212866775 0.01347158905 0.013735276515 0.014003980764 
0.014277834612 0.014556778308 0.0058995914098 0.0059954173457 0.006093369873 0.0061934559176 0.006295709984 0.0064001717047 0.0065068398811 
0.0066157808431 0.006727150791 0.0068407798062 0.0069568473456 0.0070754304881 0.0071966137968 0.0073205198338 0.0074471013583 0.0075768322327 
0.0077099121412 0.0078455850715 0.0079843769119 0.008126426507 0.0082717797204 0.0084205531165 0.0085727699361 0.008728608892 0.0088880262851 
0.009051099987 0.0092180496305 0.0093889095864 0.0095637645965 0.0097427325889 0.0099258784917 0.010113318128 0.010305032488 0.010501104795 
0.010701555109 0.010906435706 0.011115705294 0.011329363326 0.011547404518 0.011769877066 0.01199670323 0.012227919996 0.012463566785 
0.012703713128 0.012948346994 0.013197604004 0.013451506302 0.013710111233 0.013973474218 0.014241631596 0.005833052241 0.005927034557 
0.0060230607117 0.0061211501257 0.0062213274576 0.0063236194127 0.0064280591083 0.0065346746739 0.0066435269251 0.0067547675501 0.0068682481734 
0.0069841619906 0.0071025733537 0.0072235992988 0.0073473137114 0.0074738499782 0.0076032850552 0.0077357022961 0.0078711244162 0.008010170865 
0.0081519044587 0.0082968929187 0.0084451915508 0.0085969514459 0.0087521178818 0.0089108397401 0.0090732303191 0.0092391998479 0.0094090829082 
0.0095828476147 0.0097606450345 0.0099424478251 0.01012835366 0.010318429945 0.010512621507 0.010710962969 0.010913473285 0.011120138431 
0.011330901322 0.011545840745 0.011764841605 0.011987977623 0.012215254672 0.012446743886 0.012682478883 0.012922487949 0.013166877128 
0.013415661283 0.013668905617 0.013926626193 0.0057633506681 0.0058554503217 0.0059495227109 0.0060455839038 0.0061436589708 0.0062437683674 
0.006345935318 0.0064502090572 0.0065566267403 0.0066653504882 0.0067762293225 0.0068894480066 0.0070050791662 0.0071232375889 0.0072439814996 
0.0073674152079 0.007493668703 0.0076227815818 0.0077548693185 0.0078898789635 0.008027952379 0.0081696926413 0.0083141001981 0.0084617276113 
0.0086127178371 0.0087670422808 0.0089248429783 0.0090861694649 0.0092511160163 0.009419626934 0.0095920549187 0.0097683281223 0.0099484780103 
0.010132538709 0.010320567725 0.010512494978 0.010708325839 0.010908087766 0.011111703337 0.011319182158 0.011530559545 0.011745765448 
0.011964846211 0.012187865207 0.01241488411 0.012645924325 0.012881053874 0.013120265345 0.013363649396 0.01361123554 0.0056905620475 
0.0057807496007 0.0058728425797 0.0059668433578 0.0060627864733 0.0061606876636 0.0062605705376 0.0063624697678 0.0064664384179 0.0065725152087 
0.0066808770615 0.0067913867016 0.0069042278165 0.0070194881938 0.007137250894 0.0072576139054 0.0073806516972 0.0075065132596 0.0076351271443 
0.007766704777 0.0079011347695 0.0080385539806 0.0081790210582 0.0083225960287 0.0084698915812 0.0086198181255 0.008773039685 0.0089296648396 
0.0090896887713 0.009253222623 0.0094203384311 0.0095909673532 0.0097654105005 0.0099435740199 0.010125442681 0.010311061184 0.010500323788 
0.010693266754 0.010889855687 0.011090049478 0.011293909485 0.011501331414 0.011712385529 0.011927124336 0.01214559924 0.01236786555 
0.012593935238 0.012823871086 0.013057694191 0.01329540828 0.005614934607 0.0057031814487 0.0057932660211 0.0058851947988 0.0059789830723 
0.0060746510714 0.0061722246056 0.0062717335148 0.0063732318326 0.0064767547274 0.0065824775054 0.0066902673991 0.0068003007788 0.0069126630545 
0.0070274449971 0.007144710464 0.0072645555614 0.0073871515256 0.007512364941 0.0076403404548 0.0077712169167 0.0079048622777 0.0080413997283 
0.0081809176134 0.0083234975017 0.008469052397 0.0086177190938 0.0087701105539 0.0089252494809 0.0090837140447 0.0092455708188 0.0094108914127 
0.0095797006219 0.0097520166753 0.0099277049439 0.01010700813 0.010289848444 0.010476100419 0.010665750112 0.010858807312 0.011055279874 
0.011255081087 0.011458278212 0.011664919144 0.011875057995 0.012088722575 0.012306003293 0.012526890821 0.012751396178 0.012979546246 
0.005536894559 0.0056231702743 0.0057112208818 0.0058010452321 0.005892654613 0.0059860783464 0.0060813237382 0.0061784378715 0.006277455383 
0.0063784219287 0.0064815049621 0.0065865693551 0.006693793102 0.0068032577433 0.0069150483501 0.0070292379815 0.0071458924928 0.0072651050017 
0.0073869631277 0.0075114659548 0.0076386146999 0.0077686035696 0.0079012350808 0.0080367068827 0.0081750087574 0.0083162737653 0.0084604526424 
0.0086076275901 0.0087579170677 0.0089113508222 0.0090685266225 0.0092284428785 0.00939167098 0.0095582158203 0.0097280891144 0.0099012438625 
0.010077494816 0.010257206563 0.010440065613 0.010626102353 0.010815308039 0.011007695591 0.011203223077 0.011401985539 0.011603985299 
0.011809299463 0.012017982815 0.012230035102 0.012445520712 0.0126643453 0.005456811695 0.0055412406204 0.0056272410826 0.0057149472852 
0.0058043702946 0.0058955326311 0.0059884484021 0.0060831507738 0.0061796907074 0.0062781007132 0.0063784468672 0.0064808945853 0.0065853132034 
0.0066918949413 0.0068007066476 0.0069118200219 0.0070253093576 0.007141230957 0.0072596467099 0.0073806698656 0.0075042434134 0.0076304781038 
0.0077592389161 0.0078906559907 0.008024813736 0.0081617628028 0.0083014493177 0.0084439848125 0.0085894979925 0.0087379685224 0.0088894775872 
0.0090440822321 0.009201808448 0.009363190592 0.0095271899602 0.0096942918049 0.0098644663275 0.010037692395 0.010213712727 0.010392927137 
0.010575058284 0.010760191395 0.010948221621 0.011139267917 0.011333353206 0.011530537545 0.011730849472 0.011934364211 0.012141049062 
0.012350866289 0.0053755504843 0.0054578571433 0.0055418038249 0.0056273822369 0.005714747707 0.0058036498221 0.0058942393141 0.0059865448458 
0.006080607673 0.0061764780943 0.0062742049962 0.00637395351 0.0064755924319 0.0065792943212 0.0066851425799 0.0067932086889 0.0069035470338 
0.0070162211556 0.0071312630151 0.0072488551213 0.0073687973905 0.0074912084077 0.0076162421123 0.0077436756534 0.0078736981503 0.0080063157968 
0.0081416515638 0.0082796229948 0.0084203696976 0.0085639512948 0.0087104103033 0.0088597838123 0.0090121061953 0.0091674016754 0.0093256417729 
0.0094868125782 0.0096513743483 0.0098182927737 0.0099880346022 0.010160531539 0.010335822483 0.010513570748 0.010694415171 0.01087797433 
0.011064378608 0.011253670598 0.011445886536 0.01164106282 0.011839244916 0.0120403685 0.0052936004763 0.0053739137759 0.0054558069076 
0.0055392729709 0.0056243256549 0.0057109783022 0.0057993727076 0.0058893023997 0.0059809165131 0.0060742640284 0.006169402903 0.0062663785482 
0.0063653661399 0.0064662357297 0.0065691547878 0.0066742039376 0.0067814263592 0.0068908804249 0.0070026032924 0.007116656111 0.0072331251671 
0.0073518829307 0.0074729979147 0.0075966165858 0.0077225747148 0.0078510076306 0.0079819853005 0.0081154653441 0.0082515576694 0.0083903241221 
0.0085318091751 0.0086760501775 0.0088230948274 0.0089729233771 0.0091255350976 0.0092809143884 0.0094389926981 0.0095997546938 0.0097631704225 
0.0099296631359 0.010098223379 0.010269346491 0.010443156237 0.010619494376 0.010798228086 0.010979888784 0.011164284058 0.011351428388 
0.011541337657 0.011734023662 0.0052115687887 0.0052898996907 0.0053697475562 0.0054511077063 0.005533996767 0.0056184280474 0.0057044148428 
0.005791980954 0.0058811794389 0.0059721552989 0.0060647331257 0.0061590894294 0.006255364548 0.0063534494896 0.0064535001035 0.0065555689103 
0.0066597233091 0.0067660082631 0.0068744622942 0.0069851119661 0.0070979977363 0.0072132066156 0.0073306097798 0.0074502439086 0.0075723334785 
0.0076966431906 0.0078233013059 0.0079524489393 0.008083993404 0.0082180656767 0.0083547088984 0.0084939495469 0.0086358231172 0.0087803059506 
0.0089274439475 0.0090771578301 0.0092294113353 0.0093841918887 0.0095414468917 0.0097011412504 0.0098632334326 0.010027718646 0.01019459505 
0.010364531195 0.01053633656 0.010710666721 0.010887523724 0.011066658702 0.011248627638 0.011433151288 0.005130019034 0.0052063873611 
0.0052842109039 0.0053634886909 0.0054442359721 0.0055264724019 0.0056102006338 0.0056954601479 0.0057822811872 0.005870706446 0.005960772495 
0.0060525457537 0.0061461799378 0.0062416227814 0.0063388514889 0.0064380106851 0.0065391610382 0.0066423275202 0.0067475721604 0.006854889848 
0.0069643463524 0.0070759187604 0.0071897119651 0.0073056006092 0.0074236579402 0.0075440602347 0.0076665768097 0.0077914379927 0.0079185607868 
0.0080480622453 0.0081799796574 0.0083143537957 0.0084512066944 0.0085905112225 0.0087322959589 0.0088765223689 0.0090231423189 0.0091721296194 
0.0093234349293 0.0094770247927 0.0096328605645 0.0097909285607 0.0099512538141 0.010113933595 0.010278857822 0.010446111415 0.010616215033 
0.010788191025 0.010962533254 0.011139245836 0.0050494387121 0.0051238682049 0.0051997025576 0.0052769327812 0.0053555778026 0.0054356513439 
0.0055171664847 0.0056001551792 0.0056846574314 0.0057706861133 0.0058583073859 0.0059475602391 0.0060385073892 0.0061311813486 0.0062257474247 
0.0063221480288 0.0064203586605 0.0065204912415 0.006622578017 0.0067266528723 0.0068327507629 0.0069408573328 0.0070510897656 0.0071632545665 
0.0072775332422 0.0073938826913 0.0075125011817 0.0076331280017 0.0077560233762 0.0078810912508 0.0080084383483 0.0081381132268 0.0082700955958 
0.0084043790625 0.0085409804121 0.0086798792704 0.0088210526529 0.0089644230758 0.0091099812206 0.0092576861542 0.0094075038019 0.0095594118584 
0.0097134324945 0.0098695698035 0.010027934679 0.010188409504 0.010351083933 0.010515946772 0.010682968731 0.010852171776 0.0049701981454 
0.0050427624025 0.0051166382928 0.0051918649761 0.0052684549911 0.0053464152769 0.0054257641394 0.0055065379222 0.0055887662206 0.0056724667023 
0.0057576957 0.0058444916086 0.0059329086057 0.0060229910428 0.0061148573617 0.0062084062939 0.0063037426089 0.0064009198269 0.0065000306886 
0.0066009467159 0.0067037510367 0.0068085016589 0.0069151665851 0.007023837414 0.0071343940495 0.0072469731771 0.0073615286721 0.0074782740052 
0.0075970105982 0.0077177971112 0.0078407225187 0.0079658239522 0.008093116798 0.0082225800447 0.0083541913509 0.0084879445256 0.008623836348 
0.0087618208291 0.0089018433511 0.0090438757736 0.0091879059484 0.0093338934144 0.0094818601433 0.0096318074044 0.0097838529884 0.0099378269324 
0.01009383126 0.010251855078 0.010411931425 0.010573975071 0.0048926802955 0.0049633540085 0.0050353536641 0.0051086242599 0.0051832052021 
0.0052591124651 0.0053363511173 0.0054149654836 0.0054949833832 0.0055764226841 0.0056593154782 0.005743721932 0.005829682027 0.0059172218678 
0.0060063991022 0.0060973283883 0.0061898842635 0.0062841907005 0.0063802546333 0.0064781048843 0.006577752297 0.0066792222658 0.0067825745699 
0.0068877068746 0.0069947663786 0.0071036313035 0.0072144600761 0.0073271474306 0.00744195002 0.0075586686811 0.007677331776 0.0077980340481 
0.0079207892951 0.0080455955946 0.0081724353677 0.0083012573368 0.0084320663125 0.0085648549645 0.0086995709542 0.0088361755474 0.0089746553327 
0.0091149664745 0.0092571411769 0.0094011617581 0.009547048205 0.009694895852 0.0098445524575 0.0099960604663 0.010149435823 0.01030463254 
0.0048170831804 0.0048859432457 0.0049560821297 0.0050274505522 0.0051000815609 0.005173986286 0.0052491799231 0.0053256983658 0.0054035695614 
0.0054828056351 0.0055634404897 0.0056455284021 0.0057290931903 0.0058141765863 0.0059008199826 0.0059891241453 0.0060789804052 0.0061704922154 
0.0062636842827 0.0063585588451 0.0064551384631 0.006553459842 0.0066535071385 0.0067552948949 0.0068588127736 0.0069642619411 0.0070713812956 
0.0071803542039 0.007291186162 0.0074039021509 0.0075186260124 0.0076351013162 0.0077534985497 0.0078738155817 0.0079960592181 0.0081201606616 
0.0082461227104 0.0083739054217 0.0085035378119 0.0086349326145 0.0087680974597 0.0089029812244 0.0090396185226 0.0091779908267 0.0093180812036 
0.0094599311347 0.0096035989679 0.0097489080655 0.0098959088811 0.010044600789 0.0047435257376 0.0048106796763 0.0048789548995 0.0049485066643 
0.0050192469464 0.0050912123562 0.0051644253196 0.0052389094533 0.0053146987192 0.0053918005673 0.0054702530313 0.0055500825645 0.0056313338651 
0.0057140355726 0.0057982163486 0.0058839170371 0.005971229111 0.0060600373471 0.0061504394998 0.0062424363507 0.0063360766558 0.0064313313267 
0.0065282453763 0.0066268050818 0.0067270183813 0.0068289235117 0.0069326205452 0.0070379451365 0.0071450680445 0.0072539747275 0.0073646550799 
0.0074772382693 0.0075914576227 0.0077074802798 0.0078252918221 0.0079448794983 0.0080661965622 0.0081892465231 0.00831398106 0.0084403855548 
0.0085684628769 0.0086981736309 0.0088295245575 0.008962500856 0.0090970693227 0.0092332598724 0.0093711494279 0.0095105459003 0.0096515115537 
0.0097939990345 0.0046722857056 0.0047375608455 0.0048041662552 0.0048718597634 0.0049407979917 0.0050108905642 0.0050821824066 0.0051547034869 
0.0052284753776 0.0053035145028 0.0053798508537 0.0054574960294 0.0055365055626 0.0056169027232 0.0056987058987 0.0057819537443 0.0058666691486 
0.0059529398764 0.0060406468359 0.00612987769 0.0062206556581 0.0063129838069 0.0064068745838 0.0065023229726 0.0065993450372 0.0066979692944 
0.0067982126785 0.0069001605409 0.0070036700163 0.0071088779587 0.0072157741596 0.0073243769391 0.0074347617524 0.0075466819182 0.0076602624183 
0.0077755115894 0.0078924042149 0.0080108994528 0.0081309959565 0.0082526662537 0.0083758648776 0.008500642589 0.0086269407923 0.0087547563277 
0.0088840841662 0.0090148881241 0.0091471816622 0.0092810246435 0.0094162329529 0.0095528420967 0.0046030854787 0.0046668799306 0.0047317916865 
0.0047976498272 0.0048647925299 0.0049330760124 0.0050025138753 0.0050731387203 0.0051449647995 0.005218000252 0.0052922821394 0.0053678342098 
0.0054446681371 0.0055228312238 0.0056023429624 0.0056832216966 0.0057654869458 0.0058492424635 0.0059343586882 0.0060209213045 0.0061089450754 
0.0061984379505 0.0062894024637 0.0063818851572 0.0064758502237 0.0065713141188 0.0066683148664 0.0067668560965 0.0068670232045 0.0069686863175 
0.0070719502268 0.0071768987188 0.0072832937932 0.0073914367845 0.0075009945351 0.0076120921434 0.0077247399873 0.0078389099681 0.0079545598541 
0.0080717108394 0.0081903188303 0.0083103448383 0.0084318351157 0.0085547395152 0.008679050389 0.0088047465032 0.0089317815662 0.009060272681 
0.0091900029033 0.0093210119068 0.0045360931448 0.0045983061585 0.0046615927557 0.004725947413 0.0047913837459 0.0048577752228 0.0049254242793 
0.0049942098661 0.0050641495453 0.0051352615574 0.0052075564494 0.0052810672184 0.0053558041875 0.0054318230706 0.0055091105523 0.0055877000512 
0.0056676172555 0.0057488771638 0.0058315611747 0.0059155485142 0.0060009313184 0.0060877045186 0.0061758721058 0.0062654673425 0.0063564809003 
0.0064489308684 0.006542825803 0.0066381805168 0.0067349928474 0.0068333526504 0.006933135085 0.0070344140371 0.0071372162292 0.0072415259156 
0.0073474007117 0.0074545658851 0.0075631829521 0.0076732099143 0.007784654687 0.0078974986107 0.0080116950868 0.0081272537625 0.0082441777952 
0.008362332178 0.0084818595726 0.0086026819558 0.0087247462535 0.0088480444539 0.0089726504665 0.0090983462771 0.0044712738774 0.0045319633761 
0.0045936932951 0.0046564302841 0.0047202512982 0.0047850801915 0.0048510091347 0.0049178779171 0.0049859951174 0.005055268202 0.0051256517907 
0.005197192511 0.0052699167411 0.0053438342014 0.0054189821085 0.0054953758865 0.0055730214921 0.0056519461889 0.0057321578886 0.0058137367425 
0.0058965715749 0.0059807289832 0.0060662223204 0.0061530445402 0.0062412333943 0.0063307646921 0.0064216864367 0.0065139772744 0.0066076542438 
0.0067027177398 0.006799258281 0.0068971093681 0.0069963791938 0.0070970954517 0.0071992094907 0.0073026003781 0.0074075637188 0.007513672052 
0.0076210940679 0.0077298130096 0.0078398242669 0.0079511090887 0.0080636420394 0.0081774193522 0.0082923684756 0.008408554989 0.0085258877258 
0.0086443501666 0.0087639263645 0.0088845951602 0.0044086428307 0.004467864829 0.0045280831443 0.004589286416 0.0046514963925 0.0047147342875 
0.004778992212 0.0048442840261 0.0049106522407 0.0049779612559 0.0050464959713 0.0051161418971 0.005186909911 0.0052588298217 0.0053319038809 
0.0054061658867 0.0054816253456 0.0055583033477 0.0056362029374 0.0057153914184 0.0057957842858 0.0058774302778 0.0059603417415 0.006044514531 
0.0061299867522 0.0062167308619 0.0063047944281 0.0063941557227 0.0064848198944 0.0065767929267 0.0066700936093 0.0067647764712 0.0068606928236 
0.0069579968212 0.0070565373285 0.0071564437109 0.0072575457531 0.0073600931675 0.0074636969717 0.0075685049363 0.0076745296047 0.0077817475775 
0.0078901146622 0.0079996513168 0.0081103090826 0.008222091562 0.0083348844112 0.0084487695307 0.0085636401087 0.0086795844149 0.0043481472525 
0.0044059539701 0.0044647172239 0.004524432053 0.0045851022008 0.0046467735265 0.0047094291753 0.0047730891997 0.0048377490385 0.004903463065 
0.004970211805 0.0050378955759 0.005106784618 0.0051767652267 0.0052478489357 0.0053200630242 0.0053934163186 0.0054679182478 0.005543589245 
0.0056204422615 0.0056985300905 0.005777768305 0.0058582027168 0.0059398412911 0.0060226928146 0.00610678567 0.0061920897228 0.0062786472139 
0.0063664341342 0.0064554592577 0.0065457205303 0.0066372339197 0.0067300371048 0.0068240128258 0.0069192824535 0.0070156883956 0.0071132837936 
0.0072121847222 0.0073121365215 0.0074134398586 0.007515653607 0.0076189965094 0.0077234223872 0.0078289259742 0.0079354617241 0.0080430220251 
0.0081515743923 0.0082610848196 0.008371494848 0.008482802594 0.0042897396473 0.0043461808612 0.0044035364187 0.0044618252575 0.0045210269979 
0.0045811689048 0.0046422875871 0.0047043501011 0.0047674176931 0.0048314305306 0.0048964559137 0.0049625008376 0.0050295735218 0.0050975647831 
0.0051667342562 0.005236969568 0.0053082950492 0.0053807204679 0.0054542515657 0.0055288975685 0.0056046677696 0.0056816300419 0.0057596899729 
0.0058388988161 0.0059192539462 0.0060007815746 0.0060834558507 0.0061673233215 0.006252358441 0.0063385580175 0.0064259297369 0.006514468626 
0.006604181484 0.0066951014155 0.0067871107396 0.0068803190182 0.006974614186 0.0070699990489 0.0071664869835 0.0072641773149 0.0073629993013 
0.0074626388985 0.0075633046856 0.0076649672245 0.0077675983791 0.0078711719258 0.0079756496333 0.0080810241797 0.0081872355289 0.0082942601739 
0.0042333941683 0.0042885159744 0.0043445218661 0.0044014260146 0.0044592084608 0.004517901066 0.0045775033558 0.0046380418781 0.0046995183867 
0.0047619571246 0.0048253239311 0.0048896553783 0.0049549782744 0.0050212954773 0.0050886184018 0.0051568404364 0.0052262015027 0.005296618408 
0.0053680902132 0.0054406210654 0.005514222553 0.0055889093608 0.0056647198379 0.0057415819838 0.0058195533552 0.0058986094053 0.0059787803203 
0.0060600666507 0.0061424657901 0.0062259812908 0.0063105851951 0.0063962950741 0.0064831106371 0.0065710139629 0.0066600494383 0.0067501679257 
0.0068412793199 0.0069334521748 0.0070266298889 0.007120830641 0.0072161475404 0.0073122919916 0.007409575283 0.0075075829549 0.0076064982174 
0.0077062870357 0.0078068996858 0.007908314311 0.0080105307803 0.0081134597663 0.0041790712855 0.0042329335731 0.0042876355631 0.0043432055623 
0.0043996213546 0.0044569073499 0.0045150729558 0.0045741257362 0.0046340863157 0.0046949749862 0.0047567469973 0.0048194368406 0.004883076652 
0.0049476576552 0.0050131991095 0.0050797135618 0.0051472071385 0.005215570201 0.0052850596351 0.0053555560969 0.0054270727535 0.0054996200049 
0.0055732341091 0.0056478453407 0.0057235070827 0.0058002206963 0.0058779827545 0.0059567986375 0.0060366673874 0.0061175969494 0.0061995740932 
0.0062825843091 0.0063666249804 0.006451716962 0.0065378164471 0.0066249727817 0.0067131422015 0.0068022281885 0.0068922797493 0.0069832872735 
0.0070751967977 0.0071680038064 0.0072618524476 0.007356586731 0.007451965392 0.0075481495432 0.0076450937224 0.0077427699122 0.007841148938 
0.0079401924272 0.0041267417531 0.0041793804713 0.0042328347763 0.0042871190376 0.0043422216518 0.0043981595645 0.004454945094 0.0045125631253 
0.0045710520199 0.0046304195402 0.0046906890646 0.0047517992623 0.0048138034733 0.0048767148534 0.004940541454 0.0050053040538 0.0050709916173 
0.0051376123022 0.0052051922623 0.0052736267494 0.0053431379848 0.0054136284445 0.0054851012177 0.005557591077 0.0056310488964 0.0057055001001 
0.0057809520555 0.005857404247 0.0059348659537 0.0060133228184 0.0060927719929 0.0061732059438 0.0062546242071 0.0063370101675 0.0064203787184 
0.0065046808668 0.0065899218956 0.0066762052806 0.0067632764089 0.0068512336967 0.0069400500306 0.0070297096178 0.0071201694782 0.0072114150263 
0.0073035886853 0.0073965625929 0.0074900158292 0.0075841371359 0.0076788933505 0.007774259162 0.0040763758431 0.004127841045 0.0041800891896 
0.0042331347525 0.0042869741918 0.0043416119627 0.0043970608146 0.0044533263707 0.0045103987652 0.0045683119726 0.0046270785746 0.0046866968878 
0.0047471389851 0.0048084314586 0.0048706103771 0.004933669059 0.004997614021 0.005062454275 0.0051281926616 0.0051948659669 0.0052624485384 
0.0053308702223 0.0054003238328 0.0054707168466 0.0055420815255 0.0056143691182 0.0056876126211 0.0057617900802 0.0058369454085 0.0059130561292 
0.0059900933236 0.0060680810919 0.006146984096 0.0062268162023 0.0063075770219 0.0063892114209 0.0064717325831 0.006555129734 0.0066394771681 
0.0067245502657 0.0068104195105 0.0068970693148 0.0069844832854 0.007072608283 0.0071614461648 0.0072509298984 0.0073412522154 0.0074322032134 
0.0075235210205 0.0076153804648 0.0040279563435 0.0040782823007 0.004129369725 0.0041812207584 0.0042338473198 0.004287238644 0.0043413975926 
0.0043963445186 0.0044520721591 0.0045085895085 0.0045659138683 0.0046240408514 0.004683016695 0.0047427733349 0.0048033557741 0.0048647773255 
0.0049270434435 0.0049901656228 0.0050541511851 0.0051189982394 0.0051847335565 0.005251356163 0.0053188593471 0.0053871977804 0.0054565064859 
0.0055267503326 0.0055978733168 0.0056699073519 0.0057428377894 0.0058166841306 0.0058914341374 0.0059670795459 0.0060436023462 0.0061209955353 
0.0061992598971 0.006278378683 0.006358318194 0.0064390737172 0.006520628113 0.0066030623277 0.0066861492745 0.0067699506141 0.0068544523115 
0.0069396261566 0.0070254313955 0.0071118499522 0.0071988216669 0.0072863465385 0.007374594557 0.0074633469943 0.0039814435365 0.0040306763841 
0.0040806475018 0.0041313531515 0.0041828085509 0.0042349967544 0.0042879229948 0.0043416004647 0.0043960254841 0.0044512029424 0.0045071523308 
0.0045638696539 0.0046213545452 0.0046796590454 0.0047387120353 0.0047985596321 0.0048592046996 0.0049206789565 0.0049829704451 0.0050460895059 
0.0051100384241 0.0051748388534 0.0052404911683 0.0053069971134 0.0053743576846 0.0054425144047 0.0055116377189 0.0055816248063 0.0056524522587 
0.0057241429956 0.0057967037849 0.0058701064373 0.0059443546904 0.0060194356758 0.0060953357826 0.0061720550578 0.0062495403406 0.0063277975111 
0.0064067949158 0.006486525636 0.0065670283012 0.0066481669267 0.0067299138143 0.0068122718713 0.0068952171596 0.0069787021491 0.0070627089908 
0.0071471888151 0.0072321388101 0.0073175103592 0.0039368141212 0.0039849859206 0.0040338780606 0.0040834847252 0.0041338074141 0.0041848461657 
0.0042365866544 0.0042890446042 0.0043422183604 0.0043961113533 0.0044507256483 0.0045060889834 0.0045621805054 0.0046190030463 0.0046766196921 
0.004734955008 0.0047940584734 0.0048539382504 0.0049145839608 0.0049760400305 0.0050382875202 0.0051013386435 0.0051652083412 0.0052298936722 
0.0052954001257 0.0053617378711 0.0054288972742 0.0054969046625 0.005565635208 0.0056352853484 0.0057057530238 0.0057770254478 0.0058491285278 
0.0059220105019 0.0059956641046 0.006070078342 0.0061452540373 0.0062211299817 0.0062977151358 0.0063749948219 0.006452975325 0.0065315189353 
0.006610682431 0.0066903748162 0.0067705941702 0.0068513246709 0.0069325049228 0.0070140978958 0.0070960974236 0.0071784947741 0.0038939917337 
0.0039411695775 0.0039890196443 0.0040375631513 0.0040868029874 0.0041367282287 0.0041873301782 0.004238615211 0.0042905850951 0.0043432396156 
0.0043965853481 0.0044506299458 0.004505379379 0.0045608281597 0.0046169763302 0.0046738878153 0.0047314979432 0.0047898425202 0.004848934044 
0.0049087795421 0.0049693901314 0.005030771799 0.0050929287088 0.0051558682977 0.0052195931259 0.0052841134714 0.0053494240447 0.0054155269335 
0.0054824253993 0.0055501018173 0.0056185097995 0.0056877612098 0.0057577764451 0.0058285459421 0.0059000722382 0.0059723152374 0.0060452642287 
0.0061189414727 0.0061932281635 0.0062681605539 0.0063436980732 0.0064198813898 0.0064965294327 0.0065737035539 0.0066513690251 0.0067294591732 
0.0068079569044 0.0068868358851 0.0069660592179 0.0070455960282 0.0038529144379 0.0038991252267 0.0039459950148 0.0039935158419 0.0040417072301 
0.0040905644454 0.0041400748536 0.0041902296363 0.0042410429225 0.0042925015354 0.0043446302064 0.0043974193372 0.0044508598382 0.0045049738697 
0.0045597618931 0.0046152319871 0.0046714252545 0.0047283073209 0.0047858889001 0.0048441958952 0.0049032371229 0.0049630075645 0.0050235310598 
0.0050848029163 0.0051468218137 0.0052095997871 0.0052731378088 0.0053374337511 0.0054024898567 0.0054683012695 0.0055348674327 0.0056021887222 
0.0056702324709 0.0057389526556 0.0058084422219 0.0058786312783 0.0059494877961 0.0060209896033 0.0060931061813 0.0061658101563 0.0062390861977 
0.0063128966261 0.0063872626006 0.0064620366526 0.0065372690252 0.0066128760609 0.0066888296546 0.0067651079892 0.0068416941033 0.0069185581884 
0.0038134857275 0.0038587692172 0.0039046822107 0.0039512380383 0.003998417104 0.0040462445863 0.0040947032126 0.0041437787451 0.004193476046 
0.0042437903597 0.0042947318375 0.0043463008829 0.0043985069988 0.004451333312 0.0045048031576 0.0045589266331 0.0046137110038 0.0046691853255 
0.0047253292218 0.0047821568063 0.0048396820847 0.0048979192965 0.0049568668742 0.0050165342411 0.0050769312817 0.0051380395258 0.0051998831242 
0.0052624522369 0.0053257510299 0.0053897797664 0.0054545326975 0.0055200065012 0.0055861780143 0.0056530421666 0.0057205992355 0.0057887708122 
0.0058576355537 0.0059271023162 0.0059971632223 0.006067768375 0.0061388893223 0.0062105105789 0.0062825820253 0.0063551279029 0.006428006502 
0.0065012325327 0.0065747607748 0.0066485857181 0.0067226625993 0.0067969748878 0.0037755727702 0.003819957683 0.0038649587036 0.0039105708019 
0.003956786988 0.0040036329316 0.004051071439 0.0040991014163 0.0041477246906 0.00419693994 0.004246738136 0.0042971331902 0.0043481349576 
0.0043997338375 0.0044519311271 0.0045047503999 0.0045582009524 0.0046123000597 0.0046670608076 0.0047224626098 0.0047785507008 0.0048353058974 