# vtk DataFile Version 5.1
vtk output
ASCII
DATASET POLYDATA
POINTS 2438 double
58.611110687 -9.4444446564 1.258879255e-14 57.569446564 -9.4444446564 1.2347858264e-14 58.611110687 -12.222222328 1.258879255e-14 
58.611110687 -12.222222328 1.258879255e-14 57.569446564 -9.4444446564 1.2347858264e-14 55.833335876 -12.222222328 1.1946300237e-14 
55.833335876 -12.222222328 1.1946300237e-14 57.569446564 -9.4444446564 1.2347858264e-14 56.597221375 -9.4444446564 1.2122985028e-14 
55.833335876 -12.222222328 1.1946300237e-14 56.597221375 -9.4444446564 1.2122985028e-14 55.833335876 -9.4444446564 1.1946300237e-14 
56.597221375 -9.4444446564 1.2122985028e-14 57.569446564 -9.4444446564 1.2347858264e-14 56.597221375 -1.6319445372 1.2122985028e-14 
56.597221375 -1.6319445372 1.2122985028e-14 57.569446564 -9.4444446564 1.2347858264e-14 57.569446564 -1.6319445372 1.2347858264e-14 
56.597221375 -1.6319445372 1.2122985028e-14 57.569446564 -1.6319445372 1.2347858264e-14 55.416667938 -0.72916668653 1.1849925993e-14 
55.416667938 -0.72916668653 1.1849925993e-14 57.569446564 -1.6319445372 1.2347858264e-14 58.611110687 -1.6319445372 1.258879255e-14 
55.416667938 -0.72916668653 1.1849925993e-14 58.611110687 -1.6319445372 1.258879255e-14 55.416667938 0.72916668653 1.1849925993e-14 
55.416667938 0.72916668653 1.1849925993e-14 58.611110687 -1.6319445372 1.258879255e-14 58.611110687 1.840277791 1.258879255e-14 
55.416667938 0.72916668653 1.1849925993e-14 58.611110687 1.840277791 1.258879255e-14 -59.444450378 1.840277791 -1.4717161213e-14 
-59.444450378 1.840277791 -1.4717161213e-14 -59.444450378 0.72916668653 -1.4717161213e-14 55.416667938 0.72916668653 1.1849925993e-14 
-59.444450378 -0.72916668653 -1.4717161213e-14 -59.444450378 -1.6319445372 -1.4717161213e-14 55.416667938 -0.72916668653 1.1849925993e-14 
55.416667938 -0.72916668653 1.1849925993e-14 -59.444450378 -1.6319445372 -1.4717161213e-14 56.597221375 -1.6319445372 1.2122985028e-14 
4.5535728997 -1.12893709 8.5420290281e-17 -27.445438739 -1.3804408136 -7.3158704613e-15 -34.01389122 -0.72916668653 -8.835136967e-15 
-8.5803378094 1.3482428786 -2.9524201581e-15 -34.012394094 1.5942603348 -8.8347906855e-15 -34.01389122 0.72916668653 -8.835136967e-15 
4.5555496216 -1.6319445372 8.5877501067e-17 24.597221375 -1.6319445372 4.7214656706e-15 40.597221375 -1.6319445372 8.4222253491e-15 
-5.3888893127 1.840277791 -2.2142461635e-15 26.611110687 1.840277791 5.1872731935e-15 42.611110687 1.840277791 8.888032872e-15 
4.5525553693 1.221201599 8.5184938051e-17 -27.445947505 1.530739695 -7.3159881374e-15 29.984611654 0.97518414276 5.9675554655e-15 
17.268583512 1.0981928709 3.0263702018e-15 42.700639796 0.85217541465 8.9087407292e-15 -8.5833320618 -0.72916668653 -2.9531127211e-15 
23.416667938 -0.72916668653 4.4484066359e-15 -46.729170799 -1.1805556118 -1.177614909e-14 -8.5833320618 0.72916668653 -2.9531127211e-15 
23.416667938 0.88393935508 4.4484066359e-15 -46.729170799 1.1837197968 -1.177614909e-14 -21.299573111 1.1397114793 -5.8943472297e-15 
4.5535728997 -1.12893709 8.5420290281e-17 -27.444450378 -1.5061907333 -7.3156418559e-15 29.985120419 -0.92905188828 5.9676731416e-15 
14.576385498 -1.6319445372 2.4036715858e-15 -11.443956183 -1.4433118893 -3.6147678712e-15 17.269346659 -1.0289944892 3.0265467159e-15 
-3.4427205865 -1.4118685827 -1.7641022417e-15 10.611110687 1.840277791 1.486513515e-15 19.586803436 -1.6319445372 3.5625686282e-15 
9.5659675598 -1.3607469572 1.2447745435e-15 23.627233539 -0.97902318872 4.4971099288e-15 7.4166679382 0.72916668653 7.4764695742e-16 
23.416667938 0.72916668653 4.4484066359e-15 23.418165064 1.0387047826 4.4487529174e-15 2.6111106873 1.840277791 -3.6386632427e-16 
-11.446696068 1.375970647 -3.6154015997e-15 6.6111106873 1.840277791 5.6132359535e-16 -3.4470703492 1.298586123 -1.7651083308e-15 
4.6111106873 1.840277791 9.8728635539e-17 10.91056944 1.1596972349 1.5557775699e-15 18.611110687 1.840277791 3.3368933542e-15 
7.4166679382 -0.72916668653 7.4764695742e-16 -0.58333206177 -0.72916668653 -1.1027328818e-15 23.417656299 -0.9806704101 4.4486352413e-15 
3.4166679382 -0.72916668653 -1.775429622e-16 -11.44593292 -1.2546889518 -3.6152250855e-15 5.4166679382 -0.72916668653 2.8505199761e-16 
-3.4461800101 -1.1918130209 -1.7649023976e-15 0.55369644483 -1.1603750555 -8.3974105367e-16 13.985614599 -1.0548037501 2.2670277658e-15 
0.55987506345 -1.3961391569 -8.3831195475e-16 5.3483087597 -1.1226906775 2.6924069188e-16 2.5651354451 -1.3882588718 -3.7450028191e-16 
8.3133630753 -1.6319445372 9.5505028286e-16 3.5757459356 -1.3842873683 -1.407486223e-16 8.9396653175 -1.6319445372 1.0999124132e-15 
7.0607585907 -1.6319445372 6.6532602226e-16 -4.5833320618 0.72916668653 -2.0279228014e-15 9.5659675598 -1.6319445372 1.2447745435e-15 
12.071176529 -1.6319445372 1.8242230646e-15 5.8081541061 -1.6319445372 3.7560176166e-16 5.1818518639 -1.6319445372 2.3073963137e-16 
9.2528164387 -1.4963457472 1.1723434783e-15 10.91145978 -1.0789657896 1.5559835031e-15 -4.5805249502 1.3095506166 -2.0272735236e-15 
-0.58333206177 0.72916668653 -1.1027328818e-15 7.7315624048 1.190449417 8.2048125398e-16 4.4166679382 -0.72916668653 5.3754517704e-17 
3.9166679382 -0.72916668653 -6.1894222249e-17 5.1430755059 -1.1243037563 2.217707575e-16 9.2695937496 -1.09187042 1.176224028e-15 
6.9115833246 -1.110403755 6.3082215916e-16 8.0905885371 -1.1011370875 9.035230936e-16 6.4166679382 -0.72916668653 5.1634947751e-16 
7.5010859309 -1.1057704213 7.6717262638e-16 9.4166679382 -0.72916668653 1.2102419172e-15 6.9166679382 -0.72916668653 6.3199821747e-16 
15.416667938 -0.72916668653 2.5980267967e-15 7.2052831999 -0.97431311506 6.9875420015e-16 11.416667938 -0.72916668653 1.672836877e-15 
7.7937853958 -0.84239680765 8.3487327498e-16 5.7325781122 -1.1196704225 3.5812122472e-16 5.9166679382 -0.72916668653 4.0070073756e-16 
4.9166679382 -0.72916668653 1.6940325766e-16 4.8475741371 -1.0311889818 1.5342203557e-16 6.3220807184 -1.1150370888 4.9447169194e-16 
-1.4462417826 -1.1760940382 -1.3023217256e-15 -0.44627266889 -1.1682345468 -1.0710313897e-15 0.050630011427 -0.7721952851 -9.5609905194e-16 
-0.94695331105 -1.083600826 -1.1868375604e-15 -4.5833320618 -0.72916668653 -2.0279228014e-15 -2.5833320618 -0.72916668653 -1.5653278416e-15 
2.5536346723 -1.1446560728 -3.7716038169e-16 3.553603786 -1.1367965814 -1.4587004571e-16 14.090403219 -1.0539801394 2.2912651095e-15 
13.323781013 -1.6319445372 2.1139473252e-15 15.679874939 -1.0414873143 2.6589059127e-15 10.818572044 -1.6319445372 1.5344988041e-15 
7.7325163396 -1.1039514398 8.2070189669e-16 9.3219880596 -1.0914586147 1.1883426999e-15 10.11672392 -1.0852122021 1.3721631015e-15 
8.5272521996 -1.0977050273 1.0045222983e-15 8.1310489912 -1.2490166523 9.1288149466e-16 8.3990159646 -1.3563004084 9.748615803e-16 
8.6265141964 -1.5781224103 1.027481348e-15 8.9255784956 -1.2165154597 1.0966541667e-15 8.6787651544 -1.3168632598 1.0395668629e-15 
7.687060833 -1.6319445372 8.1018815256e-16 8.0002119541 -1.5461732037 8.8261921771e-16 6.9377804796 -1.1101978524 6.3688149509e-16 
6.1430446197 -1.1164442649 4.5306109349e-16 4.8687007427 -1.3792063063 1.5830856622e-16 5.495002985 -1.4524711162 3.0317069651e-16 
7.3739097118 -1.3390318067 7.3775708741e-16 6.5404125497 -1.1133210586 5.4497129429e-16 6.4344563484 -1.6319445372 5.2046389196e-16 
6.7476074696 -1.4303891097 5.9289495711e-16 6.1213052273 -1.4688510179 4.4803282681e-16 12.500931499 -1.0664729645 1.9236243063e-15 
0.55274251003 1.259893861 -8.3996169638e-16 2.5526489396 1.24054773 -3.7738837917e-16 3.0551268228 1.4942805937 -2.6116651109e-16 
2.0560221666 1.5916734176 -4.9225690021e-16 3.5526021545 1.2308746645 -1.4610172056e-16 1.5526957248 1.2502207955 -6.0867503777e-16 
-1.3888893127 1.840277791 -1.2890562439e-15 -27.445438739 -1.3804408136 -7.3158704613e-15 -27.444450378 -1.6319445372 -7.3156418559e-15 
-11.44593292 -1.2546889518 -3.6152250855e-15 -11.444450378 -1.6319445372 -3.6148821774e-15 -3.4461800101 -1.1918130209 -1.7649023976e-15 
-3.4444503784 -1.6319445372 -1.7645023382e-15 7.4189136275 1.1934738306 7.4816637968e-16 -0.58071209099 1.2708583546 -1.1021268892e-15 
3.4166679382 0.98067227292 -1.775429622e-16 1.4081502437 0.99038676177 -6.421080433e-16 -6.5833320618 1.0290387318 -2.4905177613e-15 
-2.5833320618 1.0096921483 -1.5653278416e-15 55.138893127 -0.45138889551 1.1805757178e-14 -60.416667938 0.45138889551 -1.3853694803e-14 
-61.111114502 -0.45138889551 -1.4034395729e-14 -61.111114502 -0.45138889551 -1.4034395729e-14 -60.416667938 0.45138889551 -1.3853694803e-14 
-60.416667938 27.083335876 -1.3076701911e-14 -61.111114502 -0.45138889551 -1.4034395729e-14 -60.416667938 27.083335876 -1.3076701911e-14 
-61.111114502 29.861114502 -1.3150021797e-14 -61.111114502 29.861114502 -1.3150021797e-14 -60.416667938 27.083335876 -1.3076701911e-14 
-58.333332062 29.861114502 -1.2532573898e-14 -58.333332062 29.861114502 -1.2532573898e-14 -60.416667938 27.083335876 -1.3076701911e-14 
-58.333332062 27.083335876 -1.2613616198e-14 55.138893127 -0.45138889551 1.1805757178e-14 55.138893127 0.45138889551 1.1832095917e-14 
-60.416667938 0.45138889551 -1.3853694803e-14 50.138889313 -27.083335876 1.0661321645e-14 49.097225189 -27.083335876 1.0480621565e-14 
50.138889313 -29.861114502 1.0661321645e-14 50.138889313 -29.861114502 1.0661321645e-14 49.097225189 -27.083335876 1.0480621565e-14 
48.402778625 -27.083335876 1.0360154184e-14 50.138889313 -29.861114502 1.0661321645e-14 48.402778625 -27.083335876 1.0360154184e-14 
47.361114502 -29.861114502 1.0179454104e-14 47.361114502 -29.861114502 1.0179454104e-14 48.402778625 -27.083335876 1.0360154184e-14 
47.361114502 -27.083335876 1.0179454104e-14 48.402778625 -27.083335876 1.0360154184e-14 49.097225189 -27.083335876 1.0480621565e-14 
48.402778625 -10.277778625 1.0360154184e-14 48.402778625 -10.277778625 1.0360154184e-14 49.097225189 -27.083335876 1.0480621565e-14 
49.097225189 -9.5833339691 1.0480621565e-14 48.402778625 -10.277778625 1.0360154184e-14 49.097225189 -9.5833339691 1.0480621565e-14 
[...]
CELL_DATA 1599
FIELD FieldData 4
electrode_index 1 1599 int
0 0 0 0 0 0 0 0 0 
0 0 0 0 0 0 0 0 0 
0 0 0 0 0 0 0 0 0 
0 0 0 0 0 0 0 0 0 
0 0 0 0 0 0 0 0 0 
0 0 0 0 0 0 0 0 0 
0 0 0 0 0 0 0 0 0 
0 0 0 0 0 0 0 0 0 
0 0 0 0 0 0 0 0 0 
0 0 0 0 0 0 0 0 0 
0 0 0 0 0 0 0 0 0 
0 0 0 0 0 0 0 0 0 
0 0 0 0 0 0 0 0 0 
0 0 0 0 0 0 0 0 0 
0 0 0 0 0 0 0 0 0 
0 0 0 0 0 0 0 0 0 
0 0 0 0 0 0 0 0 0 
0 0 0 0 0 0 0 0 0 
0 0 0 0 0 0 0 0 0 
0 0 0 0 0 0 0 0 0 
0 0 0 0 0 0 0 0 0 
0 1 1 1 1 1 1 2 2 
2 2 2 2 2 2 2 2 2 
2 2 2 2 2 2 2 2 2 
2 2 2 2 2 2 2 2 2 
2 2 2 2 2 2 2 2 2 
2 2 2 2 2 2 2 2 2 
2 2 2 2 2 2 2 2 2 
2 2 2 2 2 2 2 2 2 
2 2 2 2 2 2 2 2 2 
2 2 2 2 2 2 2 2 3 
3 3 3 3 3 3 3 3 3 
3 3 3 3 3 3 4 4 4 
4 4 4 4 4 4 4 4 4 
4 4 5 5 5 5 5 5 5 
5 5 5 5 5 5 5 6 6 
6 6 6 6 6 6 6 6 6 
6 6 6 7 7 7 7 7 7 
7 7 7 7 7 7 7 7 7 
7 8 8 8 8 8 8 8 8 
8 8 8 8 8 8 8 8 8 
8 8 9 9 9 9 9 9 9 
9 9 9 9 9 9 9 9 9 
10 10 10 10 10 10 10 10 10 
10 10 10 10 10 10 10 11 11 
11 11 11 11 11 11 11 11 11 
11 11 11 11 11 12 12 12 12 
12 12 12 12 12 12 12 12 12 
12 12 12 13 13 13 13 13 13 
13 13 13 13 13 13 13 13 13 
13 14 14 14 14 14 14 14 14 
14 14 14 14 14 14 14 14 14 
14 14 14 14 14 14 14 14 14 
14 14 14 14 14 14 14 14 14 
14 14 14 14 14 14 14 14 14 
14 14 14 14 14 14 14 14 14 
14 14 14 14 14 14 14 14 14 
14 14 14 14 14 14 14 14 14 
14 14 14 14 14 14 14 14 14 
14 14 14 14 14 14 14 14 14 
14 14 14 14 14 14 14 14 14 
14 14 14 14 14 14 14 14 14 
14 14 14 14 14 14 14 14 14 
14 14 14 14 14 14 14 14 14 
14 14 14 14 14 14 14 14 14 
14 14 14 14 14 14 14 14 14 
14 14 14 14 14 14 14 14 14 
14 14 14 14 14 14 14 14 14 
14 14 14 14 14 14 14 14 14 
14 14 14 14 14 14 14 14 14 
14 14 14 14 14 14 14 14 14 
14 14 14 14 14 14 14 14 14 
14 14 14 14 14 14 14 14 14 
14 14 14 14 14 14 14 14 14 
14 14 14 14 14 14 14 14 14 
14 14 14 14 14 14 14 14 14 
14 14 14 14 14 14 14 14 14 
14 14 14 14 14 14 14 14 14 
14 14 14 14 14 14 14 14 14 
14 14 14 14 14 14 14 14 14 
14 14 14 15 15 15 15 15 15 
15 15 15 15 15 15 15 15 15 
15 15 15 15 15 15 15 15 15 
15 15 15 15 15 15 15 15 15 
15 15 15 15 15 15 15 15 15 
15 15 15 15 15 15 15 15 15 
15 15 15 15 15 15 15 15 15 
15 15 15 15 15 15 15 15 15 
15 15 15 15 15 15 15 15 15 
15 15 15 15 15 15 15 15 15 
15 15 15 15 15 15 15 15 15 
15 15 15 15 15 15 15 15 15 
15 15 15 15 15 15 15 15 15 
15 15 15 15 15 15 15 15 15 
15 15 15 15 15 15 15 15 15 
15 15 15 15 15 15 15 15 15 
15 15 15 15 15 15 15 15 15 
15 15 15 15 15 15 15 15 15 
15 15 15 15 15 15 15 15 15 
15 15 15 15 15 15 15 15 15 
15 15 15 15 15 15 15 15 15 
15 15 15 15 15 15 15 15 15 
15 15 15 15 15 15 15 15 15 
15 15 15 15 15 15 15 15 15 
15 15 15 15 15 15 15 15 15 
15 15 15 15 15 15 15 15 15 
15 15 15 15 15 15 15 15 15 
15 15 15 15 15 15 15 15 15 
15 15 15 15 15 15 15 15 15 
15 15 15 15 15 15 15 15 15 
15 15 15 15 15 15 15 15 15 
15 15 15 15 15 15 15 15 15 
15 15 15 15 15 15 15 15 15 
15 15 15 15 15 15 15 15 15 
15 15 15 15 15 15 15 15 15 
15 15 15 15 15 15 15 15 15 
15 15 15 15 15 15 15 15 15 
15 15 15 15 15 15 15 15 15 
15 15 15 15 15 15 15 15 15 
15 15 15 15 15 15 15 15 15 
15 15 15 15 15 15 15 15 15 
15 15 15 15 15 15 15 15 15 
15 15 15 15 15 15 15 15 15 
15 15 15 15 15 15 15 15 15 
15 15 15 15 15 15 15 15 15 
15 15 15 15 15 15 15 15 15 
15 15 15 15 15 15 15 15 15 
15 15 15 15 15 15 15 15 15 
15 15 15 15 15 15 15 15 15 
15 15 15 15 15 15 15 15 15 
15 15 15 15 15 15 15 15 15 
15 15 15 15 15 15 15 15 15 
15 15 15 15 15 15 15 15 15 
15 15 15 15 15 15 15 15 15 
15 15 15 15 15 15 15 15 15 
15 15 15 15 15 15 15 15 15 
15 15 15 15 15 15 15 15 15 
15 15 15 15 15 15 15 15 15 
15 15 15 15 15 15 15 15 15 
15 15 15 15 15 15 15 15 15 
15 15 15 15 15 15 15 15 15 
15 15 15 15 15 15 15 15 15 
15 15 15 15 15 15 15 15 15 
15 15 15 15 15 15 15 15 15 
15 15 15 15 15 15 15 15 15 
15 15 15 15 15 15 15 15 15 
15 15 15 15 15 15 15 15 15 
15 15 15 15 15 15 15 15 15 
15 15 15 15 15 15 15 15 15 
15 15 15 15 15 15 15 15 15 
15 15 15 15 15 15 15 15 15 
15 15 15 15 15 15 15 15 15 
15 15 15 15 15 15 15 15 15 
15 15 15 15 15 15 15 15 15 
15 15 15 15 15 15 15 15 15 
15 15 15 15 15 15 15 15 15 
15 15 15 15 15 15 15 15 15 
15 15 15 15 15 15 15 15 15 
15 15 15 15 15 15 15 15 15 
15 15 15 15 15 15 15 15 15 
15 15 15 15 15 15 15 15 15 
15 15 15 15 15 15 15 15 15 
15 15 15 15 15 15 15 15 15 
15 15 15 15 15 15 15 15 15 
15 16 16 16 16 16 16 16 16 
16 16 16 16 16 16 16 16 16 
16 16 16 16 16 17 17 17 17 
17 17 17 17 17 17 17 17 17 
17 17 17 17 17 17 17 17 17 
18 18 18 18 18 18 18 18 18 
18 18 18 18 18 18 18 18 18 
18 18 19 19 19 19 19 19 19 
19 19 19 19 19 19 19 19 19 
20 20 20 20 20 20 20 20 20 
20 20 20 20 20 21 21 21 21 
21 21 21 21 21 21 21 21 21 
21 22 22 22 22 22 22 22 22 
22 22 22 22 22 22 
area 1 1599 double
1.4467556719 3.8580204234 1.3503127113 1.0609520401 3.7977547033 3.7977547033 0.43885168332 0.47019564926 2.3292812346 
5.5459077196 6.2768623818 6.7847195624 5.7395363843 7.222222805 8.2811326083 0.076951628673 5.7395363843 5.6230296573 
5.6230296573 3.9367756803 0.61862724575 5.5002940616 7.0640441685 5.4992306004 0.94322152122 0.36198039829 9.9984248707 
0.75833655018 6.9207491861 8.8888888359 0.30980681893 8.3661277257 5.2927925569 2.9683396806 6.2768623818 2.0120297885 
4.0240595771 5.7797698811 0.13150232661 2.4763626967 5.2201918201 4.2162680984 1.6357044183 0.24617950071 2.0120608611 
5.623141191 2.0998358142 0.46236467852 1.0060304305 1.0060304305 1.9746472641 0.0790084696 0.75453059128 0.75453059128 
1.2381813483 0.5799901969 1.2996567481 0.61907619203 2.0915319314 1.077180683 4.1830638629 0.14325871244 2.154361366 
1.5105158682 1.2381813484 2.4763626967 2.9683396806 1.0060148943 0.1362274487 0.066232591715 0.10190747371 4.0240595771 
0.11351667682 0.92529266877 0.19606081362 0.65127412706 0.94322152122 0.44042392461 0.042462913108 0.079145260363 0.25216912064 
0.25216912064 0.68070896012 0.2043467754 0.12708811336 0.12708811336 0.45454039414 0.052138487179 0.066001118682 0.46236467852 
0.58080481717 1.0060223455 0.089328063479 0.44671610976 0.34633182954 0.064799414284 3.7142833665 0.058705635688 0.10043316965 
0.042462913108 0.075925373492 0.34241968735 0.5997440906 0.56105092347 0.53904249146 1.0156763189 0.098784267436 0.20238190256 
0.099942600873 0.11583334369 0.075505573828 0.097625934 0.21313335239 0.055638655572 1.4826667993 0.36270373351 0.22675606945 
0.095309267126 0.050151525663 0.06128660713 0.039432488705 0.81546673959 0.11323012111 0.065457597136 0.11467501026 0.028130279337 
0.047840827702 0.096467600563 0.44692735166 0.10411646593 0.39212162723 0.086057197131 0.07166619119 0.044283101006 0.46264633439 
0.45585049897 0.21944591269 0.080721425487 0.10776854954 0.074681895954 0.035513203452 0.041526343295 0.058888962889 0.040854123637 
0.041526343295 0.016854459363 0.051973510107 0.048455510803 0.034647583653 0.033642288458 0.042312926795 0.10077171924 0.068703245473 
0.026859389227 0.089844146749 0.091725949955 0.069983622664 0.05620230299 0.11076671716 0.092293396283 0.099703706799 0.069299326775 
0.070525738156 0.063319893789 0.06311730809 0.053405507886 0.051072918417 0.35415611391 0.15918471311 0.17315267843 0.34599719733 
0.12929074712 1.0833833361 1.1231504897 1.509092256 0.29099022308 0.49720874678 0.17315267843 2.0120608611 0.88041258502 
1.5090922561 0.44042392461 0.88041258503 0.92889668975 1.0060223455 0.27200568798 0.27200568798 0.5997440906 0.56105092347 
0.54205915229 52.473962547 9.2472320331 10.525206911 3.8580323443 2.8935229337 52.16049708 1.4467561686 0.96450941062 
3.8580217479 1.4467561686 5.8352807422 6.0764080948 4.5792060791 0.39665338581 1.034433462 0.54555197076 0.036759933236 
0.14668496902 0.26534515546 0.3067128714 3.8372363859 0.95930909648 0.33207020731 0.25668221128 0.33325231744 0.58704960231 
0.51870320725 0.69444465637 0.020847843424 0.036168938489 0.025690178381 0.0025322954661 0.067744306534 0.031061150356 0.068325496351 
0.018845269475 0.023077378445 0.030140634511 0.13163901672 3.5278473146 2.8608850092 0.46500568022 0.52976517637 0.030083110909 
0.025034137197 0.037005546843 0.024111956208 0.027344355124 0.021224605699 0.020423491648 0.019825019409 0.040073210728 0.021026734867 
0.014680928848 0.026041671395 0.018829820145 0.017145164077 0.023435608143 0.026041671395 0.21690805974 0.17663956436 0.17663956436 
1.3888893127 0.41666662025 0.33345679531 1.0667041505 0.46500568022 0.14567752998 0.015070317256 0.49382683498 0.32439067069 
0.27786074194 0.24112656621 0.12259524834 0.5102588338 0.82261630637 0.42050926568 0.5418573993 0.32863255651 0.66759589286 
0.93874089364 0.7046594766 0.52976517636 0.52954738954 1.1448799597 1.4815369305 0.2649188893 0.2649188893 1.4467588177 
3.858024397 0.96450676153 1.4467588177 2.7006190647 2.9417450928 5.1504509405 5.3168423971 5.5579684252 5.1504509405 
0.24112627646 0.96450609925 0.4822532152 0.2411266076 5.5555419922 5.5555419922 0.72337961583 1.9290128608 0.48225329798 
0.72337994697 7.1252917471 7.3664184375 7.2820241952 0.81983101221 1.0609577026 7.2820241952 1.4467601423 3.8580257216 
0.96450676153 1.4467588177 0.72337994697 0.48225329798 1.9290128608 0.72337961583 6.498362617 6.7394893074 7.8607276891 
1.4467641159 1.6878914686 7.8607283514 1.4467574932 3.8580230725 0.96450941062 1.4467561686 1.4467614668 3.8580270461 
0.96450676153 1.4467588177 2.0736892724 2.3148159628 8.6805586186 5.8714314711 6.1125580787 8.6805585358 0.24112664899 
0.96450643039 0.48225313241 0.24112664899 0.7233797814 0.48225313241 0.9268302285 0.7233797814 5.2445025563 5.4856285016 
9.5003632888 2.7006116473 2.9417370131 9.5003627093 1.4467614668 3.8580270461 0.96450411243 1.4467614668 0.94190067511 
0.060281791598 0.30671307436 0.48225304963 0.92683015089 0.7233797814 4.6175728488 4.8586987527 4.5235232426 3.3275390554 
3.5686644213 4.5235227045 1.4467614668 3.858024397 0.96450411243 1.4467588177 5.5555419922 5.5555419922 0.41666670704 
0.94190061044 0.060281851099 0.24112664899 0.96450626482 0.48225313241 0.24112648342 3.9906443954 4.2317706719 5.3433592169 
3.9544664636 4.1955921606 5.3433586374 1.4467614668 3.8580270461 0.96450411243 1.4467614668 5.5555496216 5.5555496216 
1.4467614668 3.8580270461 0.96450411243 1.4467614668 4.5813938718 4.8225198999 6.4043226845 3.3637163043 3.6048429947 
6.4043233468 0.24112664899 0.96450626482 0.48225329798 0.24112631785 5.555557251 5.555557251 1.4467561686 3.8580217479 
0.96450941062 1.4467561686 5.2083498902 5.4494772428 7.4652807183 2.7367871742 2.9779138646 7.465280056 0.24112598672 
0.96450593369 0.48225329798 0.24112664899 5.555557251 5.555557251 1.4467614668 3.8580270461 0.96450411243 1.4467614668 
5.8352486881 6.0763747162 8.5262374275 2.1098580441 2.3509847345 8.5262380897 0.24112598672 0.96450593369 0.48225329798 
0.24112664899 5.555557251 5.555557251 1.4467614668 3.8580323443 0.96450411243 1.446766765 6.4621764274 6.70330229 
9.5871878848 1.4829287485 1.7240552733 9.587188547 0.24112664899 0.96450593369 0.48225329798 0.24112598672 5.5555534363 
5.5555534363 69.444420073 197.0294163 746.95589762 514.47248557 40.046297864 99.826342 11.590947119 5.3240707406 
69.444420073 196.64359671 751.69635351 508.88792434 40.046304553 47.743084961 23.57977954 1.8518525583 7.2338048507 
25.077153084 11.188267572 4.8804017911 5.1890436634 10.532403875 7.2338048507 9.645037813 2.3148109295 2.3148109295 
0.77160276013 1.8518525583 0.7716048794 2.3148172873 2.3148172873 8.3912060437 6.2934102946 21.942509155 10.532403859 
10.069441332 10.062211271 9.560668229 6.2933872475 1.851850439 0.7716048794 1.8518514986 2.3148172873 2.3148172873 
7.1373471213 5.3529956385 18.807865227 10.069457557 9.4135927345 7.1952168929 6.8865744908 5.3530152418 2.3148172873 
2.3148172873 0.7716048794 1.851850439 0.7716048794 2.3148172873 2.3148172873 4.6296292764 3.4722187784 12.538575714 
5.8834888611 4.4126206857 15.673228252 9.413577171 8.5648117242 3.0743623966 2.9586217442 4.412612606 8.5648412616 
7.7160734306 3.4505200138 3.334778964 3.4722187784 1.851850439 0.7716048794 1.8518514986 2.3148172873 2.3148172873 
3.3757710162 2.5318213083 9.4039317855 7.7160727683 6.8673052022 3.8266859921 3.7109446774 2.5318305801 2.3148156978 
2.3148156978 0.77160434958 1.8518514986 1.8807873902 5.9799384776 2.1219112991 1.5914360241 6.8673052022 6.0185372388 
4.2028488826 4.0871074354 34.375027816 19.560183176 0.94039283417 3.7193780733 0.98379486689 26.335804379 3.4722163942 
3.4722163942 1.1574041402 1.8518546776 0.77160276013 2.3148109295 2.3148109295 12.152747446 9.1145939628 31.346442596 
20.10990389 20.109940712 60.26841904 5.4324980756 0.28934743807 129.31619334 36.053248765 81.013701632 0.64501372292 
10.05502559 12.114213852 11.265447876 1.1501772039 1.0344359555 9.1145939628 1.8518525583 0.7716048794 1.851850439 
2.3148172873 2.3148172873 10.898922564 8.1741994067 28.211797012 11.265428272 10.41666362 1.5263339684 1.410593051 
8.174169472 2.3148172873 2.3148172873 0.7716048794 1.851850439 0.7716048794 2.3148172873 2.3148172873 8.3912060437 
6.2933872475 21.942509155 9.6450643039 7.2337783597 25.077153084 10.416662428 9.5678975111 1.9024876947 1.7867470422 
7.2338048507 9.5678976436 8.7191327266 2.2786449144 2.162904262 6.2934102946 1.851850439 0.77160699868 1.851850439 
2.3148236451 2.3148236451 7.1373667246 5.3529956385 18.807865227 8.7191477602 8.0632829372 7.0794759258 6.7708335237 
5.3529956385 2.3148172873 2.3148172873 0.7716048794 1.851850439 0.7716048794 2.3148172873 2.3148172873 4.6296292764 
3.4722187784 12.538575714 5.8834888611 4.412612606 15.673219643 8.0632685658 7.6003060389 13.134163698 12.632620656 
4.412612606 7.6003321159 6.944466167 9.0856496852 8.7770067532 3.4722187784 1.8518514986 0.7716048794 1.851850439 
2.3148172873 2.3148172873 3.3757710162 2.5318305801 9.4039369512 6.944466167 6.2885998208 10.088740365 9.7800973003 
2.5318259442 2.3148172873 2.3148172873 0.7716048794 1.8518514986 1.8807856683 5.9799370206 2.1219127561 1.5914345671 
6.2885998208 5.8256353567 18.0242084 17.522663719 33.217619172 18.933254907 0.94039369512 11.049616919 6.43325297 
3.7796494475 3.7796494475 58.005356583 23.842583144 7.45081917 14.076954816 2.4305532045 0.63657118766 8.063254923 
127.14000266 36.05324004 2.0435464824 86.918901965 11.574073721 1.8518525583 0.77160276013 2.3148109295 2.3148109295 
12.152747446 9.1145939628 31.346442596 12.307115933 11.844152529 5.1721644622 4.6706206416 9.1145939628 1.8518525583 
0.7716048794 1.8518525583 2.3148172873 2.3148172873 10.898922564 8.174169472 28.211797012 11.844131137 11.188267572 
4.1859591099 3.8773171052 8.1741994067 0.92110135783 0.69444274902 0.69444417953 0.95908947993 1.3751752111 0.96450411243 
1.4467614668 0.03163561372 0.0089940271904 0.031207177225 0.040869137388 0.0087789049617 0.03528909183 0.022629365293 0.22355659951 
0.033545945172 0.68743063016 0.0097307625676 0.045725807768 0.7928386344 0.52544064408 0.039248331577 0.028082475486 0.026913543479 
0.019817790975 0.039043438837 0.025578797385 0.022125603263 0.017115702898 0.017333416064 0.017166329255 0.028929012505 0.035280732075 
0.026900691636 0.014144338327 0.024745718724 0.01222214488 0.020228834833 0.021464101241 0.003121631776 0.015132741271 0.029070075416 
0.0086406888421 0.02277564043 0.034432472162 0.026961193368 0.01303421783 0.012327729549 0.033920674933 0.0031863631202 0.016958754855 
0.011621552976 0.012020322576 0.0086559037177 0.013568049758 0.017333416064 0.018579727426 0.019264769981 0.014506117245 0.022214639562 
0.016718645748 0.0049675831435 0.016718645748 0.59639070242 0.016120867057 0.58451929931 0.1279372455 0.72568847876 0.037149536718 
0.66696295948 0.010822356923 0.016984643071 0.023082066472 0.017988054381 0.013261966315 0.0060763913393 0.013876170485 0.02054829698 
0.033761565045 0.0095755245509 0.018427401522 0.012963086096 0.034170814998 0.0096323849905 0.025367115567 0.018060721857 0.015191721442 
0.027974641984 0.031121497697 0.045728642349 0.01304731728 0.025324741618 0.032474054108 0.001194454872 0.024182662145 0.071661570929 
0.0095938790967 0.009686336006 0.10351980306 0.040430779396 0.03765321505 0.041557013403 0.0095467939845 0.039976537304 0.030768590156 
0.093576817729 0.060203753548 0.026523909451 0.024305539131 0.045296987653 0.015024904667 0.028686287427 0.043228440716 0.12738040241 
0.046697518172 0.027779977762 0.031207177225 0.037089891941 0.039361794041 0.063340195044 0.034267855138 0.039804428896 0.042328034503 
0.046101421366 0.078903724698 0.034677250219 0.030365047854 0.19446782502 0.027317310938 0.026695795721 0.049206331405 0.12104470596 
0.10052972065 0.031983303215 0.045365283762 0.045660068121 0.28325696905 0.078372592812 0.035246820926 0.040590658892 0.04142625976 
0.069448540049 0.029834349946 0.038279842572 0.051543848 0.036468052226 0.050719216149 0.018544569202 0.015678857804 0.017136935722 
0.0025322954661 0.016941989426 0.035736755455 0.016466001934 0.020206969479 0.014038482914 0.014935462266 0.01767204067 0.019539254821 
0.039688578911 0.035846227501 0.0090422346222 0.040110744215 0.025528763688 0.0096831145501 0.0066843391996 0.031109383986 0.0087300479282 
0.010958064126 0.019163596494 0.0082918069267 0.0048930198964 0.011141701406 0.023380137556 0.020746392899 0.014464396028 0.010059740779 
0.020005324538 0.035420341986 0.012730486571 0.0097492258317 0.013008923366 0.004633532968 0.006958407395 0.0033474225324 0.016078364744 
0.10149080942 0.099172493387 0.12208375728 0.065685997025 0.1069864387 0.094443270164 0.096431015804 0.10862324457 0.12351377866 
0.065231563943 0.052853590567 0.020515971368 0.058020350579 0.0093781275244 0.08764178339 0.14757564001 0.045084941597 0.033010910294 
0.11440967505 0.14023320573 0.071939409005 0.15219635262 0.12738040241 0.2544055024 0.15608500788 0.19592346668 0.12738040241 
0.25479310131 0.17861602287 0.26212123285 0.17193681003 0.18389995692 0.11521345226 0.24098549666 0.16804815477 0.11909746954 
0.14551713978 0.014029716754 0.00934189699 0.0095570069968 0.016558433939 0.014604134059 0.0069034748855 0.046305854083 0.01393926324 
0.036027164336 0.015095404027 0.014475775756 0.019819138419 0.031833434782 0.02107554035 0.030200767061 0.027264050073 0.017075590957 
0.027257605377 0.056626615197 0.035025743281 0.0096840741117 0.019274616661 0.026070623496 0.023115609458 0.0235599627 0.00933275894 
0.016236734076 0.045651131779 0.035782191865 0.0087789049617 0.013403280616 0.12966533764 0.21705920288 0.45328330924 0.75789992011 
0.087560916114 0.40267623386 0.49886050406 0.11521611561 0.280466368 0.34387356676 0.34666415799 0.063682128104 0.11103379121 
0.30439269215 0.098097096763 0.071661570929 0.1272512328 0.14162847961 0.32273783384 0.471379284 0.44389806395 0.63948173942 
0.59659821669 0.0097474645096 0.0048737322548 0.0032552079012 0.0070948016027 0.0066633350246 0.0052083328565 0.0052083328565 0.0062168447826 
0.0032552079012 0.0049999969562 0.0071505405648 0.010280783816 0.012684994562 0.0042058501013 0.0052010339791 0.010583845247 0.0013999507076 
0.0048930198964 0.006957011709 0.0050229919365 0.012293980845 0.015968682445 0.010089666595 0.016148383342 0.010419853145 0.006957011709 
0.0073041251182 0.01056054904 0.0064336366453 0.011761674235 0.013922406707 0.012165550018 0.009635705607 0.011043732452 0.0067116607766 
0.008695284213 0.0012227584156 0.006958407395 0.0010298110388 0.001350884014 0.0076639532841 0.0033474225324 0.0012395038192 0.0087789049617 
0.013172278228 0.017290247597 0.0094875618826 0.017875149952 0.017290247597 0.0087789049617 0.014021437726 0.030737013524 0.0087400773 
0.014143148895 0.018195586435 0.022915905762 0.0070742772839 0.0086564853285 0.0082963307172 0.011612679483 0.014080080335 0.0085125571163 
0.0081717573471 0.0055106190539 0.004940475179 0.015378773689 0.0069034748855 0.013282255907 0.012863918298 0.0053095031735 0.0065001279993 
0.0058423894259 0.0058423894259 0.0064285935493 0.0087566437101 0.004097110987 0.00851627829 0.0048243604949 0.014671718239 0.015700971986 
0.0020409907938 0.0063625549169 0.014192289187 0.01766595052 0.022500067324 0.019900104238 0.012016848702 0.0037008727973 0.020240193626 