# vtk DataFile Version 5.1
vtk output
ASCII
DATASET STRUCTURED_POINTS
DIMENSIONS 30 30 30
SPACING 0.01 0.01 0.01
ORIGIN 1.555 -0.145 0.855
POINT_DATA 27000
FIELD FieldData 1
potential 1 27000 double
0.0083803819182 0.0084161645663 0.0084521484364 0.0084883322956 0.0085247246205 0.0085613218958 0.0085981261202 0.0086351389771 0.008672362241 
0.0087097941925 0.0087474409953 0.008785302913 0.0088233783062 0.0088616716492 0.0089001825569 0.0089389139451 0.0089778660048 0.0090170403211 
0.0090564386887 0.0090960628339 0.0091359138059 0.0091759925444 0.0092163008427 0.0092568401868 0.0092976119487 0.0093386171463 0.009379857985 
0.0094213358433 0.0094630519702 0.009505008247 0.0083551090498 0.0083907009888 0.0084264931991 0.0084624852433 0.0084986822903 0.0085350834113 
0.0085716905454 0.0086085041058 0.0086455266314 0.0086827581019 0.0087201982524 0.008757853615 0.0087957219271 0.0088338045915 0.0088721037574 
0.0089106221324 0.0089493581676 0.0089883159277 0.0090274950873 0.0090668979454 0.0091065254948 0.0091463791755 0.0091864604086 0.0092267705258 
0.0092673112364 0.0093080833965 0.0093490888294 0.0093903291728 0.0094318055577 0.0094735198988 0.008329897381 0.0083653005517 0.0084009017105 
0.0084367034577 0.0084727041158 0.0085089104753 0.0085453210239 0.0085819362923 0.0086187588227 0.0086557882833 0.0086930271465 0.0087304747003 
0.0087681358386 0.0088060099284 0.0088440982491 0.0088824035174 0.0089209254001 0.0089596669659 0.0089986282954 0.0090378111588 0.0090772168757 
0.0091168464165 0.0091567016883 0.0091967839139 0.0092370944443 0.009277634919 0.0093184058102 0.0093594097188 0.009400647539 0.0094421209009 
0.0083047487276 0.00833996346 0.0083753751662 0.008410985618 0.0084467932637 0.0084828046414 0.0085190181164 0.0085554352878 0.0085920586629 
0.0086288872115 0.008665923976 0.0087031687942 0.008740622152 0.0087782889456 0.0088161672621 0.0088542608309 0.0088925694065 0.0089310957996 
0.0089698400875 0.0090088039985 0.0090479888177 0.0090873956718 0.0091270258624 0.009166881204 0.0092069628171 0.0092472721978 0.0092878101821 
0.0093285789642 0.0093695795927 0.0094108133488 0.0082796621586 0.0083146892356 0.0083499116817 0.008385331282 0.0084209468634 0.0084567644472 
0.0084927827041 0.0085290030981 0.0085654271143 0.0086020553924 0.0086388898494 0.0086759320456 0.008713181001 0.0087506408613 0.0087883103475 
0.0088261935236 0.0088642898107 0.0089026020396 0.0089411303765 0.0089798762634 0.0090188412631 0.0090580263516 0.0090974329817 0.0091370624381 
0.0091769162953 0.0092169959186 0.0092573021901 0.0092978368105 0.0093386013849 0.0093795967746 0.0082546385518 0.0082894784822 0.0083245129053 
0.0083597427015 0.0083951669117 0.0084307916651 0.0084666154625 0.0085026397488 0.0085388662755 0.0085752955121 0.0086119288821 0.0086487677674 
0.0086858139339 0.0087230658135 0.0087605291001 0.0087982021612 0.0088360876509 0.008874186983 0.0089125004106 0.0089510292469 0.0089897753401 
0.0090287399461 0.0090679239781 0.0091073289659 0.0091469561484 0.0091868071206 0.0092268829051 0.0092671844302 0.009307714189 0.0093484727366 
0.0082296783906 0.0082643319689 0.0082991792453 0.0083342204577 0.0083694539077 0.0084048864324 0.0084405169928 0.0084763461715 0.0085123759865 
0.0085486069004 0.0085850403306 0.0086216776499 0.008658520509 0.0086955694271 0.0087328240198 0.0087702879841 0.0088079627501 0.0088458501592 
0.0088839507653 0.0089222640725 0.0089607925159 0.0089995375384 0.0090384998118 0.0090776814116 0.0091170832827 0.0091567066837 0.0091965530036 
0.0092366228418 0.0092769190039 0.0093174420691 0.0082047827441 0.0082392512859 0.0082739111822 0.008308764276 0.0083438107849 0.0083790497525 
0.0084144877122 0.0084501226764 0.0084859562484 0.0085219901217 0.0085582246743 0.0085946612336 0.0086313018082 0.0086681466871 0.0087051974402 
0.0087424520917 0.0087799176456 0.008817593538 0.0088554803664 0.0088935792126 0.0089318918087 0.0089704184502 0.0090091613582 0.0090481206574 
0.0090872980702 0.0091266952688 0.0091663130368 0.0092061530332 0.0092462165914 0.0092865049748 0.0081799493644 0.0082142361744 0.008248710121 
0.0082833754691 0.0083182330242 0.0083532823192 0.0083885284287 0.0084239700662 0.0084596087382 0.0084954461897 0.008531482665 0.0085677195933 
0.0086041586848 0.0086408005502 0.008677646596 0.0087146948498 0.0087519528764 0.0087894181638 0.008827093021 0.0088649781091 0.00890307486 
0.0089413842834 0.0089799075406 0.0090186461223 0.0090576009751 0.0090967728291 0.009136163581 0.0091757746382 0.009215607525 0.009255662615 
0.0081551842997 0.0081892844121 0.0082235761837 0.0082580549226 0.0082927246096 0.0083275836158 0.008362638477 0.0083978887523 0.0084333333754 
0.0084689752615 0.008504814603 0.0085408527484 0.0085770915287 0.0086135314804 0.0086501731016 0.0086870191952 0.0087240674612 0.0087613244903 
0.008798787996 0.0088364606333 0.0088743430482 0.0089124360512 0.0089507415172 0.0089892597886 0.0090279924217 0.0090669407793 0.0091061060461 
0.0091454897326 0.0091850923444 0.009224915195 0.0081304853436 0.0081644026159 0.0081985097256 0.0082328027465 0.0082672852729 0.0083019555565 
0.008336820344 0.0083718783068 0.0084071301557 0.0084425776872 0.0084782207979 0.0085140613855 0.0085501003059 0.0085863397187 0.0086227786429 
0.0086594202944 0.0086962644036 0.0087333117553 0.0087705663479 0.0088080269117 0.0088456959264 0.008883574117 0.0089216625173 0.0089599618209 
0.0089984741721 0.0090371998932 0.009076140659 0.0091152976379 0.0091546715005 0.0091942639889 0.0081058522181 0.0081395873168 0.0081735083847 
0.0082076193061 0.0082419153682 0.0082764005972 0.0083110735009 0.0083459408084 0.0083810001953 0.0084162536223 0.0084517016955 0.0084873456945 
0.0085231862049 0.0085592255934 0.0085954629813 0.008631901338 0.0086685403681 0.0087053828616 0.0087424271291 0.0087796774274 0.0088171343597 
0.0088547986608 0.0088926710741 0.0089307529472 0.0089690455389 0.0090075500306 0.0090462674328 0.0090851991224 0.0091243456053 0.0091637092795 
0.008081285541 0.0081148392697 0.008148577586 0.0081825043865 0.0082166150673 0.0082509135827 0.0082853981987 0.0083200752797 0.0083549437284 
0.0083900044998 0.0084252579519 0.0084607062203 0.008496349255 0.0085321897884 0.0085682265641 0.0086044624199 0.0086408976544 0.0086775343797 
0.0087143730468 0.0087514130151 0.0087886583813 0.0088261097174 0.0088637675621 0.0089016331929 0.0089397074782 0.0089779916408 0.009016486893 
0.0090551947286 0.0090941151578 0.0091332507495 0.0080567853882 0.0080901585824 0.0081237150072 0.0081574559132 0.0081913847203 0.0082254973934 
0.0082597944999 0.0082942829165 0.0083289610357 0.0083638295367 0.0083988899973 0.0084341428569 0.0084695896139 0.0085052317198 0.0085410696164 
0.0085771041033 0.0086133369662 0.0086497684204 0.0086864009285 0.0087232345369 0.0087602691215 0.0087975080612 0.0088349526667 0.008872603042 
0.008910460314 0.0089485255168 0.0089867997827 0.0090252845388 0.0090639805805 0.0091028892294 0.0080323519083 0.008065545602 0.0080989208712 
0.0081324793518 0.0081662216829 0.0082001520521 0.0082342628967 0.0082685631411 0.0083030518738 0.0083377295752 0.0083725976559 0.0084076567234 
0.0084429078198 0.0084783526893 0.0085139923525 0.0085498266429 0.0085858576649 0.0086220856369 0.0086585126803 0.0086951394803 0.008731965145 
0.0087689945509 0.0088062261385 0.008843662678 0.008881304043 0.0089191515376 0.0089572063822 0.0089954693055 0.0090339418001 0.0090726247291 
0.00800798539 0.0080409999361 0.0080741952871 0.0081075722692 0.0081411317135 0.0081748777725 0.0082088055773 0.008242916229 0.008277216199 
0.0083117041749 0.0083463809843 0.0083812471581 0.0084163039497 0.0084515522896 0.0084869944068 0.0085226297102 0.0085584602338 0.0085944857933 
0.0086307088325 0.0086671297151 0.0087037495861 0.0087405679551 0.008777588497 0.0088148122483 0.0088522390494 0.0088898700468 0.0089277064608 
0.0089657490325 0.0090039992905 0.0090424580658 0.0079836862325 0.0080165223652 0.0080495380068 0.0080827342943 0.0081161119309 0.0081496717091 
0.0081834178279 0.0082173425898 0.0082514548257 0.0082857538393 0.0083202402667 0.0083549145308 0.0083897778988 0.0084248312932 0.0084600768964 
0.00849551433 0.0085311448474 0.008566969437 0.0086029892208 0.0086392054383 0.0086756190762 0.0087122310261 0.0087490407832 0.008786051774 
0.0088232654079 0.0088606809301 0.0088983004068 0.0089361239495 0.0089741532714 0.0090123891775 0.00795945385 0.0079921128316 0.0080249497718 
0.008057966101 0.0080911624132 0.0081245399062 0.0081580995167 0.0081918417435 0.0082257674009 0.0082598780715 0.0082941753498 0.0083286586981 
0.0083633300723 0.0083981893297 0.0084332394458 0.0084684798388 0.0085039118682 0.00853953609 0.0085753534098 0.0086113662793 0.0086475750883 
0.0086839800856 0.0087205828401 0.0087573826974 0.0087943834218 0.0088315847766 0.0088689882213 0.0089065939542 0.0089444037692 0.0089824183327 
0.007935288825 0.0079677707129 0.0080004301897 0.0080332676662 0.0080662837144 0.0080994792049 0.0081328560778 0.0081664140369 0.0082001540768 
0.0082340777845 0.0082681863569 0.0083024800166 0.0083369597825 0.0083716261854 0.0084064817974 0.0084415261248 0.0084767607436 0.0085121856184 
0.0085478023707 0.0085836128327 0.0086196174251 0.0086558167436 0.0086922122877 0.0087288043361 0.008765593163 0.0088025813863 0.0088397703175 
0.0088771596169 0.0089147508284 0.0089525452035 0.0079111897946 0.0079434968694 0.0079759788642 0.0080086382316 0.0080414749428 0.0080744900688 
0.0081076848633 0.0081410593863 0.0081746145442 0.0082083523542 0.0082422734642 0.0082763781994 0.0083106671435 0.0083451422456 0.0083798039265 
0.008414653864 0.0084496917965 0.0084849190328 0.0085203366827 0.0085559452795 0.0085917467247 0.0086277412949 0.0086639300874 0.0087003143572 
0.0087368950823 0.0087736710022 0.0088106457535 0.008847819846 0.008885194019 0.0089227692509 0.0078871574511 0.0079192899398 0.0079515965145 
0.0079840786448 0.0080167363456 0.0080495716962 0.0080825849592 0.0081157774728 0.0081491468904 0.0081827017107 0.0082164360138 0.0082503529748 
0.0082844525847 0.0083187367649 0.0083532063296 0.008387862414 0.00842270503 0.0084577352339 0.0084929543872 0.0085283628749 0.0085639626145 
0.0085997538151 0.0086357372815 0.0086719146944 0.0087082862494 0.0087448531694 0.0087816159072 0.0088185757481 0.0088557339288 0.0088930917647 
0.0078631920418 0.0078951501316 0.0079272820217 0.0079595871409 0.0079920679573 0.0080247239617 0.0080575571915 0.0080905682785 0.0081237550254 
0.0081571232808 0.0081906743848 0.008224404366 0.0082583158468 0.008292410483 0.0083266885806 0.0083611516982 0.0083958002767 0.0084306348018 
0.008465656418 0.008500865963 0.0085362649116 0.008571853885 0.0086076339695 0.0086436055786 0.0086797698728 0.0087161276897 0.0087526804156 
0.0087894263026 0.0088263707233 0.0088635128158 0.0078392923381 0.0078710774702 0.0079030345464 0.0079351650266 0.007967469146 0.0079999479003 
0.0080326019108 0.0080654310401 0.0080984389557 0.0081316216498 0.0081649883669 0.0081985321831 0.00823225663 0.0082661623032 0.00830024977 
0.0083345209666 0.0083689766085 0.008403616792 0.0084384425723 0.0084734547769 0.0085086538255 0.0085440417546 0.0085796193011 0.0086153864206 
0.0086513446899 0.0086874947314 0.0087238379069 0.0087603742902 0.0087971033135 0.008834030572 0.0078154588622 0.0078470714986 0.0078788552092 
0.0079108107938 0.0079429394213 0.0079752409527 0.0080077169013 0.0080403673968 0.0080731944525 0.0081061949289 0.0081393753479 0.0081727360006 
0.0082062741629 0.0082399925015 0.0082738909041 0.0083079715066 0.0083422352502 0.0083766814366 0.0084113118835 0.0084461273996 0.0084811287309 
0.0085163173103 0.0085516929846 0.0085872570367 0.0086230102784 0.00865895382 0.0086950884003 0.0087314150561 0.0087679329023 0.0088046459444 
0.0077916907604 0.0078231321993 0.0078547433278 0.0078865252226 0.0079184786515 0.0079506040946 0.0079829025753 0.0080153744864 0.0080480215625 
0.008080841289 0.0081138388356 0.008147013911 0.0081803688256 0.0082139005985 0.0082476113766 0.0082815024411 0.0083155747647 0.0083498289251 
0.0083842655653 0.0084188856981 0.008453689772 0.0084886787047 0.0085238540307 0.008559216289 0.0085947659143 0.0086305047157 0.0086664325398 
0.0087025502559 0.0087388592914 0.0087753588707 0.0077679878928 0.0077992586711 0.0078306981406 0.0078623071544 0.0078940866065 0.0079260365595 
0.0079581583517 0.0079904532094 0.008022921045 0.0080555633398 0.0080883775733 0.0081213694076 0.0081545372409 0.0081878861264 0.0082214101876 
0.0082551131354 0.0082889958961 0.0083230580381 0.0083573019356 0.0083917275546 0.0084263362349 0.0084611273744 0.0084961036979 0.0085312649238 
0.0085666121757 0.0086021463941 0.0086378686061 0.0086737788633 0.0087098786777 0.0087461684111 0.0077443495811 0.0077754507553 0.0078067193247 
0.0078381560993 0.0078697624386 0.0079015384359 0.0079334847413 0.007965602608 0.0079978928353 0.0080303560706 0.0080629896706 0.0080957999132 
0.0081287853579 0.0081619493234 0.0081952872178 0.0082288026294 0.0082624960704 0.0082963687263 0.0083304209399 0.0083646530762 0.0083990670438 
0.0084336621886 0.0084684407018 0.0085034025338 0.0085385486557 0.0085738798226 0.0086093974543 0.0086451018644 0.0086809936391 0.0087170737389 
0.0077207753833 0.0077517072919 0.007782806052 0.0078140721296 0.0078455061426 0.0078771089429 0.0079088807127 0.0079408228097 0.0079729358001 
0.0080052209006 0.0080376758944 0.0080703043502 0.0081031078374 0.0081360863194 0.0081692422074 0.0082025715878 0.0082360770903 0.0082697606135 
0.0083036221738 0.0083376630451 0.0083718832766 0.008406282958 0.0084408642422 0.0084756277872 0.0085105741015 0.008545704056 0.0085810184685 
0.0086165178399 0.008652202732 0.0086880745664 0.0076972643991 0.0077280289446 0.0077589584278 0.0077900543069 0.0078213171422 0.0078527474453 
0.0078843457079 0.0079161133106 0.0079480502855 0.0079801576107 0.0080124365878 0.0080448832052 0.0080775056766 0.0081103014138 0.0081432711796 
0.0081764178606 0.0082097372135 0.008243232339 0.0082769047489 0.0083107548814 0.0083447826781 0.0083789890395 0.008413374931 0.008447941141 
0.008482688852 0.0085176186017 0.0085527312439 0.0085880270423 0.0086235069061 0.008659171588 0.0076738168008 0.0077044140571 0.007735175321 
0.0077661021705 0.0077971948198 0.0078284536156 0.0078598793821 0.007891472883 0.0079232348375 0.0079551659104 0.0079872670529 0.0080195353993 
0.0080519778401 0.0080845922563 0.0081173794965 0.0081503396867 0.0081834758182 0.0082167841345 0.008250268728 0.0082839287323 0.0083177653811 
0.0083517791656 0.0083859713162 0.0084203417109 0.0084548919085 0.0084896227274 0.0085245345429 0.0085596278548 0.0085949036643 0.0086303631126 
0.0084672898758 0.0085034182206 0.0085397499821 0.0085762853341 0.0086130277672 0.0086499783483 0.0086871387532 0.0087245089821 0.0087620904232 
0.0087998854438 0.0088378925216 0.0088761176437 0.0089145604448 0.0089532207347 0.0089921009378 0.0090312032198 0.0090705286684 0.0091100786225 
0.0091498536362 0.0091898561713 0.0092300870241 0.0092705481627 0.0093112407349 0.0093521661993 0.0093933256998 0.009434721307 0.0094763542842 
0.0095182257542 0.009560337425 0.0096026908913 0.0084417907948 0.0084777271434 0.0085138658628 0.0085502083093 0.0085867522651 0.0086235060285 
0.0086604662193 0.0086976346819 0.0087350141512 0.0087726047731 0.0088104056079 0.0088484225764 0.008886655883 0.0089251042177 0.0089637719579 
0.0090026580107 0.0090417664969 0.0090810962642 0.0091206509099 0.0091604304963 0.0092004366936 0.0092406708787 0.0092811344803 0.0093218289684 
0.0093627554495 0.0094039157519 0.0094453112349 0.0094869432523 0.0095288132496 0.0095709227696 0.0084163537008 0.0084520997297 0.0084880460406 
0.0085241938304 0.0085605424471 0.0085970985442 0.0086338595924 0.0086708277918 0.0087080054517 0.0087453923551 0.008782989784 0.008820797502 
0.0088588218015 0.0088970602347 0.0089355149709 0.0089741866612 0.0090130789866 0.0090521908931 0.0090915254028 0.0091310831648 0.0091708654888 
0.0092108738275 0.0092511095681 0.009291574103 0.0093322689211 0.0093731948361 0.0094143541625 0.0094557477412 0.0094973773643 0.0095392442437 
0.0083909773047 0.0084265329596 0.0084622878965 0.0084982425215 0.0085343964692 0.0085707559803 0.0086073196644 0.0086440882622 0.0086810639889 
0.0087182481248 0.0087556408456 0.0087932451541 0.00883106007 0.0088690889175 0.0089073325373 0.0089457907845 0.0089844681229 0.0090233626416 
0.0090624782459 0.0091018152629 0.0091413746274 0.0091811582131 0.0092211672039 0.0092614029661 0.0093018668976 0.0093425599921 0.0093834843657 
0.0094246407452 0.0094660310885 0.0095076567989 0.008365662933 0.0084010296524 0.0084365935273 0.0084723559551 0.0085083162471 0.0085444799563 
0.0085808466757 0.0086174167598 0.0086541921426 0.0086911744491 0.0087283635986 0.0087657619202 0.0088033712032 0.0088411892975 0.0088792232172 
0.008917469407 0.0089559321347 0.0089946116858 0.0090335095317 0.0090726264389 0.0091119642763 0.0091515240416 0.0091913074014 0.0092313155281 
0.009271549785 0.0093120114876 0.0093527017521 0.0093936222332 0.0094347744817 0.0094761598647 0.0083404113387 0.0083755893995 0.0084109632567 
0.0084465344767 0.0084823043324 0.008518271091 0.0085544416509 0.0085908140458 0.0086273898616 0.0086641711718 0.0087011577682 0.0087383517586 
0.008775754419 0.008813365393 0.0088511890312 0.0088892240908 0.0089274727637 0.0089659386846 0.0090046197116 0.0090435180953 0.0090826356083 
0.0091219726707 0.0091615313676 0.0092013129634 0.0092413187664 0.0092815499671 0.0093220075822 0.0093626933787 0.0094036088538 0.0094447550943 
0.0083152237366 0.008350214043 0.0083853983095 0.0084207789222 0.0084563566917 0.0084921297366 0.0085281046624 0.0085642804817 0.0086006579933 
0.0086372391024 0.008674024011 0.0087110147322 0.0087482121698 0.0087856183475 0.0088232314898 0.008861057223 0.0088990934696 0.0089373436937 
0.0089758086827 0.0090144896816 0.0090533880465 0.0090925048004 0.0091318402719 0.0091713963538 0.009211174669 0.0092511764781 0.009291402989 
0.0093318551295 0.0093725347012 0.0094134434021 0.0082900974843 0.008324903427 0.0083598992942 0.0083950896257 0.0084304756883 0.0084660565163 
0.0085018370197 0.0085378168556 0.0085739968733 0.0086103784287 0.0086469628782 0.0086837511665 0.0087207445155 0.0087579448587 0.0087953524917 
0.0088329669522 0.0088707921605 0.0089088293485 0.0089470799598 0.0089855442248 0.0090242239644 0.0090631195263 0.0091022327912 0.009141565375 
0.0091811175793 0.0092208912331 0.0092608879126 0.0093011077516 0.0093415533507 0.0093822255127 0.0082650381641 0.0082996580366 0.0083344663961 
0.0083694677015 0.0084046628433 0.0084400511863 0.0084756380912 0.0085114234323 0.0085474067991 0.0085835901201 0.0086199747637 0.0086565615698 
0.0086933517181 0.008730347283 0.0087675483182 0.0088049558192 0.008842569784 0.0088803958704 0.0089184323477 0.0089566811734 0.0089951432241 
0.009033819934 0.0090727123357 0.0091118213165 0.0091511487036 0.0091906953459 0.009230462592 0.0092704522102 0.0093106644875 0.009351101202 
0.008240044787 0.0082744757711 0.0083090998549 0.0083439129283 0.0083789185987 0.0084141182264 0.0084495099852 0.0084851005231 0.0085208884355 
0.0085568745334 0.0085930605725 0.0086294467469 0.0086660349185 0.0087028263534 0.008739821937 0.0087770222349 0.008814429085 0.0088520425891 
0.0088898669012 0.0089279008713 0.0089661467654 0.0090046053895 0.0090432776505 0.0090821651703 0.0091212688991 0.009160589553 0.0092001291185 
0.0092398887443 0.009279869235 0.009320072312 0.0082151162748 0.008249362715 0.0082837980584 0.0083184265349 0.0083532430739 0.0083882521642 
0.0084234522188 0.0084588490666 0.0084944422868 0.0085302320222 0.008566220121 0.0086024070842 0.0086387939434 0.0086753825348 0.008712173651 
0.0087491677519 0.0087863674354 0.0088237705324 0.0088613833777 0.0088992040151 0.0089372349551 0.008975476667 0.0090139301576 0.0090525967542 
0.0090914776461 0.0091305743793 0.0091698874965 0.0092094184194 0.0092491684008 0.0092891388987 0.008190253463 0.0082243161471 0.0082585664133 
0.0082930080874 0.0083276368171 0.0083624563529 0.0083974652691 0.0084326697076 0.0084680688938 0.0085036628922 0.008539453938 0.0085754425512 
0.0086116292252 0.0086480156281 0.0086846038028 0.0087213927487 0.0087583855563 0.0087955818761 0.0088329826731 0.0088705918148 0.0089084081553 
0.0089464339535 0.0089846700124 0.0090231171107 0.0090617765361 0.0091006496835 0.0091397379019 0.0091790416601 0.0092185626807 0.0092583012389 
0.0081654568766 0.0081993363577 0.0082334022081 0.0082676554249 0.0083020996185 0.0083367304598 0.0083715497683 0.0084065627011 0.0084417688269 
0.008477167997 0.0085127628681 0.0085485534891 0.0085845410754 0.0086207266 0.008657111957 0.0086936975922 0.0087304845985 0.0087674734294 
0.0088046666863 0.0088420631141 0.0088796671716 0.0089174778103 0.0089554973495 0.0089937260397 0.0090321653353 0.0090708163718 0.0091096802699 
0.0091487582962 0.009188051414 0.009227560179 0.0081407257756 0.0081744234386 0.0082083057673 0.0082423740321 0.0082766291165 0.0083110752419 
0.0083457076449 0.0083805275802 0.0084155413187 0.0084507475149 0.0084861469447 0.0085217411836 0.0085575304239 0.0085935159299 0.0086296997414 
0.0086660822101 0.0087026645177 0.0087394470868 0.0087764322854 0.0088136204558 0.0088510112322 0.0088886091433 0.0089264125657 0.0089644243101 
0.0090026446919 0.0090410748637 0.0090797158175 0.0091185690457 0.0091576351826 0.0091969158819 0.008116061567 0.0081495774974 0.0081832773657 
0.0082171616614 0.0082512313879 0.0082854905087 0.0083199347032 0.0083545650357 0.0083893874573 0.0084244012057 0.0084596065039 0.008495005131 
0.0085305971769 0.008566384017 0.0086023668114 0.0086385471525 0.0086749261338 0.0087115039005 0.0087482812848 0.0087852608451 0.0088224427797 
0.0088598264649 0.0088974162691 0.008935211968 0.0089732146733 0.0090114251224 0.0090498445063 0.0090884742505 0.009127314929 0.0091663681304 
0.008091464197 0.0081247993276 0.0081583169469 0.0081920178841 0.0082259033269 0.0082599738297 0.0082942333573 0.0083286748758 0.0083633071342 
0.0083981288811 0.0084331413132 0.00846834526 0.0085037412075 0.0085393302708 0.0085751139357 0.0086110932801 0.0086472692848 0.0086836427388 
0.008720214394 0.0087569861837 0.0087939585021 0.008831132764 0.0088685086805 0.0089060894652 0.0089438754678 0.0089818674185 0.0090200664944 
0.0090584740201 0.0090970905934 0.0091359176497 0.0080669330451 0.0081000886001 0.0081334251625 0.0081669434605 0.0082006450147 0.0082345305896 
0.0082686009584 0.0083028572919 0.0083373002338 0.0083719312633 0.0084067515287 0.0084417619177 0.0084769626671 0.0085123550026 0.0085479397476 
0.0085837196121 0.0086196942685 0.0086558645722 0.0086922311983 0.0087287968599 0.0087655607499 0.0088025251294 0.0088396904954 0.0088770571956 
0.0089146274294 0.0089524022162 0.0089903820707 0.0090285685822 0.009066962299 0.0091055645521 0.0080424690487 0.008075445017 0.0081086013452 
0.0081419382666 0.0081754569174 0.0082091583287 0.0082430430344 0.0082771148865 0.0083113671643 0.008345808463 0.0083804375411 0.0084152550375 
0.0084502615528 0.0084854578234 0.0085208458059 0.0085564270233 0.0085922008479 0.008628169076 0.0086643326381 0.0087006919304 0.0087372491012 
0.0087740050785 0.0088109599783 0.0088481141097 0.0088854706193 0.0089230289949 0.0089607913872 0.008998758258 0.0090369305014 0.0090753091318 
0.0080180711084 0.0080508695876 0.0080838459222 0.0081170019541 0.0081503386539 0.0081838567742 0.0082175568701 0.0082514400436 0.0082855076839 
0.0083197602186 0.008354198739 0.0083888246806 0.0084236383421 0.0084586397783 0.0084938316206 0.0085292150456 0.0085647894768 0.0086005567806 
0.0086365175539 0.0086726725451 0.0087090237852 0.0087455718043 0.0087823172116 0.0088192621419 0.0088564045049 0.0088937484413 0.008931293598 
0.0089690422183 0.0090069941833 0.009045150621 0.0079937394273 0.0080263605776 0.0080591589265 0.0080921354071 0.008125290458 0.0081586262146 
0.0081921423776 0.0082258404531 0.0082597192567 0.0082937864698 0.0083280357951 0.0083624710657 0.0083970924172 0.0084319004357 0.0084668971757 
0.0085020838706 0.008537460137 0.0085730272255 0.0086087867394 0.0086447386516 0.0086808850874 0.0087172266665 0.0087537642173 0.0087904985289 
0.0088274306051 0.0088645599275 0.0089018908763 0.0089394216216 0.0089771546367 0.0090150902314 0.0079694744396 0.0080019191338 0.0080345392917 
0.0080673369094 0.0081003123501 0.0081334660982 0.0081667996938 0.0082003136482 0.0082340070515 0.0082678871825 0.0083019482471 0.0083361934648 
0.0083706239773 0.0084052394952 0.0084400421675 0.0084750327287 0.0085102122471 0.008545580809 0.0085811400035 0.0086168904647 0.0086528328087 
0.008688969026 0.0087252996754 0.0087618252512 0.0087985468733 0.0088354653358 0.0088725803399 0.0089098954914 0.0089474111379 0.0089851272124 
0.0079452752162 0.0079775442596 0.008009988113 0.0080426075952 0.0080754037329 0.0081083774454 0.0081415284226 0.0081748587451 0.0082083700163 
0.0082420597785 0.0082759360128 0.0083099925958 0.0083442324209 0.008378656577 0.0084132661777 0.0084480621582 0.0084830456012 0.008518216764 
0.0085535767302 0.0085891265031 0.0086248664856 0.0086607985239 0.0086969231954 0.0087332410773 0.008769753518 0.0088064612367 0.0088433650515 
0.0088804649145 0.0089177633482 0.0089552613263 0.0079211411758 0.0079532353395 0.0079855036988 0.0080179460242 0.0080505637658 0.0080833578367 
0.0081163285039 0.0081494772868 0.0081828046822 0.0082163088426 0.0082499963295 0.0082838676451 0.0083179186939 0.0083521524806 0.0083865699125 
0.0084211720535 0.0084559604985 0.0084909350532 0.0085260968214 0.0085614470052 0.008596986501 0.0086327154992 0.0086686355658 0.0087047472736 
0.0087410518248 0.0087775498166 0.0088142419376 0.0088511300592 0.008888212856 0.0089254933699 0.0078970733786 0.0079289934012 0.007961086237 
0.0079933525456 0.0080257930259 0.0080584082055 0.0080911990247 0.0081241665798 0.0081573113862 0.0081906324747 0.0082241343561 0.0082578190399 
0.0082916816977 0.0083257262435 0.0083599524429 0.0083943620482 0.0084289561638 0.0084637357461 0.0084987009082 0.0085338525124 0.008569191865 
0.0086047188762 0.0086404356313 0.0086763424893 0.0087124406646 0.0087487301266 0.0087852128407 0.0088218885966 0.0088587584658 0.008895822775 
0.0078730708201 0.007904817834 0.0079367361961 0.0079688268166 0.0080010907748 0.0080335281895 0.0080661401954 0.0080989274549 0.008131890707 
0.0081650311244 0.008198346483 0.0082318430374 0.0082655203542 0.0082993767757 0.0083334140301 0.0083676327165 0.0084020338684 0.0084366189765 
0.0084713884437 0.0085063421216 0.0085414830443 0.0085768096115 0.0086123240422 0.0086480268848 0.008683919277 0.0087200015988 0.0087562753116 
0.0087927404171 0.0088293981014 0.0088662498345 0.0078491330348 0.00788070794 0.007912452959 0.0079443690252 0.0079764569934 0.0080087175388 
0.0080411515227 0.008073759418 0.0081065418409 0.0081394998715 0.0081726327922 0.0082059447756 0.0082394341709 0.0082731047479 0.0083069535091 
0.0083409820045 0.0083751915227 0.0084095841183 0.0084441589327 0.0084789168134 0.0085138592677 0.0085489869259 0.0085842999047 0.0086198002986 
0.0086554884562 0.0086913647699 0.0087274307738 0.008763686538 0.0088001331401 0.0088367720069 0.0078252594966 0.0078566630315 0.0078882356465 
0.0079199780277 0.0079518912033 0.0079839751799 0.0080162322573 0.0080486617714 0.0080812648681 0.0081140421545 0.0081469927237 0.008180121283 
0.0082134256875 0.0082469077943 0.0082805716154 0.008314410889 0.0083484298915 0.0083826297923 0.0084170112891 0.0084515748761 0.008486320362 
0.0085212496834 0.0085563629445 0.0085916616931 0.0086271468648 0.0086628185532 0.0086986782912 0.0087347261723 0.0087709634854 0.0088073901429 
0.0078014496867 0.0078326828835 0.0078640838895 0.0078956532221 0.0079273924608 0.0079593017843 0.0079913821971 0.0080236346639 0.0080560591006 
0.0080886564536 0.0081214274239 0.0081543721302 0.0081874926405 0.0082207897329 0.0082542662649 0.0082879179316 0.0083217475736 0.00835575654 
0.0083899458587 0.0084243153016 0.0084588656523 0.0084935982604 0.0085285137449 0.0085636117883 0.0085988952538 0.008634363358 0.0086700179375 
0.0087058589212 0.0087418878167 0.0087781046414 0.0077777029494 0.0078087662736 0.0078399970461 0.0078713947707 0.0079029610248 0.0079346962576 
0.0079666013606 0.0079986770452 0.0080309237247 0.0080633425579 0.008095933495 0.0081286959702 0.0081616339688 0.0081947473911 0.0082280359811 
0.0082615031577 0.0082951443932 0.0083289635324 0.0083629618127 0.0083971383003 0.0084314944121 0.0084660312268 0.0085007493755 0.0085356489855 
0.0085707320431 0.0086059978951 0.0086414485158 0.0086770840624 0.0087129058384 0.0087489136276 0.0077540194809 0.0077849141921 0.0078159746198 
0.0078472013262 0.0078785958176 0.0079101579936 0.0079418890618 0.0079737891554 0.0080058590981 0.0080380993851 0.0080705114399 0.0081030930533 
0.0081358499033 0.0081687799211 0.0082018841792 0.0082351630506 0.008268619532 0.0083022504103 0.0083360578821 0.0083700432324 0.0084042065884 
0.0084385488288 0.0084730707603 0.0085077728678 0.0085426566226 0.0085777218706 0.008612970266 0.0086484023582 0.0086840173373 0.0087198174642 
0.0085539361459 0.0085904086692 0.0086270865908 0.0086639708876 0.0087010612614 0.0087383635514 0.0087758762657 0.0088136005499 0.0088515393042 
0.0088896919241 0.0089280592763 0.0089666458826 0.0090054520204 0.009044478927 0.0090837259531 0.0091231968313 0.0091628931124 0.0092028153237 
0.0092429643979 0.0092833431326 0.0093239523213 0.0093647933221 0.009405867622 0.0094471764177 0.0094887217707 0.0095305047213 0.0095725267826 
0.0096147890726 0.0096572938171 0.0097000422302 0.008528211887 0.0085644910661 0.0086009741587 0.0086376620307 0.0086745542289 0.0087116560358 
0.0087489671251 0.0087864897359 0.0088242230852 0.0088621693491 0.0089003315228 0.0089387062748 0.0089773007535 0.0090161144503 0.0090551463728 
0.0090943996424 0.0091338766473 0.00917357812 0.0092135044718 0.0092536584698 0.0092940408242 0.0093346530155 0.0093754964634 0.0094165725925 