# vtk DataFile Version 5.1
vtk output
ASCII
DATASET STRUCTURED_POINTS
DIMENSIONS 30 30 30
SPACING 0.01 0.01 0.01
ORIGIN 1.555 -0.145 0.855
POINT_DATA 27000
FIELD FieldData 1
potential 1 27000 double
0.37016816479 0.37017534243 0.37018275916 0.37019051117 0.37019858108 0.37020697043 0.37021571163 0.37022472503 0.37023403353 
0.37024363907 0.37025359389 0.37026377758 0.37027422599 0.37028495206 0.37029600105 0.37030730285 0.37031887899 0.37033069526 
0.37034280302 0.37035505347 0.37036760859 0.37038039807 0.37039342221 0.37040666839 0.37042014841 0.37043393106 0.37044785701 
0.37046197984 0.37047631014 0.37049082022 0.37090270274 0.37090953402 0.37091659457 0.37092403373 0.37093177011 0.37093982515 
0.3709482801 0.370956995 0.37096605011 0.3709753646 0.3709850034 0.37099495353 0.37100514565 0.37101557783 0.37102639694 
0.37103741117 0.37104881262 0.37106035562 0.37107219961 0.37108429985 0.3710966612 0.37110927275 0.37112213015 0.37113523597 
0.37114855513 0.371162211 0.37117601414 0.37119003241 0.37120426524 0.37121868805 0.37158573457 0.37159211782 0.37159898184 
0.37160609607 0.37161346957 0.37162123841 0.37162934702 0.37163778249 0.37164651763 0.37165554276 0.37166486317 0.37167450167 
0.37168442944 0.37169460366 0.37170515632 0.37171595504 0.37172708213 0.37173839908 0.37175003331 0.37176191174 0.37177405375 
0.37178652611 0.37179921215 0.37181216033 0.37182534796 0.37183873945 0.37185252811 0.3718664313 0.37188058253 0.37189492719 
0.37221700908 0.37222304092 0.37222962015 0.3722363487 0.37224335976 0.37225078211 0.37225854481 0.3722666291 0.37227506603 
0.37228379007 0.3722928258 0.37230219657 0.37231182648 0.37232177548 0.37233202787 0.37234256525 0.37235344926 0.37236453463 
0.3723759482 0.37238762031 0.3723995631 0.37241180603 0.37242436237 0.3724371373 0.37245017071 0.37246344128 0.37247708286 
0.37249087184 0.37250490276 0.37251916687 0.37279620253 0.37280187825 0.37280796605 0.37281441227 0.37282109029 0.37282816437 
0.37283559397 0.37284335529 0.37285142205 0.37285986091 0.37286857473 0.37287767131 0.37288704275 0.3728967157 0.37290670274 
0.37291698445 0.37292766034 0.37293845916 0.37294962684 0.37296110491 0.37297284366 0.37298489447 0.37299723007 0.37300987428 
0.3730227521 0.37303588263 0.37304930461 0.37306305734 0.37307697497 0.37309113403 0.37332292835 0.37332831662 0.37333397149 
0.37334009048 0.37334641529 0.37335313021 0.37336023354 0.37336765389 0.37337540268 0.37338348911 0.37339194228 0.37340070926 
0.37340977346 0.37341916539 0.37342886565 0.37343899072 0.37344936282 0.37345997028 0.37347085935 0.37348210826 0.37349366641 
0.37350549302 0.37351764293 0.37353007931 0.37354283573 0.37355581444 0.37356908818 0.37358275058 0.37359651193 0.37361059332 
0.37379706128 0.37380202396 0.37380736585 0.37381303952 0.37381910252 0.37382548265 0.37383220262 0.37383930249 0.37384671415 
0.37385448186 0.37386262113 0.37387108188 0.3738798382 0.37388895968 0.37389838174 0.37390825656 0.37391829349 0.3739287007 
0.37393938018 0.37395041522 0.37396175225 0.37397338205 0.37398533135 0.37399759261 0.37401014928 0.37402301022 0.37403614555 
0.37404966071 0.37406334676 0.37407730814 0.37421831192 0.37422288936 0.37422785156 0.37423317859 0.37423893283 0.37424490687 
0.37425126815 0.37425803106 0.37426514295 0.37427255271 0.37428034082 0.3742885245 0.37429698125 0.37430581149 0.37431496575 
0.3743245562 0.37433433329 0.37434447644 0.37435497634 0.37436574191 0.37437688752 0.37438831096 0.37440008262 0.37441216285 
0.37442452352 0.37443721831 0.37445022047 0.37446352413 0.37447720643 0.37449107523 0.37458656806 0.37459076172 0.37459532194 
0.37460028167 0.37460566432 0.37461131268 0.37461731908 0.37462373046 0.37463050208 0.3746375818 0.37464504606 0.37465287948 
0.37466106484 0.37466960071 0.37467846895 0.37468778073 0.37469734354 0.37470717633 0.37471741798 0.37472799565 0.37473886661 
0.37475011227 0.37476165766 0.37477356726 0.37478579052 0.37479829453 0.3748111385 0.37482432127 0.37483791248 0.37485167683 
0.37490162801 0.37490542688 0.37490961258 0.37491416595 0.3749191087 0.37492444766 0.37493012791 0.37493618528 0.37494262291 
0.37494936727 0.37495650362 0.37496403308 0.3749719 0.37498010727 0.37498875664 0.37499768258 0.37500703626 0.3750166616 
0.37502661032 0.37503695484 0.37504760069 0.37505863483 0.37506998298 0.3750816973 0.37509370033 0.37510608066 0.37511878805 
0.37513182029 0.37514520902 0.37515894708 0.37516335448 0.37516676941 0.37517055962 0.37517473383 0.37517930196 0.37518425626 
0.37518957411 0.37519523786 0.37520133902 0.37520776194 0.37521460422 0.37522178091 0.37522933531 0.37523724013 0.37524559651 
0.37525424068 0.37526331871 0.37527269094 0.37528243628 0.37529249559 0.37530295834 0.37531373573 0.37532488404 0.37533638566 
0.37534824083 0.37536045951 0.37537300904 0.37538589827 0.37539913632 0.37541276793 0.37537159262 0.37537461447 0.37537802338 
0.37538181979 0.37538597563 0.37539056199 0.37539554972 0.37540085484 0.37540659383 0.37541263838 0.3754191512 0.37542601684 
0.37543325529 0.37544087252 0.37544892312 0.37545728229 0.37546608516 0.37547519138 0.37548468966 0.37549450938 0.37550474308 
0.37551530389 0.37552627616 0.37553755842 0.3755492362 0.37556128798 0.37557368354 0.37558643586 0.37559955558 0.37561296435 
0.37552626689 0.37552889309 0.37553190908 0.37553532108 0.37553912004 0.37554332235 0.3755479342 0.37555289388 0.37555824719 
0.37556397425 0.37557013736 0.37557667366 0.37558357413 0.37559085303 0.37559861368 0.3756067133 0.37561524577 0.37562408287 
0.37563331987 0.37564294945 0.37565290695 0.37566329386 0.3756739897 0.3756851051 0.37569660385 0.37570849481 0.37572074463 
0.37573334686 0.37574634026 0.37575963847 0.37562730159 0.37562952657 0.37563215433 0.37563519269 0.37563861078 0.37564241151 
0.37564667629 0.37565127911 0.37565627508 0.37566167347 0.37566747185 0.37567366 0.37568025245 0.37568726816 0.37569464618 
0.37570248045 0.37571067028 0.37571929608 0.37572828417 0.37573767061 0.37574743956 0.37575753664 0.3757680509 0.37577897213 
0.37579029256 0.37580199257 0.37581410762 0.37582656638 0.37583942224 0.37585262135 0.37567465607 0.37567650465 0.37567874592 
0.3756813623 0.37568439376 0.37568782017 0.37569162733 0.37569595376 0.37570059124 0.37570564226 0.37571109934 0.37571696867 
0.37572324839 0.37572992037 0.37573701215 0.37574456871 0.37575248079 0.37576083694 0.3757695378 0.37577866865 0.37578818583 
0.37579813116 0.37580843982 0.37581912045 0.37583025884 0.3758417987 0.37585372851 0.37586606624 0.37587877834 0.375891879 
0.37566830981 0.37566974263 0.37567161024 0.37567383261 0.37567647794 0.37567952224 0.37568298437 0.37568691395 0.3756912246 
0.37569591636 0.37570100886 0.37570654445 0.37571250381 0.37571889731 0.37572564563 0.37573286961 0.37574054207 0.3757486255 
0.37575708934 0.37576594121 0.3757752206 0.37578495549 0.37579505515 0.37580557683 0.37581650174 0.37582786923 0.37583963196 
0.37585183125 0.37586441582 0.37587740337 0.37560829264 0.37560930217 0.37561075687 0.3756125917 0.37561486676 0.37561753929 
0.375620611 0.37562408599 0.37562812451 0.37563246288 0.37563721364 0.37564241604 0.37564804975 0.37565412691 0.37566057071 
0.37566747779 0.37567484093 0.37568263636 0.37569090742 0.37569950999 0.37570858009 0.37571808213 0.37572802972 0.37573830166 
0.37574899407 0.37576020975 0.37577182983 0.37578388417 0.37579634048 0.37580921298 0.37549458987 0.3754952324 0.37549626871 
0.37549769508 0.37549957655 0.37550187451 0.37550456304 0.37550767298 0.37551135087 0.37551536814 0.37551974107 0.37552460882 
0.37552991433 0.375535686 0.37554182474 0.37554843978 0.37555548314 0.37556304273 0.37557100807 0.37557938866 0.37558823763 
0.37559751571 0.37560724201 0.375617387 0.37562786901 0.37563887872 0.37565034157 0.37566224865 0.37567458346 0.37568732485 
0.37532731955 0.37532750775 0.3753281556 0.37532920726 0.37533070041 0.37533259414 0.37533491094 0.37533768206 0.37534097143 
0.37534463635 0.37534868268 0.37535320355 0.37535817017 0.37536362599 0.37536947941 0.37537579327 0.37538254134 0.37538979716 
0.37539752794 0.37540565842 0.37541426862 0.37542332515 0.37543285274 0.37544280061 0.37545316631 0.37546396532 0.37547527516 
0.37548700345 0.37549921603 0.37551184355 0.37510647037 0.37510630116 0.3751065028 0.37510716945 0.3751082724 0.37510980366 
0.37511174114 0.37511416499 0.3751170876 0.37512037634 0.37512407964 0.37512826745 0.37513295123 0.37513804931 0.37514363099 
0.3751496208 0.37515605575 0.37516303235 0.37517049001 0.37517842122 0.37518678117 0.37519561069 0.37520491073 0.37521463003 
0.37522484972 0.37523550935 0.37524663336 0.37525824094 0.37527032571 0.37528280496 0.37483212505 0.37483161758 0.37483147807 
0.37483175446 0.37483242268 0.37483357825 0.3748351613 0.37483719251 0.37483964549 0.37484269436 0.37484609781 0.37484990576 
0.37485426493 0.37485907628 0.37486432775 0.37487002382 0.37487618051 0.37488288374 0.37489007938 0.37489776045 0.3749058877 
0.37491449535 0.37492357387 0.37493309072 0.37494313777 0.3749536457 0.3749646081 0.37497604665 0.37498801661 0.37500041449 
0.37450451395 0.37450354184 0.37450310055 0.37450299232 0.37450331159 0.37450404369 0.37450526986 0.3745069353 0.37450903595 
0.37451173091 0.37451478088 0.374518277 0.37452229465 0.37452681352 0.37453175504 0.37453712891 0.37454303361 0.37454946696 
0.37455635512 0.37456382505 0.37457171484 0.37458010094 0.37458894493 0.37459830517 0.37460817348 0.37461850743 0.37462929523 
0.37464059154 0.37465243556 0.37466465639 0.37412375582 0.37412239831 0.37412148931 0.37412106716 0.37412100708 0.37412143396 
0.37412228752 0.37412359655 0.37412534104 0.37412764374 0.37413035772 0.37413356352 0.37413721931 0.37414140466 0.37414599925 
0.37415114048 0.37415676655 0.37416292022 0.37416956791 0.37417674528 0.37418444483 0.37419261036 0.37420122901 0.3742104024 
0.37422010368 0.37423027279 0.37424090584 0.37425210091 0.37426375983 0.37427585088 0.37369003354 0.37368828109 0.37368699278 
0.37368612374 0.37368575575 0.3736857861 0.37368630107 0.37368729801 0.37368868917 0.37369050555 0.373692991 0.37369584434 
0.37369922308 0.37370305532 0.37370737525 0.37371222962 0.37371753362 0.37372343688 0.37372981489 0.37373674555 0.3737442591 
0.37375216595 0.3737606167 0.373769597 0.37377910864 0.37378911297 0.37379963762 0.3738106548 0.3738222289 0.37383416909 
0.37320354027 0.37320142045 0.37319974331 0.37319849922 0.3731976922 0.37319735221 0.37319754121 0.37319818264 0.37319923601 
0.3732007437 0.37320286309 0.37320541761 0.37320851678 0.37321197557 0.37321603968 0.37322056557 0.37322562018 0.37323127813 
0.37323741634 0.37324406688 0.37325128879 0.37325900233 0.3732672415 0.3732760364 0.37328536754 0.37329525691 0.37330562372 
0.37331650475 0.37332787156 0.37333981926 0.37266449443 0.37266200596 0.37265995054 0.37265833558 0.37265716105 0.37265644747 
0.37265625958 0.37265658161 0.37265731934 0.37265849255 0.37266028887 0.37266255172 0.37266525108 0.37266842695 0.37267220784 
0.37267645841 0.37268125864 0.37268664571 0.37269251283 0.37269893549 0.37270587504 0.37271342235 0.37272144782 0.37273004847 
0.37273920282 0.37274887791 0.37275910144 0.37276984458 0.3727810875 0.37279292544 0.37207315184 0.37207029984 0.37206788205 
0.37206587946 0.37206434444 0.37206328929 0.37206274976 0.37206265518 0.37206312109 0.3720639708 0.37206541397 0.37206737676 
0.37206983094 0.3720727476 0.37207615322 0.37208011436 0.37208468895 0.37208978195 0.37209540509 0.37210157364 0.37210828631 
0.37211563287 0.37212346098 0.37213188139 0.37214085292 0.37215035664 0.37216042335 0.37217099587 0.372182165 0.37219389567 
0.37142983337 0.37142657229 0.37142379638 0.37142144939 0.37141956789 0.37141814803 0.371417259 0.37141682513 0.3714168799 
0.37141752617 0.37141850495 0.37142025897 0.37142237346 0.37142503115 0.37142817171 0.37143187745 0.37143616768 0.37144100969 
0.37144637631 0.37145228351 0.37145879635 0.37146585486 0.3714735441 0.3714817785 0.37149058517 0.37149993739 0.3715098545 
0.37152028778 0.37153130317 0.37154293052 0.37073478106 0.37073116334 0.37072802228 0.37072532334 0.37072309713 0.370721341 
0.37072009717 0.37071933868 0.37071906576 0.37071929989 0.37072013786 0.37072148782 0.37072330028 0.37072563546 0.3707285005 
0.37073197256 0.37073600709 0.37074062203 0.37074573556 0.3707513882 0.37075768297 0.37076458213 0.37077207836 0.37078011034 
0.37078875307 0.37079795305 0.37080772891 0.37081801398 0.37082894024 0.37084045488 0.36998836423 0.36998439043 0.36998089834 
0.36997784495 0.36997527685 0.36997321077 0.36997160926 0.36997050489 0.36996990707 0.36996982568 0.36997025368 0.36997139904 
0.3699729167 0.36997496292 0.36997756319 0.36998073822 0.36998454023 0.36998890539 0.3699937272 0.36999921384 0.3700052926 
0.37001199614 0.3700192653 0.37002718103 0.37003565096 0.37004470034 0.37005420581 0.37006446649 0.37007532413 0.37008670455 
0.36695908846 0.36696583189 0.36697292898 0.366980305 0.36698809667 0.36699609766 0.36700445546 0.36701317278 0.36702212465 
0.36703135666 0.36704095107 0.36705077741 0.36706083128 0.36707112345 0.36708183474 0.36709277918 0.36710396108 0.36711538945 
0.3671270687 0.36713899639 0.36715116084 0.36716356876 0.36717620951 0.36718907845 0.36720227682 0.36721557467 0.36722908403 
0.36724282777 0.36725678697 0.36727091781 0.36767861099 0.36768502874 0.36769179021 0.36769892019 0.36770633882 0.36771410027 
0.36772213929 0.36773051973 0.36773920683 0.3677481539 0.36775747171 0.36776703918 0.36777684553 0.36778691724 0.36779729093 
0.36780806497 0.36781897896 0.36783029811 0.36784172974 0.36785346788 0.3678654587 0.36787769739 0.36789017965 0.36790290283 
0.36791594495 0.36792913581 0.36794254401 0.36795616896 0.36797002761 0.36798407965 0.36834763916 0.36835386105 0.36836028139 
0.36836709067 0.36837414488 0.36838153272 0.36838930051 0.36839739014 0.36840578097 0.36841443867 0.36842349975 0.36843279373 
0.36844233934 0.36845221224 0.36846229448 0.36847283045 0.3684835198 0.368494578 0.36850583398 0.36851739892 0.36852920525 
0.36854127021 0.36855358948 0.3685661586 0.36857895335 0.36859211953 0.36860540955 0.36861893956 0.36863268537 0.36864665554 
0.36896600278 0.36897186354 0.36897795127 0.36898441869 0.36899116551 0.36899825442 0.36900567143 0.36901348517 0.36902156144 
0.36902993397 0.36903867031 0.36904771717 0.36905701346 0.36906663632 0.36907655728 0.36908677638 0.36909723635 0.36910806487 
0.36911911353 0.36913043231 0.36914209217 0.36915397873 0.36916613052 0.36917854323 0.36919119825 0.36920422498 0.36921739116 
0.36923082468 0.36924447422 0.36925833561 0.36953330216 0.36953874079 0.36954457746 0.36955071299 0.36955709293 0.36956389286 
0.36957099258 0.36957849789 0.3695862838 0.36959434717 0.36960279629 0.36961155476 0.3696205714 0.36962991489 0.36963959645 
0.36964962514 0.36965986288 0.36967042572 0.36968126224 0.36969236615 0.36970379122 0.36971553547 0.36972751561 0.36973976793 
0.36975227172 0.36976505592 0.36977820453 0.36979152099 0.36980506542 0.36981885202 0.37004930126 0.37005435069 0.37005990663 
0.37006568642 0.37007177431 0.37007819619 0.3700849794 0.37009214415 0.37009964354 0.37010740536 0.37011556604 0.37012403973 
0.37013281531 0.37014187742 0.3701512725 0.37016108122 0.37017102443 0.3701813721 0.37019200585 0.37020293773 0.37021413831 
0.37022564739 0.37023749009 0.37024958126 0.37026192938 0.37027457473 0.37028759183 0.37030078808 0.37031423951 0.37032790416 
0.37051377027 0.3705184677 0.37052355179 0.37052908073 0.37053485539 0.37054094525 0.37054742536 0.37055423668 0.37056139569 
0.37056888272 0.37057674482 0.37058490894 0.37059342179 0.37060221206 0.37061134311 0.37062080834 0.37063069051 0.37064069306 
0.37065109459 0.37066181485 0.37067282612 0.37068416749 0.37069579401 0.37070775276 0.37071994334 0.37073244266 0.37074522584 
0.37075838431 0.37077171903 0.37078530716 0.37092646378 0.37093081287 0.37093554976 0.37094070507 0.37094613841 0.37095189509 
0.37095805897 0.37096454439 0.37097138573 0.37097857223 0.37098612055 0.37099398977 0.37100221782 0.37101073049 0.37101959425 
0.37102880265 0.37103843546 0.37104824428 0.37105838673 0.37106889052 0.3710796843 0.37109080978 0.37110225503 0.37111402358 
0.37112609068 0.37113844316 0.37115109191 0.3711641101 0.37117734207 0.37119084724 0.37128717168 0.37129117486 0.37129553672 
0.37130027144 0.37130543455 0.37131082277 0.37131665098 0.37132283739 0.37132935652 0.37133622837 0.37134347101 0.37135104165 
0.37135897978 0.37136721269 0.37137581002 0.37138480371 0.37139413368 0.37140374683 0.37141364486 0.37142392871 0.37143454091 
0.37144545309 0.37145671468 0.37146828481 0.37148015942 0.37149239395 0.37150487732 0.37151770952 0.37153092098 0.37154431768 
0.3715958144 0.37159945835 0.37160345348 0.37160781984 0.37161265055 0.37161774185 0.37162317336 0.37162899574 0.37163519938 
0.37164179841 0.37164866797 0.37165596933 0.37166359237 0.37167157295 0.37167988539 0.37168861346 0.37169768367 0.37170705689 
0.37171677562 0.37172675539 0.37173716052 0.37174787117 0.37175894423 0.37177034837 0.3717820817 0.37179410177 0.37180649306 
0.37181919101 0.37183229008 0.37184558966 0.37185220642 0.37185545909 0.37185911968 0.37186312669 0.37186749819 0.37187232436 
0.37187739416 0.37188292547 0.37188876529 0.3718950354 0.371901592 0.37190856859 0.37191592821 0.37192362175 0.37193165806 
0.37194011693 0.37194887226 0.37195805511 0.37196753643 0.37197732951 0.37198748096 0.37199798829 0.37200886977 0.37202009475 
0.37203161795 0.37204350684 0.37205574045 0.37206832736 0.37208132574 0.37209452192 0.37205623555 0.37205911827 0.37206239433 
0.37206605647 0.37207007845 0.37207453313 0.37207924758 0.37208443763 0.3720899375 0.37209587007 0.37210210892 0.37210878131 
0.37211584195 0.37212329211 0.37213101444 0.37213920122 0.37214769761 0.37215663158 0.37216587567 0.37217548335 0.37218537346 
0.37219570427 0.37220636405 0.37221740835 0.37222875872 0.37224048804 0.37225259169 0.37226502175 0.37227779369 0.37229098847 
0.37220777259 0.37221029556 0.37221320069 0.37221647416 0.37222015856 0.37222428731 0.37222864525 0.3722334836 0.37223865423 
0.37224423164 0.37225016583 0.37225649175 0.37226321468 0.372270415 0.37227790344 0.37228578557 0.3722940168 0.37230269883 
0.37231169946 0.37232107473 0.37233082477 0.37234086981 0.37235133058 0.37236214778 0.37237337384 0.37238494227 0.37239690067 
0.37240919808 0.37242182673 0.37243493197 0.37230679064 0.37230894754 0.37231146456 0.37231437033 0.37231769599 0.37232137564 
0.37232552161 0.37232996064 0.37233482311 0.37234006473 0.37234570137 0.37235168635 0.37235808248 0.37236494918 0.37237219575 
0.37237978335 0.37238775154 0.37239618279 0.37240494544 0.37241408865 0.37242361726 0.37243348682 0.37244369475 0.37245435281 
0.37246538385 0.37247682591 0.37248862481 0.37250077345 0.37251329912 0.37252618226 0.37235322523 0.37235498795 0.37235714279 
0.37235969545 0.37236263406 0.37236597528 0.37236976618 0.37237386003 0.37237840829 0.37238329027 0.37238860227 0.37239427528 
0.3724003742 0.3724069091 0.37241389336 0.37242117657 0.37242889175 0.3724370037 0.37244557008 0.37245448763 0.37246379878 
0.37247347159 0.37248345614 0.37249394004 0.37250479722 0.37251607743 0.37252773077 0.37253974237 0.37255214658 0.37256490573 
0.37234708751 0.37234845131 0.37235022128 0.37235238601 0.37235497342 0.37235795092 0.37236139128 0.37236513547 0.37236933614 
0.37237392163 0.37237887575 0.37238423288 0.3723900358 0.37239627303 0.37240293612 0.37241000582 0.37241743464 0.37242528693 
0.3724335932 0.37244226869 0.37245132693 0.3724608076 0.37247066936 0.37248088938 0.37249159092 0.37250269822 0.37251420335 
0.37252607925 0.37253835835 0.37255101168 0.37228833633 0.37228932533 0.37229071345 0.37229250054 0.37229469788 0.37229732411 
0.37230034302 0.37230380278 0.37230766019 0.37231191031 0.37231653814 0.37232158558 0.37232708064 0.37233301851 0.37233944302 
0.37234619819 0.37235334528 0.37236094013 0.37236900951 0.37237746413 0.37238626952 0.37239554604 0.37240524622 0.3724152407 
0.37242575348 0.3724366996 0.37244806461 0.37245979942 0.3724719562 0.37248449996 0.37217705429 0.37217760518 0.37217862032 
0.37218005208 0.37218188315 0.37218411194 0.37218679155 0.37218995572 0.37219341977 0.3721973353 0.37220163702 0.37220636083 
0.37221154462 0.37221721086 0.37222328977 0.37222972044 0.37223667127 0.37224400659 0.37225177545 0.37226001444 0.37226865036 
0.37227772866 0.37228723077 0.37229700251 0.3723073726 0.37231812256 0.37232933518 0.37234094882 0.37235297587 0.37236542235 
0.37201320666 0.37201343298 0.37201401713 0.37201507276 0.37201653741 0.37201840807 0.37202073124 0.3720235647 0.37202666452 
0.37203024329 0.37203425607 0.37203864804 0.37204350586 0.37204889847 0.37205466194 0.37206081542 0.37206749491 0.37207457182 
0.37208206488 0.37209008073 0.37209849158 0.37210734245 0.37211664098 0.37212632483 0.3721364626 0.37214705438 0.37215807237 
0.37216953311 0.37218145918 0.37219379515 0.37179691137 0.37179675916 0.37179702838 0.37179771175 0.37179876509 0.37180027542 
0.3718022385 0.37180465926 0.37180747462 0.37181072196 0.37181440955 0.37181848462 0.37182305109 0.37182813137 0.37183360618 
0.37183948277 0.37184585591 0.37185268073 0.37185995446 0.37186773303 0.37187591888 0.37188455684 0.37189359393 0.37190313292 
0.37191309753 0.37192355567 0.37193447301 0.37194573578 0.37195751704 0.37196974367 0.37152828926 0.37152775716 0.37152764127 
0.37152796103 0.37152869531 0.3715298038 0.37153142283 0.37153349934 0.37153597092 0.3715388761 0.37154223517 0.37154602356 
0.3715502478 0.37155504464 0.37156022727 0.37156585806 0.3715719471 0.37157850088 0.37158552822 0.37159302209 0.37160103214 
0.37160945535 0.37161830201 0.37162764263 0.37163743215 0.37164772957 0.37165846964 0.37166962907 0.37168127556 0.37169339342 
0.37120745498 0.37120655112 0.37120607373 0.37120602281 0.37120639447 0.37120718712 0.37120842734 0.37121011649 0.37121230327 
0.37121483433 0.37121787209 0.37122135282 0.3712253008 0.37122974273 0.3712346381 0.37123999139 0.37124579873 0.37125212482 
0.37125890569 0.37126616598 0.37127395471 0.37128210383 0.37129079979 0.37129997809 0.37130961245 0.37131970461 0.37133030963 
0.37134136777 0.37135286918 0.37136488493 0.37083443482 0.37083318343 0.37083242249 0.37083200534 0.37083201733 0.37083245539 
0.37083339213 0.37083473728 0.3708365575 0.37083875999 0.3708414614 0.37084463076 0.3708482915 0.37085244387 0.37085702585 
0.37086208808 0.37086764132 0.37087365545 0.37088022701 0.37088725407 0.37089480216 0.37090280827 0.37091129534 0.37092029344 
0.37092975759 0.37093968051 0.37095013857 0.37096106066 0.37097249298 0.37098436092 0.37040962183 0.37040801452 0.37040679991 
0.37040609501 0.37040577386 0.37040587174 0.37040644875 0.37040745192 0.37040894079 0.37041086014 0.37041322578 0.37041607618 
0.37041947103 0.37042328896 0.37042757198 0.37043235429 0.37043767178 0.37044343426 0.37044974705 0.37045654081 0.37046378097 
0.37047162822 0.37047992081 0.37048874093 0.37049806967 0.37050787693 0.37051813466 0.37052894077 0.3705402406 0.37055203449 
0.36993315961 0.36993117488 0.36992959077 0.36992846084 0.36992783433 0.36992758343 0.36992784477 0.36992851265 0.36992966987 
0.36993131037 0.36993332466 0.3699359054 0.36993897147 0.36994247326 0.36994643185 0.36995098298 0.36995607325 0.36996156577 
0.36996760597 0.36997418887 0.36998123936 0.36998884884 0.36999696147 0.3700055891 0.37001471325 0.37002436292 0.37003446713 
0.37004514047 0.37005632655 0.37006793164 0.36940520236 0.36940284774 0.36940093521 0.369399455 0.36939840876 0.36939792808 
0.36939778124 0.36939811591 0.36939892203 0.36940031306 0.36940199385 0.36940427354 0.3694070724 0.3694102723 0.36941392598 
0.36941820874 0.36942303716 0.36942831867 0.36943412426 0.36944041088 0.3694472837 0.36945464029 0.3694626007 0.36947105629 
0.36947999625 0.36948950023 0.3694994589 0.36951000287 0.36952107211 0.36953257428 0.36882604354 0.36882333275 0.36882105873 
0.36881923397 0.36881784701 0.36881693763 0.36881653056 0.36881653362 0.36881701777 0.3688180138 0.36881953199 0.36882146909 
0.36882394964 0.36882689883 0.36883031309 0.3688343479 0.36883889129 0.36884394467 0.36884950084 0.3688555894 0.36886221289 
0.36886935013 0.36887711146 0.36888537242 0.36889414689 0.36890349697 0.36891336871 0.36892374102 0.36893461595 0.36894607116 
0.36819593515 0.36819288178 0.3681902603 0.36818807393 0.3681863586 0.36818511783 0.36818432156 0.36818406313 0.36818422585 
0.3681849102 0.36818618956 0.3681877734 0.36818994622 0.36819264551 0.3681958322 0.36819953932 0.36820385255 0.36820866396 
0.36821390434 0.36821979973 0.36822627927 0.36823325599 0.36824078651 0.3682488967 0.368257503 0.36826669308 0.3682764186 
0.36828664026 0.36829740593 0.36830879654 0.36751517551 0.36751176788 0.36750879978 0.36750630064 0.36750425293 0.36750267955 
0.3675015613 0.36750091106 0.36750076814 0.36750127419 0.36750220286 0.3675034294 0.36750534056 0.3675077712 0.36751071634 
0.36751418431 0.36751824303 0.36752281119 0.36752784461 0.36753349627 0.36753976943 0.36754654447 0.36755389206 0.36756185004 
0.367570304 0.36757932672 0.36758888328 0.36759900193 0.36760965776 0.36762094046 0.36678411262 0.36678035172 0.36677705446 
0.36677423279 0.36677187494 0.36676995312 0.36676852509 0.36676756233 0.36676711072 0.36676723537 0.36676793909 0.36676892786 
0.36677052016 0.36677264474 0.36677535196 0.36677860156 0.36678238573 0.36678664145 0.36679154844 0.36679698709 0.36680301906 
0.36680962598 0.3668167835 0.36682456202 0.36683286696 0.36684174079 0.36685119891 0.36686113248 0.36687171973 0.36688289587 
0.36379971875 0.36380614646 0.36381290778 0.36382000782 0.36382738242 0.36383512254 0.36384311269 0.36385140694 0.36386002635 
0.36386895524 0.36387811014 0.36388754364 0.36389726667 0.36390730203 0.36391758695 0.36392816208 0.36393894656 0.36395001205 
0.36396134683 0.36397290651 0.36398470449 0.36399674034 0.36400900727 0.36402160668 0.36403430079 0.36404722727 0.36406036968 
0.36407375858 0.36408730891 0.36410104221 0.36450457487 0.36451069481 0.3645171536 0.36452395624 0.36453102133 0.36453841631 
0.3645461186 0.36455414728 0.36456248466 0.3645711651 0.36458008481 0.3645893061 0.36459876609 0.36460851026 0.36461857347 
0.36462896708 0.36463956166 0.36465040323 0.36466155747 0.36467293684 0.36468456649 0.36469644175 0.36470855808 0.36472091087 
0.36473357936 0.36474638953 0.36475941924 0.3647726941 0.36478616776 0.36479984586 0.36516000725 0.36516581659 0.36517196484 
0.36517841591 0.36518519415 0.3651923141 0.36519970755 0.36520745365 0.36521552094 0.36522393161 0.3652325856 0.36524155624 
0.36525081822 0.36526028754 0.36527015995 0.36528024861 0.36529068531 0.36530129151 0.36531227327 0.3653234668 0.3653349211 
0.36534663105 0.36535859226 0.36537080025 0.36538333467 0.36539602147 0.36540893996 0.36542210656 0.36543548885 0.36544908336 
0.36576563804 0.3657711905 0.36577703009 0.3657831792 0.36578962973 0.3657964838 0.36580358837 0.3658110398 0.36581881718 
0.36582695605 0.36583533046 0.36584403783 0.36585302874 0.36586229747 0.36587190321 0.36588176298 0.36589195137 0.36590244019 
0.36591318843 0.3659241831 0.36593545756 0.36594699785 0.36595879978 0.36597086007 0.36598315284 0.3659958155 0.36600863442 
0.36602167602 0.36603496066 0.3660484793 0.36632134182 0.36632657353 0.36633210242 0.36633794826 0.36634414179 0.36635057826 
0.36635746698 0.36636460403 0.36637209247 0.36637993757 0.36638804465 0.36639647929 0.36640522868 0.36641422277 0.36642358393 
0.36643319734 0.36644316255 0.36645346742 0.36646397098 0.3664748233 0.36648591342 0.36649727063 0.36650890931 0.36652081595 
0.36653296706 0.36654549891 0.36655819415 0.36657112498 0.36658432768 0.36659774806 0.36682683307 0.36683164848 0.36683691107 
0.36684244288 0.36684832593 0.36685445762 0.36686101632 0.36686787848 0.3668750752 0.36688262396 0.36689046104 0.36689863048 
0.36690711664 0.36691584991 0.36692500097 0.36693433911 0.36694412141 0.36695413559 0.36696442999 0.36697504661 0.36698601447 
0.36699720371 0.36700867519 0.36702042588 0.36703242298 0.36704482358 0.36705739009 0.36707021122 0.36708331128 0.36709664049 
0.36728184027 0.36728632217 0.367291236 0.36729643222 0.36730196626 0.36730783782 0.36731407973 0.36732061752 0.36732752728 
0.36733479076 0.3673423446 0.3673502374 0.36735845559 0.36736694814 0.36737584039 0.36738497407 0.36739446632 0.36740427213 
0.36741437862 0.367424767 0.36743547978 0.36744652541 0.36745782825 0.36746943006 0.3674812868 0.36749346201 0.36750599176 
0.36751869861 0.36753169832 0.36754491459 0.36768615092 0.36769029158 0.36769477561 0.36769973672 0.36770494349 0.36771046507 
0.36771638249 0.36772266252 0.36772925267 0.36773622012 0.36774349753 0.36775110139 0.36775904638 0.3677673113 0.36777588547 
0.36778480145 0.3677940566 0.36780369244 0.36781354118 0.36782371042 0.36783423262 0.36784505852 0.36785622261 0.36786763194 
0.36787936086 0.36789138019 0.36790379799 0.367916399 0.36792925111 0.36794238774 0.36803958928 0.36804337302 0.36804753896 
0.36805212845 0.36805701407 0.36806226664 0.36806781358 0.36807374966 0.36808003994 0.36808672975 0.3680937152 0.3681010368 
0.36810870721 0.36811670626 0.36812502094 0.36813368891 0.36814274932 0.36815211117 0.36816178242 0.36817173436 0.36818202581 
0.36819266071 0.36820361616 0.36821489374 0.36822646818 0.36823833955 0.36825051936 0.36826308136 0.36827584598 0.36828889552 
0.3683419118 0.36834537047 0.36834919937 0.36835344838 0.36835798747 0.36836290669 0.36836813785 0.36837375703 0.36837972578 
0.36838607463 0.36839279823 0.36839985027 0.36840724168 0.36841497175 0.36842302695 0.36843144311 0.36844026405 0.36844943251 
0.36845886826 0.36846865236 0.36847869904 0.36848915554 0.36849992954 0.36851099831 0.36852244776 0.36853417138 0.36854620578 
0.36855865905 0.36857131433 0.36858426414 0.36859308544 0.36859619563 0.36859966446 0.36860350822 0.36860780487 0.36861238082 
0.36861729195 0.36862259015 0.36862828663 0.36863427504 0.36864070004 0.36864743726 0.36865456941 0.36866203965 0.36866983012 
0.36867799215 0.3686865699 0.3686955021 0.36870468284 0.36871425362 0.36872409902 0.36873435458 0.36874495763 0.36875586743 