# vtk DataFile Version 5.1
vtk output
ASCII
DATASET STRUCTURED_POINTS
DIMENSIONS 20 20 20
SPACING 2e-05 2e-05 2e-05
ORIGIN 3.69981 -0.00019 0.99981
POINT_DATA 8000
FIELD FieldData 1
potential 1 8000 double
0.00092334503879 0.00092334289583 0.00092334075288 0.00092333860994 0.00092333646701 0.0009233343241 0.00092333218119 0.0009233300383 0.00092332789542 
0.00092332575255 0.00092332360969 0.00092332146684 0.000923319324 0.00092331718118 0.00092331503836 0.00092331289556 0.00092331075277 0.00092330860999 
0.00092330646722 0.00092330432446 0.0009233460569 0.00092334391394 0.00092334177099 0.00092333962804 0.00092333748511 0.00092333534219 0.00092333319928 
0.00092333105639 0.0009233289135 0.00092332677063 0.00092332462776 0.00092332248491 0.00092332034207 0.00092331819924 0.00092331605642 0.00092331391361 
0.00092331177082 0.00092330962803 0.00092330748526 0.0009233053425 0.00092334707503 0.00092334493206 0.0009233427891 0.00092334064616 0.00092333850322 
0.0009233363603 0.00092333421738 0.00092333207448 0.00092332993159 0.00092332778871 0.00092332564585 0.00092332350299 0.00092332136014 0.00092331921731 
0.00092331707449 0.00092331493168 0.00092331278888 0.00092331064609 0.00092330850331 0.00092330636054 0.00092334809316 0.00092334595019 0.00092334380723 
0.00092334166428 0.00092333952134 0.00092333737841 0.00092333523549 0.00092333309259 0.00092333094969 0.00092332880681 0.00092332666394 0.00092332452107 
0.00092332237823 0.00092332023539 0.00092331809256 0.00092331594974 0.00092331380694 0.00092331166415 0.00092330952136 0.00092330737859 0.0009233491113 
0.00092334696832 0.00092334482536 0.0009233426824 0.00092334053946 0.00092333839653 0.0009233362536 0.00092333411069 0.0009233319678 0.00092332982491 
0.00092332768203 0.00092332553917 0.00092332339631 0.00092332125347 0.00092331911064 0.00092331696782 0.00092331482501 0.00092331268221 0.00092331053943 
0.00092330839665 0.00092335012945 0.00092334798647 0.0009233458435 0.00092334370054 0.00092334155759 0.00092333941465 0.00092333727173 0.00092333512881 
0.00092333298591 0.00092333084302 0.00092332870014 0.00092332655727 0.00092332441441 0.00092332227156 0.00092332012873 0.0009233179859 0.00092331584309 
0.00092331370029 0.0009233115575 0.00092330941472 0.0009233511476 0.00092334900462 0.00092334686164 0.00092334471868 0.00092334257572 0.00092334043278 
0.00092333828985 0.00092333614694 0.00092333400403 0.00092333186113 0.00092332971825 0.00092332757537 0.00092332543251 0.00092332328966 0.00092332114682 
0.00092331900399 0.00092331686117 0.00092331471837 0.00092331257557 0.00092331043279 0.00092335216576 0.00092335002277 0.00092334787979 0.00092334573683 
0.00092334359387 0.00092334145092 0.00092333930799 0.00092333716507 0.00092333502215 0.00092333287925 0.00092333073636 0.00092332859349 0.00092332645062 
0.00092332430777 0.00092332216492 0.00092332002209 0.00092331787927 0.00092331573646 0.00092331359366 0.00092331145087 0.00092335318393 0.00092335104094 
0.00092334889795 0.00092334675498 0.00092334461202 0.00092334246907 0.00092334032613 0.0009233381832 0.00092333604029 0.00092333389738 0.00092333175449 
0.00092332961161 0.00092332746874 0.00092332532588 0.00092332318303 0.00092332104019 0.00092331889737 0.00092331675455 0.00092331461175 0.00092331246896 
0.00092335420211 0.00092335205911 0.00092334991612 0.00092334777314 0.00092334563018 0.00092334348722 0.00092334134428 0.00092333920135 0.00092333705843 
0.00092333491552 0.00092333277262 0.00092333062974 0.00092332848686 0.000923326344 0.00092332420114 0.0009233220583 0.00092331991547 0.00092331777265 
0.00092331562985 0.00092331348705 0.00092335522029 0.00092335307728 0.00092335093429 0.00092334879131 0.00092334664834 0.00092334450538 0.00092334236244 
0.0009233402195 0.00092333807658 0.00092333593366 0.00092333379076 0.00092333164787 0.00092332950499 0.00092332736212 0.00092332521927 0.00092332307642 
0.00092332093359 0.00092331879076 0.00092331664795 0.00092331450515 0.00092335623848 0.00092335409547 0.00092335195247 0.00092334980949 0.00092334766651 
0.00092334552355 0.0009233433806 0.00092334123766 0.00092333909473 0.00092333695181 0.00092333480891 0.00092333266601 0.00092333052313 0.00092332838026 
0.00092332623739 0.00092332409454 0.00092332195171 0.00092331980888 0.00092331766606 0.00092331552326 0.00092335725667 0.00092335511366 0.00092335297066 
0.00092335082767 0.00092334868469 0.00092334654172 0.00092334439877 0.00092334225583 0.00092334011289 0.00092333796997 0.00092333582706 0.00092333368416 
0.00092333154127 0.0009233293984 0.00092332725553 0.00092332511268 0.00092332296983 0.000923320827 0.00092331868418 0.00092331654137 0.00092335827487 
0.00092335613186 0.00092335398885 0.00092335184586 0.00092334970288 0.00092334755991 0.00092334541695 0.000923343274 0.00092334113106 0.00092333898813 
0.00092333684522 0.00092333470232 0.00092333255942 0.00092333041654 0.00092332827367 0.00092332613082 0.00092332398797 0.00092332184513 0.00092331970231 
0.00092331755949 0.00092335929308 0.00092335715006 0.00092335500705 0.00092335286406 0.00092335072107 0.00092334857809 0.00092334643513 0.00092334429218 
0.00092334214924 0.00092334000631 0.00092333786339 0.00092333572048 0.00092333357758 0.0009233314347 0.00092332929182 0.00092332714896 0.00092332500611 
0.00092332286327 0.00092332072044 0.00092331857762 0.0009233603113 0.00092335816828 0.00092335602526 0.00092335388226 0.00092335173927 0.00092334959629 
0.00092334745332 0.00092334531036 0.00092334316742 0.00092334102448 0.00092333888156 0.00092333673865 0.00092333459575 0.00092333245286 0.00092333030998 
0.00092332816711 0.00092332602426 0.00092332388141 0.00092332173858 0.00092331959576 0.00092336132953 0.0009233591865 0.00092335704348 0.00092335490047 
0.00092335275748 0.00092335061449 0.00092334847152 0.00092334632856 0.00092334418561 0.00092334204267 0.00092333989974 0.00092333775683 0.00092333561392 
0.00092333347103 0.00092333132814 0.00092332918527 0.00092332704241 0.00092332489956 0.00092332275673 0.0009233206139 0.00092336234776 0.00092336020472 
0.0009233580617 0.00092335591869 0.00092335377569 0.0009233516327 0.00092334948973 0.00092334734676 0.00092334520381 0.00092334306086 0.00092334091793 
0.00092333877501 0.0009233366321 0.0009233344892 0.00092333234632 0.00092333020344 0.00092332806058 0.00092332591772 0.00092332377488 0.00092332163205 
0.00092336336599 0.00092336122296 0.00092335907993 0.00092335693692 0.00092335479391 0.00092335265092 0.00092335050794 0.00092334836497 0.00092334622201 
0.00092334407906 0.00092334193613 0.0009233397932 0.00092333765029 0.00092333550739 0.00092333336449 0.00092333122161 0.00092332907875 0.00092332693589 
0.00092332479304 0.00092332265021 0.00092336438424 0.0009233622412 0.00092336009817 0.00092335795515 0.00092335581214 0.00092335366914 0.00092335152616 
0.00092334938318 0.00092334724022 0.00092334509727 0.00092334295433 0.0009233408114 0.00092333866848 0.00092333652557 0.00092333438268 0.0009233322398 
0.00092333009692 0.00092332795406 0.00092332581121 0.00092332366837 0.00092336327465 0.00092336113164 0.00092335898865 0.00092335684566 0.00092335470269 
0.00092335255973 0.00092335041678 0.00092334827384 0.00092334613092 0.000923343988 0.0009233418451 0.0009233397022 0.00092333755932 0.00092333541645 
0.00092333327359 0.00092333113074 0.0009233289879 0.00092332684508 0.00092332470226 0.00092332255946 0.00092336429279 0.00092336214978 0.00092336000678 
0.00092335786379 0.00092335572082 0.00092335357785 0.0009233514349 0.00092334929196 0.00092334714902 0.0009233450061 0.00092334286319 0.0009233407203 
0.00092333857741 0.00092333643454 0.00092333429167 0.00092333214882 0.00092333000598 0.00092332786315 0.00092332572033 0.00092332357752 0.00092336531094 
0.00092336316792 0.00092336102492 0.00092335888193 0.00092335673895 0.00092335459598 0.00092335245302 0.00092335031007 0.00092334816714 0.00092334602421 
0.0009233438813 0.0009233417384 0.00092333959551 0.00092333745263 0.00092333530976 0.0009233331669 0.00092333102406 0.00092332888123 0.0009233267384 
0.00092332459559 0.0009233663291 0.00092336418608 0.00092336204307 0.00092335990007 0.00092335775709 0.00092335561411 0.00092335347115 0.0009233513282 
0.00092334918526 0.00092334704233 0.00092334489941 0.00092334275651 0.00092334061361 0.00092333847073 0.00092333632786 0.000923334185 0.00092333204215 
0.00092332989931 0.00092332775648 0.00092332561367 0.00092336734726 0.00092336520424 0.00092336306122 0.00092336091822 0.00092335877523 0.00092335663226 
0.00092335448929 0.00092335234633 0.00092335020339 0.00092334806046 0.00092334591754 0.00092334377463 0.00092334163173 0.00092333948884 0.00092333734596 
0.0009233352031 0.00092333306024 0.0009233309174 0.00092332877457 0.00092332663175 0.00092336836543 0.0009233662224 0.00092336407939 0.00092336193638 
0.00092335979339 0.00092335765041 0.00092335550743 0.00092335336447 0.00092335122153 0.00092334907859 0.00092334693566 0.00092334479275 0.00092334264985 
0.00092334050695 0.00092333836407 0.0009233362212 0.00092333407834 0.0009233319355 0.00092332979266 0.00092332764984 0.00092336938361 0.00092336724058 
0.00092336509755 0.00092336295455 0.00092336081155 0.00092335866856 0.00092335652559 0.00092335438262 0.00092335223967 0.00092335009673 0.0009233479538 
0.00092334581088 0.00092334366797 0.00092334152508 0.00092333938219 0.00092333723932 0.00092333509645 0.0009233329536 0.00092333081076 0.00092332866793 
0.00092337040179 0.00092336825876 0.00092336611573 0.00092336397272 0.00092336182972 0.00092335968672 0.00092335754375 0.00092335540078 0.00092335325782 
0.00092335111487 0.00092334897194 0.00092334682902 0.0009233446861 0.0009233425432 0.00092334040031 0.00092333825744 0.00092333611457 0.00092333397171 
0.00092333182887 0.00092332968604 0.00092337141998 0.00092336927694 0.00092336713391 0.0009233649909 0.00092336284789 0.00092336070489 0.00092335856191 
0.00092335641894 0.00092335427598 0.00092335213303 0.00092334999009 0.00092334784716 0.00092334570424 0.00092334356134 0.00092334141845 0.00092333927556 
0.00092333713269 0.00092333498983 0.00092333284698 0.00092333070415 0.00092337243818 0.00092337029514 0.0009233681521 0.00092336600908 0.00092336386607 
0.00092336172307 0.00092335958008 0.00092335743711 0.00092335529414 0.00092335315119 0.00092335100824 0.00092334886531 0.00092334672239 0.00092334457948 
0.00092334243658 0.0009233402937 0.00092333815082 0.00092333600796 0.00092333386511 0.00092333172226 0.00092337345639 0.00092337131334 0.0009233691703 
0.00092336702727 0.00092336488426 0.00092336274126 0.00092336059826 0.00092335845528 0.00092335631231 0.00092335416935 0.00092335202641 0.00092334988347 
0.00092334774055 0.00092334559763 0.00092334345473 0.00092334131184 0.00092333916896 0.00092333702609 0.00092333488323 0.00092333274039 0.0009233744746 
0.00092337233155 0.0009233701885 0.00092336804547 0.00092336590246 0.00092336375945 0.00092336161645 0.00092335947347 0.00092335733049 0.00092335518753 
0.00092335304458 0.00092335090164 0.00092334875871 0.00092334661579 0.00092334447288 0.00092334232999 0.0009233401871 0.00092333804423 0.00092333590137 
0.00092333375852 0.00092337549282 0.00092337334976 0.00092337120672 0.00092336906368 0.00092336692066 0.00092336477765 0.00092336263464 0.00092336049166 
0.00092335834868 0.00092335620571 0.00092335406275 0.00092335191981 0.00092334977688 0.00092334763395 0.00092334549104 0.00092334334814 0.00092334120526 
0.00092333906238 0.00092333691951 0.00092333477666 0.00092337651105 0.00092337436798 0.00092337222493 0.0009233700819 0.00092336793887 0.00092336579585 
0.00092336365285 0.00092336150985 0.00092335936687 0.0009233572239 0.00092335508094 0.00092335293799 0.00092335079505 0.00092334865213 0.00092334650921 
0.00092334436631 0.00092334222341 0.00092334008053 0.00092333793766 0.0009233357948 0.00092337752928 0.00092337538621 0.00092337324316 0.00092337110012 
0.00092336895708 0.00092336681406 0.00092336467105 0.00092336252806 0.00092336038507 0.00092335824209 0.00092335609913 0.00092335395618 0.00092335181323 
0.0009233496703 0.00092334752738 0.00092334538448 0.00092334324158 0.00092334109869 0.00092333895582 0.00092333681296 0.00092337854752 0.00092337640445 
0.00092337426139 0.00092337211834 0.00092336997531 0.00092336783228 0.00092336568927 0.00092336354627 0.00092336140328 0.0009233592603 0.00092335711733 
0.00092335497437 0.00092335283142 0.00092335068849 0.00092334854556 0.00092334640265 0.00092334425975 0.00092334211686 0.00092333997398 0.00092333783112 
0.00092337956577 0.00092337742269 0.00092337527963 0.00092337313658 0.00092337099354 0.00092336885051 0.00092336670749 0.00092336456448 0.00092336242149 
0.0009233602785 0.00092335813553 0.00092335599257 0.00092335384962 0.00092335170668 0.00092334956375 0.00092334742084 0.00092334527793 0.00092334313504 
0.00092334099215 0.00092333884928 0.00092338058402 0.00092337844094 0.00092337629788 0.00092337415482 0.00092337201178 0.00092336986874 0.00092336772572 
0.00092336558271 0.00092336343971 0.00092336129672 0.00092335915374 0.00092335701078 0.00092335486782 0.00092335272488 0.00092335058195 0.00092334843903 
0.00092334629612 0.00092334415322 0.00092334201033 0.00092333986746 0.00092338160228 0.0009233794592 0.00092337731613 0.00092337517307 0.00092337303002 
0.00092337088698 0.00092336874396 0.00092336660094 0.00092336445794 0.00092336231494 0.00092336017196 0.00092335802899 0.00092335588603 0.00092335374309 
0.00092335160015 0.00092334945722 0.00092334731431 0.00092334517141 0.00092334302852 0.00092334088564 0.00092338262055 0.00092338047747 0.00092337833439 
0.00092337619133 0.00092337404827 0.00092337190523 0.0009233697622 0.00092336761918 0.00092336547617 0.00092336333317 0.00092336119019 0.00092335904721 
0.00092335690425 0.0009233547613 0.00092335261836 0.00092335047543 0.00092334833251 0.0009233461896 0.00092334404671 0.00092334190382 0.00092338151049 
0.00092337936744 0.0009233772244 0.00092337508137 0.00092337293835 0.00092337079535 0.00092336865235 0.00092336650937 0.0009233643664 0.00092336222344 
0.00092336008049 0.00092335793755 0.00092335579462 0.0009233536517 0.0009233515088 0.0009233493659 0.00092334722302 0.00092334508015 0.00092334293729 
0.00092334079444 0.00092338252866 0.0009233803856 0.00092337824256 0.00092337609952 0.0009233739565 0.00092337181349 0.00092336967049 0.0009233675275 
0.00092336538453 0.00092336324156 0.00092336109861 0.00092335895567 0.00092335681273 0.00092335466981 0.0009233525269 0.00092335038401 0.00092334824112 
0.00092334609824 0.00092334395538 0.00092334181253 0.00092338354683 0.00092338140377 0.00092337926072 0.00092337711768 0.00092337497466 0.00092337283164 
0.00092337068864 0.00092336854565 0.00092336640267 0.0009233642597 0.00092336211674 0.00092335997379 0.00092335783086 0.00092335568793 0.00092335354502 
0.00092335140212 0.00092334925922 0.00092334711635 0.00092334497348 0.00092334283062 0.00092338456501 0.00092338242195 0.00092338027889 0.00092337813585 
0.00092337599282 0.0009233738498 0.00092337170679 0.0009233695638 0.00092336742081 0.00092336527784 0.00092336313488 0.00092336099192 0.00092335884898 
0.00092335670606 0.00092335456314 0.00092335242023 0.00092335027734 0.00092334813445 0.00092334599158 0.00092334384872 0.0009233855832 0.00092338344013 
0.00092338129707 0.00092337915403 0.00092337701099 0.00092337486797 0.00092337272496 0.00092337058196 0.00092336843897 0.00092336629599 0.00092336415302 
0.00092336201007 0.00092335986712 0.00092335772419 0.00092335558127 0.00092335343835 0.00092335129546 0.00092334915257 0.00092334700969 0.00092334486682 
0.00092338660139 0.00092338445832 0.00092338231526 0.00092338017221 0.00092337802917 0.00092337588614 0.00092337374312 0.00092337160012 0.00092336945713 
0.00092336731414 0.00092336517117 0.00092336302821 0.00092336088526 0.00092335874233 0.0009233565994 0.00092335445648 0.00092335231358 0.00092335017069 
0.00092334802781 0.00092334588494 0.00092338761959 0.00092338547652 0.00092338333345 0.0009233811904 0.00092337904735 0.00092337690432 0.0009233747613 
0.00092337261829 0.00092337047529 0.00092336833231 0.00092336618933 0.00092336404637 0.00092336190341 0.00092335976047 0.00092335761754 0.00092335547462 
0.00092335333171 0.00092335118882 0.00092334904593 0.00092334690306 0.0009233886378 0.00092338649472 0.00092338435165 0.00092338220859 0.00092338006554 
0.00092337792251 0.00092337577948 0.00092337363647 0.00092337149347 0.00092336935048 0.0009233672075 0.00092336506453 0.00092336292157 0.00092336077862 
0.00092335863569 0.00092335649277 0.00092335434985 0.00092335220695 0.00092335006406 0.00092334792119 0.00092338965602 0.00092338751293 0.00092338536986 
0.00092338322679 0.00092338108374 0.0009233789407 0.00092337679767 0.00092337465466 0.00092337251165 0.00092337036865 0.00092336822567 0.0009233660827 
0.00092336393973 0.00092336179678 0.00092335965385 0.00092335751092 0.000923355368 0.0009233532251 0.0009233510822 0.00092334893932 0.00092339067424 
0.00092338853115 0.00092338638807 0.000923384245 0.00092338210195 0.0009233799589 0.00092337781587 0.00092337567285 0.00092337352984 0.00092337138684 
0.00092336924385 0.00092336710087 0.00092336495791 0.00092336281495 0.00092336067201 0.00092335852908 0.00092335638616 0.00092335424325 0.00092335210035 
0.00092334995746 0.00092339169247 0.00092338954937 0.00092338740629 0.00092338526322 0.00092338312016 0.00092338097711 0.00092337883407 0.00092337669105 
0.00092337454803 0.00092337240503 0.00092337026204 0.00092336811905 0.00092336597608 0.00092336383312 0.00092336169018 0.00092335954724 0.00092335740432 
0.0009233552614 0.0009233531185 0.00092335097561 0.0009233927107 0.00092339056761 0.00092338842452 0.00092338628144 0.00092338413838 0.00092338199533 
0.00092337985228 0.00092337770925 0.00092337556623 0.00092337342323 0.00092337128023 0.00092336913724 0.00092336699427 0.00092336485131 0.00092336270835 
0.00092336056541 0.00092335842248 0.00092335627957 0.00092335413666 0.00092335199376 0.00092339372895 0.00092339158585 0.00092338944275 0.00092338729967 
0.00092338515661 0.00092338301355 0.0009233808705 0.00092337872747 0.00092337658444 0.00092337444143 0.00092337229843 0.00092337015544 0.00092336801246 
0.00092336586949 0.00092336372654 0.00092336158359 0.00092335944066 0.00092335729774 0.00092335515483 0.00092335301193 0.0009233947472 0.00092339260409 
0.000923390461 0.00092338831791 0.00092338617484 0.00092338403178 0.00092338188873 0.00092337974569 0.00092337760266 0.00092337545964 0.00092337331664 
0.00092337117364 0.00092336903066 0.00092336688769 0.00092336474473 0.00092336260178 0.00092336045884 0.00092335831591 0.000923356173 0.0009233540301 
0.00092339576546 0.00092339362235 0.00092339147925 0.00092338933616 0.00092338719308 0.00092338505001 0.00092338290696 0.00092338076392 0.00092337862088 
0.00092337647786 0.00092337433485 0.00092337219185 0.00092337004887 0.00092336790589 0.00092336576293 0.00092336361997 0.00092336147703 0.0009233593341 
0.00092335719118 0.00092335504827 0.00092339678372 0.00092339464061 0.0009233924975 0.00092339035441 0.00092338821133 0.00092338606826 0.0009233839252 
0.00092338178215 0.00092337963911 0.00092337749609 0.00092337535307 0.00092337321007 0.00092337106708 0.0009233689241 0.00092336678113 0.00092336463817 
0.00092336249523 0.00092336035229 0.00092335820937 0.00092335606645 0.00092339780199 0.00092339565887 0.00092339351576 0.00092339137267 0.00092338922958 
0.00092338708651 0.00092338494344 0.00092338280039 0.00092338065735 0.00092337851432 0.0009233763713 0.0009233742283 0.0009233720853 0.00092336994232 
0.00092336779934 0.00092336565638 0.00092336351343 0.00092336137049 0.00092335922756 0.00092335708465 0.00092339882027 0.00092339667715 0.00092339453403 
0.00092339239093 0.00092339024784 0.00092338810476 0.0009233859617 0.00092338381864 0.00092338167559 0.00092337953256 0.00092337738954 0.00092337524653 
0.00092337310353 0.00092337096054 0.00092336881756 0.00092336667459 0.00092336453164 0.0009233623887 0.00092336024576 0.00092335810284 0.00092339983856 
0.00092339769543 0.00092339555231 0.00092339340921 0.00092339126611 0.00092338912303 0.00092338697996 0.0009233848369 0.00092338269385 0.00092338055081 
0.00092337840778 0.00092337626477 0.00092337412176 0.00092337197877 0.00092336983579 0.00092336769282 0.00092336554986 0.00092336340691 0.00092336126397 
0.00092335912105 0.00092340085685 0.00092339871372 0.0009233965706 0.00092339442749 0.00092339228439 0.0009233901413 0.00092338799822 0.00092338585516 
0.0009233837121 0.00092338156906 0.00092337942603 0.00092337728301 0.00092337514 0.00092337299701 0.00092337085402 0.00092336871105 0.00092336656808 
0.00092336442513 0.00092336228219 0.00092336013926 0.00092339974632 0.00092339760322 0.00092339546013 0.00092339331706 0.000923391174 0.00092338903095 
0.00092338688791 0.00092338474488 0.00092338260186 0.00092338045885 0.00092337831586 0.00092337617287 0.0009233740299 0.00092337188694 0.00092336974399 
0.00092336760105 0.00092336545812 0.00092336331521 0.0009233611723 0.00092335902941 0.00092340076451 0.00092339862141 0.00092339647832 0.00092339433524 
0.00092339219217 0.00092339004911 0.00092338790607 0.00092338576304 0.00092338362001 0.000923381477 0.000923379334 0.00092337719102 0.00092337504804 
0.00092337290507 0.00092337076212 0.00092336861918 0.00092336647624 0.00092336433332 0.00092336219041 0.00092336004752 0.0009234017827 0.0009233996396 
0.0009233974965 0.00092339535342 0.00092339321035 0.00092339106729 0.00092338892424 0.0009233867812 0.00092338463818 0.00092338249516 0.00092338035216 
0.00092337820917 0.00092337606618 0.00092337392321 0.00092337178026 0.00092336963731 0.00092336749437 0.00092336535145 0.00092336320853 0.00092336106563 
0.00092340280091 0.0009234006578 0.0009233985147 0.00092339637161 0.00092339422854 0.00092339208547 0.00092338994242 0.00092338779938 0.00092338565635 
0.00092338351333 0.00092338137032 0.00092337922732 0.00092337708434 0.00092337494136 0.0009233727984 0.00092337065545 0.00092336851251 0.00092336636958 
0.00092336422666 0.00092336208375 0.00092340381912 0.000923401676 0.0009233995329 0.00092339738981 0.00092339524673 0.00092339310366 0.0009233909606 
0.00092338881756 0.00092338667452 0.0009233845315 0.00092338238849 0.00092338024549 0.0009233781025 0.00092337595952 0.00092337381655 0.0009233716736 
0.00092336953065 0.00092336738772 0.00092336524479 0.00092336310188 0.00092340483734 0.00092340269422 0.00092340055111 0.00092339840802 0.00092339626493 
0.00092339412186 0.0009233919788 0.00092338983575 0.00092338769271 0.00092338554968 0.00092338340666 0.00092338126366 0.00092337912066 0.00092337697768 
0.00092337483471 0.00092337269175 0.0009233705488 0.00092336840586 0.00092336626294 0.00092336412002 0.00092340585556 0.00092340371244 0.00092340156933 
0.00092339942623 0.00092339728314 0.00092339514006 0.000923392997 0.00092339085394 0.0009233887109 0.00092338656787 0.00092338442485 0.00092338228184 
0.00092338013884 0.00092337799585 0.00092337585287 0.00092337370991 0.00092337156696 0.00092336942401 0.00092336728108 0.00092336513816 0.00092340687379 
0.00092340473067 0.00092340258755 0.00092340044445 0.00092339830135 0.00092339615827 0.0009233940152 0.00092339187214 0.0009233897291 0.00092338758606 
0.00092338544303 0.00092338330002 0.00092338115702 0.00092337901403 0.00092337687105 0.00092337472808 0.00092337258512 0.00092337044217 0.00092336829924 
0.00092336615632 0.00092340789203 0.0009234057489 0.00092340360578 0.00092340146267 0.00092339931958 0.00092339717649 0.00092339503342 0.00092339289035 
0.0009233907473 0.00092338860426 0.00092338646123 0.00092338431821 0.00092338217521 0.00092338003221 0.00092337788923 0.00092337574625 0.00092337360329 
0.00092337146034 0.0009233693174 0.00092336717447 0.00092340891028 0.00092340676714 0.00092340462402 0.00092340248091 0.00092340033781 0.00092339819472 
0.00092339605164 0.00092339390857 0.00092339176551 0.00092338962247 0.00092338747943 0.00092338533641 0.0009233831934 0.0009233810504 0.00092337890741 
0.00092337676444 0.00092337462147 0.00092337247851 0.00092337033557 0.00092336819264 0.00092340992853 0.00092340778539 0.00092340564226 0.00092340349915 
0.00092340135604 0.00092339921295 0.00092339706986 0.00092339492679 0.00092339278373 0.00092339064068 0.00092338849765 0.00092338635462 0.0009233842116 
0.0009233820686 0.00092337992561 0.00092337778262 0.00092337563965 0.00092337349669 0.00092337135375 0.00092336921081 0.00092341094679 0.00092340880365 
0.00092340666052 0.00092340451739 0.00092340237429 0.00092340023119 0.0009233980881 0.00092339594502 0.00092339380196 0.0009233916589 0.00092338951586 
0.00092338737283 0.00092338522981 0.0009233830868 0.00092338094381 0.00092337880082 0.00092337665785 0.00092337451488 0.00092337237193 0.00092337022899 
0.00092341196506 0.00092340982191 0.00092340767877 0.00092340553565 0.00092340339254 0.00092340124943 0.00092339910634 0.00092339696326 0.00092339482019 
0.00092339267713 0.00092339053409 0.00092338839105 0.00092338624803 0.00092338410502 0.00092338196201 0.00092337981902 0.00092337767604 0.00092337553308 
0.00092337339012 0.00092337124718 0.00092341298333 0.00092341084018 0.00092340869704 0.00092340655391 0.00092340441079 0.00092340226769 0.00092340012459 
0.0009233979815 0.00092339583843 0.00092339369537 0.00092339155232 0.00092338940928 0.00092338726625 0.00092338512323 0.00092338298023 0.00092338083723 
0.00092337869425 0.00092337655128 0.00092337440832 0.00092337226537 0.00092341400161 0.00092341185846 0.00092340971531 0.00092340757218 0.00092340542906 
0.00092340328595 0.00092340114285 0.00092339899976 0.00092339685668 0.00092339471361 0.00092339257056 0.00092339042751 0.00092338828448 0.00092338614146 
0.00092338399845 0.00092338185545 0.00092337971246 0.00092337756949 0.00092337542652 0.00092337328357 0.0009234150199 0.00092341287674 0.00092341073359 
0.00092340859045 0.00092340644733 0.00092340430421 0.00092340216111 0.00092340001801 0.00092339787493 0.00092339573186 0.0009233935888 0.00092339144575 
0.00092338930272 0.00092338715969 0.00092338501668 0.00092338287368 0.00092338073068 0.0009233785877 0.00092337644473 0.00092337430178 0.0009234160382 
0.00092341389503 0.00092341175188 0.00092340960874 0.00092340746561 0.00092340532249 0.00092340317938 0.00092340103628 0.00092339889319 0.00092339675012 
0.00092339460706 0.000923392464 0.00092339032096 0.00092338817793 0.00092338603491 0.00092338389191 0.00092338174891 0.00092337960593 0.00092337746295 
0.00092337531999 0.0009234170565 0.00092341491333 0.00092341277017 0.00092341062703 0.00092340848389 0.00092340634077 0.00092340419765 0.00092340205455 
0.00092339991146 0.00092339776838 0.00092339562532 0.00092339348226 0.00092339133921 0.00092338919618 0.00092338705316 0.00092338491014 0.00092338276714 
0.00092338062416 0.00092337848118 0.00092337633821 0.00092341807481 0.00092341593164 0.00092341378847 0.00092341164532 0.00092340950218 0.00092340735906 
0.00092340521594 0.00092340307283 0.00092340092974 0.00092339878665 0.00092339664358 0.00092339450052 0.00092339235747 0.00092339021443 0.00092338807141 
0.00092338592839 0.00092338378539 0.00092338164239 0.00092337949941 0.00092337735644 0.00092341909313 0.00092341694995 0.00092341480678 0.00092341266363 
0.00092341052048 0.00092340837735 0.00092340623423 0.00092340409112 0.00092340194802 0.00092339980493 0.00092339766186 0.00092339551879 0.00092339337574 
0.00092339123269 0.00092338908966 0.00092338694664 0.00092338480363 0.00092338266064 0.00092338051765 0.00092337837467 0.00092341798212 0.00092341583898 
0.00092341369585 0.00092341155273 0.00092340940962 0.00092340726653 0.00092340512344 0.00092340298037 0.0009234008373 0.00092339869425 0.00092339655121 
0.00092339440818 0.00092339226516 0.00092339012216 0.00092338797916 0.00092338583618 0.0009233836932 0.00092338155024 0.00092337940729 0.00092337726435 
0.00092341900034 0.00092341685719 0.00092341471406 0.00092341257093 0.00092341042782 0.00092340828472 0.00092340614163 0.00092340399855 0.00092340185548 
0.00092339971243 0.00092339756938 0.00092339542635 0.00092339328333 0.00092339114031 0.00092338899731 0.00092338685433 0.00092338471135 0.00092338256838 
0.00092338042543 0.00092337828248 0.00092342001856 0.00092341787541 0.00092341573227 0.00092341358914 0.00092341144602 0.00092340930292 0.00092340715982 
0.00092340501674 0.00092340287367 0.00092340073061 0.00092339858756 0.00092339644452 0.00092339430149 0.00092339215848 0.00092339001548 0.00092338787248 
0.0009233857295 0.00092338358653 0.00092338144357 0.00092337930062 0.00092342103679 0.00092341889363 0.00092341675049 0.00092341460735 0.00092341246423 
0.00092341032112 0.00092340817803 0.00092340603494 0.00092340389186 0.0009234017488 0.00092339960574 0.0009233974627 0.00092339531967 0.00092339317665 
0.00092339103364 0.00092338889065 0.00092338674766 0.00092338460469 0.00092338246172 0.00092338031877 0.00092342205502 0.00092341991186 0.00092341776871 
0.00092341562558 0.00092341348245 0.00092341133934 0.00092340919623 0.00092340705314 0.00092340491006 0.00092340276699 0.00092340062394 0.00092339848089 
0.00092339633785 0.00092339419483 0.00092339205182 0.00092338990882 0.00092338776583 0.00092338562285 0.00092338347988 0.00092338133692 0.00092342307326 
0.0009234209301 0.00092341878695 0.00092341664381 0.00092341450068 0.00092341235756 0.00092341021445 0.00092340807136 0.00092340592827 0.0009234037852 
0.00092340164214 0.00092339949908 0.00092339735605 0.00092339521302 0.00092339307 0.00092339092699 0.000923388784 0.00092338664102 0.00092338449805 
0.00092338235508 0.00092342409151 0.00092342194834 0.00092341980519 0.00092341766204 0.00092341551891 0.00092341337579 0.00092341123267 0.00092340908957 
0.00092340694649 0.00092340480341 0.00092340266034 0.00092340051729 0.00092339837424 0.00092339623121 0.00092339408819 0.00092339194518 0.00092338980218 
0.00092338765919 0.00092338551622 0.00092338337325 0.00092342510977 0.00092342296659 0.00092342082343 0.00092341868028 0.00092341653715 0.00092341439402 