# vtk DataFile Version 5.1
vtk output
ASCII
DATASET STRUCTURED_POINTS
DIMENSIONS 30 30 30
SPACING 0.01 0.01 0.01
ORIGIN 1.555 -0.145 0.855
POINT_DATA 27000
FIELD FieldData 1
potential 1 27000 double
0.0012929978947 0.0012906549987 0.0012883181033 0.001285987295 0.0012836625486 0.0012813436981 0.0012790309468 0.0012767240732 0.0012744232974 
0.0012721284815 0.0012698395591 0.0012675566453 0.0012652797262 0.0012630087286 0.0012607437172 0.0012584845845 0.0012562313899 0.0012539841335 
0.001251742887 0.0012495075904 0.0012472781982 0.0012450547658 0.001242837144 0.0012406253941 0.0012384195788 0.001236219637 0.0012340256557 
0.0012318374823 0.0012296551939 0.0012274786421 0.0012941915369 0.0012918437746 0.0012895021673 0.0012871667065 0.0012848371603 0.0012825137634 
0.0012801962858 0.0012778848043 0.001275579397 0.0012732799799 0.001270986491 0.0012686990556 0.0012664175933 0.0012641421778 0.0012618726601 
0.0012596090901 0.0012573515138 0.0012550998952 0.0012528542701 0.001250614616 0.0012483808577 0.0012461531782 0.0012439312487 0.0012417152701 
0.0012395052265 0.0012373010971 0.001235102871 0.0012329105121 0.0012307240419 0.0012285433616 0.0012953894836 0.0012930369175 0.0012906904939 
0.0012883502276 0.0012860161312 0.0012836879231 0.0012813657649 0.0012790496373 0.0012767395039 0.0012744354847 0.0012721374212 0.0012698454207 
0.0012675594743 0.0012652795579 0.0012630055891 0.0012607375171 0.0012584754866 0.0012562194743 0.0012539694564 0.001251725476 0.0012494874584 
0.0012472553127 0.0012450290948 0.0012428088499 0.001240594514 0.0012383860932 0.0012361836447 0.0012339871004 0.001231796389 0.0012296116497 
0.0012965918498 0.0012942344095 0.0012918832179 0.0012895382417 0.00128719922 0.0012848663086 0.0012825394611 0.0012802185895 0.0012779038526 
0.0012755951453 0.0012732924828 0.0012709958879 0.0012687054052 0.0012664208915 0.0012641424084 0.0012618699435 0.0012596034529 0.001257343055 
0.0012550885742 0.0012528402689 0.0012505977498 0.0012483612331 0.0012461306989 0.0012439061748 0.0012416875779 0.001239474858 0.0012372681195 
0.0012350673164 0.0012328724031 0.001230683477 0.0012977986629 0.0012954364295 0.0012930803612 0.0012907304301 0.001288386627 0.0012860489179 
0.001283717332 0.0012813917618 0.0012790723372 0.0012767589423 0.0012744517253 0.0012721504667 0.001269855365 0.001267566324 0.0012652832845 
0.001263006312 0.0012607353862 0.0012584704959 0.0012562115713 0.0012539588551 0.0012517119736 0.0012494710848 0.0012472361903 0.001245007302 
0.0012427843735 0.0012405673559 0.0012383563733 0.0012361512829 0.0012339521225 0.0012317589664 0.0012990099612 0.0012966428094 0.001294281962 
0.0012919271554 0.0012895784999 0.0012872359573 0.0012848995152 0.0012825692317 0.0012802451188 0.0012779270698 0.0012756152046 0.0012733093969 
0.0012710095702 0.0012687158781 0.0012664283297 0.0012641468196 0.0012618713788 0.0012596020397 0.0012573387087 0.0012550814426 0.0012528301151 
0.0012505848273 0.0012483455866 0.001246112313 0.0012438850289 0.0012416637439 0.0012394484282 0.0012372390307 0.0012350356267 0.0012328382184 
0.0013002258452 0.0012978538407 0.0012954880456 0.0012931283185 0.0012907747328 0.0012884273914 0.001286086193 0.0012837511189 0.0012814222221 
0.0012790994462 0.0012767828395 0.001274472461 0.0012721680654 0.0012698697078 0.0012675775279 0.0012652914961 0.0012630115098 0.0012607376337 
0.0012584698584 0.0012562080643 0.0012539523237 0.0012517026093 0.0012494589364 0.00124722127 0.0012449896194 0.0012427638627 0.0012405442862 
0.0012383306885 0.001236122993 0.0012339212839 0.0013014463171 0.0012990694517 0.0012966986014 0.001294333991 0.0012919755677 0.0012896233296 
0.0012872772572 0.0012849374443 0.0012826037919 0.0012802762938 0.001277954967 0.0012756398296 0.0012733307621 0.0012710278838 0.0012687310149 
0.0012664403444 0.0012641557886 0.0012618774684 0.0012596051384 0.0012573388405 0.0012550786167 0.0012528244508 0.001250576316 0.0012483342342 
0.001246098173 0.0012438681082 0.0012416440806 0.0012394261859 0.001237214151 0.0012350081574 0.0013026715727 0.0013002895846 0.0012979137989 
0.0012955442632 0.0012931809133 0.0012908238289 0.0012884728853 0.0012861282305 0.0012837897458 0.0012814575011 0.0012791314239 0.0012768115148 
0.0012744978346 0.0012721902552 0.0012698888506 0.0012675934782 0.0012653043044 0.0012630214515 0.0012607444888 0.0012584737279 0.0012562090024 
0.0012539503478 0.0012516977751 0.0012494512558 0.0012472107206 0.0012449763009 0.0012427478901 0.0012405255792 0.0012383092638 0.0012360989326 
0.0013039014619 0.0013015144242 0.0012991336467 0.0012967591365 0.0012943908699 0.0012920288527 0.0012896730431 0.0012873235358 0.0012849802228 
0.0012826431805 0.001280312326 0.0012779876516 0.0012756692784 0.0012733570376 0.0012710509606 0.0012687509902 0.0012664573028 0.0012641697031 
0.0012618881434 0.001259612697 0.0012573435514 0.0012550804023 0.0012528233549 0.0012505722562 0.0012483273878 0.0012460884996 0.0012438557217 
0.0012416289772 0.0012394082808 0.0012371937112 0.0013051361178 0.0013027439864 0.0013003581925 0.0012979786653 0.0012956054549 0.0012932385212 
0.0012908778071 0.0012885233684 0.0012861752159 0.0012838333372 0.0012814976623 0.0012791682502 0.0012768450509 0.001274528134 0.0012722173934 
0.0012699127944 0.001267614513 0.0012653221684 0.001263036079 0.0012607561079 0.0012584823148 0.001256214634 0.0012539530071 0.001251697538 
0.0012494481189 0.0012472048186 0.0012449675663 0.0012427364085 0.0012405113153 0.0012382923545 0.0013063754743 0.0013039782621 0.0013015874062 
0.0012992028645 0.0012968246614 0.001294452754 0.0012920871162 0.0012897277788 0.0012873747436 0.0012850280148 0.0012826875284 0.0012803533067 
0.0012780252923 0.0012757036212 0.0012733881329 0.0012710789812 0.0012687759816 0.0012664790867 0.0012641883034 0.0012619037133 0.0012596253475 
0.0012573530488 0.001255086914 0.0012528269674 0.0012505730588 0.0012483252474 0.0012460834971 0.0012438479117 0.0012416183506 0.0012393949905 
0.0013076195866 0.0013052172786 0.0013028213389 0.001300431764 0.0012980485485 0.0012956716683 0.0012933010609 0.0012909367788 0.0012885787891 
0.0012862271256 0.0012838818587 0.0012815428144 0.0012792100576 0.0012768835499 0.0012745633615 0.0012722495283 0.0012699418036 0.001267640213 
0.0012653448422 0.001263055592 0.0012607725636 0.0012584956973 0.0012562250435 0.0012539605558 0.0012517020878 0.0012494498111 0.0012472035848 
0.0012449635305 0.0012427295282 0.0012405017439 0.0013088684806 0.0013064610377 0.0013040599559 0.0013016653204 0.0012992770485 0.0012968951705 
0.0012945195826 0.001292150347 0.0012897874878 0.0012874308808 0.0012850807259 0.0012827368429 0.0012803992701 0.0012780679696 0.0012757431104 
0.0012734244055 0.0012711119153 0.0012688056353 0.0012665056371 0.0012642118018 0.0012619240803 0.0012596426367 0.0012573674063 0.0012550983476 
0.0012528353692 0.0012505785757 0.0012483278087 0.0012460832874 0.0012438448089 0.0012416125742 0.0013101221187 0.0013077095126 0.0013053033368 
0.0013029036009 0.0013005102573 0.0012981233394 0.0012957427191 0.0012933685604 0.00129100073 0.0012886391816 0.001286284133 0.0012839353796 
0.0012815929382 0.0012792568315 0.0012769271106 0.0012746036598 0.0012722864409 0.0012699754688 0.0012676707601 0.0012653721826 0.0012630798891 
0.0012607938283 0.0012585140352 0.0012562403697 0.0012539728019 0.0012517114611 0.0012494562312 0.0012472071558 0.0012449641713 0.0012427274138 
0.0013113805883 0.0013089627887 0.001306551472 0.0013041465878 0.0013017481459 0.0012993561687 0.0012969705268 0.00129459134 0.0012922184989 
0.0012898520977 0.0012874920592 0.0012851384099 0.001282791112 0.0012804502575 0.001278115606 0.0012757873019 0.0012734653821 0.0012711496489 
0.001268840095 0.0012665369831 0.0012642400228 0.0012619492641 0.0012596648293 0.0012573865427 0.0012551144239 0.0012528485033 0.001250588712 
0.0012483351352 0.001246087678 0.0012438464289 0.0013126436882 0.0013102206912 0.0013078042544 0.0013053942184 0.0013029906897 0.0013005936069 
0.0012982029095 0.0012958186865 0.00129344083 0.00129106947 0.0012887045176 0.0012863459231 0.0012839937473 0.0012816480254 0.0012793085302 
0.0012769753522 0.0012746486834 0.0012723281004 0.0012700138819 0.0012677060458 0.001265404367 0.0012631089592 0.0012608198586 0.0012585369429 
0.0012562601889 0.0012539897301 0.0012517253792 0.001249467235 0.0012472153081 0.0012449694352 0.0013139115956 0.001311483417 0.0013090616989 
0.001306646567 0.0013042379035 0.001301835675 0.0012994399032 0.0012970505847 0.0012946677545 0.0012922914219 0.0012899214854 0.0012875579318 
0.0012852009394 0.0012828501807 0.0012805057759 0.0012781677853 0.0012758361864 0.0012735109235 0.0012711919362 0.0012688793176 0.0012665730083 
0.0012642729329 0.0012619791483 0.0012596915341 0.0012574101509 0.0012551350524 0.0012528661189 0.0012506034099 0.0012483468176 0.0012460964299 
0.0013151843172 0.0013127508401 0.0013103238846 0.0013079034985 0.0013054896391 0.0013030823536 0.0013006814848 0.0012982870861 0.0012958991972 
0.001293517851 0.0012911429083 0.0012887744217 0.0012864124391 0.001284056799 0.0012817074925 0.001279364554 0.0012770281667 0.001274698102 
0.0012723743262 0.0012700569585 0.0012677458661 0.0012654410702 0.0012631425608 0.0012608502922 0.0012585642711 0.0012562844964 0.0012540108495 
0.0012517435619 0.0012494824973 0.0012472275293 0.0013164616613 0.0013140228922 0.0013115907385 0.0013091651021 0.0013067460695 0.0013043335355 
0.0013019275892 0.0012995281025 0.0012971351832 0.0012947487434 0.0012923687822 0.0012899953032 0.0012876283886 0.0012852677393 0.0012829134784 
0.0012805657725 0.0012782244433 0.0012758895687 0.0012735610205 0.0012712388354 0.0012689229389 0.0012666134201 0.0012643101914 0.0012620132184 
0.001259722483 0.0012574379347 0.0012551597581 0.0012528878198 0.0012506221789 0.0012483626739 0.0013177436699 0.0013152995956 0.0013128620658 
0.0013104312787 0.0013080069853 0.0013055893315 0.0013031781189 0.0013007735535 0.0012983755858 0.0012959840872 0.0012935990977 0.0012912207056 
0.0012888486905 0.0012864829937 0.0012841238848 0.0012817712319 0.0012794250369 0.0012770852773 0.0012747519117 0.0012724249094 0.0012701042721 
0.0012677899551 0.0012654819792 0.0012631801762 0.0012608847467 0.0012585956096 0.0012563127656 0.0012540361811 0.0012517658548 0.0012495017237 
0.0013190302991 0.0013165808684 0.001314138059 0.0013117019466 0.0013092724758 0.0013068495864 0.0013044331867 0.001302023508 0.0012996203619 
0.001297223829 0.0012948337704 0.0012924503314 0.0012900732237 0.0012877026553 0.0012853385742 0.0012829809705 0.0012806298663 0.001278285172 
0.0012759469745 0.0012736151658 0.0012712897107 0.001268970507 0.0012666577583 0.0012643513168 0.0012620511269 0.0012597573179 0.0012574697684 
0.0012551885628 0.0012529135533 0.0012506447368 0.0013203214519 0.0013178666454 0.0013154185737 0.001312977132 0.0013105424248 0.0013081142979 
0.0013056927006 0.0013032778132 0.0013008695177 0.0012984678157 0.0012960728068 0.0012936841937 0.0012913021032 0.0012889265542 0.0012865574822 
0.0012841949248 0.0012818388871 0.0012794892818 0.0012771461971 0.001274809549 0.0012724791286 0.0012701552237 0.001267837651 0.0012655264414 
0.0012632215622 0.0012609229708 0.0012586307457 0.0012563448547 0.001254065188 0.0012517917471 0.0013216170922 0.0013191569042 0.0013167034534 
0.0013142567296 0.0013118166733 0.0013093832869 0.0013069565624 0.001304536478 0.00130212302 0.0012997161791 0.0012973159435 0.0012949222537 
0.001292535158 0.0012901546364 0.0012877805935 0.0012854130427 0.0012830520445 0.0012806974953 0.0012783493663 0.00127600785 0.0012736727037 
0.0012713439557 0.0012690215728 0.0012667055886 0.0012643959709 0.0012620926534 0.0012597957027 0.0012575051119 0.0012552207599 0.0012529426519 
0.0013229171555 0.0013204515882 0.0013179927672 0.001315540739 0.001313095358 0.0013106566363 0.0013082246911 0.0013057993901 0.0013033807446 
0.001300968656 0.001298563386 0.0012961645839 0.0012937723966 0.0012913867736 0.0012890077726 0.001286635284 0.0012842692011 0.001281909706 
0.0012795567274 0.0012772103407 0.0012748703269 0.0012725367338 0.0012702094937 0.0012678886496 0.001265574266 0.0012632661874 0.0012609645908 
0.0012586692386 0.0012563801653 0.0012540973701 0.0013242215828 0.001321750619 0.0013192863925 0.0013168289756 0.0013143783286 0.0013119342919 
0.0013094970805 0.0013070664517 0.0013046425985 0.001302225418 0.0012998149961 0.0012974110903 0.0012950137818 0.0012926230785 0.0012902388827 
0.0012878613375 0.0012854904238 0.0012831260099 0.0012807680602 0.0012784167947 0.0012760718717 0.0012737334067 0.0012714012987 0.0012690756678 
0.001266756423 0.0012644435942 0.0012621372003 0.001259837103 0.0012575432997 0.0012552558614 0.0013255302937 0.0013230538402 0.0013205842667 
0.0013181214705 0.0013156653673 0.0013132161005 0.0013107734812 0.0013083377572 0.0013059086739 0.0013034863992 0.0013010706983 0.001298661517 
0.0012962591007 0.0012938633076 0.001291474131 0.0012890915513 0.0012867155497 0.0012843461239 0.0012819832444 0.001279626995 0.0012772773168 
0.0012749339048 0.0012725969594 0.0012702664807 0.0012679424247 0.0012656247383 0.0012633135935 0.0012610087334 0.0012587101893 0.0012564180396 
0.0013268432845 0.0013243613379 0.0013218863319 0.0013194181308 0.0013169566566 0.0013145019778 0.0013120541496 0.0013096131016 0.0013071787576 
0.0013047511692 0.0013023302612 0.0012999160327 0.0012975084775 0.0012951075922 0.00129271333 0.0012903257016 0.0012879446882 0.0012855702148 
0.0012832023719 0.0012808410546 0.0012784864132 0.0012761381121 0.0012737963597 0.0012714610185 0.0012691321303 0.0012668096462 0.0012644936761 
0.0012621841031 0.0012598807994 0.0012575838155 0.0013281603513 0.0013256729298 0.0013231924481 0.0013207188228 0.0013182518692 0.0013157918922 
0.0013133386865 0.0013108922635 0.001308452667 0.0013060199267 0.0013035937872 0.0013011743728 0.0012987616774 0.0012963556862 0.00129395632 
0.0012915636213 0.0012891775336 0.0012867980691 0.0012844251982 0.0012820589052 0.0012796992729 0.0012773460538 0.0012749993752 0.0012726591498 
0.0012703255282 0.0012679982746 0.0012656773952 0.0012633629633 0.0012610548518 0.0012587531273 0.0013294813255 0.0013269884246 0.0013245024343 
0.0013220232017 0.0013195509178 0.0013170855348 0.0013146270147 0.0013121753164 0.0013097306083 0.0013072925599 0.0013048611859 0.0013024365657 
0.0013000186946 0.0012976075326 0.0012952030659 0.0012928052494 0.001290414101 0.0012880296142 0.001285651705 0.001283280439 0.0012809157223 
0.0012785576088 0.0012762060692 0.0012738608601 0.001271522267 0.0012691901512 0.0012668645019 0.0012645452628 0.001262232383 0.0012599258646 
0.0013074645339 0.0013050960599 0.0013027337179 0.0013003775809 0.0012980274869 0.0012956835295 0.0012933455402 0.0012910138503 0.0012886880728 
0.0012863682305 0.0012840545693 0.0012817470271 0.0012794454893 0.0012771500105 0.0012748605265 0.0012725771356 0.0012702997328 0.0012680282617 
0.0012657629576 0.0012635036528 0.001261250316 0.0012590030264 0.0012567617632 0.0012545263866 0.0012522970315 0.0012500737048 0.0012478562718 
0.0012456448317 0.0012434392788 0.0012412396966 0.0013086762145 0.001306302928 0.0013039358278 0.001301574806 0.0012992200834 0.0012968713383 
0.0012945288056 0.0012921922187 0.0012898617131 0.0012875373584 0.0012852190816 0.001282906906 0.0012806008081 0.0012783008214 0.0012760068814 
0.0012737188845 0.0012714370458 0.0012691611578 0.001266891407 0.0012646276825 0.001262370015 0.0012601183164 0.0012578727695 0.0012556330854 
0.0012533994328 0.0012511718102 0.0012489501177 0.0012467344062 0.0012445246577 0.0012423208669 0.001309892201 0.0013075140017 0.0013051420995 
0.0013027762605 0.0013004166669 0.0012980632623 0.0012957158855 0.0012933746711 0.0012910395037 0.0012887104129 0.001286387512 0.0012840707352 
0.0012817600262 0.001279455444 0.0012771569859 0.0012748645508 0.0012725781242 0.0012702978265 0.001268023654 0.0012657554443 0.0012634933591 
0.0012612373749 0.0012589873034 0.0012567433395 0.0012545053716 0.00125227341 0.0012500474581 0.0012478274236 0.0012456134795 0.0012434055676 
0.0013111124293 0.0013087294125 0.0013063525411 0.0013039818942 0.0013016174439 0.0012992592179 0.0012969070979 0.0012945610959 0.00129222121 
0.0012898874665 0.0012875598742 0.0012852384553 0.0012829231405 0.0012806140042 0.0012783109517 0.0012760139588 0.0012737231026 0.001271438234 
0.0012691596025 0.0012668869826 0.0012646205533 0.0012623600758 0.0012601056137 0.0012578572218 0.0012556149349 0.0012533786437 0.0012511482863 
0.0012489240485 0.00124670584 0.0012444936305 0.0013123370328 0.0013099490744 0.0013075672647 0.0013051917931 0.0013028225396 0.0013004594001 
0.0012981024635 0.0012957517154 0.0012934070284 0.0012910687077 0.0012887363873 0.0012864103026 0.0012840903081 0.001281776575 0.0012794689027 
0.0012771673387 0.001274871911 0.0012725826363 0.001270299516 0.0012680223888 0.0012657514928 0.0012634864991 0.0012612276747 0.0012589749005 
0.0012567281839 0.0012544875889 0.001252252839 0.0012500243071 0.0012478018294 0.0012455852932 0.0013135661137 0.0013111731529 0.0013087864637 
0.0013064060898 0.0013040318296 0.0013016638508 0.0012993020784 0.0012969465174 0.0012945971136 0.0012922539994 0.0012899170623 0.0012875862088 
0.001285261596 0.001282943142 0.0012806308259 0.0012783247262 0.0012760247294 0.0012737308888 0.0012714432272 0.0012691617313 0.0012668862624 
0.0012646168609 0.0012623535736 0.0012600963764 0.0012578452197 0.0012556001125 0.0012533611588 0.0012511282319 0.0012489013775 0.0012466805554 
0.001314799581 0.0013124016392 0.0013100099729 0.0013076247017 0.0013052455104 0.0013028726421 0.0013005059749 0.0012981455943 0.0012957914059 
0.0012934434815 0.0012911018734 0.0012887663719 0.001286436972 0.0012841139084 0.0012817969383 0.0012794861388 0.0012771815744 0.0012748831589 
0.0012725909398 0.0012703049465 0.0012680249693 0.0012657510848 0.0012634833058 0.0012612216619 0.0012589660535 0.0012567165188 0.0012544731642 
0.0012522359212 0.0012500047433 0.0012477795878 0.0013160375556 0.0013136345968 0.0013112380571 0.0013088477059 0.0013064635855 0.0013040857942 
0.0013017142857 0.0012993490143 0.0012969899556 0.001294637233 0.0012922907522 0.0012899506312 0.0012876166298 0.0012852886877 0.0012829671454 
0.001280651733 0.0012783425002 0.0012760394926 0.0012737427846 0.0012714521531 0.0012691676301 0.0012668892597 0.0012646169159 0.0012623508005 
0.0012600907403 0.0012578368177 0.0012555890489 0.0012533474451 0.0012511119677 0.0012488824567 0.0013172801027 0.0013148721707 0.0013124705537 
0.0013100751775 0.0013076861515 0.0013053033677 0.0013029269604 0.0013005567822 0.00129819295 0.0012958353942 0.0012934841065 0.0012911391266 
0.0012888003421 0.0012864678246 0.0012841414886 0.0012818214083 0.001279507531 0.0012771999165 0.0012748985916 0.0012726033805 0.0012703142551 
0.0012680313544 0.001265754594 0.0012634838633 0.0012612194498 0.0012589610729 0.0012567089075 0.0012544627864 0.0012522228467 0.0012499890079 
0.0013185272671 0.0013161142801 0.0013137075506 0.0013113071944 0.001308913151 0.0013065254426 0.0013041440597 0.0013017689645 0.0012994002587 
0.0012970378513 0.0012946817385 0.0012923319128 0.001289988422 0.001287651133 0.0012853201154 0.0012829953092 0.0012806766902 0.0012783645522 
0.0012760584931 0.0012737586687 0.0012714649313 0.0012691774774 0.0012668961678 0.0012646210783 0.0012623520659 0.001260089207 0.0012578325787 
0.0012555820106 0.00125333758 0.0012510993386 0.0013197791209 0.0013173609413 0.001314949122 0.001312543692 0.0013101446324 0.0013077519733 
0.0013053656062 0.0013029855862 0.0013006119699 0.0012982446846 0.0012958837249 0.0012935290047 0.0012911807783 0.0012888386943 0.0012865029164 
0.0012841734273 0.0012818501386 0.0012795332938 0.001277222559 0.0012749181038 0.0012726198525 0.0012703277412 0.0012680418507 0.0012657621718 
0.0012634886753 0.0012612213259 0.0012589601225 0.0012567051163 0.001254456241 0.0012522135673 0.0013210354941 0.0013186121888 0.001316195281 
0.0013137847909 0.0013113806846 0.0013089829875 0.0013065916483 0.0013042066488 0.00130182806 0.0012994558753 0.001297090039 0.0012947305055 
0.0012923773334 0.0012900305734 0.0012876900214 0.0012853558115 0.0012830279479 0.0012807062439 0.0012783908646 0.0012760817344 0.0012737787266 
0.0012714820644 0.0012691916101 0.0012669073679 0.0012646292781 0.0012623574194 0.0012600917252 0.0012578321724 0.0012555788933 0.0012533316686 
0.0013222965504 0.0013198680825 0.0013174460047 0.001315030412 0.0013126212701 0.0013102184936 0.0013078221439 0.0013054321846 0.0013030486471 
0.0013006715287 0.0012983007939 0.0012959363841 0.0012935783529 0.0012912267668 0.0012888814315 0.0012865423824 0.001284209811 0.0012818834219 
0.0012795632975 0.0012772494132 0.0012749418238 0.0012726405037 0.0012703454258 0.0012680566192 0.0012657740373 0.0012634975847 0.0012612273135 
0.0012589632552 0.0012567054695 0.001254453705 0.0013235622625 0.0013211285567 0.0013187013576 0.0013162806369 0.0013138663972 0.0013114586001 
0.0013090571981 0.0013066622069 0.00130427368 0.0013018916131 0.0012995158866 0.0012971466349 0.001294783735 0.0012924272143 0.0012900771471 
0.0012877334268 0.001285395951 0.0012830647971 0.0012807399547 0.0012784213884 0.0012761091236 0.0012738031364 0.001271503397 0.0012692099637 
0.0012669227902 0.001264641745 0.0012623669769 0.0012600983461 0.001257836012 0.0012555797483 0.0013248326077 0.0013223937062 0.0013199613245 
0.0013175354655 0.0013151160827 0.0013127031716 0.0013102967752 0.0013078967401 0.001305503217 0.0013031161297 0.0013007354418 0.0012983612626 
0.0012959934879 0.0012936320792 0.0012912771576 0.0012889286144 0.0012865863105 0.0012842504085 0.001281920736 0.001279597546 0.0012772805455 
0.0012749698839 0.0012726654949 0.0012703673998 0.0012680756015 0.0012657899667 0.0012635106292 0.0012612374677 0.0012589706243 0.001256709828 
0.001326107599 0.0013236634441 0.0013212259131 0.0013187948627 0.0013163703363 0.0013139523226 0.0013115408276 0.0013091357422 0.0013067371926 
0.0013043450688 0.0013019594133 0.0012995803049 0.001297207582 0.001294841273 0.0012924814864 0.0012901280736 0.0012877809456 0.001285440179 
0.0012831058104 0.0012807778248 0.0012784561478 0.0012761407808 0.0012738317032 0.0012715289772 0.0012692324938 0.0012669422709 0.0012646583217 
0.0012623805658 0.0012601091461 0.0012578437809 0.0013273872687 0.001324937849 0.001322495041 0.0013200588484 0.001317629157 0.0013152059983 
0.0013127893817 0.0013103792177 0.0013079755946 0.0013055784437 0.0013031878156 0.00130080369 0.0012984260287 0.0012960548038 0.001293690112 
0.0012913318086 0.0012889797535 0.0012866342562 0.0012842950877 0.0012819623241 0.0012796359311 0.0012773158037 0.0012750020563 0.0012726946282 
0.001270393475 0.0012680985704 0.0012658100158 0.0012635276332 0.0012612515155 0.0012589816085 0.0013286715475 0.0013262168495 0.0013237687583 
0.00132132728 0.0013188924185 0.0013164641186 0.0013140423637 0.0013116270982 0.0013092183531 0.0013068162048 0.0013044206187 0.0013020314903 
0.0012996488105 0.0012972727584 0.0012949030385 0.0012925397473 0.0012901829047 0.0012878325595 0.0012854885686 0.0012831510304 0.001280819835 
0.001278495002 0.0012761764739 0.0012738643393 0.0012715584837 0.0012692589066 0.0012669656743 0.0012646786807 0.0012623979643 0.0012601234646 
0.0013299603283 0.0013275004341 0.0013250470613 0.0013226003361 0.0013201601998 0.0013177267098 0.001315299838 0.0013128794477 0.0013104656295 
0.0013080583814 0.0013056577313 0.0013032635451 0.0013008759034 0.0012984948717 0.0012961200782 0.0012937519233 0.0012913902599 0.0012890350452 
0.0012866861944 0.0012843438667 0.0012820078674 0.0012796782272 0.001277355025 0.001275038092 0.0012727275107 0.0012704231672 0.0012681252637 
0.0012658337398 0.001263548378 0.0012612692542 0.0013312538425 0.0013287885883 0.0013263299118 0.0013238778788 0.0013214325178 0.0013189938027 
0.0013165617038 0.0013141362364 0.00131171726 0.0013093049287 0.0013068992026 0.0013045000066 0.0013021073122 0.001299721206 0.0012973415538 
0.0012949683988 0.0012926018304 0.001290241711 0.0012878880688 0.0012855408055 0.0012831999774 0.0012808655367 0.0012785375542 0.0012762157797 
0.0012739004928 0.0012715915091 0.0012692889041 0.0012669927113 0.0012647026976 0.0012624189462 0.001332551812 0.0013300811266 0.0013276172199 
0.00132515988 0.0013227092801 0.0013202653299 0.0013178280128 0.0013153972616 0.0013129731974 0.0013105557978 0.0013081449634 0.0013057406995 
0.0013033430199 0.0013009518144 0.0012985672009 0.0012961891137 0.0012938175159 0.0012914525201 0.001289093985 0.0012867418788 0.0012843962183 
0.001282056953 0.0012797240375 0.0012773976236 0.0012750775268 0.0012727638087 0.0012704564872 0.0012681555894 0.0012658608924 0.0012635725133 
0.0013338543204 0.001331378253 0.0013289088664 0.0013264463103 0.0013239904078 0.0013215411911 0.0013190986899 0.0013166627238 0.0013142334954 
0.0013118109008 0.001309395005 0.001306985548 0.0013045828901 0.0013021866479 0.0012997970286 0.0012974139496 0.0012950374 0.0012926674828 
0.0012903039938 0.0012879469778 0.0012855963636 0.0012832523221 0.0012809146531 0.0012785834218 0.0012762585478 0.0012739400611 0.0012716280259 
0.0012693222951 0.0012670228647 0.0012647298264 0.0013351612722 0.001332679746 0.001330205012 0.0013277371338 0.0013252759149 0.0013228214144 
0.0013203736243 0.0013179324339 0.0013154980373 0.0013130702869 0.0013106491212 0.0013082347654 0.0013058269338 0.0013034256649 0.0013010309809 
0.001298642869 0.0012962613493 0.0012938864065 0.0012915179494 0.0012891560069 0.0012868006103 0.0012844516754 0.0012821091612 0.0012797730493 
0.0012774434726 0.0012751201933 0.0012728034362 0.0012704929924 0.00126818884 0.0012658911022 0.0013364725601 0.0013339856362 0.0013315055188 
0.001329032184 0.0013265657305 0.0013241059062 0.0013216527773 0.0013192064009 0.0013167667478 0.0013143337189 0.001311907481 0.0013094880222 
0.0013070750257 0.0013046686942 0.0013022690049 0.0012998758843 0.0012974892492 0.0012951093262 0.0012927360147 0.0012903691644 0.0012880088386 
0.0012856549951 0.0012833076011 0.0012809666873 0.0012786322088 0.0012763041862 0.0012739826835 0.0012716674808 0.001269358604 0.0012670561035 
0.0013377881784 0.001335295788 0.0013328102511 0.0013303315523 0.0013278596468 0.0013253945972 0.001322936155 0.0013204844575 0.0013180395664 
0.0013156014154 0.0013131699939 0.0013107453288 0.0013083272339 0.001305915794 0.0013035109558 0.001301112802 0.0012987212411 0.0012963362861 
0.0012939579973 0.0012915861795 0.0012892209593 0.0012868622525 0.0012845099516 0.0012821641605 0.0012798248623 0.0012774920217 0.0012751656886 
0.0012728457022 0.0012705320871 0.0012682248624 0.0013391080846 0.0013366102049 0.0013341192212 0.0013316351351 0.0013291578338 0.0013266874349 
0.0013242235845 0.0013217666721 0.0013193165209 0.0013168731389 0.0013144366232 0.001312006647 0.0013095833579 0.0013071667963 0.0013047569289 
0.0013023536696 0.0012999571207 0.0012975672008 0.001295183861 0.0012928071404 0.0012904369185 0.0012880732634 0.0012857160829 0.0012833654106 
0.0012810212547 0.0012786836109 0.0012763524277 0.0012740276458 0.0012717092591 0.0012693972418 0.0013404321289 0.0013379287941 0.0013354323478 
0.0013329428317 0.0013304601302 0.0013279841275 0.0013255151891 0.0013230529626 0.001320597505 0.0013181487783 0.0013157070766 0.0013132719074 
0.0013108434881 0.0013084217999 0.0013060067894 0.0013035984772 0.001301196824 0.0012988018172 0.0012964135117 0.0012940318457 0.0012916566769 
0.0012892880227 0.0012869259617 0.0012845704009 0.0012822213421 0.001279878845 0.0012775427947 0.0012752132282 0.0012728900133 0.001270573234 
0.0013417603358 0.001339251458 0.0013367495285 0.0013342545684 0.0013317663799 0.0013292850486 0.001326810693 0.0013243431487 0.0013218823703 
0.0013194284622 0.0013169814405 0.0013145410698 0.0013121074773 0.0013096806326 0.0013072605035 0.0013048470658 0.0013024403294 0.0013000402245 
0.001297646866 0.0012952601122 0.0012928800445 0.0012905065053 0.0012881395054 0.0012857790398 0.0012834251112 0.0012810777321 0.001278736778 
0.0012764023763 0.0012740743425 0.0012717528419 0.0013430925096 0.0013405780927 0.0013380706625 0.001335570137 0.0013330765468 0.0013305898293 
0.0013281100622 0.001325637303 0.0013231712036 0.0013207120021 0.0013182596827 0.0013158141032 0.0013133753049 0.0013109432736 0.0013085179624 
0.0013060993901 0.0013036875432 0.0013012824265 0.0012988839486 0.0012964921605 0.0012941070318 0.0012917284454 0.0012893565755 0.0012869912119 
0.0012846323471 0.0012822800453 0.0012799343213 0.001277594974 0.0012752621573 0.0012729357403 0.0013444286528 0.0013419085017 0.0013393955449 
0.0013368895901 0.0013343905696 0.0013318984368 0.0013294132999 0.0013269350145 0.0013244636755 0.0013219992515 0.0013195415598 0.0013170907245 
0.0013146466998 0.0013122094723 0.0013097790131 0.0013073553083 0.0013049383243 0.0013025280903 0.0013001245561 0.0012977276731 0.0012953375294 
0.0012929539635 0.0012905770407 0.0012882067058 0.0012858431146 0.0012834859608 0.0012811352618 0.001278791038 0.0012764533521 0.0012741221746 
0.0013219207942 0.0013195269013 0.0013171391612 0.0013147576489 0.0013123823855 0.0013100131935 0.0013076502538 0.0013052934324 0.0013029427422 
0.0013005982057 0.0012982597474 0.0012959275255 0.0012936014514 0.0012912815084 0.0012889676351 0.0012866599242 0.0012843582913 0.0012820628492 
0.0012797733787 0.0012774900741 0.0012752128872 0.0012729417938 0.0012706768033 0.0012684178585 0.001266165074 0.0012639182587 0.001261677499 
0.0012594427512 0.0012572140391 0.001254991517 0.0013231505816 0.001320751802 0.0013183591817 0.0013159728319 0.0013135926571 0.0013112187847 
0.0013088509435 0.0013064894982 0.0013041340626 0.0013017847317 0.0012994416409 0.001297104796 0.0012947740521 0.0012924495466 0.0012901311137 
0.0012878188694 0.0012855127582 0.001283212781 0.0012809188584 0.0012786310611 0.001276349456 0.0012740739351 0.0012718045047 0.0012695412824 
0.001267284101 0.0012650329471 0.0012627878745 0.0012605488265 0.0012583158312 0.0012560890444 0.0013243844766 0.0013219807539 0.0013195832201 