# vtk DataFile Version 5.1
vtk output
ASCII
DATASET STRUCTURED_POINTS
DIMENSIONS 30 30 30
SPACING 0.01 0.01 0.01
ORIGIN 1.555 -0.145 0.855
POINT_DATA 27000
FIELD FieldData 1
potential 1 27000 double
0.0034169340665 0.0034057954684 0.0033947079748 0.0033836716887 0.0033726861995 0.0033617508961 0.0033508659806 0.0033400307401 0.0033292455584 
0.003318509482 0.0033078223169 0.0032971841309 0.0032865946164 0.003276053325 0.0032655602486 0.0032551148586 0.00324471705 0.0032343665453 
0.003224063344 0.0032138070901 0.0032035973967 0.0031934341581 0.0031833168243 0.0031732453254 0.0031632195407 0.0031532391579 0.0031433041723 
0.0031334138978 0.0031235683552 0.0031137668834 0.0034094730472 0.0033983766232 0.0033873314998 0.0033763372908 0.0033653932321 0.003354499563 
0.0033436555723 0.0033328612508 0.0033221162948 0.0033114203897 0.0033007731269 0.00329017461 0.0032796244011 0.0032691224101 0.0032586680542 
0.0032482612512 0.0032379018022 0.003227589451 0.0032173240351 0.0032071053234 0.0031969328441 0.0031868067748 0.0031767262001 0.0031666913121 
0.0031567018944 0.0031467576986 0.0031368583618 0.0031270036612 0.0031171934246 0.0031074271071 0.0034020265546 0.0033909725664 0.0033799694514 
0.003369016905 0.0033581148252 0.0033472621432 0.0033364592196 0.0033257054283 0.0033150005972 0.0033043448268 0.0032937373895 0.003283178398 
0.0032726675871 0.0032622046377 0.0032517891111 0.0032414206893 0.0032310994825 0.0032208251654 0.0032105974808 0.0032004163533 0.0031902812354 
0.003180191824 0.0031701480326 0.0031601496805 0.0031501963906 0.003140288049 0.0031304244792 0.0031206053326 0.0031108301438 0.0031010992222 
0.0033945950565 0.0033835832405 0.003372622323 0.0033617116112 0.0033508504961 0.0033400391497 0.0033292769244 0.0033185635906 0.0033078991825 
0.003297283181 0.0032867155468 0.0032761959792 0.0032657244007 0.003255300225 0.0032449233976 0.0032345935927 0.0032243104953 0.00321407418 
0.0032038840401 0.0031937403808 0.0031836421491 0.0031735895994 0.0031635824285 0.0031536205245 0.0031437034863 0.0031338309362 0.003124002936 
0.0031142190528 0.0031044791703 0.0030947832252 0.0033871786978 0.0033762092837 0.0033652900041 0.0033544205862 0.0033436009146 0.0033328303327 
0.0033221088549 0.003311435941 0.0033008116986 0.0032902355707 0.0032797077133 0.003269227424 0.0032587948502 0.0032484095808 0.0032380712688 
0.0032277797782 0.0032175348729 0.0032073363001 0.0031971836681 0.0031870773251 0.0031770161849 0.0031670004343 0.003157029789 0.0031471041321 
0.0031372231125 0.0031273863669 0.0031175940075 0.0031078453825 0.0030981405868 0.0030884794798 0.0033797777232 0.003368850299 0.0033579729495 
0.0033471450843 0.0033363663468 0.0033256365412 0.0033149554693 0.0033043229621 0.0032937388255 0.0032832025652 0.0032727142879 0.003262273466 
0.0032518796077 0.003241532928 0.0032312331857 0.0032209799021 0.0032107729707 0.0032006121876 0.0031904970901 0.0031804277279 0.0031704035015 
0.0031604244177 0.0031504903405 0.0031406007958 0.0031307556595 0.0031209547766 0.0031111977256 0.0031014844083 0.0030918146572 0.0030821883105 
0.0033723924484 0.0033615070843 0.0033506714271 0.0033398846537 0.0033291467516 0.0033184578016 0.0033078172979 0.0032972249673 0.0032866807218 
0.003276184124 0.0032657351438 0.0032553336387 0.0032449788744 0.0032346706686 0.0032244091802 0.003214194143 0.0032040250211 0.0031939017775 
0.0031838241586 0.0031737917738 0.0031638044579 0.0031538620018 0.003143964185 0.0031341107336 0.0031243014672 0.0031145358145 0.0031048144049 
0.0030951363928 0.0030855015555 0.0030759098169 0.0033650230142 0.0033541797856 0.0033433851803 0.00333263968 0.003321942844 0.0033112944639 
0.0033006942284 0.0032901421346 0.0032796377415 0.0032691807779 0.0032587710963 0.0032484084969 0.0032380924866 0.0032278230976 0.0032175997745 
0.0032074225547 0.0031972911767 0.0031872056232 0.0031771651938 0.0031671697932 0.0031572192314 0.0031473132569 0.0031374516248 0.0031276341818 
0.0031178605264 0.0031081305876 0.0030984442398 0.0030888014752 0.0030792014103 0.0030696442998 0.003357670028 0.0033468680595 0.0033361149512 
0.0033254105805 0.0033147545192 0.0033041467424 0.0032935867423 0.0032830746179 0.0032726098446 0.0032621924218 0.0032518219258 0.0032414981514 
0.0032312209781 0.0032209899595 0.0032108049682 0.003200665524 0.0031905717106 0.003180523644 0.0031705201868 0.0031605618398 0.003150647905 
0.0031407783196 0.0031309527872 0.0031211712643 0.0031114331823 0.0031017388377 0.0030920876846 0.0030824797439 0.0030729145803 0.0030633919358 
0.0033503331248 0.003339572665 0.003328860845 0.0033181974144 0.0033075820989 0.0032970147008 0.0032864949004 0.0032760226614 0.0032655974934 
0.0032552194235 0.003244887993 0.0032346029884 0.0032243644834 0.0032141718039 0.0032040248546 0.0031939232864 0.0031838672729 0.0031738562078 
0.0031638897402 0.0031539677577 0.0031440906307 0.0031342573754 0.0031244680509 0.0031147219695 0.0031050198145 0.0030953607229 0.0030857447419 
0.0030761715587 0.0030666409967 0.0030571530969 0.0033430128204 0.0033322936769 0.0033216230242 0.0033110004292 0.0033004257579 0.0032898987067 
0.003279418934 0.0032689863594 0.0032586007383 0.0032482618775 0.0032379693891 0.0032277231972 0.0032175229208 0.0032073685509 0.0031972596205 
0.0031871958411 0.0031771773087 0.0031672031927 0.0031572738174 0.0031473887 0.0031375478002 0.003127750751 0.0031179971266 0.0031082871623 
0.0030986203055 0.0030889965389 0.0030794154958 0.0030698770907 0.0030603810676 0.0030509274058 0.0033357090845 0.0033250312416 0.0033144015749 
0.0033038197019 0.0032932855261 0.0032827986603 0.0032723588505 0.0032619659142 0.0032516197191 0.0032413199919 0.0032310664362 0.0032208587907 
0.0032106967126 0.0032005804177 0.0031905092607 0.003180483361 0.0031705021563 0.003160565314 0.0031506726128 0.0031408240541 0.0031310195684 
0.0031212583859 0.0031115407715 0.0031018665107 0.0030922350752 0.0030826463669 0.0030731001139 0.0030635964177 0.0030541347247 0.003044715325 
0.0033284220867 0.0033177854818 0.0033071966884 0.0032966554948 0.0032861616576 0.0032757149107 0.0032653149282 0.0032549615182 0.0032446544382 
0.0032343936514 0.0032241789623 0.0032140098179 0.0032038861691 0.0031938076997 0.0031837743702 0.003173786062 0.0031638420163 0.0031539421169 
0.0031440862899 0.0031342741472 0.0031245056439 0.0031147806328 0.0031050988845 0.003095460148 0.0030858638867 0.0030763103242 0.0030667989264 
0.003057329804 0.0030479024771 0.0030385172128 0.0033211520724 0.0033105565316 0.0033000083957 0.0032895077361 0.0032790541232 0.0032686473895 
0.0032582870922 0.0032479731922 0.0032377054579 0.0032274834642 0.0032173073951 0.0032071766754 0.0031970911604 0.0031870505784 0.0031770550768 
0.0031671038669 0.0031571968563 0.0031473338176 0.0031375147441 0.0031277391385 0.0031180066379 0.003108317572 0.0030986715371 0.0030890682474 
0.0030795072827 0.003069988697 0.0030605119208 0.003051077327 0.0030416842616 0.0030323330358 0.0033138989835 0.0033033443814 0.003292837041 
0.003282376776 0.0032719632846 0.0032615964078 0.0032512756657 0.0032410011906 0.0032307724733 0.0032205892827 0.003210451764 0.0032003593217 
0.0031903117855 0.0031803090321 0.003170350897 0.003160437013 0.0031505670673 0.0031407408669 0.0031309582907 0.0031212187174 0.0031115225563 
0.0031018693205 0.0030922589512 0.0030826909361 0.0030731650434 0.0030636813214 0.0030542393586 0.0030448390634 0.0030354801053 0.0030261626822 
0.0033066632157 0.0032961494058 0.0032856826423 0.0032752626196 0.0032648891413 0.0032545620581 0.0032442807936 0.0032340454783 0.0032238556711 
0.0032137113268 0.0032036121284 0.0031935578638 0.0031835483008 0.0031735833771 0.0031636624381 0.003153785599 0.0031439527087 0.0031341631516 
0.0031244166034 0.0031147137371 0.0031050535022 0.0030954358875 0.0030858609661 0.0030763281597 0.0030668373375 0.0030573883641 0.0030479809367 
0.0030386150175 0.0030292902791 0.0030200067384 0.0032994443358 0.0032889712574 0.0032785451113 0.0032681652497 0.0032578317629 0.0032475442442 
0.0032373023617 0.0032271061382 0.0032169551283 0.0032068494105 0.0031967885801 0.0031867723566 0.0031768006292 0.0031668732665 0.0031569896333 
0.0031471497244 0.0031373537561 0.0031276004706 0.003117890546 0.0031082237583 0.0030985993325 0.0030890173827 0.0030794778029 0.003069980148 
0.0030605241733 0.0030511100372 0.0030417370499 0.0030324053503 0.0030231147807 0.0030138646933 0.0032922428996 0.0032818105309 0.003271424498 
0.0032610849351 0.0032507912251 0.0032405431218 0.0032303405299 0.003220183222 0.0032100710356 0.0032000038339 0.0031899811984 0.0031800028778 
0.0031700690489 0.0031601788683 0.0031503323671 0.0031405294607 0.0031307698233 0.0031210533769 0.0031113796733 0.0031017487741 0.0030921602936 
0.003082613914 0.0030731096394 0.0030636469261 0.0030542257579 0.0030448461004 0.003035507505 0.0030262099295 0.0030169528862 0.0030077365554 
0.0032850589746 0.0032746670079 0.0032643212021 0.0032540213826 0.0032437672661 0.0032335587751 0.0032233953402 0.0032132769043 0.0032032033177 
0.0031931745096 0.0031831899324 0.0031732495271 0.0031633531843 0.0031535004034 0.003143690982 0.0031339246151 0.0031242018116 0.0031145217569 
0.0031048841916 0.0030952892396 0.0030857363294 0.0030762253602 0.0030667561745 0.0030573284401 0.0030479420278 0.0030385967576 0.003029292069 
0.0030200285608 0.0030108056847 0.0030016227746 0.0032778922786 0.0032675406765 0.0032572350332 0.0032469749635 0.0032367604299 0.0032265910035 
0.0032164667499 0.0032063871037 0.0031963521424 0.0031863614456 0.0031764148569 0.0031665121842 0.0031566533884 0.0031468376992 0.0031370650048 
0.003127335801 0.0031176493383 0.0031080056012 0.0030984041346 0.0030888448692 0.0030793274058 0.003069851796 0.0030604176922 0.0030510247987 
0.0030416729331 0.0030323616561 0.0030230914955 0.0030138618566 0.0030046726367 0.0029955233926 0.0032707429835 0.0032604316113 0.0032501657266 
0.0032399455472 0.0032297703279 0.0032196402079 0.0032095546 0.0031995136961 0.0031895172595 0.0031795647307 0.0031696560512 0.0031597911975 
0.0031499695547 0.0031401906738 0.0031304551777 0.0031207624918 0.0031111124341 0.0031015048231 0.0030919393101 0.0030824156886 0.0030729337682 
0.0030634933048 0.0030540941519 0.0030447356298 0.0030354182874 0.0030261416439 0.0030169055215 0.0030077096922 0.0029985539907 0.0029894380993 
0.0032636110292 0.003253339733 0.0032431137306 0.0032329330112 0.0032227972432 0.0032127061483 0.0032026593021 0.003192656987 0.0031826986548 
0.0031727843033 0.0031629133692 0.0031530860125 0.0031433013241 0.0031335598231 0.0031238610749 0.0031142048683 0.0031045910878 0.0030950193592 
0.0030854897225 0.003076001764 0.0030665551559 0.0030571494445 0.0030477851429 0.0030384616218 0.0030291786189 0.0030199362214 0.0030107339189 
0.0030015719796 0.0029924497088 0.0029833669031 0.0032564963402 0.0032462649757 0.0032360788486 0.0032259374856 0.0032158409973 0.0032057888156 
0.0031957806544 0.0031858166984 0.003175896509 0.0031660199038 0.0031561868728 0.0031463965928 0.0031366493074 0.0031269447512 0.0031172826445 
0.0031076628548 0.0030980852243 0.0030885494205 0.0030790554489 0.0030696029775 0.0030601911986 0.0030508208903 0.0030414912619 0.0030322022373 
0.0030229536347 0.0030137451017 0.0030045768094 0.0029954485003 0.002986359644 0.0029773101311 0.0032493989176 0.0032392074207 0.0032290608166 
0.0032189588853 0.0032089013278 0.0031988879596 0.0031889185404 0.0031789928772 0.0031691107406 0.0031592719206 0.0031494760634 0.0031397231708 
0.0031300130687 0.0031203453982 0.0031107198767 0.0031011363693 0.0030915947931 0.0030820947762 0.0030726359693 0.0030632188762 0.0030538426035 
0.0030445071367 0.0030352121646 0.0030259576374 0.003016743235 0.003007568813 0.0029984342777 0.0029893395187 0.0029802839815 0.0029712675678 
0.0032423186643 0.0032321669782 0.0032220598574 0.0032119972415 0.003201978601 0.0031920038055 0.0031820728962 0.0031721854177 0.003162341211 
0.0031525397419 0.0031427816593 0.0031330659426 0.003123392659 0.0031137615724 0.0031041726873 0.0030946254633 0.0030851194952 0.0030756551922 
0.0030662321352 0.0030568503533 0.0030475091262 0.0030382084476 0.0030289480029 0.0030197275818 0.0030105474173 0.0030014068876 0.0029923063088 
0.0029832448483 0.0029742224976 0.002965239084 0.0032352555915 0.0032251435922 0.0032150757999 0.0032050522138 0.0031950725829 0.0031851363283 
0.0031752437485 0.0031653940097 0.0031555876234 0.003145824044 0.0031361032745 0.0031264246414 0.0031167881424 0.0031071936421 0.0030976405991 
0.0030881294025 0.0030786597739 0.003069231168 0.0030598434283 0.0030504968723 0.0030411905284 0.003031924532 0.0030226983786 0.0030135123831 
0.0030043661182 0.0029952594567 0.0029861923447 0.0029771642231 0.002968174985 0.0029592246427 0.0032282095785 0.0032181369809 0.0032081085982 
0.0031981240009 0.0031881828513 0.0031782852587 0.0031684304965 0.0031586192033 0.0031488505178 0.0031391245852 0.0031294408146 0.0031197987719 
0.003110199 0.0031006409436 0.0030911244335 0.0030816492353 0.0030722151634 0.0030628220409 0.0030534696593 0.0030441580208 0.003034886839 
0.0030256551997 0.0030164635481 0.0030073116791 0.0029981993333 0.0029891262531 0.0029800926839 0.0029710978071 0.0029621416028 0.0029532240076 
0.0032211807063 0.0032111474118 0.0032011581642 0.003191212424 0.0031813098836 0.0031714503361 0.003161634031 0.0031518604708 0.003142129367 
0.0031324404696 0.0031227937781 0.0031131889344 0.0031036257551 0.0030941040978 0.0030846236826 0.0030751843793 0.0030657859848 0.0030564281772 
0.0030471110098 0.003037834066 0.0030285975004 0.0030194004571 0.0030102432006 0.0030011253669 0.0029920468438 0.0029830073773 0.0029740071454 
0.0029650455318 0.0029561222631 0.00294723723 0.003214168545 0.0032041746161 0.0031942243302 0.0031843173597 0.003174452985 0.0031646319526 
0.003154853417 0.0031451174247 0.0031354237868 0.0031257724195 0.0031161626476 0.003106594509 0.0030970678609 0.0030875825158 0.003078138102 
0.0030687345854 0.0030593716712 0.0030500492253 0.0030407670699 0.003031524861 0.0030223228658 0.0030131602263 0.0030040371618 0.0029949532561 
0.0029859086489 0.0029769028568 0.002967935613 0.002959006988 0.0029501164761 0.0029412641348 0.0032071728535 0.0031972181267 0.0031873066655 
0.0031774377425 0.0031676120553 0.0031578290951 0.0031480885967 0.0031383903253 0.0031287344822 0.0031191201451 0.0031095472329 0.0031000157081 
0.003090525438 0.0030810761638 0.0030716677037 0.0030622997856 0.0030529723105 0.0030436851183 0.0030344377967 0.0030252304488 0.0030160626307 
0.0030069344053 0.0029978454603 0.0029887951298 0.0029797840273 0.0029708116359 0.0029618776685 0.0029529819545 0.0029441242311 0.0029353044148 
0.0034538680084 0.0034426144843 0.0034314127429 0.0034202627487 0.0034091638213 0.0033981158711 0.0033871183722 0.0033761718114 0.0033652748862 
0.0033544274902 0.003343629964 0.0033328819048 0.0033221828099 0.003311532574 0.0033009307717 0.0032903774223 0.0032798720161 0.0032694142288 
0.0032590043663 0.0032486417446 0.003238326099 0.00322805742 0.003217835318 0.0032076593531 0.0031975295791 0.003187445801 0.0031774074253 
0.0031674144842 0.0031574664826 0.0031475633884 0.0034463353017 0.0034351247082 0.0034239656943 0.003412857761 0.0034018011781 0.0033907948251 
0.0033798391732 0.0033689331661 0.0033580769181 0.0033472703373 0.0033365130731 0.003325804938 0.0033151455956 0.0033045349134 0.0032939724442 
0.0032834577679 0.0032729911344 0.0032625718363 0.0032522000669 0.0032418752995 0.0032315974603 0.0032213660127 0.0032111811882 0.0032010421609 
0.0031909490306 0.0031809015602 0.0031708993309 0.0031609422162 0.0031510298952 0.003141162269 0.0034388172233 0.0034276493493 0.003416532951 
0.0034054671471 0.0033944521814 0.0033834878061 0.0033725731079 0.0033617082997 0.0033508928712 0.0033401265877 0.0033294095585 0.0033187413525 
0.0033081215812 0.0032975502187 0.0032870269372 0.0032765512928 0.0032661230249 0.0032557421754 0.0032454085398 0.0032351214737 0.003224881116 
0.0032146871766 0.0032045390634 0.0031944369602 0.0031843804105 0.0031743691681 0.0031644030641 0.0031544815472 0.0031446050109 0.0031347730303 
0.0034313139058 0.0034201888066 0.0034091144805 0.0033980908 0.0033871176663 0.0033761945266 0.0033653210953 0.0033544970924 0.0033437222619 
0.0033329964567 0.0033223194247 0.0033116910356 0.0033011108523 0.0032905788334 0.0032800944944 0.0032696575908 0.0032592680209 0.0032489252378 
0.0032386296378 0.0032283803573 0.0032181776271 0.0032080207389 0.003197909582 0.0031878440841 0.0031778240505 0.0031678490295 0.003157918593 
0.0031480331182 0.0031381921082 0.0031283952756 0.0034238255207 0.0034127429194 0.003401710741 0.0033907292759 0.0033797977084 0.0033689157617 
0.0033580833174 0.0033473001653 0.0033365657482 0.0033258805357 0.0033152434508 0.0033046547755 0.0032941139225 0.0032836211206 0.0032731756372 
0.0032627773791 0.0032524261421 0.0032421217931 0.0032318640455 0.0032216523264 0.003211486948 0.0032013670207 0.00319129287 0.0031812639781 
0.0031712801757 0.0031613414218 0.0031514467505 0.0031415969807 0.0031317914413 0.0031220296903 0.0034163525209 0.0034053122237 0.003394322402 
0.0033833826229 0.003372492305 0.003361651602 0.0033508601386 0.0033401176503 0.0033294237717 0.0033187785891 0.003308181635 0.0032976324117 
0.0032871310465 0.0032766771099 0.0032662704035 0.0032559108249 0.0032455979143 0.0032353315268 0.0032251115162 0.0032149376293 0.0032048093463 
0.0031947265716 0.0031846891114 0.0031746967398 0.003164749156 0.0031548460289 0.0031449876228 0.003135173239 0.0031254029029 0.0031156762962 
0.0034088948334 0.003397896981 0.0033869489197 0.0033760509222 0.0033652020038 0.0033544024515 0.0033436517528 0.0033329498706 0.0033222963078 
0.0033116910885 0.0033011340631 0.0032906244945 0.0032801621981 0.003269747414 0.0032593793979 0.0032490580813 0.0032387834122 0.0032285549628 
0.0032183726284 0.0032082362566 0.0031981452018 0.0031880993112 0.0031780984671 0.0031681425304 0.003158230963 0.0031483637844 0.0031385410294 
0.0031287623194 0.0031190272835 0.0031093356735 0.0034014529275 0.0033904971045 0.0033795912147 0.0033687345577 0.0033579269593 0.003347168399 
0.0033364585436 0.0033257970242 0.0033151836169 0.0033046183338 0.0032941007363 0.0032836308641 0.0032732079344 0.00326283166 0.0032525024836 
0.0032422195947 0.003231982889 0.0032217923084 0.0032116477208 0.0032015485717 0.0031914945267 0.003181485544 0.0031715210541 0.00316160146 
0.0031517259909 0.0031418948238 0.003132107683 0.0031223643595 0.0031126646616 0.0031030079655 0.0033940268793 0.0033831132387 0.0033722490128 
0.0033614337478 0.0033506674743 0.0033399497082 0.0033292805244 0.0033186593031 0.003308086163 0.0032975606855 0.0032870826234 0.003276651859 
0.0032662679048 0.0032559307088 0.0032456398204 0.0032353952191 0.0032251965483 0.0032150437462 0.0032049366175 0.0031948746548 0.0031848574435 
0.0031748852158 0.0031649575257 0.0031550737933 0.0031452346862 0.0031354392891 0.0031256877598 0.0031159795367 0.0031063147293 0.003096692999 
0.0033866169705 0.0033757453276 0.0033649226048 0.0033541488111 0.003343423555 0.0033327466658 0.0033221179018 0.0033115369214 0.0033010037867 
0.0032905180278 0.0032800794179 0.0032696877496 0.0032593428682 0.0032490442712 0.0032387918778 0.0032285853571 0.0032184243925 0.0032083095089 
0.0031982395755 0.0031882147368 0.0031782343678 0.0031682988142 0.0031584073828 0.0031485602732 0.0031387568595 0.0031289971339 0.003119281038 
0.0031096080048 0.0030999779994 0.0030903910023 0.0033792235328 0.0033683934888 0.0033576122937 0.0033468796528 0.0033361953685 0.0033255592728 
0.0033149708739 0.0033044300624 0.0032939367872 0.0032834906376 0.0032730914139 0.0032627386505 0.0032524327169 0.0032421725681 0.0032319584398 
0.0032217900645 0.0032116670256 0.0032015895884 0.0031915569174 0.003181569117 0.0031716257632 0.003161726491 0.0031518714219 0.0031420602897 
0.0031322928055 0.0031225686818 0.0031128876961 0.0031032498124 0.0030936546905 0.0030841023328 0.003371846258 0.0033610579482 0.0033503181495 
0.0033396266842 0.003328983272 0.0033183876878 0.0033078395985 0.0032973388114 0.0032868851591 0.0032764785524 0.0032661185348 0.0032558048275 
0.0032455373345 0.0032353159661 0.0032251400344 0.0032150096747 0.0032049246061 0.003194884287 0.0031848888484 0.0031749379665 0.003165030938 
0.0031551683544 0.0031453495504 0.0031355743971 0.0031258425081 0.0031161539202 0.0031065082617 0.0030969052868 0.0030873451658 0.0030778270742 
0.0033644856481 0.0033537389032 0.0033430402597 0.0033323898007 0.0033217871709 0.0033112319981 0.0033007241044 0.003290263298 0.0032798494136 
0.0032694821527 0.0032591612762 0.0032488864331 0.0032386575145 0.0032284744886 0.0032183367081 0.0032082439898 0.0031981965849 0.0031881936943 
0.0031782352586 0.0031683209141 0.0031584507599 0.0031486245012 0.0031388418079 0.0031291025942 0.0031194065366 0.0031097532546 0.0031001426273 
0.0030905746045 0.0030810491496 0.0030715653697 0.0033571416972 0.0033464363005 0.0033357789515 0.0033251693831 0.0033146073703 0.0033040926319 
0.0032936247834 0.003283203781 0.0032728293877 0.0032625014289 0.0032522194263 0.0032419834555 0.0032317930481 0.0032216480801 0.0032115484672 
0.0032014937559 0.0031914835794 0.0031815178871 0.0031715964349 0.0031617188993 0.0031518852515 0.0031420952031 0.0031323484927 0.0031226450283 
0.0031129845155 0.0031033665082 0.0030937911123 0.003084257829 0.0030747668937 0.0030653174944 0.00334981458 0.0033391505342 0.0033285342396 
0.0033179654722 0.0033074439304 0.0032969693515 0.003286541692 0.0032761603084 0.0032658253865 0.0032555365073 0.0032452933944 0.003235096067 
0.00322494412 0.0032148372296 0.0032047754836 0.0031947583993 0.0031847855489 0.0031748570287 0.003164972168 0.0031551316031 0.0031453342905 
0.0031355804128 0.0031258696179 0.0031162017756 0.0031065767175 0.003096993923 0.0030874535114 0.003077955049 0.003068498724 0.0030590835821 
0.0033425042837 0.0033318814152 0.0033213062306 0.0033107781039 0.0033002969652 0.0032898625697 0.0032794747166 0.0032691329345 0.0032588373147 
0.0032485874221 0.003238383151 0.0032282244239 0.0032181106865 0.003208041815 0.0031980178231 0.003188038249 0.0031781026672 0.0031682109021 
0.0031583631115 0.0031485589721 0.0031387980718 0.0031290802487 0.0031194052541 0.0031097730553 0.0031001832212 0.0030906356732 0.0030811301332 
0.0030716662669 0.0030622443199 0.0030528633065 0.003335211098 0.0033246293222 0.0033140948068 0.0033036074044 0.0032931665993 0.0032827721666 
0.0032724240226 0.0032621217395 0.0032518652872 0.0032416543429 0.0032314888078 0.0032213684216 0.0032112928824 0.0032012619423 0.0031912755931 
0.0031813333995 0.0031714346664 0.0031615801528 0.0031517690337 0.0031420013187 0.003132276684 0.0031225947485 0.0031129555923 0.0031033588278 
0.0030938042291 0.0030842915328 0.0030748208147 0.0030653914943 0.0030560034956 0.0030466566494 0.0033279349221 0.0033173941492 0.0033069003232 
0.0032964531914 0.0032860525704 0.0032756981079 0.0032653895855 0.0032551266662 0.0032449092342 0.0032347372435 0.0032246103949 0.0032145282947 
0.0032044907441 0.0031944978527 0.0031845488485 0.0031746436405 0.0031647822712 0.0031549645666 0.0031451900161 0.0031354587103 0.0031257701147 
0.0031161241315 0.0031065204381 0.0030969590637 0.003087439559 0.0030779617762 0.0030685256695 0.0030591307579 0.0030497770993 0.0030404642522 
0.0033206756145 0.0033101760076 0.0032997227316 0.0032893159044 0.0032789551669 0.0032686404802 0.0032583716071 0.0032481479468 0.0032379695786 
0.0032278362403 0.0032177478321 0.0032077038634 0.0031977043001 0.0031877490774 0.0031778371517 0.0031679693919 0.0031581451607 0.0031483641642 
0.0031386260446 0.0031289309951 0.0031192783711 0.0031096680573 0.0031001000488 0.00309057381 0.003081089324 0.003071646058 0.0030622445357 
0.003052884379 0.0030435647995 0.0030342857372 0.0033134338136 0.0033029748601 0.0032925620608 0.0032821953556 0.0032718745836 0.0032615995347 
0.0032513699184 0.00324118562 0.0032310460373 0.0032209513493 0.0032109012941 0.0032008954922 0.0031909337038 0.0031810157662 0.0031711415201 
0.0031613107156 0.003151523342 0.0031417789253 0.0031320773701 0.0031224182179 0.0031128014634 0.0031032267885 0.003093694188 0.0030842028037 
0.0030747533175 0.003065345059 0.0030559780033 0.0030466520992 0.0030373664741 0.0030281213425 0.0033062089518 0.0032957904552 0.003285418227 
0.0032750915487 0.0032648106718 0.0032545751831 0.0032443848305 0.0032342392782 0.0032241385782 0.0032140825464 0.0032040706874 0.0031941028701 
0.003184178775 0.0031742983076 0.0031644613396 0.0031546675663 0.0031449167189 0.0031352089053 0.0031255435971 0.0031159205156 0.0031063395601 
0.0030968004169 0.0030873026922 0.0030778468225 0.0030684320827 0.0030590584416 0.003049725767 0.0030404339083 0.0030311822898 0.0030219709621 
0.0032990012997 0.0032886233101 0.0032782910342 0.0032680045717 0.0032577633638 0.0032475672821 0.0032374161706 0.0032273094947 0.0032172474503 
0.0032072296624 0.0031972560958 0.003187325793 0.0031774396344 0.0031675965388 0.0031577967069 0.0031480397956 0.0031383256011 0.0031286541749 
0.0031190249441 0.0031094377254 0.0030998921219 0.0030903885731 0.0030809263328 0.0030715053825 0.0030621253369 0.0030527861837 0.0030434878437 
0.003034229838 0.0030250119573 0.0030158342906 0.0032918107629 0.003281473041 0.003271180917 0.0032609343681 0.0032507327235 0.0032405759515 
0.0032304638324 0.0032203959441 0.0032103724712 0.0032003929734 0.0031904569629 0.0031805650007 0.003170716222 0.0031609104517 0.0031511475715 
0.0031414273306 0.0031317496945 0.0031221144003 0.0031125209947 0.0031029695657 0.0030934598875 0.0030839915886 0.0030745644398 0.0030651782372 
0.0030558331164 0.0030465282532 0.0030372642463 0.0030280402547 0.0030188561069 0.0030097119629 0.0032846371826 0.0032743397863 0.0032640876975 
0.0032538806602 0.0032437187081 0.003233601083 0.0032235277674 0.0032134986697 0.0032035135466 0.0031935718795 0.0031836741058 0.0031738198266 
0.003164008295 0.0031542396937 0.0031445138523 0.0031348303647 0.0031251887712 0.003115589651 0.003106032527 0.0030965168245 0.0030870425853 
0.0030776094918 0.0030682172911 0.0030588659328 0.0030495550562 0.0030402847301 0.0030310549034 0.0030218647774 0.0030127143042 0.0030036034598 
0.0032774806503 0.0032672233499 0.0032570111403 0.0032468437579 0.0032367209468 0.0032266426377 0.0032166080988 0.0032066172961 0.0031966704771 
0.0031867671804 0.0031769071959 0.0031670903703 0.0031573161893 0.003147584617 0.0031378952316 0.0031282483591 0.003118643414 0.0031090803138 
0.0030995590227 0.0030900788784 0.0030806400438 0.0030712421494 0.003061884818 0.0030525680085 0.0030432917053 0.003034055596 0.0030248596688 
0.0030157033005 0.0030065864283 0.0029975089735 0.0032703411283 0.0032601238228 0.0032499513465 0.0032398235074 0.0032297398721 0.0032197005225 
0.0032097043557 0.0031997523192 0.0031898436863 0.0031799783223 0.0031701562237 0.0031603765674 0.0031506393327 0.0031409446929 0.0031312922886 
0.0031216817575 0.0031121131218 0.003102586117 0.0030931004068 0.0030836559268 0.0030742522346 0.0030648893024 0.0030555667228 0.0030462845915 
0.0030370426316 0.0030278407631 0.0030186786069 0.0030095559133 0.0030004725077 0.0029914281911 0.0032632183801 0.0032530410706 0.0032429082308 
0.0032328197652 0.0032227752368 0.0032127740887 0.0032028171959 0.0031929034609 0.003183032848 0.003173204976 0.003163420534 0.0031536782006 
0.0031439782627 0.003134320486 0.0031247045931 0.0031151304702 0.003105597864 0.0030961065897 0.0030866565898 0.003077247629 0.0030678790367 
0.0030585508948 0.0030492631887 0.0030400155314 0.0030308077829 0.003021639939 0.0030125115013 0.0030034224606 0.0029943723146 0.0029853611853 
0.0032561125835 0.0032459750074 0.0032358816867 0.0032258324779 0.0032158266678 0.003205864481 0.0031959459144 0.0031860703162 0.0031762376072 
0.0031664477618 0.0031567006104 0.0031469955235 0.0031373325626 0.0031277115346 0.003118132153 0.0031085942254 0.0030990976096 0.0030896419999 
0.0030802275014 0.0030708535211 0.0030615202119 0.0030522271237 0.0030429740141 0.0030337607449 0.0030245871727 0.0030154532225 0.0030063584018 
0.002997302836 0.002988285944 0.002979307967 0.00324902324 0.0032389253213 0.0032288714139 0.0032188609953 0.0032088941732 0.0031989706764 
0.0031890904025 0.00317925338 0.0031694585161 0.0031597062614 0.0031499963882 0.0031403284413 0.0031307023346 0.0031211178739 0.0031115747588 
0.0031020729334 0.0030926121842 0.0030831924054 0.0030738130655 0.003064474346 0.0030551758893 0.0030459173548 0.0030366988923 0.0030275200015 
0.0030183804073 0.0030092801615 0.0030002190982 0.002991196716 0.0029822131135 0.0029732678767 0.0032419505983 0.0032318916102 0.0032218769728 
0.003211905847 0.0032019779528 0.0031920930097 0.0031822510321 0.0031724515896 0.0031626946884 0.0031529800764 0.003143307248 0.0031336762799 
0.003124086911 0.0031145389565 0.0031050321821 0.0030955664055 0.003086141391 0.0030767570013 0.0030674131085 0.0030581093172 0.0030488457403 
0.0030396218527 0.0030304376674 0.0030212928786 0.003012187676 0.0030031212966 0.0029940935687 0.0029851043914 0.0029761538734 0.0029672416926 
0.00349073549 0.0034793677624 0.0034680522057 0.003456788664 0.003445576977 0.0034344164813 0.0034233072341 0.0034122488643 0.0034012407992 
0.0033902831439 0.0033793753696 0.0033685176342 0.0033577094334 0.0033469505298 0.0033362404878 0.003325579336 0.0033149665842 0.0033044023348 
0.0032938857626 0.0032834170967 0.0032729960146 0.0032626222043 0.0032522954655 0.0032420154364 0.0032317821495 0.0032215949147 0.0032114537218 
0.0032013582446 0.003191308253 0.0031813040778 0.0034831315642 0.0034718071269 0.0034605344832 0.0034493136878 0.0034381441421 0.0034270259066 
0.0034159582769 0.0034049415121 0.003393974646 0.003383057642 0.0033721906166 0.0033613732844 0.0033506050558 0.0033398860727 0.0033292156372 
0.0033185938056 0.003308020202 0.0032974946156 0.003287016613 0.003276586121 0.0032662030388 0.0032558669223 0.0032455775356 0.00323533493 
0.0032251385363 0.0032149880147 0.0032048833037 0.003194823995 0.003184810033 0.003174841597 0.003475541986 0.003464260632 0.0034530307875 