# vtk DataFile Version 5.1
vtk output
ASCII
DATASET STRUCTURED_POINTS
DIMENSIONS 50 50 50
SPACING 0.002 0.002 0.002
ORIGIN 0.0482 -0.052672 0.02732
POINT_DATA 125000
FIELD FieldData 1
potential 1 125000 double
0.0086213382923 0.0086492135135 0.0086762361775 0.0087023655011 0.0087275583808 0.0087517450569 0.0087748728782 0.0087969108924 0.0088177938804 
0.0088374885299 0.0088559658477 0.0088732291489 0.0088892781805 0.0089041166478 0.0089177746363 0.0089302286623 0.0089416211988 0.0089518994014 
0.0089611181279 0.0089693027031 0.0089764802028 0.0089826617485 0.0089878588419 0.0089921004275 0.0089953638414 0.0089976709266 0.0089990061429 
0.0089993934287 0.0089988372588 0.0089973475495 0.0089949276656 0.0089915826 0.0089872915296 0.0089821200198 0.0089759714639 0.0089688012551 
0.0089605790115 0.0089512287287 0.0089406893718 0.0089290390053 0.0089159562992 0.0089015385996 0.0088857350674 0.0088685617093 0.008850024094 
0.0088300950132 0.0088089132238 0.008786456139 0.0087628059572 0.0087379729883 0.0088185476874 0.0088474676596 0.0088754831157 0.0089025512759 
0.0089286431743 0.0089536974457 0.0089776503674 0.009000447505 0.0090220617001 0.0090424431348 0.0090615769043 0.0090793921098 0.0090960027485 
0.0091113665107 0.0091255241657 0.0091384860389 0.0091502858555 0.0091609653063 0.0091705543079 0.0091790816145 0.0091865590225 0.0091930154812 
0.0091984487487 0.0092028654582 0.0092062900967 0.0092086953754 0.0092100852212 0.0092104382816 0.0092098493937 0.0092082796343 0.0092057418963 
0.0092022329687 0.0091977591605 0.0091923086073 0.0091858638255 0.0091783607924 0.0091698040686 0.0091600353619 0.0091490454111 0.0091367672465 
0.0091231529863 0.0091081001461 0.0090916922578 0.0090738628687 0.0090547654234 0.0090341423403 0.0090121715157 0.0089889296541 0.0089644386525 
0.0089387608508 0.0090169176492 0.0090468930648 0.0090759345706 0.009103982508 0.0091309837399 0.0091568985513 0.0091816814968 0.0092052290442 
0.009227577315 0.0092486550152 0.0092684489343 0.0092869389118 0.0093041330389 0.0093200590467 0.0093347183069 0.0093481603772 0.0093604172711 
0.0093715094451 0.0093814993774 0.0093903769507 0.0093981788964 0.0094049120776 0.0094105951464 0.0094151971333 0.0094187501466 0.0094212560238 
0.0094227079717 0.0094231049411 0.0094224672948 0.0094208041663 0.0094180885288 0.0094143988137 0.0094096954974 0.0094039642499 0.0093971855503 
0.0093893077062 0.0093802867183 0.0093700496393 0.0093585523416 0.0093457136472 0.0093314979881 0.0093158627822 0.009298788198 0.0092802665646 
0.0092603001279 0.0092389223498 0.0092161671342 0.0091922245739 0.0091668876452 0.0091403338884 0.0092158125731 0.0092468523886 0.0092769277364 
0.0093059579369 0.0093338848847 0.0093606964176 0.0093863121419 0.009410700915 0.009433804525 0.0094555912873 0.0094760451684 0.0094951727701 
0.0095129680251 0.0095294563361 0.0095446684749 0.0095586051513 0.0095713389945 0.0095828840031 0.0095932753602 0.0096025160818 0.0096106424565 
0.0096176718341 0.009623590482 0.0096284078478 0.0096321233118 0.0096347288282 0.009636223377 0.0096366152456 0.0096359285171 0.0096341461109 
0.00963131149 0.0096274025446 0.0096224240898 0.009616359076 0.0096091745848 0.0096008693599 0.0095913953851 0.0095806520655 0.0095686012499 
0.0095551740108 0.00954035552 0.0095240615813 0.0095062589994 0.00948698163 0.009466247013 0.0094440799955 0.0094205180691 0.0093956109615 
0.0093694121001 0.0093419612832 0.0094147291433 0.0094468384191 0.0094779806212 0.0095080075473 0.0095369252796 0.0095646578901 0.0095911426391 
0.0096163324845 0.009640204996 0.0096627181146 0.0096838761476 0.0097036456562 0.0097220438899 0.0097391120734 0.0097548509496 0.0097693340672 
0.009782569084 0.0097945672988 0.0098053849802 0.0098150312667 0.0098235167369 0.0098308528132 0.0098370302836 0.0098420604398 0.0098459187674 
0.0098486069357 0.0098501534552 0.0098505327238 0.0098497799661 0.0098478718065 0.0098448528933 0.0098407125244 0.0098354244079 0.0098290257322 
0.0098214557024 0.0098126881307 0.0098026986642 0.0097914066124 0.009778755717 0.0097646918518 0.0097491823176 0.009732170235 0.009713666046 
0.0096936316038 0.009672099242 0.0096491097333 0.0096247030821 0.009598937818 0.0095718300968 0.0095434630228 0.0096134478891 0.0096467313355 
0.0096789310521 0.0097099922445 0.0097398717902 0.0097685350118 0.0097959036266 0.0098219385712 0.0098465965273 0.0098698748034 0.0098917166157 
0.0099121406093 0.0099311690666 0.0099488188837 0.0099651319615 0.0099801377453 0.0099938626725 0.010006347274 0.010017620305 0.010027669545 
0.010036523753 0.010044183406 0.010050604699 0.010055851856 0.010059868547 0.010062660124 0.010064242044 0.01006460009 0.010063734246 
0.010061655658 0.010058430027 0.010054029 0.01004845584 0.010041680572 0.010033726575 0.010024492728 0.010013942409 0.010002084405 
0.0099887857942 0.0099740644387 0.0099578386568 0.0099400881786 0.009920798853 0.0098999731526 0.0098776368349 0.0098537945725 0.0098285118851 
0.0098018268332 0.0097737807227 0.0097444647178 0.0098121081786 0.0098465269409 0.0098798245554 0.0099119352771 0.0099428238777 0.0099724485283 
0.010000691528 0.010027587728 0.010053060822 0.010077085006 0.010099630224 0.01012073025 0.010140405012 0.01015868257 0.010175573483 
0.010191102928 0.010205350299 0.010218311915 0.010230020621 0.010240493971 0.010249744245 0.010257714846 0.010264430863 0.010269879815 
0.010274049198 0.010276930102 0.010278535208 0.010278852197 0.010277900448 0.010275695163 0.010272240659 0.01026754244 0.010261614422 
0.010254453517 0.010246036455 0.010236305844 0.010225230044 0.010212743123 0.010198824755 0.01018342095 0.010166450854 0.010147960654 
0.010127856696 0.010106185633 0.010082964649 0.010058223228 0.010032060487 0.010004443107 0.0099754721772 0.0099451934951 0.01001103519 
0.010046628439 0.010081072575 0.010114256018 0.010146164741 0.01017673751 0.010205921055 0.010233666134 0.010259952183 0.010284756596 
0.010308051484 0.010329831537 0.010350172812 0.010369075615 0.010386558161 0.010402674208 0.010417461643 0.010430929611 0.010443101955 
0.010453991812 0.010463590648 0.010471887612 0.01047886568 0.010484519301 0.010488844998 0.010491829617 0.010493446481 0.010493729666 
0.010492664599 0.010490285056 0.010486595851 0.01048162565 0.010475351106 0.010467784174 0.010458893187 0.010448636664 0.010437001602 
0.01042392043 0.010409320534 0.010393173289 0.010375460248 0.010356240139 0.010335293758 0.010312763104 0.010288676634 0.010263050938 
0.010235925017 0.010207398141 0.010177461491 0.010146179381 0.010210926785 0.01024770838 0.010283284772 0.01031758161 0.010350537105 
0.010382095873 0.010412237312 0.010440858074 0.010468001259 0.010493588002 0.010517645847 0.010540182957 0.010561206852 0.010580755483 
0.010598872032 0.010615570579 0.010630887683 0.010644854113 0.010657494886 0.010668813626 0.010678791955 0.010687405636 0.010694664372 
0.010700551083 0.010705016114 0.010708036884 0.010709660635 0.010709874467 0.010708708526 0.010706250371 0.010702324701 0.010697039217 
0.010690402526 0.010682428841 0.010673052889 0.010662273099 0.010650042182 0.010636318128 0.010621040224 0.010604172406 0.010585670107 
0.01056554491 0.01054376036 0.010520328057 0.010495314601 0.010468738359 0.010440648233 0.010411126914 0.010380213417 0.010347916658 
0.010412730395 0.010450744801 0.010487477708 0.010522891975 0.010556913571 0.010589514958 0.01062060548 0.010650170622 0.010678176643 
0.010704611591 0.010729463659 0.010752748456 0.010774488139 0.010794722724 0.01081345321 0.010830746256 0.010846617721 0.010861116645 
0.010874226546 0.010885958981 0.010896297327 0.010905350676 0.010912860465 0.010918938184 0.0109235445 0.010926663549 0.010928300985 
0.010928454389 0.010927155666 0.010924399472 0.010920188479 0.010914592693 0.010907576161 0.010899146772 0.010889291451 0.010877943292 
0.010865119357 0.010850737373 0.010834786062 0.010817178432 0.010797895895 0.010776936478 0.010754287753 0.010729973596 0.010704026193 
0.010676472517 0.010647397176 0.010616845909 0.01058485816 0.010551511902 0.01061765362 0.010656899342 0.01069481311 0.010731383711 
0.010766496873 0.010800148695 0.010832243817 0.010862769009 0.010891693369 0.010918982792 0.010944672979 0.010968736863 0.010991221782 
0.011012130486 0.011031625696 0.011049528704 0.011065989533 0.011080994542 0.011094584808 0.011106772326 0.01111748234 0.011126736411 
0.011134509335 0.011140766316 0.011145504978 0.011148676243 0.011150327476 0.011150402056 0.011148967371 0.011146033074 0.011141577286 
0.011135631553 0.011128223715 0.011119311553 0.011108944147 0.011097060589 0.011083617312 0.011068545361 0.01105186108 0.011033509041 
0.011013439972 0.010991633413 0.010968088587 0.010942837066 0.010915938119 0.010887417366 0.010857328548 0.010825730845 0.010792685251 
0.0107582185 0.01082691793 0.010867443386 0.010906602965 0.010944351477 0.010980612176 0.011015333902 0.011048477778 0.011079999835 
0.011109850279 0.011138151738 0.01116471346 0.01118959462 0.011212833845 0.011234487563 0.011254573797 0.011273116702 0.011290162455 
0.011305732993 0.011319799697 0.011332395342 0.011343499973 0.011353069026 0.01136109095 0.011367538852 0.011372387162 0.011375631353 
0.011377254528 0.011377289915 0.011375710661 0.011372547835 0.011367807921 0.011361520464 0.011353707065 0.011344367858 0.011333466977 
0.011321008469 0.011306901357 0.011291181113 0.011273785428 0.011254618296 0.011233731044 0.011211047935 0.011186612307 0.011160421588 
0.011132525132 0.011102974147 0.011071843286 0.011039153164 0.011004998179 0.010969405837 0.011041932438 0.01108377624 0.01112421481 
0.011163174811 0.011200674318 0.0112365228 0.011270739898 0.011303310242 0.011334160674 0.011363322008 0.011390634318 0.011416436505 
0.011440488511 0.01146291064 0.011483701778 0.011502981705 0.011520641481 0.011536728922 0.011551289392 0.011564326704 0.011575804819 
0.011585817824 0.011594093239 0.011600717546 0.011605686408 0.011608997806 0.011610613287 0.011610536704 0.011608788742 0.011605397806 
0.011600387147 0.011593756128 0.011585513296 0.011575694947 0.011564269943 0.011551223274 0.011536513891 0.011520084983 0.011501926786 
0.011481946375 0.011460185047 0.011436621796 0.011411268898 0.011384136185 0.011355264195 0.011324686099 0.011292476833 0.011258681797 
0.011223360667 0.011186546161 0.011264286047 0.011307400084 0.011349144383 0.011389356341 0.011427998908 0.011465012612 0.011500343369 
0.01153395027 0.011565853986 0.011596006325 0.011624412976 0.011651050165 0.011675977955 0.011699195674 0.011720794682 0.011740689706 
0.011758971284 0.011775666988 0.011790797234 0.01180429269 0.011816134726 0.011826340047 0.011834864621 0.011841666417 0.01184679022 
0.011850126122 0.011851704167 0.011851531549 0.011849616571 0.011845993952 0.011840799211 0.011833811155 0.011825180647 0.011814859417 
0.011802888873 0.011789224995 0.011773841853 0.01175669855 0.011737751949 0.011716992633 0.011694393906 0.01166986979 0.011643565075 
0.011615457868 0.011585569028 0.011553942867 0.011520637848 0.011485693737 0.011449191079 0.011411156217 0.011494807446 0.011539456372 
0.01158256301 0.011624269732 0.011664164555 0.011702391397 0.011738894364 0.011773640685 0.011806624764 0.011837819685 0.011867212865 
0.011894828003 0.011920692185 0.011944783136 0.011967122637 0.011987769866 0.012006721806 0.012023987054 0.012039615691 0.012053501987 
0.012065748098 0.012076262516 0.012085121943 0.0120921115 0.012097299678 0.012100671863 0.012102221774 0.012101940724 0.012099878997 
0.012096029568 0.012090425889 0.012083077445 0.01207400194 0.012063192779 0.012050669964 0.012036468438 0.01202038044 0.012002491191 
0.011982770929 0.011961169216 0.011937674571 0.011912283284 0.011885012275 0.011855829636 0.011824894483 0.01179218344 0.011757738992 
0.01172162597 0.011683857525 0.011644533326 0.011735409053 0.01178151284 0.011826070986 0.011868977586 0.011910202686 0.01194970836 
0.011987453942 0.012023575397 0.012057694891 0.012089990151 0.012120418922 0.012149066519 0.012175844412 0.012200836789 0.012224017975 
0.01224541965 0.012265076505 0.012282971433 0.012299123246 0.012313529125 0.012326138166 0.01233697 0.012345981822 0.012353129337 
0.012358450338 0.012361846272 0.012363416165 0.012363059749 0.012360797086 0.012356713053 0.012350809579 0.012343101444 0.012333579566 
0.01232224467 0.012309100098 0.012294167104 0.012277377628 0.012258735325 0.012238186056 0.012215815402 0.012191406303 0.012165061147 
0.012136793498 0.012106627364 0.012074569656 0.012040709651 0.012005088065 0.011967745789 0.011928710722 0.011888026093 0.011986910044 
0.012034576967 0.01208062207 0.012125012576 0.012167651345 0.01220850144 0.012247514265 0.012284701473 0.012320022098 0.012353452226 
0.012385230285 0.012414888636 0.012442674044 0.012468587521 0.012492625933 0.012514838809 0.012535215153 0.012553743989 0.012570500961 
0.012585385906 0.012598453219 0.012609614722 0.012618880928 0.012626157879 0.012631503173 0.012634963526 0.012636462686 0.012636035774 
0.012633642876 0.012629350349 0.012623138909 0.012615045731 0.012605067984 0.012593192143 0.012579453721 0.012563847118 0.012546344622 
0.01252690288 0.012505502618 0.0124821311 0.012456780714 0.012429466911 0.012400172246 0.012369005423 0.012335856409 0.012300802046 
0.012263976052 0.012225307738 0.01218492672 0.012142817123 0.012250415531 0.012299747273 0.012347380582 0.012393274309 0.012437362764 
0.01247962874 0.012520012051 0.012558515414 0.012595152654 0.012629795406 0.012662495381 0.012693262344 0.012722110893 0.012749179431 
0.012774149874 0.012797215266 0.012818338099 0.012837566762 0.012854862948 0.012870241012 0.012883686667 0.012895177722 0.012904698065 
0.01291226706 0.012917772082 0.012921244936 0.012922699922 0.012922131415 0.012919573136 0.012915045105 0.012908511222 0.01290002081 
0.012889590617 0.012877184698 0.01286283964 0.012846525724 0.012828236775 0.012807951992 0.0127857095 0.012761398772 0.012735084604 
0.012706726723 0.012676358528 0.012644009588 0.012609700661 0.012573469713 0.01253539881 0.012495387763 0.012453606221 0.012409987647 
0.012526782148 0.012577861728 0.01262717027 0.012674669283 0.012720323234 0.012764079286 0.012805909505 0.012845836398 0.012883763532 
0.012919697572 0.012953625258 0.012985555246 0.013015482033 0.013043418351 0.013069342934 0.013093272699 0.01311534476 0.013135316151 
0.013153241897 0.013169134946 0.013183007631 0.013194851574 0.013204656983 0.013212377966 0.013218011467 0.013221559039 0.01322304373 
0.013222359798 0.013219637779 0.013214827504 0.01320794858 0.01319906582 0.013188140932 0.013175189844 0.01316020824 0.013143193675 
0.013124109284 0.013102972132 0.013079779576 0.013054520809 0.013027169996 0.012997715039 0.012966245555 0.012932753455 0.012897232655 
0.012859722127 0.012820276587 0.012778904304 0.012735609364 0.012690546233 0.012816845739 0.01286975969 0.012920837936 0.012970050593 
0.013017367077 0.013062705802 0.013106125411 0.013147475226 0.013186807494 0.013224072866 0.013259292138 0.013292456905 0.013323533937 
0.013352494707 0.013379425792 0.013404264401 0.013427065615 0.01344775477 0.013466322158 0.013482921732 0.013497314549 0.01350954645 
0.013519638429 0.013527548117 0.013533313186 0.013536917298 0.01353831438 0.013537582008 0.013534654845 0.013529691311 0.013522528964 
0.013513187349 0.013501786061 0.013488252632 0.013472588302 0.013454800491 0.013434901747 0.013412901715 0.01338872593 0.013362441503 
0.013334052623 0.013303523199 0.013270893471 0.013236167471 0.013199373144 0.013160547682 0.013119702418 0.013076856508 0.013032040321 
0.012985247769 0.013121409517 0.013176259352 0.013229209546 0.013280240947 0.013329338572 0.013376359419 0.0134213366 0.01346426243 
0.01350506882 0.013543770259 0.013580367751 0.013614758409 0.013647066113 0.013677191397 0.013705151144 0.01373099147 0.013754611439 
0.013776054721 0.013795299845 0.013812371847 0.013827216812 0.013839970808 0.013850370472 0.013858526851 0.013864511446 0.013868168037 
0.013869594726 0.013868755808 0.013865718923 0.013860393972 0.013852901368 0.013843138296 0.013831215792 0.01381704441 0.013800700898 
0.01378207858 0.013761337554 0.013738408977 0.013713278637 0.01368598711 0.013656462252 0.013624818702 0.013590987306 0.013555003545 
0.013516887949 0.013476660982 0.013434334313 0.013389890406 0.013343454128 0.013294969106 0.013441199539 0.013498096049 0.013553037691 
0.013606027681 0.013656923405 0.013705750327 0.013752435335 0.01379700829 0.013839376862 0.013879575124 0.013917573743 0.01395334507 
0.013986879629 0.014018156846 0.014047258982 0.014074047952 0.014098496292 0.014120748275 0.014140716511 0.014158390725 0.01417383342 
0.014186870012 0.014197637793 0.014206172078 0.014212285931 0.014216025214 0.014217443546 0.014216524867 0.014213312142 0.014207756456 
0.014199897238 0.014189688434 0.014177133387 0.014162356161 0.014145308107 0.014125971545 0.014104404076 0.014080480131 0.01405434764 
0.014025942715 0.013995318649 0.013962439514 0.013927364155 0.013890021033 0.013850519666 0.01380881368 0.013764944196 0.013718922019 
0.013670742904 0.013620431429 0.013776965928 0.01383602919 0.013893145063 0.013948101375 0.014000968608 0.014051646037 0.014100122023 
0.014146403427 0.014190386081 0.014232167031 0.014271646974 0.014308817983 0.014343671239 0.014376252312 0.014406425363 0.014434225872 
0.014459689492 0.014482885438 0.014503576205 0.014521872963 0.014537801236 0.014551296054 0.014562369103 0.014571045193 0.014577310162 
0.014581251483 0.014582699171 0.014581693253 0.014578276091 0.014572503912 0.014564223124 0.014553607892 0.014540553475 0.014525178119 
0.014507311438 0.014487166542 0.014464662847 0.014439832916 0.014412663134 0.014383176856 0.014351325808 0.014317213702 0.014280811163 
0.014242098886 0.014201137333 0.014157902358 0.014112404822 0.014064643787 0.014014659563 0.013962435355 0.014129372548 0.014190814554 
0.014250084521 0.014307120822 0.014362014962 0.0144146997 0.014465106665 0.014513219028 0.014558993714 0.014602443675 0.014643507634 
0.014682143281 0.014718409017 0.01475221863 0.014783652919 0.014812575312 0.014839021987 0.0148629742 0.014884446602 0.014903438574 
0.014919916976 0.014933906453 0.014945369947 0.014954314008 0.014960760858 0.014964732238 0.014966153276 0.014965160344 0.014961516034 
0.014955413367 0.014946839666 0.014935652831 0.014922078335 0.014906062542 0.014887541945 0.014866520802 0.014843102083 0.014817224972 
0.014788974036 0.014758348907 0.014725322817 0.014689921832 0.014652150498 0.014612017053 0.014569519879 0.014524651157 0.01447740483 
0.014427842323 0.014375948179 0.014321723677 0.01449961584 0.014563415965 0.014625026301 0.014684384196 0.014741478534 0.014796266392 
0.014848688398 0.014898701384 0.014946340172 0.014991520466 0.015034225953 0.015074544044 0.015112226946 0.015147379568 0.015179975257 
0.01521002926 0.015237485676 0.015262360921 0.015284631213 0.015304299434 0.015321373989 0.015335865449 0.015347739682 0.015357016515 
0.015363646293 0.015367678623 0.015369065882 0.015367929555 0.01536414016 0.015357751697 0.01534876473 0.015337176719 0.015323003806 
0.015306268152 0.015286879709 0.015265047039 0.015240725601 0.015213814444 0.015184208278 0.015152335269 0.015118075877 0.015081339484 
0.015042148078 0.015000506212 0.014956417952 0.014909866314 0.014860855421 0.014809370194 0.014755449082 0.014699095387 0.014887699209 
0.014954066771 0.015018162151 0.015079900349 0.015139319835 0.015196326663 0.015250884243 0.015302953837 0.01535252907 0.015399616684 
0.01544409464 0.015485939789 0.015525146107 0.015561716391 0.015595623501 0.015626830277 0.015655357698 0.015681181142 0.015704309658 
0.015724712969 0.015742421176 0.015757435519 0.01576973031 0.015779291445 0.015786093404 0.015790275243 0.015791728609 0.015790384258 
0.015786408158 0.015779731273 0.015770344042 0.015758347777 0.01574353878 0.015726046775 0.015705988459 0.015683243411 0.015657890608 
0.015629967086 0.015599441512 0.01556646361 0.015530825878 0.01549270309 0.015452034298 0.015408888344 0.01536308933 0.015314750068 
0.015263844815 0.015210154984 0.015154158091 0.015095543162 0.015294876856 0.015363934147 0.015430661798 0.015494982313 0.015556816846 
0.015616171376 0.015672992202 0.015727276328 0.015778899782 0.015827904299 0.015874157198 0.015917720766 0.015958537848 0.015996599559 
0.016031839961 0.016064294437 0.01609393046 0.016120750597 0.0161447561 0.016165937605 0.01618430791 0.016199828146 0.016212500513 
0.016222449073 0.016229525212 0.016233711857 0.016235162271 0.016233809382 0.016229636373 0.016222613427 0.016212786106 0.016200209472 
0.016184903209 0.016166749823 0.016145847856 0.016122318707 0.016095956191 0.0160669445 0.016035261947 0.016000897014 0.015963951336 
0.015924426971 0.015882213656 0.015837382855 0.015789834378 0.01573964593 0.015686765741 0.0156311989 0.015572938284 0.015511976798 
0.01572201889 0.015794002364 0.015863501467 0.015930492609 0.015994916168 0.016056802278 0.016115984925 0.016172509997 0.01622632297 
0.016277308874 0.01632550875 0.01637087671 0.016413387205 0.016452982079 0.016489653901 0.016523402007 0.016554191133 0.016582047612 
0.016607015859 0.016628972914 0.016647988946 0.016664069439 0.016677205485 0.016687326846 0.01669467976 0.01669905164 0.016700466312 
0.016699037336 0.016694623278 0.016687420603 0.016677216485 0.016664125355 0.016648113534 0.016629253024 0.016607565973 0.016583013887 
0.016555661455 0.016525505066 0.016492621365 0.016457017587 0.016418638589 0.016377547326 0.016333778656 0.016287261606 0.016237950496 
0.016185833972 0.016130883892 0.016073065744 0.016012475478 0.015949050925 0.016170146946 0.016245148696 0.016317574075 0.016387416846 
0.016454648311 0.016519109208 0.016580811194 0.016639744292 0.016695803757 0.016748950881 0.01679918949 0.016846462056 0.016890717136 
0.016931921057 0.016970094197 0.017005199907 0.017037229195 0.017066198375 0.017092031612 0.017114771627 0.017134519107 0.017151184009 
0.017164698296 0.017175374154 0.017182919985 0.017187444748 0.017188886618 0.017187336533 0.01718277043 0.017175187802 0.017164577801 
0.017150925933 0.017134286485 0.017114644743 0.017092078321 0.017066615724 0.017038200641 0.017006923233 0.016972790489 0.016935838794 
0.016896062019 0.016853401418 0.016807954319 0.016759598207 0.016708346214 0.016654275423 0.016597224689 0.016537132671 0.016474056503 
0.016407963981 0.016640309718 0.016718486446 0.016794060498 0.016866873893 0.016936948984 0.017004188036 0.017068585381 0.017130013918 
0.017188457235 0.017243916148 0.017296303857 0.017345551035 0.017391639318 0.017434565317 0.017474281767 0.017510805434 0.017544135193 
0.017574229641 0.01760103981 0.017624745861 0.017645082168 0.017662341301 0.01767639378 0.017687345177 0.017695112879 0.017699762856 
0.017701281236 0.017699654125 0.01769487608 0.017686974471 0.017675925113 0.017661748292 0.017644457595 0.017624083902 0.017600655794 
0.017574178705 0.017544712259 0.01751228806 0.017476986729 0.01743862532 0.017397368513 0.017353169033 0.017305970728 0.017255804086 
0.01720259847 0.017146274131 0.017086882914 0.017024454714 0.016958662938 0.016889873634 0.017133571727 0.017215160083 0.017293953677 
0.017369901132 0.017443000717 0.017513164307 0.017580390897 0.017644477738 0.017705468498 0.017763275326 0.017817897448 0.017869244491 
0.017917261801 0.017961974548 0.018003451261 0.01804147267 0.018076081897 0.018107382387 0.018135229827 0.018159605677 0.018180751962 
0.018198627918 0.018213190875 0.01822450404 0.0182325513 0.01823734866 0.018238901206 0.018237179122 0.018232219556 0.01822398137 
0.018212482358 0.018197779485 0.018179829863 0.018158684816 0.018134455136 0.018107011438 0.018076466872 0.018042851034 0.01800616126 
0.017966410504 0.017923632723 0.017877792966 0.017828857069 0.017776732323 0.017721474948 0.01766295881 0.017601033132 0.017535883629 
0.017467567566 0.017395810206 0.01765095876 0.017736051376 0.0178183036 0.017897638382 0.017973933011 0.018047234594 0.018117347197 
0.018184280945 0.018247955515 0.018308311365 0.018365325042 0.018418869565 0.018468989975 0.018515594226 0.018558697366 0.018598254073 
0.018634174635 0.018666506135 0.018695382977 0.018720788274 0.018742722006 0.018761299696 0.018776383955 0.018788081595 0.018796394352 
0.018801347938 0.01880292658 0.018801123676 0.018795952506 0.018787379562 0.018775536343 0.01876026784 0.0187416647 0.018719754972 
0.01869457358 0.018666134534 0.018634507136 0.018599666922 0.018561656302 0.018520489533 0.018476130067 0.018428597899 0.018377824493 
0.018323753885 0.018266004875 0.018205106614 0.018140757933 0.018072902945 0.018001567942 0.017926746461 0.018193502738 0.018282421554 
0.018368343809 0.018451191308 0.018530920404 0.018607459799 0.018680719822 0.018750680616 0.018817194247 0.018880213147 0.018939635185 
0.018995484871 0.019047765534 0.019096313705 0.019141148408 0.019182272574 0.019219529918 0.019253228336 0.019283232881 0.019309552935 
0.019332290649 0.019351448975 0.019367042952 0.019379134831 0.019387697586 0.019392934445 0.019394566919 0.019392694464 0.019387354288 
0.019378485845 0.019366128461 0.019350311692 0.019331032483 0.019308348559 0.019282293585 0.019252860288 0.0192201128 0.019184045153 
0.019144692295 0.019101913081 0.019055971182 0.019006626524 0.01895381946 0.018897635289 0.01883790161 0.018774522764 0.018707517272 
0.018636805671 0.01856240075 0.018484315305 0.018762296693 0.018855219283 0.018945013792 0.019031731874 0.019115053822 0.019195069196 
0.019271645472 0.019344640376 0.019414097589 0.019479901402 0.019541956344 0.019600313735 0.019654773279 0.019705347699 0.019751934995 
0.019794675771 0.019833558434 0.019868552463 0.019899664094 0.019927017415 0.019950570822 0.019970395897 0.019986550944 0.019999035954 
0.020007907462 0.020013238408 0.020014883162 0.020012927064 0.020007485221 0.019998279235 0.019985507325 0.019969114338 0.019949181184 
0.019925721062 0.019898759337 0.019868228507 0.019834347827 0.01979703605 0.019756288632 0.019712109145 0.01966441344 0.019613278098 
0.019558509622 0.019500118694 0.019437977236 0.019372038916 0.019302185874 0.019228446744 0.019150799667 0.019069265016 0.019358495331 
0.019455637941 0.019549464216 0.019640055493 0.019727236238 0.01981085536 0.019890899039 0.019967301955 0.020039878674 0.02010855143 
0.02017338638 0.020234249828 0.020291076226 0.020343647343 0.02039225339 0.020436771461 0.020477169415 0.020513516376 0.020545830666 
0.020574176168 0.020598585841 0.020619148152 0.020635858978 0.020648831091 0.020658005744 0.020663447422 0.020665139288 0.020663105789 
0.020657328682 0.020647813971 0.020634709316 0.020617794938 0.0205971106 0.020572849501 0.020544972498 0.020513518183 0.020478491372 
0.020439899745 0.020397750288 0.020351948453 0.0203025878 0.020249530213 0.020192680007 0.020131920664 0.020067245812 0.019998543051 
0.019925740421 0.0198487656 0.019767680148 0.019682488942 0.019982594974 0.020084199028 0.02018245313 0.020277210272 0.020368389866 
0.020455921449 0.020539600181 0.020619464515 0.020695340373 0.020767184324 0.020834868905 0.020898285886 0.020957365754 0.021012289441 
0.021062985621 0.021109283114 0.021151307566 0.02118907159 0.021222623618 0.021252020062 0.02127732984 0.021298633035 0.021315949059 
0.021329345298 0.021338871058 0.021344475479 0.021346220795 0.021344085739 0.021338115433 0.02132829431 0.021314538559 0.021297025794 
0.021275893601 0.02125080886 0.02122203822 0.021189587954 0.021153401854 0.021113440243 0.021069822394 0.02102244146 0.020971243855 
0.020915913857 0.020856836823 0.020793679532 0.020726248239 0.020654608765 0.020578634805 0.020498300465 0.020413558256 0.020324526019 
0.020635374516 0.020741747252 0.020844530504 0.020943663567 0.021039096714 0.021130710544 0.021218348654 0.021301863299 0.021381244998 
0.021456332011 0.021526374255 0.021592492428 0.021654266442 0.021711396859 0.021764114667 0.021812333121 0.021856090808 0.021895348372 
0.021930177615 0.021960710997 0.021986966675 0.02200903966 0.022026993755 0.022040878409 0.02205076114 0.022056573297 0.022058388799 
0.022056180177 0.022049954322 0.022039776619 0.022025638442 0.022007271627 0.021985274893 0.021959371527 0.021929828049 0.021896262813 
0.021858802252 0.021817538794 0.021772389611 0.021723285381 0.021670153594 0.021612905942 0.021551442133 0.021485669282 0.021415968833 
0.021341228685 0.021261828005 0.021177872491 0.0210893137 0.020996220963 0.021317263574 0.021427984913 0.021535556277 0.021639351178 
0.021739245598 0.021835132387 0.021926834236 0.022014218581 0.022097248573 0.022175666004 0.022249369259 0.022318516103 0.022382933827 
0.022442496654 0.022497395412 0.022547523319 0.022592952103 0.022633767068 0.022670060397 0.022701754467 0.022729027358 0.022751949806 
0.022770609813 0.022785023061 0.022794938175 0.022800967909 0.022802810627 0.02280056619 0.022794134154 0.022783617417 0.022769007035 
0.022750336846 0.022727589255 0.022700877249 0.022670084646 0.022635386258 0.022596878808 0.022554173574 0.022507250176 0.022456302847 
0.02240108248 0.022341556212 0.0222775632 0.022208998309 0.022135746633 0.022057699625 0.021974818575 0.021886981224 0.021794404782 
0.021696934687 0.022027615696 0.022144094087 0.022256717268 0.022365367811 0.022469964698 0.02257029576 0.022666235768 0.022757728922 
0.022844452711 0.022926312343 0.023003426199 0.023075589519 0.023142765363 0.023204970641 0.023262167929 0.023314293123 0.023361587748 
0.023404044495 0.02344144735 0.023474353058 0.023502789443 0.02352664125 0.023546013562 0.023560994988 0.023571587095 0.023577886526 
0.023579796654 0.023577418985 0.023570738127 0.023559847479 0.023544710168 0.023525387917 0.023501889616 0.023474172543 0.023442391591 
0.023406490588 0.023366424538 0.023322141143 0.023273709324 0.023220754654 0.023163351703 0.023101339386 0.023034510175 0.022962959423 
0.022886460209 0.022804922538 0.022718168155 0.022626383003 0.022529458021 0.022427649711 0.022767131671 0.022889016862 0.023007106318 
0.023120876937 0.023230328651 0.023335327032 0.02343576356 0.023531390434 0.023621949077 0.02370757302 0.023788034271 0.023863388163 