# vtk DataFile Version 5.1
vtk output
ASCII
DATASET STRUCTURED_POINTS
DIMENSIONS 26 14 26
SPACING 0.08 0.08 0.08
ORIGIN 2.7 -0.52 0
POINT_DATA 9464
FIELD FieldData 1
potential 1 9464 double
0.007249995798 0.0069688901089 0.0067087986368 0.0064719874172 0.0062583914401 0.0060662324544 0.0058927428167 0.0057340618098 0.0055837983306 
0.0054328589289 0.0052736640573 0.0051058073763 0.0049350718611 0.0047684786089 0.0046112741468 0.0044661315864 0.0043336527425 0.0042130716287 
0.0041026389501 0.003999515221 0.003899599105 0.0037977506735 0.0036898716392 0.003576124425 0.0034609166109 0.0033495213173 0.0079823537404 
0.0076886930381 0.0074122970867 0.0071545819364 0.0069155243969 0.0066939724018 0.0064878540063 0.0062942146109 0.0061090974755 0.005928053484 
0.0057477246919 0.0055674599039 0.0053891709911 0.0052158404902 0.0050501271044 0.004893654476 0.0047469310121 0.0046095201978 0.0044802367079 
0.0043572037031 0.0042380190343 0.0041201982092 0.0040020432405 0.0038835824379 0.0037665147893 0.0036532133864 0.0084793630006 0.0081756372371 
0.0078875134129 0.007615631628 0.0073598631314 0.0071193232149 0.006892468504 0.0066772278833 0.0064711138318 0.0062716354259 0.0060769501828 
0.005886411443 0.0057005779 0.0055206590236 0.0053478851959 0.0051830941142 0.0050265481329 0.0048779348868 0.0047364444029 0.0046009019876 
0.0044698522207 0.0043419962391 0.0042164641809 0.0040932038438 0.0039729051691 0.0038566722648 0.0088054188414 0.008495109096 0.0081995120507 
0.0079188057345 0.0076526912635 0.0074004106004 0.0071608086162 0.0069324152751 0.0067135920164 0.0065027527701 0.0062987026788 0.0061008597906 
0.0059092139982 0.0057241757644 0.0055462211428 0.0053756854217 0.0052126163596 0.0050567336436 0.0049074782874 0.0047640699939 0.004625617218 
0.004491327899 0.004360717944 0.004233661611 0.0041104337899 0.003991532806 0.0089780994365 0.0086648768645 0.0083658111222 0.0080807440093 
0.0078092788944 0.0075507186627 0.0073041669724 0.0070685306449 0.00684263792 0.0066253978079 0.006415943448 0.0062137156316 0.0060184916152 
0.0058302730897 0.0056491589481 0.0054751766595 0.0053082321161 0.0051480551655 0.0049942242504 0.0048461842664 0.0047033558321 0.0045652081568 
0.0044314232073 0.0043018475777 0.0041765604629 0.0040557688385 0.0090084458768 0.0086959007107 0.0083970068505 0.008111424976 0.0078386943684 
0.0075781784059 0.00732911412 0.0070906537568 0.0068619144422 0.0066420743741 0.0064304447967 0.0062264981251 0.006029929124 0.0058405511491 
0.0056582348976 0.0054828682869 0.0053142555645 0.0051521270618 0.0049961369364 0.004845861041 0.0047008892333 0.0045608457813 0.0044254531663 
0.0042945941558 0.0041682451884 0.0040464727539 0.0088710063641 0.0085617025513 0.0082656192557 0.0079823022892 0.0077112356515 0.0074518216717 
0.0072033822394 0.0069652054639 0.0067365945805 0.0065168830558 0.0063054904167 0.0061019486717 0.0059058893766 0.0057170552337 0.0055352018361 
0.0053601225321 0.0051915857199 0.0050293131411 0.0048729876041 0.0047222742429 0.0045768536118 0.0044364278875 0.0043007639465 0.0041697512064 
0.0040433254519 0.0039214925985 0.0086440934999 0.0083437405542 0.0080559576012 0.0077802670091 0.0075161235063 0.0072629527734 0.0070201631526 
0.0067871475255 0.006563321616 0.0063481404129 0.0061411015409 0.0059417963096 0.0057498588846 0.0055649818564 0.0053869038582 0.0052153348293 
0.005050028445 0.0048907154489 0.0047370994141 0.0045888978675 0.0044458430657 0.0043076806594 0.0041742226383 0.0040453246004 0.003920970733 
0.0038011345338 0.0083785742967 0.0080894429244 0.0078122913218 0.0075465741852 0.007291713685 0.0070471291351 0.0068122867974 0.0065866586122 
0.0063697520441 0.0061610971617 0.0059602759425 0.0057669313344 0.005580716385 0.0054013224873 0.0052284465048 0.005061796373 0.0049010862193 
0.0047460590609 0.0045964386512 0.0044519899607 0.0043124578814 0.004177619223 0.004047281798 0.0039213285499 0.003799756559 0.0036825856496 
0.0080459327518 0.0077711667892 0.0075077920681 0.0072551550693 0.0070125902683 0.0067794847646 0.0065553515999 0.0063397555116 0.0061322915427 
0.0059325725302 0.0057402446085 0.0055549921088 0.0053765353537 0.005204574968 0.0050387966585 0.0048788729034 0.0047244918561 0.004575394362 
0.0044313614119 0.0042921864381 0.0041576405489 0.0040274728047 0.0039014673715 0.003779528342 0.0036616694905 0.0035480554249 0.0076401552577 
0.0073830989869 0.0071369775218 0.0069008422985 0.0066737704626 0.0064551163702 0.0062444865806 0.0060415976181 0.0058461428363 0.0056577974956 
0.005476253561 0.0053012837536 0.0051326963522 0.0049702563014 0.0048136233111 0.0046623695212 0.0045161290092 0.0043746486378 0.0042378261632 
0.0041055294126 0.003977525401 0.0038534790561 0.0037330739864 0.0036161828812 0.0035029406007 0.0033936617809 0.007158771897 0.0069233073225 
0.0066986920909 0.0064831583737 0.0062752131404 0.0060741661505 0.0058799280161 0.0056925451921 0.0055118580066 0.005337498028 0.0051691471826 
0.0050067121762 0.0048502498177 0.0046996601343 0.0045545045035 0.0044141427662 0.0042779813079 0.0041458481784 0.0040178873901 0.0038941943171 
0.0037745323916 0.0036583131005 0.0035448878876 0.0034340191224 0.0033260403618 0.0032216830498 0.0066167203555 0.0064080537873 0.006211089053 
0.0060217811638 0.0058373083873 0.0056571604542 0.0054822849387 0.0053135182846 0.0051508390901 0.0049934945571 0.0048409141795 0.0046933045166 
0.0045513640752 0.0044153890361 0.0042847468408 0.0041580559429 0.0040341502595 0.0039129898356 0.0037954575793 0.0036823319739 0.0035733898406 
0.0034673319481 0.0033625913384 0.003258526272 0.0031559662184 0.0030565887515 0.005958227843 0.0057853171904 0.0056273156479 0.005473544033 
0.0053179657931 0.0051617527417 0.0050090744435 0.0048627672821 0.0047227548391 0.0045867039398 0.0044527568961 0.0043219512511 0.004196970213 
0.0040793456398 0.0039679560244 0.0038593019232 0.0037501703201 0.0036409565382 0.0035349171365 0.0034347456985 0.0033403541762 0.0032485732265 
0.0031550202373 0.0030579100497 0.0029595819382 0.0028640224495 0.0074316596169 0.0071478181906 0.006884274757 0.0066430472255 0.0064240059003 
0.0062254423353 0.0060447297923 0.0058782195671 0.0057201106134 0.0055624671855 0.0053987630412 0.0052284376389 0.0050562747282 0.0048883956146 
0.0047295364313 0.0045821859212 0.0044469379851 0.0043230753676 0.0042089199764 0.0041017738092 0.0039978705197 0.0038926926797 0.0037827971762 
0.0036683508447 0.0035530911646 0.0034416255666 0.0081501135618 0.007853671035 0.0075743275867 0.0073133446707 0.0070706579484 0.0068451433215 
0.006634803734 0.0064368265979 0.006247511856 0.0060627630202 0.0058794954558 0.0056970429647 0.0055170615072 0.0053422188429 0.0051749521417 
0.0050167621786 0.0048681197211 0.004728599884 0.0045970645988 0.0044717290067 0.0043503457937 0.0042306326833 0.0041110549466 0.0039916324849 
0.0038738861703 0.0037599682161 0.0086393701971 0.008333189762 0.0080426034105 0.0077681743628 0.0075097432134 0.0072664330818 0.0070367413323 
0.0068186725634 0.006609849883 0.0064079098401 0.0062110976902 0.0060187674355 0.0058313940959 0.0056500723113 0.0054759314008 0.0053097428752 
0.0051517394853 0.0050016093254 0.0048585681981 0.0047214877836 0.0045889811647 0.0044598235597 0.004333194525 0.0042090353389 0.0040879764686 
0.0039710370545 0.0089544556999 0.008642036309 0.0083443733877 0.008061602279 0.0077934041819 0.0075390251877 0.0072973241323 0.0070668745051 
0.0068460855745 0.0066334221571 0.0064277219761 0.0062284042215 0.0060354277794 0.0058491554527 0.0056700165329 0.0054983116408 0.0053340711329 
0.0051770116991 0.0050265858329 0.0048820359688 0.0047425006095 0.0046072159043 0.0044757169622 0.0043478719768 0.0042239316996 0.0041043588184 
0.0091211234918 0.0088060940663 0.0085052757938 0.0082184928279 0.0079453264365 0.0076850836581 0.007436881855 0.0071996420356 0.0069722167189 
0.0067535357745 0.0065427453572 0.006339286911 0.0061429262391 0.005953638371 0.0057715049948 0.0055965334536 0.0054286205659 0.0052674895742 
0.0051127277071 0.0049637884292 0.004820105467 0.0046811599558 0.0045466393124 0.0044163888153 0.0042904743407 0.0041690864754 0.0091533926522 
0.0088393314605 0.008538977509 0.0082519799627 0.0079778695648 0.0077160091001 0.0074656396966 0.0072259220596 0.0069959837662 0.0067750124636 
0.0065623249829 0.0063573921233 0.0061599057949 0.0059696654055 0.0057865315119 0.0056103823896 0.005441016049 0.0052781604724 0.0051214713473 
0.004970528863 0.0048249284036 0.0046842989222 0.0045483648005 0.0044170065656 0.0042901936145 0.0041679841246 0.009061990941 0.0087523851894 
0.0084559642301 0.0081722846712 0.0079008403615 0.0076410395847 0.0073922127912 0.0071536569641 0.0069246830255 0.0067046317832 0.0064929272057 
0.0062891025717 0.0060927877388 0.005903721324 0.0057216523603 0.0055463760584 0.0053776511265 0.0052152039181 0.0050587144717 0.004907851628 
0.004762298683 0.0046217601307 0.0044860036111 0.0043549170609 0.0042284321603 0.0041065495236 0.0088748208411 0.0085731806999 0.0082841534023 
0.00800726063 0.0077419554014 0.0074876661455 0.0072437949627 0.0070097421654 0.0067849244103 0.0065687953776 0.0063608546289 0.0061606911744 
0.0059679376278 0.0057822821989 0.0056034614214 0.0054311796163 0.0052651911302 0.0051052243208 0.0049509822459 0.0048021825479 0.0046585581609 
0.0045198554675 0.0043858856142 0.0042565027335 0.0041316869515 0.004011406528 0.0086157970384 0.0083253292852 0.0080468809207 0.0077799066775 
0.0075238329492 0.0072780807882 0.0070421168336 0.0068154125132 0.0065974745279 0.0063878324704 0.0061860663678 0.0059918178054 0.0058047369624 
0.005624512649 0.0054508401901 0.0052834261874 0.0051219854365 0.0049662576381 0.0048159648022 0.0046708738067 0.0045307284691 0.0043953065713 
0.0042644160305 0.0041379380927 0.0040158654571 0.0038982113999 0.0082859283277 0.0080097562438 0.0077450035697 0.0074910306296 0.0072471763897 
0.0070128396519 0.0067875315187 0.006570809027 0.0063622689905 0.0061615178911 0.0059682029412 0.0057820038843 0.0056026367345 0.0054297993207 
0.0052631789749 0.0051024445216 0.004947291101 0.004797456563 0.004652718109 0.0045128689268 0.0043776770979 0.0042468973511 0.0041203163435 
0.0039978384826 0.0038794680265 0.0037653616758 0.0078820382078 0.007623409758 0.0073757192559 0.0071380555541 0.006909529382 0.0066895046197 
0.0064775788721 0.0062734554022 0.0060768203936 0.0058873475144 0.0057047278433 0.0055287271478 0.0053591436376 0.0051957362814 0.0050381674488 
0.004886018276 0.0047389307865 0.0045966495526 0.0044590620742 0.0043260289715 0.0041973170621 0.0040726028916 0.0039515827184 0.0038341334886 
0.0037203753632 0.003610603319 0.0073995736586 0.0071621745275 0.0069355582993 0.006718084146 0.006508348181 0.0063056693369 0.0061099155531 
0.0059210899329 0.0057390178342 0.0055633418388 0.0053937503536 0.0052301356125 0.005072523321 0.0049207940906 0.004774519621 0.0046330940011 
0.0044959491183 0.0043629105223 0.0042340862856 0.0041095424988 0.0039890429548 0.0038720376043 0.0037579198009 0.003646469304 0.0035379921318 
0.0034331653296 0.0068249808937 0.0066135510883 0.0064135450095 0.0062213607612 0.0060344314471 0.0058522049284 0.0056754479887 0.0055048560024 
0.005340384338 0.0051813492786 0.0050272376028 0.0048782127584 0.0047348661746 0.0045974230723 0.0044652796691 0.0043371718466 0.0042120416783 
0.0040898308651 0.0039712982585 0.0038571144359 0.0037470526281 0.0036399288341 0.0035343342389 0.003429690068 0.0033267398266 0.0032270086761 
0.0061027831355 0.0059247753892 0.0057607055609 0.0056015875033 0.0054421825114 0.005283215877 0.0051281052198 0.0049792220748 0.0048364715859 
0.0046978670219 0.0045618735326 0.0044293610905 0.0043025863938 0.0041828152816 0.0040689874291 0.0039580365455 0.0038472325385 0.003736890669 
0.0036297553375 0.0035281359438 0.0034319073773 0.0033382682233 0.0032434678824 0.0031459667629 0.0030477311683 0.0029522539329 0.0079113754796 
0.0076185394058 0.0073445435398 0.0070908514219 0.0068572223751 0.0066421587799 0.0064433625553 0.0062577106249 0.0060806948736 0.0059066808467 
0.0057311765168 0.0055534383759 0.0053763353751 0.0052040587625 0.0050401199289 0.0048865022684 0.0047437338699 0.0046112105895 0.0044874633629 
0.0043702021687 0.004256466424 0.0041430378906 0.0040276857083 0.0039105486283 0.0037940661574 0.0036814390806 0.0085219446832 0.008217183929 
0.0079291726545 0.0076588229349 0.007405963483 0.0071695332745 0.0069477338868 0.0067381054575 0.0065375596778 0.0063428117182 0.0061513854326 
0.0059626021225 0.0057775402679 0.0055981383095 0.0054262680398 0.0052631141802 0.0051090390336 0.0049636452171 0.0048259217055 0.0046943243498 
0.0045669884508 0.0044421042753 0.0043184914805 0.0041961448361 0.0040761752188 0.0039602170114 0.0089550510544 0.0086416320836 0.0083438366319 
0.0080620182971 0.007795943117 0.0075447481077 0.0073070403743 0.0070810189343 0.0068645874002 0.0066556948632 0.0064528030848 0.00625526828 
0.0060633645727 0.0058778941665 0.0056997267032 0.0055294653447 0.0053672427323 0.0052127665816 0.0050653124288 0.0049238752197 0.0047872429581 
0.0046543748328 0.0045245686097 0.0043977475158 0.0042743921404 0.0041553062886 0.0092358849881 0.0089172504715 0.0086135173628 0.0083247056929 
0.0080504403995 0.007789972371 0.0075422155241 0.007305840036 0.0070793839274 0.0068614475175 0.0066509505913 0.0064473148624 0.0062504194608 
0.0060605016747 0.0058778667422 0.0057027239111 0.0055350526232 0.0053745617121 0.0052207355523 0.0050728743144 0.0049301971255 0.0047920138406 
0.0046579030992 0.0045277220492 0.0044016550765 0.0042800735837 0.0093832415526 0.0090628539966 0.0087568474067 0.0084649848658 0.0081868025988 
0.0079216146228 0.0076685644433 0.0074266199697 0.0071946886558 0.0069717654544 0.006757029445 0.006549921434 0.0063501723416 0.006157698811 
0.0059725232012 0.0057946002991 0.0056237972701 0.005459837704 0.0053023105514 0.0051507005478 0.0050044764449 0.0048631506259 0.0047264255283 
0.0045941390968 0.0044663222506 0.0043431264346 0.0094108608279 0.0090921360271 0.0087872838123 0.0084959195287 0.0082175459782 0.0079515293572 
0.0076971205166 0.0074535011126 0.0072198269715 0.0069953156301 0.0067792940764 0.0065712330668 0.0063708076325 0.0061777846119 0.0059919971682 
0.0058132955631 0.0056414604103 0.0054762121831 0.0053172105903 0.0051640473665 0.0050163328666 0.0048737076686 0.0047359016022 0.0046027876695 
0.0044743171594 0.0043505231993 0.0093316469382 0.0090178837029 0.0087174596389 0.0084299048136 0.0081547071766 0.0078912682482 0.0076389232734 
0.0073969853042 0.0071647723937 0.0069416359264 0.0067270043383 0.0065204113803 0.0063214748179 0.0061299170345 0.0059454710368 0.0057679162756 
0.0055970011816 0.0054324467016 0.0052739327608 0.0051211319477 0.0049737337526 0.0048314461541 0.0046940376494 0.0045613882493 0.004433419015 
0.0043101129879 0.0091608613283 0.008855239739 0.008562376533 0.0082817668131 0.0080128701857 0.0077551119442 0.0075078971377 0.0072706289137 
0.007042727894 0.0068236510538 0.0066128958042 0.0064100516462 0.0062147397002 0.006026638757 0.005845478816 0.0056709521471 0.0055028114063 
0.0053407766488 0.005184550641 0.005033852172 0.0048884147647 0.0047479848149 0.0046123737797 0.0044814314036 0.0043551241588 0.0042334066815 
0.0089111813932 0.0086167518802 0.0083344540394 0.0080637497284 0.0078040749173 0.0075548586223 0.0073155617531 0.0070856576647 0.0068646516952 
0.0066520712442 0.0064474901356 0.0062505474559 0.0060608827589 0.0058781826731 0.0057021328236 0.0055324382092 0.0053688120777 0.0052109883209 
0.0050586876128 0.0049116743623 0.0047696934107 0.0046325211974 0.0044999704303 0.0043719132995 0.0042483322379 0.0041292214479 0.0085878222796 
0.0083075253026 0.0080387318244 0.0077808355434 0.0075332038697 0.0072952500019 0.0070664831381 0.0068464506391 0.0066347357208 0.0064309461689 
0.0062347211012 0.006045728923 0.0058636758043 0.005688251307 0.0055191445899 0.0053560205575 0.0051985860105 0.0050465731237 0.0048997503287 
0.0047579060901 0.0046208037479 0.0044882118279 0.0043599226093 0.0042358384304 0.0041159453356 0.0040003699255 0.0081905544808 0.007927366824 
0.0076751378734 0.0074330570831 0.0072003159004 0.0069763050095 0.0067606001364 0.0065528747666 0.0063527932349 0.0061600256362 0.0059742582669 
0.0057952387069 0.0056227398168 0.0054565045886 0.0052962008002 0.005141435051 0.0049918667051 0.0048472347052 0.0047074019125 0.0045722078074 
0.0044414214182 0.0043147477912 0.0041919154082 0.0040728068702 0.0039575091068 0.003846265015 0.0077150023972 0.0074721262582 0.0072398872361 
0.0070169512606 0.0068021322466 0.0065947786332 0.0063946610275 0.0062016793294 0.0060156216245 0.0058361513071 0.0056629704141 0.0054959324625 
0.0053349888845 0.0051799738488 0.0050304860973 0.0048859983255 0.0047460088794 0.0046103298009 0.0044789896745 0.0043519761813 0.0042290661863 
0.00410978929 0.003993651558 0.0038804689647 0.0037704797716 0.0036642229709 0.007148413147 0.0069295455046 0.0067214965659 0.0065216441627 
0.0063279994033 0.0061399539604 0.0059578744677 0.0057821450424 0.0056126614092 0.0054488896184 0.005290430975 0.0051373475483 0.0049899871829 
0.0048484148453 0.0047121001618 0.0045800510414 0.0044514494527 0.0043261915939 0.0042047559235 0.0040875665237 0.0039743881411 0.0038643083378 
0.0037562770587 0.0036498607559 0.0035456080868 0.0034446860777 0.0064675454782 0.0062773950446 0.0060992669209 0.0059274400068 0.0057582910564 
0.0055918314075 0.0054299782167 0.0052741650278 0.0051242616097 0.0049789786295 0.0048373770214 0.0046999764491 0.0045681610121 0.0044426364023 
0.0043225251341 0.0042056899483 0.0040903283877 0.0039765971091 0.0038661977985 0.0037606108213 0.0036596479841 0.0035613330992 0.0034631780018 
0.0033641481507 0.0032655056254 0.0031696900894 0.0085791089533 0.0082706702614 0.0079799765474 0.0077078624822 0.0074539844811 0.0072170946963 
0.0069952770331 0.006786029624 0.0065860927563 0.0063918007984 0.0062003063588 0.0060108415749 0.0058247514752 0.0056444171002 0.0054720301555 
0.0053089280795 0.0051554732644 0.0050111676917 0.0048748406718 0.0047447324874 0.0046187585993 0.0044948567768 0.0043717150484 0.0042493919301 
0.0041292550354 0.0040132119034 0.0090565257977 0.0087382453731 0.0084365256105 0.0081518468285 0.0078839011641 0.0076317016282 0.0073936996623 
0.0071678520251 0.0069517485841 0.0067429420462 0.0065395776967 0.0063409756163 0.0061476387889 0.005960724275 0.0057814300032 0.0056105507472 
0.0054482863965 0.0052942677625 0.0051476429954 0.0050071788142 0.004871448891 0.0047391414483 0.0046094177003 0.0044822270246 0.0043582572749 
0.004238576153 0.0094068949999 0.0090818793668 0.0087726348436 0.0084792627656 0.0082014260963 0.0079382544103 0.0076885164954 0.0074506511411 
0.0072228974756 0.0070035706644 0.0067913781758 0.0065856862101 0.0063865296204 0.0061943689955 0.0060097440168 0.005833027555 0.0056642433672 
0.0055030918376 0.0053489385094 0.0052009332768 0.0050580787034 0.0049195503987 0.0047847757016 0.0046536508599 0.0045264792772 0.0044037974498 
0.0096352441523 0.009306631877 0.0089932020966 0.0086947952243 0.0084109701628 0.0081409791195 0.0078838116504 0.0076382597272 0.0074030263922 
0.0071768791674 0.0069588468606 0.0067483461569 0.0065451601343 0.0063493638419 0.0061610997765 0.0059804469656 0.0058073188699 0.0056414091335 
0.0054822449492 0.0053292016386 0.0051816004076 0.0050388442711 0.0049005643958 0.0047665981051 0.0046370473457 0.0045121561291 0.0097504141014 
0.009421368806 0.0091069900926 0.0088069540959 0.0085207311931 0.0082476502938 0.0079868786747 0.0077374505947 0.0074983545863 0.0072686616446 
0.007047596155 0.0068345984735 0.0066293513658 0.0064316940704 0.006241560605 0.0060588398172 0.0058833568347 0.0057148216705 0.0055528398955 
0.0053969271132 0.0052466044038 0.0051014229172 0.0049611019217 0.00482546758 0.0046945061475 0.0045683048939 0.009761709374 0.0094353357997 
0.0091231024428 0.0088245758144 0.0085392253134 0.0082664134658 0.0080054042714 0.0077554090677 0.0075156231302 0.0072852993852 0.0070637836548 
0.0068505459093 0.0066452291885 0.0064475642643 0.0062573439927 0.0060743686424 0.0058984066037 0.005729156712 0.0055662883997 0.0054094026599 
0.0052581360029 0.0051121413146 0.0049711528534 0.0048350392019 0.0047037180042 0.0045771885247 0.0096786723274 0.0093579658764 0.0090508435687 
0.0087568087431 0.0084753265188 0.0082057978225 0.0079475615645 0.0076999470071 0.0074622871087 0.007233947354 0.007014365087 0.0068030660504 
0.0065996560314 0.0064038327308 0.0062153047164 0.006033830209 0.0058591407084 0.0056909479475 0.0055289313792 0.0053727685966 0.0052221563908 
0.0050768081701 0.0049364903397 0.0048010756511 0.0046704618588 0.0045446121243 0.0095110055819 0.0091988435854 0.0088996589104 0.008612931101 
0.0083381210118 0.0080746461177 0.0078219169665 0.0075793414003 0.007346344807 0.0071223881248 0.0069069683857 0.0066996680379 0.0065000984733 
0.0063079251047 0.006122850175 0.0059445819244 0.0057728386197 0.005607341137 0.00544779007 0.0052939022097 0.0051454141238 0.0050020739724 
0.0048636889538 0.0047300997027 0.0046012565092 0.0044770905128 0.0092668298971 0.0089659796987 0.008677447543 0.0084007093263 0.0081352019511 
0.0078803690772 0.0076356664794 0.007400566379 0.0071745712892 0.0069572077501 0.0067480546512 0.0065467113479 0.0063528350221 0.0061660914408 
0.005986159555 0.0058127400098 0.00564553628 0.005484283216 0.0053286934228 0.0051785289571 0.0050335332122 0.0048934858088 0.0047581980426 
0.0046275343424 0.0045014552176 0.0043799314556 0.0089509987798 0.0086641048532 0.0083888684421 0.0081247177024 0.0078710542115 0.0076273130909 
0.0073929993431 0.0071676509316 0.0069508364411 0.0067421603214 0.0065412478615 0.0063477554607 0.0061613728064 0.0059817776231 0.0058086604925 
0.0056416875859 0.0054805714457 0.0053250353473 0.0051748394604 0.0050297629485 0.0048895683122 0.0047540373648 0.0046229640191 0.0044962566701 
0.0043738621725 0.0042558728718 0.0085649675512 0.0082946306475 0.0080353260797 0.0077863611083 0.0075470234446 0.0073167407693 0.0070950652035 
0.0068816372733 0.0066760964906 0.0064780999747 0.0062873272583 0.0061035024266 0.0059263628234 0.0057556347943 0.0055909915318 0.0054320761487 
0.0052785509723 0.0051301616313 0.0049867367729 0.004848088867 0.0047139916034 0.0045841857551 0.0044584318853 0.0043366198684 0.004218795147 
0.0041051201646 0.0081073648487 0.007856204884 0.0076155754898 0.0073844786863 0.0071619685171 0.0069474429269 0.0067405777498 0.0065411595453 
0.0063489329971 0.0061635768257 0.0059847936846 0.0058123947453 0.0056462460889 0.0054861302083 0.0053316768042 0.0051824483906 0.0050380170852 
0.0048981740621 0.0047628594986 0.0046319812489 0.0045053209691 0.0043825067613 0.0042631672783 0.0041471582178 0.0040346295187 0.0039259580475 
0.0075732300457 0.0073439087006 0.0071248740547 0.0069144297744 0.0067111857105 0.0065145319348 0.0063244664868 0.006141065711 0.0059641585013 
0.0057933402099 0.0056283045298 0.0054689969019 0.0053155215956 0.0051677887095 0.0050253544113 0.0048875042164 0.0047536516696 0.0046236429802 
0.0044976769221 0.004375923961 0.0042581532947 0.0041437324648 0.0040319724999 0.0039225840303 0.0038159194562 0.003712755154 0.006958267333 
0.0067534741728 0.0065591594573 0.0063721913313 0.0061903601167 0.0060132709633 0.0058416658396 0.0056761554097 0.0055165718333 0.0053622005119 
0.0052125150602 0.0050677224834 0.0049284524445 0.0047949350817 0.0046665117211 0.0045418857566 0.0044200034882 0.0043008674397 0.0041852916428 
0.0040739993634 0.0039667774994 0.0038624250401 0.0037595257435 0.0036574877965 0.0035570163306 0.003459577988 0.0093540653656 0.0090247526775 
0.0087128381356 0.0084186143674 0.0081416176813 0.0078807795851 0.0076345086263 0.007400838702 0.0071774501195 0.006961936014 0.0067524358754 
0.0065482240638 0.0063497310586 0.0061580920729 0.0059744661626 0.0057995856496 0.005633604678 0.0054760875565 0.0053261416026 0.0051824866246 
0.0050437230437 0.0049085466139 0.0047761580383 0.004646523455 0.0045203216251 0.0043985820841 0.0097048792894 0.0093687912561 0.0090494157694 
0.0087468238212 0.0084605610931 0.0081896939613 0.0079328986871 0.0076885119226 0.0074546834023 0.0072296095795 0.0070118887935 0.0068008492238 
0.006596580551 0.0063995950223 0.0062105241712 0.0060297708705 0.0058573695651 0.0056929613442 0.0055358460955 0.0053850881263 0.0052396028202 
0.0050984901695 0.0049611461505 0.004827460639 0.0046977939121 0.0045727472108 0.0099659101496 0.0096256351689 0.0093014691235 0.0089932693087 
0.008700560752 0.0084225011162 0.008157972291 0.0079056549566 0.0076640921006 0.007431916286 0.0072080440317 0.0069918423066 0.0067831524547 
0.0065821137456 0.0063889592405 0.0062038327896 0.0060266454207 0.005857067697 0.0056945642709 0.0055384278818 0.0053878608146 0.0052422257208 
0.0051010499438 0.0049642037951 0.0048318127787 0.0047041925281 0.010132605913 0.0097908067685 0.0094645987785 0.0091536466114 0.0088574311542 
0.0085751982783 0.0083060124328 0.0080487887252 0.00780238192 0.0075657287354 0.0073379492523 0.0071184617565 0.0069069498283 0.0067033277828 
0.0065075781981 0.0063196432843 0.0061393533494 0.0059663996784 0.0058003394332 0.0056406150563 0.005486659208 0.0053379578004 0.0051941831553 
0.0050551538257 0.0049208814229 0.0047914908401 0.010206599945 0.0098660208341 0.0095405070489 0.0092296214377 0.008932797234 0.0086493446218 
0.0083784618039 0.0081192505071 0.0078707814701 0.0076322064666 0.0074027813165 0.0071819575425 0.006969357861 0.0067647459127 0.0065679581218 
0.0063788152665 0.0061970847716 0.0060224678896 0.0058545784208 0.0056929717109 0.0055372138058 0.0053868953568 0.005241752326 0.0051015889167 
0.004966349639 0.0048360483208 0.010192452955 0.0098558083489 0.0095336713031 0.0092255376811 0.0089308537479 0.0086489677619 0.008379158334 
0.0081206650648 0.0078727315853 0.0076346362642 0.0074057512751 0.0071855373796 0.0069736154388 0.006769666244 0.0065734264453 0.0063846603848 
0.0062031058421 0.006028445098 0.0058603500655 0.005698436466 0.0055423584943 0.0053917884096 0.0052464644581 0.0051062362936 0.0049709926877 
0.0048406924873 0.010096026294 0.0097659535743 0.0094497836207 0.0091469998828 0.0088570464113 0.00857930715 0.0083131342042 0.0080578689308 
0.0078128603273 0.0075774874507 0.0073512005309 0.007133510267 0.0069240161742 0.0067223769558 0.0065282779523 0.0063414485598 0.0061616030194 
0.0059884440032 0.0058216392593 0.0056608792583 0.0055058653981 0.0053563147544 0.0052119915962 0.0050727547758 0.0049384818059 0.0048091018368 
0.0099235785632 0.0096026039372 0.0092949017695 0.0089999342354 0.008717152858 0.0084459771061 0.0081858161338 0.0079360806363 0.007696206014 
0.0074656525264 0.0072439184164 0.0070305764971 0.0068252252611 0.0066275148551 0.0064371232256 0.0062537515711 0.0060770994476 0.0059068811194 
0.0057427950288 0.0055845550234 0.0054318948162 0.0052845678449 0.0051423749636 0.0050051438946 0.0048728013492 0.0047452554371 0.0096807456094 
0.0093713068946 0.0090744480229 0.0087896495342 0.0085163508014 0.0082540030422 0.0080020569911 0.0077599930982 0.0075273053016 0.0073035175901 
0.0070882002615 0.006880943816 0.0066813912249 0.0064891966108 0.0063040285788 0.0061255741216 0.0059535455864 0.0057876508132 0.0056276108017 
0.0054731755914 0.005324092824 0.0051801385311 0.0050411244868 0.0049068968477 0.0047773995208 0.0046525661894 0.0093717320779 0.0090761299756 
0.0087924063404 0.0085200198404 0.0082584048959 0.0080070172167 0.0077653574634 0.0075329565544 0.0073093688335 0.0070941911946 0.0068870343502 
0.0066875449844 0.0064953889295 0.0063102359758 0.0061317696051 0.0059596625835 0.0057936216272 0.0056333695585 0.0054786538401 0.0053292434082 
0.0051849026682 0.0050454163176 0.0049105869287 0.0047803137502 0.004654511833 0.0045332270825 0.0089991352185 0.0087195584018 0.0084511671246 
0.0081933630948 0.0079455245574 0.00770711134 0.0074776674597 0.0072567934595 0.0070441153318 0.0068392702824 0.0066419307662 0.0064517873198 
0.0062685510159 0.0060919304587 0.005921609371 0.0057572408978 0.0055985074292 0.0054451553569 0.0052969783395 0.0051537667179 0.0050153017335 
0.004881345793 0.0047516920489 0.0046262282395 0.0045049539301 0.0043879526205 0.0085645687317 0.008303100238 0.0080521732935 0.0078110492687 
0.0075789831519 0.0073554262848 0.0071399926298 0.006932385509 0.0067323023499 0.0065394255373 0.0063534534965 0.0061741459695 0.0060013112624 
0.0058346763155 0.0056739080464 0.0055186340943 0.0053684862395 0.0052232361685 0.0050827545033 0.0049468809104 0.0048154082447 0.0046880421279 
0.0045645061248 0.0044446814405 0.0043286385946 0.0042166029579 0.0080688733977 0.0078273966634 0.0075959339902 0.0073734218811 0.0071589103698 
0.0069518370314 0.0067519724265 0.0065591867249 0.006373230377 0.00619379013 0.0060205841555 0.0058534681444 0.0056923688935 0.0055370909418 
0.0053872628608 0.0052423748662 0.0051019930135 0.0049659265953 0.0048341796524 0.0047067326824 0.0045833689884 0.0044636664994 0.0043471853084 
0.0042337461661 0.0041235426445 0.0040170399498 0.0075164439283 0.0072965289155 0.007086260418 0.0068839953974 0.0066884234132 0.0064990562921 
0.006315971798 0.006139291185 0.0059688042706 0.0058040929373 0.0056448295751 0.0054910022681 0.0053427816223 0.0052001192753 0.0050625321868 
0.0049292568533 0.0047996712191 0.0046736708465 0.004551527213 0.0044334886171 0.0043193387827 0.0042083927249 0.0040998949642 0.003993525032 
0.0038896523442 0.0037890853994 0.010188764674 0.0098351213157 0.0094992004013 0.0091808426514 0.0088794456618 0.0085940199058 0.0083232269008 
0.0080655024734 0.0078191246757 0.0075824021597 0.0073540158541 0.0071332575211 0.00692006474 0.0067148159718 0.0065179802473 0.0063298202755 
0.0061502962931 0.0059789920413 0.0058152175545 0.0056580446806 0.005506510913 0.0053597544071 0.005217230426 0.0050788175613 0.0049447936386 
0.0048156504424 0.010428733953 0.010071751543 0.0097319673608 0.0094090942358 0.0091025612055 0.0088114519096 0.0085346052734 0.0082706509458 
0.0080181352429 0.0077756740474 0.0075421543543 0.0073169121818 0.0070997494485 0.0068907503891 0.006690117739 0.0064979463183 0.0063141072429 