# vtk DataFile Version 5.1
vtk output
ASCII
DATASET STRUCTURED_POINTS
DIMENSIONS 20 20 20
SPACING 2e-05 2e-05 2e-05
ORIGIN 3.69981 -0.00019 0.99981
POINT_DATA 8000
FIELD FieldData 1
potential 1 8000 double
0.001986717553 0.0019867085659 0.0019866995789 0.001986690592 0.0019866816051 0.0019866726183 0.0019866636315 0.0019866546448 0.0019866456582 
0.0019866366716 0.0019866276851 0.0019866186987 0.0019866097123 0.001986600726 0.0019865917397 0.0019865827536 0.0019865737674 0.0019865647814 
0.0019865557954 0.0019865468094 0.0019867091438 0.0019867001568 0.0019866911698 0.0019866821829 0.0019866731961 0.0019866642094 0.0019866552227 
0.0019866462361 0.0019866372495 0.001986628263 0.0019866192766 0.0019866102902 0.0019866013039 0.0019865923177 0.0019865833315 0.0019865743454 
0.0019865653593 0.0019865563733 0.0019865473874 0.0019865384015 0.0019867007345 0.0019866917476 0.0019866827607 0.0019866737739 0.0019866647872 
0.0019866558005 0.0019866468139 0.0019866378273 0.0019866288409 0.0019866198544 0.0019866108681 0.0019866018818 0.0019865928955 0.0019865839093 
0.0019865749232 0.0019865659372 0.0019865569512 0.0019865479653 0.0019865389794 0.0019865299936 0.0019866923254 0.0019866833385 0.0019866743517 
0.001986665365 0.0019866563783 0.0019866473917 0.0019866384051 0.0019866294186 0.0019866204322 0.0019866114459 0.0019866024596 0.0019865934733 
0.0019865844872 0.001986575501 0.001986566515 0.001986557529 0.0019865485431 0.0019865395572 0.0019865305715 0.0019865215857 0.0019866839162 
0.0019866749294 0.0019866659427 0.001986656956 0.0019866479694 0.0019866389828 0.0019866299964 0.0019866210099 0.0019866120236 0.0019866030373 
0.0019865940511 0.0019865850649 0.0019865760788 0.0019865670928 0.0019865581068 0.0019865491209 0.001986540135 0.0019865311492 0.0019865221635 
0.0019865131779 0.001986675507 0.0019866665203 0.0019866575336 0.001986648547 0.0019866395605 0.001986630574 0.0019866215876 0.0019866126013 
0.001986603615 0.0019865946288 0.0019865856426 0.0019865766565 0.0019865676705 0.0019865586845 0.0019865496986 0.0019865407128 0.001986531727 
0.0019865227413 0.0019865137556 0.00198650477 0.0019866670979 0.0019866581112 0.0019866491246 0.0019866401381 0.0019866311516 0.0019866221652 
0.0019866131789 0.0019866041926 0.0019865952064 0.0019865862203 0.0019865772342 0.0019865682481 0.0019865592622 0.0019865502763 0.0019865412904 
0.0019865323047 0.001986523319 0.0019865143333 0.0019865053477 0.0019864963622 0.0019866586888 0.0019866497022 0.0019866407157 0.0019866317292 
0.0019866227428 0.0019866137565 0.0019866047702 0.001986595784 0.0019865867979 0.0019865778118 0.0019865688257 0.0019865598398 0.0019865508539 
0.0019865418681 0.0019865328823 0.0019865238966 0.001986514911 0.0019865059254 0.0019864969399 0.0019864879544 0.0019866502797 0.0019866412932 
0.0019866323067 0.0019866233203 0.001986614334 0.0019866053477 0.0019865963615 0.0019865873754 0.0019865783893 0.0019865694033 0.0019865604173 
0.0019865514315 0.0019865424456 0.0019865334599 0.0019865244742 0.0019865154885 0.001986506503 0.0019864975175 0.001986488532 0.0019864795466 
0.0019866418706 0.0019866328842 0.0019866238978 0.0019866149115 0.0019866059252 0.001986596939 0.0019865879529 0.0019865789668 0.0019865699808 
0.0019865609948 0.001986552009 0.0019865430231 0.0019865340374 0.0019865250517 0.0019865160661 0.0019865070805 0.001986498095 0.0019864891096 
0.0019864801242 0.0019864711389 0.0019866334616 0.0019866244752 0.0019866154889 0.0019866065026 0.0019865975164 0.0019865885303 0.0019865795442 
0.0019865705582 0.0019865615723 0.0019865525864 0.0019865436006 0.0019865346149 0.0019865256292 0.0019865166435 0.001986507658 0.0019864986725 
0.0019864896871 0.0019864807017 0.0019864717164 0.0019864627311 0.0019866250525 0.0019866160662 0.00198660708 0.0019865980938 0.0019865891077 
0.0019865801216 0.0019865711356 0.0019865621497 0.0019865531638 0.001986544178 0.0019865351923 0.0019865262066 0.001986517221 0.0019865082354 
0.0019864992499 0.0019864902645 0.0019864812791 0.0019864722938 0.0019864633086 0.0019864543234 0.0019866166435 0.0019866076573 0.0019865986711 
0.001986589685 0.0019865806989 0.001986571713 0.001986562727 0.0019865537412 0.0019865447554 0.0019865357696 0.0019865267839 0.0019865177983 
0.0019865088128 0.0019864998273 0.0019864908419 0.0019864818565 0.0019864728712 0.001986463886 0.0019864549008 0.0019864459157 0.0019866082345 
0.0019865992484 0.0019865902623 0.0019865812762 0.0019865722902 0.0019865633043 0.0019865543184 0.0019865453327 0.0019865363469 0.0019865273613 
0.0019865183757 0.0019865093901 0.0019865004046 0.0019864914192 0.0019864824339 0.0019864734486 0.0019864644633 0.0019864554782 0.0019864464931 
0.001986437508 0.0019865998256 0.0019865908395 0.0019865818534 0.0019865728674 0.0019865638815 0.0019865548957 0.0019865459099 0.0019865369242 
0.0019865279385 0.0019865189529 0.0019865099674 0.0019865009819 0.0019864919965 0.0019864830111 0.0019864740259 0.0019864650406 0.0019864560555 
0.0019864470704 0.0019864380854 0.0019864291004 0.0019865914166 0.0019865824306 0.0019865734446 0.0019865644587 0.0019865554729 0.0019865464871 
0.0019865375014 0.0019865285157 0.0019865195301 0.0019865105446 0.0019865015591 0.0019864925737 0.0019864835884 0.0019864746031 0.0019864656179 
0.0019864566327 0.0019864476476 0.0019864386626 0.0019864296776 0.0019864206927 0.0019865830077 0.0019865740217 0.0019865650358 0.00198655605 
0.0019865470642 0.0019865380785 0.0019865290928 0.0019865201073 0.0019865111217 0.0019865021363 0.0019864931509 0.0019864841655 0.0019864751803 
0.0019864661951 0.0019864572099 0.0019864482248 0.0019864392398 0.0019864302549 0.00198642127 0.0019864122851 0.0019865745988 0.0019865656129 
0.0019865566271 0.0019865476413 0.0019865386556 0.0019865296699 0.0019865206844 0.0019865116988 0.0019865027134 0.001986493728 0.0019864847427 
0.0019864757574 0.0019864667722 0.0019864577871 0.001986448802 0.001986439817 0.001986430832 0.0019864218471 0.0019864128623 0.0019864038775 
0.0019865661899 0.0019865572041 0.0019865482183 0.0019865392326 0.001986530247 0.0019865212614 0.0019865122759 0.0019865032904 0.001986494305 
0.0019864853197 0.0019864763345 0.0019864673493 0.0019864583641 0.0019864493791 0.0019864403941 0.0019864314091 0.0019864224242 0.0019864134394 
0.0019864044547 0.00198639547 0.001986557781 0.0019865487953 0.0019865398096 0.0019865308239 0.0019865218384 0.0019865128529 0.0019865038674 
0.0019864948821 0.0019864858967 0.0019864769115 0.0019864679263 0.0019864589412 0.0019864499561 0.0019864409711 0.0019864319862 0.0019864230013 
0.0019864140165 0.0019864050317 0.001986396047 0.0019863870624 0.0019867557401 0.0019867467529 0.0019867377658 0.0019867287787 0.0019867197917 
0.0019867108047 0.0019867018178 0.001986692831 0.0019866838442 0.0019866748575 0.0019866658708 0.0019866568843 0.0019866478977 0.0019866389113 
0.0019866299249 0.0019866209386 0.0019866119523 0.0019866029661 0.0019865939799 0.0019865849939 0.0019867473308 0.0019867383437 0.0019867293566 
0.0019867203696 0.0019867113826 0.0019867023957 0.0019866934089 0.0019866844221 0.0019866754354 0.0019866664488 0.0019866574622 0.0019866484757 
0.0019866394893 0.0019866305029 0.0019866215165 0.0019866125303 0.0019866035441 0.0019865945579 0.0019865855719 0.0019865765859 0.0019867389215 
0.0019867299345 0.0019867209475 0.0019867119605 0.0019867029736 0.0019866939868 0.001986685 0.0019866760133 0.0019866670267 0.0019866580401 
0.0019866490536 0.0019866400672 0.0019866310808 0.0019866220945 0.0019866131082 0.001986604122 0.0019865951359 0.0019865861498 0.0019865771638 
0.0019865681779 0.0019867305123 0.0019867215253 0.0019867125383 0.0019867035514 0.0019866945646 0.0019866855779 0.0019866765912 0.0019866676046 
0.001986658618 0.0019866496315 0.001986640645 0.0019866316587 0.0019866226724 0.0019866136861 0.0019866046999 0.0019865957138 0.0019865867277 
0.0019865777417 0.0019865687558 0.0019865597699 0.001986722103 0.0019867131161 0.0019867041292 0.0019866951424 0.0019866861557 0.001986677169 
0.0019866681823 0.0019866591958 0.0019866502093 0.0019866412229 0.0019866322365 0.0019866232502 0.0019866142639 0.0019866052778 0.0019865962916 
0.0019865873056 0.0019865783196 0.0019865693337 0.0019865603478 0.001986551362 0.0019867136938 0.0019867047069 0.0019866957201 0.0019866867334 
0.0019866777467 0.0019866687601 0.0019866597735 0.001986650787 0.0019866418006 0.0019866328143 0.001986623828 0.0019866148417 0.0019866058555 
0.0019865968694 0.0019865878834 0.0019865788974 0.0019865699115 0.0019865609256 0.0019865519398 0.0019865429541 0.0019867052846 0.0019866962978 
0.0019866873111 0.0019866783244 0.0019866693378 0.0019866603512 0.0019866513647 0.0019866423783 0.001986633392 0.0019866244057 0.0019866154194 
0.0019866064333 0.0019865974472 0.0019865884611 0.0019865794751 0.0019865704892 0.0019865615034 0.0019865525176 0.0019865435319 0.0019865345462 
0.0019866968754 0.0019866878887 0.001986678902 0.0019866699154 0.0019866609289 0.0019866519424 0.001986642956 0.0019866339696 0.0019866249833 
0.0019866159971 0.0019866070109 0.0019865980248 0.0019865890388 0.0019865800528 0.0019865710669 0.0019865620811 0.0019865530953 0.0019865441096 
0.0019865351239 0.0019865261383 0.0019866884662 0.0019866794796 0.001986670493 0.0019866615064 0.00198665252 0.0019866435336 0.0019866345472 
0.0019866255609 0.0019866165747 0.0019866075886 0.0019865986025 0.0019865896164 0.0019865806305 0.0019865716446 0.0019865626587 0.0019865536729 
0.0019865446872 0.0019865357016 0.001986526716 0.0019865177305 0.0019866800571 0.0019866710705 0.001986662084 0.0019866530975 0.0019866441111 
0.0019866351248 0.0019866261385 0.0019866171523 0.0019866081661 0.00198659918 0.001986590194 0.0019865812081 0.0019865722222 0.0019865632363 
0.0019865542505 0.0019865452648 0.0019865362792 0.0019865272936 0.0019865183081 0.0019865093226 0.001986671648 0.0019866626614 0.001986653675 
0.0019866446886 0.0019866357023 0.001986626716 0.0019866177298 0.0019866087436 0.0019865997576 0.0019865907715 0.0019865817856 0.0019865727997 
0.0019865638139 0.0019865548281 0.0019865458424 0.0019865368567 0.0019865278712 0.0019865188857 0.0019865099002 0.0019865009148 0.0019866632389 
0.0019866542524 0.001986645266 0.0019866362797 0.0019866272934 0.0019866183072 0.0019866093211 0.001986600335 0.001986591349 0.0019865823631 
0.0019865733772 0.0019865643913 0.0019865554056 0.0019865464199 0.0019865374342 0.0019865284487 0.0019865194632 0.0019865104777 0.0019865014923 
0.001986492507 0.0019866548298 0.0019866458434 0.0019866368571 0.0019866278708 0.0019866188846 0.0019866098985 0.0019866009124 0.0019865919264 
0.0019865829405 0.0019865739546 0.0019865649688 0.001986555983 0.0019865469973 0.0019865380117 0.0019865290261 0.0019865200406 0.0019865110552 
0.0019865020698 0.0019864930845 0.0019864840993 0.0019866464207 0.0019866374344 0.0019866284481 0.001986619462 0.0019866104758 0.0019866014898 
0.0019865925038 0.0019865835178 0.001986574532 0.0019865655461 0.0019865565604 0.0019865475747 0.0019865385891 0.0019865296035 0.001986520618 
0.0019865116326 0.0019865026472 0.0019864936619 0.0019864846767 0.0019864756915 0.0019866380117 0.0019866290254 0.0019866200392 0.0019866110531 
0.0019866020671 0.0019865930811 0.0019865840951 0.0019865751093 0.0019865661235 0.0019865571377 0.001986548152 0.0019865391664 0.0019865301809 
0.0019865211954 0.00198651221 0.0019865032246 0.0019864942393 0.0019864852541 0.0019864762689 0.0019864672838 0.0019866296026 0.0019866206165 
0.0019866116304 0.0019866026443 0.0019865936583 0.0019865846724 0.0019865756865 0.0019865667007 0.001986557715 0.0019865487293 0.0019865397437 
0.0019865307582 0.0019865217727 0.0019865127873 0.0019865038019 0.0019864948166 0.0019864858314 0.0019864768462 0.0019864678611 0.0019864588761 
0.0019866211936 0.0019866122075 0.0019866032215 0.0019865942355 0.0019865852496 0.0019865762637 0.0019865672779 0.0019865582922 0.0019865493065 
0.0019865403209 0.0019865313354 0.0019865223499 0.0019865133645 0.0019865043792 0.0019864953939 0.0019864864086 0.0019864774235 0.0019864684384 
0.0019864594533 0.0019864504684 0.0019866127847 0.0019866037986 0.0019865948126 0.0019865858267 0.0019865768409 0.0019865678551 0.0019865588694 
0.0019865498837 0.0019865408981 0.0019865319126 0.0019865229271 0.0019865139417 0.0019865049564 0.0019864959711 0.0019864869859 0.0019864780007 
0.0019864690156 0.0019864600306 0.0019864510456 0.0019864420607 0.0019866043757 0.0019865953897 0.0019865864038 0.001986577418 0.0019865684322 
0.0019865594465 0.0019865504608 0.0019865414752 0.0019865324897 0.0019865235042 0.0019865145188 0.0019865055335 0.0019864965482 0.001986487563 
0.0019864785779 0.0019864695928 0.0019864606077 0.0019864516228 0.0019864426379 0.0019864336531 0.0019865959668 0.0019865869809 0.001986577995 
0.0019865690092 0.0019865600235 0.0019865510379 0.0019865420523 0.0019865330668 0.0019865240813 0.0019865150959 0.0019865061106 0.0019864971253 
0.0019864881401 0.001986479155 0.0019864701699 0.0019864611849 0.0019864521999 0.001986443215 0.0019864342302 0.0019864252454 0.0019867939272 
0.0019867849399 0.0019867759526 0.0019867669653 0.0019867579782 0.0019867489911 0.001986740004 0.001986731017 0.0019867220301 0.0019867130433 
0.0019867040565 0.0019866950697 0.0019866860831 0.0019866770965 0.0019866681099 0.0019866591235 0.0019866501371 0.0019866411507 0.0019866321644 
0.0019866231782 0.0019867855178 0.0019867765305 0.0019867675433 0.0019867585561 0.0019867495691 0.001986740582 0.001986731595 0.0019867226081 
0.0019867136213 0.0019867046345 0.0019866956478 0.0019866866611 0.0019866776745 0.001986668688 0.0019866597015 0.0019866507151 0.0019866417288 
0.0019866327425 0.0019866237563 0.0019866147701 0.0019867771085 0.0019867681212 0.0019867591341 0.001986750147 0.00198674116 0.001986732173 
0.0019867231861 0.0019867141993 0.0019867052125 0.0019866962258 0.0019866872391 0.0019866782525 0.001986669266 0.0019866602795 0.0019866512931 
0.0019866423068 0.0019866333205 0.0019866243343 0.0019866153482 0.0019866063621 0.0019867686991 0.001986759712 0.0019867507249 0.0019867417379 
0.0019867327509 0.001986723764 0.0019867147772 0.0019867057904 0.0019866968037 0.001986687817 0.0019866788305 0.0019866698439 0.0019866608575 
0.0019866518711 0.0019866428848 0.0019866338985 0.0019866249123 0.0019866159261 0.0019866069401 0.0019865979541 0.0019867602898 0.0019867513027 
0.0019867423157 0.0019867333287 0.0019867243418 0.001986715355 0.0019867063683 0.0019866973816 0.0019866883949 0.0019866794083 0.0019866704218 
0.0019866614354 0.001986652449 0.0019866434627 0.0019866344764 0.0019866254902 0.0019866165041 0.001986607518 0.001986598532 0.001986589546 
0.0019867518805 0.0019867428935 0.0019867339065 0.0019867249196 0.0019867159328 0.0019867069461 0.0019866979594 0.0019866889727 0.0019866799862 
0.0019866709997 0.0019866620132 0.0019866530268 0.0019866440405 0.0019866350543 0.0019866260681 0.0019866170819 0.0019866080959 0.0019865991099 
0.0019865901239 0.0019865811381 0.0019867434712 0.0019867344843 0.0019867254974 0.0019867165106 0.0019867075238 0.0019866985371 0.0019866895505 
0.0019866805639 0.0019866715774 0.001986662591 0.0019866536046 0.0019866446183 0.0019866356321 0.0019866266459 0.0019866176598 0.0019866086737 
0.0019865996877 0.0019865907018 0.0019865817159 0.0019865727301 0.0019867350619 0.0019867260751 0.0019867170883 0.0019867081015 0.0019866991148 
0.0019866901282 0.0019866811417 0.0019866721552 0.0019866631687 0.0019866541824 0.0019866451961 0.0019866362098 0.0019866272236 0.0019866182375 
0.0019866092515 0.0019866002655 0.0019865912795 0.0019865822937 0.0019865733079 0.0019865643221 0.0019867266527 0.0019867176659 0.0019867086792 
0.0019866996925 0.0019866907059 0.0019866817193 0.0019866727328 0.0019866637464 0.00198665476 0.0019866457737 0.0019866367875 0.0019866278013 
0.0019866188152 0.0019866098292 0.0019866008432 0.0019865918573 0.0019865828714 0.0019865738856 0.0019865648999 0.0019865559142 0.0019867182435 
0.0019867092568 0.0019867002701 0.0019866912835 0.0019866822969 0.0019866733104 0.001986664324 0.0019866553377 0.0019866463514 0.0019866373651 
0.001986628379 0.0019866193929 0.0019866104068 0.0019866014208 0.0019865924349 0.0019865834491 0.0019865744633 0.0019865654776 0.0019865564919 
0.0019865475063 0.0019867098343 0.0019867008476 0.001986691861 0.0019866828745 0.001986673888 0.0019866649016 0.0019866559152 0.0019866469289 
0.0019866379427 0.0019866289566 0.0019866199705 0.0019866109844 0.0019866019985 0.0019865930125 0.0019865840267 0.0019865750409 0.0019865660552 
0.0019865570695 0.0019865480839 0.0019865390984 0.0019867014251 0.0019866924385 0.001986683452 0.0019866744655 0.0019866654791 0.0019866564928 
0.0019866475065 0.0019866385203 0.0019866295341 0.001986620548 0.001986611562 0.001986602576 0.0019865935901 0.0019865846043 0.0019865756185 
0.0019865666328 0.0019865576471 0.0019865486615 0.001986539676 0.0019865306905 0.0019866930159 0.0019866840294 0.001986675043 0.0019866660566 
0.0019866570702 0.0019866480839 0.0019866390977 0.0019866301116 0.0019866211255 0.0019866121395 0.0019866031535 0.0019865941676 0.0019865851818 
0.001986576196 0.0019865672103 0.0019865582247 0.0019865492391 0.0019865402536 0.0019865312681 0.0019865222827 0.0019866846068 0.0019866756203 
0.001986666634 0.0019866576476 0.0019866486614 0.0019866396751 0.001986630689 0.0019866217029 0.0019866127169 0.001986603731 0.0019865947451 
0.0019865857592 0.0019865767735 0.0019865677878 0.0019865588021 0.0019865498166 0.001986540831 0.0019865318456 0.0019865228602 0.0019865138749 
0.0019866761977 0.0019866672113 0.001986658225 0.0019866492387 0.0019866402525 0.0019866312664 0.0019866222803 0.0019866132943 0.0019866043083 
0.0019865953225 0.0019865863366 0.0019865773509 0.0019865683652 0.0019865593795 0.001986550394 0.0019865414085 0.001986532423 0.0019865234376 
0.0019865144523 0.0019865054671 0.0019866677886 0.0019866588023 0.001986649816 0.0019866408298 0.0019866318437 0.0019866228576 0.0019866138716 
0.0019866048857 0.0019865958998 0.001986586914 0.0019865779282 0.0019865689425 0.0019865599569 0.0019865509713 0.0019865419858 0.0019865330004 
0.001986524015 0.0019865150297 0.0019865060445 0.0019864970593 0.0019866593795 0.0019866503933 0.0019866414071 0.001986632421 0.0019866234349 
0.0019866144489 0.001986605463 0.0019865964771 0.0019865874913 0.0019865785055 0.0019865695198 0.0019865605342 0.0019865515487 0.0019865425632 
0.0019865335777 0.0019865245924 0.0019865156071 0.0019865066218 0.0019864976366 0.0019864886515 0.0019866509705 0.0019866419843 0.0019866329982 
0.0019866240121 0.0019866150261 0.0019866060402 0.0019865970543 0.0019865880685 0.0019865790828 0.0019865700971 0.0019865611115 0.0019865521259 
0.0019865431404 0.001986534155 0.0019865251696 0.0019865161843 0.0019865071991 0.0019864982139 0.0019864892288 0.0019864802438 0.0019866425614 
0.0019866335753 0.0019866245893 0.0019866156033 0.0019866066173 0.0019865976315 0.0019865886457 0.00198657966 0.0019865706743 0.0019865616887 
0.0019865527031 0.0019865437176 0.0019865347322 0.0019865257469 0.0019865167616 0.0019865077763 0.0019864987912 0.0019864898061 0.001986480821 
0.0019864718361 0.0019866341524 0.0019866251664 0.0019866161804 0.0019866071945 0.0019865982086 0.0019865892228 0.0019865802371 0.0019865712514 
0.0019865622658 0.0019865532803 0.0019865442948 0.0019865353094 0.001986526324 0.0019865173388 0.0019865083535 0.0019864993684 0.0019864903833 
0.0019864813982 0.0019864724133 0.0019864634284 0.0019868321142 0.0019868231267 0.0019868141392 0.0019868051519 0.0019867961646 0.0019867871773 
0.0019867781901 0.001986769203 0.001986760216 0.001986751229 0.001986742242 0.0019867332552 0.0019867242683 0.0019867152816 0.0019867062949 
0.0019866973083 0.0019866883218 0.0019866793353 0.0019866703488 0.0019866613625 0.0019868237047 0.0019868147173 0.0019868057299 0.0019867967426 
0.0019867877554 0.0019867787682 0.0019867697811 0.001986760794 0.001986751807 0.0019867428201 0.0019867338333 0.0019867248465 0.0019867158597 
0.001986706873 0.0019866978864 0.0019866888999 0.0019866799134 0.001986670927 0.0019866619406 0.0019866529543 0.0019868152953 0.0019868063079 
0.0019867973206 0.0019867883334 0.0019867793462 0.0019867703591 0.0019867613721 0.0019867523851 0.0019867433982 0.0019867344113 0.0019867254245 
0.0019867164378 0.0019867074511 0.0019866984645 0.001986689478 0.0019866804915 0.0019866715051 0.0019866625187 0.0019866535324 0.0019866445462 
0.0019868068859 0.0019867978986 0.0019867889113 0.0019867799242 0.0019867709371 0.00198676195 0.0019867529631 0.0019867439761 0.0019867349893 
0.0019867260025 0.0019867170158 0.0019867080291 0.0019866990425 0.001986690056 0.0019866810695 0.0019866720831 0.0019866630968 0.0019866541105 
0.0019866451242 0.0019866361381 0.0019867984765 0.0019867894892 0.0019867805021 0.001986771515 0.001986762528 0.001986753541 0.0019867445541 
0.0019867355672 0.0019867265805 0.0019867175937 0.0019867086071 0.0019866996205 0.001986690634 0.0019866816475 0.0019866726611 0.0019866636747 
0.0019866546885 0.0019866457022 0.0019866367161 0.00198662773 0.0019867900671 0.0019867810799 0.0019867720929 0.0019867631058 0.0019867541189 
0.001986745132 0.0019867361451 0.0019867271583 0.0019867181716 0.001986709185 0.0019867001984 0.0019866912119 0.0019866822254 0.001986673239 
0.0019866642527 0.0019866552664 0.0019866462802 0.001986637294 0.001986628308 0.0019866193219 0.0019867816577 0.0019867726707 0.0019867636836 
0.0019867546967 0.0019867457098 0.0019867367229 0.0019867277362 0.0019867187495 0.0019867097628 0.0019867007762 0.0019866917897 0.0019866828033 
0.0019866738169 0.0019866648305 0.0019866558443 0.0019866468581 0.0019866378719 0.0019866288859 0.0019866198999 0.0019866109139 0.0019867732484 
0.0019867642614 0.0019867552744 0.0019867462875 0.0019867373007 0.001986728314 0.0019867193273 0.0019867103406 0.001986701354 0.0019866923675 
0.0019866833811 0.0019866743947 0.0019866654084 0.0019866564221 0.0019866474359 0.0019866384498 0.0019866294637 0.0019866204777 0.0019866114918 
0.0019866025059 0.0019867648391 0.0019867558521 0.0019867468653 0.0019867378784 0.0019867288917 0.001986719905 0.0019867109184 0.0019867019318 
0.0019866929453 0.0019866839588 0.0019866749725 0.0019866659861 0.0019866569999 0.0019866480137 0.0019866390276 0.0019866300415 0.0019866210555 
0.0019866120696 0.0019866030837 0.0019865940979 0.0019867564298 0.0019867474429 0.0019867384561 0.0019867294693 0.0019867204827 0.001986711496 
0.0019867025095 0.001986693523 0.0019866845365 0.0019866755502 0.0019866665639 0.0019866575776 0.0019866485914 0.0019866396053 0.0019866306192 
0.0019866216332 0.0019866126473 0.0019866036614 0.0019865946756 0.0019865856899 0.0019867480205 0.0019867390337 0.001986730047 0.0019867210603 
0.0019867120737 0.0019867030871 0.0019866941006 0.0019866851142 0.0019866761278 0.0019866671415 0.0019866581553 0.0019866491691 0.001986640183 
0.0019866311969 0.0019866222109 0.001986613225 0.0019866042391 0.0019865952533 0.0019865862676 0.0019865772819 0.0019867396113 0.0019867306245 
0.0019867216378 0.0019867126512 0.0019867036647 0.0019866946782 0.0019866856918 0.0019866767054 0.0019866677191 0.0019866587329 0.0019866497467 
0.0019866407606 0.0019866317745 0.0019866227886 0.0019866138026 0.0019866048168 0.001986595831 0.0019865868453 0.0019865778596 0.001986568874 
0.001986731202 0.0019867222154 0.0019867132288 0.0019867042422 0.0019866952557 0.0019866862693 0.001986677283 0.0019866682967 0.0019866593104 
0.0019866503243 0.0019866413382 0.0019866323521 0.0019866233661 0.0019866143802 0.0019866053944 0.0019865964086 0.0019865874229 0.0019865784372 
0.0019865694516 0.0019865604661 0.0019867227928 0.0019867138062 0.0019867048197 0.0019866958332 0.0019866868468 0.0019866778604 0.0019866688742 
0.0019866598879 0.0019866509018 0.0019866419157 0.0019866329296 0.0019866239437 0.0019866149578 0.0019866059719 0.0019865969861 0.0019865880004 
0.0019865790148 0.0019865700292 0.0019865610436 0.0019865520582 0.0019867143836 0.0019867053971 0.0019866964106 0.0019866874242 0.0019866784379 
0.0019866694516 0.0019866604654 0.0019866514792 0.0019866424931 0.0019866335071 0.0019866245211 0.0019866155352 0.0019866065494 0.0019865975636 
0.0019865885779 0.0019865795923 0.0019865706067 0.0019865616211 0.0019865526357 0.0019865436503 0.0019867059745 0.001986696988 0.0019866880016 
0.0019866790153 0.001986670029 0.0019866610428 0.0019866520566 0.0019866430705 0.0019866340845 0.0019866250986 0.0019866161127 0.0019866071268 
0.0019865981411 0.0019865891553 0.0019865801697 0.0019865711841 0.0019865621986 0.0019865532132 0.0019865442278 0.0019865352424 0.0019866975653 
0.0019866885789 0.0019866795926 0.0019866706063 0.0019866616201 0.001986652634 0.0019866436479 0.0019866346619 0.0019866256759 0.00198661669 
0.0019866077042 0.0019865987184 0.0019865897327 0.0019865807471 0.0019865717615 0.001986562776 0.0019865537906 0.0019865448052 0.0019865358199 
0.0019865268346 0.0019866891562 0.0019866801698 0.0019866711836 0.0019866621974 0.0019866532112 0.0019866442252 0.0019866352392 0.0019866262532 
0.0019866172673 0.0019866082815 0.0019865992958 0.0019865903101 0.0019865813244 0.0019865723389 0.0019865633534 0.0019865543679 0.0019865453825 
0.0019865363972 0.001986527412 0.0019865184268 0.0019866807471 0.0019866717608 0.0019866627746 0.0019866537885 0.0019866448024 0.0019866358164 
0.0019866268305 0.0019866178446 0.0019866088588 0.001986599873 0.0019865908873 0.0019865819017 0.0019865729161 0.0019865639307 0.0019865549452 
0.0019865459598 0.0019865369745 0.0019865279893 0.0019865190041 0.001986510019 0.001986672338 0.0019866633518 0.0019866543657 0.0019866453796 
0.0019866363936 0.0019866274077 0.0019866184218 0.001986609436 0.0019866004502 0.0019865914646 0.0019865824789 0.0019865734934 0.0019865645079 
0.0019865555225 0.0019865465371 0.0019865375518 0.0019865285665 0.0019865195814 0.0019865105963 0.0019865016112 0.0019868703011 0.0019868613134 
0.0019868523259 0.0019868433383 0.0019868343509 0.0019868253635 0.0019868163762 0.0019868073889 0.0019867984017 0.0019867894146 0.0019867804275 
0.0019867714405 0.0019867624535 0.0019867534666 0.0019867444798 0.0019867354931 0.0019867265064 0.0019867175197 0.0019867085332 0.0019866995466 
0.0019868618915 0.001986852904 0.0019868439165 0.001986834929 0.0019868259416 0.0019868169543 0.0019868079671 0.0019867989799 0.0019867899927 
0.0019867810057 0.0019867720186 0.0019867630317 0.0019867540448 0.001986745058 0.0019867360713 0.0019867270846 0.0019867180979 0.0019867091114 
0.0019867001249 0.0019866911384 0.001986853482 0.0019868444945 0.0019868355071 0.0019868265197 0.0019868175324 0.0019868085451 0.001986799558 
0.0019867905708 0.0019867815838 0.0019867725968 0.0019867636098 0.001986754623 0.0019867456361 0.0019867366494 0.0019867276627 0.0019867186761 
0.0019867096895 0.001986700703 0.0019866917166 0.0019866827302 0.0019868450725 0.0019868360851 0.0019868270977 0.0019868181104 0.0019868091232 
0.001986800136 0.0019867911489 0.0019867821618 0.0019867731748 0.0019867641879 0.001986755201 0.0019867462142 0.0019867372275 0.0019867282408 
0.0019867192542 0.0019867102676 0.0019867012811 0.0019866922947 0.0019866833083 0.001986674322 0.0019868366631 0.0019868276757 0.0019868186884 
0.0019868097012 0.001986800714 0.0019867917269 0.0019867827398 0.0019867737528 0.0019867647659 0.001986755779 0.0019867467922 0.0019867378055 
0.0019867288188 0.0019867198322 0.0019867108457 0.0019867018592 0.0019866928728 0.0019866838864 0.0019866749001 0.0019866659139 0.0019868282536 
0.0019868192663 0.0019868102791 0.0019868012919 0.0019867923048 0.0019867833178 0.0019867743308 0.0019867653439 0.001986756357 0.0019867473702 
0.0019867383835 0.0019867293968 0.0019867204102 0.0019867114237 0.0019867024372 0.0019866934508 0.0019866844644 0.0019866754781 0.0019866664919 
0.0019866575057 0.0019868198442 0.001986810857 0.0019868018698 0.0019867928827 0.0019867838957 0.0019867749087 0.0019867659218 0.0019867569349 
0.0019867479481 0.0019867389614 0.0019867299747 0.0019867209881 0.0019867120016 0.0019867030151 0.0019866940287 0.0019866850424 0.0019866760561 
0.0019866670699 0.0019866580837 0.0019866490976 0.0019868114348 0.0019868024476 0.0019867934605 0.0019867844735 0.0019867754865 0.0019867664996 
0.0019867575128 0.001986748526 0.0019867395393 0.0019867305526 0.001986721566 0.0019867125795 0.001986703593 0.0019866946066 0.0019866856203 
0.001986676634 0.0019866676478 0.0019866586616 0.0019866496756 0.0019866406895 0.0019868030254 0.0019867940383 0.0019867850513 0.0019867760643 
0.0019867670774 0.0019867580906 0.0019867491038 0.0019867401171 0.0019867311304 0.0019867221438 0.0019867131573 0.0019867041709 0.0019866951845 
0.0019866861981 0.0019866772119 0.0019866682257 0.0019866592395 0.0019866502534 0.0019866412674 0.0019866322815 0.001986794616 0.001986785629 
0.001986776642 0.0019867676551 0.0019867586683 0.0019867496815 0.0019867406948 0.0019867317082 0.0019867227216 0.0019867137351 0.0019867047486 
0.0019866957623 0.0019866867759 0.0019866777897 0.0019866688035 0.0019866598173 0.0019866508312 0.0019866418452 0.0019866328593 0.0019866238734 
0.0019867862067 0.0019867772197 0.0019867682328 0.001986759246 0.0019867502592 0.0019867412725 0.0019867322859 0.0019867232993 0.0019867143128 
0.0019867053264 0.00198669634 0.0019866873537 0.0019866783674 0.0019866693812 0.0019866603951 0.001986651409 0.001986642423 0.0019866334371 
0.0019866244512 0.0019866154654 0.0019867777973 0.0019867688105 0.0019867598236 0.0019867508369 0.0019867418502 0.0019867328636 0.001986723877 
0.0019867148905 0.001986705904 0.0019866969177 0.0019866879314 0.0019866789451 0.0019866699589 0.0019866609728 0.0019866519867 0.0019866430007 
0.0019866340148 0.0019866250289 0.0019866160431 0.0019866070573 0.001986769388 0.0019867604012 0.0019867514145 0.0019867424278 0.0019867334412 
0.0019867244546 0.0019867154681 0.0019867064817 0.0019866974953 0.001986688509 0.0019866795227 0.0019866705366 0.0019866615504 0.0019866525644 
0.0019866435784 0.0019866345924 0.0019866256066 0.0019866166208 0.001986607635 0.0019865986494 0.0019867609787 0.001986751992 0.0019867430053 