# vtk DataFile Version 5.1
vtk output
ASCII
DATASET STRUCTURED_POINTS
DIMENSIONS 30 30 30
SPACING 0.01 0.01 0.01
ORIGIN 3.555 -0.145 0.855
POINT_DATA 27000
FIELD FieldData 1
potential 1 27000 double
0.0051699639776 0.0051517960776 0.0051337178446 0.0051157289585 0.0050978295423 0.0050800184176 0.0050622953327 0.0050446593983 0.0050271103459 
0.0050096479794 0.004992271423 0.0049749802084 0.0049577739004 0.0049406518577 0.0049236137779 0.0049066588502 0.0048897867033 0.0048729970578 
0.0048562888804 0.0048396621077 0.0048231160522 0.0048066506277 0.0047902646819 0.0047739581288 0.0047577302498 0.0047415806662 0.0047255089269 
0.0047095144882 0.004693596921 0.0046777556715 0.0051823598358 0.005164115043 0.0051459605513 0.0051278961021 0.0051099217769 0.00509203619 
0.0050742388941 0.0050565299334 0.0050389080569 0.0050213733726 0.0050039251676 0.0049865627562 0.0049692860078 0.0049520937338 0.0049349859802 
0.004917962005 0.0049010214685 0.0048841637614 0.0048673883343 0.0048506946308 0.0048340824608 0.0048175508327 0.0048010995307 0.0047847279832 
0.0047684357519 0.0047522224431 0.0047360872783 0.0047200299187 0.0047040499522 0.0046881465552 0.0051947855553 0.0051764636525 0.0051582327054 
0.0051400923952 0.0051220426457 0.0051040823607 0.0050862110483 0.0050684281694 0.0050507335073 0.005033126323 0.0050156061079 0.0049981723493 
0.0049808246369 0.0049635622787 0.0049463844849 0.0049292914802 0.0049122821251 0.0048953561102 0.0048785129694 0.004861752214 0.0048450735382 
0.0048284759492 0.004811959026 0.0047955223145 0.0047791655954 0.0047628881071 0.0047466894453 0.0047305690309 0.004714526504 0.004698561185 
0.0052072409779 0.0051888419783 0.0051705343781 0.0051523180583 0.0051341926709 0.0051161571619 0.0050982116141 0.0050803548659 0.0050625868986 
0.0050449069645 0.0050273145181 0.005009809145 0.0049923902554 0.0049750573515 0.0049578097768 0.0049406471776 0.0049235688722 0.0049065745764 
0.0048896635265 0.0048728353512 0.0048560897155 0.0048394256877 0.0048228429381 0.0048063411674 0.004789919723 0.0047735779598 0.0047573154997 
0.0047411319111 0.004725026682 0.0047089991701 0.0052197268149 0.005201250258 0.005182865702 0.0051645732295 0.0051463718959 0.0051282608866 
0.0051102406358 0.0050923097592 0.005074468231 0.0050567152676 0.0050390505266 0.0050214732816 0.0050039830377 0.004986579251 0.0049692616164 
0.004952029259 0.0049348817674 0.0049178186072 0.0049008397546 0.0048839439359 0.0048671309142 0.0048504006169 0.0048337519302 0.0048171845914 
0.0048006981676 0.0047842919785 0.0047679656223 0.0047517187308 0.0047355506309 0.004719460723 0.0052322429168 0.0052136884381 0.0051952267512 
0.0051768577223 0.0051585803276 0.0051403941683 0.0051222986011 0.0051042933596 0.0050863778308 0.0050685516308 0.0050508139931 0.0050331646869 
0.0050156026682 0.0049981280358 0.0049807398188 0.0049634374927 0.0049462207415 0.0049290888508 0.004912041558 0.0048950779667 0.0048781977108 
0.0048614004323 0.0048446858362 0.0048280528211 0.0048115011736 0.00479503045 0.0047786401356 0.0047623295565 0.0047460982497 0.0047299457764 
0.0052447890696 0.0052261566606 0.0052076173403 0.0051891715679 0.0051708178002 0.0051525559725 0.0051343851915 0.0051163051833 0.005098315546 
0.0050804157738 0.0050626052646 0.0050448834196 0.0050272496735 0.0050097036534 0.0049922448189 0.0049748723199 0.004957585949 0.0049403852637 
0.0049232692474 0.0049062375231 0.0048892899226 0.0048724256643 0.004855644401 0.0048389459371 0.0048223289604 0.0048057934269 0.0047893385299 
0.0047729641336 0.0047566697875 0.004740454618 0.0052573658613 0.0052386549422 0.0052200378774 0.005201514855 0.0051830844378 0.0051647465433 
0.0051465003537 0.0051283456149 0.0051102815985 0.005092307908 0.0050744241905 0.0050566298281 0.0050389241449 0.0050213064991 0.0050037765278 
0.004986333804 0.0049689774383 0.0049517073644 0.0049345226005 0.0049174227892 0.0049004075867 0.0048834761713 0.0048666283151 0.0048498634159 
0.0048331811744 0.0048165804745 0.0048000612611 0.0047836229201 0.0047672651807 0.0047509870781 0.0052699728769 0.0052511834642 0.0052324883218 
0.0052138878767 0.0051953805718 0.0051769662905 0.0051586442873 0.0051404143303 0.0051222759506 0.0051042282547 0.0050862709755 0.0050684037041 
0.0050506255731 0.0050329361569 0.0050153349803 0.0049978215183 0.0049803955468 0.0049630557075 0.0049458020929 0.0049286338672 0.0049115507044 
0.0048945518451 0.0048776370722 0.0048608058802 0.0048440574798 0.0048273920188 0.0048108081811 0.0047943057102 0.004777884464 0.0047615432859 
0.0052826104778 0.0052637421988 0.0052449687677 0.0052262905192 0.0052077060054 0.005189215061 0.0051708170313 0.0051525117233 0.0051342983743 
0.0051161765357 0.0050981455823 0.0050802051595 0.0050623542165 0.0050445927371 0.0050269200707 0.0050093362249 0.0049918395383 0.0049744300309 
0.0049571071238 0.004939870232 0.0049227189567 0.0049056527376 0.0048886707078 0.0048717730477 0.0048549588839 0.0048382276912 0.004821579238 
0.004805012571 0.0047885272333 0.0047721228762 0.0052952787693 0.0052763309907 0.0052574791767 0.00523872262 0.0052200607193 0.0052014925121 
0.0051830185592 0.005164637514 0.0051463490721 0.00512815261 0.0051100479994 0.0050920338232 0.0050741102223 0.0050562764119 0.0050385319514 
0.0050208766995 0.0050033096034 0.0049858301501 0.0049684377062 0.0049511319636 0.004933912359 0.0049167781922 0.0048997291781 0.0048827647753 
0.0048658846114 0.0048490878306 0.0048323742092 0.0048157433197 0.004799194005 0.0047827261973 0.0053079775519 0.0052889501999 0.0052700192775 
0.0052511841716 0.0052324446386 0.0052137993974 0.0051952488473 0.0051767917485 0.0051584279221 0.0051401566232 0.0051219775682 0.0051038901876 
0.0050858933183 0.0050679870918 0.0050501708851 0.0050324439411 0.0050148060193 0.0049972562705 0.0049797941933 0.0049624193339 0.004945130997 
0.0049279290038 0.0049108126935 0.0048937812963 0.0048768347608 0.0048599721382 0.0048431931609 0.0048264973555 0.0048098841891 0.004793352771 
0.0053207066209 0.0053015993977 0.0052825892045 0.0052636752686 0.0052448577399 0.0052261350424 0.0052075075649 0.0051889743063 0.0051705347543 
0.0051521888348 0.0051339350873 0.0051157735136 0.0050977036066 0.0050797243601 0.0050618361164 0.0050440373006 0.0050263283485 0.0050087080636 
0.0049911760602 0.0049737317381 0.0049563747986 0.0049391046306 0.0049219207151 0.0049048222138 0.0048878089881 0.0048708804422 0.0048540360228 
0.0048372753378 0.0048205978387 0.0048040026257 0.0053334659894 0.0053142785943 0.0052951887893 0.0052761959344 0.0052572994846 0.0052384994414 
0.0052197950846 0.0052011851935 0.0051826697597 0.0051642482265 0.0051459199736 0.0051276840914 0.0051095404776 0.0050914886897 0.0050735274879 
0.0050556570393 0.0050378763762 0.0050201853716 0.0050025832235 0.0049850694908 0.0049676436032 0.0049503049714 0.0049330530935 0.0049158874547 
0.0048988074249 0.0048818126425 0.0048649025825 0.004848076824 0.0048313344886 0.0048146755579 0.005346255497 0.0053269876673 0.0053078179429 
0.0052887458811 0.0052697707182 0.0052508925859 0.0052321108178 0.0052134241386 0.0051948325632 0.0051763353787 0.0051579319004 0.0051396216542 
0.0051214044138 0.0051032790789 0.0050852454216 0.005067302589 0.0050494503588 0.0050316886205 0.0050140158868 0.0049964323039 0.0049789371214 
0.0049615298662 0.0049442098901 0.0049269767206 0.0049098297262 0.0048927686035 0.0048757926637 0.0048589016342 0.0048420946281 0.0048253709913 
0.0053590751075 0.0053397266658 0.0053204766033 0.0053013249672 0.0052822709127 0.0052633143079 0.0052444547595 0.0052256913328 0.0052070229778 
0.0051884498534 0.0051699710085 0.0051515860243 0.0051332945449 0.0051150956654 0.0050969891249 0.0050789739907 0.0050610498468 0.0050432170221 
0.005025473818 0.0050078199882 0.0049902553384 0.0049727791345 0.0049553909003 0.0049380899869 0.0049208758194 0.0049037480714 0.0048867059405 
0.0048697494122 0.0048528774348 0.0048360896514 0.005371924444 0.0053524950507 0.0053331643989 0.0053139329376 0.0052947997846 0.0052757645461 
0.0052568268486 0.0052379858876 0.0052192410852 0.0052005915044 0.0051820370512 0.0051635772927 0.0051452112445 0.0051269384968 0.0051087583898 
0.0050906708789 0.0050726750877 0.0050547704004 0.005036956378 0.0050192325078 0.00500159791 0.004984052585 0.0049665957502 0.0049492267543 
0.0049319452978 0.0049147506328 0.0048976424194 0.0048806202398 0.0048636831422 0.0048468308157 0.0053848039524 0.0053652928938 0.0053458816572 
0.0053265694192 0.0053073569549 0.0052882427899 0.0052692266888 0.0052503079704 0.00523148609 0.0052127601391 0.0051941299447 0.0051755946714 
0.0051571539423 0.0051388071108 0.0051205536594 0.0051023931934 0.0050843250168 0.0050663487022 0.0050484635758 0.0050306691351 0.0050129647191 
0.004995349794 0.0049778241906 0.0049603871243 0.00494303806 0.004925776423 0.0049086019619 0.0048915136939 0.0048745113266 0.0048575941851 
0.0053977122623 0.005378119481 0.0053586274693 0.0053392349494 0.0053199426437 0.005300749251 0.0052816543465 0.0052626574161 0.0052437580087 
0.0052249556467 0.0052062491959 0.00518763842 0.0051691225568 0.0051507014423 0.0051323743187 0.0051141406258 0.0050959997285 0.0050779514573 
0.0050599951367 0.0050421296752 0.0050243553417 0.0050066710769 0.0049890762269 0.0049715707492 0.004954153858 0.0049368250174 0.0049195838236 
0.0049024295184 0.0048853616002 0.0048683795602 0.0054106502823 0.0053909751051 0.0053714013223 0.0053519282923 0.0053325558453 0.0053132829289 
0.0052941094421 0.0052750343688 0.0052560572599 0.0052371776101 0.0052183946273 0.0051997077738 0.0051811166977 0.0051626209693 0.0051442198273 
0.0051259127999 0.0051076991834 0.0050895786542 0.0050715507806 0.0050536146153 0.0050357694642 0.0050180153794 0.0050003516316 0.004982777267 
0.0049652923423 0.0049478960359 0.0049305879446 0.0049133673523 0.0048962337275 0.0048791865397 0.0054236166609 0.0054038594794 0.0053842034034 
0.0053646494265 0.005345196788 0.0053258442057 0.0053065913821 0.0052874375992 0.0052683826066 0.0052494254164 0.0052305655333 0.005211803034 
0.005193136607 0.0051745656861 0.0051560902584 0.0051377095155 0.0051194229326 0.0051012298137 0.005083130139 0.0050651226615 0.0050472068497 
0.0050293827773 0.005011649485 0.0049940065027 0.004976453124 0.0049589890817 0.0049416139618 0.0049243268086 0.0049071272935 0.0048900148688 
0.0054366119048 0.0054167717032 0.0053970335851 0.005377398257 0.0053578646087 0.0053384321261 0.0053190998538 0.0052998675113 0.0052807340526 
0.00526169914 0.0052427623103 0.0052239232717 0.0052051811973 0.0051865354167 0.0051679854289 0.0051495307383 0.0051311705513 0.0051129047843 
0.0050947329307 0.0050766539702 0.0050586675839 0.005040772852 0.0050229698634 0.0050052577852 0.0049876360189 0.0049701038855 0.0049526616375 
0.0049353076776 0.0049180420417 0.0049008640327 0.0054496352682 0.0054297115924 0.0054098915243 0.005390174518 0.0053705599977 0.0053510466901 
0.0053316350017 0.0053123232828 0.0052931110768 0.0052739983481 0.0052549842876 0.0052360684179 0.005217250431 0.0051985291909 0.0051799044191 
0.0051613754653 0.0051429419851 0.0051246032274 0.005106359002 0.005088207979 0.0050701503843 0.0050521854528 0.0050343122352 0.0050165308251 
0.0049988403302 0.0049812406289 0.0049637302947 0.0049463093042 0.0049289774278 0.0049117336577 0.005462686416 0.0054426795552 0.0054227771115 
0.0054029777462 0.0053832817903 0.0053636877388 0.0053441958273 0.0053248045403 0.0053055136767 0.0052863227257 0.0052672309864 0.0052482382226 
0.0052293436072 0.0052105469577 0.0051918470857 0.0051732436481 0.005154736283 0.0051363242832 0.0051180072401 0.0050997846698 0.0050816556732 
0.0050636196993 0.0050456767082 0.0050278253459 0.0050100659314 0.0049923978398 0.004974819957 0.0049573316266 0.0049399330534 0.0049226234445 
0.0054757650552 0.0054556745816 0.0054356891139 0.0054158074093 0.0053960298125 0.0053763548697 0.0053567820759 0.0053373110172 0.0053179412513 
0.0052986717816 0.0052795021561 0.0052604321506 0.0052414609056 0.0052225880783 0.0052038129827 0.0051851347893 0.0051665532869 0.0051480677812 
0.0051296778583 0.0051113831502 0.005093182442 0.0050750756556 0.0050570621695 0.0050391413831 0.0050213122093 0.0050035755486 0.0049859297019 
0.0049683741785 0.0049509084693 0.0049335327265 0.0054888701277 0.0054686962234 0.0054486274845 0.0054286633048 0.0054088037377 0.0053890470701 
0.0053693937393 0.005349842607 0.0053303931372 0.0053110451023 0.0052917972605 0.0052726496242 0.0052536015453 0.0052346522972 0.0052158015321 
0.0051970484551 0.0051783925638 0.0051598333422 0.0051413702715 0.0051230030123 0.0051047304428 0.0050865522964 0.0050684681221 0.0050504773562 
0.0050325789825 0.0050147735156 0.0049970589764 0.0049794360146 0.0049619036961 0.004944461361 0.0055020023731 0.0054817441994 0.0054615918437 
0.0054415448183 0.0054216024699 0.0054017645164 0.0053820301152 0.0053623985673 0.0053428693405 0.0053234419172 0.005304115853 0.005284890375 
0.0052657650047 0.0052467392522 0.0052278123572 0.0052089843033 0.0051902536838 0.0051716203858 0.0051530839042 0.0051346438213 0.0051162991257 
0.0050980495137 0.0050798943187 0.0050618330025 0.0050438653952 0.0050259904892 0.0050082079549 0.0049905172744 0.0049729174264 0.004955408525 
0.0055151608138 0.0054948180205 0.0054745818768 0.0054544514861 0.0054344263849 0.0054145064315 0.0053946905576 0.0053749783031 0.0053553690145 
0.0053358622949 0.0053164571843 0.0052971538237 0.0052779510142 0.0052588484026 0.0052398452872 0.0052209414333 0.0052021360194 0.0051834283591 
0.0051648182376 0.0051463051459 0.0051278880122 0.0051095663101 0.0050913399832 0.0050732083121 0.0050551711363 0.0050372268287 0.005019375351 
0.0050016167162 0.0049839498125 0.004966374462 0.005528344553 0.0055079172021 0.0054875967727 0.005467382636 0.005447274647 0.005427272315 
0.0054073748242 0.0053875815501 0.005367891889 0.0053483053059 0.0053288212064 0.0053094391634 0.0052901588565 0.0052709790478 0.0052518994925 
0.0052329195897 0.0052140389171 0.0051952568573 0.0051765726393 0.0051579859883 0.0051394962107 0.0051211027791 0.0051028051547 0.0050846025857 
0.0050664950952 0.0050484815852 0.0050305616556 0.0050127343889 0.0049949999511 0.0049773575425 0.0055415539356 0.0055210411384 0.0055006358868 
0.0054803379903 0.0054601468625 0.0054400617472 0.0054200822181 0.005400207611 0.0053804373276 0.0053607707585 0.0053412072086 0.0053217464471 
0.0053023877126 0.0052831306578 0.0052639741162 0.0052449182672 0.0052259621054 0.0052071049371 0.0051883466149 0.0051696866511 0.0051511238871 
0.0051326579769 0.0051142887004 0.0050960153072 0.0050778375025 0.0050597542714 0.005041765243 0.0050238695036 0.0050060672304 0.0049883573507 
0.0052248808633 0.0052065306103 0.0051882705866 0.0051701014124 0.0051520218129 0.0051340313954 0.0051161299199 0.0050983165815 0.0050805913229 
0.0050629531932 0.0050454018022 0.0050279364271 0.0050105569751 0.0049932624971 0.0049760526217 0.0049589269533 0.0049418849372 0.0049249258264 
0.0049080493699 0.0048912548737 0.0048745421816 0.0048579101971 0.004841358832 0.0048248876086 0.0048084958102 0.0047921829705 0.0047759488934 
0.0047597928254 0.0047437140826 0.0047277122431 0.0052374168146 0.0052189887185 0.0052006520401 0.0051824064806 0.0051642507966 0.0051461851977 
0.0051282092064 0.0051103217138 0.0050925228856 0.0050748117327 0.0050571878238 0.0050396507389 0.0050221997257 0.005004834443 0.0049875542732 
0.0049703588371 0.0049532474198 0.004936219784 0.004919275066 0.0049024131385 0.0048856331475 0.0048689346401 0.0048523173311 0.0048357805317 
0.0048193236223 0.0048029463099 0.0047866480336 0.0047704284276 0.0047542867179 0.0047382225675 0.0052499822987 0.0052314763508 0.0052130625342 
0.0051947403241 0.0051765086626 0.0051583675239 0.0051403165817 0.0051223546866 0.0051044820425 0.0050866976205 0.0050690009885 0.0050513917512 
0.0050338692631 0.0050164327451 0.0049990820763 0.0049818166622 0.0049646357998 0.0049475392194 0.004930526212 0.0049135965272 0.0048967491229 
0.0048799837246 0.0048632999553 0.0048466975043 0.004830175402 0.004813733349 0.0047973708534 0.0047810875369 0.0047648826421 0.0047487557738 
0.005262578073 0.0052439941931 0.0052255024165 0.005207103032 0.0051887950371 0.0051705782061 0.005152451772 0.0051344155482 0.0051164687969 
0.0050986108492 0.0050808412574 0.005063159718 0.0050455653825 0.0050280576842 0.0050106361472 0.0049933005204 0.0049760500534 0.0049588842042 
0.0049418025832 0.0049248047668 0.0049078898022 0.0048910574995 0.0048743072984 0.0048576386841 0.0048410512378 0.0048245442661 0.0048081173657 
0.0047917702359 0.0047755019744 0.0047593122267 0.0052752034974 0.0052565411352 0.005237971851 0.0052194951897 0.005201110623 0.0051828177492 
0.0051646156886 0.0051465046188 0.0051284834547 0.0051105517373 0.005092708905 0.0050749546475 0.0050572881904 0.0050397090213 0.0050222164372 
0.0050048104421 0.0049874899337 0.004970254728 0.0049531045225 0.004936038091 0.0049190556113 0.0049021561024 0.0048853392245 0.0048686044602 
0.0048519513825 0.0048353792867 0.00481888783 0.0048024765188 0.0047861447027 0.0047698919098 0.0052878587704 0.0052691178692 0.0052504702322 
0.0052319165562 0.0052134552179 0.0051950857673 0.0051768080479 0.0051586217963 0.0051405260575 0.0051225201661 0.0051046037593 0.0050867765673 
0.0050690376778 0.0050513866882 0.0050338231233 0.0050163464637 0.0049989559496 0.0049816513365 0.004964431825 0.0049472968549 0.0049302462376 
0.0049132795525 0.0048963957948 0.00487959466 0.0048628757865 0.0048462384199 0.004829682161 0.0048132066101 0.004796811211 0.0047804950955 
0.0053005442559 0.0052817240348 0.0052629984256 0.0052443669782 0.0052258284913 0.0052073826618 0.0051890286578 0.0051707668841 0.0051525962309 
0.0051345162014 0.0051165262343 0.0050986259019 0.005080814352 0.0050630914244 0.0050454562463 0.0050279085974 0.0050104477678 0.0049930735034 
0.0049757846214 0.0049585810563 0.0049414621779 0.004924427606 0.0049074770128 0.0048906093712 0.0048738244541 0.0048571217489 0.0048405005393 
0.0048239605632 0.0048075009719 0.0047911216223 0.0053132595782 0.0052943603343 0.0052755562506 0.0052568465969 0.0052382306574 0.0052197077457 
0.0052012781316 0.0051829404517 0.0051646944993 0.0051465399233 0.005128476112 0.0051105021728 0.0050926178654 0.0050748226715 0.0050571159645 
0.0050394971152 0.0050219660294 0.0050045214606 0.0049871632 0.0049698904216 0.0049527031687 0.0049356007966 0.0049185828288 0.0049016486844 
0.0048847975553 0.0048680290559 0.0048513425408 0.0048347379945 0.0048182145393 0.0048017716365 0.0053260052366 0.005307026626 0.005288143619 
0.0052693555484 0.0052506619668 0.0052320618998 0.005213555732 0.0051951423441 0.0051768209425 0.0051585912489 0.0051404532256 0.0051224057037 
0.005104448313 0.0050865806053 0.005068801962 0.0050511119992 0.0050335097644 0.0050159949573 0.0049985669966 0.0049812254933 0.0049639696737 
0.0049467991523 0.004929713586 0.0049127122148 0.0048957948721 0.0048789602873 0.0048622086029 0.0048455393437 0.0048289514581 0.0048124448067 
0.0053387811273 0.0053197228165 0.0053007605928 0.0052818939135 0.0052631223148 0.0052444449108 0.0052258617811 0.0052073721873 0.0051889753041 
0.0051706705704 0.0051524578348 0.0051343364006 0.0051163057911 0.0050983652039 0.0050805143799 0.0050627527104 0.0050450794736 0.0050274943318 
0.0050099964454 0.0049925854418 0.0049752609383 0.0049580220014 0.0049408686736 0.0049238000034 0.0049068159163 0.0048899158973 0.0048730986913 
0.0048563642976 0.0048397120325 0.0048231414297 0.0053515870963 0.0053324487303 0.0053134071985 0.005294461622 0.0052756116293 0.0052568565723 
0.0052381963644 0.0052196301514 0.0052011573008 0.005182777516 0.0051644899504 0.0051462944648 0.0051281899233 0.0051101764195 0.0050922532595 
0.0050744197806 0.0050566752502 0.0050390191515 0.0050214512625 0.0050039706581 0.0049865770839 0.0049692699292 0.0049520483417 0.0049349125076 
0.0049178615776 0.0049008948591 0.0048840122261 0.0048672127314 0.0048504958443 0.0048338611746 0.0053644233542 0.0053452044415 0.0053260830638 
0.0053070584108 0.0052881294993 0.0052692968968 0.0052505592552 0.0052319162921 0.0052133673842 0.0051949121433 0.005176549617 0.0051582794268 
0.0051401013818 0.0051220145542 0.0051040184524 0.0050861128352 0.0050682967125 0.0050505696921 0.0050329312932 0.005015380938 0.0049979180944 
0.0049805421214 0.0049632527263 0.0049460491603 0.004928931123 0.0049118980019 0.0048949491801 0.0048780846275 0.0048613029338 0.0048446040038 
0.0053772896735 0.005357990328 0.0053387884679 0.0053196843665 0.0053006766969 0.0052817655735 0.0052629504051 0.0052442304622 0.0052256050845 
0.0052070739148 0.0051886364132 0.0051702916028 0.0051520390992 0.0051338790622 0.0051158097868 0.0050978317472 0.0050799438244 0.0050621456295 
0.0050444366183 0.0050268161431 0.005009283837 0.0049918390133 0.004974481289 0.0049572099083 0.0049400246529 0.0049229248672 0.0049059101108 
0.0048889798661 0.0048721331732 0.0048553698024 0.0053901863087 0.0053708055928 0.00535152335 0.0053323393041 0.0053132524896 0.0052942629173 
0.0052753699343 0.0052565724616 0.0052378703911 0.0052192632211 0.0052007500722 0.0051823304852 0.0051640040089 0.0051457696137 0.0051276273798 
0.005109576512 0.0050916164815 0.0050737469065 0.0050559667369 0.0050382761575 0.0050206741316 0.0050031603002 0.0049857340129 0.0049683946902 
0.0049511419602 0.0049339753056 0.0049168942491 0.0048998979734 0.0048829864018 0.0048661582335 0.0054031124249 0.0053836504018 0.0053642874378 
0.0053450233127 0.0053258568989 0.0053067886629 0.0052878174869 0.005268942381 0.0052501632323 0.0052314797771 0.0052128906727 0.0051943960925 
0.0051759948344 0.0051576865708 0.0051394706408 0.0051213469654 0.0051033148042 0.0050853732147 0.0050675221943 0.0050497610206 0.0050320890601 
0.0050145058141 0.0049970108025 0.0049796032724 0.0049622829491 0.0049450491179 0.0049279014168 0.0049108392062 0.0048938619591 0.0048769694415 
0.0054160682082 0.0053965245738 0.0053770805705 0.0053577357767 0.0053384900717 0.0053193424401 0.0053002928555 0.0052813400313 0.0052624837214 
0.0052437232995 0.0052250580943 0.0052064879195 0.0051880117575 0.0051696292073 0.0051513398311 0.0051331428917 0.005115038116 0.0050970248846 
0.0050791022845 0.0050612703114 0.005043528225 0.0050258753905 0.0050083113209 0.0049908355185 0.004973447069 0.0049561460357 0.0049389317729 
0.0049218034266 0.0049047606128 0.0048878027731 0.0054290535473 0.0054094278997 0.005389902753 0.0053704772208 0.0053511514286 0.0053319243789 
0.005312795854 0.0052937649601 0.005274831182 0.0052559936539 0.00523725222 0.0052186060506 0.0052000547263 0.0051815977963 0.0051632343801 
0.005144964052 0.0051267864996 0.0051087010944 0.0050907071029 0.0050728039496 0.0050549912925 0.0050372686442 0.0050196353382 0.0050020908333 
0.0049846345477 0.0049672660284 0.0049499848829 0.0049327901818 0.0049156815311 0.0048986585979 0.0054420681505 0.0054223603542 0.0054027534164 
0.0053832470932 0.0053638410205 0.0053445342424 0.0053253264018 0.0053062168999 0.0052872053615 0.0052682907893 0.005249472616 0.0052307504088 
0.0052121237061 0.0051935918481 0.0051751540905 0.0051568102454 0.0051385598758 0.0051204015888 0.0051023358591 0.0050843617166 0.0050664783514 
0.0050486856585 0.0050309828974 0.0050133695251 0.0049958449025 0.0049784086857 0.0049610604862 0.0049437992825 0.0049266247009 0.0049095363263 
0.0054551120756 0.0054353214928 0.0054156326627 0.0053960454327 0.00537655825 0.0053571714482 0.0053378842063 0.0053186961453 0.0052996062627 
0.0052806142268 0.0052617191284 0.0052429206041 0.0052242181443 0.0052056108455 0.0051870988189 0.005168681131 0.0051503571995 0.0051321269152 
0.0051139887263 0.005095943062 0.0050779891553 0.0050601259876 0.0050423535433 0.0050246710803 0.005007078055 0.0049895738522 0.0049721582765 
0.0049548303081 0.0049375896273 0.0049204356765 0.0054681847903 0.0054483112008 0.0054285398688 0.0054088711018 0.0053893034953 0.0053698363739 
0.0053504694333 0.0053312022977 0.0053120334526 0.0052929636396 0.0052739912737 0.0052551161545 0.0052363375285 0.0052176552109 0.0051990684255 
0.0051805765607 0.0051621792078 0.0051438759319 0.0051256657274 0.0051075480337 0.0050895229309 0.0050715894853 0.0050537469895 0.0050359952104 
0.0050183334645 0.0050007613237 0.0049832779481 0.0049658830114 0.0049485760566 0.0049313562733 0.0054812859413 0.0054613285351 0.0054414750871 
0.0054217241834 0.0054020755782 0.0053825278205 0.005363081064 0.0053437346205 0.0053244872213 0.0053053389334 0.0052862894145 0.0052673369137 
0.0052484822164 0.0052297242536 0.0052110624473 0.0051924961736 0.0051740250295 0.0051556486511 0.0051373658065 0.0051191764653 0.0051010796535 
0.0050830754744 0.0050651630173 0.0050473414505 0.0050296108423 0.0050119703631 0.0049944192327 0.0049769571437 0.0049595836005 0.0049422978759 
0.0054944151434 0.005474374399 0.0054544379847 0.0054346048833 0.0054148745271 0.0053952460917 0.0053757191689 0.0053562928652 0.0053369664258 
0.0053177397308 0.0052986118927 0.0052795830865 0.0052606518627 0.0052418179684 0.0052230805913 0.0052044396388 0.0051858944377 0.0051674446476 
0.0051490889773 0.0051308274219 0.0051126589738 0.0050945838028 0.0050766009619 0.0050587098607 0.0050409098154 0.005023200895 0.005005581784 
0.0049880523629 0.0049706119091 0.004953259907 0.0055075722832 0.005487448061 0.0054674282442 0.0054475126306 0.0054277002977 0.0054079904219 
0.0053883832974 0.0053688768778 0.0053494712224 0.005330165513 0.0053109598002 0.0052918535555 0.0052728455194 0.0052539354374 0.0052351227809 
0.0052164069055 0.0051977873824 0.005179263561 0.0051608349243 0.0051425008361 0.0051242608774 0.0051061140777 0.0050880606354 0.0050700995779 
0.0050522303449 0.005034452311 0.0050167649968 0.0049991679637 0.0049816606762 0.0049642424037 0.0055207566258 0.0055005486854 0.0054804454495 
0.0054604469134 0.005440552388 0.0054207612736 0.005401072936 0.0053814862498 0.0053620007762 0.0053426162568 0.0053233321851 0.0053041478711 
0.0052850631099 0.0052660765616 0.0052471880692 0.0052283970054 0.0052097028513 0.0051911053458 0.0051726033611 0.0051541966273 0.0051358842565 
0.0051176663265 0.0050995417001 0.005081510405 0.0050635714696 0.0050457247575 0.0050279688023 0.0050103039192 0.0049927293569 0.0049752446449 
0.0055339685087 0.005513676122 0.0054934890931 0.0054734074722 0.0054534305372 0.0054335573503 0.005413787585 0.0053941203936 0.0053745551786 
0.0053550913911 0.0053357286677 0.0053164663388 0.0052973038041 0.005278240879 0.0052592762253 0.0052404097288 0.005221640716 0.0052029686859 
0.0051843934224 0.005165913722 0.0051475293446 0.0051292396302 0.0051110439803 0.0050929418289 0.0050749333384 0.0050570171054 0.0050391928066 
0.0050214596727 0.0050038177183 0.0049862662148 0.0055472069882 0.0055268299456 0.005506558812 0.0054863939074 0.0054663341244 0.0054463787854 
0.0054265271921 0.0054067790555 0.0053871338417 0.0053675904354 0.0053481487628 0.0053288081286 0.005309567927 0.0052904278251 0.0052713869289 
0.0052524446714 0.0052336005434 0.0052148540269 0.0051962049327 0.0051776520633 0.0051591950717 0.0051408334271 0.0051225665681 0.0051043940329 
0.0050863151284 0.0050683291294 0.0050504360936 0.0050326349543 0.005014924932 0.0049973064504 0.0055604719019 0.0055400096334 0.0055196545985 
0.005499405398 0.0054792626796 0.0054592245949 0.0054392912814 0.0054194619313 0.0053997360208 0.0053801129611 0.0053605920442 0.0053411728071 
0.0053218546577 0.0053026370419 0.0052835196748 0.0052645013865 0.0052455818828 0.0052267606673 0.0052080374399 0.0051894110077 0.0051708811693 
0.0051524473368 0.0051341088973 0.0051158653515 0.0050977161526 0.0050796604756 0.0050616983241 0.0050438284857 0.0050260511605 0.0050083652466 
0.0055737627008 0.0055532151443 0.0055327751707 0.0055124418636 0.0054922153866 0.0054720947577 0.0054520792341 0.0054321685031 0.0054123617427 
0.0053926582544 0.0053730580544 0.0053535598841 0.005334163497 0.0053148682776 0.0052956738063 0.0052765794467 0.0052575842571 0.0052386879342 
0.0052198903277 0.005201190181 0.0051825872392 0.0051640809412 0.0051456706404 0.0051273557131 0.0051091361019 0.0050910105328 0.005072979125 
0.0050550409114 0.0050371953889 0.0050194415586 0.0055870787555 0.0055664454861 0.0055459204613 0.0055255026619 0.0055051926134 0.0054849887148 
0.0054648907327 0.0054448980371 0.0054250101733 0.0054052261809 0.005385546001 0.0053659688984 0.0053464940433 0.0053271209257 0.0053078490088 
0.0052886779535 0.0052696070591 0.0052506354053 0.0052317631619 0.0052129890095 0.0051943127039 0.0051757333823 0.0051572509931 0.0051388650361 
0.0051205745269 0.0051023791396 0.0050842776304 0.0050662705334 0.0050483568474 0.0050305358798 0.0056004200499 0.0055797005585 0.0055590898957 
0.0055385873384 0.0055181931899 0.0054979058525 0.0054777251468 0.0054576503297 0.0054376810026 0.0054178162023 0.0053980558405 0.0053783990036 
0.0053588454934 0.0053393942454 0.005320044829 0.0053007967464 0.0052816497864 0.0052626025585 0.0052436552721 0.005224806599 0.0052060566696 
0.0051874046685 0.0051688499909 0.0051503924189 0.0051320306854 0.0051137648422 0.0050955937847 0.0050775176053 0.0050595353158 0.0050416466583 
0.0052796769447 0.0052611445871 0.0052427040454 0.005224355008 0.005206096175 0.0051879275068 0.0051698484079 0.0051518587948 0.0051339576897 
0.0051161447521 0.0050984190493 0.0050807805387 0.0050632285785 0.0050457624084 0.0050283817083 0.0050110859957 0.0049938743381 0.0049767466824 
0.0049597023651 0.0049427411548 0.0049258621221 0.0049090647515 0.0048923489062 0.0048757135992 0.004859158566 0.0048426833053 0.0048262871526 
0.0048099698844 0.00479373095 0.0047775695961 0.0052923523653 0.0052737416522 0.0052552233415 0.0052367970882 0.0052184617105 0.005200217014 
0.0051820623703 0.0051639978556 0.0051460223977 0.0051281356392 0.0051103369023 0.0050926256714 0.0050750014921 0.0050574637055 0.0050400119426 
0.0050226456408 0.0050053643953 0.0049881672169 0.0049710541501 0.0049540246846 0.004937077647 0.0049202129713 0.0049034301655 0.0048867285516 