# vtk DataFile Version 5.1
vtk output
ASCII
DATASET STRUCTURED_POINTS
DIMENSIONS 30 30 30
SPACING 0.01 0.01 0.01
ORIGIN 3.555 -0.145 0.855
POINT_DATA 27000
FIELD FieldData 3
potential 1 27000 double
0.34688843433 0.34689309145 0.3468976511 0.34690207855 0.34690631339 0.3469103956 0.34691434516 0.34691821426 0.34692179858 
0.3469252558 0.34692857686 0.34693173648 0.34693475759 0.34693758854 0.3469402389 0.34694274978 0.34694506698 0.3469471832 
0.34694912525 0.34695091455 0.34695249599 0.34695382946 0.34695506149 0.34695611478 0.34695696971 0.34695763331 0.34695812416 
0.34695840966 0.34695852999 0.34695836332 0.34643088303 0.34643553817 0.34644006973 0.34644442583 0.34644866206 0.34645271524 
0.34645670526 0.3464604779 0.34646403069 0.34646748133 0.34647075421 0.34647390064 0.34647686161 0.34647968453 0.34648233819 
0.34648479352 0.34648711342 0.34648920034 0.34649107639 0.34649284125 0.34649431565 0.34649571021 0.34649692456 0.34649794705 
0.34649880748 0.34649941919 0.3464998632 0.34650012473 0.34650019843 0.34650017473 0.34601305958 0.34601771639 0.34602220056 
0.34602652545 0.34603075569 0.34603477798 0.34603871677 0.34604240412 0.34604598225 0.34604940453 0.34605266976 0.34605576832 
0.34605868569 0.34606148156 0.34606409477 0.34606658554 0.34606885136 0.34607094239 0.34607286702 0.34607453741 0.34607596005 
0.34607730249 0.34607848888 0.34607945353 0.34608027517 0.34608090355 0.34608135756 0.3460816004 0.34608165875 0.34608152982 
0.34563530783 0.34563995777 0.34564432018 0.34564863662 0.34565287903 0.34565691503 0.34566078282 0.34566443995 0.34566798928 
0.34567138298 0.34567463513 0.34567769086 0.34568056523 0.34568333515 0.34568592395 0.34568840475 0.34569064628 0.34569268571 
0.34569457999 0.3456961293 0.34569761453 0.34569896324 0.34570013795 0.34570108857 0.34570189373 0.34570249555 0.34570291291 
0.34570315575 0.34570319467 0.34570304105 0.34529793643 0.34530247066 0.34530688163 0.34531113944 0.34531537747 0.34531942774 
0.34532325664 0.34532688348 0.34533040386 0.34533378498 0.34533697569 0.34533998318 0.34534284821 0.34534558585 0.34534817969 
0.34535058327 0.3453527605 0.34535481601 0.34535660469 0.34535827128 0.345359759 0.34536103693 0.34536217877 0.34536314424 
0.34536392217 0.34536450328 0.34536489838 0.34536509227 0.34536512447 0.3453649571 0.34500124535 0.34500577623 0.34501013302 
0.34501444217 0.34501851985 0.34502250842 0.34502634985 0.34502994877 0.34503350464 0.34503683122 0.3450399976 0.34504299048 
0.34504581003 0.3450485289 0.34505106714 0.34505342664 0.34505563799 0.34505765948 0.34505943264 0.34506107587 0.34506253843 
0.34506384556 0.3450649202 0.34506585723 0.34506660716 0.34506717477 0.34506752997 0.34506773224 0.34506777805 0.34506758386 
0.34474551156 0.34475000098 0.34475440382 0.3447586421 0.3447626911 0.34476660321 0.34477037823 0.34477397993 0.34477746583 
0.3447807623 0.34478391399 0.34478692883 0.3447897643 0.34479245471 0.34479496087 0.34479729443 0.34479948135 0.3448013992 
0.3448032135 0.34480484974 0.34480630952 0.34480757325 0.34480867137 0.34480951465 0.34481024363 0.34481079046 0.34481117914 
0.34481134303 0.3448113607 0.344811143 0.34453102862 0.34453551182 0.34453979383 0.34454400139 0.34454802244 0.34455190711 
0.34455560198 0.34455925449 0.34456269639 0.3445660005 0.34456912469 0.34457206938 0.34457490648 0.34457754582 0.34458003598 
0.34458233504 0.34458455121 0.34458643375 0.34458822501 0.34458981991 0.34459125432 0.34459249067 0.34459356659 0.34459445635 
0.34459511188 0.34459567263 0.34459600915 0.34459615474 0.34459615053 0.34459592245 0.34435794779 0.3443623581 0.34436662875 
0.34437083863 0.34437483842 0.34437868839 0.34438237062 0.34438596705 0.34438937361 0.34439264719 0.34439574789 0.34439871963 
0.34440149733 0.34440410984 0.34440657454 0.34440887585 0.34441092121 0.34441286026 0.34441460915 0.34441618347 0.34441759785 
0.34441887742 0.34441991172 0.34442078434 0.34442150819 0.34442195921 0.34442226963 0.34442239727 0.34442234559 0.34442210059 
0.34422651121 0.34423089781 0.34423512082 0.3442393021 0.34424327443 0.34424711376 0.34425074414 0.34425426923 0.34425769786 
0.34426093172 0.34426399614 0.34426694191 0.34426971748 0.34427230988 0.34427473368 0.34427693335 0.34427902414 0.34428093884 
0.34428267471 0.34428422584 0.34428561804 0.34428683148 0.34428789017 0.34428874166 0.34428941031 0.3442898481 0.3442900824 
0.34429021838 0.3442901499 0.34428991039 0.34413685567 0.34414123016 0.34414546255 0.34414955255 0.34415352524 0.34415724241 
0.34416092255 0.34416441999 0.34416778106 0.3441710286 0.34417407988 0.34417698794 0.34417972026 0.34418228754 0.34418464219 
0.34418682173 0.34418889121 0.344190786 0.34419248826 0.34419403419 0.34419540416 0.34419663257 0.34419762472 0.34419846475 
0.3441990837 0.344199548 0.34419980079 0.34419987461 0.34419978391 0.34419952761 0.34408906001 0.34409340728 0.3440976304 
0.34410166282 0.34410560951 0.34410931146 0.34411296529 0.34411644584 0.34411977153 0.34412299273 0.34412606042 0.34412886951 
0.34413159454 0.3441341289 0.34413644518 0.34413865878 0.34414073183 0.34414262615 0.34414428329 0.34414580741 0.34414719345 
0.34414836437 0.34414934818 0.34415014848 0.34415074694 0.34415121502 0.34415147558 0.344151574 0.34415140522 0.34415112138 
0.3440834128 0.34408773336 0.34409192822 0.34409596996 0.34409987536 0.34410352554 0.34410716578 0.3441106123 0.34411391518 
0.34411705529 0.34412009491 0.34412292827 0.34412559162 0.34412812672 0.344130411 0.34413262029 0.34413467227 0.3441365188 
0.344138196 0.34413971524 0.34414104186 0.34414218288 0.34414312433 0.34414391853 0.34414453533 0.34414496273 0.34414520432 
0.34414528531 0.34414509819 0.34414479755 0.3441199173 0.34412421169 0.34412839761 0.34413239726 0.34413619494 0.34413993385 
0.34414349752 0.34414692911 0.34415023041 0.34415332454 0.34415627944 0.34415913912 0.34416178988 0.34416420418 0.34416656205 
0.34416872214 0.34417075907 0.34417263854 0.34417429296 0.34417576334 0.34417704802 0.34417817156 0.34417912121 0.34417989172 
0.34418046276 0.34418087717 0.34418109978 0.34418116329 0.34418102084 0.34418066598 0.3441986475 0.34420292223 0.34420707401 
0.34421105469 0.34421483768 0.34421855193 0.34422208417 0.34422548181 0.34422874277 0.34423181467 0.34423475328 0.34423753729 
0.34424014386 0.3442426027 0.34424490954 0.34424707512 0.34424908029 0.34425092774 0.34425257678 0.34425403322 0.34425531636 
0.34425640305 0.34425733274 0.34425808381 0.34425863606 0.3442590245 0.34425923341 0.34425927979 0.34425912949 0.34425885008 
0.34431964975 0.34432394289 0.34432802681 0.34433199257 0.34433573631 0.3443394009 0.34434296347 0.34434633049 0.34434954582 
0.34435259118 0.34435550886 0.34435826862 0.3443608497 0.34436328931 0.34436556976 0.34436772309 0.34436971199 0.34437150935 
0.34437309574 0.34437458053 0.34437584206 0.34437692825 0.34437781745 0.34437854867 0.34437908171 0.34437945351 0.34437967733 
0.34437971032 0.34437956896 0.34437920375 0.3444829714 0.3444872089 0.34449129201 0.34449522275 0.3444989246 0.3445025649 
0.34450611916 0.34450948481 0.34451263427 0.34451567321 0.3445185669 0.34452123805 0.34452381666 0.34452628389 0.34452858874 
0.34453065748 0.34453257894 0.34453438795 0.3445359717 0.34453740963 0.3445386765 0.34453974239 0.34454063199 0.34454136142 
0.3445418944 0.34454222907 0.34454239925 0.34454244437 0.34454225414 0.34454187286 0.34468859063 0.34469277811 0.34469682261 
0.34470065338 0.34470442351 0.34470803964 0.34471154078 0.34471493145 0.3447180601 0.34472105099 0.3447238862 0.3447265981 
0.34472915335 0.34473156272 0.34473383066 0.34473589857 0.34473779583 0.34473953211 0.34474114985 0.34474254308 0.3447438246 
0.34474489679 0.34474576687 0.3447464598 0.34474697435 0.34474727136 0.34474744357 0.34474745183 0.3447472378 0.34474682681 
0.34493647675 0.34494060391 0.3449446155 0.34494841254 0.34495215946 0.34495575222 0.3449592943 0.34496265237 0.3449657781 
0.34496866302 0.34497149277 0.34497417 0.34497674761 0.34497911865 0.34498132068 0.34498340909 0.34498532056 0.34498703568 
0.34498857965 0.34499000556 0.34499123212 0.34499225863 0.34499313587 0.34499381006 0.34499430636 0.34499462366 0.34499476259 
0.34499472665 0.3449944955 0.34499407487 0.34522654279 0.3452306422 0.34523468226 0.3452384386 0.34524216255 0.34524573211 
0.34524922405 0.34525247613 0.34525561973 0.34525851578 0.3452613194 0.34526402677 0.34526657392 0.34526892442 0.34527110434 
0.34527312934 0.34527502475 0.34527671647 0.34527824305 0.34527961595 0.34528085509 0.34528186229 0.34528269641 0.34528337854 
0.34528385034 0.3452841479 0.34528430811 0.34528422526 0.34528397806 0.34528354152 0.34555876872 0.34556289617 0.34556674913 
0.34557057917 0.34557426445 0.3455778392 0.34558127128 0.34558452353 0.34558757319 0.34559054403 0.34559338601 0.3455959855 
0.34559847648 0.34560083056 0.34560298852 0.34560498697 0.3456068245 0.34560851464 0.34561004285 0.34561137536 0.34561259243 
0.34561359935 0.3456144131 0.34561505103 0.34561554001 0.34561584742 0.34561596378 0.34561588322 0.34561559255 0.34561515495 
0.34593304885 0.34593712764 0.34594094528 0.34594475828 0.34594843787 0.34595198329 0.34595538158 0.3459585346 0.34596161973 
0.34596462106 0.34596738991 0.34596999405 0.34597243837 0.34597474362 0.34597688049 0.34597885838 0.34598070082 0.34598233102 
0.34598387881 0.34598518576 0.3459863487 0.34598737928 0.34598817465 0.34598879461 0.34598926517 0.34598955506 0.34598967362 
0.34598955741 0.34598926485 0.34598876978 0.34634920186 0.34635314236 0.34635702459 0.34636081793 0.3463645008 0.34636800435 
0.34637132277 0.34637450837 0.34637761311 0.34638052522 0.34638329783 0.34638590296 0.34638830291 0.34639059096 0.34639271801 
0.34639466575 0.34639645911 0.34639807092 0.34639960042 0.34640091716 0.34640204081 0.34640301401 0.34640385554 0.34640445872 
0.34640491306 0.34640518041 0.34640528529 0.34640513355 0.34640484825 0.34640436112 0.34680706398 0.34681101695 0.34681488373 
0.34681861177 0.34682228583 0.34682576785 0.34682905683 0.34683227151 0.34683531368 0.34683820447 0.34684092969 0.34684353856 
0.34684596459 0.34684817816 0.3468502849 0.34685221182 0.34685399167 0.34685558384 0.34685703111 0.34685836925 0.3468594748 
0.34686045168 0.3468612302 0.34686188594 0.34686229272 0.34686255202 0.34686260217 0.34686247104 0.34686214918 0.34686166713 
0.347306485 0.34731041701 0.34731427769 0.34731797539 0.34732163724 0.3473250481 0.34732839392 0.34733157822 0.34733458351 
0.34733745332 0.34734014722 0.34734273787 0.34734514348 0.34734736469 0.34734942945 0.34735133575 0.34735309551 0.34735466831 
0.34735609738 0.34735737302 0.34735849559 0.34735941528 0.3473601768 0.34736079919 0.34736125295 0.34736149683 0.3473615295 
0.34736133843 0.34736108247 0.34736058519 0.34784720694 0.34785121552 0.34785507227 0.34785874931 0.34786230749 0.34786578828 
0.34786907232 0.34787222736 0.3478752282 0.34787806109 0.3478807447 0.34788328744 0.34788569531 0.34788792224 0.34788996291 
0.34789182608 0.34789356703 0.34789511239 0.34789652266 0.34789779251 0.34789885833 0.3478997902 0.34790056561 0.34790114366 
0.34790156122 0.34790178902 0.34790185302 0.34790167299 0.34790133159 0.34790084601 0.34842913645 0.34843312454 0.348436961 
0.34844061095 0.34844419527 0.34844759683 0.34845087639 0.3484540192 0.34845699957 0.34845982662 0.34846247296 0.34846499556 
0.34846736166 0.34846959226 0.34847163274 0.34847345778 0.34847516711 0.34847670559 0.34847809736 0.34847934155 0.34848039357 
0.34848127462 0.34848204275 0.34848264463 0.34848303183 0.34848327738 0.34848326074 0.34848308706 0.3484827907 0.34848230563 
0.3490519411 0.3490559039 0.3490596814 0.34906343604 0.34906692547 0.34907030698 0.34907357588 0.34907669811 0.34907965807 
0.34908245722 0.34908509783 0.34908758378 0.34908992168 0.34909213197 0.34909415282 0.34909599586 0.34909766413 0.34909917654 
0.3491005454 0.34910177629 0.34910281529 0.34910374553 0.34910445122 0.34910500054 0.34910541909 0.34910562101 0.34910564734 
0.34910546215 0.34910507534 0.34910453991 0.34971532026 0.34971925457 0.34972308833 0.34972678634 0.34973027803 0.34973360657 
0.34973686333 0.34973996517 0.34974290507 0.34974568904 0.3497483066 0.34975078916 0.34975308887 0.34975526086 0.34975728368 
0.34975912603 0.34976077426 0.34976225094 0.349763622 0.34976487518 0.34976589264 0.34976676061 0.34976743588 0.34976799425 
0.34976837979 0.34976855068 0.34976852765 0.34976836999 0.34976798302 0.34976741873 0.35041895798 0.3504229363 0.35042678329 
0.35043042116 0.35043386834 0.35043722628 0.35044044566 0.35044352721 0.35044643838 0.35044920238 0.35045180464 0.35045427048 
0.35045657764 0.35045870786 0.35046070501 0.35046254661 0.35046417186 0.35046566909 0.35046700707 0.35046820398 0.35046923151 
0.35047011862 0.35047077772 0.35047124263 0.35047157473 0.35047178175 0.35047174357 0.35047157214 0.35047117016 0.3504706066 
0.34737130518 0.34737586792 0.34738028646 0.3473846073 0.34738870023 0.34739264283 0.34739650056 0.34740010264 0.34740362594 
0.34740698014 0.34741015738 0.34741321983 0.34741607245 0.34741881384 0.34742136237 0.34742376452 0.34742593612 0.34742792186 
0.34742980907 0.34743149298 0.34743290351 0.34743421557 0.34743535839 0.34743632572 0.34743709861 0.34743770137 0.34743806748 
0.34743830101 0.34743828358 0.34743819028 0.34692939818 0.34693398023 0.34693832711 0.34694257231 0.34694667811 0.34695063785 
0.34695442871 0.34695800565 0.34696150357 0.34696483114 0.34696800383 0.34697100216 0.34697386084 0.34697656336 0.34697908717 
0.34698146477 0.3469836503 0.34698563044 0.34698746821 0.34698903627 0.34699047786 0.34699178133 0.34699287392 0.34699382034 
0.34699454398 0.34699511111 0.34699549169 0.34699571011 0.34699570926 0.34699554195 0.34652619839 0.34653067884 0.34653502865 
0.34653923905 0.34654329313 0.34654722969 0.34655099354 0.34655454347 0.34655801639 0.34656131738 0.34656446233 0.34656743716 
0.34657025059 0.34657293389 0.34657544645 0.34657779845 0.34657995986 0.34658193812 0.34658369052 0.34658525534 0.34658670137 
0.34658794602 0.34658905761 0.34658995611 0.34659069028 0.34659123728 0.34659160026 0.34659180207 0.34659178958 0.34659159359 
0.34616186162 0.34616630157 0.34617067426 0.34617487208 0.34617891338 0.34618283109 0.34618651114 0.34619009366 0.34619353464 
0.34619680833 0.34619992675 0.3462028542 0.34620564342 0.34620828505 0.34621078695 0.34621309908 0.34621527018 0.34621723513 
0.3462188876 0.34622046747 0.346221887 0.34622314754 0.346224228 0.34622512611 0.34622584818 0.34622637617 0.34622672092 
0.34622686825 0.34622685257 0.34622664042 0.34583688485 0.34584131974 0.34584557217 0.34584979306 0.34585378568 0.34585767523 
0.34586137432 0.34586493252 0.34586833239 0.3458715789 0.34587468538 0.345877593 0.34588038402 0.34588297652 0.3458853836 
0.34588769816 0.34588984742 0.34589178865 0.34589348613 0.34589506009 0.3458964128 0.345897652 0.34589871173 0.34589958977 
0.34590029198 0.345900804 0.34590113525 0.3459012851 0.34590125302 0.34590102463 0.34555154696 0.34555593332 0.34556016969 
0.3455643301 0.34556828075 0.34557212956 0.34557580758 0.34557934377 0.34558272009 0.34558591147 0.34558902609 0.34559190393 
0.3455946538 0.34559723853 0.34559965565 0.34560194753 0.34560405586 0.34560591103 0.34560766433 0.34560919581 0.34561059387 
0.34561176525 0.34561280399 0.3456136655 0.3456143521 0.34561484236 0.34561515009 0.34561528345 0.34561521556 0.34561499479 
0.34530606011 0.34531041804 0.34531462861 0.34531876108 0.34532268766 0.34532642592 0.3453300664 0.34533362625 0.34533698962 
0.34534018431 0.34534322508 0.34534608697 0.34534879911 0.34535137154 0.34535384089 0.34535606835 0.34535813754 0.34535998219 
0.34536171946 0.34536324916 0.34536460327 0.34536580535 0.3453667744 0.34536761802 0.3453682805 0.34536873282 0.34536902245 
0.34536913583 0.34536908529 0.34536883866 0.34510068477 0.34510497442 0.34510918595 0.34511326469 0.34511716544 0.34512085815 
0.34512449514 0.34512806263 0.34513140659 0.34513457545 0.34513757035 0.34514041573 0.34514311499 0.34514568336 0.34514806979 
0.34515029408 0.3451522444 0.34515414167 0.34515584337 0.34515740682 0.34515873915 0.34515991589 0.34516089917 0.34516166616 
0.34516230878 0.34516275909 0.3451630654 0.34516315587 0.34516302938 0.34516276718 0.34493560636 0.34493991056 0.34494409583 
0.34494811804 0.34495202274 0.34495568763 0.344959299 0.34496277331 0.34496613715 0.3449692997 0.34497226177 0.34497509387 
0.34497776833 0.34498031228 0.34498267553 0.34498480289 0.34498682502 0.34498868436 0.34499036322 0.34499183113 0.34499317339 
0.34499430869 0.34499528519 0.34499607632 0.3449966423 0.34499715685 0.34499740922 0.34499745595 0.34499736739 0.34499703204 
0.34481111378 0.34481537533 0.34481953386 0.34482353031 0.34482740877 0.34483105835 0.34483464876 0.34483808119 0.3448413484 
0.34484453507 0.34484749551 0.34485030278 0.34485298577 0.34485547249 0.3448578128 0.34485990853 0.34486192855 0.34486373642 
0.34486539277 0.34486685669 0.3448681607 0.34486924679 0.34487020538 0.34487102004 0.34487159107 0.34487192812 0.34487216398 
0.3448722487 0.34487212538 0.34487180539 0.34472723117 0.34473147244 0.34473558772 0.34473955905 0.34474338199 0.34474705257 
0.34475060094 0.34475400748 0.34475728617 0.34476037861 0.34476336096 0.34476617735 0.34476882709 0.34477126822 0.34477349773 
0.34477563442 0.34477763248 0.34477943516 0.344781064 0.34478250793 0.34478380143 0.34478491788 0.34478588194 0.34478663571 
0.34478718676 0.34478761304 0.34478777429 0.3447878238 0.344787684 0.34478735589 0.34468426311 0.34468849264 0.34469258513 
0.34469651092 0.34470023994 0.34470395245 0.34470748547 0.34471085749 0.3447140771 0.34471711897 0.34472008052 0.34472290506 
0.34472549124 0.34472788811 0.34473016414 0.34473229109 0.34473424509 0.34473604251 0.34473767851 0.34473908305 0.34474035331 
0.34474147696 0.34474234745 0.34474311913 0.34474368248 0.34474406969 0.3447442703 0.34474424578 0.34474408959 0.34474374601 
0.34468224825 0.34468648626 0.34469053806 0.34469444189 0.34469815017 0.34470179399 0.3447053169 0.34470866925 0.34471186382 
0.34471488862 0.34471780158 0.34472058214 0.34472318584 0.34472552474 0.34472780201 0.34472991734 0.34473184555 0.34473362412 
0.34473524027 0.34473664178 0.34473787115 0.34473896897 0.34473986838 0.34474057901 0.34474112373 0.3447414924 0.34474169142 
0.34474163828 0.34474146103 0.34474110189 0.34472131163 0.34472549776 0.34472952537 0.34473343986 0.34473712123 0.34474070085 
0.34474422258 0.34474753377 0.34475069738 0.34475369231 0.3447565934 0.34475929122 0.34476182457 0.34476424676 0.34476647584 
0.34476859414 0.34477050301 0.3447722632 0.3447738672 0.34477526378 0.34477649249 0.34477752747 0.34477840756 0.34477909258 
0.34477962537 0.34477997583 0.34478015551 0.34478014797 0.34477989414 0.34477955673 0.34480147435 0.34480563573 0.34480965733 
0.3448135436 0.344817197 0.34482073975 0.34482423142 0.34482751769 0.3448306639 0.34483365398 0.34483649682 0.34483912239 
0.34484165664 0.34484407373 0.34484631307 0.34484836216 0.34485028581 0.34485203573 0.34485358208 0.34485498424 0.34485619256 
0.34485722768 0.34485806855 0.34485873475 0.3448592434 0.34485958824 0.34485979064 0.34485976624 0.34485955734 0.34485909956 
0.34492280401 0.34492694109 0.34493095363 0.3449347299 0.34493841901 0.34494198237 0.34494538582 0.344948661 0.34495175832 
0.34495476731 0.34495758753 0.34496018991 0.34496269941 0.34496512199 0.34496731063 0.34496933473 0.3449712508 0.34497295011 
0.34497450163 0.34497586084 0.34497707285 0.34497808894 0.34497893439 0.34497958181 0.34498009113 0.34498040478 0.34498055716 
0.34498051631 0.34498029179 0.34497991469 0.34508531461 0.34508946411 0.34509340009 0.34509716079 0.34510084899 0.34510438543 
0.3451077902 0.34511099606 0.34511412598 0.34511707675 0.34511983925 0.34512248229 0.3451249694 0.34512726762 0.34512947627 
0.34513152068 0.34513340993 0.34513508848 0.34513657567 0.34513795949 0.3451391887 0.34514018573 0.34514100932 0.34514165821 
0.34514209346 0.34514238993 0.34514252221 0.34514246779 0.34514224722 0.34514183016 0.34528906872 0.34529313267 0.34529706171 
0.34530080751 0.34530444376 0.34530795778 0.34531134288 0.34531458977 0.34531767371 0.34532054204 0.34532329967 0.34532591988 
0.3453283738 0.34533068554 0.3453328642 0.34533489002 0.34533672673 0.34533845233 0.34533992149 0.34534126059 0.34534245979 
0.34534343802 0.34534424326 0.34534487426 0.34534531173 0.34534559132 0.34534569091 0.34534560958 0.34534538282 0.34534494854 
0.34553391966 0.34553797014 0.34554178221 0.34554558209 0.34554924198 0.34555273369 0.34555609646 0.34555932388 0.34556231293 
0.34556518694 0.34556792784 0.34557052667 0.34557297002 0.34557533469 0.34557746081 0.3455794165 0.34558125306 0.345582912 
0.34558439244 0.34558569258 0.3455868453 0.34558785472 0.34558864184 0.34558925518 0.34558969359 0.34558993288 0.3455900386 
0.34558995081 0.34558968063 0.34558923218 0.34581996131 0.34582390479 0.34582771062 0.34583145547 0.34583508569 0.34583855085 
0.34584189111 0.34584509649 0.34584811105 0.34585097737 0.34585370843 0.34585628627 0.34585874864 0.3458610186 0.34586312292 
0.34586505348 0.34586683465 0.34586851399 0.34586994226 0.3458712572 0.34587238951 0.34587335417 0.34587414546 0.34587474151 
0.34587516308 0.34587541177 0.34587550734 0.34587539055 0.34587509307 0.34587461295 0.34614699499 0.34615082464 0.34615468049 
0.34615842018 0.34616201218 0.34616546124 0.34616880589 0.34617190099 0.34617490422 0.34617776801 0.34618046084 0.34618308236 
0.34618548743 0.34618773228 0.34618981609 0.3461917259 0.3461934874 0.34619510887 0.34619655632 0.34619781879 0.34619894117 
0.34619988518 0.34620066166 0.34620126645 0.34620167306 0.34620190606 0.34620198517 0.34620185281 0.34620156352 0.34620104665 
0.34651489801 0.3465187444 0.34652255185 0.34652627079 0.34652984641 0.34653325796 0.34653654161 0.34653966926 0.34654265108 
0.34654549402 0.34654822478 0.34655074311 0.34655313084 0.34655535473 0.34655744539 0.34655933569 0.34656107875 0.34656267645 
0.34656410526 0.3465653503 0.34656646266 0.34656738996 0.34656815 0.34656871299 0.34656911425 0.34656937718 0.34656940112 
0.34656925882 0.34656892381 0.3465684343 0.34692360996 0.34692748497 0.3469312121 0.34693491086 0.34693847149 0.34694188579 
0.34694510758 0.34694824049 0.34695121255 0.34695406334 0.34695673418 0.34695923114 0.34696159874 0.34696380247 0.34696584973 
0.34696771399 0.34696943843 0.34697104485 0.34697242017 0.34697368233 0.34697474089 0.34697566638 0.34697640656 0.34697697766 
0.34697735507 0.34697762564 0.3469776275 0.34697745407 0.34697711812 0.34697660053 0.34737287435 0.34737681051 0.34738056379 
0.34738421277 0.34738775165 0.34739113371 0.34739434848 0.3473974609 0.34740045291 0.34740324298 0.34740589372 0.34740839564 
0.34741071091 0.34741289488 0.34741492284 0.34741678422 0.34741847916 0.34742004507 0.34742140154 0.34742261133 0.34742370872 
0.34742458007 0.34742534553 0.34742590011 0.34742628356 0.34742647594 0.34742648833 0.34742630086 0.34742594622 0.34742542812 
0.34786269783 0.34786661478 0.34787034951 0.34787401192 0.34787745921 0.34788086164 0.34788407858 0.34788719434 0.34789012628 
0.34789288936 0.34789552036 0.34789800262 0.34790032376 0.34790246825 0.34790447049 0.34790631935 0.34790799431 0.34790949639 
0.34791088156 0.3479120736 0.34791310208 0.34791399043 0.34791468736 0.34791530945 0.34791567406 0.34791583275 0.34791580942 
0.34791563762 0.3479152656 0.34791473609 0.34839280964 0.34839669361 0.34840041204 0.3484040052 0.34840751629 0.34841083764 
0.34841409627 0.34841716941 0.34842006473 0.34842281442 0.34842542626 0.34842788903 0.34843019069 0.34843233649 0.34843429813 
0.34843612748 0.34843778444 0.34843926834 0.34844063982 0.34844180642 0.34844281382 0.34844364862 0.34844434888 0.34844489523 
0.34844530899 0.34844545442 0.34844543757 0.34844522141 0.34844489644 0.34844435271 0.34896295203 0.34896682647 0.34897053439 
0.34897409462 0.34897760098 0.34898092031 0.34898411913 0.34898716611 0.34899007253 0.34899278522 0.34899537793 0.34899782202 
0.34900010345 0.34900223272 0.34900417205 0.34900598298 0.34900762476 0.34900908264 0.34901043328 0.34901158651 0.34901257698 
0.34901339899 0.34901407817 0.3490145901 0.34901500506 0.34901516146 0.34901513525 0.34901491312 0.34901452333 0.34901399171 
0.34957287993 0.34957669579 0.34958043149 0.34958397338 0.34958750991 0.34959079187 0.34959395121 0.34959696964 0.34959985611 
0.34960256778 0.34960512877 0.34960754461 0.34960981228 0.34961192345 0.34961383907 0.34961562865 0.34961724862 0.34961869253 
0.34962002616 0.3496211664 0.34962214002 0.34962294553 0.34962361398 0.34962411767 0.34962444259 0.34962465337 0.34962460546 
0.34962436695 0.34962395944 0.349623466 0.35022232273 0.35022613986 0.35022984437 0.35023344318 0.35023686013 0.3502401486 
0.35024329042 0.35024629177 0.35024916594 0.35025185763 0.35025440758 0.35025678972 0.35025903345 0.35026112451 0.35026305203 
0.35026480181 0.35026641127 0.35026782936 0.35026914559 0.35027026901 0.35027122632 0.35027208034 0.35027271453 0.35027316785 
0.35027344709 0.35027362945 0.35027366028 0.35027340689 0.35027297398 0.35027240401 0.3509109121 0.35091474545 0.3509184769 
0.35092205732 0.35092545518 0.35092872422 0.35093186346 0.35093482615 0.35093768124 0.35094035366 0.35094288772 0.35094526711 
0.35094748123 0.3509495395 0.35095145192 0.35095321116 0.35095478058 0.35095618113 0.35095749669 0.35095864163 0.35095958262 
0.35096037652 0.35096096778 0.3509614201 0.35096173847 0.3509618298 0.35096186121 0.35096160081 0.35096118447 0.35096057116 
0.34781614325 0.34782051008 0.34782477 0.34782890578 0.34783293548 0.3478367921 0.34784037537 0.34784391784 0.34784729935 
0.34785054956 0.34785364543 0.34785654563 0.34785928031 0.34786188324 0.34786434876 0.3478665853 0.34786869949 0.34787063222 
0.34787239317 0.34787390181 0.34787529056 0.34787653069 0.34787756491 0.347878439 0.34787913078 0.34787963857 0.3478799182 
0.34788004553 0.34788001546 0.34787979694 0.34738949695 0.34739383836 0.34739807348 0.34740218482 0.34740617577 0.34741000408 
0.34741357228 0.34741709096 0.34742044767 0.34742367056 0.34742672781 0.34742961677 0.34743233497 0.34743492528 0.34743735496 
0.34743960618 0.34744166839 0.34744355842 0.34744527129 0.34744678513 0.34744816209 0.34744937569 0.3474504289 0.34745120962 
0.34745188409 0.34745237519 0.34745268893 0.34745282001 0.34745275522 0.34745250256 0.34700039565 0.34700471289 0.34700896055 
0.34701307503 0.34701701908 0.3470208045 0.3470243755 0.34702786924 0.34703121408 0.34703440031 0.34703743341 0.34704027963 
0.34704298426 0.34704553891 0.3470479417 0.34705016919 0.34705224506 0.34705407415 0.34705574132 0.34705724753 0.34705860444 
0.34705979162 0.34706080831 0.34706165371 0.34706231026 0.34706278313 0.34706307546 0.34706316521 0.347063102 0.34706282559 
0.34664923773 0.34665359056 0.34665778253 0.34666187264 0.34666571632 0.34666949586 0.34667308844 0.3466765566 0.34667988206 
0.34668303877 0.34668604143 0.34668888385 0.34669157721 0.34669410326 0.34669647042 0.34669868763 0.34670070169 0.34670260093 
0.34670416095 0.34670567927 0.34670700988 0.34670818461 0.34670918246 0.34671000851 0.34671064715 0.34671110269 0.34671137845 
0.34671147905 0.34671138272 0.34671113631 0.34633641 0.34634067596 0.34634490476 0.34634893564 0.34635275713 0.3463564739 
0.34636003967 0.34636348289 0.3463667827 0.3463699533 0.34637293123 0.3463757553 0.34637837891 0.34638089089 0.34638321616 
0.34638542756 0.34638744156 0.34638925917 0.3463909027 0.34639237023 0.34639368044 0.34639483545 0.34639581414 0.3463966212 
0.34639724193 0.34639768203 0.34639793933 0.34639802713 0.34639791971 0.34639765244 0.34606209741 0.34606637237 0.3460705225 
0.3460744469 0.34607834416 0.34608197698 0.34608552737 0.34608894903 0.34609222544 0.34609533702 0.34609828507 0.34610108509 
0.3461037273 0.34610625902 0.34610858079 0.34611073596 0.34611268466 0.34611452863 0.34611619031 0.34611765371 0.34611889943 
0.34612003476 0.34612099434 0.34612178243 0.34612238854 0.34612281119 0.34612306124 0.34612312481 0.34612299796 0.34612267378 
0.34582663712 0.34583084482 0.34583488373 0.34583882119 0.34584265799 0.34584630305 0.3458498318 0.34585323254 0.34585652753 
0.34585962642 0.34586253624 0.34586531257 0.34586794197 0.34587040227 0.34587270051 0.34587485761 0.34587673954 0.34587862172 
0.34588026138 0.3458817041 0.34588297642 0.34588404573 0.34588499016 0.34588575328 0.34588634395 0.34588674941 0.34588698732 
0.34588700502 0.34588682769 0.34588654181 0.34563013603 0.34563431966 0.34563838052 0.34564229888 0.34564607769 0.34564968807 
0.34565320805 0.34565660651 0.34565989231 0.34566295882 0.34566583861 0.34566859142 0.34567119847 0.34567363582 0.34567592983 
0.34567797444 0.34567993733 0.3456816969 0.34568334834 0.34568477054 0.34568602553 0.34568711367 0.34568803348 0.34568877988 
0.3456893335 0.34568972507 0.34568990191 0.34568995869 0.34568981822 0.34568947148 0.34547294954 0.34547706645 0.34548113808 
0.34548503493 0.34548878884 0.34549237434 0.34549585168 0.34549922426 0.345502469 0.34550555112 0.34550840743 0.34551113691 
0.34551369856 0.34551612489 0.34551840816 0.34552042836 0.34552237322 0.34552413715 0.34552573536 0.3455271484 0.34552837877 
0.34552943799 0.34553034103 0.34553101698 0.34553154915 0.34553188149 0.34553208783 0.34553209765 0.34553193551 0.3455316306 
0.34535518019 0.34535930599 0.34536331707 0.3453671916 0.34537086125 0.34537448171 0.34537794249 0.34538130353 0.34538451973 
0.34538755416 0.34539043342 0.34539312878 0.34539567879 0.34539808492 0.34540024507 0.34540227167 0.34540418639 0.34540594534 
0.345407519 0.345408884 0.34541012569 0.34541116533 0.34541204517 0.34541271917 0.34541322433 0.34541361231 0.34541379977 
0.34541379379 0.34541361617 0.3454132538 0.34527699876 0.34528112643 0.34528511514 0.34528896564 0.34529260604 0.34529617387 
0.34529966639 0.34530297868 0.34530611675 0.3453091019 0.34531197388 0.34531468101 0.34531720917 0.34531955756 0.34532177092 
0.34532381897 0.3453256921 0.345327427 0.34532897863 0.34533033515 0.34533154788 0.34533257831 0.34533340959 0.34533415603 