# vtk DataFile Version 5.1
vtk output
ASCII
DATASET STRUCTURED_POINTS
DIMENSIONS 76 38 38
SPACING 0.002 0.002 0.002
ORIGIN 0.1914 -0.040672 0.03932
POINT_DATA 109744
FIELD FieldData 1
potential 1 109744 double
0.011062752743 0.011248267527 0.011437760878 0.011631337686 0.011829066683 0.012031132785 0.012237510987 0.012448365072 0.012663816622 
0.012883957464 0.01310892439 0.013338765676 0.013573633157 0.013813639638 0.0140588731 0.014309449897 0.014565560659 0.014827153953 
0.015094540077 0.015367565191 0.015646434125 0.015931291702 0.016222149039 0.016519138744 0.016822370646 0.017131873449 0.017447732258 
0.017770059713 0.018098919428 0.018434335631 0.018776370474 0.019125111217 0.01948054594 0.019842741777 0.02021172454 0.020587503836 
0.020970176419 0.021359626167 0.021755923894 0.022159041698 0.022568997643 0.022985947578 0.023409513589 0.023839847266 0.024276910094 
0.024720630362 0.025170955816 0.025627920423 0.026091191009 0.026560701849 0.027036375173 0.027518096388 0.028005559575 0.028498668104 
0.028997152557 0.029500601099 0.030008773316 0.030521365848 0.031038078452 0.031558393704 0.032081795894 0.032608125332 0.033136757736 
0.033667307652 0.034199296115 0.034732147788 0.035265416263 0.035798606748 0.036331275588 0.036862856566 0.037392947059 0.037921084372 
0.038446775265 0.038969707169 0.039489392384 0.040005438839 0.010925567336 0.011107043174 0.011292357347 0.011481604788 0.011674875172 
0.011872252757 0.012073901568 0.012279831277 0.012490162224 0.012705009341 0.01292447063 0.013148668219 0.013377671404 0.013611585596 
0.013850530019 0.014094591888 0.014343951376 0.01459853165 0.014858551154 0.015124215964 0.015395317131 0.015672092633 0.015954702862 
0.016243079494 0.016537366019 0.016837647888 0.017143999792 0.017456449421 0.017775082533 0.018099960826 0.018431083922 0.018768529098 
0.019112310938 0.019462464921 0.019819013151 0.020181965475 0.020551339631 0.020927204059 0.021309423459 0.021698043248 0.022093065113 
0.022494463893 0.022902438877 0.023316474626 0.023736835012 0.024163427108 0.024596183426 0.025035018641 0.025479834659 0.02593062136 
0.026386970691 0.026848915291 0.027316256894 0.027788740986 0.028266205765 0.028748426584 0.029234904619 0.029725418014 0.030219649643 
0.030717324575 0.031217837814 0.031720881845 0.032225840641 0.032732602819 0.033240618868 0.033749318492 0.034258325886 0.034767120809 
0.03527528509 0.035782419085 0.036287979862 0.036791622601 0.037292924624 0.037791466324 0.038286917152 0.038778884777 0.010788015795 
0.010965551189 0.011146744997 0.011331733007 0.011520580655 0.011713427266 0.011910317441 0.012111408714 0.012316734015 0.012526368558 
0.012740447267 0.012959058941 0.01318231265 0.013410270662 0.013643046732 0.01388071689 0.014123375803 0.014371207678 0.01462414446 
0.014882302233 0.015145821394 0.015414895378 0.015689361014 0.015969354049 0.016254943758 0.016546236276 0.016843270985 0.017146115234 
0.017454794148 0.017769444405 0.018090008345 0.018416516784 0.018749016137 0.019087512532 0.019432044762 0.019782595777 0.02013919058 
0.020501821921 0.020870564898 0.021245240398 0.021625891944 0.022012522005 0.022405324789 0.022803818674 0.023208135926 0.023618319581 
0.024034255658 0.024455869455 0.024883049063 0.025315684731 0.025753640303 0.026196875937 0.026644987006 0.02709788328 0.027555363446 
0.02801723268 0.028483102214 0.028952651972 0.02942559028 0.02990166616 0.030380326314 0.030861254758 0.031344044447 0.03182823944 
0.032313499149 0.032799218998 0.033285209383 0.03377092959 0.034255939606 0.034739878387 0.035222249153 0.035702714701 0.036180900677 
0.036656399283 0.037128954043 0.037598148855 0.010650318867 0.010823874298 0.011001054718 0.01118183457 0.011366364846 0.011554699088 
0.011746981968 0.011943296441 0.012143635134 0.012348185875 0.012556967291 0.012770108835 0.012987697898 0.013209809483 0.013436528083 
0.013667941748 0.013904133625 0.014145267728 0.014391238762 0.014642249515 0.014898351791 0.015159596473 0.015426237156 0.015698062918 
0.015975191149 0.016257738807 0.016545740239 0.016839240043 0.0171382951 0.017442903344 0.017753180662 0.01806914424 0.018390707865 
0.018717946075 0.019050853552 0.019389440405 0.019733708276 0.020083646249 0.020439235106 0.020800557171 0.021167413069 0.021539859935 
0.021917869184 0.022301622848 0.022690656815 0.023085070465 0.023484908814 0.023890032775 0.024300358885 0.024715761702 0.025136122505 
0.025561238126 0.02599106714 0.026425294745 0.026863841961 0.027306284328 0.027752527664 0.028202130525 0.028654802403 0.029110251663 
0.029568249066 0.030028174392 0.030489751406 0.030952544219 0.031416235468 0.031880415176 0.032344611875 0.032808279524 0.033271333208 
0.033733270218 0.034193714667 0.034652230706 0.035108551513 0.035562290282 0.036013115825 0.036460740428 0.010512601562 0.010682280722 
0.010855408297 0.011032106089 0.01121236972 0.011396307256 0.011583998621 0.011775579688 0.01197112011 0.012170623736 0.012374218672 
0.012581991577 0.012794020777 0.013010401766 0.013231185914 0.013456460666 0.013686316465 0.013920812843 0.014160091137 0.014404102458 
0.014652954488 0.014906705606 0.015165449428 0.015429394921 0.015698312246 0.015972314577 0.016251510104 0.016535956097 0.016825638363 
0.017120586891 0.017420874955 0.017726511146 0.018037507902 0.018353834562 0.018675547994 0.019002572329 0.019334937672 0.019672633523 
0.020015655411 0.02036395421 0.020717617127 0.021076422653 0.021440447259 0.021809645209 0.022184177635 0.022563592605 0.022947953595 
0.023337299855 0.023731496117 0.024130424241 0.024533966983 0.024941955418 0.025354266812 0.025770691033 0.026190978339 0.026614971218 
0.027042387331 0.027473129911 0.027906512891 0.028342468071 0.028780669798 0.029220613525 0.02966204967 0.030104547003 0.030547725232 
0.030991275045 0.031434802052 0.031877872349 0.032320144857 0.03276122951 0.033200652498 0.033638421895 0.03407399939 0.034507090305 
0.034937385242 0.035364564101 0.010375069623 0.010540933246 0.010710126976 0.010882704278 0.011058756242 0.011238424864 0.011421641849 
0.011608601225 0.011799314034 0.011993936042 0.012192433445 0.012394938942 0.012601527704 0.012812278008 0.013027253223 0.013246520859 
0.013470167726 0.013698255874 0.0139309197 0.014168060138 0.014409850564 0.014656327624 0.014907514966 0.015163521848 0.015424382246 
0.015690243906 0.015960883389 0.016236468151 0.016517050267 0.016802670507 0.017093268087 0.017388934888 0.017689660414 0.017995430622 
0.018306284042 0.018622143185 0.018943028992 0.019268963986 0.019599845863 0.019935696876 0.020276487778 0.020622303008 0.020972893249 
0.021328318957 0.02168874237 0.022053724538 0.022423373783 0.022797630218 0.023176327897 0.023559503035 0.023946965084 0.024338574878 
0.024734184929 0.0251335867 0.025536605175 0.025942992184 0.026352525328 0.026764947413 0.027180029637 0.027597342314 0.028016676064 
0.028437813482 0.028860041988 0.029283209787 0.029706950369 0.030130929052 0.030554781883 0.03097817561 0.031400687955 0.031822054202 
0.032241879572 0.032659945313 0.033075856245 0.033489347576 0.033900009622 0.034307891028 0.010237955985 0.010400067164 0.010565386921 
0.010733970665 0.010905898522 0.011081249766 0.01126014174 0.011442526312 0.011628582113 0.011818314768 0.012011867603 0.012209210518 
0.0124104668 0.012615695281 0.012824994947 0.013038391637 0.013255965401 0.0134777789 0.013703896336 0.013934427225 0.014169333706 
0.014408675558 0.014652513523 0.014900925632 0.015153944496 0.01541163505 0.015674097933 0.015941118989 0.016212867013 0.016489344938 
0.016770573608 0.017056623331 0.01734742346 0.017642995728 0.017943335332 0.018248437385 0.018558249088 0.018872765159 0.01919197262 
0.019515847463 0.019844351702 0.020177492906 0.020515280962 0.020857516519 0.021204214697 0.021555546463 0.021911052036 0.02227085203 
0.02263485793 0.023002894369 0.023374999409 0.023750942313 0.024130571455 0.024513751007 0.024900252339 0.025289846624 0.025682349432 
0.026077488712 0.026475066155 0.026874641818 0.027276005829 0.027678937802 0.028082968291 0.028487751598 0.028892992072 0.029298441953 
0.029703628112 0.03010832604 0.030512096355 0.030914693406 0.031315797702 0.031715113528 0.032112420225 0.032507363964 0.032899733073 
0.033289239067 0.010101472778 0.010259928458 0.010421447356 0.010586104686 0.010753987856 0.010925150322 0.011099682207 0.011277684209 
0.01145910855 0.01164412487 0.011832784305 0.012025072022 0.012221112321 0.012420964125 0.0126246852 0.012832343555 0.013043987636 
0.013259682417 0.013479478985 0.013703423652 0.013931647317 0.014164066874 0.014400772048 0.014641789981 0.014887201817 0.015137008172 
0.015391294884 0.015649996347 0.015913327161 0.016180988417 0.016453177302 0.016729836367 0.017011042443 0.017296775553 0.017586973423 
0.017881659252 0.018180782322 0.018484364143 0.018792331555 0.019104677807 0.019421373502 0.019742379131 0.020067679006 0.020397320543 
0.02073103816 0.021068945802 0.02141111461 0.021757071407 0.022106945815 0.022460636076 0.022818038336 0.023178928984 0.023543311857 
0.023910981787 0.02428171639 0.024655315675 0.025031543531 0.025410202941 0.025791016407 0.026173764885 0.026558062625 0.026943660963 
0.027330368031 0.027717654815 0.028105360405 0.028493054115 0.028880463986 0.029267315595 0.029653313841 0.030038109757 0.030421472897 
0.030803119886 0.03118270846 0.031560085185 0.031934911732 0.032306978527 0.0099659594028 0.010120759376 0.010278552945 0.010439362564 
0.010603275688 0.010770344362 0.010940647314 0.011114229098 0.011291219017 0.011471563768 0.011655414743 0.011842813811 0.01203374445 
0.01222833511 0.012426620632 0.012628661739 0.012834516775 0.013044248738 0.013257884685 0.013475473007 0.01369714468 0.013922820778 
0.01415256031 0.014386400444 0.014624408122 0.014866613287 0.015113018619 0.015363690023 0.015618576432 0.015877855233 0.016141238454 
0.016408911464 0.016680804635 0.016956992026 0.017237405367 0.017522067993 0.017810896801 0.018103895399 0.018401075694 0.018702328401 
0.019007673758 0.019317062972 0.019630465653 0.019947827586 0.020269229704 0.020594385872 0.02092335564 0.02125623494 0.021592625165 
0.021932530717 0.022275879582 0.022622538818 0.02297228998 0.023325130791 0.023680822961 0.024039145462 0.024399883234 0.02476279801 
0.025127699869 0.025494300143 0.025862381876 0.026231576373 0.026601718304 0.026972356511 0.027343272143 0.027714138901 0.028084743481 
0.028454702264 0.028823774787 0.029191667352 0.029558114162 0.029922846633 0.03028566686 0.0306462674 0.031004531326 0.031360082713 
0.0098315633315 0.0099828234313 0.010136951581 0.010293987727 0.010454020171 0.010617076245 0.010783237292 0.010952562097 0.011125094537 
0.011300952265 0.011480088796 0.011662637513 0.01184864034 0.01203808247 0.012231067783 0.012427647611 0.012627862195 0.012831767872 
0.013039391736 0.013250806522 0.013466027982 0.013685185918 0.013908174149 0.014135067242 0.014365886222 0.014600703018 0.01483950695 
0.015082319003 0.015329203173 0.01558009068 0.015834998142 0.016094042095 0.016356972028 0.01662395482 0.016894938184 0.017169893105 
0.01744880493 0.017731664695 0.018018396725 0.018308996124 0.01860346834 0.018901690836 0.019203671523 0.019509368077 0.019818736492 
0.020131725356 0.020448361747 0.020768550864 0.021091966146 0.021418677963 0.021748585485 0.022081561519 0.022417520481 0.022756192586 
0.023097412313 0.023441138511 0.023787085071 0.024135010403 0.024484741904 0.024835991288 0.025188523277 0.025542138957 0.025896453819 
0.026251339677 0.026606331336 0.02696123516 0.027315741983 0.02766959217 0.028022661344 0.028374495371 0.028724919356 0.029073703884 
0.029420541928 0.029765279058 0.030107683517 0.030447571772 0.0096985593891 0.0098463499574 0.0099968847449 0.010150260271 0.010306448258 
0.010465589116 0.010627701793 0.010792856383 0.010961089381 0.01113245625 0.011307070983 0.011484870225 0.011665994762 0.011850469375 
0.012038283514 0.01222953465 0.012424260963 0.012622490547 0.012824291963 0.013029684408 0.013238706388 0.013451389251 0.013667898305 
0.013888026629 0.014111884651 0.014339543393 0.014570981694 0.014806224276 0.015045326124 0.015288208411 0.01553491415 0.015785427307 
0.016039746861 0.016297909924 0.016559798412 0.01682541888 0.017094767756 0.017367831204 0.017644553414 0.017924899818 0.018208874096 
0.018496417402 0.018787451601 0.019081959008 0.019379895287 0.019681214039 0.019985841714 0.020293832872 0.020605013724 0.020919112427 
0.021236173623 0.021556068678 0.021878681378 0.022203845833 0.022531412989 0.02286125092 0.023192988036 0.023526649019 0.023861886529 
0.024198525034 0.024536285283 0.024874970541 0.025214336255 0.025554138707 0.025893972499 0.02623366214 0.026572937341 0.026911519126 
0.027249241285 0.027585805144 0.027921098578 0.028254654148 0.028586376089 0.028916045381 0.029243466635 0.02956842758 0.0095671481614 
0.009711535909 0.0098585715748 0.010008336331 0.010160815899 0.01031608956 0.010474258989 0.010635329065 0.010799367415 0.010966405609 
0.011136499229 0.011309689315 0.011486103328 0.011665682597 0.011848504182 0.012034562556 0.012223940014 0.012416668175 0.012612787572 
0.012812337 0.01301534743 0.01322184942 0.013431936956 0.013645531995 0.013862669268 0.014083362243 0.014307682434 0.014535601137 
0.014767139161 0.01500233228 0.015241108908 0.015483489507 0.015729457647 0.015979009298 0.016232061215 0.016488808771 0.016748968979 
0.017012617653 0.017279707674 0.017550210636 0.017824090969 0.018101304672 0.018381855693 0.018665670999 0.018952663858 0.019242808947 
0.019536028805 0.019832273137 0.020131580521 0.020433753545 0.020738527355 0.021045930653 0.02135583746 0.021668095493 0.021982557035 
0.022299046927 0.022617387967 0.0229373365 0.023258798637 0.023581544817 0.023905256038 0.024229753308 0.024554797875 0.024880179295 
0.02520568533 0.025530913299 0.025855736318 0.026179840631 0.026503008868 0.02682507484 0.027145794146 0.027464939471 0.027782271773 
0.028097724465 0.028410924044 0.028721730061 0.009437519996 0.0095785632776 0.0097221862118 0.0098683887794 0.010017267924 0.010168817847 
0.010323087519 0.010480180361 0.010640129001 0.010802944793 0.010968687788 0.011137403131 0.011309123792 0.011483968795 0.011661927093 
0.011842938815 0.012027115496 0.012214491658 0.012405117405 0.012598977708 0.012796148964 0.012996641841 0.013200485161 0.013407801112 
0.013618408147 0.013832384092 0.014049804588 0.014270648737 0.014494912305 0.014722604078 0.014953759105 0.01518829036 0.015426215408 
0.015667522816 0.015912140002 0.016160153858 0.016411444618 0.016666119881 0.016923962264 0.017185007731 0.017449225557 0.017716573471 
0.017987010356 0.018260500401 0.018536995282 0.01881650088 0.01909881557 0.019383941575 0.01967179529 0.019962276181 0.020255588254 
0.020551031945 0.020848797435 0.021148731352 0.021450676027 0.02175448819 0.022059980273 0.022366980346 0.022675345139 0.022984663822 
0.023294976992 0.023605964406 0.023917421887 0.024229114926 0.024540908417 0.024852482472 0.025163498475 0.025473830976 0.02578325297 
0.026091519536 0.026398479903 0.02670392447 0.027007614172 0.02730940925 0.027609071088 0.02790644213 0.0093098317945 0.0094476225882 
0.0095878988027 0.0097306541766 0.0098759524104 0.010023871832 0.010174403418 0.01032758938 0.010483524191 0.010642242794 0.010803748675 
0.010968098617 0.011135330864 0.011305473911 0.011478585419 0.011654792846 0.011833962464 0.012016147809 0.012201405884 0.012389768804 
0.012581291507 0.012775961735 0.012973823538 0.013174873583 0.013379260577 0.013586778072 0.013797514101 0.014011518424 0.014228761541 
0.014449250129 0.0146729772 0.014899982164 0.015130152205 0.015363512647 0.015600050134 0.015839688821 0.016082502195 0.016328369288 
0.016577313122 0.016829358113 0.017084301908 0.017342179576 0.017602963023 0.017866589431 0.018133020215 0.018402210491 0.018674077962 
0.018948623297 0.019225637831 0.019505098492 0.019786909479 0.020071109781 0.020357384473 0.020645543707 0.020935548171 0.021227264642 
0.021520509821 0.021815105586 0.022110896337 0.022407734308 0.022705290703 0.023003440524 0.023301861563 0.023600563376 0.023899216204 
0.024197739582 0.02449565221 0.024792867715 0.025089179114 0.025384393808 0.025678308339 0.02597070184 0.026261457457 0.0265503594 
0.026837227015 0.027121836296 0.0091842372302 0.0093188297862 0.0094558230327 0.0095952274166 0.0097370628216 0.0098813853716 0.010028278343 
0.01017771165 0.010329755346 0.010484427894 0.010641810484 0.010801926513 0.010964787034 0.011130435969 0.011298911537 0.011470248109 
0.011644576817 0.011821758207 0.012001827099 0.012184874827 0.012370888644 0.012559934679 0.012752002496 0.012947114622 0.013145353243 
0.013346633979 0.013550927968 0.013758333171 0.01396880439 0.014182352238 0.014398960568 0.014618623361 0.014841355635 0.015067072258 
0.015295787591 0.015527474444 0.015762055301 0.015999579185 0.0162399837 0.016483220631 0.016729266827 0.016978124085 0.017229638434 
0.017483825256 0.01774062814 0.018000001998 0.018261856622 0.018526154084 0.018792802311 0.019061760322 0.019332875537 0.019606036025 
0.01988126872 0.02015832865 0.020436909675 0.0207170821 0.020998649291 0.021281439202 0.021565298572 0.021850027296 0.022135520621 
0.022421431539 0.022707652046 0.022994007059 0.023280153886 0.02356610298 0.023851675479 0.024136439816 0.024420292306 0.024703071026 
0.024984538688 0.025264541445 0.025542956004 0.025819586862 0.02609424452 0.026366754164 0.0090608006316 0.0091923168395 0.0093261032838 
0.0094622203619 0.0096006820361 0.0097415302858 0.0098848470546 0.010030600306 0.010178855612 0.010329650621 0.010483007316 0.010638978763 
0.010797587436 0.010958880801 0.011122867028 0.011289576745 0.011459043066 0.011631328222 0.011806487537 0.01198435924 0.012165090943 
0.012348656446 0.012535125221 0.012724490686 0.012916757332 0.013112027326 0.01331014992 0.013511154464 0.013715098104 0.013921945106 
0.014131691683 0.014344329424 0.014559855047 0.014778247023 0.014999438509 0.015223427739 0.015450143832 0.015679640991 0.015911835688 
0.016146712279 0.016384229059 0.01662431791 0.016866942409 0.017112076863 0.017359701255 0.017609680283 0.017861974845 0.018116531449 
0.018373251934 0.018632075642 0.0188929207 0.019155717883 0.019420258373 0.019686610023 0.019954365523 0.020223664267 0.020494063619 
0.02076559398 0.021038085607 0.02131134589 0.02158521099 0.021859579291 0.022134101893 0.02240867956 0.022683129077 0.022957253104 
0.02323087414 0.023503804052 0.023775830843 0.024046784536 0.024316496382 0.024584750497 0.024851424201 0.025116412806 0.025379494872 
0.025640515479 0.0089396421884 0.0090681287411 0.0091988233595 0.0093317158525 0.0094669000994 0.0096043629981 0.0097441600108 0.0098863650919 
0.010030934483 0.010177940413 0.010327407492 0.010479375458 0.01063384691 0.01079088006 0.01095050321 0.011112744275 0.011277599354 
0.011445111883 0.01161532937 0.01178824974 0.011963909687 0.012142216562 0.012323255137 0.012507063472 0.01269362981 0.012882959139 
0.013075158053 0.013270057062 0.013467684225 0.013668081429 0.013871225474 0.014077097017 0.014285689138 0.014496984095 0.014710966463 
0.014927563291 0.015146771549 0.015368531388 0.015592863495 0.015819693385 0.01604901157 0.01628075578 0.016514881286 0.016751341481 
0.0169900785 0.017231064755 0.017474231966 0.017719457419 0.017966715106 0.01821591894 0.018466950577 0.018719761501 0.018974213302 
0.019230243283 0.019487742403 0.019746411224 0.02000625379 0.020267208147 0.020528869061 0.020791188229 0.021054038602 0.021317258675 
0.021580688652 0.021844134777 0.022107356659 0.022370245571 0.022632602539 0.022894362 0.02315515618 0.023414786094 0.023673293518 
0.023930430341 0.02418599124 0.02443989685 0.024691940449 0.024942017409 0.0088208184127 0.0089463586556 0.0090740155016 0.0092038113283 
0.009335775452 0.0094699395281 0.0096063541095 0.0097450386817 0.0098860566504 0.010029380009 0.010175058451 0.010323126242 0.010473609145 
0.010626522599 0.01078191636 0.010939793221 0.011100181788 0.011263105504 0.011428592926 0.011596659677 0.011767283028 0.011940619424 
0.012116454793 0.012294853372 0.012475926947 0.012659620335 0.012845939982 0.013034994661 0.013226547388 0.013420748372 0.013617530836 
0.013816896992 0.014018834616 0.014223322376 0.014430327817 0.014639843517 0.014851798335 0.015066185015 0.015282932078 0.015502053441 
0.015723513337 0.015947247217 0.016173224741 0.0164013726 0.01663165929 0.016864027169 0.017098415232 0.017334730866 0.017572934522 
0.01781293274 0.018054630595 0.018297949893 0.018542750453 0.018788973145 0.019036480838 0.019285251091 0.019535002619 0.019785612776 
0.02003696085 0.02028905537 0.020541451149 0.020794141385 0.02104691887 0.021299686042 0.021552317454 0.021804517285 0.022056178889 
0.022307138409 0.022557338532 0.022806454663 0.023054251743 0.023300794581 0.023545821166 0.02378908011 0.024030712914 0.024270347948 
0.0087043611846 0.0088270363995 0.0089517358963 0.0090785008247 0.0092073503617 0.0093383069703 0.0094714269019 0.0096067243705 0.0097442280519 
0.0098840063851 0.010026006947 0.010170292154 0.010316889904 0.010465818414 0.010617111447 0.010770774067 0.010926838998 0.011085321734 
0.011246234764 0.011409597926 0.011575462602 0.011743760388 0.011914578559 0.012087912315 0.012263630525 0.012441892773 0.012622639813 
0.012805898386 0.012991706122 0.013179906737 0.013370571803 0.013563675597 0.01375921732 0.013957155449 0.014157479463 0.014360147249 
0.01456516173 0.014772437918 0.014981984835 0.015193692081 0.015407603939 0.015623651841 0.015841805505 0.016062007604 0.016284195983 
0.016508320591 0.016734325184 0.016962128598 0.017191668764 0.017422865998 0.017655628519 0.017889874151 0.018125516184 0.018362412091 
0.018600472765 0.018839618791 0.019079688492 0.019320630849 0.019562166144 0.019804259941 0.020046690381 0.020289487294 0.020532252935 
0.020774912018 0.021017333353 0.021259451547 0.021500945543 0.02174169546 0.021981634274 0.022220666977 0.022458426377 0.022694832303 
0.022929840575 0.023163236557 0.023394867119 0.0236246785 0.0085903014088 0.0087101928457 0.0088320138545 0.0089558306413 0.0090816419838 
0.0092095010246 0.0093393987518 0.0094714040237 0.0096055254576 0.0097417929139 0.0098802579186 0.010020876131 0.010163706673 0.010308768339 
0.010456086298 0.010605677816 0.010757552858 0.010911745076 0.011068255695 0.01122709817 0.011388269476 0.011551812707 0.011717734908 
0.011886051984 0.012056712673 0.012229737132 0.012405122795 0.012582862393 0.012763039719 0.012945501209 0.013130268124 0.013317353893 
0.013506741751 0.013698392522 0.013892292772 0.014088405981 0.014286703025 0.014487187651 0.01468976921 0.014894444521 0.015101103255 
0.015309802369 0.015520465442 0.015733031312 0.015947469431 0.016163705779 0.016381687599 0.016601340265 0.01682259393 0.017045379666 
0.017269613298 0.017495219365 0.017722081772 0.017950113939 0.018179216418 0.018409274548 0.018640133 0.018871687197 0.019103931036 
0.019336568312 0.019569513537 0.019802646617 0.020035859813 0.020269027164 0.020501816415 0.020734171173 0.020966122423 0.021197242187 
0.021427521329 0.021656911035 0.021885056805 0.022111904173 0.022337319771 0.022561222637 0.022783452716 0.023003818248 0.0084786610819 
0.0085958198305 0.0087148621354 0.0088358010666 0.0089586682584 0.0090834806565 0.0092102906746 0.0093390814948 0.0094699180925 0.0096028099575 
0.009737774539 0.0098748745025 0.010014053225 0.010155363227 0.010298834122 0.010444476815 0.010592305653 0.010742343388 0.010894588928 
0.011049060263 0.011205767468 0.011364707199 0.011525891926 0.01168936664 0.011855070674 0.01202307729 0.012193232101 0.012365687502 
0.012540416623 0.012717412989 0.012896518957 0.013077816066 0.013261292236 0.013446901543 0.013634628258 0.013824458463 0.014016345469 
0.014210264234 0.01440619755 0.014604062081 0.014803865109 0.015005455034 0.015208956507 0.015414221834 0.015621229449 0.015829918969 
0.016040227537 0.016252083128 0.016465419595 0.016680163537 0.016896242205 0.017113582996 0.017332079939 0.017551632568 0.017772148209 
0.017993533709 0.018215671 0.018438450515 0.018661739569 0.018885436747 0.019109375137 0.019333442556 0.019557415153 0.019781320566 
0.020004941622 0.020228141545 0.020450917743 0.020672840551 0.020894044304 0.021114160982 0.021333293048 0.021551054055 0.021767440705 
0.021982323602 0.022195514151 0.022406966381 0.0083694373362 0.0084839368551 0.0086002495232 0.0087184120558 0.0088384016073 0.008960275202 
0.0090840596317 0.0092097603374 0.0093373866524 0.0094670077815 0.0095986117425 0.0097322232707 0.0098678960856 0.010005584158 0.010145329987 
0.010287152985 0.010431065186 0.01057707755 0.010725204843 0.010875452952 0.011027832638 0.0111823413 0.011338993675 0.011497780242 
0.011658746009 0.011821825669 0.011987108805 0.012154383999 0.012323862327 0.012495433866 0.012669223718 0.012844961502 0.013022740492 
0.013202561562 0.013384367436 0.013568150724 0.013753884733 0.013941522891 0.014131034351 0.014322405557 0.014515571432 0.01471048369 
0.014907027368 0.015105304926 0.015305219808 0.015506671235 0.015709639189 0.015914034587 0.016119799663 0.016326862599 0.016535154385 
0.016744598163 0.016955108147 0.017166579294 0.017378921968 0.017592036547 0.017805837463 0.018020199716 0.018235011587 0.018450155309 
0.018665517557 0.018880991276 0.019096341192 0.019311560037 0.0195264749 0.019740940463 0.019954842977 0.020168028924 0.020380399341 
0.020592028689 0.020802258466 0.021011462594 0.021219211644 0.02142548338 0.021630163804 0.021833132774 0.0082625925857 0.0083745194781 
0.0084881853635 0.0086036311324 0.0087208412118 0.0088398445628 0.008960688555 0.0090833754571 0.0092079306924 0.0093343558697 0.0094627002373 
0.0095929676228 0.0097251781971 0.0098593799959 0.0099955212928 0.01013364498 0.010273763957 0.010415891605 0.010560037445 0.010706209026 
0.010854409744 0.011004649418 0.011156916889 0.011311221412 0.011467573943 0.011625983202 0.011786398964 0.011948853024 0.01211333281 
0.012279720116 0.012448143236 0.01261860369 0.012790925194 0.012965216528 0.013141344919 0.013319325958 0.013499141266 0.01368075601 
0.01386413345 0.014049234241 0.014236025883 0.014424497024 0.014614523747 0.014806038132 0.014999128418 0.015193688068 0.015389613312 
0.01558687907 0.0157853996 0.015985124553 0.016185980383 0.016387882338 0.016590763987 0.016794511187 0.016999052653 0.017204303584 
0.017410151136 0.017616488988 0.017823232332 0.01803025286 0.018237433594 0.018444658815 0.018651824171 0.018858774598 0.019065393346 
0.019271524756 0.019477125855 0.019682005255 0.019886074436 0.020089196297 0.020291243052 0.0204922247 0.020691868075 0.0208900658 
0.021086604487 0.021281513635 0.0081581205107 0.0082675343691 0.0083786305205 0.0084914251928 0.0086059356485 0.008722157919 0.0088401444344 
0.0089599148201 0.0090814616825 0.0092048209256 0.009329995517 0.0094570241286 0.0095859117038 0.0097166750967 0.0098493562875 0.009983903346 
0.010120357281 0.010258727789 0.01039902659 0.010541256853 0.010685423492 0.010831535198 0.010979568986 0.011129550111 0.011281477945 
0.011435355089 0.011591169697 0.011748878785 0.011908506326 0.012070011474 0.012233352364 0.012398610113 0.012565785847 0.012734654909 
0.012905312555 0.01307773806 0.013251915937 0.013427753537 0.013605243571 0.013784354604 0.013965046304 0.014147276869 0.014331028356 
0.014516199148 0.014702699307 0.01489061394 0.015079829493 0.015270284296 0.015461884395 0.015654591868 0.015848333608 0.016043039237 
0.016238629803 0.016435012619 0.016632111511 0.016829847031 0.017028120044 0.017226825861 0.017425877801 0.017625151122 0.017824551881 
0.018023961175 0.018223268769 0.018422343484 0.018621088132 0.018819363838 0.019017067324 0.019214071152 0.019410225425 0.019605415621 
0.019799604723 0.01999261279 0.020184425568 0.020374888401 0.020563709275 0.02075092821 0.0080559782392 0.0081629508249 0.0082715377764 
0.0083817593424 0.0084936360942 0.0086071743204 0.0087223857848 0.0088393039928 0.008957946723 0.0090783188203 0.0092004496678 0.0093243264715 
0.0094499953497 0.0095774599479 0.0097067284989 0.0098378513772 0.0099707587443 0.010105502214 0.010242081049 0.01038050554 0.010520775564 
0.010662901533 0.010806872689 0.010952683257 0.011100338859 0.011249846385 0.011401184542 0.011554360716 0.011709339235 0.011866109233 
0.012024646602 0.012184894448 0.012346926395 0.012510773617 0.012676192853 0.012843263894 0.01301196235 0.013182246794 0.013354099151 
0.013527497469 0.013702337399 0.01387862207 0.014056295591 0.01423534853 0.014415680379 0.014597186923 0.014779962119 0.014963884548 
0.015148869609 0.015334889167 0.015521830253 0.015709652514 0.015898287228 0.016087644279 0.016277651534 0.016468219616 0.016659263607 
0.016850692398 0.017042414318 0.017234321229 0.017426308988 0.017618275859 0.017810105947 0.018001702428 0.018192948213 0.01838370192 
0.01857388529 0.018763369545 0.018952033093 0.019139749961 0.019326446724 0.019512000554 0.019696285804 0.019879262187 0.020060801017 
0.020240750504 0.0079561004221 0.0080607106927 0.0081668709181 0.0082745878784 0.0083839047307 0.0084948133216 0.0086073531562 0.008721507623 
0.0088373149024 0.0089548022035 0.0090739615037 0.0091948118506 0.0093173481729 0.0094416174941 0.0095676186523 0.0096953529886 0.0098248331331 
0.0099561036129 0.010089094849 0.010223842328 0.010360357765 0.010498636328 0.010638676158 0.010780481385 0.010924019913 0.011069325037 
0.011216374694 0.011365153419 0.011515642455 0.011667846072 0.011821738155 0.011977290835 0.012134387383 0.012293236367 0.012453714122 
0.01261565241 0.012779119475 0.012944089165 0.01311051382 0.013278371618 0.013447606115 0.013618192656 0.013790077898 0.013963239006 
0.014137609744 0.014313136378 0.014489685018 0.014667356767 0.014846018561 0.015025606659 0.01520605771 0.015387311509 0.015569316685 
0.015751964022 0.015935192707 0.016118927447 0.016303079769 0.016487571519 0.016672309616 0.016857196301 0.017042132006 0.01722701141 
0.0174117324 0.017596189372 0.017780296334 0.017963921904 0.018146954115 0.018329256831 0.018510769067 0.018691347369 0.018870916983 