# vtk DataFile Version 5.1
vtk output
ASCII
DATASET STRUCTURED_POINTS
DIMENSIONS 30 30 30
SPACING 0.01 0.01 0.01
ORIGIN 1.555 -0.145 0.855
POINT_DATA 27000
FIELD FieldData 1
potential 1 27000 double
0.00096208035008 0.00096049188974 0.0009589086246 0.00095733045103 0.00095575752181 0.00095418967535 0.0009526269145 0.00095106925877 0.00094951669982 
0.00094796918142 0.0009464267198 0.00094488929939 0.00094335683377 0.00094182944302 0.00094030701223 0.0009387895747 0.00093727705659 0.00093576952381 
0.00093426689074 0.00093276925224 0.00093127650595 0.00092978863258 0.00092830564124 0.00092682752329 0.0009253542644 0.00092388579646 0.000922422216 
0.00092096347153 0.00091950954074 0.00091806041869 0.00096268158744 0.00096109141293 0.00095950643909 0.00095792665685 0.00095635199919 0.00095478247358 
0.00095321806596 0.00095165875992 0.00095010456146 0.00094855540036 0.00094701127016 0.00094547219097 0.0009439381101 0.00094240901438 0.0009408849372 
0.0009393659136 0.00093785172042 0.00093634259114 0.00093483833666 0.00093333904028 0.00093184464289 0.00093035514134 0.00092887052553 0.00092739077729 
0.0009259159044 0.00092444583141 0.00092298063092 0.00092152026928 0.0009200647186 0.00091861397879 0.00096328389364 0.00096169209024 0.00096010538122 
0.00095852391701 0.00095694758295 0.00095537643676 0.00095381039436 0.00095224942537 0.00095069356416 0.00094914273068 0.00094759697375 0.00094605621883 
0.00094452049325 0.00094298977461 0.00094146404801 0.00093994332938 0.0009384275334 0.00093691677745 0.00093541091596 0.0009339099988 0.00093241400209 
0.00093092285503 0.00092943662025 0.00092795526618 0.0009264787679 0.00092500714812 0.00092354027059 0.00092207828884 0.00092062111645 0.00091916876268 
0.00096388740496 0.00096229391418 0.00096070557514 0.00095912244047 0.00095754442839 0.00095597157554 0.0009544038245 0.00095284117618 0.00095128367103 
0.0009497312091 0.00094818383595 0.00094664144289 0.00094510407417 0.0009435717506 0.00094204438572 0.00094052202646 0.00093900460798 0.00093749223083 
0.00093598475259 0.00093448221669 0.00093298460443 0.00093149186699 0.00093000399028 0.00092852101701 0.00092704290603 0.00092556966657 0.00092410118743 
0.00092263759907 0.0009211788217 0.00091972485525 0.00096449204106 0.00096289686937 0.00096130687121 0.00095972201783 0.00095814235839 0.00095656782988 
0.00095499843376 0.00095343415543 0.00095187497116 0.00095032083662 0.00094877180915 0.00094722782559 0.00094568887992 0.000944154931 0.00094262594235 
0.00094110195691 0.00093958289661 0.00093806892043 0.00093655983819 0.00093505567359 0.00093355645091 0.00093206210383 0.00093057264208 0.00092908803904 
0.00092760832033 0.00092613347775 0.00092466344321 0.0009231981936 0.00092173781357 0.00092028223298 0.00096509784914 0.00096350098118 0.00096190933153 
0.00096032282067 0.00095874149443 0.00095716532813 0.00095559427641 0.00095402834376 0.00095246753288 0.00095091179891 0.00094936110827 0.00094781545886 
0.00094627486536 0.00094473929041 0.00094320873915 0.00094168313953 0.00094016250396 0.00093864690381 0.00093713621797 0.00093563043311 0.00093412957861 
0.00093263365393 0.00093114258966 0.00092965640283 0.00092817506626 0.00092669861882 0.00092522699045 0.00092376012183 0.00092229814165 0.00092084097037 
0.00096570485284 0.00096410630637 0.00096251301615 0.00096092490495 0.00095934186878 0.00095776405189 0.00095619138042 0.00095462381352 0.00095306136957 
0.00095150400637 0.00094995169208 0.00094840443478 0.00094686222932 0.00094532503265 0.00094379286373 0.00094226561657 0.00094074338087 0.00093922616969 
0.00093771394296 0.00093620657095 0.00093470409691 0.00093320657082 0.00093171389608 0.00093022611651 0.00092874320006 0.00092726513651 0.00092579191197 
0.00092432343508 0.0009228598627 0.00092140111028 0.00096631308835 0.0009647129108 0.00096311791985 0.0009615281635 0.00095994351579 0.00095836404668 
0.00095678975476 0.0009552205516 0.00095365645722 0.00095209749367 0.00095054358313 0.000948994693 0.00094745088882 0.00094591207928 0.00094437829047 
0.00094284944367 0.00094132560793 0.00093980677248 0.00093829290258 0.00093678396515 0.00093527994184 0.00093378082482 0.00093228658708 0.00093079721295 
0.00092931270945 0.00092783305233 0.00092635820549 0.00092488820826 0.00092342299594 0.00092196263074 0.00096692261664 0.00096532078033 0.0009637241431 
0.00096213273568 0.00096054644976 0.00095896538295 0.00095738945663 0.00095581863385 0.00095425291936 0.00095269234206 0.00095113681904 0.00094958633866 
0.00094804090745 0.00094650049648 0.00094496511571 0.00094343466074 0.00094190925229 0.00094038880381 0.00093887331158 0.00093736275503 0.00093585715136 
0.000934356424 0.0009328606125 0.00093136967163 0.00092988361581 0.00092840233447 0.00092692591736 0.00092545433097 0.00092398755384 0.00092252559271 
0.00096753348568 0.00096592996679 0.00096433171022 0.00096273865135 0.00096115076529 0.00095956798687 0.00095799042461 0.00095641806591 0.00095485072765 
0.00095328853892 0.00095173140897 0.00095017931354 0.00094863229492 0.0009470903069 0.00094555327442 0.0009440213059 0.00094249427192 0.00094097224624 
0.00093945514241 0.00093794300278 0.00093643581251 0.0009349334972 0.00093343610711 0.00093194356531 0.00093045589679 0.00092897307288 0.00092749508927 
0.00092602195357 0.0009245536069 0.00092309000395 0.00096814568634 0.00096654054703 0.00096494063497 0.00096334593004 0.00096175642014 0.00096017199913 
0.00095859281822 0.00095701878395 0.00095544985137 0.00095388607253 0.0009523273435 0.00095077368157 0.00094922506257 0.0009476814859 0.00094614286301 
0.00094460930313 0.00094308070045 0.0009415570909 0.00094003842137 0.0009385246745 0.00093701587378 0.00093551201181 0.00093401305149 0.00093251891812 
0.00093102968718 0.00092954528542 0.00092806573557 0.00092659101402 0.00092512108358 0.00092365589027 0.0009687592088 0.00096715242746 0.00096555089089 
0.00096395458048 0.00096236343777 0.00096077746975 0.00095919660066 0.00095762095884 0.00095605040817 0.00095448499351 0.00095292465654 0.00095136941204 
0.00094981920292 0.00094827406553 0.00094673386058 0.00094519871983 0.00094366852937 0.00094214336197 0.00094062311417 0.00093910779192 0.00093759740639 
0.00093609197068 0.00093459139832 0.00093309571919 0.00093160491193 0.00093011893112 0.00092863780868 0.0009271615204 0.00092569001153 0.00092422333958 
0.0009693740905 0.00096776567165 0.00096616249709 0.00096456456017 0.00096297181236 0.00096138423524 0.00095980175102 0.00095822448974 0.00095665235045 
0.00095508535583 0.00095352340929 0.00095196657987 0.00095041477575 0.00094886805798 0.00094732627716 0.00094578952844 0.00094425779434 0.00094273103416 
0.00094120922441 0.00093969234177 0.00093818037387 0.00093667332668 0.00093517120171 0.0009336739678 0.00093218159153 0.00093069405292 0.00092921136894 
0.00092773350527 0.00092626042732 0.00092479218308 0.00096999030639 0.0009683802571 0.00096677545604 0.00096517590111 0.00096358154973 0.00096199238403 
0.00096040828687 0.00095882942792 0.00095725569278 0.00095568708712 0.00095412357147 0.00095256511854 0.00095101175058 0.00094946342949 0.00094792012945 
0.0009463817727 0.00094484846199 0.00094332011505 0.00094179676855 0.00094027832493 0.00093876481172 0.00093725617342 0.00093575249782 0.0009342536899 
0.00093275975546 0.00093127066132 0.00092978640053 0.00092830697073 0.00092683233066 0.00092536251092 0.00097060787834 0.00096899621211 0.00096738977581 
0.00096578859858 0.00096419262486 0.00096260188081 0.00096101623668 0.00095943573915 0.00095786041334 0.00095629020668 0.00095472510761 0.00095316508947 
0.00095161012256 0.00095006022781 0.00094851537387 0.00094697546297 0.00094544058599 0.0009439106769 0.00094238571538 0.00094086571817 0.00093935062362 
0.00093784048291 0.0009363351958 0.00093483486993 0.00093333936589 0.00093184872364 0.00093036290804 0.00092888190275 0.00092740571505 0.00092593432148 
0.00097122678298 0.00096961348465 0.00096800545077 0.00096640266472 0.00096480507852 0.00096321273054 0.00096162553249 0.00096004340041 0.00095846647673 
0.00095689469034 0.0009553280223 0.00095376642962 0.00095220989794 0.00095065841199 0.00094911199243 0.00094757053172 0.0009460340947 0.00094450262661 
0.00094297612948 0.00094145456651 0.00093993791589 0.00093842618768 0.00093691934575 0.00093541747377 0.0009339204468 0.00093242825171 0.0009309408657 
0.0009294582995 0.00092798055425 0.00092650760478 0.00097184706134 0.00097023211776 0.00096862244566 0.00096701804899 0.00096541887464 0.00096382489897 
0.00096223614511 0.00096065247709 0.00095907392221 0.00095750055322 0.0009559323264 0.00095436916281 0.00095281105339 0.00095125800359 0.00094971002273 
0.0009481670322 0.00094662903195 0.00094509599058 0.00094356793435 0.00094204481986 0.00094052664365 0.00093901337921 0.00093750500437 0.00093600148607 
0.00093450295079 0.00093300917727 0.00093152028454 0.00093003615852 0.00092855686019 0.00092708235655 0.00097246866864 0.00097085210933 0.00096924079294 
0.0009676347854 0.00096603399902 0.00096443844008 0.00096284808246 0.00096126284415 0.00095968271114 0.00095810776198 0.00095653797521 0.00095497324604 
0.00095341360884 0.00095185897732 0.00095030943323 0.00094876488571 0.00094722535447 0.0009456907406 0.00094416110152 0.00094263645458 0.00094111675063 
0.00093960193995 0.00093809203583 0.00093658701785 0.00093508690937 0.0009335915659 0.0009321010989 0.00093061543227 0.00092913461309 0.00092765855924 
0.00097309157333 0.00097147336482 0.00096986048907 0.00096825288415 0.00096665050172 0.0009650532959 0.00096346136364 0.00096187457998 0.00096029284108 
0.00095871632569 0.00095714496135 0.00095557868065 0.00095401747367 0.00095246130014 0.00095091018585 0.00094936409586 0.00094782301722 0.0009462868385 
0.00094475566347 0.0009432294731 0.00094170822512 0.00094019187961 0.0009386804455 0.00093717388879 0.00093567223664 0.00093417538267 0.00093268338024 
0.00093119615329 0.00092971375651 0.0009282361706 0.00097371569795 0.00097209594191 0.00097048142502 0.00096887221863 0.0009672682499 0.00096566950756 
0.00096407598914 0.00096248760899 0.00096090425926 0.00095932620179 0.00095775327717 0.00095618543837 0.00095462265061 0.00095306495681 0.00095151228138 
0.00094996466552 0.00094842201364 0.00094688433891 0.00094535163282 0.0009438238827 0.0009423010777 0.00094078317815 0.00093927018573 0.00093776213044 
0.00093625893781 0.00093476056623 0.00093326699007 0.00093177822927 0.00093029429507 0.00092881513634 0.00097434107567 0.00097271974765 0.00097110366102 
0.0009694928595 0.00096788727459 0.00096628694743 0.00096469181286 0.00096310188199 0.0009615170595 0.00095993737898 0.0009583628835 0.00095679346001 
0.00095522912273 0.00095366986401 0.00095211566374 0.0009505665041 0.00094902232309 0.00094748309568 0.000945948855 0.00094441956959 0.00094289523985 
0.0009413758179 0.00093986126417 0.00093835166808 0.00093684689582 0.00093534698482 0.00093385195954 0.00093236167034 0.0009308761802 0.00092939551633 
0.00097496769874 0.00097334469208 0.00097172708936 0.00097011465683 0.0009685075295 0.00096690559738 0.00096530890568 0.00096371740672 0.00096213103413 
0.00096054978775 0.00095897372958 0.00095740278544 0.00095583691199 0.00095427613415 0.00095272034711 0.0009511696333 0.00094962393292 0.00094808318928 
0.00094654739159 0.00094501656598 0.00094349069712 0.00094196974788 0.00094045373859 0.00093894258691 0.00093743629296 0.00093593484841 0.00093443827308 
0.00093294644295 0.00093145945545 0.00092997730682 0.00097559548847 0.00097397090341 0.00097235161535 0.00097073768173 0.0009691289735 0.00096752552698 
0.00096592726569 0.00096433410799 0.00096274624546 0.0009611634186 0.00095958583131 0.00095801333024 0.00095644592402 0.00095488358087 0.00095332623041 
0.0009517739806 0.00095022672543 0.00094868447993 0.00094714721082 0.00094561487307 0.00094408745188 0.00094256497906 0.00094104747347 0.00093953478248 
0.00093802697751 0.00093652401755 0.00093502591789 0.0009335325915 0.00093204402318 0.00093056034743 0.00097622449294 0.00097459826226 0.0009729773864 
0.00097136181653 0.00096975158338 0.00096814653089 0.0009665467392 0.00096495207288 0.00096336265417 0.0009617783219 0.00096019910594 0.00095862501526 
0.00095705605517 0.00095549220966 0.00095393336062 0.00095237957961 0.00095083085905 0.00094928702293 0.00094774818451 0.00094621432396 0.00094468544143 
0.00094316151139 0.00094164243454 0.0009401282251 0.00093861887597 0.00093711440111 0.00093561474589 0.00093411994006 0.0009326298863 0.00093114466018 
0.00097685455937 0.00097522677421 0.00097360430775 0.00097198715794 0.00097037529666 0.00096876867812 0.00096716729978 0.00096557107773 0.00096398010171 
0.00096239424515 0.00096081346718 0.00095923788479 0.00095766738739 0.00095610200227 0.00095454165336 0.00095298636739 0.00095143607549 0.0009498907695 
0.00094835045754 0.00094681510111 0.0009452846399 0.00094375911011 0.00094223850379 0.00094072280319 0.00093921193815 0.00093770598522 0.00093620482582 
0.00093470848879 0.00093321695762 0.00093173019008 0.0009774856864 0.00097585630299 0.00097423225701 0.00097261352004 0.00097100008918 0.00096939186355 
0.00096778887891 0.00096619119877 0.0009645986541 0.00096301129943 0.00096142901277 0.00095985182677 0.00095827976812 0.00095671289381 0.0009551510539 
0.00095359426135 0.00095204247097 0.0009504955987 0.000948953766 0.00094741688529 0.00094588497889 0.0009443579247 0.00094283581866 0.00094131854319 
0.00093980615579 0.0009382986544 0.00093679600455 0.00093529815439 0.00093380510727 0.00093231682892 0.00097811778561 0.00097648684182 0.00097486120835 
0.00097324085897 0.00097162585669 0.00097001610735 0.00096841156456 0.000966812281 0.00096521824678 0.00096362936071 0.00096204550772 0.00096046682956 
0.00095889333015 0.00095732491618 0.0009557615207 0.00095420316987 0.00095264982209 0.00095110148109 0.00094955813713 0.00094801973294 0.00094648632074 
0.00094495777814 0.00094343417536 0.00094191542738 0.00094040153924 0.00093889246785 0.00093738828867 0.0009358889352 0.00093439439904 0.00093290461023 
0.0009787508463 0.00097711824768 0.00097549106528 0.00097386918848 0.00097225261027 0.000970641315 0.00096903521566 0.00096743438056 0.00096583875353 
0.00096424839242 0.00096266310435 0.00096108279103 0.00095950773235 0.00095793783503 0.00095637296134 0.00095481313626 0.00095325825887 0.0009517084083 
0.00095016352383 0.00094862369106 0.00094708874806 0.00094555866556 0.00094403352422 0.00094251326925 0.00094099788641 0.000939487376 0.00093798167564 
0.00093648077546 0.00093498468908 0.00093349339682 0.00097938476604 0.000977750634 0.00097612183755 0.00097449838852 0.00097288027038 0.00097126740711 
0.00096965977181 0.00096805742661 0.00096646025763 0.00096486827565 0.00096328150429 0.00096169968166 0.00096012310716 0.00095855164155 0.00095698526237 
0.00095542393965 0.00095386759085 0.00095231621676 0.00095076986984 0.00094922853558 0.00094769208567 0.00094616051367 0.00094463387501 0.00094311210982 
0.00094159522923 0.00094008322213 0.0009385760455 0.00093707365288 0.00093557608724 0.00093408324896 0.00098001952768 0.00097838381234 0.00097675343832 
0.00097512842915 0.00097350876441 0.00097189435382 0.00097028519564 0.00096868127118 0.00096708256276 0.00096548904833 0.00096390069797 0.00096231741844 
0.00096073932643 0.00095916634974 0.00095759847117 0.00095603559101 0.0009544777719 0.00095292489831 0.00095137710708 0.0009498342188 0.00094829627991 
0.00094676324448 0.00094523513254 0.00094371187803 0.00094219347176 0.00094067997311 0.00093917128399 0.00093766740115 0.00093616831653 0.00093467404402 
0.00097199853735 0.00097039648998 0.00096879964949 0.00096720806428 0.00096562157273 0.00096404026375 0.00096246417708 0.00096089320691 0.00095932730629 
0.00095776653055 0.00095621082422 0.00095466019473 0.00095311463372 0.00095157410957 0.00095003857944 0.00094850806033 0.00094698258733 0.00094546210136 
0.00094394658154 0.00094243601642 0.00094093038187 0.0009394297022 0.00093793394264 0.00093644309327 0.00093495708184 0.00093347603051 0.00093199984796 
0.00093052851894 0.00092906202971 0.00092760039687 0.00097260774373 0.00097100395534 0.00096940540595 0.00096781207136 0.00096622387119 0.00096464091149 
0.00096306309404 0.00096149035964 0.0009599228219 0.00095836038344 0.00095680297778 0.00095525066501 0.00095370344306 0.00095216120592 0.00095062406032 
0.00094909183026 0.00094756472188 0.0009460424978 0.00094452535243 0.00094301313065 0.00094150586118 0.00094000352614 0.00093850611533 0.00093701362009 
0.00093552598006 0.00093404326256 0.00093256542536 0.00093109245425 0.0009296243252 0.00092816104696 0.00097321807495 0.00097161256891 0.00097001229405 
0.00096841720475 0.00096682730708 0.00096524263106 0.00096366305638 0.00096208863465 0.000960519418 0.00095895528504 0.00095739618966 0.0009558421964 
0.00095429330276 0.00095274942427 0.00095121059115 0.00094967670029 0.00094814793392 0.00094662408076 0.00094510525538 0.00094359139506 0.00094208247404 
0.0009405784917 0.00093907943515 0.00093758529175 0.0009360960688 0.0009346116477 0.00093313217092 0.00093165755264 0.0009301877915 0.00092872287925 
0.00097382935631 0.00097222210779 0.00097062014174 0.00096902335338 0.00096743175342 0.00096584536841 0.00096426414312 0.0009626880103 0.00096111707588 
0.00095955126829 0.00095799048638 0.00095643484664 0.00095488431319 0.00095333878502 0.00095179829187 0.00095026276391 0.00094873234957 0.00094720682852 
0.0009456863568 0.00094417086301 0.00094266027358 0.0009411546492 0.0009396539521 0.00093815816944 0.00093666730357 0.00093518125091 0.00093370014541 
0.00093222388222 0.00093075249228 0.00092928596643 0.00097444171521 0.00097283281295 0.00097122908961 0.00096963061502 0.00096803732645 0.00096644922274 
0.00096486631966 0.00096328852711 0.00096171589343 0.00096014842461 0.00095858598206 0.00095702864996 0.00095547643067 0.00095392922407 0.00095238711854 
0.00095084994288 0.00094931786983 0.00094779075996 0.00094626864517 0.00094475149494 0.00094323929077 0.00094173200599 0.0009402296733 0.00093873225626 
0.00093723975684 0.00093575213308 0.00093426933234 0.00093279144024 0.00093131841526 0.00092985025158 0.00097505519728 0.00097344458084 0.00097183916171 
0.00097023899873 0.00096864405873 0.00096705426015 0.00096546967184 0.00096389022141 0.00096231589759 0.00096074676308 0.00095918266075 0.00095762367102 
0.0009560697748 0.00095452094548 0.00095297716813 0.00095143834628 0.00094990458814 0.00094837591049 0.00094685214733 0.00094533335281 0.00094381954404 
0.00094231063444 0.00094080664919 0.00093930759996 0.00093781347579 0.00093632422797 0.00093483979619 0.0009333602794 0.00093188563673 0.00093041582603 
0.00097566986024 0.00097405755358 0.00097245044579 0.00097084856611 0.00096925195196 0.00096766047845 0.0009660742 0.00096449308897 0.00096291712925 
0.00096134631619 0.00095978057063 0.00095821994808 0.00095666437362 0.00095511390674 0.00095356848023 0.00095202808067 0.00095049264498 0.00094896227075 
0.0009474368535 0.00094591643339 0.00094440101801 0.0009428905345 0.00094138494472 0.00093988424925 0.00093838850306 0.00093689762922 0.00093541163385 
0.00093393043397 0.00093245415098 0.00093098273012 0.00097628572795 0.00097467170387 0.00097306291075 0.00097145933152 0.00096986102335 0.00096826791754 
0.00096667996844 0.00096509719482 0.00096351958032 0.00096194709781 0.0009603797177 0.00095881745016 0.00095726024458 0.00095570812797 0.00095416107535 
0.00095261903255 0.00095108196758 0.00094954993629 0.00094802294333 0.0009465008969 0.00094498383999 0.00094347167707 0.00094196446828 0.00094046220048 
0.00093896481694 0.00093747232533 0.00093598473157 0.00093450191615 0.00093302403855 0.00093155099578 0.00097690273225 0.00097528705363 0.00097367658858 
0.00097207136983 0.00097047132524 0.00096887653256 0.00096728692287 0.00096570252461 0.00096412325891 0.00096254912956 0.00096098010695 0.00095941619967 
0.00095785735455 0.00095630361914 0.00095475492899 0.00095321122277 0.0009516725618 0.00095013893322 0.00094861031579 0.00094708664993 0.00094556794595 
0.00094405421876 0.00094254539698 0.0009410414689 0.00093954249099 0.00093804837081 0.00093655913773 0.00093507480355 0.00093359525178 0.00093212058043 
0.00097752107818 0.00097590364049 0.00097429147995 0.00097268459575 0.00097108292722 0.0009694864951 0.00096789520654 0.00096630912504 0.0009647282266 
0.00096315244341 0.00096158182966 0.00096001626976 0.00095845581678 0.00095690042424 0.00095535010806 0.00095380479066 0.00095226450744 0.00095072925075 
0.00094919899367 0.00094767371607 0.00094615340169 0.00094463806023 0.0009431276272 0.00094162211788 0.00094012154903 0.00093862579877 0.00093713495553 
0.00093564900062 0.00093416784114 0.0009326915731 0.00097814063401 0.00097652153505 0.00097490768618 0.00097329914961 0.00097169581865 0.00097009768072 
0.00096850475814 0.00096691700262 0.00096533448987 0.00096375706801 0.00096218482414 0.00096061766578 0.00095905556532 0.0009574985485 0.00095594661242 
0.00095439967756 0.00095285781646 0.0009513209177 0.00094978903826 0.00094826212856 0.00094674023007 0.0009452232816 0.00094371124344 0.000942204126 
0.00094070193338 0.00093920462815 0.00093771219162 0.00093622459912 0.00093474184481 0.0009332639735 0.00097876146065 0.0009771406966 0.00097552520943 
0.00097391498895 0.00097231000287 0.0009707101983 0.00096911561672 0.00096752622014 0.00096594204664 0.00096436298122 0.00096278910472 0.00096122035433 
0.00095965663297 0.00095809798618 0.00095654445545 0.00095499590833 0.00095345243566 0.00095191393673 0.00095038045746 0.00094885196335 0.00094732843678 
0.00094580986109 0.00094429624951 0.00094278753171 0.000941283729 0.0009397848228 0.000938290805 0.00093680163627 0.00093531732173 0.00093383776076 
0.00097938358489 0.00097776113803 0.00097614398497 0.000974532111 0.00097292547672 0.0009713240188 0.00096972781972 0.00096813678555 0.00096655096961 
0.00096497024517 0.00096339472932 0.00096182432764 0.00096025901074 0.00095869872791 0.00095714358971 0.00095559348483 0.00095404840809 0.00095250830805 
0.00095097323287 0.00094944313465 0.00094791800818 0.00094639782572 0.00094488261032 0.00094337230195 0.00094186689618 0.00094036639557 0.00093887077961 
0.00093738002002 0.00093589412336 0.0009344129891 0.00098000693016 0.00097838283588 0.00097676403118 0.00097515050187 0.00097354220092 0.00097193918039 
0.0009703413178 0.00096874862807 0.00096716117031 0.00096557886309 0.00096400170921 0.00096242971382 0.00096086276431 0.00095930087902 0.00095774409098 
0.0009561923656 0.0009546456901 0.00095310402231 0.00095156735546 0.00095003566578 0.00094850894089 0.00094698720542 0.00094547035267 0.00094395846686 
0.0009424514832 0.00094094938961 0.00093945216742 0.00093795982533 0.00093647232403 0.00093498966797 0.00098063158328 0.00097900580818 0.00097738536373 
0.00097577020144 0.00097416027393 0.00097255559569 0.0009709561044 0.00096936180535 0.00096777269047 0.00096618878904 0.00096461001976 0.00096303640888 
0.00096146785726 0.00095990438989 0.00095834595056 0.00095679260789 0.00095524435312 0.00095370108747 0.00095216279895 0.00095062954978 0.0009491012452 
0.00094757787501 0.00094605949645 0.0009445460161 0.00094303744497 0.00094153376596 0.00094003495678 0.00093854102938 0.00093705193911 0.00093556770133 
0.00098125753926 0.00097963010079 0.00097800797833 0.00097639115277 0.0009747796098 0.00097317328849 0.00097157218109 0.00096997624835 0.00096838552944 
0.00096679999759 0.00096521961837 0.00096364440076 0.00096207426138 0.00096050919343 0.00095894918466 0.00095739424385 0.00095584437997 0.00095429952214 
0.00095275963822 0.00095122477515 0.00094969486955 0.00094816992755 0.00094664998518 0.00094513494405 0.00094362479899 0.00094211951772 0.00094061912712 
0.00093912361652 0.00093763294864 0.00093614712551 0.00098188473083 0.00098025564999 0.00097863188704 0.00097701339914 0.00097540020992 0.0009737922636 
0.00097218955511 0.00097059197427 0.00096899963903 0.0009674124971 0.00096583052337 0.00096425370138 0.00096268196352 0.00096111530173 0.00095955366715 
0.00095799716283 0.00095644571664 0.00095489927507 0.00095335781656 0.00095182139119 0.00095028987754 0.00094876336789 0.00094724179365 0.00094572524266 
0.0009442135189 0.00094270667003 0.00094120468676 0.00093970758646 0.00093821534072 0.00093672793913 0.00098251320089 0.000980882436 0.00097925702948 
0.00097763691233 0.00097602208405 0.00097441252631 0.00097280817274 0.00097120900893 0.00096961504348 0.00096802629782 0.00096644272408 0.00096486430413 
0.00096329095335 0.0009617226811 0.00096015950338 0.00095860144567 0.00095704835507 0.00095550033208 0.00095395731902 0.00095241927538 0.00095088622771 
0.00094935816347 0.00094783502209 0.00094631686454 0.00094480355781 0.00094329512238 0.00094179161151 0.00094029294822 0.0009387991227 0.00093731013928 
0.0009831429088 0.00098151053419 0.00097988345237 0.00097826165525 0.00097664519885 0.00097503401717 0.00097342804938 0.00097182724296 0.00097023170646 
0.00096864136195 0.00096705617571 0.00096547616258 0.00096390125641 0.00096233138152 0.00096076662153 0.00095920698014 0.00095765230335 0.00095610270657 
0.00095455810438 0.00095301848661 0.0009514838678 0.00094995422021 0.00094842949998 0.00094690980833 0.00094539495105 0.00094388493259 0.00094237980463 
0.00094087958225 0.00093938421418 0.00093789365925 0.00098377378955 0.00098213976668 0.00098051107289 0.00097888769554 0.00097726958177 0.00097565678203 
0.00097404915265 0.00097244677867 0.00097084959685 0.0009692576649 0.00096767088848 0.00096608928669 0.00096451278238 0.00096294133837 0.00096137501459 
0.00095981378344 0.00095825756156 0.00095670635065 0.00095516019436 0.00095361900985 0.00095208281526 0.00095055160312 0.00094902536618 0.00094750404529 
0.00094598762821 0.00094447607131 0.00094296942581 0.00094146758532 0.00093997063558 0.00093847851561 0.00098440586661 0.00098277020399 0.00098113984762 
0.00097951485364 0.00097789515161 0.00097628070615 0.00097467151126 0.00097306753249 0.00097146875638 0.00096987518688 0.00096828682023 0.00096670361755 
0.00096512554127 0.00096355252368 0.00096198462758 0.0009604218123 0.0009588640421 0.0009573112623 0.00095576354241 0.00095422081253 0.0009526830425 
0.00095115026307 0.00094962247761 0.00094809958686 0.00094658160312 0.00094506849163 0.00094356023509 0.00094205686656 0.00094055835076 0.00093906466989 
0.00098503909989 0.00098340179674 0.00098176983899 0.00098014320787 0.00097852188711 0.00097690585975 0.00097529498661 0.00097368938212 0.00097208903179 
0.00097049390042 0.00096890395909 0.00096731917468 0.00096573944272 0.00096416487227 0.00096259540184 0.00096103101417 0.00095947167684 0.00095791736007 
0.00095636806681 0.00095482378322 0.0009532844649 0.00095175012679 0.00095022075699 0.00094869627427 0.00094717673906 0.00094566210396 0.00094415232753 
0.00094264740978 0.0009411473175 0.00093965208876 0.00098567333466 0.0009840343852 0.00098240088409 0.00098077263343 0.00097914969803 0.00097753206295 
0.00097591963949 0.00097431249831 0.0009727105605 0.00097111375725 0.00096952221011 0.0009679358585 0.00096635460047 0.00096477847934 0.00096320739738 
0.00096164141756 0.00096008051997 0.0009585246362 0.00095697377496 0.0009554279309 0.0009538870926 0.00095235122893 0.00095082029749 0.00094929427555 
0.00094777319669 0.0009462570132 0.00094474565523 0.00094323921396 0.0009417376051 0.00094024079524 0.00098630875819 0.00098466816369 0.00098303295926 
0.00098140313948 0.00097977862998 0.00097815937779 0.00097654536681 0.00097493663704 0.00097333310975 0.00097173476901 0.00097014163253 0.00096855371115 
0.00096697086786 0.00096539317473 0.00096382051426 0.00096225296496 0.00096069049231 0.00095913307277 0.00095758067414 0.00095603328415 0.00095449091212 
0.00095295345395 0.00095142098077 0.00094989343573 0.00094837082811 0.00094685306795 0.00094534024089 0.00094383222524 0.00094232902986 0.00094083068579 
0.00098694524947 0.00098530303282 0.00098366616262 0.00098203467806 0.00098040857606 0.00097878772608 0.0009771721577 0.00097556183966 0.00097395673302 
0.00097235682695 0.00097076207545 0.00096917254738 0.00096758812795 0.00096600888794 0.00096443476535 0.0009628656816 0.00096130162367 0.00095974265622 
0.00095818872743 0.00095663971011 0.00095509586292 0.00095355688078 0.00095202282566 0.00095049370946 0.00094896954237 0.00094745024328 0.00094593586402 
0.00094442630513 0.00094292158792 0.00094142173832 0.00098758270724 0.0009859388709 0.00098430041279 0.00098266730932 0.00098103955084 0.0009794171135 
0.0009777999618 0.00097618805724 0.00097458134367 0.00097297982482 0.00097138356933 0.00096979247565 0.00096820650232 0.00096662567168 0.0009650500068 
0.00096347937043 0.0009619137656 0.00096035331081 0.00095879784001 0.00095724735132 0.00095570186563 0.00095416132673 0.00095262572267 0.00095109507953 
0.00094956937234 0.00094804852724 0.00094653260466 0.00094502150671 0.0009435152509 0.00094201386142 0.00098822109539 0.00098657563585 0.00098493556615 
0.00098330085483 0.00098167149017 0.00098004736573 0.00097842867495 0.00097681519006 0.00097520694631 0.00097360389918 0.00097200604247 0.00097041340995 
0.00096882584918 0.00096724345583 0.00096566629733 0.00096409409355 0.00096252696297 0.00096096491894 0.00095940790988 0.00095785593354 0.0009563088756 
0.00095476682109 0.00095322967777 0.00095169744516 0.00095017019249 0.0009486478145 0.00094713035682 0.00094561775102 0.00094410999465 0.00094260701414 
0.00098886033609 0.00098721329168 0.00098557160886 0.00098393524957 0.00098230427918 0.00098067861215 0.00097905827303 0.00097744326801 0.00097583345285 
0.00097422883841 0.00097262937526 0.00097103526385 0.00096944616781 0.0009678622389 0.00096628348792 0.00096470972949 0.00096314105667 0.00096157747248 
0.00096001896304 0.00095846542252 0.00095691683447 0.00095537325519 0.00095383462059 0.00095230086912 0.00095077209388 0.00094924813851 0.00094772911908 
0.0009462149633 0.00094470567896 0.00094320121458 0.00098950040626 0.00098785169738 0.00098620845145 0.00098457052577 0.00098293795893 0.0009813107082 