# vtk DataFile Version 5.1
vtk output
ASCII
DATASET STRUCTURED_POINTS
DIMENSIONS 30 30 30
SPACING 0.01 0.01 0.01
ORIGIN 1.555 -0.145 0.855
POINT_DATA 27000
FIELD FieldData 1
potential 1 27000 double
0.0021243288997 0.002118730589 0.0021131549052 0.0021076019187 0.0021020714633 0.0020965632007 0.0020910773392 0.002085613472 0.0020801718509 
0.0020747520556 0.0020693539668 0.0020639776743 0.0020586230529 0.0020532898808 0.0020479782007 0.0020426877466 0.0020374185083 0.0020321703792 
0.0020269434126 0.0020217374267 0.0020165522594 0.00201138789 0.0020062440294 0.0020011206886 0.0019960178578 0.0019909353875 0.0019858733277 
0.001980831328 0.0019758094436 0.0019708073413 0.0021216124838 0.0021160277705 0.0021104658543 0.0021049265889 0.0020994095429 0.0020939149337 
0.0020884423602 0.002082991855 0.0020775633637 0.0020721567065 0.0020667716873 0.0020614084218 0.0020560666986 0.0020507465186 0.0020454475661 
0.0020401698522 0.0020349133203 0.0020296778513 0.0020244634136 0.0020192698997 0.0020140970837 0.0020089451525 0.0020038135516 0.0019987024791 
0.0019936118469 0.0019885415502 0.0019834914399 0.0019784614197 0.001973451437 0.0019684612281 0.002118900734 0.0021133297943 0.002107781499 
0.0021022557448 0.0020967525006 0.0020912711846 0.0020858120254 0.0020803747778 0.0020749593488 0.0020695658545 0.0020641939152 0.0020588436356 
0.0020535149162 0.0020482076168 0.0020429215148 0.002037656462 0.0020324125946 0.0020271897646 0.0020219878641 0.0020168068897 0.0020116465907 
0.0020065067981 0.0020013875229 0.0019962887073 0.0019912101778 0.0019861518985 0.0019811138405 0.0019760958278 0.0019710976459 0.0019661194994 
0.0021161938881 0.0021106366214 0.0021051021044 0.0020995900285 0.0020941000186 0.002088632226 0.0020831863833 0.0020777623493 0.0020723602195 
0.0020669797275 0.0020616208906 0.0020562835868 0.0020509678193 0.0020456732776 0.0020403999812 0.0020351477913 0.0020299165621 0.0020247064016 
0.0020195169656 0.0020143485252 0.0020092004605 0.0020040729864 0.0019989659787 0.0019938794205 0.0019888130997 0.0019837668483 0.0019787407605 
0.0019737346368 0.0019687484171 0.0019637821334 0.0021134920249 0.002107948613 0.0021024276181 0.002096928922 0.0020914524531 0.0020859979653 
0.0020805654718 0.0020751546929 0.002069765752 0.0020643983693 0.0020590526725 0.002053728295 0.0020484253845 0.0020431437387 0.0020378831873 
0.002032643714 0.00202742522 0.0020222276001 0.0020170506672 0.0020118946945 0.0020067590542 0.0020016439108 0.0019965491551 0.0019914747536 
0.0019864205562 0.0019813863758 0.0019763723462 0.0019713781306 0.0019664037964 0.0019614493322 0.0021107952575 0.0021052655144 0.0020997582639 
0.0020942731157 0.0020888100142 0.0020833688506 0.0020779495457 0.0020725520589 0.0020671763239 0.0020618220917 0.0020564894676 0.0020511781873 
0.002045888006 0.0020406190986 0.0020353713812 0.0020301446052 0.0020249387495 0.0020197537621 0.0020145893988 0.0020094457236 0.0020043224313 
0.001999219588 0.0019941371466 0.0019890748801 0.0019840327562 0.0019790107297 0.0019740086146 0.0019690263543 0.0019640639244 0.0019591212717 
0.0021081037636 0.0021025877965 0.0020970941359 0.0020916223976 0.0020861726141 0.0020807448691 0.0020753389118 0.002069954622 0.0020645920052 
0.002059250848 0.0020539311724 0.0020486329524 0.0020433557753 0.0020380995973 0.0020328645562 0.0020276505437 0.0020224572869 0.0020172848154 
0.002012133025 0.0020070016927 0.0020018908084 0.0019968002699 0.0019917300103 0.0019866799037 0.0019816498894 0.0019766396759 0.0019716496886 
0.0019666794664 0.0019617288991 0.0019567980063 0.0021054176004 0.0020999154682 0.0020944351487 0.0020889769454 0.0020835406618 0.0020781262147 
0.0020727334642 0.002067362469 0.0020620130008 0.0020566849536 0.0020513782759 0.0020460929026 0.0020408285763 0.0020355853821 0.0020303630055 
0.0020251615525 0.0020199808936 0.0020148210911 0.0020096817276 0.0020045627973 0.0019994642536 0.001994385992 0.0019893279021 0.0019842899468 
0.0019792719482 0.0019742738715 0.0019692957 0.0019643374948 0.0019593987436 0.0019544796611 0.0021027371001 0.0020972483797 0.0020917816792 
0.0020863369763 0.0020809140711 0.0020755129976 0.0020701334903 0.0020647756677 0.0020594392604 0.0020541243095 0.0020488306092 0.0020435580841 
0.0020383067137 0.0020330762641 0.0020278667266 0.0020226778398 0.0020175097178 0.0020123624922 0.0020072354701 0.0020021290293 0.0019970428066 
0.0019919768005 0.0019869308893 0.0019819050746 0.0019768990831 0.0019719131105 0.0019669468883 0.001962000483 0.0019570736725 0.0019521663421 
0.0021000620591 0.0020945869241 0.002089133769 0.0020837025079 0.0020782930177 0.0020729052285 0.0020675389923 0.0020621943445 0.0020568710355 
0.0020515691214 0.0020462883764 0.002041028716 0.002035790234 0.0020305725801 0.0020253757369 0.0020201995359 0.0020150441515 0.0020099092347 
0.0020047946132 0.0019997002987 0.0019946265467 0.0019895728054 0.0019845391582 0.0019795252465 0.0019745315155 0.0019695574815 0.0019646032406 
0.0019596686379 0.0019547536179 0.0019498582454 0.002097392749 0.0020919311329 0.002086491507 0.0020810736681 0.0020756775827 0.0020703031125 
0.0020649500955 0.0020596185371 0.0020543083391 0.0020490194243 0.0020437516036 0.0020385048805 0.0020332790822 0.0020280742431 0.0020228901278 
0.0020177266041 0.0020125838141 0.0020074612182 0.0020023591245 0.0019972772677 0.0019922156688 0.0019871741596 0.0019821525373 0.0019771509601 
0.0019721691494 0.0019672071515 0.0019622647821 0.0019573420394 0.0019524388146 0.0019475551322 0.0020947291142 0.0020892810667 0.0020838549145 
0.0020784504872 0.0020730677661 0.0020677065647 0.0020623667765 0.002057048349 0.0020517512341 0.0020464753221 0.0020412204658 0.0020359865777 
0.0020307734905 0.0020255813695 0.0020204098772 0.0020152591528 0.0020101288671 0.0020050188692 0.0019999290762 0.0019948595393 0.0019898102555 
0.0019847808345 0.0019797714344 0.0019747819999 0.0019698122367 0.0019648621444 0.0019599316035 0.0019550207207 0.0019501292013 0.0019452572652 
0.0020920712498 0.0020866367784 0.0020812240886 0.0020758330941 0.0020704636966 0.0020651157794 0.0020597891857 0.0020544838646 0.0020491997052 
0.0020439367118 0.0020386948533 0.0020334738141 0.0020282736154 0.0020230941129 0.002017935328 0.0020127972498 0.0020076794399 0.0020025818687 
0.0019975045526 0.001992447293 0.0019874101287 0.0019823929831 0.0019773957865 0.0019724184237 0.0019674605999 0.0019625225161 0.0019576038784 
0.0019527048133 0.0019478250652 0.0019429648391 0.0020894192716 0.0020839983304 0.0020785990232 0.0020732214295 0.0020678653339 0.0020625306877 
0.002057217258 0.0020519250745 0.002046654052 0.0020414039608 0.0020361749819 0.0020309667926 0.0020257793603 0.0020206125602 0.0020154665416 
0.0020103408486 0.002005235478 0.0020001503353 0.0019950854689 0.0019900406122 0.0019850156009 0.0019800106643 0.0019750256105 0.0019700603149 
0.0019651145501 0.0019601884107 0.0019552815802 0.0019503943488 0.0019455263475 0.0019406778125 0.0020867731301 0.0020813656961 0.0020759799 
0.0020706156723 0.0020652728702 0.0020599514502 0.0020546511498 0.0020493721218 0.0020441140906 0.0020388769466 0.002033660856 0.0020284654799 
0.0020232907631 0.0020181366738 0.0020130031782 0.0020078900667 0.0020027972049 0.0019977245228 0.0019926719909 0.0019876392884 0.0019826266671 
0.0019776339121 0.0019726610262 0.0019677077336 0.0019627739306 0.0019578597092 0.0019529648505 0.0019480893468 0.0019432330404 0.0019383960935 
0.0020841330306 0.0020787390734 0.0020733667149 0.002068015809 0.0020626862863 0.0020573780963 0.0020520909455 0.0020468249529 0.0020415798885 
0.0020363557856 0.002031152487 0.00202596991 0.0020208079528 0.0020156666466 0.0020105455994 0.0020054449383 0.0020003646373 0.0019953043393 
0.0019902639161 0.0019852437877 0.0019802433758 0.0019752627143 0.0019703019012 0.0019653606164 0.0019604388246 0.001955536493 0.0019506534724 
0.0019457897968 0.0019409452904 0.0019361200162 0.0020814986917 0.0020761182247 0.0020707593798 0.0020654218026 0.0020601055929 0.0020548105609 
0.0020495365413 0.0020442835946 0.0020390514893 0.0020338403316 0.0020286499096 0.0020234800931 0.0020183308692 0.0020132022111 0.0020080937433 
0.0020030055195 0.0019979377332 0.0019928896586 0.0019878617211 0.0019828538481 0.0019778656088 0.0019728971179 0.0019679483574 0.0019630190907 
0.0019581092098 0.0019532188648 0.0019483476734 0.0019434957604 0.0019386630666 0.0019338492535 0.0020788704376 0.0020735034997 0.0020681579101 
0.0020628337918 0.0020575308303 0.0020522489144 0.0020469880193 0.002041748057 0.0020365289832 0.002031330754 0.0020261531484 0.0020209960649 
0.0020158596713 0.0020107434588 0.0020056475056 0.0020005718149 0.0019955162502 0.0019904807552 0.0019854651226 0.001980469431 0.0019754935026 
0.0019705371719 0.0019656004785 0.0019606831426 0.0019557851979 0.0019509066653 0.0019460473106 0.0019412071507 0.0019363859363 0.0019315838068 
0.0020762482864 0.0020708947377 0.0020655625179 0.0020602515856 0.002054961805 0.0020496931772 0.0020444453815 0.002039218434 0.0020340122979 
0.0020288269682 0.0020236621516 0.0020185178564 0.0020133940736 0.0020082905108 0.002003207094 0.0019981437155 0.0019931006856 0.001988077564 
0.001983074232 0.0019780908046 0.0019731269913 0.0019681827635 0.0019632580598 0.0019583527303 0.0019534667276 0.0019485999928 0.0019437522359 
0.0019389238367 0.001934114504 0.0019293239151 0.0020736320294 0.0020682918976 0.002062973084 0.002057675387 0.0020523988354 0.0020471432051 
0.0020419085758 0.0020366946448 0.0020315015124 0.0020263289644 0.0020211769414 0.0020160453713 0.0020109342885 0.002005843227 0.0020007722067 
0.0019957215286 0.0019906908006 0.001985680051 0.0019806890436 0.0019757177722 0.0019707660441 0.0019658339386 0.0019609212622 0.0019560278901 
0.0019511537452 0.0019462986249 0.0019414628579 0.0019366461366 0.0019318484555 0.0019270695557 0.0020710217465 0.0020656950218 0.0020603894044 
0.0020551050891 0.0020498416531 0.0020445992261 0.0020393774744 0.0020341765883 0.0020289964542 0.0020238367702 0.0020186975425 0.0020135788157 
0.002008480224 0.0020034015649 0.001998343231 0.0019933049297 0.0019882865944 0.0019832881441 0.0019783094195 0.0019733503252 0.001968410795 
0.0019634907091 0.0019585900306 0.0019537083914 0.0019488461357 0.0019440030349 0.0019391790153 0.0019343739841 0.0019295878748 0.0019248205313 
0.0020684174003 0.002063104028 0.0020578117447 0.0020525405937 0.0020472904101 0.0020420610602 0.0020368523217 0.0020316644349 0.0020264970878 
0.0020213503297 0.0020162238466 0.0020111177993 0.0020060316631 0.0020009657657 0.0019959199116 0.0019908940086 0.0019858880331 0.0019809017875 
0.0019759353425 0.0019709884761 0.0019660610441 0.00196115281 0.0019562641072 0.0019513945996 0.0019465441623 0.0019417129033 0.0019369005636 
0.0019321072916 0.0019273327496 0.0019225768532 0.0020658189048 0.0020605188541 0.0020552399559 0.0020499819617 0.0020447449738 0.0020395286914 
0.0020343329699 0.0020291579863 0.0020240035024 0.0020188694512 0.0020137558793 0.0020086623132 0.0020035889104 0.0019985355819 0.0019935021898 
0.0019884886965 0.0019834950537 0.0019785210807 0.0019735668319 0.0019686321374 0.0019637165665 0.0019588205932 0.0019539437994 0.0019490861816 
0.001944247655 0.0019394280635 0.0019346275207 0.0019298459113 0.0019250829744 0.0019203386742 0.0020632262417 0.0020579395278 0.0020526738463 
0.0020474291076 0.0020422051591 0.0020370019278 0.0020318193212 0.0020266572557 0.0020215156315 0.0020163943638 0.0020112933062 0.0020062124292 
0.0020011517022 0.0019961109561 0.0019910900462 0.0019860889276 0.0019811075997 0.0019761458639 0.0019712035636 0.0019662810204 0.001961377746 
0.0019564937562 0.0019516289094 0.001946783215 0.0019419565341 0.0019371487681 0.0019323599306 0.0019275899757 0.0019228386268 0.0019181058543 
0.0020606393306 0.0020553659737 0.0020501135421 0.0020448820393 0.0020396711732 0.0020344809041 0.0020293113091 0.0020241621471 0.0020190333585 
0.0020139246799 0.002008836516 0.0020037682695 0.0019987200486 0.0019936917413 0.0019886833869 0.0019836947005 0.0019787254782 0.001973775983 
0.0019688460151 0.0019639356246 0.0019590444235 0.0019541724284 0.0019493194913 0.0019444855497 0.0019396707392 0.0019348747289 0.0019300977541 
0.0019253393552 0.0019205995538 0.0019158782891 0.0020580581527 0.0020527981319 0.002047558907 0.0020423405178 0.0020371428476 0.0020319655736 
0.0020268089344 0.0020216724764 0.0020165565074 0.002011460757 0.0020063852755 0.0020013296622 0.0019962939669 0.0019912781462 0.0019862819252 
0.0019813055492 0.0019763489074 0.0019714116936 0.001966493849 0.0019615956135 0.0019567164295 0.0019518564099 0.0019470153112 0.0019421933203 
0.0019373902318 0.0019326060098 0.0019278406488 0.0019230938607 0.0019183656055 0.0019136559388 0.0020554826106 0.002050235805 0.0020450098933 
0.0020398046462 0.0020346198899 0.0020294557479 0.0020243118267 0.0020191885149 0.0020140853441 0.0020090024633 0.0020039395063 0.0019988962746 
0.0019938731254 0.0019888697602 0.0019838861149 0.0019789220856 0.0019739775976 0.0019690525748 0.0019641469303 0.0019592607065 0.0019543937608 
0.001949545584 0.0019447164547 0.0019399062989 0.0019351149963 0.0019303424216 0.0019255887685 0.0019208535766 0.0019161368622 0.0019114386464 
0.0020529127363 0.002047679141 0.0020424664256 0.0020372742961 0.0020321025941 0.0020269512723 0.0020218204686 0.0020167099392 0.0020116195423 
0.0020065492 0.0020014988794 0.0019964684374 0.0019914577997 0.0019864669121 0.00198149564 0.0019765439434 0.0019716117349 0.0019666988502 
0.0019618053578 0.0019569310481 0.001952076067 0.0019472398893 0.0019424227328 0.0019376244014 0.0019328448699 0.0019280840149 0.0019233419816 
0.0019186184494 0.0019139132583 0.0019092263981 0.0020503482431 0.0020451279428 0.0020399283701 0.0020347493554 0.0020295905105 0.0020244523037 
0.0020193342854 0.0020142364853 0.0020091588496 0.0020041013766 0.0019990636499 0.0019940457578 0.001989047643 0.0019840692279 0.0019791103203 
0.0019741709375 0.0019692509341 0.0019643502674 0.0019594688549 0.0019546065561 0.0019497635196 0.0019449392855 0.001940134012 0.001935347484 
0.0019305798392 0.0019258307764 0.0019211002012 0.0019163881861 0.0019116944532 0.001907019078 0.0020477889519 0.0020425819081 0.0020373954486 
0.0020322291945 0.0020270835375 0.0020219582483 0.0020168532001 0.0020117682821 0.0020067036696 0.0020016588098 0.0019966336906 0.0019916283397 
0.0019866427046 0.0019816766639 0.0019767301412 0.0019718030057 0.001966895234 0.0019620067639 0.001957137389 0.0019522871852 0.001947455928 
0.0019426436822 0.0019378503107 0.0019330754191 0.0019283194245 0.0019235820351 0.0019188631392 0.0019141626502 0.0019094804449 0.0019048164914 
0.0021477717668 0.0021421151464 0.0021364814554 0.0021308707259 0.0021252825945 0.0021197170873 0.0021141739024 0.0021086533983 0.0021031548809 
0.0020976783081 0.0020922239482 0.0020867916157 0.002081381051 0.0020759922393 0.0020706249822 0.0020652793483 0.0020599550772 0.0020546520106 
0.0020493704092 0.0020441099147 0.0020388704024 0.0020336519239 0.0020284543091 0.0020232773138 0.0020181210418 0.0020129854214 0.0020078701515 
0.0020027753027 0.001997700629 0.0019926461668 0.0021450226518 0.0021393799672 0.0021337601858 0.0021281630606 0.0021225888155 0.0021170368288 
0.0021115074089 0.002106000021 0.0021005147568 0.0020950516415 0.0020896104888 0.0020841912455 0.0020787937634 0.0020734180138 0.0020680637849 
0.0020627308533 0.0020574194448 0.0020521291664 0.0020468601974 0.0020416122833 0.0020363854075 0.0020311793129 0.002025994205 0.0020208295891 
0.0020156856074 0.0020105621694 0.0020054590639 0.0020003762721 0.0019953136609 0.0019902711982 0.0021422782223 0.0021366493865 0.0021310434977 
0.0021254600792 0.0021198993321 0.0021143611271 0.0021088450214 0.0021033511704 0.0020978793116 0.0020924293681 0.0020870014525 0.0020815953555 
0.0020762108983 0.0020708481104 0.002065506857 0.0020601869069 0.0020548881531 0.0020496106872 0.0020443544269 0.0020391190331 0.0020339046551 
0.0020287111672 0.0020235382343 0.0020183860491 0.002013254362 0.0020081430915 0.0020030521784 0.0019979813583 0.0019929308901 0.0019879005792 
0.0021395385031 0.0021339236269 0.0021283313663 0.002122761707 0.0021172145891 0.0021116898347 0.0021061872576 0.0021007067533 0.0020952482143 
0.0020898116073 0.0020843968316 0.0020790038618 0.002073632481 0.0020682827232 0.0020629543419 0.0020576472344 0.0020523614006 0.0020470965477 
0.0020418529716 0.002036630215 0.0020314284723 0.002026247332 0.0020210867904 0.0020159468562 0.0020108274791 0.002005728414 0.0020006494664 
0.001995590902 0.0019905524716 0.0019855340542 0.0021368036249 0.0021312025804 0.0021256240373 0.0021200681958 0.0021145346984 0.0021090233677 
0.0021035342046 0.0020980671237 0.0020926218352 0.0020871986855 0.0020817970673 0.0020764172098 0.0020710588021 0.0020657220427 0.0020604065283 
0.0020551122546 0.0020498391548 0.0020445871906 0.0020393562506 0.0020341460278 0.002028956779 0.0020237879794 0.0020186399023 0.0020135122847 
0.0020084050684 0.0020033182841 0.0019982513892 0.0019932049282 0.0019881785472 0.0019831720167 0.0021340738218 0.0021284865446 0.0021229218639 
0.002117379661 0.0021118595777 0.0021063617715 0.0021008860572 0.0020954323318 0.002090000425 0.0020845904418 0.0020792021418 0.0020738352827 
0.0020684899933 0.00206316606 0.0020578634109 0.0020525820451 0.0020473217157 0.0020420824038 0.0020368640712 0.002031666601 0.002026489728 
0.0020213334348 0.0020161976786 0.0020110823598 0.0020059873408 0.0020009124921 0.0019958579913 0.0019908234853 0.0019858090256 0.0019808144637 
0.0021313490203 0.0021257756097 0.002120224571 0.0021146960682 0.0021091895473 0.0021037052481 0.0020982429072 0.0020928025552 0.002087383944 
0.0020819871313 0.0020766120825 0.0020712583995 0.0020659260145 0.0020606151373 0.0020553253499 0.0020500566664 0.0020448091201 0.0020395824857 
0.0020343767573 0.0020291918906 0.0020240275189 0.0020188836272 0.0020137601814 0.002008657152 0.0020035742721 0.0019985115727 0.0019934691397 
0.0019884467968 0.0019834443597 0.0019784617172 0.0021286294537 0.002123069791 0.0021175326461 0.0021120176208 0.0021065246705 0.0021010538388 
0.0020956049719 0.0020901779002 0.0020847725245 0.0020793889182 0.0020740268593 0.0020686864258 0.0020633671884 0.0020580690055 0.0020527922248 
0.0020475363902 0.0020423014916 0.0020370875371 0.0020318945201 0.0020267220955 0.0020215701557 0.0020164387137 0.002011327469 0.0020062367157 
0.0020011660485 0.0019961155881 0.0019910852417 0.0019860749358 0.0019810845904 0.001976113857 0.0021259152124 0.0021203694142 0.0021148458952 
0.0021093444388 0.0021038651153 0.0020984076792 0.0020929722308 0.0020875584446 0.0020821664383 0.0020767960088 0.0020714470558 0.0020661195541 
0.0020608132598 0.0020555281855 0.00205026412 0.0020450210893 0.0020397989238 0.0020345976467 0.0020294171899 0.0020242572598 0.0020191176868 
0.0020139986438 0.0020088999109 0.0020038211948 0.0019987629342 0.0019937246135 0.0019887063987 0.0019837079781 0.0019787294799 0.0019737707332 
0.0021232064145 0.0021176744132 0.0021121644788 0.0021066766896 0.0021012108557 0.0020957669213 0.0020903447926 0.0020849443084 0.0020795655557 
0.0020742082994 0.0020688724505 0.0020635579235 0.0020582646848 0.0020529924763 0.0020477412958 0.0020425109913 0.0020373014171 0.0020321129532 
0.0020269449333 0.0020217974996 0.0020166703284 0.0020115636789 0.0020064771947 0.0020014110047 0.0019963647847 0.0019913385854 0.0019863324301 
0.0019813460031 0.0019763793402 0.0019714324694 0.0021205032387 0.0021149848345 0.002109488556 0.0021040142975 0.0020985619772 0.0020931315447 
0.0020877227491 0.0020823355748 0.0020769700384 0.0020716259388 0.002066303195 0.00206100158 0.0020557213785 0.0020504619912 0.0020452236062 
0.0020400061132 0.0020348092957 0.0020296333973 0.0020244779121 0.0020193429662 0.002014228362 0.0020091339279 0.0020040597536 0.001999005742 
0.0019939717637 0.0019889576877 0.001983963433 0.0019789890192 0.001974034287 0.0019690992778 0.0021178054633 0.0021123007922 0.0021068181537 
0.0021013574879 0.0020959186705 0.0020905016204 0.0020851061821 0.0020797322748 0.0020743798652 0.0020690489234 0.0020637392407 0.0020584506826 
0.0020531832454 0.0020479369201 0.0020427113351 0.0020375066182 0.0020323226619 0.0020271591575 0.0020220162392 0.0020168937512 0.002011791343 
0.0020067093809 0.0020016475299 0.0019966057451 0.0019915838427 0.0019865818927 0.0019815997118 0.0019766371977 0.0019716944978 0.0019667711732 
0.0021151133752 0.0021096223947 0.0021041532986 0.0020987061763 0.0020932808668 0.0020878771834 0.00208249508 0.0020771344698 0.0020717953061 
0.0020664774686 0.0020611808477 0.0020559052747 0.0020506507378 0.00204541726 0.0020402044914 0.0020350123749 0.0020298411241 0.0020246902615 
0.0020195598154 0.002014449618 0.0020093597563 0.0020042901053 0.0019992405156 0.0019942109808 0.001989201348 0.0019842114186 0.0019792411756 
0.0019742906352 0.0019693598131 0.0019644482267 0.0021124269574 0.0021069495827 0.0021014941583 0.0020960605619 0.0020906487069 0.0020852584635 
0.002079889656 0.0020745422756 0.0020692162631 0.0020639115436 0.0020586278665 0.0020533653406 0.0020481237137 0.0020429029548 0.0020377030697 
0.0020325238357 0.0020273650479 0.0020222267334 0.0020171087909 0.0020120110825 0.0020069336047 0.0020018762426 0.0019968388836 0.0019918215225 
0.0019868240216 0.0019818461392 0.0019768880043 0.0019719493443 0.0019670303507 0.0019621305894 0.002109746266 0.0021042825665 0.0020988407249 
0.0020934206548 0.0020880222139 0.002082645297 0.0020772899104 0.0020719557188 0.0020666428863 0.0020613512007 0.0020560805318 0.0020508309548 
0.0020456022531 0.0020403942806 0.002035207137 0.0020300405872 0.0020248943818 0.0020197686524 0.0020146630393 0.0020095779423 0.0020045127899 
0.0019994677359 0.0019944426152 0.0019894373913 0.0019844520104 0.0019794861835 0.0019745400454 0.0019696133634 0.0019647062956 0.0019598183236 
0.0021070712965 0.0021016212112 0.0020961930427 0.0020907864491 0.0020854014362 0.0020800379011 0.0020746957721 0.0020693748026 0.0020640750998 
0.0020587964348 0.0020535387994 0.0020483021925 0.0020430863157 0.0020378911386 0.0020327167319 0.0020275628261 0.0020224292203 0.0020173158825 
0.002012222901 0.0020071501414 0.0020020974117 0.0019970646414 0.0019920517299 0.0019870587071 0.0019820853438 0.0019771316316 0.0019721974592 
0.0019672826621 0.0019623874225 0.0019575111999 0.002104402194 0.002098965726 0.0020935510114 0.0020881580022 0.0020827864179 0.0020774361979 
0.0020721073141 0.0020667995513 0.0020615129454 0.0020562473349 0.0020510027143 0.0020457789701 0.0020405759588 0.0020353935729 0.0020302318674 
0.0020250905865 0.0020199693917 0.0020148687587 0.0020097882301 0.0020047278569 0.0019996875015 0.0019946669557 0.0019896663199 0.0019846854089 
0.0019797241179 0.0019747823307 0.0019698601429 0.0019649572304 0.0019600736103 0.0019552092073 0.0021017388731 0.0020963160225 0.0020909148148 
0.0020855351601 0.0020801769928 0.0020748401321 0.0020695244905 0.0020642299055 0.0020589563518 0.002053703853 0.0020484722746 0.0020432614122 
0.0020380711825 0.0020329017234 0.0020277525708 0.0020226237429 0.0020175152814 0.0020124271468 0.0020073590546 0.0020023111019 0.0019972830205 
0.0019922747903 0.0019872862505 0.0019823174686 0.0019773682105 0.0019724384203 0.0019675281235 0.0019626370723 0.0019577653298 0.0019529126816 
0.00209908122 0.0020936721333 0.0020882844233 0.0020829182038 0.0020775733036 0.0020722497392 0.0020669474094 0.0020616659894 0.0020564055701 
0.0020511660481 0.0020459474034 0.0020407493717 0.0020355719809 0.0020304152491 0.0020252785622 0.0020201624845 0.0020150666822 0.0020099910312 
0.0020049353361 0.0019998997668 0.0019948839696 0.001989887918 0.0019849116622 0.0019799548949 0.0019750176599 0.0019700996859 0.0019652013096 
0.0019603223493 0.0019554623736 0.0019506214125 0.0020964296051 0.0020910340369 0.0020856598244 0.0020803069773 0.0020749754513 0.0020696651488 
0.0020643759418 0.0020591077997 0.0020538603987 0.0020486339021 0.0020434281859 0.0020382430612 0.0020330784234 0.0020279342529 0.0020228104182 
0.0020177068517 0.0020126235889 0.0020075603878 0.0020025172184 0.0019974938522 0.0019924903236 0.0019875064807 0.0019825423709 0.00197759751 
0.0019726723387 0.0019677664899 0.0019628800048 0.001958012882 0.0019531646641 0.0019483354759 0.0020937836625 0.0020884015377 0.0020830409375 
0.0020777014634 0.0020723833165 0.0020670862819 0.0020618102528 0.0020565550576 0.0020513207915 0.0020461073746 0.0020409145453 0.0020357422649 
0.0020305904174 0.0020254589094 0.0020203477523 0.002015256796 0.0020101859164 0.0020051352248 0.0020001044351 0.0019950934268 0.0019901021673 
0.0019851305126 0.0019801782824 0.0019752457486 0.0019703325208 0.0019654386213 0.0019605640173 0.0019557086708 0.0019508722354 0.0019460548082 
0.0020911435367 0.002085774941 0.0020804276173 0.0020751016858 0.0020697968334 0.0020645130278 0.0020592502209 0.0020540081099 0.0020487868842 
0.0020435863417 0.0020384065101 0.0020332468553 0.0020281079395 0.0020229891245 0.002017890602 0.002012812197 0.0020077538262 0.0020027155684 
0.001997697097 0.0019926983586 0.0019877191589 0.0019827597819 0.0019778198173 0.0019728993039 0.0019679980409 0.0019631160538 0.0019582533551 
0.0019534096698 0.0019485849216 0.0019437792046 0.002088509141 0.0020831539783 0.002077820121 0.002072507593 0.0020672160262 0.0020619454416 
0.0020566957488 0.0020514667203 0.0020462585371 0.0020410709517 0.0020359037344 0.0020307572381 0.0020256309673 0.002020524867 0.0020154389137 
0.002010372997 0.0020053271243 0.0020003011849 0.0019952949433 0.0019903084796 0.0019853417045 0.0019803944341 0.0019754665594 0.0019705579978 
0.0019656688808 0.0019607987498 0.0019559479726 0.0019511161099 0.0019463030846 0.001941509038 0.0020858803526 0.0020805387197 0.0020752183043 
0.0020699189888 0.0020646408427 0.0020593834314 0.0020541467856 0.002048930901 0.0020437356695 0.0020385608306 0.0020334066542 0.0020282729732 
0.0020231593264 0.0020180658983 0.0020129926215 0.0020079392804 0.0020029056528 0.0019978921069 0.0019928983922 0.0019879242145 0.001982969624 
0.0019780344761 0.0019731186503 0.0019682221534 0.0019633448258 0.0019584867073 0.0019536478196 0.0019488277287 0.0019440264363 0.0019392439677 
0.0020832572078 0.0020779290175 0.0020726220006 0.0020673360439 0.0020620710247 0.0020568269471 0.0020516033907 0.0020464004148 0.0020412181619 
0.0020360564095 0.0020309150718 0.0020257941061 0.0020206932062 0.0020156124077 0.0020105515108 0.0020055107171 0.0020004897242 0.0019954885218 
0.0019905071201 0.0019855451677 0.0019806027955 0.0019756798193 0.0019707760352 0.0019658914844 0.0019610261555 0.0019561799149 0.0019513527862 
0.0019465444435 0.0019417548806 0.0019369840838 0.0020806396634 0.0020753249036 0.0020700312531 0.0020647586388 0.0020595068266 0.002054275914 
0.0020490652734 0.0020438754984 0.0020387062038 0.0020335573419 0.0020284289701 0.0020233205809 0.0020182322446 0.0020131640674 0.0020081158877 
0.0020030875192 0.0019980790202 0.001993090263 0.0019881210711 0.0019831714522 0.0019782411783 0.0019733302718 0.0019684385256 0.0019635660028 
0.0019587125967 0.0019538782809 0.001949062889 0.0019442662877 0.0019394884128 0.0019347291758 0.0020780275481 0.0020727262765 0.0020674459862 
0.0020621866627 0.0020569480686 0.002051729921 0.0020465327694 0.0020413559894 0.0020361995992 0.0020310634252 0.0020259479131 0.0020208522646 
0.0020157767186 0.0020107211709 0.0020056854861 0.0020006696355 0.0019956735008 0.0019906970062 0.0019857401519 0.0019808028311 0.0019758847007 
0.0019709857985 0.0019661061724 0.0019612456214 0.001956404099 0.0019515816318 0.0019467779729 0.0019419931454 0.0019372268777 0.0019324792725 
0.0020754209454 0.0020701330539 0.0020648661061 0.0020596200561 0.0020543945179 0.0020491896235 0.0020440054437 0.002038841626 0.0020336981247 
0.0020285749855 0.0020234721551 0.0020183892499 0.0020133263702 0.0020082834283 0.0020032602906 0.0019982568723 0.0019932731278 0.0019883089033 
0.001983364301 0.0019784390162 0.00197353315 0.0019686464624 0.00196377885 0.0019589302634 0.0019541006533 0.0019492900008 0.0019444980533 
0.0019397249307 0.0019349703058 0.0019302343659 0.0020728195388 0.0020675450372 0.0020622914211 0.0020570584345 0.0020518461404 0.0020466544048 
0.0020414832267 0.0020363326543 0.0020312020575 0.0020260917532 0.0020210016471 0.0020159314761 0.002010881235 0.0020058508417 0.0020008401509 
0.0019958491597 0.0019908777783 0.0019859259728 0.0019809934836 0.0019760804089 0.0019711865979 0.0019663118626 0.0019614563492 0.001956619766 
0.0019518019843 0.0019470030822 0.0019422229952 0.0019374614373 0.001932718522 0.0019279940178 0.002070223443 0.0020649619746 0.0020597216567 
0.0020545020509 0.0020493030109 0.0020441244012 0.0020389662838 0.0020338284185 0.0020287108536 0.0020236134817 0.0020185360008 0.0020134785113 
0.0020084408879 0.0020034230527 0.0019984248998 0.0019934463526 0.0019884873014 0.001983547715 0.0019786275183 0.0019737265251 0.0019688448345 
0.0019639821609 0.0019591385472 0.0019543138433 0.0019495082042 0.0019447211893 0.0019399527285 0.0019352028041 0.0019304715031 0.0019257586806 
0.0021711870275 0.0021654724184 0.0021597808777 0.0021541123906 0.0021484669098 0.0021428440815 0.0021372440099 0.0021316664821 0.0021261112912 
0.0021205784942 0.0021150678319 0.0021095794649 0.0021041131429 0.0020986687688 0.0020932461311 0.0020878453043 0.0020824660412 0.0020771084555 
0.0020717720985 0.0020664571777 0.0020611635405 0.0020558910521 0.0020506396487 0.0020454091496 0.00204019964 0.002035010747 0.0020298425195 
0.0020246948102 0.0020195675453 0.002014460946 0.0021684054089 0.0021627048528 0.002157027251 0.0021513726904 0.0021457408736 0.0021401319011 
0.0021345453399 0.0021289815005 0.0021234397949 0.0021179202538 0.0021124230063 0.0021069479413 0.0021014947515 0.0020960635746 0.0020906540359 
0.0020852662317 0.0020798999824 0.0020745552034 0.0020692316935 0.0020639294575 0.0020586485086 0.0020533886049 0.0020481496627 0.0020429317792 