# vtk DataFile Version 5.1
vtk output
ASCII
DATASET STRUCTURED_POINTS
DIMENSIONS 20 20 40
SPACING 0.05 0.05 0.05
ORIGIN 3.225 -0.475 0.525
POINT_DATA 16000
FIELD FieldData 1
potential 1 16000 double
0.00069475002944 0.00068775576942 0.00068088291082 0.00067412894319 0.00066626621433 0.00066014974608 0.00065414274354 0.00064823989363 0.00064243721683 
0.00063673144082 0.0006311197887 0.00062559934916 0.00062016815402 0.00061482493988 0.00060956554959 0.00060438874371 0.0005992916206 0.00059427300554 
0.00058932871501 0.00058445670987 0.00069058875539 0.00068365213265 0.00067683607033 0.00067013712863 0.00066173497008 0.00065567987414 0.00064973316909 
0.0006438896365 0.00063814510242 0.00063249606256 0.00062693975308 0.00062147356799 0.00061609590187 0.00061080231407 0.00060559362441 0.00060046575521 
0.00059541667934 0.00059044376611 0.00058554474108 0.00058071718414 0.0006862498515 0.00067937119615 0.00067261087124 0.00066596591977 0.00065702950186 
0.00065103711525 0.0006451515458 0.00063936819777 0.00063368276594 0.00062809160516 0.00062259190591 0.00061718092226 0.0006118572461 0.00060661752446 
0.00060146025853 0.00059638408166 0.0005913839461 0.00058645888114 0.00058160727947 0.00057682687203 0.0006818282421 0.00067500788585 0.00066829976939 
0.000661706994 0.00065224112561 0.00064631164076 0.00064048814236 0.00063476548546 0.00062913950576 0.00062360699062 0.00061816420825 0.00061281018368 
0.00060754116452 0.0006023556606 0.00059725204786 0.00059222680954 0.00058727744598 0.00058240207029 0.00057759943268 0.00057286731479 0.00067741431002 
0.00067064840147 0.00066399286675 0.00065745085932 0.00064745799966 0.0006415914809 0.00063582945249 0.00063016688144 0.00062460060362 0.00061912623418 
0.00061374157539 0.00060844365394 0.0006032309593 0.00059809995555 0.00059304907236 0.00058807665651 0.00058317851333 0.00057835408796 0.00057360144281 
0.00056891874734 0.00067308946389 0.00066637175747 0.00065976633546 0.00065327019721 0.0006427556593 0.00063695146192 0.00063125022454 0.00062564669834 
0.00062013957239 0.00061472347428 0.00060939594298 0.00060415501182 0.00059899702977 0.0005939204377 0.00058892315889 0.0005840034712 0.0005791573571 
0.00057438416392 0.00056968219812 0.00056504900868 0.00066890905134 0.00066223978671 0.00065567862876 0.00064922722922 0.00063819377099 0.00063245131056 
0.00062680936345 0.00062126569038 0.00061581609809 0.00061045698426 0.00060518703037 0.00060000096758 0.00059489792792 0.00058987514926 0.00058493104746 
0.00058006379375 0.00057526941554 0.00057054736422 0.00056589579098 0.00056131210173 0.00066492141386 0.00065829500647 0.00065177503136 0.00064536254979 
0.00063381476641 0.00062813277378 0.00062255094614 0.00061706517956 0.00061167248841 0.00060637074204 0.00060115512495 0.00059602389649 0.00059097496495 
0.00058600561977 0.00058111396685 0.00057629853875 0.00057155576398 0.00056688431026 0.00056228214328 0.00055774801639 0.00066115482096 0.0006545672714 
0.00064808371639 0.00064170599384 0.00062965097204 0.00062402737593 0.00061850303617 0.00061307503654 0.00060773834612 0.0006024907102 0.00059732947222 
0.00059225196437 0.00058725607765 0.00058233912634 0.00057749930266 0.0005727351862 0.00056804296803 0.00056342111967 0.00055886847136 0.00055438424703 
0.00065762700469 0.00065107331242 0.00064462208796 0.00063827621558 0.00062571648318 0.00062015077872 0.00061468384604 0.00060931034421 0.00060402837527 
0.00059883468375 0.00059372664885 0.000588701614 0.00058375763798 0.00057889231178 0.00057410329522 0.00056938921834 0.00056474668115 0.00056017376545 
0.0005556711228 0.00055123261544 0.00065434590388 0.00064782206575 0.00064139749065 0.00063507816611 0.00062201952943 0.0006165112648 0.00061109848872 
0.00060577943723 0.00060055055288 0.00059540947008 0.00059035330573 0.00058538024357 0.00058048672339 0.00057567171034 0.00057093242643 0.00056626730622 
0.00056167497375 0.00055715031065 0.00055269349721 0.00054830203738 0.00065131210734 0.00064481108827 0.00063841020707 0.00063211207072 0.00061856046814 
0.00061310625411 0.00060774746359 0.00060248121563 0.00059730475817 0.00059221519369 0.00058721000313 0.00058228655211 0.00057744282019 0.00057267691262 
0.00056798618944 0.00056337083977 0.0005588247685 0.00055434747832 0.00054993714404 0.00054559129943 0.00064851349403 0.00064203136361 0.00063564898749 
0.0006293639013 0.00061532866921 0.00060992805839 0.000604622274 0.00059940771527 0.00059428215789 0.00058924289499 0.00058428729853 0.00057941268507 
0.00057461810367 0.0005699016432 0.0005652587281 0.00056068901391 0.00055618971108 0.00055175879198 0.00054739377919 0.00054309313922 0.00064815719244 
0.00064288859196 0.00063773304967 0.00063268860002 0.0006158127123 0.00061064870661 0.00060554811759 0.0006005103873 0.00059553338217 0.00059061578865 
0.00058575722411 0.00058095625583 0.00057621248166 0.00057152453255 0.00056689216605 0.00056231488709 0.00055779145964 0.00055331987661 0.0005488998396 
0.00054453082646 0.00064580207139 0.00064055429264 0.00063541680883 0.00063038657825 0.00061367210747 0.00060854474411 0.00060348152012 0.00059848060094 
0.00059354039994 0.00058865953127 0.00058383724907 0.00057907289759 0.00057436577987 0.00056971440008 0.00056511904392 0.00056057894418 0.00055609239899 
0.00055165806426 0.00054727513187 0.00054294274062 0.00064357780457 0.00063834930684 0.0006332288323 0.00062821038226 0.0006116937985 0.00060660235254 
0.00060157468769 0.00059660925458 0.00059170443354 0.0005868586169 0.00058207100522 0.00057734149733 0.00057266928706 0.00056805316908 0.00056349312717 
0.00055898882081 0.00055453759435 0.00055013870895 0.00054579118632 0.00054149359501 0.00064142504568 0.00063621633618 0.0006311116095 0.00062610731499 
0.00060982019311 0.00060476373192 0.00059977108129 0.00059484023655 0.00058996958516 0.00058515808721 0.00058040428759 0.00057570860802 0.00057107039954 
0.00056648862262 0.00056196257861 0.00055749235286 0.00055307508654 0.00054871013652 0.00054439630398 0.00054013230347 0.00063927099269 0.00063408155716 
0.00062899151346 0.00062400331406 0.0006079785959 0.0006029569218 0.00059799890428 0.00059310293144 0.00058826660762 0.00058348918837 0.00057876892125 
0.00057410675983 0.00056950190565 0.00056495369021 0.00056046162027 0.00055602420594 0.0005516397952 0.00054730740513 0.00054302638287 0.00053879479785 
0.00063702936454 0.00063185897043 0.00062678876398 0.00062181611699 0.00060608445304 0.00060109877702 0.00059617692121 0.0005913161553 0.000586515044 
0.00058177197583 0.00057708657187 0.00057245856299 0.0005678870183 0.00056337190508 0.00055891262921 0.00055450837987 0.00055015630237 0.00054585637728 
0.00054160725976 0.00053740747698 0.00063461244541 0.00062946503124 0.00062441508716 0.00061946052212 0.00060405175759 0.00059910358784 0.00059421894599 
0.00058939570136 0.00058463132263 0.00057992455809 0.0005752749754 0.00057068163587 0.00056614480531 0.00056166352576 0.00055723774011 0.00055286604827 
0.00054854671565 0.00054427889615 0.00054006176114 0.00053589356192 0.00075262393365 0.00074516321846 0.00073783007044 0.00073062193035 0.00072215176778 
0.00071553706398 0.00070903862231 0.00070265203954 0.00069637320658 0.00069019917385 0.00068412648953 0.00067815181948 0.00067227456126 0.00066649011152 
0.0006607965278 0.00065519175365 0.00064967295957 0.00064423879584 0.00063888509921 0.00063361020225 0.00074841310949 0.00074101151035 0.00073373630836 
0.00072658481833 0.00071758539399 0.00071103329402 0.00070459645501 0.00069827042312 0.00069205090181 0.0006859346478 0.00067991862919 0.00067399999167 
0.00066817557871 0.00066244415745 0.00065680362122 0.00065124901912 0.00064578052159 0.00064039404172 0.00063508785172 0.00062985923162 0.00074406383873 
0.00073672279464 0.00072950308956 0.000722407095 0.00071288430618 0.00070639606373 0.00070002188806 0.00069375748258 0.0006875981048 0.00068154098084 
0.00067558289577 0.00066972081824 0.00066395242197 0.00065827541813 0.00065268709056 0.00064718600928 0.00064176784048 0.00063643105527 0.00063117393739 
0.00062599388786 0.00073964379759 0.00073236038587 0.00072519614245 0.00071815508244 0.00070811354763 0.00070168995075 0.00069537914179 0.00068917634748 
0.0006830783632 0.0006770809385 0.00067118092242 0.0006653765713 0.00065966493954 0.00065404366279 0.00064850947746 0.00064306107218 0.00063769483908 
0.00063240946477 0.00062720260238 0.0006220724519 0.00073522022261 0.0007279925491 0.00072088205969 0.00071389285477 0.00070333837014 0.00069697956984 
0.0006907318871 0.0006845914306 0.00067855413283 0.00067261675985 0.0006667760676 0.00066102957733 0.00065537522737 0.00064980926766 0.00064433000121 
0.00063893541833 0.00063362213818 0.00062838887403 0.00062323315888 0.00061815325809 0.00073085692918 0.00072367902077 0.00071662075727 0.00070967944655 
0.00069861696229 0.00069232285135 0.00068613823125 0.00068005936812 0.00067408300722 0.00066820556483 0.00066242396795 0.00065673600105 0.00065113754038 
0.00064562783492 0.00064020348821 0.0006348631394 0.00062960315287 0.00062442219218 0.00061931826941 0.00061428930682 0.00072659723831 0.0007194701163 
0.00071245848192 0.0007055642213 0.00069399837899 0.00068776743088 0.00068164600757 0.00067562890182 0.00066971280851 0.0006638945934 0.00065817240586 
0.00065254121844 0.00064699952909 0.000641545523 0.00063617611948 0.0006308902076 0.00062568349248 0.00062055501422 0.00061550290316 0.00061052464939 
0.00072248443532 0.00071540270644 0.00070843531573 0.00070158282339 0.00068951952964 0.00068335299211 0.00067729309194 0.00067133653745 0.00066548024756 
0.00065972172919 0.00065405628817 0.00064848220461 0.00064299695797 0.0006375980505 0.00063228349799 0.00062705136396 0.00062189779725 0.00061682125185 
0.00061182072822 0.00060689330549 0.00071854399404 0.00071150432786 0.0007045765448 0.00069776302909 0.00068520886976 0.00067910427304 0.0006731053248 
0.00066720978531 0.00066141214606 0.0006557108855 0.00065010272436 0.00064458511853 0.00063915529183 0.00063381091849 0.00062855037886 0.00062337148809 
0.00061827058741 0.00061324607061 0.00060829640237 0.00060342102081 0.00071479305311 0.00070779111142 0.00070089972849 0.00069412160998 0.00068108183931 
0.00067503839141 0.0006691005304 0.00066326302894 0.0006575234294 0.00065187910762 0.00064632729074 0.00064086532352 0.00063549028267 0.00063019992202 
0.00062499284297 0.00061986644042 0.00061481735782 0.00060984592425 0.0006049467435 0.00060011969316 0.00071124019663 0.00070427205283 0.00069741186746 
0.00069066463963 0.00067714578219 0.00067116346735 0.00066528395916 0.00065950436871 0.00065382210811 0.00064823405561 0.00064273766445 0.00063733017739 
0.00063200900787 0.00062677249973 0.00062161795613 0.00061654324893 0.00061154705054 0.00060662454144 0.00060177550094 0.00059699744752 0.00070788517741 
0.00070094526532 0.00069411268906 0.00068739245915 0.00067340187658 0.00066747790893 0.0006616564091 0.00065593400192 0.00065030821975 0.00064477556723 
0.00063933365608 0.00063398015123 0.0006287123087 0.00062352836468 0.00061842536902 0.00061340355762 0.00060845635829 0.00060358390311 0.00059878394874 
0.00059405422275 0.00070471796509 0.00069780201025 0.00069099399183 0.00068429135402 0.00066983957597 0.00066397425978 0.00065821002173 0.00065254419376 
0.00064697359436 0.00064149578599 0.00063610788953 0.00063080725964 0.00062559231915 0.00062046142769 0.00061540943445 0.0006104364432 0.00060553947646 
0.00060071649902 0.00059596500997 0.00059128314317 0.00070394397403 0.00069818666582 0.00069254895268 0.00068702657431 0.00066986357972 0.00066424755339 
0.00065870190368 0.00065322491029 0.00064781551939 0.00064247148603 0.00063719215554 0.00063197631078 0.00062682322086 0.00062173163504 0.00061670066694 
0.00061173024277 0.00060681884921 0.00060196512176 0.00059716799716 0.0005924274187 0.00070113095373 0.00069540182732 0.00068978792267 0.00068428619621 
0.00066729925936 0.00066172611281 0.00065622312734 0.00065078867497 0.00064542088291 0.00064011873254 0.00063488070274 0.00062970639319 0.00062459476435 
0.00061954422162 0.00061455433421 0.00060962538479 0.00060475467302 0.00059994137183 0.00059518493253 0.00059048448175 0.00069841277417 0.00069271000914 
0.00068711907007 0.00068163618193 0.00066486253328 0.0006593312993 0.0006538697995 0.00064847604775 0.00064314916554 0.00063788737381 0.00063268931225 
0.00062755518005 0.00062248344726 0.00061747267472 0.00061252285531 0.00060763364188 0.00060280206431 0.00059802813574 0.00059331102433 0.00058864904823 
0.00069574056312 0.00069006467114 0.00068449776393 0.00067903429488 0.00066250571527 0.00065701527522 0.00065159402026 0.00064624109045 0.00064095401468 
0.00063573196707 0.0006305735843 0.00062547844588 0.00062044525339 0.00061547375309 0.00061056309833 0.00060571215093 0.00060091902613 0.00059618311161 
0.00059150349237 0.00058687884885 0.00069305975868 0.00068741027497 0.00068186484342 0.00067642482251 0.00066017170938 0.00065472182669 0.00064934172282 
0.00064402871826 0.00063878162987 0.00063359868543 0.00062847962183 0.00062342324617 0.00061842885507 0.00061349569852 0.00060862309097 0.0006038100607 
0.00059905409357 0.0005943553483 0.00058971265296 0.00058512471302 0.00069030624073 0.00068468266798 0.00067916322627 0.00067374516044 0.00065779819359 
0.00065238961128 0.00064705052139 0.00064177824543 0.00063657154501 0.0006314284083 0.00062634894242 0.00062133162046 0.00061637574682 0.00061148091076 
0.00060664614146 0.00060187027593 0.00059715133614 0.00059248932185 0.00058788307081 0.00058333114798 0.00068741640438 0.00068182202981 0.00067632910734 
0.00067093485509 0.00065532183997 0.0006499559085 0.00064465890772 0.00063942858451 0.0006342631395 0.00062916125837 0.00062412180824 0.00061914426942 
0.00061422755218 0.0006093712991 0.00060457421526 0.00059983607408 0.00059515448817 0.00059052922424 0.00058595915258 0.0005814431744 0.00081057335471 
0.00080264530289 0.00079485219207 0.00078719025877 0.00077811127394 0.00077100118929 0.00076401419855 0.00075714636773 0.00075039344525 0.00074375239061 
0.00073721937552 0.00073079214863 0.00072446832007 0.00071824408146 0.00071211703013 0.00070608489718 0.00070014583567 0.00069429600995 0.0006885332717 
0.00068285572114 0.0008062526426 0.00079838586627 0.00079065255434 0.00078304994722 0.00077345198024 0.00076640659081 0.00075948306313 0.00075267730784 
0.00074598543703 0.00073940397962 0.00073292973932 0.00072656055017 0.00072029130316 0.00071412184881 0.00070804955947 0.00070207075115 0.00069618269603 
0.0006903833987 0.00068467021883 0.0006790415731 0.00080182538016 0.00079402112771 0.00078634524427 0.00077880030979 0.00076869008884 0.00076171034252 
0.00075485148841 0.00074810886489 0.00074147872958 0.00073495829522 0.00072854450497 0.0007222319799 0.00071602104437 0.00070990789472 0.00070389109161 
0.00069796534603 0.00069213007604 0.00068638290439 0.00068072094795 0.00067514207612 0.00079734061817 0.00078959560211 0.0007819773006 0.0007744893106 
0.00076387257005 0.00075695921151 0.00075016515756 0.00074348645192 0.00073691940177 0.00073046082711 0.00072410558689 0.00071785343193 0.00071170044614 
0.00070564483928 0.00069968276851 0.00069381249914 0.00068803140806 0.00068233705171 0.00067672715442 0.00067119964404 0.00079284814735 0.00078516025557 
0.00077759825549 0.00077016414201 0.0007590474659 0.00075220096692 0.00074547216705 0.00073885785216 0.00073235322146 0.00072595558833 0.00071966209892 
0.00071346962131 0.00070737624475 0.00070137755071 0.00069547183861 0.00068965709005 0.00068393069132 0.00067828979637 0.00067273260784 0.00066725718566 
0.00078839759499 0.00078076211909 0.00077325382289 0.00076587057199 0.00075425972321 0.00074748005937 0.00074081669832 0.00073426619031 0.00072782475831 
0.00072148950228 0.00071525669509 0.00070912471166 0.00070308913175 0.00069714846485 0.0006912995216 0.00068554108274 0.00067986908098 0.00067428248079 
0.00066877841004 0.00066335544169 0.00078402240895 0.00077644006189 0.00076898112947 0.00076164665049 0.00074954854993 0.00074283445789 0.0007362369472 
0.000729750434 0.00072337199886 0.00071709849961 0.0007109274405 0.00070485401637 0.00069887727856 0.00069299436595 0.00068720234273 0.00068149997383 
0.00067588356997 0.00067035087603 0.00066490024811 0.00065952985373 0.00077975900574 0.00077222410775 0.00076481345404 0.00075752462285 0.00074494452851 
0.00073829799749 0.00073176466823 0.00072534154784 0.00071902642171 0.00071281433051 0.00070670255472 0.00070068880122 0.00069477045472 0.00068894505552 
0.00068321019852 0.00067756362292 0.00067200185292 0.00066652335635 0.00066112627939 0.00065580819834 0.00077562999501 0.00076814055549 0.00076077278164 
0.00075352644277 0.00074047264351 0.00073389130595 0.0007274220792 0.00072106308945 0.00071480888495 0.00070865740606 0.00070260569407 0.00069665113027 
0.00069079073417 0.0006850224012 0.00067934382202 0.00067375285915 0.00066824589558 0.00066282149843 0.00065747743667 0.00065221339001 0.00077164952994 
0.00076420309717 0.00075687476465 0.00074966754653 0.0007361462297 0.00072962953244 0.00072322509872 0.00071692759899 0.0007107345406 0.00070464313069 
0.00069865117139 0.00069275505446 0.00068695231646 0.00068124062694 0.00067561808132 0.00067008220418 0.00066462968827 0.00065926061027 0.00065396917466 
0.00064875565675 0.00076782770388 0.00076041892694 0.00075312569647 0.00074595353425 0.00073197380809 0.00072552133045 0.00071917864323 0.00071294270245 
0.00070681057436 0.00070077916036 0.00069484601982 0.00068900773608 0.00068326215985 0.00067760708074 0.00067203971396 0.00066655854428 0.000661161498 
0.00065584396857 0.00065060527383 0.00064544301159 0.0007641628645 0.0007567864224 0.00074952556593 0.00074238507396 0.00072795350478 0.00072156413546 
0.0007152836899 0.00070910915627 0.00070303731213 0.0006970651542 0.00069119004885 0.00068540936391 0.00067972078942 0.00067412126694 0.00066861059119 
0.00066318357469 0.00065783799473 0.00065257329585 0.000647386647 0.00064227550944 0.00076064606222 0.00075329987577 0.00074606734417 0.00073894953601 
0.00072407873487 0.00071775231102 0.00071153380926 0.00070541973292 0.00069940777422 0.00069349443924 0.00068767700352 0.00068195351793 0.00067632083674 
0.00067077827282 0.00066532044818 0.00065994724016 0.00065465493503 0.00064944273952 0.00064430719869 0.00063924680475 0.00075947735308 0.00075323504644 
0.00074711804007 0.00074112154978 0.00072367485808 0.0007176109695 0.00071162334769 0.00070571096477 0.000699871504 0.0006941039824 0.00068840704731 
0.00068277876953 0.00067721908192 0.00067172632668 0.00066629945561 0.00066093870694 0.00065564213267 0.00065040834821 0.00064523687787 0.00064012712612 
0.00075624641145 0.0007500386151 0.00074395115153 0.00073798053988 0.00072072525228 0.00071470963508 0.00070876991703 0.00070290424726 0.00069711158826 
0.00069139054823 0.00068573915203 0.00068015718813 0.00067464301271 0.00066919567766 0.00066381391618 0.00065849819398 0.00065324599502 0.00064805624483 
0.00064292875138 0.00063786229241 0.000753084618 0.00074691047979 0.00074085201743 0.00073490643515 0.00071787839003 0.00071190972969 0.0007060164592 
0.00070019724944 0.0006944501389 0.00068877432912 0.00068316785164 0.00067763056034 0.00067216084817 0.0006667574095 0.00066142010289 0.00065614795383 
0.00065093859116 0.00064579196981 0.00064070702305 0.00063568279076 0.0007499552764 0.00074381338768 0.00073778321891 0.00073186513194 0.00071509590402 
0.00070917317302 0.0007033258844 0.00069755207498 0.00069185029884 0.00068621891782 0.0006806567666 0.00067516337759 0.00066973724596 0.000664376911 
0.00065908269962 0.00065385315762 0.00064868636852 0.00064358146076 0.00063853806493 0.0006335550009 0.00074681472742 0.0007407054521 0.00073470490718 
0.00072881390817 0.00071233353271 0.00070645672655 0.00070065506671 0.00069492663117 0.00068926955937 0.00068368221851 0.00067816432498 0.00067271460395 
0.00066733098852 0.0006620140971 0.0006567622689 0.00065157463925 0.00064644912249 0.00064138557195 0.00063638300719 0.00063143997995 0.00074361584233 
0.00073753856759 0.00073156971744 0.00072570665197 0.0007095441764 0.00070371370725 0.00069795809466 0.0006922749199 0.00068666286117 0.00068112021205 
0.0006756463052 0.00067023975048 0.00066489964011 0.00065962544993 0.00065441580144 0.0006492693527 0.00064418516889 0.00063916234056 0.00063420004724 
0.00062929706018 0.00074031307898 0.0007342705293 0.00072833352791 0.00072249944597 0.00070668179956 0.00070089854417 0.00069518948792 0.00068955237602 
0.0006839857042 0.00067848858789 0.00067305889453 0.00066769672235 0.00066239994123 0.00065716824816 0.00065200049727 0.00064689599797 0.00064185301685 
0.00063687101174 0.0006319489301 0.00062708569655 0.00086854040751 0.00086014514568 0.00085189307002 0.00084377789134 0.00083408851422 0.00082648607401 
0.00081901338659 0.00081166629389 0.00080444166053 0.00079733503466 0.00079034379529 0.00078346475193 0.00077669609768 0.00077003180944 0.00076347341089 
0.00075701525208 0.00075065617636 0.00074439234445 0.00073822176713 0.00073214230346 0.00086406814782 0.00085573653488 0.00084754616873 0.00083949378933 
0.00082929642979 0.00082176081338 0.00081435372926 0.00080707095373 0.00079990914414 0.00079286486497 0.00078593422279 0.00077911560261 0.00077240332651 
0.00076579748055 0.00075929494892 0.00075289208675 0.00074658620991 0.00074037546859 0.00073425673007 0.00072822847007 0.00085951489665 0.00085124827703 
0.00084311764154 0.00083512540937 0.00082442735715 0.00081695953243 0.00080961903853 0.00080240149662 0.00079530388397 0.00078832212255 0.00078145415062 
0.00077469408201 0.00076804236442 0.00076149447794 0.00075504958276 0.0007487023954 0.00074245133878 0.00073629453943 0.00073022894138 0.00072425294499 
0.00085491614036 0.00084671110111 0.00083864043878 0.00083070770605 0.00081951518931 0.00081211615906 0.0008048424575 0.00079769133543 0.00079065813329 
0.00078373947174 0.00077693306204 0.00077023546693 0.00076364378487 0.00075715592226 0.00075076817696 0.00074447739411 0.00073828263727 0.00073218058687 
0.0007261691349 0.00072024602002 0.00085031127991 0.00084216386844 0.00083415176616 0.00082627585329 0.00081459606749 0.00080726567349 0.00080005985702 
0.00079297477865 0.00078600654331 0.00077915216508 0.00077240872588 0.00076577277976 0.00075924253827 0.00075281336697 0.00074648330896 0.00074025075626 
0.0007341123671 0.00072806601956 0.00072210919721 0.00071623979097 0.0008457316181 0.00083764177964 0.00082968619984 0.00082186327146 0.00080970405581 
0.00080244290716 0.00079530496751 0.00078828627578 0.00078138385897 0.00077459369996 0.00076791293252 0.00076134002244 0.00075486963517 0.00074850045967 
0.0007422293548 0.00073605491158 0.00072997351764 0.00072398283977 0.00071808081651 0.00071226559619 0.0008412115492 0.00083317645568 0.00082527289896 
0.00081750210881 0.00080487038027 0.00079767772971 0.00079060818106 0.0007836562302 0.00077681886227 0.00077009422866 0.00076347664401 0.00075696425441 
0.00075055499131 0.0007442457969 0.000738034002 0.00073191765053 0.00072589330031 0.00071995878996 0.00071411196 0.00070835122526 0.00083677620783 
0.00082879179829 0.00082093962172 0.00081321667668 0.00080011978168 0.00079299734242 0.00078599501183 0.00077910920368 0.00077233802113 0.00076567635138 
0.00075912169573 0.00075267161756 0.00074632300482 0.00074007378875 0.00073392105214 0.00072786288359 0.0007218955649 0.00071601743694 0.00071022587502 
0.0007045196252 0.00083244504077 0.0008245093356 0.00081670372971 0.00080902720101 0.00079547325691 0.00078841891228 0.00078148375207 0.00077466528387 
0.00076795794758 0.00076135986684 0.00075486804592 0.00074847980768 0.00074219201792 0.00073600231209 0.00072990877734 0.00072390828311 0.00071799796351 
0.0007121759053 0.00070644154647 0.00070078969329 0.00082823035419 0.00082034154034 0.00081257854207 0.00080494550646 0.00079094178748 0.00078395581364 
0.00077708847715 0.00077033465603 0.00076369209324 0.00075715740667 0.00075072825502 0.00074440131356 0.00073817395253 0.00073204420968 0.00072600874516 
0.00072006594991 0.00071421256712 0.00070844815275 0.0007027672302 0.00069717004752 0.00082414106476 0.00081629362039 0.00080857063993 0.0008009764158 
0.00078653344642 0.0007796151936 0.00077281347737 0.00076612498891 0.00075954671788 0.00075307534992 0.00074670817255 0.0007404425605 0.00073427549683 
0.00072820482813 0.00072222775704 0.00071634246599 0.0007105470846 0.00070483673438 0.00069921125434 0.00069366756121 0.00082017577979 0.00081236555452 
0.00080467881351 0.00079712073148 0.00078224619487 0.00077539524119 0.00076865967287 0.00076203651583 0.00075552188818 0.00074911356913 0.00074280820334 
0.00073660347439 0.00073049627008 0.00072448469969 0.0007185673644 0.00071273918611 0.00070699857675 0.00070134424279 0.00069577286094 0.00069028284572 
0.00081632663631 0.00080855077634 0.00080089735457 0.00079336699264 0.00077807493443 0.00077129102739 0.00076462144268 0.00075806300728 0.0007516121127 
0.00074526643505 0.00073902288789 0.00073287850753 0.00072683120518 0.00072087974323 0.00071501862344 0.0007092475972 0.00070356333381 0.00069796383359 
0.00069244699644 0.0006870103814 0.00081478321387 0.00080805982471 0.00080146683595 0.00079499920693 0.00077727276123 0.00077076427038 0.00076433801133 
0.00075799274533 0.00075172658158 0.00074553799765 0.00073942570103 0.00073338795554 0.00072742408793 0.00072153249973 0.00071571253971 0.00070996367863 
0.00070428393283 0.00069867279983 0.00069312926962 0.000687652345 0.00081116871596 0.00080448497052 0.00079792687394 0.00079148922303 0.00077396957742 
0.00076751396909 0.00076114038921 0.00075484669706 0.00074863171409 0.00074249380881 0.00073643146178 0.00073044395238 0.00072452957783 0.00071868722115 
0.00071291627606 0.00070721565345 0.00070158418011 0.00069602040351 0.00069052375531 0.00068509354117 0.00080760535839 0.00080096132021 0.00079443767453 
0.00078803183683 0.0007707516272 0.00076434782798 0.00075802551854 0.00075178265017 0.00074561789319 0.0007395295433 0.00073351676771 0.00072757792596 
0.000721712294 0.00071591821311 0.00071019494746 0.0007045421815 0.00069895695068 0.00069343959473 0.00068798902933 0.00068260431919 0.00080406602681 
0.00079745962717 0.00079096986256 0.0007845967078 0.00076758849484 0.00076123578118 0.00075496395849 0.00074877117732 0.00074265603983 0.00073661663262 
0.00073065252648 0.00072476201939 0.00071894405598 0.00071319720649 0.00070752095314 0.00070191450801 0.00069637563007 0.00069090377283 0.00068549810872 
0.00068015804018 0.00080051601727 0.00079394807601 0.00078749331115 0.00078115198985 0.00076444574483 0.00075814362959 0.00075192201388 0.00074577913852 
0.00073971325786 0.00073372274711 0.00072780684933 0.00072196429289 0.00071619308327 0.00071049349347 0.00070486351997 0.00069930284717 0.00069380927813 
0.00068838227926 0.00068302113622 0.00067772491774 0.00079692112941 0.00079039059395 0.00078397306612 0.00077766559133 0.00076128767554 0.0007550365885 
0.00074886525212 0.00074277215479 0.00073675569742 0.0007308136407 0.00072494624401 0.00071915111462 0.00071342749217 0.00070777416702 0.00070219055945 
0.00069667494735 0.00069122639259 0.00068584405833 0.0006805267471 0.00067527380266 0.00079324703582 0.00078675732823 0.00078037688147 0.00077410306057 
0.0007580804765 0.00075188071427 0.00074576030605 0.00073971734352 0.00073375004532 0.00072785768719 0.0007220382378 0.0007162910474 0.00071061500131 
0.00070500831204 0.00069947032713 0.0006940001577 0.0006885965641 0.00068325853397 0.00067798518377 0.00067277540698 0.00092647933511 0.00091761728808 
0.00090890635779 0.00090033999767 0.00089003936954 0.00088194745898 0.00087399183371 0.00086616844722 0.00085847367698 0.00085090408596 0.00084345623143 
0.00083612740627 0.00082891508978 0.00082181360794 0.00081482419435 0.00080794124011 0.00080116332554 0.00079448677676 0.00078790961156 0.00078142925912 
0.00092182623739 0.00091303273917 0.00090438440201 0.00089588359011 0.00088508642945 0.00087706371396 0.00086917580632 0.00086141914037 0.00085379000008 
0.00084628471442 0.00083890004942 0.00083163380317 0.00082448026596 0.00081743949015 0.00081050863055 0.00080368347743 0.00079696119749 0.00079034014495 
0.00078381721061 0.00077739053661 0.00091711232281 0.00090838457367 0.00089980073343 0.0008913630721 0.00088007667486 0.0008721242576 0.0008643050915 
0.0008566160069 0.00084905320381 0.00084161311672 0.00083429306647 0.00082708782831 0.00081999692554 0.00081301683847 0.00080614564402 0.0007993779398 
0.00079271319703 0.00078614824297 0.00077968062581 0.00077330821994 0.00091236333205 0.00090370001755 0.00089517886992 0.00088680337861 0.00087503503537 
0.00086715328942 0.00085940386826 0.00085178282435 0.00084428697798 0.00083691241871 0.00082965633384 0.00082251563726 0.00081548727989 0.00080856915861 
0.00080175692428 0.00079504841526 0.00078844172931 0.00078193369937 0.00077552216792 0.00076920489376 0.00090760947806 0.00089900632736 0.00089054660118 
0.00088223062833 0.00086998813221 0.00086217764252 0.00085449827368 0.00084694637672 0.00083951741895 0.00083220936457 0.00082501849744 0.00081794184093 
0.00081097722003 0.00080411960398 0.00079736827379 0.00079071950117 0.00078417145112 0.00077772089413 0.00077136604042 0.00076510431816 0.00090287312613 
0.00089433066463 0.00088593031856 0.0008776695759 0.00086496212404 0.00085722365342 0.00084961402118 0.00084213159277 0.00083477093805 0.0008275292398 
0.00082040489617 0.00081339236598 0.00080648973837 0.00079969465914 0.00079300441483 0.0007864157033 0.00077992653367 0.0007735340369 0.00076723615894 
0.00076103072176 0.00089818268633 0.00088969767092 0.00088135228634 0.00087314769583 0.00085998208199 0.00085231450744 0.00084477685193 0.00083736304359 
0.00083007060641 0.00082289657447 0.00081583669261 0.00080888851062 0.00080204944443 0.00079531661355 0.00078868729808 0.00078215948764 0.00077572945371 
0.00076939527495 0.00076315464839 0.00075700551652 0.00089355727363 0.0008851261754 0.00087683531572 0.00086868167111 0.00085506677079 0.00084747250338 